/*--------------------------------*- C++ -*----------------------------------*\
| =========                 |                                                 |
| \\      /  F ield         | OpenFOAM: The Open Source CFD Toolbox           |
|  \\    /   O peration     | Version:  3.0.1                                 |
|   \\  /    A nd           | Web:      www.OpenFOAM.org                      |
|    \\/     M anipulation  |                                                 |
\*---------------------------------------------------------------------------*/
FoamFile
{
    version     2.0;
    format      ascii;
    class       volScalarField;
    location    "44";
    object      M1;
}
// * * * * * * * * * * * * * * * * * * * * * * * * * * * * * * * * * * * * * //

dimensions      [0 0 0 0 0 0 0];

internalField   nonuniform List<scalar> 
800
(
0.95681191
0.95681527
0.95681546
0.95681529
0.95681515
0.95681508
0.95681504
0.95681502
0.95681502
0.95681501
0.95681502
0.95681502
0.95681502
0.95681504
0.95681508
0.95681515
0.95681529
0.95681546
0.95681527
0.95681191
0.9567875
0.95680334
0.95680751
0.95680861
0.9568088
0.95680875
0.95680865
0.95680857
0.95680852
0.95680849
0.95680849
0.95680852
0.95680857
0.95680865
0.95680875
0.9568088
0.95680861
0.95680751
0.95680334
0.9567875
0.95664995
0.95667907
0.95668949
0.95669264
0.95669346
0.95669353
0.95669342
0.95669329
0.9566932
0.95669316
0.95669316
0.9566932
0.95669329
0.95669342
0.95669353
0.95669345
0.95669264
0.95668948
0.95667907
0.95664995
0.95645843
0.95649988
0.95651699
0.95652237
0.9565239
0.95652416
0.95652406
0.9565239
0.95652378
0.95652371
0.95652371
0.95652377
0.9565239
0.95652405
0.95652416
0.95652389
0.95652236
0.95651699
0.95649988
0.95645842
0.95624502
0.95629721
0.95632069
0.95632822
0.95633043
0.95633088
0.95633079
0.95633061
0.95633046
0.95633038
0.95633038
0.95633046
0.95633061
0.95633079
0.95633087
0.95633043
0.95632822
0.95632068
0.9562972
0.95624501
0.95603043
0.95609099
0.95612007
0.95612956
0.95613229
0.95613286
0.95613277
0.95613256
0.95613239
0.9561323
0.9561323
0.95613239
0.95613256
0.95613277
0.95613286
0.95613229
0.95612956
0.95612007
0.95609098
0.95603042
0.95583159
0.95589752
0.95593108
0.95594216
0.9559452
0.95594577
0.95594562
0.95594536
0.95594516
0.95594505
0.95594505
0.95594515
0.95594536
0.95594562
0.95594577
0.95594519
0.95594216
0.95593108
0.95589751
0.95583158
0.95566282
0.95573081
0.95576737
0.95577958
0.95578263
0.95578306
0.95578278
0.95578243
0.95578217
0.95578204
0.95578204
0.95578217
0.95578243
0.95578278
0.95578305
0.95578262
0.95577958
0.95576737
0.9557308
0.95566282
0.95553426
0.95560135
0.95563923
0.95565207
0.95565485
0.95565499
0.9556545
0.95565403
0.9556537
0.95565354
0.95565354
0.9556537
0.95565403
0.9556545
0.95565498
0.95565484
0.95565206
0.95563923
0.95560135
0.95553425
0.95545154
0.95551532
0.95555269
0.95556559
0.95556785
0.95556754
0.95556676
0.95556611
0.95556568
0.95556548
0.95556548
0.95556568
0.95556611
0.95556676
0.95556754
0.95556784
0.95556559
0.95555268
0.95551531
0.95545153
0.95541694
0.95547602
0.95551114
0.9555236
0.95552514
0.95552427
0.95552311
0.95552224
0.95552169
0.95552144
0.95552144
0.95552169
0.95552224
0.95552311
0.95552427
0.95552513
0.9555236
0.95551114
0.95547601
0.95541693
0.95544383
0.95548317
0.95551446
0.95552601
0.95552667
0.95552516
0.95552355
0.95552241
0.95552172
0.95552141
0.95552141
0.95552172
0.95552241
0.95552355
0.95552515
0.95552667
0.955526
0.95551445
0.95548316
0.95544382
0.95552801
0.95556455
0.95558884
0.95559869
0.95559846
0.95559627
0.95559405
0.95559255
0.95559169
0.95559129
0.95559129
0.95559169
0.95559255
0.95559404
0.95559626
0.95559846
0.95559869
0.95558883
0.95556454
0.95552801
0.95566843
0.95570283
0.95571894
0.9557267
0.9557258
0.95572306
0.9557201
0.95571819
0.95571712
0.95571662
0.95571662
0.95571712
0.95571819
0.9557201
0.95572306
0.95572579
0.95572669
0.95571894
0.95570282
0.95566843
0.95586013
0.95589364
0.95590138
0.9559067
0.95590544
0.95590233
0.95589849
0.95589608
0.95589478
0.95589416
0.95589416
0.95589478
0.95589608
0.95589849
0.95590233
0.95590544
0.9559067
0.95590138
0.95589364
0.95586013
0.95609648
0.95613195
0.95613217
0.95613484
0.95613358
0.95613025
0.95612538
0.95612237
0.95612077
0.95612004
0.95612004
0.95612077
0.95612237
0.95612538
0.95613025
0.95613358
0.95613484
0.95613217
0.95613195
0.95609648
0.95637027
0.95641217
0.95640683
0.95640685
0.95640597
0.9564025
0.95639639
0.95639267
0.95639069
0.95638989
0.95638989
0.95639069
0.95639267
0.95639639
0.9564025
0.95640597
0.95640685
0.95640683
0.95641217
0.95637027
0.95667394
0.9567281
0.95672018
0.95671792
0.95671785
0.95671421
0.95670658
0.956702
0.95669949
0.95669874
0.95669874
0.95669949
0.956702
0.95670658
0.95671421
0.95671785
0.95671792
0.95672018
0.9567281
0.95667394
0.95699913
0.95707277
0.95706615
0.95706252
0.9570638
0.9570598
0.95705021
0.95704461
0.95704136
0.95704089
0.95704089
0.95704136
0.95704461
0.95705021
0.9570598
0.9570638
0.95706252
0.95706615
0.95707277
0.95699913
0.95733614
0.9574379
0.95743734
0.95743389
0.95743721
0.95743251
0.95742039
0.95741361
0.95740931
0.95740945
0.95740945
0.95740931
0.9574136
0.95742039
0.95743251
0.95743721
0.95743389
0.95743734
0.9574379
0.95733614
0.95767372
0.95781375
0.95782471
0.95782366
0.9578299
0.95782398
0.95780871
0.95780057
0.95779484
0.95779598
0.95779598
0.95779484
0.95780057
0.95780871
0.95782398
0.9578299
0.95782366
0.95782471
0.95781375
0.95767372
0.9580004
0.95819029
0.95821895
0.95822314
0.95823332
0.95822562
0.95820659
0.95819696
0.95818934
0.95819191
0.95819191
0.95818934
0.95819696
0.95820659
0.95822562
0.95823332
0.95822314
0.95821895
0.95819029
0.9580004
0.95830425
0.95855716
0.95861054
0.95862336
0.95863862
0.95862859
0.95860534
0.95859408
0.95858418
0.95858857
0.95858857
0.95858418
0.95859408
0.95860534
0.95862859
0.95863862
0.95862336
0.95861054
0.95855716
0.95830425
0.9585724
0.95890311
0.95898919
0.95901445
0.95903619
0.9590234
0.95899558
0.95898257
0.95897018
0.95897668
0.95897668
0.95897018
0.95898257
0.95899558
0.9590234
0.95903619
0.95901445
0.95898919
0.95890311
0.9585724
0.95879138
0.95921673
0.95934487
0.95938683
0.95941686
0.95940102
0.95936837
0.95935349
0.95933869
0.95934747
0.95934747
0.95933868
0.95935349
0.95936837
0.95940102
0.95941686
0.95938683
0.95934487
0.95921673
0.95879138
0.95894544
0.95948517
0.95966647
0.95973007
0.95977067
0.95975176
0.95971411
0.95969724
0.95968042
0.95969152
0.95969152
0.95968042
0.95969723
0.9597141
0.95975175
0.95977067
0.95973007
0.95966647
0.95948517
0.95894544
0.95901544
0.95969347
0.9599412
0.96003252
0.9600865
0.96006491
0.96002218
0.96000319
0.95998505
0.95999837
0.95999837
0.95998505
0.96000319
0.96002218
0.9600649
0.9600865
0.96003252
0.9599412
0.95969347
0.95901544
0.95897688
0.95982368
0.96015413
0.96028116
0.96035186
0.96032863
0.96028099
0.96025972
0.96024113
0.96025642
0.96025642
0.96024113
0.96025972
0.96028099
0.96032863
0.96035186
0.96028116
0.96015413
0.95982368
0.95897689
0.95879672
0.95985233
0.96028629
0.96045973
0.96055121
0.96052838
0.96047636
0.96045262
0.96043447
0.96045141
0.96045141
0.96043447
0.96045262
0.96047636
0.96052837
0.96055121
0.96045973
0.96028629
0.95985234
0.95879673
0.95842845
0.95974685
0.96031246
0.96054654
0.9606642
0.960645
0.9605896
0.96056313
0.96054618
0.96056434
0.96056434
0.96054618
0.96056313
0.9605896
0.960645
0.96066419
0.96054654
0.96031246
0.95974686
0.95842846
0.95780434
0.95946036
0.960197
0.96051071
0.96066268
0.9606519
0.96059429
0.9605647
0.9605494
0.96056829
0.96056829
0.9605494
0.96056469
0.96059428
0.96065189
0.96066268
0.96051071
0.960197
0.95946038
0.95780437
0.95682355
0.95892408
0.95988851
0.96030773
0.9605063
0.96051087
0.96045225
0.96041849
0.96040488
0.96042393
0.96042393
0.96040488
0.96041849
0.96045224
0.96051087
0.9605063
0.96030773
0.95988852
0.95892411
0.9568236
0.95533098
0.95803603
0.95931138
0.95987268
0.96013567
0.96016572
0.96010783
0.96006742
0.96005502
0.96007357
0.96007357
0.96005502
0.96006742
0.96010783
0.96016572
0.96013568
0.95987269
0.95931141
0.95803608
0.95533107
0.95308674
0.95664197
0.95835113
0.95910828
0.95946175
0.95953167
0.95947683
0.95942708
0.95941487
0.9594321
0.9594321
0.95941487
0.95942709
0.95947683
0.95953168
0.95946176
0.9591083
0.95835117
0.95664205
0.95308688
0.94972018
0.95450355
0.95683036
0.95786488
0.95834834
0.95847664
0.95842992
0.95837083
0.95835719
0.95837205
0.95837205
0.95835719
0.95837083
0.95842993
0.95847665
0.95834836
0.95786491
0.95683042
0.95450369
0.94972042
0.9446532
0.9512508
0.95447066
0.95590404
0.95658256
0.95679499
0.95676784
0.95670405
0.95668676
0.9566978
0.9566978
0.95668676
0.95670406
0.95676785
0.956795
0.95658259
0.95590409
0.95447075
0.951251
0.94465359
0.93702754
0.94631594
0.9508272
0.95284624
0.95382015
0.95416552
0.95417813
0.95411638
0.95409258
0.95409772
0.95409772
0.95409259
0.95411639
0.95417815
0.95416555
0.95382019
0.95284631
0.95082733
0.94631624
0.93702814
0.92546464
0.93876935
0.94517036
0.94807791
0.94950995
0.95007517
0.95015954
0.9501218
0.95008852
0.95008483
0.95008484
0.95008853
0.95012182
0.95015956
0.95007521
0.94951001
0.94807801
0.94517056
0.93876979
0.92546556
0.90763255
0.92704766
0.93628653
0.94058327
0.94275119
0.9436797
0.94388742
0.94394214
0.94389639
0.94387932
0.94387932
0.94389641
0.94394217
0.94388746
0.94367976
0.94275128
0.94058342
0.93628681
0.92704831
0.90763404
0.88516011
0.90865264
0.92096745
0.92703004
0.93004735
0.93159591
0.93194134
0.9321065
0.9320138
0.93196082
0.93196082
0.93201382
0.93210653
0.93194138
0.93159597
0.93004745
0.92703021
0.92096779
0.9086535
0.88516241
)
;

boundaryField
{
    Wall
    {
        type            zeroGradient;
    }
    frontAndBack
    {
        type            empty;
    }
    atmosphere
    {
        type            zeroGradient;
    }
}


// ************************************************************************* //
