/*--------------------------------*- C++ -*----------------------------------*\
| =========                 |                                                 |
| \\      /  F ield         | OpenFOAM: The Open Source CFD Toolbox           |
|  \\    /   O peration     | Version:  3.0.1                                 |
|   \\  /    A nd           | Web:      www.OpenFOAM.org                      |
|    \\/     M anipulation  |                                                 |
\*---------------------------------------------------------------------------*/
FoamFile
{
    version     2.0;
    format      ascii;
    class       volScalarField;
    location    "44";
    object      node1;
}
// * * * * * * * * * * * * * * * * * * * * * * * * * * * * * * * * * * * * * //

dimensions      [0 0 0 0 0 0 0];

internalField   nonuniform List<scalar> 
800
(
2.2142665e-12
2.2144464e-12
2.2144566e-12
2.2144474e-12
2.2144402e-12
2.2144362e-12
2.2144342e-12
2.2144333e-12
2.2144329e-12
2.2144328e-12
2.2144328e-12
2.2144329e-12
2.2144333e-12
2.2144342e-12
2.2144362e-12
2.2144402e-12
2.2144474e-12
2.2144566e-12
2.2144464e-12
2.2142665e-12
2.2128565e-12
2.213714e-12
2.2139396e-12
2.2139993e-12
2.2140097e-12
2.2140067e-12
2.2140014e-12
2.2139971e-12
2.2139944e-12
2.213993e-12
2.213993e-12
2.2139944e-12
2.2139971e-12
2.2140014e-12
2.2140066e-12
2.2140097e-12
2.2139993e-12
2.2139396e-12
2.213714e-12
2.2128564e-12
2.2137028e-12
2.2149644e-12
2.2153675e-12
2.2154682e-12
2.2154826e-12
2.2154751e-12
2.2154649e-12
2.2154572e-12
2.2154525e-12
2.2154503e-12
2.2154503e-12
2.2154525e-12
2.2154572e-12
2.2154649e-12
2.215475e-12
2.2154826e-12
2.2154682e-12
2.2153675e-12
2.2149644e-12
2.2137026e-12
2.2195595e-12
2.2208853e-12
2.2213769e-12
2.2214801e-12
2.2214824e-12
2.2214647e-12
2.2214483e-12
2.2214375e-12
2.2214314e-12
2.2214287e-12
2.2214287e-12
2.2214314e-12
2.2214375e-12
2.2214483e-12
2.2214646e-12
2.2214824e-12
2.2214801e-12
2.2213768e-12
2.2208853e-12
2.2195594e-12
2.230925e-12
2.2319841e-12
2.2324665e-12
2.2325362e-12
2.2325097e-12
2.2324755e-12
2.232451e-12
2.2324369e-12
2.2324298e-12
2.2324269e-12
2.2324269e-12
2.2324298e-12
2.2324369e-12
2.232451e-12
2.2324755e-12
2.2325097e-12
2.2325362e-12
2.2324664e-12
2.2319841e-12
2.2309249e-12
2.248073e-12
2.24853e-12
2.2488965e-12
2.2488953e-12
2.2488212e-12
2.2487628e-12
2.2487272e-12
2.248709e-12
2.2487006e-12
2.2486976e-12
2.2486976e-12
2.2487007e-12
2.248709e-12
2.2487272e-12
2.2487628e-12
2.2488212e-12
2.2488953e-12
2.2488966e-12
2.24853e-12
2.248073e-12
2.2713229e-12
2.2708291e-12
2.2709622e-12
2.270849e-12
2.2707067e-12
2.270615e-12
2.2705646e-12
2.2705408e-12
2.2705308e-12
2.2705275e-12
2.2705275e-12
2.2705309e-12
2.2705408e-12
2.2705646e-12
2.2706151e-12
2.2707068e-12
2.2708491e-12
2.2709623e-12
2.2708292e-12
2.2713229e-12
2.3009907e-12
2.2991914e-12
2.2989618e-12
2.2986923e-12
2.2984601e-12
2.2983252e-12
2.2982554e-12
2.2982242e-12
2.2982119e-12
2.2982081e-12
2.2982081e-12
2.2982119e-12
2.2982243e-12
2.2982555e-12
2.2983253e-12
2.2984603e-12
2.2986925e-12
2.298962e-12
2.2991915e-12
2.3009908e-12
2.3372626e-12
2.3337406e-12
2.333022e-12
2.3325524e-12
2.3322115e-12
2.3320244e-12
2.331931e-12
2.3318903e-12
2.3318747e-12
2.3318701e-12
2.3318701e-12
2.3318748e-12
2.3318904e-12
2.3319311e-12
2.3320246e-12
2.3322116e-12
2.3325526e-12
2.3330222e-12
2.3337409e-12
2.3372629e-12
2.3823713e-12
2.3763949e-12
2.3748592e-12
2.3741039e-12
2.3736108e-12
2.3733502e-12
2.373223e-12
2.3731686e-12
2.3731482e-12
2.3731423e-12
2.3731423e-12
2.3731483e-12
2.3731687e-12
2.3732232e-12
2.3733505e-12
2.3736111e-12
2.3741042e-12
2.3748595e-12
2.3763953e-12
2.3823717e-12
2.4371414e-12
2.4282129e-12
2.42562e-12
2.4245147e-12
2.4238526e-12
2.423508e-12
2.4233381e-12
2.4232651e-12
2.4232378e-12
2.4232296e-12
2.4232297e-12
2.4232379e-12
2.4232653e-12
2.4233384e-12
2.4235083e-12
2.4238529e-12
2.4245151e-12
2.4256205e-12
2.4282133e-12
2.437142e-12
2.5021857e-12
2.4900378e-12
2.4860845e-12
2.4845557e-12
2.4837197e-12
2.4832881e-12
2.4830654e-12
2.4829684e-12
2.4829321e-12
2.4829208e-12
2.4829208e-12
2.4829322e-12
2.4829686e-12
2.4830657e-12
2.4832885e-12
2.4837202e-12
2.4845562e-12
2.4860851e-12
2.4900384e-12
2.5021863e-12
2.5780267e-12
2.561742e-12
2.5561613e-12
2.554136e-12
2.5531307e-12
2.5526163e-12
2.5523303e-12
2.5522035e-12
2.552157e-12
2.5521415e-12
2.5521416e-12
2.5521571e-12
2.5522037e-12
2.5523307e-12
2.5526168e-12
2.5531313e-12
2.5541366e-12
2.556162e-12
2.5617427e-12
2.5780275e-12
2.6648089e-12
2.6442985e-12
2.6367967e-12
2.6341806e-12
2.633031e-12
2.6324486e-12
2.6320858e-12
2.6319196e-12
2.631862e-12
2.6318406e-12
2.6318406e-12
2.6318622e-12
2.6319199e-12
2.6320862e-12
2.6324491e-12
2.6330316e-12
2.6341813e-12
2.6367975e-12
2.6442993e-12
2.6648098e-12
2.7625318e-12
2.7379148e-12
2.7282554e-12
2.7249433e-12
2.7237071e-12
2.7230919e-12
2.7226307e-12
2.7224124e-12
2.7223438e-12
2.7223148e-12
2.7223149e-12
2.722344e-12
2.7224128e-12
2.7226311e-12
2.7230925e-12
2.7237078e-12
2.7249441e-12
2.7282563e-12
2.7379157e-12
2.7625328e-12
2.8708538e-12
2.8421836e-12
2.8302563e-12
2.8261413e-12
2.8248867e-12
2.8242733e-12
2.823679e-12
2.8233935e-12
2.8233121e-12
2.8232777e-12
2.8232778e-12
2.8233123e-12
2.8233939e-12
2.8236795e-12
2.824274e-12
2.8248875e-12
2.8261422e-12
2.8302572e-12
2.8421846e-12
2.870855e-12
2.9888457e-12
2.9561225e-12
2.9419364e-12
2.9369312e-12
2.9357102e-12
2.9351079e-12
2.9343408e-12
2.9339742e-12
2.9338741e-12
2.9338473e-12
2.9338474e-12
2.9338743e-12
2.9339746e-12
2.9343413e-12
2.9351086e-12
2.935711e-12
2.9369321e-12
2.9419374e-12
2.9561235e-12
2.9888469e-12
3.1157022e-12
3.0789307e-12
3.0625487e-12
3.056588e-12
3.0554232e-12
3.0548014e-12
3.0538119e-12
3.0533504e-12
3.0532161e-12
3.0532253e-12
3.0532254e-12
3.0532164e-12
3.0533508e-12
3.0538124e-12
3.0548021e-12
3.055424e-12
3.0565889e-12
3.0625497e-12
3.0789317e-12
3.1157033e-12
3.2508741e-12
3.2100993e-12
3.1915834e-12
3.1846308e-12
3.1835273e-12
3.1828177e-12
3.1815398e-12
3.1809686e-12
3.1807699e-12
3.180861e-12
3.1808611e-12
3.1807701e-12
3.180969e-12
3.1815403e-12
3.1828184e-12
3.1835281e-12
3.1846317e-12
3.1915844e-12
3.2101002e-12
3.2508752e-12
3.3940079e-12
3.349325e-12
3.3287166e-12
3.3207695e-12
3.3197269e-12
3.3188285e-12
3.317181e-12
3.316485e-12
3.3161725e-12
3.3164072e-12
3.3164073e-12
3.3161727e-12
3.3164854e-12
3.3171815e-12
3.3188292e-12
3.3197277e-12
3.3207704e-12
3.3287175e-12
3.349326e-12
3.394009e-12
3.5444104e-12
3.4960217e-12
3.4733257e-12
3.4644108e-12
3.4634211e-12
3.4622097e-12
3.4601064e-12
3.4592699e-12
3.4587751e-12
3.4592232e-12
3.4592233e-12
3.4587753e-12
3.4592702e-12
3.4601069e-12
3.4622102e-12
3.4634218e-12
3.4644115e-12
3.4733265e-12
3.4960226e-12
3.5444113e-12
3.7015588e-12
3.6497784e-12
3.6249728e-12
3.6151255e-12
3.614164e-12
3.6125072e-12
3.609874e-12
3.6088834e-12
3.6081312e-12
3.6088624e-12
3.6088624e-12
3.6081314e-12
3.6088837e-12
3.6098744e-12
3.6125077e-12
3.6141646e-12
3.6151262e-12
3.6249735e-12
3.6497791e-12
3.7015595e-12
3.8651265e-12
3.8103439e-12
3.7833963e-12
3.772638e-12
3.7716658e-12
3.7694358e-12
3.7662183e-12
3.7650635e-12
3.7639932e-12
3.7650672e-12
3.7650672e-12
3.7639933e-12
3.7650637e-12
3.7662186e-12
3.7694362e-12
3.7716663e-12
3.7726385e-12
3.7833968e-12
3.8103443e-12
3.8651269e-12
4.034319e-12
3.9770726e-12
3.9479779e-12
3.9362861e-12
3.9352649e-12
3.9323401e-12
3.9284998e-12
3.9271766e-12
3.9257699e-12
3.9272285e-12
3.9272285e-12
3.92577e-12
3.9271768e-12
3.9285e-12
3.9323404e-12
3.9352652e-12
3.9362864e-12
3.9479783e-12
3.9770729e-12
4.0343192e-12
4.2086078e-12
4.1495241e-12
4.1183512e-12
4.1056607e-12
4.1045743e-12
4.1008352e-12
4.0963341e-12
4.0948453e-12
4.093145e-12
4.0950097e-12
4.0950097e-12
4.0931451e-12
4.0948455e-12
4.0963343e-12
4.1008353e-12
4.1045744e-12
4.1056609e-12
4.1183513e-12
4.1495241e-12
4.2086077e-12
4.3871148e-12
4.3269919e-12
4.2938929e-12
4.280118e-12
4.2789642e-12
4.2743097e-12
4.2691096e-12
4.2674734e-12
4.2655899e-12
4.2678647e-12
4.2678647e-12
4.2655899e-12
4.2674734e-12
4.2691097e-12
4.2743097e-12
4.2789642e-12
4.280118e-12
4.2938928e-12
4.3269916e-12
4.3871144e-12
4.5683859e-12
4.5083217e-12
4.4735475e-12
4.4586634e-12
4.4574142e-12
4.4517803e-12
4.4458572e-12
4.444104e-12
4.4421996e-12
4.4448742e-12
4.4448742e-12
4.4421996e-12
4.4441039e-12
4.4458571e-12
4.4517801e-12
4.4574141e-12
4.4586631e-12
4.4735472e-12
4.5083211e-12
4.5683852e-12
4.7506318e-12
4.6921385e-12
4.6560765e-12
4.6401756e-12
4.6387377e-12
4.6321201e-12
4.6254898e-12
4.623663e-12
4.6219264e-12
4.6249821e-12
4.6249821e-12
4.6219264e-12
4.6236629e-12
4.6254896e-12
4.6321199e-12
4.6387374e-12
4.6401752e-12
4.6560759e-12
4.6921377e-12
4.750631e-12
4.9310732e-12
4.8762488e-12
4.8395182e-12
4.8228542e-12
4.8210614e-12
4.8135591e-12
4.8063118e-12
4.8044771e-12
4.8031006e-12
4.8065201e-12
4.8065201e-12
4.8031006e-12
4.804477e-12
4.8063116e-12
4.8135588e-12
4.821061e-12
4.8228536e-12
4.8395175e-12
4.8762479e-12
4.9310723e-12
5.1059465e-12
5.0575332e-12
5.0211325e-12
5.0040412e-12
5.0016922e-12
4.9934713e-12
4.9857537e-12
4.9839875e-12
4.9831409e-12
4.9869116e-12
4.9869116e-12
4.9831408e-12
4.9839874e-12
4.9857535e-12
4.9934709e-12
5.0016917e-12
5.0040405e-12
5.0211317e-12
5.0575322e-12
5.1059459e-12
5.2701031e-12
5.2315204e-12
5.1969674e-12
5.1798006e-12
5.1768082e-12
5.1680596e-12
5.1599717e-12
5.158352e-12
5.1581714e-12
5.1622917e-12
5.1622917e-12
5.1581713e-12
5.158352e-12
5.1599715e-12
5.1680593e-12
5.1768077e-12
5.1797999e-12
5.1969666e-12
5.2315196e-12
5.270103e-12
5.4168449e-12
5.3921643e-12
5.3616807e-12
5.3448369e-12
5.3412611e-12
5.3322039e-12
5.3237412e-12
5.3222278e-12
5.322805e-12
5.3272845e-12
5.3272845e-12
5.3228051e-12
5.3222278e-12
5.3237411e-12
5.3322036e-12
5.3412607e-12
5.3448364e-12
5.36168e-12
5.3921639e-12
5.4168457e-12
5.5378507e-12
5.532195e-12
5.5087643e-12
5.4929191e-12
5.4889337e-12
5.4798547e-12
5.4710166e-12
5.4693288e-12
5.4707049e-12
5.4755594e-12
5.4755594e-12
5.470705e-12
5.469329e-12
5.4710167e-12
5.4798546e-12
5.4889336e-12
5.4929189e-12
5.5087641e-12
5.5321955e-12
5.5378529e-12
5.6238359e-12
5.6434882e-12
5.6309171e-12
5.6173698e-12
5.6133909e-12
5.6047007e-12
5.5954348e-12
5.5933174e-12
5.5954888e-12
5.6007326e-12
5.6007327e-12
5.595489e-12
5.5933177e-12
5.5954351e-12
5.6047009e-12
5.6133911e-12
5.6173701e-12
5.6309176e-12
5.6434902e-12
5.6238403e-12
5.6648818e-12
5.7170671e-12
5.7201342e-12
5.710997e-12
5.7078306e-12
5.6998316e-12
5.6902391e-12
5.6877415e-12
5.6906836e-12
5.6963225e-12
5.6963227e-12
5.6906839e-12
5.6877421e-12
5.6902396e-12
5.6998322e-12
5.7078314e-12
5.7109981e-12
5.7201358e-12
5.7170711e-12
5.6648891e-12
5.6499189e-12
5.7428486e-12
5.7668974e-12
5.7644693e-12
5.7636297e-12
5.7564057e-12
5.7468259e-12
5.7443199e-12
5.7480059e-12
5.754032e-12
5.7540322e-12
5.7480065e-12
5.7443207e-12
5.7468269e-12
5.7564068e-12
5.7636311e-12
5.7644713e-12
5.7669004e-12
5.742855e-12
5.6499294e-12
5.5712106e-12
5.71138e-12
5.7595842e-12
5.7657184e-12
5.7683355e-12
5.7624234e-12
5.7531757e-12
5.7507507e-12
5.755114e-12
5.7614911e-12
5.7614914e-12
5.7551147e-12
5.7507518e-12
5.7531771e-12
5.7624251e-12
5.7683377e-12
5.7657214e-12
5.7595888e-12
5.7113888e-12
5.5712233e-12
5.4226131e-12
5.6150908e-12
5.6864981e-12
5.7015873e-12
5.7077791e-12
5.7033106e-12
5.6943556e-12
5.6928363e-12
5.6977771e-12
5.7044485e-12
5.7044489e-12
5.697778e-12
5.6928378e-12
5.6943574e-12
5.7033128e-12
5.7077819e-12
5.7015912e-12
5.6865039e-12
5.6151008e-12
5.422626e-12
5.1869483e-12
5.4461981e-12
5.537935e-12
5.5604027e-12
5.5690687e-12
5.5653948e-12
5.5561061e-12
5.5577962e-12
5.5630854e-12
5.5699453e-12
5.5699456e-12
5.5630863e-12
5.5577978e-12
5.5561081e-12
5.5653972e-12
5.5690718e-12
5.5604069e-12
5.537941e-12
5.4462078e-12
5.1869596e-12
0
0
5.2430738e-12
5.2685966e-12
5.2657497e-12
5.2649191e-12
5.2514191e-12
5.2540102e-12
5.2583187e-12
5.2647371e-12
5.2647373e-12
5.2583192e-12
5.2540111e-12
5.2514201e-12
5.2649204e-12
5.2657514e-12
5.268599e-12
5.2430772e-12
0
0
)
;

boundaryField
{
    Wall
    {
        type            zeroGradient;
    }
    frontAndBack
    {
        type            empty;
    }
    atmosphere
    {
        type            zeroGradient;
    }
}


// ************************************************************************* //
