/*--------------------------------*- C++ -*----------------------------------*\
| =========                 |                                                 |
| \\      /  F ield         | OpenFOAM: The Open Source CFD Toolbox           |
|  \\    /   O peration     | Version:  3.0.1                                 |
|   \\  /    A nd           | Web:      www.OpenFOAM.org                      |
|    \\/     M anipulation  |                                                 |
\*---------------------------------------------------------------------------*/
FoamFile
{
    version     2.0;
    format      ascii;
    class       volScalarField;
    location    "44";
    object      wBA_g;
}
// * * * * * * * * * * * * * * * * * * * * * * * * * * * * * * * * * * * * * //

dimensions      [0 0 0 0 0 0 0];

internalField   nonuniform List<scalar> 
800
(
0.04968954
0.049690101
0.04969033
0.049690417
0.049690479
0.049690529
0.049690568
0.049690596
0.049690615
0.049690624
0.049690624
0.049690615
0.049690596
0.049690568
0.049690529
0.049690479
0.049690418
0.04969033
0.049690101
0.04968954
0.051861417
0.051796662
0.051773746
0.051763432
0.051758436
0.051756013
0.051754866
0.051754343
0.051754117
0.051754037
0.051754037
0.051754118
0.051754344
0.051754868
0.051756016
0.05175844
0.051763436
0.051773751
0.051796669
0.051861427
0.053880643
0.053784008
0.053751745
0.053735786
0.05372831
0.053724792
0.053723152
0.053722404
0.053722077
0.053721955
0.053721956
0.053722078
0.053722406
0.053723154
0.053724795
0.053728314
0.053735791
0.053751752
0.053784017
0.053880655
0.055326441
0.055213979
0.055182812
0.055164824
0.055156535
0.055152683
0.055150876
0.05515005
0.055149679
0.05514954
0.05514954
0.05514968
0.055150051
0.055150878
0.055152686
0.055156538
0.055164828
0.055182818
0.055213987
0.055326451
0.056266569
0.056152667
0.056127898
0.056111832
0.056104065
0.056100506
0.056098807
0.056098027
0.056097659
0.056097519
0.056097519
0.056097659
0.056098027
0.056098808
0.056100507
0.056104066
0.056111834
0.056127901
0.056152672
0.056266575
0.05677127
0.056669813
0.056653417
0.056643285
0.056637094
0.056634361
0.056633031
0.056632434
0.056632128
0.056632013
0.056632013
0.056632127
0.056632432
0.05663303
0.056634359
0.056637092
0.056643283
0.056653416
0.056669813
0.05677127
0.056897539
0.056821192
0.056813172
0.056812241
0.056808307
0.056806776
0.05680602
0.056805723
0.056805537
0.056805475
0.056805475
0.056805536
0.05680572
0.056806017
0.056806772
0.056808302
0.056812235
0.056813166
0.056821187
0.056897533
0.056699159
0.056658097
0.056657626
0.05666788
0.056666483
0.056666335
0.056666263
0.056666339
0.056666313
0.056666324
0.056666323
0.05666631
0.056666335
0.056666257
0.056666327
0.056666475
0.05666787
0.056657615
0.056658086
0.056699145
0.056232272
0.05623323
0.056239355
0.056261186
0.056262288
0.056263435
0.056264004
0.056264438
0.056264561
0.056264644
0.056264643
0.056264557
0.056264433
0.056263996
0.056263425
0.056262275
0.056261172
0.05623934
0.056233213
0.056232252
0.055552814
0.055598398
0.055610403
0.055642837
0.055646571
0.055648958
0.055650095
0.055650866
0.055651132
0.05565129
0.055651289
0.055651128
0.055650859
0.055650085
0.055648944
0.055646555
0.055642819
0.055610384
0.055598377
0.055552788
0.054717468
0.054807034
0.054823894
0.054864357
0.054870983
0.054874573
0.054875983
0.054876922
0.054877239
0.054877434
0.054877432
0.054877234
0.054876914
0.054875971
0.054874558
0.054870965
0.054864336
0.054823871
0.054807009
0.054717438
0.053782363
0.053912059
0.053932636
0.053977563
0.05398807
0.053993318
0.053994666
0.053995583
0.05399585
0.053996039
0.053996038
0.053995844
0.053995573
0.053994652
0.053993301
0.053988049
0.053977538
0.05393261
0.053912031
0.053782329
0.052798134
0.052963336
0.052985841
0.053030699
0.053046926
0.053054721
0.05305553
0.053056137
0.053056241
0.053056355
0.053056353
0.053056235
0.053056127
0.053055515
0.053054702
0.053046904
0.053030673
0.052985813
0.052963305
0.052798098
0.051810887
0.05200679
0.052028884
0.052068574
0.052093387
0.052104936
0.052104595
0.052104505
0.052104461
0.052104397
0.052104395
0.052104455
0.052104494
0.05210458
0.052104916
0.052093363
0.052068547
0.052028854
0.052006758
0.05181085
0.050858276
0.051081001
0.051100021
0.051129409
0.05116657
0.051183122
0.051180883
0.051179603
0.051179822
0.051179483
0.051179481
0.051179816
0.051179592
0.051180866
0.051183101
0.051166544
0.051129379
0.051099989
0.051080967
0.050858236
0.049978465
0.05022558
0.050238924
0.050253229
0.050306801
0.050329183
0.050324025
0.050320895
0.050322396
0.05032182
0.050321818
0.05032239
0.050320885
0.05032401
0.050329164
0.050306777
0.050253201
0.050238894
0.050225548
0.049978428
0.049193276
0.049463671
0.049469611
0.049465368
0.049539196
0.049567611
0.049558358
0.049552637
0.049557199
0.049556827
0.049556825
0.049557193
0.049552627
0.049558343
0.049567591
0.049539171
0.049465339
0.04946958
0.049463637
0.049193238
0.048519708
0.048814228
0.048812232
0.048787431
0.04888423
0.048917817
0.048903031
0.04889382
0.048903739
0.048904634
0.048904632
0.048903734
0.04889381
0.048903016
0.048917797
0.048884206
0.048787402
0.048812202
0.048814196
0.048519672
0.047967416
0.048288389
0.048279334
0.048233632
0.04835476
0.04839158
0.048369662
0.048355944
0.048373613
0.048377589
0.048377587
0.048373608
0.048355934
0.048369647
0.048391561
0.048354736
0.048233603
0.048279303
0.048288356
0.047967381
0.047546457
0.047897567
0.047883964
0.04781845
0.047964083
0.048001249
0.047970518
0.047951184
0.047978599
0.047988146
0.047988145
0.047978595
0.047951176
0.047970506
0.048001232
0.047964062
0.047818425
0.047883938
0.047897539
0.047546427
0.047250131
0.04763597
0.047621893
0.047538819
0.047708461
0.047742441
0.047701233
0.04767511
0.047713393
0.047731346
0.047731344
0.047713389
0.047675102
0.04770122
0.047742424
0.04770844
0.047538793
0.047621866
0.04763594
0.047250099
0.047070841
0.047498443
0.047489164
0.047391204
0.047584205
0.047611175
0.047557879
0.047523815
0.047573073
0.047602208
0.047602207
0.047573069
0.047523808
0.047557867
0.04761116
0.047584186
0.047391181
0.04748914
0.047498416
0.047070813
0.047005474
0.047482871
0.047484931
0.047375247
0.047591603
0.047607958
0.04754102
0.047497907
0.047557357
0.047599965
0.047599964
0.047557354
0.0474979
0.047541009
0.047607943
0.047591584
0.047375225
0.047484907
0.047482845
0.047005445
0.047031389
0.047570331
0.04759124
0.047473168
0.047713457
0.047716072
0.04763397
0.047580812
0.047649054
0.047706557
0.047706557
0.047649051
0.047580806
0.04763396
0.047716058
0.04771344
0.047473146
0.047591217
0.047570305
0.047031361
0.047132927
0.047747888
0.047797291
0.047675453
0.047940785
0.047927307
0.047828472
0.0477643
0.047839672
0.047912434
0.047912433
0.047839669
0.047764294
0.047828461
0.047927294
0.047940769
0.047675433
0.047797269
0.047747863
0.047132899
0.047287698
0.047998319
0.048087793
0.047968365
0.04825992
0.048229359
0.048112306
0.048036312
0.048117271
0.048204616
0.048204616
0.048117268
0.048036306
0.048112296
0.048229346
0.048259904
0.047968345
0.048087772
0.047998295
0.047287669
0.047459824
0.048292455
0.048436946
0.048328743
0.048647167
0.048600336
0.048463727
0.048375223
0.048460381
0.048560661
0.04856066
0.048460378
0.048375216
0.048463717
0.048600322
0.048647152
0.048328724
0.048436924
0.048292431
0.047459795
0.047614324
0.048603318
0.048821695
0.048736149
0.049080779
0.049020306
0.04886273
0.048760937
0.048848891
0.04895964
0.04895964
0.048848889
0.048760931
0.048862719
0.049020293
0.049080764
0.04873613
0.048821674
0.048603294
0.047614297
0.047701432
0.048891735
0.049209293
0.049160947
0.049530529
0.049461476
0.04928196
0.049166332
0.049255735
0.049374045
0.049374045
0.049255733
0.049166327
0.04928195
0.049461463
0.049530515
0.049160929
0.049209274
0.048891713
0.047701408
0.047660394
0.049110244
0.049559309
0.049565008
0.049957878
0.049887004
0.049684718
0.049554652
0.049643836
0.049766487
0.049766487
0.049643834
0.049554647
0.049684709
0.049886992
0.049957865
0.049564992
0.049559291
0.049110225
0.047660376
0.047414026
0.049197269
0.049819354
0.049898465
0.05031368
0.050249012
0.050023715
0.049878626
0.04996554
0.050089248
0.050089248
0.049965539
0.049878622
0.050023706
0.050249001
0.050313669
0.049898451
0.049819339
0.049197256
0.047414018
0.04686564
0.049071464
0.049918419
0.050093472
0.050531789
0.050481723
0.050234336
0.050073957
0.050156064
0.050277613
0.050277613
0.050156064
0.050073954
0.050234329
0.050481713
0.05053178
0.050093462
0.04991841
0.049071461
0.046865647
0.045905118
0.04863185
0.04976541
0.050063067
0.050528176
0.05050047
0.050233545
0.050058671
0.050132932
0.050249258
0.050249258
0.050132932
0.05005867
0.05023354
0.050500463
0.05052817
0.050063062
0.049765407
0.048631861
0.045905147
0.044422238
0.047762913
0.049251109
0.049703004
0.050203174
0.050204431
0.049922545
0.049735515
0.049798527
0.049906792
0.049906793
0.049798528
0.049735516
0.049922543
0.050204426
0.050203171
0.049703005
0.049251116
0.047762945
0.044422299
0.042328137
0.0463466
0.048255227
0.048898478
0.049447218
0.04948357
0.049193464
0.048997967
0.049046282
0.049143976
0.049143977
0.049046284
0.04899797
0.049193464
0.049483569
0.04944722
0.048898485
0.048255246
0.04634666
0.042328242
0.039578557
0.04427958
0.046660693
0.047535462
0.048152708
0.04823074
0.047941655
0.047742972
0.04777362
0.047858727
0.047858728
0.047773624
0.047742977
0.047941657
0.048230742
0.048152715
0.047535477
0.046660727
0.044279671
0.039578718
0.036192746
0.041500224
0.044371162
0.045516131
0.04622823
0.046360895
0.046085841
0.045887733
0.045898963
0.045970169
0.045970171
0.045898968
0.045887741
0.046085847
0.046360901
0.046228243
0.045516155
0.044371211
0.041500348
0.036192973
0.032206734
0.037988838
0.041322427
0.042775204
0.043619729
0.043827398
0.043585077
0.04339457
0.04338617
0.043442876
0.043442878
0.043386177
0.04339458
0.043585086
0.043827409
0.043619748
0.042775239
0.041322494
0.037988995
0.032207033
0.027870551
0.033679332
0.037450153
0.03927387
0.040315876
0.040642402
0.040463254
0.040289765
0.040263769
0.040305727
0.04030573
0.040263778
0.04028978
0.040463268
0.04064242
0.040315905
0.03927392
0.037450247
0.033679534
0.027870866
0.023653861
0.027330379
0.029546277
0.030783314
0.031485801
0.031648227
0.031418424
0.031189123
0.03108993
0.031079596
0.031079597
0.031089932
0.031189126
0.031418422
0.031648222
0.031485793
0.030783305
0.029546271
0.027330427
0.023654117
)
;

boundaryField
{
    Wall
    {
        type            zeroGradient;
    }
    frontAndBack
    {
        type            empty;
    }
    atmosphere
    {
        type            zeroGradient;
    }
}


// ************************************************************************* //
