/*--------------------------------*- C++ -*----------------------------------*\
| =========                 |                                                 |
| \\      /  F ield         | OpenFOAM: The Open Source CFD Toolbox           |
|  \\    /   O peration     | Version:  3.0.1                                 |
|   \\  /    A nd           | Web:      www.OpenFOAM.org                      |
|    \\/     M anipulation  |                                                 |
\*---------------------------------------------------------------------------*/
FoamFile
{
    version     2.0;
    format      ascii;
    class       volScalarField;
    location    "44";
    object      XOH;
}
// * * * * * * * * * * * * * * * * * * * * * * * * * * * * * * * * * * * * * //

dimensions      [0 0 0 0 0 0 0];

internalField   nonuniform List<scalar> 
800
(
0.27778359
0.27782247
0.27783015
0.27783087
0.27783064
0.27783046
0.27783042
0.27783045
0.2778305
0.27783053
0.27783053
0.2778305
0.27783045
0.27783042
0.27783046
0.27783064
0.27783087
0.27783015
0.27782247
0.27778359
0.27471404
0.2749351
0.27500572
0.27503014
0.27503889
0.27504195
0.27504293
0.27504318
0.2750432
0.27504318
0.27504318
0.2750432
0.27504317
0.27504292
0.27504195
0.27503888
0.27503013
0.2750057
0.27493509
0.27471401
0.27124884
0.27161584
0.27175173
0.27179946
0.27181639
0.27182213
0.27182381
0.27182414
0.2718241
0.27182402
0.27182402
0.2718241
0.27182413
0.2718238
0.27182212
0.27181638
0.27179944
0.2717517
0.27161581
0.27124879
0.26814511
0.26862921
0.26882007
0.26888704
0.26891052
0.26891833
0.26892055
0.26892094
0.26892085
0.26892073
0.26892073
0.26892085
0.26892093
0.26892054
0.26891832
0.2689105
0.26888702
0.26882004
0.26862917
0.26814505
0.26547019
0.26604757
0.2662837
0.266366
0.2663944
0.2664037
0.26640631
0.26640677
0.26640666
0.26640653
0.26640653
0.26640666
0.26640676
0.2664063
0.26640368
0.26639438
0.26636597
0.26628367
0.26604753
0.26547012
0.26322164
0.26386879
0.26414161
0.26423542
0.26426696
0.26427695
0.26427964
0.26428006
0.26427993
0.26427978
0.26427978
0.26427992
0.26428005
0.26427963
0.26427693
0.26426694
0.26423539
0.26414157
0.26386874
0.26322156
0.26140911
0.26210166
0.26240296
0.26250453
0.26253734
0.26254707
0.26254939
0.26254957
0.26254931
0.26254912
0.26254912
0.26254931
0.26254956
0.26254938
0.26254705
0.26253731
0.2625045
0.26240292
0.26210162
0.26140904
0.26005151
0.26076437
0.26108571
0.26119133
0.26122347
0.26123192
0.26123335
0.26123301
0.26123251
0.26123222
0.26123222
0.2612325
0.261233
0.26123334
0.2612319
0.26122345
0.2611913
0.26108568
0.26076432
0.26005144
0.2591699
0.25987752
0.26020984
0.26031591
0.26034556
0.26035171
0.26035172
0.26035058
0.26034971
0.26034926
0.26034926
0.2603497
0.26035058
0.26035171
0.2603517
0.26034554
0.26031588
0.26020981
0.25987748
0.25916984
0.25878881
0.25946554
0.25979864
0.25990149
0.25992672
0.25992947
0.25992742
0.25992513
0.25992369
0.25992301
0.25992301
0.25992369
0.25992512
0.25992741
0.25992946
0.25992671
0.25990147
0.25979862
0.25946551
0.25878876
0.25893288
0.25955328
0.25987579
0.25997197
0.25999101
0.2599893
0.25998459
0.2599808
0.25997863
0.25997764
0.25997764
0.25997863
0.2599808
0.25998458
0.25998929
0.259991
0.25997195
0.25987578
0.25955325
0.25893284
0.25962595
0.26016534
0.26046444
0.26055056
0.26056158
0.26055431
0.26054627
0.26054061
0.26053753
0.26053614
0.26053614
0.26053753
0.26054061
0.26054627
0.2605543
0.26056158
0.26055055
0.26046443
0.26016532
0.25962593
0.26089274
0.26132725
0.26158889
0.26166173
0.26166277
0.26164876
0.2616367
0.26162875
0.26162457
0.26162269
0.26162269
0.26162457
0.26162875
0.26163671
0.26164876
0.26166278
0.26166173
0.26158889
0.26132725
0.26089273
0.26275789
0.2630644
0.26327386
0.26333038
0.26331916
0.26329719
0.26328039
0.2632697
0.26326417
0.26326171
0.26326171
0.26326417
0.2632697
0.2632804
0.2632972
0.26331917
0.26333039
0.26327387
0.26306441
0.26275789
0.26524726
0.26540322
0.26554587
0.26558312
0.26555677
0.26552557
0.26550326
0.26548933
0.26548202
0.26547888
0.26547888
0.26548203
0.26548934
0.26550327
0.26552558
0.26555679
0.26558314
0.2655459
0.26540324
0.26524728
0.26838797
0.26837084
0.26843303
0.26844808
0.26840294
0.26836115
0.26833251
0.26831486
0.26830489
0.26830096
0.26830096
0.26830489
0.26831487
0.26833252
0.26836117
0.26840297
0.26844811
0.26843307
0.26837088
0.26838801
0.2721975
0.27198632
0.27195662
0.27194678
0.27187864
0.27182504
0.27178925
0.27176746
0.27175318
0.27174834
0.27174835
0.27175319
0.27176748
0.27178927
0.27182507
0.27187867
0.27194682
0.27195666
0.27198637
0.27219755
0.27668777
0.27626377
0.27613383
0.27609686
0.27600114
0.27593479
0.27589085
0.27586454
0.27584314
0.27583721
0.27583722
0.27584315
0.27586455
0.27589088
0.27593482
0.27600118
0.27609691
0.27613388
0.27626383
0.27668784
0.28186759
0.28121468
0.28097942
0.28091391
0.2807865
0.28070678
0.2806533
0.28062215
0.28058937
0.28058214
0.28058214
0.28058938
0.28062217
0.28065332
0.28070681
0.28078655
0.28091396
0.28097949
0.28121475
0.28186767
0.28774248
0.28684888
0.28650613
0.28641231
0.28625036
0.2861565
0.2860914
0.28605543
0.28600548
0.28599662
0.28599663
0.28600549
0.28605545
0.28609143
0.28615654
0.28625042
0.28641237
0.2865062
0.28684897
0.28774257
0.29429789
0.29315963
0.29271013
0.29259103
0.29239323
0.29228388
0.29220416
0.29216374
0.29208925
0.29207851
0.29207851
0.29208926
0.29216376
0.29220419
0.29228392
0.29239329
0.2925911
0.29271021
0.29315972
0.29429799
0.30151552
0.30013766
0.29958554
0.29944789
0.29921353
0.29908676
0.29898878
0.29894472
0.29883676
0.29882397
0.29882397
0.29883677
0.29894474
0.29898881
0.2990868
0.29921359
0.29944797
0.29958563
0.30013776
0.30151562
0.30937359
0.30777083
0.30712431
0.306979
0.30670738
0.30656099
0.30644103
0.30639478
0.30624348
0.30622867
0.30622867
0.30624349
0.3063948
0.30644106
0.30656104
0.30670744
0.30697908
0.30712439
0.30777092
0.30937369
0.31782101
0.31602296
0.31529607
0.31515691
0.31484757
0.31467904
0.31453374
0.3144876
0.31428393
0.31426732
0.31426732
0.31428393
0.31448762
0.31453377
0.31467908
0.31484763
0.31515699
0.31529615
0.31602305
0.31782111
0.32680059
0.32485201
0.32406726
0.32395018
0.32360397
0.32341024
0.32323704
0.3231944
0.32293143
0.32291373
0.32291373
0.32293143
0.32319442
0.32323707
0.32341028
0.32360403
0.32395025
0.32406734
0.3248521
0.32680069
0.33622608
0.33419236
0.33338258
0.33330549
0.332926
0.33270357
0.33250105
0.33246685
0.33214094
0.33212375
0.33212375
0.33214094
0.33246686
0.33250107
0.33270361
0.33292605
0.33330556
0.33338265
0.33419245
0.33622617
0.34596202
0.34393947
0.34315097
0.34313572
0.34272992
0.34247493
0.34224327
0.34222406
0.34183625
0.34182237
0.34182237
0.34183625
0.34222406
0.34224329
0.34247496
0.34272997
0.34313578
0.34315104
0.34393955
0.34596211
0.35581422
0.35394637
0.35324584
0.35332192
0.35290054
0.35260949
0.35235181
0.35235603
0.35191344
0.35190662
0.35190662
0.35191344
0.35235604
0.35235183
0.35260952
0.35290058
0.35332198
0.35324591
0.35394645
0.35581433
0.3654823
0.3639895
0.36347779
0.36369031
0.3632688
0.36294178
0.36266708
0.36270575
0.36222241
0.36222716
0.36222716
0.36222241
0.36270575
0.36266709
0.3629418
0.36326884
0.36369037
0.36347786
0.3639896
0.36548244
0.37450384
0.37372655
0.37356731
0.37398699
0.37358836
0.37323226
0.37295867
0.37304546
0.37254188
0.37256371
0.37256371
0.37254187
0.37304547
0.37295869
0.37323229
0.3735884
0.37398706
0.37356739
0.37372668
0.37450404
0.38214498
0.38261433
0.38308316
0.38382219
0.38349115
0.38312413
0.38287718
0.38302973
0.38253216
0.38257815
0.38257815
0.38253216
0.38302974
0.38287721
0.38312418
0.38349121
0.38382227
0.38308328
0.38261454
0.38214533
0.38722124
0.3897696
0.39134652
0.39258511
0.39240854
0.39207042
0.39187764
0.39211132
0.3916512
0.39173013
0.39173013
0.39165121
0.39211134
0.39187769
0.39207049
0.39240863
0.39258524
0.39134671
0.38976995
0.38722184
0.38773244
0.39376165
0.3972764
0.39931322
0.3994377
0.39921044
0.39910928
0.39941172
0.39902448
0.39914687
0.39914688
0.39902451
0.39941176
0.39910935
0.39921055
0.39943784
0.39931343
0.39727673
0.39376227
0.38773349
0.38033595
0.39225032
0.3991032
0.40245064
0.4031077
0.4031538
0.40317746
0.40350719
0.4032309
0.40340903
0.40340905
0.40323094
0.40350727
0.40317759
0.40315398
0.40310795
0.40245098
0.39910375
0.39225142
0.38033777
0.35999737
0.38144179
0.39388428
0.3994433
0.40097798
0.40152908
0.40172536
0.40206413
0.40193871
0.40218639
0.40218642
0.40193879
0.40206428
0.40172558
0.40152937
0.40097838
0.39944387
0.3938852
0.38144367
0.36000036
0.3207237
0.35579335
0.37687451
0.38599212
0.38907117
0.39035393
0.39085279
0.39133408
0.39141166
0.39174497
0.39174502
0.3914118
0.39133433
0.39085314
0.3903544
0.3890718
0.38599303
0.37687598
0.35579625
0.32072795
0.26082338
0.30999391
0.34158157
0.35568337
0.36120549
0.36371904
0.3647574
0.36550824
0.36584092
0.36627214
0.36627221
0.36584113
0.36550862
0.36475792
0.36371974
0.36120643
0.35568471
0.34158368
0.30999765
0.26082764
0.18165064
0.24452954
0.28351921
0.30254903
0.31099034
0.31514512
0.3169174
0.31847994
0.3191443
0.31967861
0.31967871
0.31914457
0.31848043
0.31691806
0.31514601
0.31099152
0.30255067
0.28352161
0.24453293
0.18165325
0.066291228
0.16540058
0.20717326
0.22816621
0.23825229
0.24338188
0.24568535
0.24952492
0.25042647
0.25099886
0.25099894
0.2504267
0.24952533
0.24568589
0.24338263
0.23825326
0.22816751
0.20717497
0.16540251
0.066291454
1e-150
1e-150
0.079849514
0.1097461
0.11426474
0.127308
0.12864622
0.13073629
0.13124388
0.13153289
0.1315329
0.13124391
0.13073636
0.12864632
0.12730816
0.11426487
0.10974633
0.079849552
1e-150
1e-150
)
;

boundaryField
{
    Wall
    {
        type            zeroGradient;
    }
    frontAndBack
    {
        type            empty;
    }
    atmosphere
    {
        type            zeroGradient;
    }
}


// ************************************************************************* //
