/*--------------------------------*- C++ -*----------------------------------*\
| =========                 |                                                 |
| \\      /  F ield         | OpenFOAM: The Open Source CFD Toolbox           |
|  \\    /   O peration     | Version:  3.0.1                                 |
|   \\  /    A nd           | Web:      www.OpenFOAM.org                      |
|    \\/     M anipulation  |                                                 |
\*---------------------------------------------------------------------------*/
FoamFile
{
    version     2.0;
    format      ascii;
    class       volScalarField;
    location    "3";
    object      mOne;
}
// * * * * * * * * * * * * * * * * * * * * * * * * * * * * * * * * * * * * * //

dimensions      [0 0 0 0 0 0 0];

internalField   nonuniform List<scalar> 
800
(
0.00026763605
0.00026763605
0.00026763605
0.00026763605
0.00026763605
0.00026763605
0.00026763605
0.00026763605
0.00026763605
0.00026763605
0.00026763605
0.00026763605
0.00026763605
0.00026763605
0.00026763605
0.00026763605
0.00026763605
0.00026763605
0.00026763605
0.00026763605
0.00026763605
0.00026763605
0.00026763605
0.00026763605
0.00026763605
0.00026763605
0.00026763605
0.00026763605
0.00026763605
0.00026763605
0.00026763605
0.00026763605
0.00026763605
0.00026763605
0.00026763605
0.00026763605
0.00026763605
0.00026763605
0.00026763605
0.00026763605
2.3800102e-06
2.4392998e-06
2.4443216e-06
2.4450944e-06
2.4452001e-06
2.4452042e-06
2.4451969e-06
2.4451901e-06
2.4451862e-06
2.4451842e-06
2.4451846e-06
2.4451859e-06
2.4451906e-06
2.4451968e-06
2.4452036e-06
2.4451999e-06
2.4450938e-06
2.4443207e-06
2.4392987e-06
2.3800105e-06
1.3521734e-08
2.0397054e-08
2.2150965e-08
2.2514028e-08
2.2570898e-08
2.2574607e-08
2.257202e-08
2.2569828e-08
2.256852e-08
2.2567946e-08
2.2567957e-08
2.2568538e-08
2.2569854e-08
2.2572033e-08
2.2574591e-08
2.2570849e-08
2.2513938e-08
2.2150842e-08
2.0396905e-08
1.3521653e-08
6.9651242e-11
1.8734281e-10
2.2703565e-10
2.3569594e-10
2.3705584e-10
2.3713526e-10
2.3706506e-10
2.3700686e-10
2.3697194e-10
2.3695651e-10
2.3695675e-10
2.3697242e-10
2.3700742e-10
2.3706539e-10
2.3713495e-10
2.3705458e-10
2.3569371e-10
2.2703267e-10
1.8733943e-10
6.9649942e-11
3.1899519e-13
1.4994114e-12
2.0221939e-12
2.1432139e-12
2.1623424e-12
2.1633452e-12
2.1622369e-12
2.1613252e-12
2.1607728e-12
2.1605243e-12
2.1605277e-12
2.1607789e-12
2.161333e-12
2.1622423e-12
2.1633415e-12
2.1623241e-12
2.1431813e-12
2.0221502e-12
1.4993666e-12
3.1898437e-13
1.2239833e-15
9.8563237e-15
1.4752231e-14
1.5955804e-14
1.6148696e-14
1.6158542e-14
1.6146765e-14
1.6136965e-14
1.613094e-14
1.6128186e-14
1.6128221e-14
1.6130994e-14
1.6137033e-14
1.6146815e-14
1.6158515e-14
1.6148519e-14
1.5955486e-14
1.4751804e-14
9.8559253e-15
1.2239252e-15
3.9493093e-18
5.3849192e-17
8.9279891e-17
9.8521236e-17
1.0002945e-16
1.0011024e-16
1.0001818e-16
9.9939824e-17
9.989094e-17
9.9868251e-17
9.9868472e-17
9.9891237e-17
9.9940211e-17
1.0001842e-16
1.0010998e-16
1.0002817e-16
9.8518944e-17
8.9276869e-17
5.3846652e-17
3.9490863e-18
1.0946415e-20
2.5093555e-19
4.6028258e-19
5.1814476e-19
5.2778092e-19
5.2834521e-19
5.2777976e-19
5.2728447e-19
5.2697084e-19
5.2682354e-19
5.2682453e-19
5.2697183e-19
5.2728566e-19
5.2777984e-19
5.2834268e-19
5.2777288e-19
5.1813165e-19
4.6026596e-19
2.50923e-19
1.0945764e-20
2.6596131e-23
1.0204781e-21
2.069127e-21
2.3758764e-21
2.4280337e-21
2.4314122e-21
2.4285478e-21
2.4259582e-21
2.4242958e-21
2.4235065e-21
2.4235095e-21
2.4242935e-21
2.4259543e-21
2.4285371e-21
2.4313898e-21
2.4279879e-21
2.375812e-21
2.0690514e-21
1.0204278e-21
2.659459e-23
5.7564265e-26
3.686387e-24
8.2576308e-24
9.6711136e-24
9.916422e-24
9.9339206e-24
9.9215389e-24
9.909955e-24
9.90243e-24
9.8988294e-24
9.8988303e-24
9.9023854e-24
9.9098882e-24
9.9214343e-24
9.9337699e-24
9.9161811e-24
9.6708182e-24
8.2573155e-24
3.6862072e-24
5.7561085e-26
1.123967e-28
1.1991773e-26
2.9664406e-26
3.5434276e-26
3.6455631e-26
3.6535051e-26
3.6488223e-26
3.6442807e-26
3.6413e-26
3.6398641e-26
3.6398611e-26
3.64127e-26
3.6442352e-26
3.6487584e-26
3.6534246e-26
3.6454496e-26
3.5433004e-26
2.9663147e-26
1.1991156e-26
1.1239042e-28
1.999815e-31
3.5507573e-29
9.6972642e-29
1.1813864e-28
1.2195696e-28
1.2227689e-28
1.2211906e-28
1.2196009e-28
1.2185483e-28
1.2180386e-28
1.2180363e-28
1.2185341e-28
1.2195793e-28
1.2211609e-28
1.2227325e-28
1.2195207e-28
1.1813337e-28
9.6967727e-29
3.5505486e-29
1.9996909e-31
3.2690343e-34
9.6533533e-32
2.910021e-31
3.6156358e-31
3.74525e-31
3.7568288e-31
3.7520223e-31
3.746984e-31
3.7436226e-31
3.7419876e-31
3.7419783e-31
3.7435685e-31
3.7469012e-31
3.7519094e-31
3.7566893e-31
3.7450644e-31
3.6154367e-31
2.9098406e-31
9.6526727e-32
3.268793e-34
4.9429934e-37
2.4268889e-34
8.0741405e-34
1.0231138e-33
1.0634261e-33
1.0672301e-33
1.0658934e-33
1.0644316e-33
1.0634499e-33
1.0629707e-33
1.0629676e-33
1.0634325e-33
1.0644051e-33
1.0658565e-33
1.0671836e-33
1.0633637e-33
1.0230467e-33
8.0735411e-34
2.4266848e-34
4.942555e-37
6.9531274e-40
5.6757479e-37
2.0837948e-36
2.6928765e-36
2.8086078e-36
2.8200544e-36
2.8166316e-36
2.8127157e-36
2.8100697e-36
2.8087753e-36
2.8087671e-36
2.810021e-36
2.8126407e-36
2.8165252e-36
2.8199177e-36
2.8084229e-36
2.6926768e-36
2.0836185e-36
5.6752003e-37
6.9524127e-40
9.1432825e-43
1.2410573e-39
5.0278185e-39
6.6262955e-39
6.934891e-39
6.9666801e-39
6.9585585e-39
6.9488047e-39
6.942175e-39
6.9389282e-39
6.938907e-39
6.9420502e-39
6.9486102e-39
6.9582776e-39
6.9663175e-39
6.9343994e-39
6.6257655e-39
5.027357e-39
1.2409267e-39
9.142248e-43
1.1286945e-45
2.5482372e-42
1.1391056e-41
1.5310226e-41
1.6078546e-41
1.6160542e-41
1.6142588e-41
1.611987e-41
1.6104343e-41
1.6096725e-41
1.6096672e-41
1.6104035e-41
1.6119398e-41
1.6141911e-41
1.6159668e-41
1.6077361e-41
1.5308959e-41
1.1389968e-41
2.5479565e-42
1.1285597e-45
1.3127664e-48
4.9317578e-45
2.4324853e-44
3.3341989e-44
3.5136164e-44
3.5333665e-44
3.5296529e-44
3.5246795e-44
3.5212615e-44
3.5195815e-44
3.5195687e-44
3.5211894e-44
3.5245719e-44
3.5295008e-44
3.5331726e-44
3.5133546e-44
3.3339202e-44
2.4322487e-44
4.9311996e-45
1.3126042e-48
1.4431934e-51
9.0262534e-48
4.9121839e-47
6.8665268e-47
7.261035e-47
7.3056591e-47
7.2984426e-47
7.2881671e-47
7.2810662e-47
7.2775698e-47
7.2775432e-47
7.2809099e-47
7.2879381e-47
7.2981244e-47
7.3052596e-47
7.2604918e-47
6.8659512e-47
4.9117004e-47
9.0252129e-48
1.4430106e-51
1.503884e-54
1.5668139e-50
9.4081068e-50
1.3411706e-49
1.4231291e-49
1.4326255e-49
1.4313043e-49
1.4292937e-49
1.4278968e-49
1.4272079e-49
1.4272025e-49
1.4278652e-49
1.4292482e-49
1.4312417e-49
1.4325474e-49
1.4230219e-49
1.3410569e-49
9.4071665e-50
1.5666304e-50
1.5036893e-54
1.4891767e-57
2.5861227e-53
1.713383e-52
2.4908859e-52
2.6522424e-52
2.6713445e-52
2.6690612e-52
2.6653241e-52
2.662714e-52
2.6614242e-52
2.6614141e-52
2.6626531e-52
2.6652369e-52
2.6689414e-52
2.6711962e-52
2.652038e-52
2.4906703e-52
1.713208e-52
2.5858132e-53
1.4889793e-57
1.4044059e-60
4.0681692e-56
2.9739311e-55
4.4090661e-55
4.7109144e-55
4.7473434e-55
4.7436116e-55
4.7369968e-55
4.7323525e-55
4.7300535e-55
4.7300339e-55
4.7322372e-55
4.7368327e-55
4.7433868e-55
4.7470672e-55
4.7105337e-55
4.4086685e-55
2.9736171e-55
4.0676691e-56
1.404214e-60
1.2639362e-63
6.1116667e-59
4.9297715e-58
7.4534556e-58
7.9912667e-58
8.0573119e-58
8.0515366e-58
8.0403611e-58
8.0324743e-58
8.028563e-58
8.0285259e-58
8.0322638e-58
8.0400632e-58
8.0511275e-58
8.05681e-58
7.9905797e-58
7.4527473e-58
4.9292298e-58
6.1108908e-59
1.2637575e-63
1.0874975e-66
8.7848439e-62
7.8189284e-61
1.2055694e-60
1.2970284e-60
1.308439e-60
1.307593e-60
1.3057877e-60
1.304507e-60
1.303871e-60
1.3038646e-60
1.3044711e-60
1.3057365e-60
1.3075226e-60
1.3083528e-60
1.2969109e-60
1.2054494e-60
7.8180367e-61
8.7836919e-62
1.0873381e-66
8.9600634e-70
1.210173e-64
1.1885551e-63
1.8688632e-63
2.017595e-63
2.0364217e-63
2.0352501e-63
2.0324568e-63
2.0304656e-63
2.0294753e-63
2.0294655e-63
2.0304088e-63
2.0323762e-63
2.0351382e-63
2.0362844e-63
2.0174067e-63
1.8686722e-63
1.188416e-63
1.2100099e-64
8.958706e-70
7.0797341e-73
1.6001398e-67
1.7342142e-66
2.7808219e-66
3.0125113e-66
3.0422332e-66
3.0407014e-66
3.0365554e-66
3.0335848e-66
3.0321069e-66
3.0320939e-66
3.0335039e-66
3.0364403e-66
3.0405392e-66
3.0420317e-66
3.0122307e-66
2.7805361e-66
1.7340083e-66
1.5999194e-67
7.0786301e-73
5.3719411e-76
2.0335938e-70
2.4321912e-69
3.9772209e-69
4.3234869e-69
4.3684577e-69
4.366575e-69
4.3606621e-69
4.3564046e-69
4.3542862e-69
4.3542725e-69
4.3562997e-69
4.3605143e-69
4.3663622e-69
4.368189e-69
4.3230981e-69
3.9768215e-69
2.4319042e-69
2.0333123e-70
5.3710919e-76
3.919118e-79
2.4872117e-73
3.2828589e-72
5.4745109e-72
5.9717078e-72
6.0370263e-72
6.0348672e-72
6.0267554e-72
6.0208849e-72
6.0179644e-72
6.0179529e-72
6.0207599e-72
6.0265832e-72
6.0346151e-72
6.036704e-72
5.9712151e-72
5.4739981e-72
3.2824911e-72
2.4868793e-73
3.9185102e-79
2.7521854e-82
2.9309214e-76
4.2694122e-75
7.2605913e-75
7.9473825e-75
8.0385844e-75
8.0363072e-75
8.0255894e-75
8.0177931e-75
8.0139151e-75
8.013911e-75
8.017657e-75
8.0254105e-75
8.0360443e-75
8.0382494e-75
7.9468282e-75
7.2600119e-75
4.2689933e-75
2.9305687e-76
2.7517897e-82
1.8622962e-85
3.3311815e-79
5.3555771e-78
9.2879742e-78
1.020169e-77
1.032426e-77
1.0322115e-77
1.0308467e-77
1.0298485e-77
1.029352e-77
1.0293531e-77
1.0298352e-77
1.0308315e-77
1.0321897e-77
1.0323994e-77
1.0201171e-77
9.2874359e-78
5.3551795e-78
3.3308608e-79
1.8620698e-85
1.2153883e-88
3.6552603e-82
6.4862113e-81
1.1471405e-80
1.2643492e-80
1.2802241e-80
1.2800563e-80
1.2783798e-80
1.2771471e-80
1.276534e-80
1.2765377e-80
1.2771374e-80
1.2783734e-80
1.2800483e-80
1.2802176e-80
1.264318e-80
1.14711e-80
6.4859536e-81
3.6550395e-82
1.2152822e-88
7.6569846e-92
3.8757368e-85
7.5912542e-84
1.3691474e-83
1.5142603e-83
1.5340954e-83
1.5340148e-83
1.532027e-83
1.530558e-83
1.5298284e-83
1.5298365e-83
1.530557e-83
1.5320385e-83
1.5340341e-83
1.5341284e-83
1.5142747e-83
1.3691679e-83
7.5913055e-84
3.8756904e-85
7.6566754e-92
4.6604557e-95
3.9743495e-88
8.5927999e-87
1.5804594e-86
1.7540197e-86
1.7779529e-86
1.7780025e-86
1.775726e-86
1.7740351e-86
1.7731965e-86
1.7732106e-86
1.7740475e-86
1.7757641e-86
1.7780634e-86
1.7780474e-86
1.7541096e-86
1.5805655e-86
8.5933694e-87
3.9745513e-88
4.6605532e-95
2.742532e-98
3.9444495e-91
9.4143078e-90
1.7658353e-89
1.9665441e-89
1.9944578e-89
1.9946786e-89
1.9921581e-89
1.9902753e-89
1.989343e-89
1.9893637e-89
1.9903035e-89
1.9922279e-89
1.9947913e-89
1.9946321e-89
1.9667394e-89
1.7660648e-89
9.4156218e-90
3.9449588e-91
2.7428013e-98
1.5614496e-101
3.7916032e-94
9.990409e-93
1.9109981e-92
2.1355926e-92
2.167091e-92
2.1675159e-92
2.1648143e-92
2.162783e-92
2.1617772e-92
2.1618033e-92
2.1628243e-92
2.1649121e-92
2.167679e-92
2.1673524e-92
2.1359161e-92
1.911385e-92
9.9926778e-93
3.79245e-94
1.5617483e-101
8.6066265e-105
3.5323071e-97
1.027552e-95
2.0044687e-95
2.2478436e-95
2.2822616e-95
2.2829091e-95
2.2801016e-95
2.2779728e-95
2.2769168e-95
2.2769448e-95
2.278018e-95
2.2802128e-95
2.2831058e-95
2.2825981e-95
2.2483015e-95
2.0050386e-95
1.0278913e-95
3.53349e-97
8.6092117e-105
4.5953219e-108
3.1911791e-100
1.0249698e-98
2.0390643e-98
2.2946332e-98
2.3310828e-98
2.3319527e-98
2.3291158e-98
2.3269416e-98
2.3258585e-98
2.3258837e-98
2.3269761e-98
2.3292135e-98
2.3321447e-98
2.3314567e-98
2.2952105e-98
2.0398321e-98
1.0254342e-98
3.1926703e-100
4.5972867e-108
2.3778688e-111
2.7972305e-103
9.9206627e-102
2.0127872e-101
2.2730432e-101
2.3104972e-101
2.3115705e-101
2.3087743e-101
2.3065999e-101
2.3055106e-101
2.305527e-101
2.3066054e-101
2.308823e-101
2.3116989e-101
2.3108434e-101
2.2737085e-101
2.013765e-101
9.9267038e-102
2.7990008e-103
2.3792605e-111
1.1929808e-114
2.3800654e-106
9.321955e-105
1.9289631e-104
2.1861458e-104
2.2235155e-104
2.2247646e-104
2.2220717e-104
2.2199424e-104
2.2188648e-104
2.2188662e-104
2.2199038e-104
2.2220348e-104
2.2247745e-104
2.2237746e-104
2.1868658e-104
1.9301575e-104
9.3294671e-105
2.3820777e-106
1.1939083e-114
)
;

boundaryField
{
    Wall
    {
        type            zeroGradient;
    }
    frontAndBack
    {
        type            empty;
    }
    atmosphere
    {
        type            zeroGradient;
    }
}


// ************************************************************************* //
