/*--------------------------------*- C++ -*----------------------------------*\
| =========                 |                                                 |
| \\      /  F ield         | OpenFOAM: The Open Source CFD Toolbox           |
|  \\    /   O peration     | Version:  3.0.1                                 |
|   \\  /    A nd           | Web:      www.OpenFOAM.org                      |
|    \\/     M anipulation  |                                                 |
\*---------------------------------------------------------------------------*/
FoamFile
{
    version     2.0;
    format      ascii;
    class       volScalarField;
    location    "3";
    object      mTwo;
}
// * * * * * * * * * * * * * * * * * * * * * * * * * * * * * * * * * * * * * //

dimensions      [0 0 0 0 0 0 0];

internalField   nonuniform List<scalar> 
800
(
2.7892964e-22
2.7892964e-22
2.7892964e-22
2.7892964e-22
2.7892964e-22
2.7892964e-22
2.7892964e-22
2.7892964e-22
2.7892964e-22
2.7892964e-22
2.7892964e-22
2.7892964e-22
2.7892964e-22
2.7892964e-22
2.7892964e-22
2.7892964e-22
2.7892964e-22
2.7892964e-22
2.7892964e-22
2.7892964e-22
2.7892964e-22
2.7892964e-22
2.7892964e-22
2.7892964e-22
2.7892964e-22
2.7892964e-22
2.7892964e-22
2.7892964e-22
2.7892964e-22
2.7892964e-22
2.7892964e-22
2.7892964e-22
2.7892964e-22
2.7892964e-22
2.7892964e-22
2.7892964e-22
2.7892964e-22
2.7892964e-22
2.7892964e-22
2.7892964e-22
2.480257e-24
2.5422178e-24
2.5474897e-24
2.5483022e-24
2.5484133e-24
2.5484176e-24
2.5484099e-24
2.5484027e-24
2.5483986e-24
2.5483966e-24
2.5483969e-24
2.5483984e-24
2.5484032e-24
2.5484098e-24
2.548417e-24
2.5484131e-24
2.5483016e-24
2.5474886e-24
2.5422166e-24
2.4802573e-24
1.3539841e-26
2.0523294e-26
2.2314039e-26
2.2685691e-26
2.2744097e-26
2.2747995e-26
2.27454e-26
2.2743185e-26
2.2741864e-26
2.2741282e-26
2.2741294e-26
2.2741881e-26
2.2743212e-26
2.2745413e-26
2.2747979e-26
2.2744048e-26
2.26856e-26
2.2313914e-26
2.0523145e-26
1.353976e-26
6.4467665e-29
1.7644365e-28
2.1452567e-28
2.2285779e-28
2.2417062e-28
2.2424963e-28
2.2418353e-28
2.2412837e-28
2.2409525e-28
2.2408058e-28
2.2408082e-28
2.2409569e-28
2.2412889e-28
2.2418384e-28
2.2424933e-28
2.2416942e-28
2.2285568e-28
2.1452282e-28
1.7644047e-28
6.4466468e-29
2.644308e-31
1.2851473e-30
1.7427082e-30
1.8489263e-30
1.8657663e-30
1.8666803e-30
1.865728e-30
1.86494e-30
1.8644623e-30
1.8642472e-30
1.8642501e-30
1.8644675e-30
1.8649467e-30
1.8657325e-30
1.866677e-30
1.8657505e-30
1.8488982e-30
1.7426703e-30
1.285109e-30
2.6442191e-31
8.8132091e-34
7.4709381e-33
1.1267431e-32
1.2203348e-32
1.2353724e-32
1.2361666e-32
1.2352692e-32
1.2345186e-32
1.234057e-32
1.2338458e-32
1.2338485e-32
1.234061e-32
1.2345238e-32
1.2352729e-32
1.2361644e-32
1.2353588e-32
1.2203105e-32
1.1267103e-32
7.4706369e-33
8.8127952e-34
2.3958713e-36
3.5070627e-35
5.871652e-35
6.4901819e-35
6.591332e-35
6.5969121e-35
6.5908696e-35
6.5857012e-35
6.5824754e-35
6.5809778e-35
6.5809924e-35
6.5824948e-35
6.5857268e-35
6.5908846e-35
6.5968939e-35
6.5912469e-35
6.4900309e-35
5.8714521e-35
3.5068977e-35
2.3957375e-36
5.4294033e-39
1.3648162e-37
2.533561e-37
2.8575843e-37
2.9116312e-37
2.9148726e-37
2.911765e-37
2.9090304e-37
2.9072979e-37
2.9064841e-37
2.9064896e-37
2.9073033e-37
2.9090369e-37
2.9117651e-37
2.9148581e-37
2.9115866e-37
2.8575119e-37
2.533469e-37
1.364748e-37
5.4290837e-39
1.0472707e-41
4.5075739e-40
9.2705014e-40
1.0668413e-39
1.0906395e-39
1.0922105e-39
1.0909289e-39
1.0897647e-39
1.0890171e-39
1.0886621e-39
1.0886634e-39
1.089016e-39
1.089763e-39
1.0909239e-39
1.0922003e-39
1.0906188e-39
1.0668124e-39
9.27016e-40
4.507352e-40
1.0472105e-41
1.7483438e-44
1.286653e-42
2.9302914e-42
3.4404177e-42
3.5290344e-42
3.535452e-42
3.5310636e-42
3.5269381e-42
3.5242569e-42
3.5229738e-42
3.5229742e-42
3.524241e-42
3.5269145e-42
3.531026e-42
3.5353979e-42
3.5289484e-42
3.4403124e-42
2.9301786e-42
1.2865901e-42
1.7482476e-44
2.5594387e-47
3.219099e-45
8.1159347e-45
9.7213648e-45
1.0005765e-44
1.0028153e-44
1.0015356e-44
1.0002882e-44
9.9946914e-45
9.9907451e-45
9.9907371e-45
9.9946091e-45
1.0002758e-44
1.001518e-44
1.002793e-44
1.0005453e-44
9.721015e-45
8.1155875e-45
3.218933e-45
2.5592954e-47
3.3201121e-50
7.1378743e-48
1.9918044e-47
2.4339657e-47
2.5137794e-47
2.5205347e-47
2.5172971e-47
2.514018e-47
2.5118459e-47
2.5107938e-47
2.5107892e-47
2.5118165e-47
2.5139737e-47
2.5172356e-47
2.5204592e-47
2.5136784e-47
2.4338568e-47
1.9917028e-47
7.1374535e-48
3.3199051e-50
3.8489549e-53
1.4152519e-50
4.3705862e-50
5.4485467e-50
5.646656e-50
5.6645043e-50
5.657296e-50
5.6496944e-50
5.6446202e-50
5.6421519e-50
5.642138e-50
5.6445386e-50
5.6495701e-50
5.657125e-50
5.664293e-50
5.6463759e-50
5.4482464e-50
4.3703139e-50
1.4151519e-50
3.8486695e-53
4.0157259e-56
2.5275412e-53
8.6379729e-53
1.0985573e-52
1.1424505e-52
1.1466225e-52
1.1451949e-52
1.1436235e-52
1.1425674e-52
1.142052e-52
1.1420487e-52
1.1425487e-52
1.143595e-52
1.1451551e-52
1.1465723e-52
1.1423835e-52
1.0984853e-52
8.637329e-53
2.5273284e-53
4.0153688e-56
3.7928647e-59
4.0906938e-56
1.5470896e-55
2.0072182e-55
2.0946801e-55
2.103385e-55
2.1008491e-55
2.0979266e-55
2.0959506e-55
2.094984e-55
2.0949779e-55
2.0959142e-55
2.0978708e-55
2.1007693e-55
2.1032825e-55
2.0945422e-55
2.0070693e-55
1.5469582e-55
4.0902989e-56
3.7924748e-59
3.2591936e-62
6.0304097e-59
2.5239475e-58
3.3406207e-58
3.4983401e-58
3.5146763e-58
3.5106099e-58
3.5056862e-58
3.5023374e-58
3.5006973e-58
3.5006867e-58
3.5022744e-58
3.5055883e-58
3.5104675e-58
3.5144926e-58
3.498092e-58
3.3403534e-58
2.523715e-58
6.0297748e-59
3.2588254e-62
2.5587819e-65
8.1326346e-62
3.7670316e-61
5.0864426e-61
5.3451918e-61
5.3729398e-61
5.3670217e-61
5.359464e-61
5.3542952e-61
5.3517591e-61
5.3517416e-61
5.3541927e-61
5.3593075e-61
5.3667953e-61
5.372648e-61
5.3447977e-61
5.0860214e-61
3.7666705e-61
8.1317385e-62
2.5584771e-65
1.84212e-68
1.007077e-64
5.162874e-64
7.1117314e-64
7.4996415e-64
7.5425274e-64
7.5346766e-64
7.5240544e-64
7.5167487e-64
7.5131577e-64
7.5131307e-64
7.5165949e-64
7.5238253e-64
7.5343503e-64
7.5421114e-64
7.4990822e-64
7.1111362e-64
5.1623698e-64
1.006963e-64
1.8418932e-68
1.2199101e-71
1.1487563e-67
6.5185276e-67
9.1601685e-67
9.6936192e-67
9.7541952e-67
9.7446661e-67
9.7309396e-67
9.7214464e-67
9.716772e-67
9.7167369e-67
9.7212379e-67
9.7306347e-67
9.7442389e-67
9.7536589e-67
9.6928932e-67
9.1593999e-67
6.5178834e-67
1.1486239e-67
1.2197562e-71
7.4514803e-75
1.210385e-70
7.6028075e-70
1.089933e-69
1.1574449e-69
1.1652952e-69
1.164234e-69
1.1625978e-69
1.1614601e-69
1.1608989e-69
1.1608946e-69
1.1614344e-69
1.1625609e-69
1.1641828e-69
1.1652313e-69
1.1573576e-69
1.0898405e-69
7.6020446e-70
1.2102432e-70
7.45052e-75
4.2080737e-78
1.1808196e-73
8.2111126e-73
1.2008856e-72
1.2797373e-72
1.2891024e-72
1.2880165e-72
1.2862123e-72
1.2849511e-72
1.2843278e-72
1.284323e-72
1.2849217e-72
1.2861703e-72
1.2879583e-72
1.2890304e-72
1.2796386e-72
1.2007815e-72
8.2102707e-73
1.1806783e-73
4.2075188e-78
2.2015759e-81
1.0688106e-76
8.2286568e-76
1.2277352e-75
1.3129347e-75
1.3232479e-75
1.322225e-75
1.3203805e-75
1.3190842e-75
1.3184425e-75
1.3184371e-75
1.3190521e-75
1.3203349e-75
1.322162e-75
1.3231704e-75
1.3128285e-75
1.2276244e-75
8.2277844e-76
1.0686792e-76
2.2012767e-81
1.0689451e-84
8.9917449e-80
7.6652385e-79
1.1667559e-78
1.2520977e-78
1.262607e-78
1.2617196e-78
1.2599677e-78
1.2587301e-78
1.2581163e-78
1.2581106e-78
1.2586971e-78
1.2599211e-78
1.2616551e-78
1.262528e-78
1.25199e-78
1.166645e-78
7.6643931e-79
8.9906031e-80
1.0687949e-84
4.8239467e-88
7.0416144e-83
6.647414e-82
1.0322578e-81
1.1116461e-81
1.1215762e-81
1.1208676e-81
1.1193196e-81
1.1182203e-81
1.1176743e-81
1.1176689e-81
1.1181895e-81
1.1192758e-81
1.1208069e-81
1.121502e-81
1.1115453e-81
1.0321551e-81
6.6466531e-82
7.0406908e-83
4.8232446e-88
2.0259652e-91
5.1397978e-86
5.3736797e-85
8.5131642e-85
9.2000427e-85
9.2871985e-85
9.2819998e-85
9.2692572e-85
9.260163e-85
9.2556406e-85
9.2555966e-85
9.2599045e-85
9.2688907e-85
9.2814869e-85
9.2865692e-85
9.1991838e-85
8.5122937e-85
5.3730484e-85
5.1391047e-86
2.0256605e-91
7.9270782e-95
3.5005563e-89
4.0537376e-88
6.5518087e-88
7.105273e-88
7.1764341e-88
7.1729381e-88
7.1631556e-88
7.1561378e-88
7.1526469e-88
7.1526167e-88
7.1559475e-88
7.1628848e-88
7.1725535e-88
7.1759563e-88
7.1046108e-88
6.5511354e-88
4.0532545e-88
3.5000739e-89
7.9258524e-95
2.8922413e-98
2.2265653e-92
2.8562436e-91
4.709665e-91
5.1254336e-91
5.1795464e-91
5.1774034e-91
5.1703913e-91
5.1653357e-91
5.1628206e-91
5.1628046e-91
5.1652117e-91
5.1702165e-91
5.1771495e-91
5.179226e-91
5.1249725e-91
4.709192e-91
2.8559055e-91
2.2262571e-92
2.8917887e-98
9.8471314e-102
1.3235961e-95
1.881074e-94
3.1644108e-94
3.4558493e-94
3.494214e-94
3.4930276e-94
3.4883318e-94
3.4849289e-94
3.4832361e-94
3.4832297e-94
3.4848567e-94
3.4882325e-94
3.4928806e-94
3.4940262e-94
3.455564e-94
3.1641145e-94
1.8808625e-94
1.3234193e-95
9.845624e-102
3.1302735e-105
7.3576789e-99
1.1585955e-97
1.9884477e-97
2.1792044e-97
2.2045844e-97
2.2040017e-97
2.2010621e-97
2.1989207e-97
2.1978557e-97
2.1978547e-97
2.1988835e-97
2.2010133e-97
2.203929e-97
2.2044917e-97
2.1790523e-97
1.988289e-97
1.1584814e-97
7.3567948e-99
3.1298313e-105
9.2945629e-109
3.8262032e-102
6.6765205e-101
1.1690451e-100
1.2856934e-100
1.3013699e-100
1.3011253e-100
1.299405e-100
1.2981448e-100
1.2975181e-100
1.2975196e-100
1.2981282e-100
1.299386e-100
1.3010975e-100
1.3013359e-100
1.285628e-100
1.1689774e-100
6.6760224e-101
3.8258355e-102
9.2934608e-109
2.5784698e-112
1.8618669e-105
3.6005847e-104
6.4321504e-104
7.0988088e-104
7.1892595e-104
7.1884671e-104
7.1790529e-104
7.1721197e-104
7.1686723e-104
7.1686936e-104
7.172066e-104
7.179018e-104
7.1884203e-104
7.1892208e-104
7.0986339e-104
6.4319802e-104
3.6004403e-104
1.8617549e-105
2.5782533e-112
6.6839102e-116
8.478728e-109
1.8173926e-107
3.3123614e-107
3.6685218e-107
3.7172857e-107
3.7171715e-107
3.7123554e-107
3.7087902e-107
3.7070196e-107
3.7070397e-107
3.708788e-107
3.7123836e-107
3.7172173e-107
3.7173646e-107
3.6685568e-107
3.3124112e-107
1.8174042e-107
8.4786282e-109
6.6836651e-116
1.6189028e-119
3.6132587e-112
8.5854463e-111
1.5964734e-110
1.7743549e-110
1.7989232e-110
1.7990143e-110
1.7967114e-110
1.7949978e-110
1.7941482e-110
1.7941625e-110
1.7950105e-110
1.7967502e-110
1.7990755e-110
1.7990183e-110
1.7744459e-110
1.5965806e-110
8.5860119e-111
3.6134429e-112
1.6189431e-119
3.6631584e-123
1.4407063e-115
3.7952256e-114
7.2003009e-114
8.0307638e-114
8.1464387e-114
8.1475337e-114
8.1372412e-114
8.1295381e-114
8.1257247e-114
8.1258097e-114
8.1296542e-114
8.1375275e-114
8.1479919e-114
8.1471478e-114
8.031562e-114
7.201237e-114
3.7957537e-114
1.4408926e-115
3.6635335e-123
7.7409499e-127
5.3730024e-119
1.5693889e-117
3.0378271e-117
3.40016e-117
3.4510506e-117
3.4518125e-117
3.4475117e-117
3.4442714e-117
3.4426674e-117
3.4427092e-117
3.4443376e-117
3.4476681e-117
3.4520714e-117
3.4514657e-117
3.4006753e-117
3.0384423e-117
1.5697446e-117
5.3742031e-119
7.7424648e-127
1.5269579e-130
1.873324e-122
6.0678081e-121
1.1983679e-120
1.3460491e-120
1.3669637e-120
1.3673867e-120
1.3657059e-120
1.3644287e-120
1.3637952e-120
1.3638121e-120
1.3644559e-120
1.3657727e-120
1.3675042e-120
1.3671649e-120
1.3463234e-120
1.1987086e-120
6.0698085e-121
1.8739514e-122
1.5274238e-130
2.809763e-134
6.1020947e-126
2.1920969e-124
4.417259e-124
4.9792662e-124
5.0595287e-124
5.0615526e-124
5.0553986e-124
5.0506714e-124
5.0483171e-124
5.048372e-124
5.0507469e-124
5.0556116e-124
5.0619684e-124
5.0603392e-124
4.9805197e-124
4.4189224e-124
2.1930888e-124
6.1049466e-126
2.8109796e-134
4.8188735e-138
1.8554386e-129
7.3935597e-128
1.5201885e-127
1.7197445e-127
1.7484999e-127
1.7493611e-127
1.7472465e-127
1.7455981e-127
1.7447726e-127
1.744785e-127
1.7456025e-127
1.7472837e-127
1.7494581e-127
1.7487618e-127
1.7202483e-127
1.5209268e-127
7.3980562e-128
1.856613e-129
4.821727e-138
7.6946925e-142
5.2608893e-133
2.325793e-131
4.879676e-131
5.540255e-131
5.6363555e-131
5.6396868e-131
5.6328664e-131
5.6274596e-131
5.6247237e-131
5.6247276e-131
5.6273622e-131
5.6327738e-131
5.6397117e-131
5.637013e-131
5.5420812e-131
4.8826952e-131
2.3276643e-131
5.2653365e-133
7.7007441e-142
)
;

boundaryField
{
    Wall
    {
        type            zeroGradient;
    }
    frontAndBack
    {
        type            empty;
    }
    atmosphere
    {
        type            zeroGradient;
    }
}


// ************************************************************************* //
