/*--------------------------------*- C++ -*----------------------------------*\
| =========                 |                                                 |
| \\      /  F ield         | OpenFOAM: The Open Source CFD Toolbox           |
|  \\    /   O peration     | Version:  3.0.1                                 |
|   \\  /    A nd           | Web:      www.OpenFOAM.org                      |
|    \\/     M anipulation  |                                                 |
\*---------------------------------------------------------------------------*/
FoamFile
{
    version     2.0;
    format      ascii;
    class       volScalarField;
    location    "3";
    object      mZero;
}
// * * * * * * * * * * * * * * * * * * * * * * * * * * * * * * * * * * * * * //

dimensions      [0 0 0 0 0 0 0];

internalField   nonuniform List<scalar> 
800
(
1e+13
1e+13
1e+13
1e+13
1e+13
1e+13
1e+13
1e+13
1e+13
1e+13
1e+13
1e+13
1e+13
1e+13
1e+13
1e+13
1e+13
1e+13
1e+13
1e+13
1e+13
1e+13
1e+13
1e+13
1e+13
1e+13
1e+13
1e+13
1e+13
1e+13
1e+13
1e+13
1e+13
1e+13
1e+13
1e+13
1e+13
1e+13
1e+13
1e+13
8.8927113e+10
9.1142423e+10
9.1330058e+10
9.1358933e+10
9.1362881e+10
9.1363036e+10
9.1362763e+10
9.1362508e+10
9.1362362e+10
9.1362289e+10
9.13623e+10
9.1362352e+10
9.1362525e+10
9.1362758e+10
9.1363013e+10
9.1362873e+10
9.1358911e+10
9.133002e+10
9.114238e+10
8.8927125e+10
5.0522864e+08
7.621193e+08
8.2765273e+08
8.4121828e+08
8.4334317e+08
8.4348175e+08
8.433851e+08
8.433032e+08
8.4325434e+08
8.4323288e+08
8.4323331e+08
8.4325501e+08
8.4330416e+08
8.433856e+08
8.4348117e+08
8.4334136e+08
8.4121491e+08
8.2764809e+08
7.6211374e+08
5.0522562e+08
2602464.5
6999914.9
8483005.7
8806590.3
8857401.8
8860369.2
8857746.2
8855571.9
8854267.1
8853690.3
8853699.4
8854285
8855592.5
8857758.8
8860357.9
8857354.8
8806506.9
8482893.5
6999788.6
2602416
11919.021
56024.346
75557.7
80079.514
80794.236
80831.706
80790.294
80756.23
80735.588
80726.303
80726.431
80735.815
80756.521
80790.495
80831.567
80793.551
80078.298
75556.057
56022.674
11918.616
45.73329
368.27416
551.20593
596.17652
603.38375
603.75166
603.3116
602.94542
602.72032
602.61742
602.61874
602.72234
602.94796
603.31347
603.75064
603.37715
596.16463
551.18992
368.25927
45.73112
0.1475634
2.0120362
3.3358776
3.6811734
3.7375268
3.7405453
3.7371057
3.7341779
3.7323513
3.7315036
3.7315118
3.7323624
3.7341923
3.7371147
3.7405355
3.7374787
3.6810878
3.3357641
2.0119413
0.14755507
0.0004090063
0.0093760325
0.017198131
0.019360109
0.019720157
0.019741242
0.019720114
0.019701608
0.019689889
0.019684386
0.019684422
0.019689926
0.019701652
0.019720117
0.019741147
0.019719857
0.019359619
0.017197507
0.0093755634
0.00040898196
9.9374991e-07
3.8129482e-05
7.7311512e-05
8.8772982e-05
9.0721802e-05
9.0848037e-05
9.0741013e-05
9.0644253e-05
9.0582138e-05
9.0552649e-05
9.0552759e-05
9.0582054e-05
9.0644108e-05
9.0740611e-05
9.0847203e-05
9.0720093e-05
8.8770579e-05
7.7308672e-05
3.8127604e-05
9.9369233e-07
2.1508601e-09
1.3773949e-07
3.0854092e-07
3.6135473e-07
3.7052051e-07
3.7117433e-07
3.7071169e-07
3.7027887e-07
3.699977e-07
3.6986317e-07
3.698632e-07
3.6999603e-07
3.7027637e-07
3.7070779e-07
3.711687e-07
3.705115e-07
3.6134369e-07
3.0852907e-07
1.3773278e-07
2.1507413e-09
4.1996524e-12
4.4806529e-10
1.1083917e-09
1.323979e-09
1.3621413e-09
1.3651087e-09
1.3633591e-09
1.3616621e-09
1.3605484e-09
1.3600119e-09
1.3600108e-09
1.3605372e-09
1.3616451e-09
1.3633352e-09
1.3650787e-09
1.3620989e-09
1.3239315e-09
1.1083444e-09
4.4804224e-10
4.1994175e-12
7.4722286e-15
1.3267198e-12
3.6233236e-12
4.4141777e-12
4.5568467e-12
4.5688006e-12
4.5629034e-12
4.5569636e-12
4.5530307e-12
4.5511262e-12
4.5511177e-12
4.5529776e-12
4.5568828e-12
4.5627925e-12
4.5686645e-12
4.5566638e-12
4.4139806e-12
3.6231391e-12
1.3266418e-12
7.471765e-15
1.2214631e-17
3.6069221e-15
1.0873123e-14
1.350961e-14
1.3993905e-14
1.4037169e-14
1.401921e-14
1.4000384e-14
1.3987825e-14
1.3981716e-14
1.3981681e-14
1.3987622e-14
1.4000075e-14
1.4018788e-14
1.4036648e-14
1.3993212e-14
1.3508866e-14
1.0872447e-14
3.6066678e-15
1.221373e-17
1.8469344e-20
9.0679435e-18
3.0168576e-17
3.8228069e-17
3.9734314e-17
3.9876449e-17
3.9826503e-17
3.9771886e-17
3.9735202e-17
3.9717301e-17
3.9717185e-17
3.9734553e-17
3.9770894e-17
3.9825123e-17
3.987471e-17
3.9731984e-17
3.8225562e-17
3.0166328e-17
9.0671808e-18
1.8467706e-20
2.598018e-23
2.1207151e-20
7.7859886e-20
1.0061788e-19
1.0494211e-19
1.0536981e-19
1.0524192e-19
1.050956e-19
1.0499674e-19
1.0494837e-19
1.0494807e-19
1.0499491e-19
1.050928e-19
1.0523794e-19
1.053647e-19
1.0493521e-19
1.0061042e-19
7.7853276e-20
2.1205105e-20
2.597751e-23
3.416368e-26
4.6371528e-23
1.878619e-22
2.4758813e-22
2.5911863e-22
2.6030642e-22
2.6000295e-22
2.5963851e-22
2.593908e-22
2.5926948e-22
2.5926869e-22
2.5938613e-22
2.5963124e-22
2.5999246e-22
2.6029287e-22
2.5910027e-22
2.4756833e-22
1.878446e-22
4.6366647e-23
3.4159814e-26
4.2173479e-29
9.521377e-26
4.2562134e-25
5.7205913e-25
6.0076701e-25
6.0383074e-25
6.0315992e-25
6.0231104e-25
6.0173089e-25
6.0144624e-25
6.0144426e-25
6.0171938e-25
6.0229342e-25
6.0313461e-25
6.037981e-25
6.0072275e-25
5.7201179e-25
4.2558055e-25
9.5203283e-26
4.2168443e-29
4.9051352e-32
1.8427312e-28
9.0888711e-28
1.245808e-27
1.3128465e-27
1.320226e-27
1.3188384e-27
1.3169802e-27
1.315703e-27
1.3150753e-27
1.3150705e-27
1.3156761e-27
1.3169399e-27
1.3187816e-27
1.3201536e-27
1.3127487e-27
1.2457039e-27
9.0879842e-28
1.8425227e-28
4.9045293e-32
5.3924806e-35
3.3726255e-31
1.8354166e-30
2.5656478e-30
2.713054e-30
2.7297276e-30
2.7270311e-30
2.7231917e-30
2.7205385e-30
2.7192321e-30
2.7192222e-30
2.7204801e-30
2.7231062e-30
2.7269122e-30
2.7295783e-30
2.712851e-30
2.5654327e-30
1.8352353e-30
3.3722367e-31
5.3917975e-35
5.6192571e-38
5.8543457e-34
3.5153014e-33
5.0112291e-33
5.3174632e-33
5.3529462e-33
5.3480097e-33
5.3404972e-33
5.3352776e-33
5.3327034e-33
5.3326833e-33
5.3351597e-33
5.3403271e-33
5.3477756e-33
5.3526544e-33
5.3170627e-33
5.0108043e-33
3.5149489e-33
5.8536599e-34
5.6185294e-38
5.5643096e-41
9.6629646e-37
6.4019914e-36
9.3070996e-36
9.9100014e-36
9.9813755e-36
9.972844e-36
9.9588805e-36
9.9491281e-36
9.9443087e-36
9.9442709e-36
9.9489003e-36
9.9585547e-36
9.9723963e-36
9.9808213e-36
9.9092375e-36
9.3062937e-36
6.4013354e-36
9.6618084e-37
5.5635721e-41
5.2475693e-44
1.5200596e-39
1.111199e-38
1.6474318e-38
1.7602162e-38
1.7738277e-38
1.7724334e-38
1.7699618e-38
1.7682264e-38
1.7673674e-38
1.7673601e-38
1.7681834e-38
1.7699005e-38
1.7723494e-38
1.7737246e-38
1.7600739e-38
1.6472832e-38
1.1110813e-38
1.5198727e-39
5.2468521e-44
4.7227085e-47
2.2836082e-42
1.8419933e-41
2.7849589e-41
2.9859101e-41
3.0105876e-41
3.0084297e-41
3.004254e-41
3.0013071e-41
2.9998457e-41
2.9998318e-41
3.0012285e-41
3.0041427e-41
3.0082768e-41
3.0104001e-41
2.9856534e-41
2.7846942e-41
1.8417902e-41
2.2833183e-42
4.7220408e-47
4.0634482e-50
3.2824364e-45
2.9215195e-44
4.504573e-44
4.8463066e-44
4.8889418e-44
4.8857808e-44
4.8790353e-44
4.8742502e-44
4.8718737e-44
4.8718499e-44
4.8741161e-44
4.8788441e-44
4.8855178e-44
4.8886197e-44
4.8458674e-44
4.5041248e-44
2.9211852e-44
3.282006e-45
4.0628528e-50
3.3479427e-53
4.5217868e-48
4.4410042e-47
6.9829548e-47
7.5386865e-47
7.6090319e-47
7.6046543e-47
7.5942173e-47
7.5867772e-47
7.5830769e-47
7.5830405e-47
7.5865649e-47
7.5939162e-47
7.6042361e-47
7.6085188e-47
7.537983e-47
6.9822411e-47
4.4404827e-47
4.5211771e-48
3.3474355e-53
2.6453572e-56
5.9788942e-51
6.4798495e-50
1.039047e-49
1.1256171e-49
1.1367226e-49
1.1361502e-49
1.1346011e-49
1.1334911e-49
1.1329389e-49
1.1329341e-49
1.1334609e-49
1.1345581e-49
1.1360896e-49
1.1366473e-49
1.1255122e-49
1.0389402e-49
6.4790774e-50
5.9780704e-51
2.6449447e-56
2.0072389e-59
7.5984931e-54
9.0878297e-53
1.4860795e-52
1.6154608e-52
1.6322641e-52
1.6315606e-52
1.6293513e-52
1.6277605e-52
1.6269689e-52
1.6269638e-52
1.6277213e-52
1.629296e-52
1.6314811e-52
1.6321637e-52
1.6153156e-52
1.4859302e-52
9.0867539e-53
7.597441e-54
2.0069216e-59
1.4643895e-62
9.2934367e-57
1.226634e-55
2.0455398e-55
2.2313163e-55
2.2557224e-55
2.2549157e-55
2.2518847e-55
2.2496912e-55
2.2486e-55
2.2485957e-55
2.2496445e-55
2.2518204e-55
2.2548215e-55
2.255602e-55
2.2311322e-55
2.0453482e-55
1.226496e-55
9.2921947e-57
1.4641624e-62
1.0283629e-65
1.0951361e-59
1.5952588e-58
2.712907e-58
2.9695251e-58
3.0036025e-58
3.0027516e-58
2.998747e-58
2.9958339e-58
2.9943849e-58
2.9943834e-58
2.995783e-58
2.9986801e-58
3.0026534e-58
3.0034773e-58
2.969318e-58
2.7126905e-58
1.5951016e-58
1.0950043e-59
1.028215e-65
6.9585359e-69
1.2446938e-62
2.001104e-61
3.4704374e-61
3.8118455e-61
3.8576438e-61
3.8568422e-61
3.8517427e-61
3.848013e-61
3.8461576e-61
3.8461617e-61
3.8479633e-61
3.851686e-61
3.8567607e-61
3.8575444e-61
3.8116516e-61
3.4702363e-61
2.0009545e-61
1.244574e-62
6.95769e-69
4.5413461e-72
1.3657867e-65
2.4235656e-64
4.2862758e-64
4.7242243e-64
4.7835406e-64
4.7829137e-64
4.7766495e-64
4.7720436e-64
4.7697529e-64
4.7697667e-64
4.7720074e-64
4.7766256e-64
4.7828839e-64
4.7835166e-64
4.7241079e-64
4.2861621e-64
2.4234682e-64
1.3657042e-65
4.5409494e-72
2.861065e-75
1.4481687e-68
2.8364656e-67
5.1158055e-67
5.6580178e-67
5.7321313e-67
5.7318303e-67
5.7244031e-67
5.7189141e-67
5.7161877e-67
5.7162182e-67
5.7189102e-67
5.7244457e-67
5.7319024e-67
5.7322548e-67
5.6580717e-67
5.1158822e-67
2.8364834e-67
1.4481514e-68
2.8609494e-75
1.7414008e-78
1.4850165e-71
3.2106945e-70
5.9053747e-70
6.553881e-70
6.6433068e-70
6.6434922e-70
6.6349862e-70
6.6286681e-70
6.6255349e-70
6.6255875e-70
6.6287144e-70
6.6351285e-70
6.6437198e-70
6.6436601e-70
6.5542166e-70
5.9057711e-70
3.2109058e-70
1.4850918e-71
1.7414372e-78
1.0247607e-81
1.4738454e-74
3.5176528e-73
6.5980347e-73
7.3479814e-73
7.4522809e-73
7.4531058e-73
7.443688e-73
7.4366529e-73
7.4331694e-73
7.4332467e-73
7.4367583e-73
7.4439487e-73
7.4535269e-73
7.4529321e-73
7.3487114e-73
6.5988922e-73
3.5181421e-73
1.4740357e-74
1.0248613e-81
5.8344391e-85
1.4167353e-77
3.7329154e-76
7.1404396e-76
7.9796358e-76
8.0973295e-76
8.0989171e-76
8.0888226e-76
8.0812325e-76
8.0774744e-76
8.0775721e-76
8.0813869e-76
8.0891881e-76
8.0995265e-76
8.0983061e-76
7.9808447e-76
7.1418852e-76
3.7337613e-76
1.4170517e-77
5.8355551e-85
3.2159144e-88
1.3198501e-80
3.8394498e-79
7.4896975e-79
8.399067e-79
8.5276698e-79
8.5300893e-79
8.519599e-79
8.5116449e-79
8.5076988e-79
8.5078038e-79
8.5118136e-79
8.5200146e-79
8.5308242e-79
8.5289274e-79
8.400778e-79
7.4918267e-79
3.8407157e-79
1.3202921e-80
3.2168804e-88
1.7170694e-91
1.1923882e-83
3.8298038e-82
7.6189689e-82
8.5739023e-82
8.710096e-82
8.7133465e-82
8.7027466e-82
8.6946226e-82
8.6905755e-82
8.6906696e-82
8.6947514e-82
8.7031115e-82
8.7140639e-82
8.7114933e-82
8.5760593e-82
7.6218381e-82
3.8315372e-82
1.1929453e-83
1.7178036e-91
8.8850559e-95
1.0451895e-86
3.7068624e-85
7.5207897e-85
8.493237e-85
8.6331838e-85
8.6371944e-85
8.6267462e-85
8.6186214e-85
8.6145515e-85
8.6146125e-85
8.6186421e-85
8.6269283e-85
8.637674e-85
8.6344775e-85
8.4957229e-85
7.5244432e-85
3.7091177e-85
1.045851e-86
8.8902562e-95
4.4576515e-98
8.8931578e-90
3.4831572e-88
7.2075855e-88
8.1685501e-88
8.308182e-88
8.3128493e-88
8.3027873e-88
8.294831e-88
8.2908045e-88
8.2908098e-88
8.2946869e-88
8.3026492e-88
8.3128862e-88
8.30915e-88
8.1712401e-88
7.2120483e-88
3.4859623e-88
8.9006768e-90
4.4611171e-98
)
;

boundaryField
{
    Wall
    {
        type            zeroGradient;
    }
    frontAndBack
    {
        type            empty;
    }
    atmosphere
    {
        type            zeroGradient;
    }
}


// ************************************************************************* //
