/*--------------------------------*- C++ -*----------------------------------*\
| =========                 |                                                 |
| \\      /  F ield         | OpenFOAM: The Open Source CFD Toolbox           |
|  \\    /   O peration     | Version:  3.0.1                                 |
|   \\  /    A nd           | Web:      www.OpenFOAM.org                      |
|    \\/     M anipulation  |                                                 |
\*---------------------------------------------------------------------------*/
FoamFile
{
    version     2.0;
    format      ascii;
    class       surfaceScalarField;
    location    "3";
    object      phi;
}
// * * * * * * * * * * * * * * * * * * * * * * * * * * * * * * * * * * * * * //

dimensions      [0 3 -1 0 0 0 0];

internalField   nonuniform List<scalar> 
1540
(
-1.626517e-13
7.0161531e-10
-1.2008511e-13
7.0348427e-10
-4.2915466e-14
7.0375382e-10
-8.8944697e-15
7.0380174e-10
2.2638141e-15
7.0381428e-10
4.911007e-15
7.0381799e-10
4.5430415e-15
7.0381907e-10
3.2221859e-15
7.0381933e-10
1.6422731e-15
7.0381935e-10
2.4275825e-17
7.0381934e-10
-1.5797518e-15
7.0381934e-10
-3.1478611e-15
7.0381935e-10
-4.4712052e-15
7.0381933e-10
-4.8364026e-15
7.0381908e-10
-2.1889411e-15
7.0381799e-10
8.9673383e-15
7.0381427e-10
4.2978713e-14
7.0380172e-10
1.2012147e-13
7.037538e-10
1.6266401e-13
7.0348425e-10
7.0161529e-10
1.1897474e-13
6.8705796e-10
8.7301403e-14
7.0784108e-10
4.1306049e-14
7.1078676e-10
2.8231888e-14
7.1146322e-10
2.0911814e-14
7.1159588e-10
1.5355185e-14
7.1161484e-10
1.0826154e-14
7.1161486e-10
6.9158399e-15
7.1161297e-10
3.4020431e-15
7.1161159e-10
3.4754728e-17
7.1161094e-10
-3.3039195e-15
7.1161095e-10
-6.8343594e-15
7.1161161e-10
-1.0730993e-14
7.1161298e-10
-1.5267533e-14
7.1161488e-10
-2.0827288e-14
7.1161482e-10
-2.8135681e-14
7.1159582e-10
-4.121255e-14
7.1146312e-10
-8.721498e-14
7.1078662e-10
-1.1890353e-13
7.0784092e-10
6.8705786e-10
1.8397617e-13
6.8545425e-10
1.8950263e-13
1.0929273e-09
1.446261e-13
1.2463545e-09
1.1693093e-13
1.2901103e-09
9.1580181e-14
1.2996875e-09
6.8981411e-14
1.3012129e-09
4.9277422e-14
1.3012791e-09
3.1792964e-14
1.3011779e-09
1.5720453e-14
1.301102e-09
3.1340925e-16
1.3010662e-09
-1.5096608e-14
1.3010666e-09
-3.1182809e-14
1.3011028e-09
-4.869314e-14
1.3011787e-09
-6.8443435e-14
1.3012795e-09
-9.1093584e-14
1.3012122e-09
-1.1648506e-13
1.299685e-09
-1.4424195e-13
1.290106e-09
-1.8920623e-13
1.2463486e-09
-1.8379402e-13
1.0929212e-09
6.8545128e-10
3.2985754e-12
7.5367356e-10
5.1190954e-12
1.6772839e-09
5.3608981e-12
2.0477439e-09
4.7388104e-12
2.1553343e-09
3.8394334e-12
2.1791326e-09
2.9403212e-12
2.1829444e-09
2.1191389e-12
2.1830979e-09
1.3741481e-12
2.1828284e-09
6.8196435e-13
2.1826256e-09
1.517365e-14
2.1825291e-09
-6.5180735e-13
2.1825299e-09
-1.3452215e-12
2.1826273e-09
-2.0915723e-12
2.1828303e-09
-2.915567e-12
2.1830988e-09
-3.817267e-12
2.1829426e-09
-4.719639e-12
2.1791263e-09
-5.3450836e-12
2.1553235e-09
-5.1079939e-12
2.0477292e-09
-3.2925987e-12
1.6772687e-09
7.5366608e-10
3.9955948e-12
8.3845036e-10
6.3994994e-12
1.9571297e-09
6.9586842e-12
2.4192891e-09
6.3673611e-12
2.5556336e-09
5.3105919e-12
2.5861379e-09
4.1563043e-12
2.5910709e-09
3.0410869e-12
2.5912587e-09
1.9911709e-12
2.5908857e-09
9.9441359e-13
2.5906012e-09
2.3899381e-14
2.5904632e-09
-9.469251e-13
2.590464e-09
-1.9460175e-12
2.5906026e-09
-2.9986976e-12
2.5908877e-09
-4.1189282e-12
2.5912599e-09
-5.2779303e-12
2.5910689e-09
-6.339969e-12
2.5861307e-09
-6.9367061e-12
2.5556203e-09
-6.3844315e-12
2.4192705e-09
-3.9879042e-12
1.9571105e-09
8.3844085e-10
3.2101362e-12
8.6906442e-10
5.3173944e-12
2.044598e-09
6.043001e-12
2.534862e-09
5.7791944e-12
2.6806298e-09
5.0061028e-12
2.713557e-09
4.0344094e-12
2.7189813e-09
3.0147003e-12
2.7192236e-09
2.0018477e-12
2.7188222e-09
1.0088641e-12
2.7185048e-09
2.7921032e-14
2.7183478e-09
-9.5411819e-13
2.7183484e-09
-1.9499923e-12
2.7185056e-09
-2.9674362e-12
2.7188228e-09
-3.9944673e-12
2.7192235e-09
-4.9728061e-12
2.7189795e-09
-5.752999e-12
2.7135508e-09
-6.0239031e-12
2.6806182e-09
-5.3056083e-12
2.5348456e-09
-3.2048415e-12
2.0445808e-09
8.6905608e-10
2.2109028e-12
8.7608477e-10
3.7888334e-12
2.0642471e-09
4.5034628e-12
2.5612714e-09
4.507112e-12
2.7096549e-09
4.0628535e-12
2.7434547e-09
3.3803521e-12
2.7491672e-09
2.5857229e-12
2.7495065e-09
1.7451369e-12
2.7491349e-09
8.8977698e-13
2.7488238e-09
2.9729353e-14
2.7486661e-09
-8.3164302e-13
2.7486654e-09
-1.6908055e-12
2.7488224e-09
-2.5370896e-12
2.7491329e-09
-3.3404168e-12
2.7495033e-09
-4.0323801e-12
2.7491629e-09
-4.4855102e-12
2.7434491e-09
-4.4901489e-12
2.7096466e-09
-3.7828083e-12
2.5612605e-09
-2.2093406e-12
2.0642366e-09
8.7607969e-10
1.4581775e-12
8.7704918e-10
2.5747582e-12
2.0672288e-09
3.1839621e-12
2.5656558e-09
3.3186972e-12
2.7148241e-09
3.101888e-12
2.7490445e-09
2.6579877e-12
2.7549853e-09
2.0787016e-12
2.7554479e-09
1.4255129e-12
2.7551408e-09
7.3522761e-13
2.7548603e-09
2.9220101e-14
2.7547149e-09
-6.7751987e-13
2.7547134e-09
-1.3715648e-12
2.7548567e-09
-2.030754e-12
2.7551352e-09
-2.6184112e-12
2.7554407e-09
-3.0723062e-12
2.7549778e-09
-3.2994309e-12
2.7490375e-09
-3.174294e-12
2.7148185e-09
-2.5726963e-12
2.5656509e-09
-1.4594628e-12
2.0672252e-09
8.7704807e-10
9.6587779e-13
8.7695663e-10
1.7456878e-12
2.0672225e-09
2.2275195e-12
2.5659518e-09
2.3994925e-12
2.715451e-09
2.3108094e-12
2.7499406e-09
2.0296293e-12
2.7560728e-09
1.6177889e-12
2.7566611e-09
1.1249035e-12
2.7564317e-09
5.863726e-13
2.7561949e-09
2.7328666e-14
2.7560682e-09
-5.3209742e-13
2.7560659e-09
-1.0731487e-12
2.7561874e-09
-1.5709748e-12
2.7564208e-09
-1.9896642e-12
2.7566482e-09
-2.279879e-12
2.7560601e-09
-2.379147e-12
2.7499305e-09
-2.2177736e-12
2.7154454e-09
-1.7441668e-12
2.5659502e-09
-9.6754508e-13
2.0672243e-09
8.7695811e-10
6.5242555e-13
8.7678147e-10
1.1991349e-12
2.0669003e-09
1.5655193e-12
2.5657191e-09
1.7286193e-12
2.7154071e-09
1.7035894e-12
2.7500863e-09
1.5258769e-12
2.7563723e-09
1.2354888e-12
2.7570737e-09
8.6893345e-13
2.7569202e-09
4.5690657e-13
2.7567298e-09
2.4330876e-14
2.7566253e-09
-4.0837297e-13
2.756622e-09
-8.2062198e-13
2.7567204e-09
-1.189491e-12
2.7569061e-09
-1.4846031e-12
2.7570572e-09
-1.669238e-12
2.7563556e-09
-1.7033256e-12
2.7500716e-09
-1.55065e-12
2.7153969e-09
-1.1928036e-12
2.5657141e-09
-6.5129634e-13
2.0669003e-09
8.7678271e-10
4.499331e-13
8.7665061e-10
8.3612415e-13
2.0666404e-09
1.1090148e-12
2.5654981e-09
1.245825e-12
2.7153076e-09
1.2487395e-12
2.7501232e-09
1.1356502e-12
2.7565294e-09
9.3060943e-13
2.7573247e-09
6.6047957e-13
2.757239e-09
3.5020027e-13
2.7570921e-09
2.0640333e-14
2.7570082e-09
-3.0828204e-13
2.7570053e-09
-6.1733832e-13
2.7570824e-09
-8.8736573e-13
2.7572238e-09
-1.094117e-12
2.7573063e-09
-1.2117108e-12
2.7565104e-09
-1.215483e-12
2.7501047e-09
-1.0868718e-12
2.715292e-09
-8.2225573e-13
2.5654863e-09
-4.4368605e-13
2.0666335e-09
8.7664852e-10
3.146818e-13
8.7656078e-10
5.8919247e-13
2.0664581e-09
7.8986111e-13
2.5653373e-09
8.9845262e-13
2.7152295e-09
9.1213288e-13
2.7501428e-09
8.3922533e-13
2.7566391e-09
6.9436515e-13
2.757509e-09
4.9687978e-13
2.7574796e-09
2.6560518e-13
2.75737e-09
1.7756801e-14
2.757305e-09
-2.2948029e-13
2.7573019e-09
-4.5913606e-13
2.7573613e-09
-6.5489046e-13
2.7574658e-09
-7.9907798e-13
2.7574912e-09
-8.7455347e-13
2.7566181e-09
-8.6553499e-13
2.7501191e-09
-7.632342e-13
2.7152054e-09
-5.7000035e-13
2.5653156e-09
-3.0454319e-13
2.0664417e-09
8.7655412e-10
2.2205007e-13
8.7649725e-10
4.1818265e-13
2.0663267e-09
5.6510942e-13
2.5652169e-09
6.4850017e-13
2.7151644e-09
6.6451974e-13
2.7501474e-09
6.172175e-13
2.7567118e-09
5.1543352e-13
2.7576394e-09
3.719374e-13
2.7576549e-09
2.0071109e-13
2.7575762e-09
1.5780593e-14
2.7575266e-09
-1.683191e-13
2.7575246e-09
-3.3804372e-13
2.7575692e-09
-4.7979904e-13
2.7576436e-09
-5.8101069e-13
2.7576243e-09
-6.2985973e-13
2.7566918e-09
-6.1669906e-13
2.7501227e-09
-5.3757373e-13
2.7151363e-09
-3.9713729e-13
2.5651882e-09
-2.1052315e-13
2.0663022e-09
8.7648636e-10
1.5742755e-13
8.7644692e-10
2.9805339e-13
2.06622e-09
4.0537879e-13
2.5651134e-09
4.6852256e-13
2.7150985e-09
4.8350611e-13
2.7501313e-09
4.5227396e-13
2.7567453e-09
3.80629e-13
2.757717e-09
2.7694544e-13
2.7577676e-09
1.5093032e-13
2.7577132e-09
1.4135402e-14
2.7576766e-09
-1.2178158e-13
2.7576751e-09
-2.4638427e-13
2.7577087e-09
-3.4893924e-13
2.7577602e-09
-4.2129944e-13
2.7577051e-09
-4.5400723e-13
2.7567278e-09
-4.4112591e-13
2.7501079e-09
-3.8085429e-13
2.7150707e-09
-2.7895475e-13
2.5650829e-09
-1.4702645e-13
2.0661925e-09
8.7643416e-10
1.1186387e-13
8.7640179e-10
2.128518e-13
2.0661216e-09
2.9085814e-13
2.5650111e-09
3.384047e-13
2.7150211e-09
3.5123224e-13
2.7500892e-09
3.3023385e-13
2.7567401e-09
2.7949777e-13
2.7577453e-09
2.0502543e-13
2.7578231e-09
1.1301421e-13
2.7577878e-09
1.2890611e-14
2.7577614e-09
-8.6660181e-14
2.757761e-09
-1.7761044e-13
2.7577855e-09
-2.5268086e-13
2.7578184e-09
-3.0472066e-13
2.7577371e-09
-3.2739953e-13
2.7567268e-09
-3.1663447e-13
2.7500709e-09
-2.7213561e-13
2.7149984e-09
-1.9820452e-13
2.5649855e-09
-1.0443633e-13
2.0660972e-09
8.7639029e-10
7.9596708e-14
8.7635943e-10
1.5191329e-13
2.0660272e-09
2.08494e-13
2.5649079e-09
2.4336243e-13
2.7149337e-09
2.5360316e-13
2.7500276e-09
2.3960272e-13
2.7567065e-09
2.0446762e-13
2.7577377e-09
1.5142936e-13
2.7578363e-09
8.5265741e-14
2.7578152e-09
1.2274027e-14
2.757797e-09
-6.0681317e-14
2.7577962e-09
-1.271755e-13
2.7578137e-09
-1.8189723e-13
2.7578327e-09
-2.1943054e-13
2.757731e-09
-2.3506951e-13
2.7566969e-09
-2.273325e-13
2.750015e-09
-1.9537719e-13
2.7149186e-09
-1.4276093e-13
2.5648905e-09
-7.5503118e-14
2.0660103e-09
8.7635132e-10
5.6570605e-14
8.7632088e-10
1.0818344e-13
2.0659396e-09
1.4885244e-13
2.5648086e-09
1.7426422e-13
2.7148444e-09
1.8266595e-13
2.749957e-09
1.7380064e-13
2.7566566e-09
1.4933727e-13
2.7577072e-09
1.116484e-13
2.7578218e-09
6.4382639e-14
2.7578123e-09
1.1462064e-14
2.7577989e-09
-4.1653586e-14
2.757798e-09
-9.0265195e-14
2.7578095e-09
-1.2961753e-13
2.7578184e-09
-1.56228e-13
2.7577031e-09
-1.6718885e-13
2.7566512e-09
-1.6190641e-13
2.7499506e-09
-1.4000624e-13
2.714837e-09
-1.0317612e-13
2.5647997e-09
-5.5030769e-14
2.0659303e-09
8.7631619e-10
3.9631241e-14
8.7628858e-10
7.6240834e-14
2.0658654e-09
1.060564e-13
2.5647222e-09
1.2550652e-13
2.7147639e-09
1.3250516e-13
2.7498893e-09
1.2712131e-13
2.7566042e-09
1.0975445e-13
2.7576689e-09
8.2353978e-14
2.7577949e-09
4.7919853e-14
2.7577927e-09
9.7799208e-15
2.757783e-09
-2.8151008e-14
2.7577818e-09
-6.2677145e-14
2.7577896e-09
-9.0351841e-14
2.7577915e-09
-1.0898815e-13
2.7576661e-09
-1.1672181e-13
2.7566019e-09
-1.133064e-13
2.7498878e-09
-9.9049075e-14
2.7147615e-09
-7.4021588e-14
2.564718e-09
-3.9810536e-14
2.0658599e-09
8.7628573e-10
2.6647285e-14
8.7626325e-10
5.2264564e-14
2.0658071e-09
7.4764327e-14
2.5646549e-09
9.0511055e-14
2.7146997e-09
9.7253068e-14
2.7498344e-09
9.4123876e-14
2.7565586e-09
8.1821488e-14
2.7576328e-09
6.1139731e-14
2.7577665e-09
3.5450986e-14
2.7577699e-09
7.8392367e-15
2.7577629e-09
-1.8844468e-14
2.7577625e-09
-4.2440074e-14
2.7577677e-09
-6.1244973e-14
2.7577643e-09
-7.3994841e-14
2.7576316e-09
-7.9545681e-14
2.7565589e-09
-7.7902545e-14
2.7498342e-09
-6.8960105e-14
2.7146988e-09
-5.1953857e-14
2.5646521e-09
-2.7947282e-14
2.0658035e-09
8.7626121e-10
1.6923327e-14
8.7624521e-10
3.4279893e-14
2.0657655e-09
5.1096679e-14
2.564607e-09
6.4270593e-14
2.714655e-09
7.0490798e-14
2.7497949e-09
6.9361719e-14
2.7565261e-09
6.0957529e-14
2.757607e-09
4.5716463e-14
2.7577466e-09
2.6670225e-14
2.7577541e-09
6.8602258e-15
2.7577495e-09
-1.1675509e-14
2.7577489e-09
-2.7305045e-14
2.7577529e-09
-3.9535633e-14
2.7577455e-09
-4.7864921e-14
2.7576066e-09
-5.2291173e-14
2.7565261e-09
-5.2105648e-14
2.7497939e-09
-4.6730612e-14
2.7146522e-09
-3.532578e-14
2.5646033e-09
-1.8939726e-14
2.0657621e-09
8.7624338e-10
1.0299491e-14
8.7623391e-10
2.1541438e-14
2.0657395e-09
3.3596578e-14
2.564577e-09
4.4090116e-14
2.7146272e-09
4.9982486e-14
2.749772e-09
5.0485597e-14
2.7565088e-09
4.5333305e-14
2.757595e-09
3.4549392e-14
2.7577386e-09
2.0802668e-14
2.7577493e-09
6.7441203e-15
2.7577458e-09
-5.8739849e-15
2.7577454e-09
-1.6017556e-14
2.7577476e-09
-2.3726198e-14
2.7577361e-09
-2.948705e-14
2.7575919e-09
-3.3202387e-14
2.7565055e-09
-3.3855909e-14
2.7497675e-09
-3.0550357e-14
2.7146219e-09
-2.2987167e-14
2.5645715e-09
-1.2155777e-14
2.0657348e-09
8.762318e-10
5.9539351e-15
8.7622813e-10
1.2828184e-14
2.0657259e-09
2.1031796e-14
2.564562e-09
2.9235791e-14
2.7146152e-09
3.4992939e-14
2.7497638e-09
3.6670545e-14
2.7565042e-09
3.3764475e-14
2.7575937e-09
2.6347636e-14
2.7577406e-09
1.6376191e-14
2.7577534e-09
6.458126e-15
2.7577514e-09
-1.8223536e-15
2.7577501e-09
-8.1000613e-15
2.7577499e-09
-1.2963841e-14
2.7577353e-09
-1.7018407e-14
2.757587e-09
-1.9856509e-14
2.7564964e-09
-2.0494257e-14
2.749754e-09
-1.8548111e-14
2.7146052e-09
-1.3754951e-14
2.5645532e-09
-7.1224497e-15
2.0657194e-09
8.762251e-10
3.2880857e-15
8.7622553e-10
7.3069313e-15
2.0657199e-09
1.2511182e-14
2.5645559e-09
1.8334372e-14
2.7146116e-09
2.3371982e-14
2.7497638e-09
2.582283e-14
2.7565072e-09
2.4729283e-14
2.7575988e-09
1.9836367e-14
2.7577479e-09
1.2781884e-14
2.7577627e-09
5.6661554e-15
2.7577615e-09
3.4463625e-16
2.7577599e-09
-3.1449965e-15
2.7577583e-09
-6.1272032e-15
2.7577414e-09
-9.0285023e-15
2.7575897e-09
-1.0895546e-14
2.7564956e-09
-1.1096741e-14
2.7497505e-09
-9.7862602e-15
2.7145985e-09
-7.0358033e-15
2.5645452e-09
-3.4993733e-15
2.0657119e-09
8.7622199e-10
1.6992063e-15
8.7622416e-10
3.9143885e-15
2.0657166e-09
7.0668848e-15
2.5645527e-09
1.0911014e-14
2.7146098e-09
1.4754012e-14
2.7497645e-09
1.7431461e-14
2.7565106e-09
1.779535e-14
2.7576049e-09
1.5058132e-14
2.7577565e-09
1.0128605e-14
2.7577731e-09
4.8233966e-15
2.7577733e-09
1.2548366e-15
2.7577723e-09
-5.7361383e-16
2.7577701e-09
-2.3542788e-15
2.7577509e-09
-4.2636765e-15
2.7575971e-09
-5.2250914e-15
2.7565007e-09
-4.8970809e-15
2.7497528e-09
-3.9355793e-15
2.7145979e-09
-2.7301196e-15
2.5645423e-09
-1.378179e-15
2.0657083e-09
8.762203e-10
8.2255679e-16
8.7622251e-10
2.125848e-15
2.0657122e-09
4.3003673e-15
2.564547e-09
7.0649551e-15
2.7146052e-09
9.777078e-15
2.7497617e-09
1.2173794e-14
2.7565102e-09
1.33982e-14
2.7576076e-09
1.2173008e-14
2.7577615e-09
8.6274305e-15
2.7577804e-09
4.2933645e-15
2.7577819e-09
1.3297455e-15
2.757782e-09
-5.0321695e-17
2.7577799e-09
-1.1915988e-15
2.7577605e-09
-2.0911085e-15
2.7576049e-09
-2.0450051e-15
2.756506e-09
-1.2405135e-15
2.7497554e-09
-6.1765714e-16
2.7145981e-09
-6.5982581e-16
2.5645395e-09
-6.4950113e-16
2.0657049e-09
8.7621884e-10
5.6411573e-16
8.7621968e-10
1.7288039e-15
2.0657049e-09
3.6623544e-15
2.5645379e-09
5.9073124e-15
2.7145955e-09
7.8817751e-15
2.7497533e-09
9.8147715e-15
2.7565046e-09
1.1194294e-14
2.7576035e-09
1.0631734e-14
2.7577596e-09
7.805118e-15
2.7577796e-09
4.2234954e-15
2.7577832e-09
1.5470866e-15
2.7577844e-09
-4.6618678e-17
2.7577838e-09
-1.2229541e-15
2.7577646e-09
-1.5513617e-15
2.7576086e-09
-8.6013685e-16
2.7565079e-09
5.6046516e-17
2.7497549e-09
2.6500672e-16
2.7145943e-09
-3.6696097e-16
2.5645338e-09
-7.0939161e-16
2.0656993e-09
8.7621666e-10
3.9564701e-16
8.7621475e-10
1.5762313e-15
2.065693e-09
3.6364367e-15
2.5645227e-09
6.0477109e-15
2.7145805e-09
8.11805e-15
2.7497399e-09
9.8655661e-15
2.7564922e-09
1.1010035e-14
2.7575933e-09
1.0325942e-14
2.7577506e-09
7.9209238e-15
2.7577721e-09
4.9745479e-15
2.7577766e-09
2.5735796e-15
2.7577794e-09
4.5279465e-16
2.7577796e-09
-1.5349497e-15
2.7577617e-09
-2.3912144e-15
2.7576063e-09
-2.0815322e-15
2.7565051e-09
-1.5361783e-15
2.7497499e-09
-1.2641868e-15
2.7145873e-09
-1.2579149e-15
2.5645254e-09
-9.9951564e-16
2.0656926e-09
8.7621398e-10
8.0933774e-16
8.7620733e-10
2.2810785e-15
2.0656751e-09
4.7188738e-15
2.5645013e-09
7.5805284e-15
2.7145592e-09
9.9221557e-15
2.7497199e-09
1.1658513e-14
2.7564748e-09
1.2474004e-14
2.7575783e-09
1.1570752e-14
2.7577372e-09
9.2395715e-15
2.7577597e-09
6.6748321e-15
2.757765e-09
4.6546319e-15
2.7577681e-09
2.2950793e-15
2.7577692e-09
-8.2745223e-16
2.7577519e-09
-3.4666167e-15
2.7575976e-09
-5.071574e-15
2.756497e-09
-5.543127e-15
2.7497414e-09
-4.6734383e-15
2.7145782e-09
-3.0254397e-15
2.5645174e-09
-1.4710818e-15
2.0656862e-09
8.7621131e-10
1.7368029e-15
8.7619786e-10
4.160955e-15
2.0656523e-09
7.5865997e-15
2.5644739e-09
1.1170427e-14
2.714532e-09
1.3730299e-14
2.7496952e-09
1.5247111e-14
2.7564532e-09
1.5687165e-14
2.7575594e-09
1.4484002e-14
2.75772e-09
1.2061661e-14
2.7577435e-09
9.6448384e-15
2.7577494e-09
7.8546216e-15
2.7577529e-09
5.2561714e-15
2.7577542e-09
7.5737308e-16
2.7577374e-09
-4.445921e-15
2.7575846e-09
-8.7250517e-15
2.7564852e-09
-1.0471654e-14
2.7497314e-09
-8.9206011e-15
2.7145702e-09
-5.7186222e-15
2.5645105e-09
-2.6497173e-15
2.0656811e-09
8.7620935e-10
3.3615961e-15
8.7618704e-10
7.629153e-15
2.0656266e-09
1.2588181e-14
2.5644429e-09
1.6936994e-14
2.7145022e-09
1.961224e-14
2.7496679e-09
2.0822707e-14
2.756429e-09
2.0596234e-14
2.7575384e-09
1.8811373e-14
2.7577017e-09
1.6162263e-14
2.7577266e-09
1.3600919e-14
2.7577329e-09
1.146738e-14
2.757737e-09
8.109623e-15
2.7577383e-09
2.3035121e-15
2.7577228e-09
-5.0630706e-15
2.7575707e-09
-1.1358474e-14
2.7564726e-09
-1.400624e-14
2.7497209e-09
-1.2468981e-14
2.7145621e-09
-8.7149237e-15
2.5645048e-09
-4.3647738e-15
2.0656774e-09
8.7620808e-10
6.0299814e-15
8.7617526e-10
1.3010509e-14
2.0655988e-09
2.0082444e-14
2.56441e-09
2.5373522e-14
2.7144697e-09
2.8484678e-14
2.7496392e-09
2.9384033e-14
2.7564054e-09
2.7955436e-14
2.7575183e-09
2.4682853e-14
2.7576845e-09
2.0909914e-14
2.7577121e-09
1.7741284e-14
2.7577202e-09
1.4845821e-14
2.757725e-09
1.0788155e-14
2.7577273e-09
4.0880838e-15
2.7577116e-09
-4.2438186e-15
2.7575597e-09
-1.1151804e-14
2.7564624e-09
-1.4072346e-14
2.7497124e-09
-1.3149053e-14
2.7145555e-09
-9.9663e-15
2.564499e-09
-5.3438029e-15
2.0656738e-09
8.7620678e-10
9.614881e-15
8.761628e-10
2.0052827e-14
2.0655696e-09
3.0121391e-14
2.5643751e-09
3.7569272e-14
2.7144371e-09
4.1704497e-14
2.7496118e-09
4.1764662e-14
2.7563831e-09
3.8437495e-14
2.7575009e-09
3.2889274e-14
2.7576711e-09
2.7146285e-14
2.7577024e-09
2.2438015e-14
2.7577136e-09
1.8394596e-14
2.75772e-09
1.3549225e-14
2.7577219e-09
6.4027983e-15
2.7577057e-09
-1.9771953e-15
2.7575532e-09
-8.866881e-15
2.7564561e-09
-1.2264758e-14
2.7497067e-09
-1.2411632e-14
2.71455e-09
-9.9899337e-15
2.5644946e-09
-5.5903519e-15
2.0656703e-09
8.7620547e-10
1.4829886e-14
8.7614927e-10
3.0256249e-14
2.0655379e-09
4.4881141e-14
2.5643391e-09
5.5453325e-14
2.7144053e-09
6.0518124e-14
2.7495875e-09
5.935815e-14
2.7563658e-09
5.3421121e-14
2.7574889e-09
4.5166345e-14
2.7576633e-09
3.6465401e-14
2.7576979e-09
2.8933012e-14
2.7577112e-09
2.2494491e-14
2.7577182e-09
1.605754e-14
2.7577195e-09
8.4088105e-15
2.7577021e-09
1.2032758e-16
2.757549e-09
-6.7276901e-15
2.7564526e-09
-1.0757185e-14
2.7497028e-09
-1.1852612e-14
2.7145467e-09
-1.0164084e-14
2.5644916e-09
-5.8774739e-15
2.065668e-09
8.7620442e-10
2.2754625e-14
8.7613462e-10
4.5859709e-14
2.0655043e-09
6.7025213e-14
2.5643018e-09
8.1275248e-14
2.7143741e-09
8.6419923e-14
2.7495675e-09
8.2632253e-14
2.7563554e-09
7.3219812e-14
2.7574851e-09
6.1228875e-14
2.7576632e-09
4.8854183e-14
2.7576991e-09
3.731472e-14
2.7577129e-09
2.756156e-14
2.7577194e-09
1.8770175e-14
2.7577193e-09
1.0402713e-14
2.7577008e-09
2.3427865e-15
2.7575467e-09
-4.4731294e-15
2.7564492e-09
-9.0433471e-15
2.7497003e-09
-1.1209268e-14
2.714544e-09
-1.0386403e-14
2.5644891e-09
-6.3396236e-15
2.0656661e-09
8.762036e-10
3.3741305e-14
8.7611818e-10
6.773671e-14
2.0654668e-09
9.7943451e-14
2.5642613e-09
1.1741723e-13
2.7143442e-09
1.2135706e-13
2.7495536e-09
1.1261334e-13
2.7563555e-09
9.7045232e-14
2.7574924e-09
7.9184403e-14
2.7576718e-09
6.1555608e-14
2.7577067e-09
4.5424411e-14
2.757718e-09
3.1975627e-14
2.7577224e-09
2.0996495e-14
2.7577207e-09
1.2099779e-14
2.7577e-09
4.3073267e-15
2.7575445e-09
-2.3996597e-15
2.7564466e-09
-7.5836043e-15
2.7496972e-09
-1.0727646e-14
2.7145399e-09
-1.0607234e-14
2.5644844e-09
-6.6884269e-15
2.0656609e-09
8.762009e-10
4.7625126e-14
8.7609515e-10
9.6067466e-14
2.065416e-09
1.3930078e-13
2.5642087e-09
1.6517061e-13
2.7143092e-09
1.6637258e-13
2.7495448e-09
1.4860621e-13
2.7563661e-09
1.2265841e-13
2.7575095e-09
9.6311613e-14
2.7576873e-09
7.1938594e-14
2.7577166e-09
5.1012156e-14
2.7577225e-09
3.4117379e-14
2.7577229e-09
2.1636216e-14
2.757719e-09
1.2565791e-14
2.7576975e-09
5.0854693e-15
2.7575401e-09
-1.7035672e-15
2.7564399e-09
-7.7128434e-15
2.7496886e-09
-1.1899001e-14
2.7145297e-09
-1.2385094e-14
2.564471e-09
-8.0475751e-15
2.0656454e-09
8.7619203e-10
6.3249767e-14
8.7605262e-10
1.2993965e-13
2.0653314e-09
1.9089286e-13
2.5641282e-09
2.2518022e-13
2.7142608e-09
2.2113465e-13
2.7495407e-09
1.8844946e-13
2.7563908e-09
1.4713665e-13
2.7575398e-09
1.089399e-13
2.7577088e-09
7.7191092e-14
2.7577255e-09
5.1958578e-14
2.7577223e-09
3.3071174e-14
2.7577178e-09
1.9975411e-14
2.757712e-09
1.1133466e-14
2.7576903e-09
4.1363409e-15
2.7575301e-09
-2.5909285e-15
2.7564271e-09
-9.5730986e-15
2.749673e-09
-1.5564909e-14
2.714509e-09
-1.7439361e-14
2.5644403e-09
-1.2051448e-14
2.0656039e-09
8.7616616e-10
7.5687693e-14
8.7595153e-10
1.6006516e-13
2.0651571e-09
2.3991905e-13
2.5639825e-09
2.8468368e-13
2.7141875e-09
2.739163e-13
2.7495424e-09
2.23725e-13
2.7564454e-09
1.6371511e-13
2.757601e-09
1.1332898e-13
2.7577531e-09
7.5954739e-14
2.7577465e-09
4.8848364e-14
2.7577296e-09
2.9905905e-14
2.7577189e-09
1.7348991e-14
2.7577125e-09
8.9782346e-15
2.7576959e-09
2.4837277e-15
2.7575287e-09
-4.2929811e-15
2.7564186e-09
-1.2787604e-14
2.7496572e-09
-2.1803223e-14
2.7144799e-09
-2.6541739e-14
2.5643773e-09
-1.9623566e-14
2.0654979e-09
8.7609358e-10
7.8503663e-14
8.757745e-10
1.70875e-13
2.0648464e-09
2.6222255e-13
2.5637501e-09
3.127509e-13
2.7140804e-09
2.9937568e-13
2.749548e-09
2.368927e-13
2.7565143e-09
1.6495484e-13
2.7576881e-09
1.0763922e-13
2.7578203e-09
6.8835509e-14
2.7577913e-09
4.316193e-14
2.7577563e-09
2.6361325e-14
2.7577381e-09
1.5379196e-14
2.7577369e-09
7.6324071e-15
2.7577167e-09
1.4080014e-15
2.7575498e-09
-5.3595137e-15
2.756427e-09
-1.5145245e-14
2.7496507e-09
-2.7505808e-14
2.7144351e-09
-3.5907397e-14
2.5642455e-09
-2.7941866e-14
2.0652826e-09
8.7594882e-10
7.3346308e-14
1.626553e-13
2.5335443e-13
3.0352965e-13
2.9175155e-13
2.277875e-13
1.5395447e-13
9.6943507e-14
6.0044388e-14
3.7076362e-14
2.3077262e-14
1.4010823e-14
7.101355e-15
1.2100308e-15
-5.196507e-15
-1.5079142e-14
-2.875067e-14
-3.9110744e-14
-3.1281042e-14
)
;

boundaryField
{
    Wall
    {
        type            calculated;
        value           uniform 0;
    }
    frontAndBack
    {
        type            empty;
        value           nonuniform 0();
    }
    atmosphere
    {
        type            calculated;
        value           nonuniform List<scalar> 
20
(
8.756558e-10
2.0647046e-09
2.5636001e-09
2.7140121e-09
2.7495355e-09
2.7566033e-09
2.75779e-09
2.7579109e-09
2.7578073e-09
2.7577468e-09
2.7577364e-09
2.7577413e-09
2.7577839e-09
2.7575635e-09
2.7564254e-09
2.7496281e-09
2.7143988e-09
2.5642109e-09
2.065209e-09
8.7590606e-10
)
;
    }
}


// ************************************************************************* //
