/*--------------------------------*- C++ -*----------------------------------*\
| =========                 |                                                 |
| \\      /  F ield         | OpenFOAM: The Open Source CFD Toolbox           |
|  \\    /   O peration     | Version:  3.0.1                                 |
|   \\  /    A nd           | Web:      www.OpenFOAM.org                      |
|    \\/     M anipulation  |                                                 |
\*---------------------------------------------------------------------------*/
FoamFile
{
    version     2.0;
    format      ascii;
    class       volScalarField;
    location    "3";
    object      thermalDiff_foam;
}
// * * * * * * * * * * * * * * * * * * * * * * * * * * * * * * * * * * * * * //

dimensions      [0 2 -1 0 0 0 0];

internalField   nonuniform List<scalar> 
800
(
1.0590379e-07
1.0590379e-07
1.0590379e-07
1.0590379e-07
1.0590379e-07
1.0590379e-07
1.0590379e-07
1.0590379e-07
1.0590379e-07
1.0590379e-07
1.0590379e-07
1.0590379e-07
1.0590379e-07
1.0590379e-07
1.0590379e-07
1.0590379e-07
1.0590379e-07
1.0590379e-07
1.0590379e-07
1.0590379e-07
1.0590379e-07
1.0590379e-07
1.0590379e-07
1.0590379e-07
1.0590379e-07
1.0590379e-07
1.0590379e-07
1.0590379e-07
1.0590379e-07
1.0590379e-07
1.0590379e-07
1.0590379e-07
1.0590379e-07
1.0590379e-07
1.0590379e-07
1.0590379e-07
1.0590379e-07
1.0590379e-07
1.0590379e-07
1.0590379e-07
0.00022839608
0.00022839611
0.00022839614
0.00022839617
0.0002283962
0.00022839623
0.00022839624
0.00022839626
0.00022839626
0.00022839627
0.00022839627
0.00022839626
0.00022839626
0.00022839624
0.00022839623
0.0002283962
0.00022839617
0.00022839614
0.00022839611
0.00022839608
0.00022825147
0.00022825151
0.00022825155
0.00022825159
0.00022825163
0.00022825165
0.00022825167
0.00022825168
0.00022825169
0.00022825169
0.00022825169
0.00022825169
0.00022825168
0.00022825167
0.00022825165
0.00022825163
0.00022825159
0.00022825155
0.00022825151
0.00022825147
0.00022811893
0.00022811898
0.00022811904
0.00022811908
0.00022811912
0.00022811915
0.00022811917
0.00022811918
0.00022811919
0.00022811919
0.00022811919
0.00022811919
0.00022811918
0.00022811917
0.00022811915
0.00022811912
0.00022811908
0.00022811904
0.00022811898
0.00022811893
0.00022799852
0.00022799858
0.00022799864
0.00022799869
0.00022799873
0.00022799876
0.00022799878
0.00022799879
0.0002279988
0.00022799881
0.00022799881
0.0002279988
0.00022799879
0.00022799878
0.00022799876
0.00022799873
0.00022799869
0.00022799864
0.00022799858
0.00022799852
0.00022789023
0.00022789029
0.00022789035
0.00022789041
0.00022789045
0.00022789048
0.0002278905
0.00022789051
0.00022789052
0.00022789053
0.00022789053
0.00022789052
0.00022789051
0.0002278905
0.00022789048
0.00022789045
0.00022789041
0.00022789035
0.00022789029
0.00022789023
0.00022779396
0.00022779401
0.00022779407
0.00022779412
0.00022779416
0.00022779419
0.00022779421
0.00022779423
0.00022779424
0.00022779424
0.00022779424
0.00022779424
0.00022779423
0.00022779421
0.00022779419
0.00022779416
0.00022779412
0.00022779407
0.00022779401
0.00022779396
0.00022770942
0.00022770947
0.00022770952
0.00022770957
0.00022770961
0.00022770963
0.00022770965
0.00022770967
0.00022770968
0.00022770968
0.00022770968
0.00022770968
0.00022770967
0.00022770965
0.00022770963
0.00022770961
0.00022770957
0.00022770952
0.00022770947
0.00022770942
0.00022763617
0.00022763622
0.00022763627
0.00022763631
0.00022763634
0.00022763637
0.00022763639
0.0002276364
0.00022763641
0.00022763641
0.00022763641
0.00022763641
0.0002276364
0.00022763639
0.00022763637
0.00022763634
0.00022763631
0.00022763627
0.00022763622
0.00022763617
0.00022757361
0.00022757365
0.00022757369
0.00022757373
0.00022757376
0.00022757378
0.0002275738
0.00022757381
0.00022757382
0.00022757382
0.00022757382
0.00022757382
0.00022757381
0.0002275738
0.00022757378
0.00022757376
0.00022757373
0.00022757369
0.00022757365
0.00022757361
0.00022752096
0.00022752099
0.00022752103
0.00022752106
0.00022752109
0.00022752111
0.00022752112
0.00022752113
0.00022752113
0.00022752114
0.00022752114
0.00022752113
0.00022752113
0.00022752112
0.00022752111
0.00022752109
0.00022752106
0.00022752103
0.00022752099
0.00022752096
0.00022747732
0.00022747735
0.00022747738
0.00022747741
0.00022747743
0.00022747745
0.00022747746
0.00022747747
0.00022747747
0.00022747747
0.00022747747
0.00022747747
0.00022747747
0.00022747746
0.00022747745
0.00022747743
0.00022747741
0.00022747738
0.00022747735
0.00022747732
0.00022744172
0.00022744174
0.00022744177
0.00022744179
0.00022744181
0.00022744182
0.00022744183
0.00022744184
0.00022744184
0.00022744185
0.00022744185
0.00022744184
0.00022744184
0.00022744183
0.00022744182
0.00022744181
0.00022744179
0.00022744177
0.00022744174
0.00022744172
0.00022741313
0.00022741315
0.00022741317
0.00022741319
0.0002274132
0.00022741322
0.00022741322
0.00022741323
0.00022741323
0.00022741323
0.00022741323
0.00022741323
0.00022741323
0.00022741322
0.00022741322
0.0002274132
0.00022741319
0.00022741317
0.00022741315
0.00022741313
0.00022739055
0.00022739056
0.00022739058
0.00022739059
0.0002273906
0.00022739061
0.00022739062
0.00022739062
0.00022739062
0.00022739063
0.00022739063
0.00022739062
0.00022739062
0.00022739062
0.00022739061
0.0002273906
0.00022739059
0.00022739058
0.00022739056
0.00022739055
0.00022737298
0.00022737299
0.00022737301
0.00022737302
0.00022737303
0.00022737303
0.00022737304
0.00022737304
0.00022737305
0.00022737305
0.00022737305
0.00022737305
0.00022737304
0.00022737304
0.00022737303
0.00022737303
0.00022737302
0.00022737301
0.00022737299
0.00022737298
0.00022735955
0.00022735956
0.00022735957
0.00022735957
0.00022735958
0.00022735959
0.00022735959
0.00022735959
0.0002273596
0.0002273596
0.0002273596
0.0002273596
0.00022735959
0.00022735959
0.00022735959
0.00022735958
0.00022735957
0.00022735957
0.00022735956
0.00022735955
0.00022734943
0.00022734944
0.00022734945
0.00022734945
0.00022734946
0.00022734946
0.00022734947
0.00022734947
0.00022734947
0.00022734947
0.00022734947
0.00022734947
0.00022734947
0.00022734947
0.00022734946
0.00022734946
0.00022734945
0.00022734945
0.00022734944
0.00022734943
0.00022734194
0.00022734194
0.00022734195
0.00022734195
0.00022734196
0.00022734196
0.00022734196
0.00022734196
0.00022734197
0.00022734197
0.00022734197
0.00022734197
0.00022734196
0.00022734196
0.00022734196
0.00022734196
0.00022734195
0.00022734195
0.00022734194
0.00022734194
0.00022733647
0.00022733648
0.00022733648
0.00022733648
0.00022733649
0.00022733649
0.00022733649
0.00022733649
0.00022733649
0.00022733649
0.00022733649
0.00022733649
0.00022733649
0.00022733649
0.00022733649
0.00022733649
0.00022733648
0.00022733648
0.00022733648
0.00022733647
0.00022733255
0.00022733255
0.00022733255
0.00022733256
0.00022733256
0.00022733256
0.00022733256
0.00022733256
0.00022733256
0.00022733256
0.00022733256
0.00022733256
0.00022733256
0.00022733256
0.00022733256
0.00022733256
0.00022733256
0.00022733255
0.00022733255
0.00022733255
0.00022732977
0.00022732977
0.00022732978
0.00022732978
0.00022732978
0.00022732978
0.00022732978
0.00022732978
0.00022732978
0.00022732978
0.00022732978
0.00022732978
0.00022732978
0.00022732978
0.00022732978
0.00022732978
0.00022732978
0.00022732978
0.00022732977
0.00022732977
0.00022732784
0.00022732784
0.00022732784
0.00022732784
0.00022732785
0.00022732785
0.00022732785
0.00022732785
0.00022732785
0.00022732785
0.00022732785
0.00022732785
0.00022732785
0.00022732785
0.00022732785
0.00022732785
0.00022732784
0.00022732784
0.00022732784
0.00022732784
0.00022732651
0.00022732651
0.00022732652
0.00022732652
0.00022732652
0.00022732652
0.00022732652
0.00022732652
0.00022732652
0.00022732652
0.00022732652
0.00022732652
0.00022732652
0.00022732652
0.00022732652
0.00022732652
0.00022732652
0.00022732652
0.00022732651
0.00022732651
0.00022732562
0.00022732562
0.00022732562
0.00022732562
0.00022732562
0.00022732562
0.00022732562
0.00022732562
0.00022732562
0.00022732562
0.00022732562
0.00022732562
0.00022732562
0.00022732562
0.00022732562
0.00022732562
0.00022732562
0.00022732562
0.00022732562
0.00022732562
0.00022732502
0.00022732502
0.00022732502
0.00022732502
0.00022732502
0.00022732502
0.00022732502
0.00022732502
0.00022732502
0.00022732502
0.00022732502
0.00022732502
0.00022732502
0.00022732502
0.00022732502
0.00022732502
0.00022732502
0.00022732502
0.00022732502
0.00022732502
0.00022732463
0.00022732463
0.00022732463
0.00022732463
0.00022732463
0.00022732463
0.00022732463
0.00022732463
0.00022732463
0.00022732463
0.00022732463
0.00022732463
0.00022732463
0.00022732463
0.00022732463
0.00022732463
0.00022732463
0.00022732463
0.00022732463
0.00022732463
0.00022732437
0.00022732437
0.00022732437
0.00022732437
0.00022732437
0.00022732437
0.00022732437
0.00022732437
0.00022732437
0.00022732437
0.00022732437
0.00022732437
0.00022732437
0.00022732437
0.00022732437
0.00022732437
0.00022732437
0.00022732437
0.00022732437
0.00022732437
0.00022732421
0.00022732421
0.00022732421
0.00022732421
0.00022732421
0.00022732421
0.00022732421
0.00022732421
0.00022732421
0.00022732421
0.00022732421
0.00022732421
0.00022732421
0.00022732421
0.00022732421
0.00022732421
0.00022732421
0.00022732421
0.00022732421
0.00022732421
0.00022732411
0.00022732411
0.00022732411
0.00022732411
0.00022732411
0.00022732411
0.00022732411
0.00022732411
0.00022732411
0.00022732411
0.00022732411
0.00022732411
0.00022732411
0.00022732411
0.00022732411
0.00022732411
0.00022732411
0.00022732411
0.00022732411
0.00022732411
0.00022732404
0.00022732404
0.00022732404
0.00022732404
0.00022732404
0.00022732404
0.00022732404
0.00022732404
0.00022732404
0.00022732404
0.00022732404
0.00022732404
0.00022732404
0.00022732404
0.00022732404
0.00022732404
0.00022732404
0.00022732404
0.00022732404
0.00022732404
0.000227324
0.000227324
0.000227324
0.000227324
0.000227324
0.000227324
0.000227324
0.000227324
0.000227324
0.000227324
0.000227324
0.000227324
0.000227324
0.000227324
0.000227324
0.000227324
0.000227324
0.000227324
0.000227324
0.000227324
0.00022732398
0.00022732398
0.00022732398
0.00022732398
0.00022732398
0.00022732398
0.00022732398
0.00022732398
0.00022732398
0.00022732398
0.00022732398
0.00022732398
0.00022732398
0.00022732398
0.00022732398
0.00022732398
0.00022732398
0.00022732398
0.00022732398
0.00022732398
0.00022732396
0.00022732396
0.00022732396
0.00022732396
0.00022732396
0.00022732396
0.00022732396
0.00022732396
0.00022732396
0.00022732396
0.00022732396
0.00022732396
0.00022732396
0.00022732396
0.00022732396
0.00022732396
0.00022732396
0.00022732396
0.00022732396
0.00022732396
0.00022732396
0.00022732396
0.00022732396
0.00022732396
0.00022732396
0.00022732396
0.00022732396
0.00022732396
0.00022732396
0.00022732396
0.00022732396
0.00022732396
0.00022732396
0.00022732396
0.00022732396
0.00022732396
0.00022732396
0.00022732396
0.00022732396
0.00022732396
0.00022732395
0.00022732395
0.00022732395
0.00022732395
0.00022732395
0.00022732395
0.00022732395
0.00022732395
0.00022732395
0.00022732395
0.00022732395
0.00022732395
0.00022732395
0.00022732395
0.00022732395
0.00022732395
0.00022732395
0.00022732395
0.00022732395
0.00022732395
0.00022732395
0.00022732395
0.00022732395
0.00022732395
0.00022732395
0.00022732395
0.00022732395
0.00022732395
0.00022732395
0.00022732395
0.00022732395
0.00022732395
0.00022732395
0.00022732395
0.00022732395
0.00022732395
0.00022732395
0.00022732395
0.00022732395
0.00022732395
0.00022732395
0.00022732395
0.00022732395
0.00022732395
0.00022732395
0.00022732395
0.00022732395
0.00022732395
0.00022732395
0.00022732395
0.00022732395
0.00022732395
0.00022732395
0.00022732395
0.00022732395
0.00022732395
0.00022732395
0.00022732395
0.00022732395
0.00022732395
0.00022732395
0.00022732395
0.00022732395
0.00022732395
0.00022732395
0.00022732395
0.00022732395
0.00022732395
0.00022732395
0.00022732395
0.00022732395
0.00022732395
0.00022732395
0.00022732395
0.00022732395
0.00022732395
0.00022732395
0.00022732395
0.00022732395
0.00022732395
)
;

boundaryField
{
    Wall
    {
        type            calculated;
        value           uniform 4e-05;
    }
    frontAndBack
    {
        type            empty;
    }
    atmosphere
    {
        type            calculated;
        value           uniform 4e-05;
    }
}


// ************************************************************************* //
