/*--------------------------------*- C++ -*----------------------------------*\
| =========                 |                                                 |
| \\      /  F ield         | OpenFOAM: The Open Source CFD Toolbox           |
|  \\    /   O peration     | Version:  3.0.1                                 |
|   \\  /    A nd           | Web:      www.OpenFOAM.org                      |
|    \\/     M anipulation  |                                                 |
\*---------------------------------------------------------------------------*/
FoamFile
{
    version     2.0;
    format      ascii;
    class       volScalarField;
    location    "3";
    object      TS;
}
// * * * * * * * * * * * * * * * * * * * * * * * * * * * * * * * * * * * * * //

dimensions      [0 0 0 1 0 0 0];

internalField   nonuniform List<scalar> 
800
(
303.35169
303.35169
303.35169
303.35169
303.35169
303.35169
303.35169
303.35169
303.35169
303.35169
303.35169
303.35169
303.35169
303.35169
303.35169
303.35169
303.35169
303.35169
303.35169
303.35169
298.92244
298.92247
298.92249
298.92251
298.92253
298.92254
298.92255
298.92256
298.92257
298.92257
298.92257
298.92257
298.92256
298.92255
298.92254
298.92253
298.92251
298.92249
298.92247
298.92244
298.71492
298.71494
298.71496
298.71498
298.715
298.71502
298.71503
298.71504
298.71504
298.71505
298.71505
298.71504
298.71504
298.71503
298.71502
298.715
298.71498
298.71496
298.71494
298.71492
298.61902
298.61905
298.61908
298.6191
298.61912
298.61914
298.61915
298.61916
298.61917
298.61917
298.61917
298.61917
298.61916
298.61915
298.61914
298.61912
298.6191
298.61908
298.61905
298.61902
298.53111
298.53114
298.53118
298.53121
298.53123
298.53125
298.53127
298.53128
298.53128
298.53128
298.53128
298.53128
298.53128
298.53127
298.53125
298.53123
298.53121
298.53118
298.53114
298.53111
298.45121
298.45125
298.45129
298.45132
298.45135
298.45137
298.45138
298.45139
298.4514
298.4514
298.4514
298.4514
298.45139
298.45138
298.45137
298.45135
298.45132
298.45129
298.45125
298.45121
298.37931
298.37935
298.3794
298.37943
298.37946
298.37948
298.37949
298.3795
298.37951
298.37951
298.37951
298.37951
298.3795
298.37949
298.37948
298.37946
298.37943
298.3794
298.37935
298.37931
298.31534
298.31538
298.31542
298.31545
298.31548
298.3155
298.31551
298.31552
298.31553
298.31553
298.31553
298.31553
298.31552
298.31551
298.3155
298.31548
298.31545
298.31542
298.31538
298.31534
298.25911
298.25914
298.25918
298.25921
298.25924
298.25925
298.25927
298.25928
298.25928
298.25928
298.25928
298.25928
298.25928
298.25927
298.25925
298.25924
298.25921
298.25918
298.25914
298.25911
298.21032
298.21035
298.21038
298.21041
298.21043
298.21045
298.21046
298.21047
298.21048
298.21048
298.21048
298.21048
298.21047
298.21046
298.21045
298.21043
298.21041
298.21038
298.21035
298.21032
298.16857
298.1686
298.16863
298.16866
298.16868
298.16869
298.1687
298.16871
298.16871
298.16872
298.16872
298.16871
298.16871
298.1687
298.16869
298.16868
298.16866
298.16863
298.1686
298.16857
298.13337
298.13339
298.13342
298.13344
298.13346
298.13347
298.13348
298.13349
298.13349
298.13349
298.13349
298.13349
298.13349
298.13348
298.13347
298.13346
298.13344
298.13342
298.13339
298.13337
298.10413
298.10415
298.10417
298.10419
298.1042
298.10421
298.10422
298.10423
298.10423
298.10423
298.10423
298.10423
298.10423
298.10422
298.10421
298.1042
298.10419
298.10417
298.10415
298.10413
298.08021
298.08022
298.08024
298.08025
298.08027
298.08028
298.08028
298.08029
298.08029
298.08029
298.08029
298.08029
298.08029
298.08028
298.08028
298.08027
298.08025
298.08024
298.08022
298.08021
298.06094
298.06095
298.06097
298.06098
298.06099
298.061
298.061
298.06101
298.06101
298.06101
298.06101
298.06101
298.06101
298.061
298.061
298.06099
298.06098
298.06097
298.06095
298.06094
298.04567
298.04568
298.04569
298.0457
298.04571
298.04572
298.04572
298.04572
298.04572
298.04573
298.04573
298.04572
298.04572
298.04572
298.04572
298.04571
298.0457
298.04569
298.04568
298.04567
298.03376
298.03376
298.03377
298.03378
298.03379
298.03379
298.03379
298.0338
298.0338
298.0338
298.0338
298.0338
298.0338
298.03379
298.03379
298.03379
298.03378
298.03377
298.03376
298.03376
298.02461
298.02461
298.02462
298.02462
298.02463
298.02463
298.02464
298.02464
298.02464
298.02464
298.02464
298.02464
298.02464
298.02464
298.02463
298.02463
298.02462
298.02462
298.02461
298.02461
298.01769
298.01769
298.0177
298.0177
298.01771
298.01771
298.01771
298.01771
298.01771
298.01771
298.01771
298.01771
298.01771
298.01771
298.01771
298.01771
298.0177
298.0177
298.01769
298.01769
298.01254
298.01255
298.01255
298.01255
298.01256
298.01256
298.01256
298.01256
298.01256
298.01256
298.01256
298.01256
298.01256
298.01256
298.01256
298.01256
298.01255
298.01255
298.01255
298.01254
298.00877
298.00878
298.00878
298.00878
298.00878
298.00878
298.00879
298.00879
298.00879
298.00879
298.00879
298.00879
298.00879
298.00879
298.00878
298.00878
298.00878
298.00878
298.00878
298.00877
298.00605
298.00606
298.00606
298.00606
298.00606
298.00606
298.00606
298.00606
298.00606
298.00606
298.00606
298.00606
298.00606
298.00606
298.00606
298.00606
298.00606
298.00606
298.00606
298.00605
298.00412
298.00412
298.00412
298.00413
298.00413
298.00413
298.00413
298.00413
298.00413
298.00413
298.00413
298.00413
298.00413
298.00413
298.00413
298.00413
298.00413
298.00412
298.00412
298.00412
298.00277
298.00277
298.00277
298.00277
298.00277
298.00277
298.00277
298.00277
298.00277
298.00277
298.00277
298.00277
298.00277
298.00277
298.00277
298.00277
298.00277
298.00277
298.00277
298.00277
298.00184
298.00184
298.00184
298.00184
298.00184
298.00184
298.00184
298.00184
298.00184
298.00184
298.00184
298.00184
298.00184
298.00184
298.00184
298.00184
298.00184
298.00184
298.00184
298.00184
298.0012
298.0012
298.0012
298.0012
298.0012
298.0012
298.0012
298.0012
298.0012
298.0012
298.0012
298.0012
298.0012
298.0012
298.0012
298.0012
298.0012
298.0012
298.0012
298.0012
298.00078
298.00078
298.00078
298.00078
298.00078
298.00078
298.00078
298.00078
298.00078
298.00078
298.00078
298.00078
298.00078
298.00078
298.00078
298.00078
298.00078
298.00078
298.00078
298.00078
298.0005
298.0005
298.0005
298.0005
298.0005
298.0005
298.0005
298.0005
298.0005
298.0005
298.0005
298.0005
298.0005
298.0005
298.0005
298.0005
298.0005
298.0005
298.0005
298.0005
298.00031
298.00031
298.00031
298.00031
298.00031
298.00031
298.00031
298.00031
298.00031
298.00031
298.00031
298.00031
298.00031
298.00031
298.00031
298.00031
298.00031
298.00031
298.00031
298.00031
298.00019
298.00019
298.00019
298.00019
298.00019
298.00019
298.00019
298.00019
298.00019
298.00019
298.00019
298.00019
298.00019
298.00019
298.00019
298.00019
298.00019
298.00019
298.00019
298.00019
298.00012
298.00012
298.00012
298.00012
298.00012
298.00012
298.00012
298.00012
298.00012
298.00012
298.00012
298.00012
298.00012
298.00012
298.00012
298.00012
298.00012
298.00012
298.00012
298.00012
298.00007
298.00007
298.00007
298.00007
298.00007
298.00007
298.00007
298.00007
298.00007
298.00007
298.00007
298.00007
298.00007
298.00007
298.00007
298.00007
298.00007
298.00007
298.00007
298.00007
298.00004
298.00004
298.00004
298.00004
298.00004
298.00004
298.00004
298.00004
298.00004
298.00004
298.00004
298.00004
298.00004
298.00004
298.00004
298.00004
298.00004
298.00004
298.00004
298.00004
298.00003
298.00003
298.00003
298.00003
298.00003
298.00003
298.00003
298.00003
298.00003
298.00003
298.00003
298.00003
298.00003
298.00003
298.00003
298.00003
298.00003
298.00003
298.00003
298.00003
298.00002
298.00002
298.00002
298.00002
298.00002
298.00002
298.00002
298.00002
298.00002
298.00002
298.00002
298.00002
298.00002
298.00002
298.00002
298.00002
298.00002
298.00002
298.00002
298.00002
298.00001
298.00001
298.00001
298.00001
298.00001
298.00001
298.00001
298.00001
298.00001
298.00001
298.00001
298.00001
298.00001
298.00001
298.00001
298.00001
298.00001
298.00001
298.00001
298.00001
298.00001
298.00001
298.00001
298.00001
298.00001
298.00001
298.00001
298.00001
298.00001
298.00001
298.00001
298.00001
298.00001
298.00001
298.00001
298.00001
298.00001
298.00001
298.00001
298.00001
298
298
298
298
298
298
298
298
298
298
298
298
298
298
298
298
298
298
298
298
298
298
298
298
298
298
298
298
298
298
298
298
298
298
298
298
298
298
298
298
298
298
298
298
298
298
298
298
298
298
298
298
298
298
298
298
298
298
298
298
)
;

boundaryField
{
    Wall
    {
        type            zeroGradient;
    }
    frontAndBack
    {
        type            empty;
    }
    atmosphere
    {
        type            zeroGradient;
    }
}


// ************************************************************************* //
