/*--------------------------------*- C++ -*----------------------------------*\
| =========                 |                                                 |
| \\      /  F ield         | OpenFOAM: The Open Source CFD Toolbox           |
|  \\    /   O peration     | Version:  3.0.1                                 |
|   \\  /    A nd           | Web:      www.OpenFOAM.org                      |
|    \\/     M anipulation  |                                                 |
\*---------------------------------------------------------------------------*/
FoamFile
{
    version     2.0;
    format      ascii;
    class       volVectorField;
    location    "3";
    object      U;
}
// * * * * * * * * * * * * * * * * * * * * * * * * * * * * * * * * * * * * * //

dimensions      [0 1 -1 0 0 0 0];

internalField   nonuniform List<vector> 
800
(
(-2.9160169e-09 1.3733549e-05 0)
(-3.4875193e-09 1.3766069e-05 0)
(-1.3821235e-09 1.3769346e-05 0)
(-3.5682043e-10 1.3770019e-05 0)
(-3.9953273e-12 1.377024e-05 0)
(9.3084307e-11 1.3770316e-05 0)
(1.007546e-10 1.3770342e-05 0)
(7.9107729e-11 1.377035e-05 0)
(4.8886696e-11 1.3770352e-05 0)
(1.666522e-11 1.3770353e-05 0)
(-1.5574968e-11 1.3770353e-05 0)
(-4.7477273e-11 1.3770353e-05 0)
(-7.7670058e-11 1.377035e-05 0)
(-9.9295547e-11 1.3770342e-05 0)
(-9.1594993e-11 1.3770316e-05 0)
(5.4613545e-12 1.377024e-05 0)
(3.5831434e-10 1.3770019e-05 0)
(1.3831896e-09 1.3769346e-05 0)
(3.4879237e-09 1.3766069e-05 0)
(2.9161004e-09 1.3733549e-05 0)
(2.2060507e-09 1.3931162e-05 0)
(2.4792995e-09 1.3994139e-05 0)
(1.0127566e-09 1.400157e-05 0)
(6.5426057e-10 1.4002796e-05 0)
(4.8299908e-10 1.4003072e-05 0)
(3.5819207e-10 1.4003142e-05 0)
(2.5894133e-10 1.4003159e-05 0)
(1.7562345e-10 1.4003161e-05 0)
(1.0219464e-10 1.4003159e-05 0)
(3.4029746e-11 1.4003158e-05 0)
(-3.2386334e-11 1.4003158e-05 0)
(-1.0040654e-10 1.4003159e-05 0)
(-1.7387429e-10 1.4003161e-05 0)
(-2.5707406e-10 1.4003159e-05 0)
(-3.5653066e-10 1.4003142e-05 0)
(-4.811822e-10 1.4003072e-05 0)
(-6.5226376e-10 1.4002796e-05 0)
(-1.0110021e-09 1.400157e-05 0)
(-2.4775971e-09 1.3994138e-05 0)
(-2.2049418e-09 1.3931161e-05 0)
(2.958424e-09 1.3526094e-05 0)
(4.3994746e-09 1.4292292e-05 0)
(3.1815414e-09 1.4402557e-05 0)
(2.604024e-09 1.4428371e-05 0)
(2.0735099e-09 1.4433397e-05 0)
(1.5898692e-09 1.4434085e-05 0)
(1.1694914e-09 1.4434069e-05 0)
(8.0166869e-10 1.4433991e-05 0)
(4.7008114e-10 1.4433938e-05 0)
(1.587549e-10 1.4433913e-05 0)
(-1.4621984e-10 1.4433913e-05 0)
(-4.5766047e-10 1.4433939e-05 0)
(-7.8968396e-10 1.4433992e-05 0)
(-1.1581059e-09 1.443407e-05 0)
(-1.5797313e-09 1.4434085e-05 0)
(-2.0641858e-09 1.4433396e-05 0)
(-2.5955124e-09 1.4428367e-05 0)
(-3.1746864e-09 1.4402552e-05 0)
(-4.3944722e-09 1.4292286e-05 0)
(-2.956141e-09 1.3526091e-05 0)
(3.8078993e-08 1.3897112e-05 0)
(9.3484854e-08 2.9434501e-05 0)
(1.1109285e-07 3.5461442e-05 0)
(1.0350751e-07 3.7185871e-05 0)
(8.6188746e-08 3.7563928e-05 0)
(6.7493232e-08 3.7624254e-05 0)
(5.019134e-08 3.7626918e-05 0)
(3.4618166e-08 3.7622947e-05 0)
(2.0375325e-08 3.7619965e-05 0)
(6.9128536e-09 3.7618558e-05 0)
(-6.3049511e-09 3.7618571e-05 0)
(-1.9781179e-08 3.7619994e-05 0)
(-3.4048643e-08 3.7622979e-05 0)
(-4.9664102e-08 3.7626934e-05 0)
(-6.7023139e-08 3.7624226e-05 0)
(-8.5774901e-08 3.7563829e-05 0)
(-1.0315308e-07 3.71857e-05 0)
(-1.1081757e-07 3.5461213e-05 0)
(-9.330879e-08 2.9434265e-05 0)
(-3.8016503e-08 1.3896997e-05 0)
(4.5277476e-08 1.627775e-05 0)
(1.1432836e-07 3.7728055e-05 0)
(1.4132794e-07 4.6520874e-05 0)
(1.3687055e-07 4.910027e-05 0)
(1.1781509e-07 4.967418e-05 0)
(9.4638768e-08 4.9766332e-05 0)
(7.1653235e-08 4.9769811e-05 0)
(5.0012975e-08 4.9763001e-05 0)
(2.9656594e-08 4.9757873e-05 0)
(1.0118035e-08 4.9755417e-05 0)
(-9.1608748e-09 4.9755434e-05 0)
(-2.8725078e-08 4.975791e-05 0)
(-4.912924e-08 4.9763044e-05 0)
(-7.0850445e-08 4.9769833e-05 0)
(-9.3937864e-08 4.976629e-05 0)
(-1.1721343e-07 4.9674029e-05 0)
(-1.3637079e-07 4.9100005e-05 0)
(-1.4095269e-07 4.6520512e-05 0)
(-1.1409929e-07 3.772768e-05 0)
(-4.5199576e-08 1.6277566e-05 0)
(3.5634112e-08 1.7259929e-05 0)
(9.2661084e-08 4.0554728e-05 0)
(1.198346e-07 5.0247962e-05 0)
(1.2174311e-07 5.3122376e-05 0)
(1.0935258e-07 5.376872e-05 0)
(9.0864173e-08 5.3873941e-05 0)
(7.0522105e-08 5.3878021e-05 0)
(5.0066593e-08 5.3869931e-05 0)
(3.0017288e-08 5.3863689e-05 0)
(1.0339081e-08 5.3860638e-05 0)
(-9.2211159e-09 5.3860652e-05 0)
(-2.8942427e-08 5.3863717e-05 0)
(-4.9066338e-08 5.3869965e-05 0)
(-6.964168e-08 5.387804e-05 0)
(-9.0130419e-08 5.3873908e-05 0)
(-1.0876007e-07 5.3768582e-05 0)
(-1.2128755e-07 5.3122112e-05 0)
(-1.1952614e-07 5.0247587e-05 0)
(-9.2497943e-08 4.0554336e-05 0)
(-3.5585379e-08 1.7259737e-05 0)
(2.4036587e-08 1.7502564e-05 0)
(6.434237e-08 4.1228659e-05 0)
(8.7093865e-08 5.114579e-05 0)
(9.2938273e-08 5.410203e-05 0)
(8.72773e-08 5.477278e-05 0)
(7.5201571e-08 5.4884563e-05 0)
(5.9990606e-08 5.4890185e-05 0)
(4.3426112e-08 5.488223e-05 0)
(2.6382457e-08 5.4875788e-05 0)
(9.2051779e-09 5.4872564e-05 0)
(-8.0160037e-09 5.4872564e-05 0)
(-2.5245048e-08 5.4875786e-05 0)
(-4.2384327e-08 5.4882224e-05 0)
(-5.9097799e-08 5.4890163e-05 0)
(-7.4495793e-08 5.4884514e-05 0)
(-8.6758542e-08 5.4772669e-05 0)
(-9.2591918e-08 5.410183e-05 0)
(-8.6909042e-08 5.1145504e-05 0)
(-6.428469e-08 4.1228365e-05 0)
(-2.4031593e-08 1.7502422e-05 0)
(1.5569839e-08 1.7540921e-05 0)
(4.2728215e-08 4.1341345e-05 0)
(6.0190254e-08 5.1305075e-05 0)
(6.7095993e-08 5.4284118e-05 0)
(6.5595529e-08 5.4965347e-05 0)
(5.8444712e-08 5.508206e-05 0)
(4.7845673e-08 5.5090019e-05 0)
(3.5290441e-08 5.5083126e-05 0)
(2.1722698e-08 5.5077121e-05 0)
(7.6807594e-09 5.5074041e-05 0)
(-6.510697e-09 5.5074023e-05 0)
(-2.0594658e-08 5.5077074e-05 0)
(-3.4258399e-08 5.5083055e-05 0)
(-4.6960835e-08 5.5089922e-05 0)
(-5.7748441e-08 5.5081951e-05 0)
(-6.5106646e-08 5.4965231e-05 0)
(-6.681174e-08 5.4283989e-05 0)
(-6.0089055e-08 5.1304925e-05 0)
(-4.2748013e-08 4.134121e-05 0)
(-1.5598717e-08 1.754086e-05 0)
(1.0171904e-08 1.7541104e-05 0)
(2.8446829e-08 4.1347892e-05 0)
(4.1337095e-08 5.1321186e-05 0)
(4.7718598e-08 5.4308844e-05 0)
(4.8217064e-08 5.4996409e-05 0)
(4.4182849e-08 5.5117319e-05 0)
(3.6977748e-08 5.5127868e-05 0)
(2.7722325e-08 5.5122481e-05 0)
(1.7264587e-08 5.5117276e-05 0)
(6.1848168e-09 5.5114534e-05 0)
(-5.0904185e-09 5.5114494e-05 0)
(-1.6194647e-08 5.5117164e-05 0)
(-2.6724772e-08 5.5122315e-05 0)
(-3.6098064e-08 5.5127668e-05 0)
(-4.3464293e-08 5.5117118e-05 0)
(-4.7699087e-08 5.4996246e-05 0)
(-4.7421988e-08 5.4308747e-05 0)
(-4.1242412e-08 5.1321147e-05 0)
(-2.8478727e-08 4.1347899e-05 0)
(-1.0206913e-08 1.754112e-05 0)
(6.8051534e-09 1.7537199e-05 0)
(1.9283198e-08 4.1341082e-05 0)
(2.8652942e-08 5.131693e-05 0)
(3.3941233e-08 5.4309217e-05 0)
(3.5169316e-08 5.5001211e-05 0)
(3.2946704e-08 5.5125575e-05 0)
(2.8072758e-08 5.5138557e-05 0)
(2.1331786e-08 5.5134759e-05 0)
(1.3414915e-08 5.5130491e-05 0)
(4.8618409e-09 5.5128176e-05 0)
(-3.8893214e-09 5.5128116e-05 0)
(-1.2439503e-08 5.5130314e-05 0)
(-2.0379556e-08 5.5134497e-05 0)
(-2.718689e-08 5.5138252e-05 0)
(-3.2176806e-08 5.5125275e-05 0)
(-3.4564543e-08 5.5000966e-05 0)
(-3.3539528e-08 5.4309075e-05 0)
(-2.8452833e-08 5.1316893e-05 0)
(-1.923253e-08 4.1341127e-05 0)
(-6.8084346e-09 1.7537241e-05 0)
(4.6633667e-09 1.7534084e-05 0)
(1.332767e-08 4.1334974e-05 0)
(2.0100673e-08 5.1311852e-05 0)
(2.4236721e-08 5.4307062e-05 0)
(2.5572875e-08 5.5002228e-05 0)
(2.436061e-08 5.5129308e-05 0)
(2.1047811e-08 5.5144371e-05 0)
(1.616501e-08 5.5142035e-05 0)
(1.0248576e-08 5.5138686e-05 0)
(3.7520636e-09 5.5136812e-05 0)
(-2.9257073e-09 5.5136746e-05 0)
(-9.3990896e-09 5.5138488e-05 0)
(-1.5295452e-08 5.5141732e-05 0)
(-2.0186859e-08 5.5144014e-05 0)
(-2.3560443e-08 5.5128946e-05 0)
(-2.4888966e-08 5.50019e-05 0)
(-2.3708777e-08 5.4306816e-05 0)
(-1.9741965e-08 5.1311703e-05 0)
(-1.3133796e-08 4.1334925e-05 0)
(-4.6071341e-09 1.7534087e-05 0)
(3.2483328e-09 1.7531952e-05 0)
(9.3356087e-09 4.1330672e-05 0)
(1.4220291e-08 5.1308095e-05 0)
(1.735988e-08 5.4305263e-05 0)
(1.8562685e-08 5.5002709e-05 0)
(1.7909609e-08 5.5131861e-05 0)
(1.56446e-08 5.5148604e-05 0)
(1.2123863e-08 5.5147511e-05 0)
(7.7469433e-09 5.5144979e-05 0)
(2.8719018e-09 5.5143505e-05 0)
(-2.1616298e-09 5.5143443e-05 0)
(-7.0113952e-09 5.5144789e-05 0)
(-1.1348728e-08 5.5147213e-05 0)
(-1.4836977e-08 5.5148235e-05 0)
(-1.7117985e-08 5.5131453e-05 0)
(-1.7847477e-08 5.5002282e-05 0)
(-1.6759273e-08 5.4304863e-05 0)
(-1.3753953e-08 5.1307761e-05 0)
(-9.0349258e-09 4.1330443e-05 0)
(-3.1454945e-09 1.7531868e-05 0)
(2.2855072e-09 1.753049e-05 0)
(6.5969602e-09 4.1327674e-05 0)
(1.0123037e-08 5.1305408e-05 0)
(1.2469125e-08 5.4303909e-05 0)
(1.346078e-08 5.5002987e-05 0)
(1.3112805e-08 5.5133693e-05 0)
(1.1564932e-08 5.5151743e-05 0)
(9.0447104e-09 5.5151657e-05 0)
(5.8283737e-09 5.5149807e-05 0)
(2.1959995e-09 5.5148675e-05 0)
(-1.5641122e-09 5.5148622e-05 0)
(-5.1694812e-09 5.5149644e-05 0)
(-8.3465628e-09 5.51514e-05 0)
(-1.0837288e-08 5.5151404e-05 0)
(-1.2393771e-08 5.5133271e-05 0)
(-1.2788908e-08 5.5002486e-05 0)
(-1.1868944e-08 5.4303368e-05 0)
(-9.6223722e-09 5.1304884e-05 0)
(-6.2561482e-09 4.1327249e-05 0)
(-2.165482e-09 1.7530307e-05 0)
(1.6157835e-09 1.7529403e-05 0)
(4.6832335e-09 4.1325397e-05 0)
(7.2330033e-09 5.1303268e-05 0)
(8.9737077e-09 5.430267e-05 0)
(9.7588214e-09 5.500291e-05 0)
(9.574833e-09 5.5134766e-05 0)
(8.509062e-09 5.5153817e-05 0)
(6.7110842e-09 5.5154523e-05 0)
(4.3610882e-09 5.515322e-05 0)
(1.6739172e-09 5.5152373e-05 0)
(-1.1085011e-09 5.5152336e-05 0)
(-3.76438e-09 5.5153107e-05 0)
(-6.0839371e-09 5.5154338e-05 0)
(-7.8773953e-09 5.5153547e-05 0)
(-8.9653098e-09 5.5134385e-05 0)
(-9.1866853e-09 5.5002414e-05 0)
(-8.4485314e-09 5.4302086e-05 0)
(-6.7800898e-09 5.1302647e-05 0)
(-4.3736509e-09 4.1324847e-05 0)
(-1.5088993e-09 1.7529152e-05 0)
(1.1447408e-09 1.7528472e-05 0)
(3.3320269e-09 4.1323396e-05 0)
(5.1758102e-09 5.1301256e-05 0)
(6.4600755e-09 5.4301258e-05 0)
(7.0692571e-09 5.5002323e-05 0)
(6.973596e-09 5.5135026e-05 0)
(6.2309593e-09 5.5154838e-05 0)
(4.949356e-09 5.5156156e-05 0)
(3.2453848e-09 5.5155282e-05 0)
(1.2774085e-09 5.5154667e-05 0)
(-7.6151439e-10 5.5154649e-05 0)
(-2.7041949e-09 5.5155222e-05 0)
(-4.3998003e-09 5.5156042e-05 0)
(-5.7044104e-09 5.5154641e-05 0)
(-6.4786034e-09 5.5134717e-05 0)
(-6.6114272e-09 5.5001897e-05 0)
(-6.0494843e-09 5.4300733e-05 0)
(-4.8282679e-09 5.1300668e-05 0)
(-3.104224e-09 4.1322849e-05 0)
(-1.0711207e-09 1.7528216e-05 0)
(8.125197e-10 1.7527598e-05 0)
(2.3729486e-09 4.1321468e-05 0)
(3.7010036e-09 5.129919e-05 0)
(4.6356377e-09 5.4299583e-05 0)
(5.0933805e-09 5.5001243e-05 0)
(5.0479551e-09 5.5134578e-05 0)
(4.5379259e-09 5.5154975e-05 0)
(3.6362063e-09 5.5156764e-05 0)
(2.4179774e-09 5.5156221e-05 0)
(9.9136583e-10 5.5155788e-05 0)
(-5.0040474e-10 5.5155779e-05 0)
(-1.9240708e-09 5.5156191e-05 0)
(-3.1643507e-09 5.5156691e-05 0)
(-4.1106505e-09 5.5154829e-05 0)
(-4.6598766e-09 5.5134347e-05 0)
(-4.7458066e-09 5.5000927e-05 0)
(-4.3411345e-09 5.4299196e-05 0)
(-3.4703875e-09 5.1298749e-05 0)
(-2.2410349e-09 4.1321045e-05 0)
(-7.7731636e-10 1.7527397e-05 0)
(5.7705448e-10 1.7526779e-05 0)
(1.6868952e-09 4.1319621e-05 0)
(2.6377659e-09 5.1297121e-05 0)
(3.3138656e-09 5.4297761e-05 0)
(3.6564473e-09 5.4999857e-05 0)
(3.646623e-09 5.5133675e-05 0)
(3.3026123e-09 5.5154521e-05 0)
(2.6681543e-09 5.5156676e-05 0)
(1.8000178e-09 5.5156387e-05 0)
(7.7229971e-10 5.515608e-05 0)
(-3.1381717e-10 5.5156064e-05 0)
(-1.353457e-09 5.5156345e-05 0)
(-2.2541795e-09 5.5156608e-05 0)
(-2.9305216e-09 5.5154413e-05 0)
(-3.3147777e-09 5.5133524e-05 0)
(-3.3739249e-09 5.4999673e-05 0)
(-3.0985315e-09 5.4297547e-05 0)
(-2.4979419e-09 5.1296872e-05 0)
(-1.6300191e-09 4.1319368e-05 0)
(-5.6991825e-10 1.7526656e-05 0)
(4.0308792e-10 1.7526061e-05 0)
(1.1821617e-09 4.1317976e-05 0)
(1.8670495e-09 5.1295226e-05 0)
(2.373857e-09 5.4296013e-05 0)
(2.6440572e-09 5.4998421e-05 0)
(2.6577934e-09 5.5132593e-05 0)
(2.4238633e-09 5.5153772e-05 0)
(1.9650947e-09 5.5156199e-05 0)
(1.3298017e-09 5.5156094e-05 0)
(5.8486163e-10 5.5155871e-05 0)
(-1.936648e-10 5.5155846e-05 0)
(-9.3347321e-10 5.515603e-05 0)
(-1.5709406e-09 5.5156126e-05 0)
(-2.0452784e-09 5.51537e-05 0)
(-2.3112496e-09 5.5132523e-05 0)
(-2.354585e-09 5.4998355e-05 0)
(-2.1793732e-09 5.4295937e-05 0)
(-1.7811562e-09 5.1295117e-05 0)
(-1.1770268e-09 4.1317846e-05 0)
(-4.1436123e-10 1.7525993e-05 0)
(2.6816881e-10 1.7525482e-05 0)
(7.9745938e-10 4.1316642e-05 0)
(1.2946829e-09 5.1293674e-05 0)
(1.6947156e-09 5.4294548e-05 0)
(1.9262168e-09 5.4997165e-05 0)
(1.9609673e-09 5.5131574e-05 0)
(1.805008e-09 5.515298e-05 0)
(1.4646606e-09 5.5155591e-05 0)
(9.8283251e-10 5.5155612e-05 0)
(4.3428815e-10 5.515545e-05 0)
(-1.2050696e-10 5.5155431e-05 0)
(-6.3248246e-10 5.5155556e-05 0)
(-1.0647019e-09 5.5155534e-05 0)
(-1.3866904e-09 5.5152944e-05 0)
(-1.5702406e-09 5.5131562e-05 0)
(-1.6098666e-09 5.499716e-05 0)
(-1.5082318e-09 5.4294526e-05 0)
(-1.2478578e-09 5.1293617e-05 0)
(-8.2798403e-10 4.1316561e-05 0)
(-2.9075124e-10 1.7525437e-05 0)
(1.6737338e-10 1.752505e-05 0)
(5.0913712e-10 4.1315648e-05 0)
(8.6316813e-10 5.1292525e-05 0)
(1.1824664e-09 5.4293457e-05 0)
(1.3853049e-09 5.499621e-05 0)
(1.4352595e-09 5.5130775e-05 0)
(1.3404128e-09 5.5152334e-05 0)
(1.0953027e-09 5.5155074e-05 0)
(7.3439108e-10 5.5155188e-05 0)
(3.3341828e-10 5.5155075e-05 0)
(-5.9340671e-11 5.5155067e-05 0)
(-4.0687113e-10 5.5155159e-05 0)
(-6.8639844e-10 5.5155048e-05 0)
(-8.9358542e-10 5.5152328e-05 0)
(-1.0221121e-09 5.5130789e-05 0)
(-1.0677254e-09 5.4996211e-05 0)
(-1.0176301e-09 5.4293427e-05 0)
(-8.4977232e-10 5.1292465e-05 0)
(-5.623012e-10 4.131558e-05 0)
(-1.9568248e-10 1.7525014e-05 0)
(1.0059629e-10 1.7524761e-05 0)
(3.1138336e-10 4.1314981e-05 0)
(5.5101205e-10 5.1291756e-05 0)
(7.9373504e-10 5.4292736e-05 0)
(9.6785604e-10 5.4995589e-05 0)
(1.0327189e-09 5.5130276e-05 0)
(9.8848704e-10 5.5151955e-05 0)
(8.2254381e-10 5.5154795e-05 0)
(5.6083503e-10 5.5154981e-05 0)
(2.7155343e-10 5.5154903e-05 0)
(-2.2037908e-12 5.5154897e-05 0)
(-2.3232666e-10 5.5154958e-05 0)
(-4.0804341e-10 5.5154768e-05 0)
(-5.4136126e-10 5.5151932e-05 0)
(-6.3905246e-10 5.5130258e-05 0)
(-6.8795443e-10 5.4995548e-05 0)
(-6.6519147e-10 5.4292667e-05 0)
(-5.5592056e-10 5.1291672e-05 0)
(-3.6271412e-10 4.1314906e-05 0)
(-1.2382535e-10 1.7524724e-05 0)
(5.7736684e-11 1.7524599e-05 0)
(1.8021382e-10 4.1314603e-05 0)
(3.3291353e-10 5.1291328e-05 0)
(5.0900794e-10 5.4292361e-05 0)
(6.5945739e-10 5.4995299e-05 0)
(7.3867756e-10 5.5130077e-05 0)
(7.2924199e-10 5.5151841e-05 0)
(6.2027031e-10 5.5154751e-05 0)
(4.3270203e-10 5.515499e-05 0)
(2.2285525e-10 5.5154939e-05 0)
(3.5469792e-11 5.5154922e-05 0)
(-1.0845791e-10 5.5154941e-05 0)
(-2.1511787e-10 5.5154678e-05 0)
(-3.0384682e-10 5.5151745e-05 0)
(-3.774597e-10 5.5129967e-05 0)
(-4.159721e-10 5.4995158e-05 0)
(-4.0446782e-10 5.4292209e-05 0)
(-3.3650505e-10 5.1291188e-05 0)
(-2.1401349e-10 4.1314494e-05 0)
(-7.0884497e-11 1.7524548e-05 0)
(3.1627015e-11 1.7524526e-05 0)
(9.9928196e-11 4.1314433e-05 0)
(1.9237475e-10 5.1291152e-05 0)
(3.0849279e-10 5.4292243e-05 0)
(4.2551843e-10 5.4995255e-05 0)
(5.0814536e-10 5.5130094e-05 0)
(5.2573177e-10 5.5151907e-05 0)
(4.6222776e-10 5.5154866e-05 0)
(3.3205416e-10 5.5155143e-05 0)
(1.7867216e-10 5.515511e-05 0)
(4.7974054e-11 5.515508e-05 0)
(-3.408159e-11 5.5155058e-05 0)
(-9.1593917e-11 5.5154739e-05 0)
(-1.5349421e-10 5.5151735e-05 0)
(-2.0718326e-10 5.5129883e-05 0)
(-2.2829297e-10 5.4995005e-05 0)
(-2.1595597e-10 5.4291996e-05 0)
(-1.749898e-10 5.1290947e-05 0)
(-1.0641842e-10 4.1314283e-05 0)
(-3.362261e-11 1.7524459e-05 0)
(1.6199677e-11 1.7524495e-05 0)
(5.1809328e-11 4.1314363e-05 0)
(1.0492694e-10 5.1291087e-05 0)
(1.7744012e-10 5.4292221e-05 0)
(2.5900045e-10 5.4995292e-05 0)
(3.3056895e-10 5.5130187e-05 0)
(3.6737799e-10 5.5152046e-05 0)
(3.4362214e-10 5.5155051e-05 0)
(2.5935292e-10 5.5155364e-05 0)
(1.4523842e-10 5.5155352e-05 0)
(4.7805336e-11 5.5155322e-05 0)
(2.4670218e-12 5.5155277e-05 0)
(-2.5623473e-11 5.5154913e-05 0)
(-6.8547678e-11 5.5151855e-05 0)
(-1.0218757e-10 5.5129949e-05 0)
(-1.0651827e-10 5.4995017e-05 0)
(-8.9541317e-11 5.429195e-05 0)
(-6.7699062e-11 5.1290861e-05 0)
(-4.1485962e-11 4.1314193e-05 0)
(-1.3724397e-11 1.7524419e-05 0)
(7.3473472e-12 1.7524471e-05 0)
(2.5516235e-11 4.1314299e-05 0)
(5.9634967e-11 5.1291014e-05 0)
(1.1250055e-10 5.4292169e-05 0)
(1.6972866e-10 5.4995284e-05 0)
(2.2171129e-10 5.5130235e-05 0)
(2.65359e-10 5.5152151e-05 0)
(2.7017298e-10 5.5155209e-05 0)
(2.1740086e-10 5.5155563e-05 0)
(1.2708962e-10 5.5155582e-05 0)
(4.4644955e-11 5.5155569e-05 0)
(8.6774209e-12 5.5155521e-05 0)
(-1.0752698e-11 5.515513e-05 0)
(-3.6819886e-11 5.515203e-05 0)
(-4.6824452e-11 5.5130074e-05 0)
(-3.4778934e-11 5.4995091e-05 0)
(-1.4776224e-11 5.4291969e-05 0)
(-1.0133373e-11 5.1290827e-05 0)
(-1.6259659e-11 4.1314138e-05 0)
(-9.6107063e-12 1.7524394e-05 0)
(3.7743529e-12 1.752443e-05 0)
(1.8722184e-11 4.131419e-05 0)
(5.0429974e-11 5.1290872e-05 0)
(9.6316381e-11 5.4292031e-05 0)
(1.3954546e-10 5.4995178e-05 0)
(1.7572554e-10 5.5130178e-05 0)
(2.1647936e-10 5.5152144e-05 0)
(2.3129239e-10 5.5155247e-05 0)
(1.9325395e-10 5.5155639e-05 0)
(1.1931476e-10 5.5155691e-05 0)
(4.9531601e-11 5.5155704e-05 0)
(1.2462046e-11 5.5155674e-05 0)
(-1.4397032e-11 5.5155283e-05 0)
(-3.4394065e-11 5.5152161e-05 0)
(-2.774234e-11 5.5130161e-05 0)
(-6.5498843e-12 5.4995125e-05 0)
(8.7917449e-12 5.4291944e-05 0)
(1.5480328e-12 5.1290749e-05 0)
(-1.6142718e-11 4.1314053e-05 0)
(-1.2068828e-11 1.7524359e-05 0)
(1.185463e-12 1.7524356e-05 0)
(1.4770745e-11 4.1314005e-05 0)
(4.8278509e-11 5.1290637e-05 0)
(9.7285946e-11 5.4291791e-05 0)
(1.4462249e-10 5.4994962e-05 0)
(1.7959e-10 5.5129996e-05 0)
(2.1503265e-10 5.5151998e-05 0)
(2.2468276e-10 5.5155131e-05 0)
(1.8883329e-10 5.5155549e-05 0)
(1.2778374e-10 5.515563e-05 0)
(7.1434895e-11 5.5155671e-05 0)
(3.1643833e-11 5.5155668e-05 0)
(-1.3532047e-11 5.5155298e-05 0)
(-4.7521491e-11 5.515218e-05 0)
(-4.7878327e-11 5.5130156e-05 0)
(-3.5382961e-11 5.4995068e-05 0)
(-2.6223237e-11 5.4291829e-05 0)
(-2.4344237e-11 5.12906e-05 0)
(-2.5972358e-11 4.1313922e-05 0)
(-1.3848192e-11 1.7524307e-05 0)
(6.335927e-12 1.7524233e-05 0)
(2.6037582e-11 4.1313707e-05 0)
(6.5279998e-11 5.1290273e-05 0)
(1.2360649e-10 5.4291427e-05 0)
(1.7925846e-10 5.4994624e-05 0)
(2.1762776e-10 5.5129696e-05 0)
(2.4861881e-10 5.5151737e-05 0)
(2.5034133e-10 5.5154896e-05 0)
(2.1248873e-10 5.5155336e-05 0)
(1.5660783e-10 5.5155438e-05 0)
(1.1054265e-10 5.5155499e-05 0)
(7.5642623e-11 5.5155516e-05 0)
(1.5972553e-11 5.5155166e-05 0)
(-4.8830192e-11 5.5152069e-05 0)
(-8.9834476e-11 5.5130044e-05 0)
(-1.1277934e-10 5.4994926e-05 0)
(-1.0894574e-10 5.4291658e-05 0)
(-7.7614943e-11 5.1290423e-05 0)
(-4.3430673e-11 4.1313781e-05 0)
(-1.5481481e-11 1.752425e-05 0)
(1.5923996e-11 1.752406e-05 0)
(5.3447431e-11 4.1313293e-05 0)
(1.1308597e-10 5.1289773e-05 0)
(1.9050173e-10 5.4290934e-05 0)
(2.5579987e-10 5.499417e-05 0)
(2.9404778e-10 5.5129296e-05 0)
(3.1645579e-10 5.515139e-05 0)
(3.1027382e-10 5.5154583e-05 0)
(2.6908628e-10 5.5155042e-05 0)
(2.12814e-10 5.5155155e-05 0)
(1.7297953e-10 5.5155225e-05 0)
(1.416349e-10 5.5155248e-05 0)
(6.8037606e-11 5.5154908e-05 0)
(-3.7742682e-11 5.5151837e-05 0)
(-1.4009416e-10 5.5129834e-05 0)
(-2.0935116e-10 5.4994732e-05 0)
(-2.0858121e-10 5.4291482e-05 0)
(-1.4864493e-10 5.1290271e-05 0)
(-8.0237077e-11 4.1313665e-05 0)
(-2.5710285e-11 1.7524203e-05 0)
(3.0962037e-11 1.7523854e-05 0)
(1.0356125e-10 4.13128e-05 0)
(2.0140479e-10 5.1289182e-05 0)
(3.0212243e-10 5.4290355e-05 0)
(3.7438454e-10 5.499364e-05 0)
(4.1090574e-10 5.5128829e-05 0)
(4.2166247e-10 5.5150982e-05 0)
(4.0143324e-10 5.5154217e-05 0)
(3.5187339e-10 5.5154698e-05 0)
(2.9367403e-10 5.5154815e-05 0)
(2.5036271e-10 5.5154888e-05 0)
(2.0757852e-10 5.5154915e-05 0)
(1.168064e-10 5.515459e-05 0)
(-2.4972837e-11 5.5151544e-05 0)
(-1.7717796e-10 5.5129573e-05 0)
(-2.7737033e-10 5.4994518e-05 0)
(-2.816944e-10 5.4291319e-05 0)
(-2.1706486e-10 5.1290149e-05 0)
(-1.310105e-10 4.1313582e-05 0)
(-4.3580451e-11 1.7524173e-05 0)
(5.6464526e-11 1.7523627e-05 0)
(1.8473473e-10 4.1312262e-05 0)
(3.3622744e-10 5.1288537e-05 0)
(4.658093e-10 5.4289722e-05 0)
(5.5018546e-10 5.499307e-05 0)
(5.9024293e-10 5.5128338e-05 0)
(5.8403825e-10 5.5150559e-05 0)
(5.3296052e-10 5.5153848e-05 0)
(4.5507262e-10 5.5154366e-05 0)
(3.8217331e-10 5.5154505e-05 0)
(3.2649741e-10 5.5154591e-05 0)
(2.679203e-10 5.5154628e-05 0)
(1.6291227e-10 5.5154318e-05 0)
(6.1107971e-13 5.5151283e-05 0)
(-1.6995225e-10 5.5129333e-05 0)
(-2.7533624e-10 5.4994321e-05 0)
(-2.8671365e-10 5.4291169e-05 0)
(-2.3924846e-10 5.1290037e-05 0)
(-1.5865494e-10 4.1313512e-05 0)
(-5.5229992e-11 1.7524149e-05 0)
(9.2685761e-11 1.7523385e-05 0)
(2.9190948e-10 4.1311692e-05 0)
(5.1045126e-10 5.1287856e-05 0)
(6.9292059e-10 5.4289066e-05 0)
(8.1118948e-10 5.4992501e-05 0)
(8.5507167e-10 5.5127867e-05 0)
(8.1695277e-10 5.5150171e-05 0)
(7.192081e-10 5.5153533e-05 0)
(5.9720983e-10 5.5154119e-05 0)
(4.8956429e-10 5.5154311e-05 0)
(4.0727198e-10 5.5154425e-05 0)
(3.2920118e-10 5.5154467e-05 0)
(2.1193463e-10 5.5154153e-05 0)
(4.4621157e-11 5.5151111e-05 0)
(-1.2359298e-10 5.5129169e-05 0)
(-2.3071242e-10 5.4994176e-05 0)
(-2.6037177e-10 5.4291045e-05 0)
(-2.3534045e-10 5.128993e-05 0)
(-1.6473141e-10 4.1313436e-05 0)
(-5.909707e-11 1.7524121e-05 0)
(1.45709e-10 1.7523125e-05 0)
(4.4706582e-10 4.1311084e-05 0)
(7.6394644e-10 5.1287148e-05 0)
(1.0294909e-09 5.4288418e-05 0)
(1.1907941e-09 5.4991976e-05 0)
(1.2275712e-09 5.5127461e-05 0)
(1.1458427e-09 5.5149865e-05 0)
(9.9228469e-10 5.5153312e-05 0)
(8.1334403e-10 5.5153976e-05 0)
(6.4649738e-10 5.5154227e-05 0)
(5.0977578e-10 5.5154365e-05 0)
(3.9080755e-10 5.51544e-05 0)
(2.5214738e-10 5.5154067e-05 0)
(8.3875942e-11 5.5151013e-05 0)
(-7.8895213e-11 5.5129075e-05 0)
(-1.903738e-10 5.4994086e-05 0)
(-2.3920581e-10 5.4290959e-05 0)
(-2.3423399e-10 5.1289854e-05 0)
(-1.7180676e-10 4.1313376e-05 0)
(-6.3303674e-11 1.7524097e-05 0)
(2.2563835e-10 1.7522844e-05 0)
(6.851219e-10 4.1310435e-05 0)
(1.1506827e-09 5.1286417e-05 0)
(1.5277895e-09 5.4287786e-05 0)
(1.7263045e-09 5.4991521e-05 0)
(1.7280574e-09 5.5127169e-05 0)
(1.5783517e-09 5.5149694e-05 0)
(1.3512734e-09 5.5153222e-05 0)
(1.0988401e-09 5.5153939e-05 0)
(8.5343207e-10 5.515422e-05 0)
(6.4070801e-10 5.5154362e-05 0)
(4.6034879e-10 5.5154379e-05 0)
(2.9125818e-10 5.515402e-05 0)
(1.2485032e-10 5.5150951e-05 0)
(-3.1327069e-11 5.5129014e-05 0)
(-1.4712664e-10 5.499403e-05 0)
(-2.1460725e-10 5.4290907e-05 0)
(-2.3306472e-10 5.1289809e-05 0)
(-1.8297643e-10 4.1313344e-05 0)
(-7.020764e-11 1.7524083e-05 0)
(3.352819e-10 1.7522544e-05 0)
(1.0152913e-09 4.1309745e-05 0)
(1.6929614e-09 5.1285661e-05 0)
(2.227493e-09 5.4287187e-05 0)
(2.4656447e-09 5.4991177e-05 0)
(2.3907391e-09 5.5127053e-05 0)
(2.116064e-09 5.5149716e-05 0)
(1.7651983e-09 5.5153303e-05 0)
(1.4025607e-09 5.515403e-05 0)
(1.0580744e-09 5.5154295e-05 0)
(7.6030194e-10 5.5154411e-05 0)
(5.1758152e-10 5.5154397e-05 0)
(3.2318242e-10 5.5154005e-05 0)
(1.6015898e-10 5.515091e-05 0)
(1.2134086e-11 5.5128963e-05 0)
(-1.0798061e-10 5.4993982e-05 0)
(-1.9536357e-10 5.4290853e-05 0)
(-2.3306348e-10 5.1289754e-05 0)
(-1.9177349e-10 4.1313294e-05 0)
(-7.5467403e-11 1.7524059e-05 0)
(4.707931e-10 1.7522181e-05 0)
(1.4353561e-09 4.130892e-05 0)
(2.4086264e-09 5.1284783e-05 0)
(3.1648291e-09 5.4286572e-05 0)
(3.4394234e-09 5.4990966e-05 0)
(3.2169477e-09 5.5127163e-05 0)
(2.7263992e-09 5.5149971e-05 0)
(2.1821452e-09 5.515357e-05 0)
(1.6685923e-09 5.5154238e-05 0)
(1.209845e-09 5.5154428e-05 0)
(8.2932497e-10 5.5154483e-05 0)
(5.3673289e-10 5.5154425e-05 0)
(3.294619e-10 5.5154001e-05 0)
(1.7291842e-10 5.5150874e-05 0)
(3.0865776e-11 5.5128898e-05 0)
(-9.9017947e-11 5.4993896e-05 0)
(-2.0935526e-10 5.4290741e-05 0)
(-2.659062e-10 5.1289615e-05 0)
(-2.2911019e-10 4.1313141e-05 0)
(-9.2579228e-11 1.7523976e-05 0)
(6.1623512e-10 1.7521625e-05 0)
(1.9153272e-09 4.130772e-05 0)
(3.2836447e-09 5.1283561e-05 0)
(4.3493782e-09 5.4285794e-05 0)
(4.6578306e-09 5.4990839e-05 0)
(4.1875555e-09 5.5127496e-05 0)
(3.3546653e-09 5.5150431e-05 0)
(2.5277386e-09 5.515394e-05 0)
(1.8277521e-09 5.5154441e-05 0)
(1.2596495e-09 5.5154489e-05 0)
(8.2001613e-10 5.5154454e-05 0)
(5.0369244e-10 5.5154356e-05 0)
(2.9607347e-10 5.5153914e-05 0)
(1.4865871e-10 5.5150744e-05 0)
(1.6794924e-11 5.5128718e-05 0)
(-1.204841e-10 5.4993671e-05 0)
(-2.6243984e-10 5.4290463e-05 0)
(-3.592819e-10 5.1289245e-05 0)
(-3.3762047e-10 4.1312692e-05 0)
(-1.4422977e-10 1.7523711e-05 0)
(7.2037814e-10 1.7520479e-05 0)
(2.3091026e-09 4.1305538e-05 0)
(4.0934529e-09 5.1281564e-05 0)
(5.5103983e-09 5.4284655e-05 0)
(5.8649912e-09 5.4990776e-05 0)
(5.0990915e-09 5.5128138e-05 0)
(3.8483727e-09 5.5151157e-05 0)
(2.700714e-09 5.5154409e-05 0)
(1.8328109e-09 5.5154579e-05 0)
(1.2034056e-09 5.5154403e-05 0)
(7.5196353e-10 5.5154256e-05 0)
(4.4489581e-10 5.5154128e-05 0)
(2.4848689e-10 5.5153705e-05 0)
(1.1076914e-10 5.5150466e-05 0)
(-1.1420031e-11 5.5128363e-05 0)
(-1.6029921e-10 5.4993243e-05 0)
(-3.5044791e-10 5.4289905e-05 0)
(-5.2205869e-10 5.1288372e-05 0)
(-5.396726e-10 4.1311462e-05 0)
(-2.4424546e-10 1.7522926e-05 0)
(7.2733363e-10 1.7517587e-05 0)
(2.4143623e-09 4.1300764e-05 0)
(4.4273935e-09 5.1277769e-05 0)
(6.0515333e-09 5.428284e-05 0)
(6.4541916e-09 5.4990899e-05 0)
(5.510288e-09 5.5129607e-05 0)
(3.9735581e-09 5.5152806e-05 0)
(2.6225139e-09 5.5155631e-05 0)
(1.6843035e-09 5.5155192e-05 0)
(1.067926e-09 5.5154694e-05 0)
(6.5986302e-10 5.5154408e-05 0)
(3.9536692e-10 5.515427e-05 0)
(2.1909054e-10 5.515403e-05 0)
(8.6205747e-11 5.5150587e-05 0)
(-2.9803558e-11 5.5128294e-05 0)
(-1.8457699e-10 5.4992962e-05 0)
(-4.205735e-10 5.4289197e-05 0)
(-6.8096053e-10 5.1286641e-05 0)
(-7.5820786e-10 4.1308394e-05 0)
(-3.5675243e-10 1.7520818e-05 0)
(6.6648742e-10 1.7513116e-05 0)
(2.2673649e-09 4.1294091e-05 0)
(4.2481225e-09 5.1272002e-05 0)
(5.8652187e-09 5.4280243e-05 0)
(6.2976186e-09 5.4990709e-05 0)
(5.3514285e-09 5.5132067e-05 0)
(3.7683269e-09 5.5155799e-05 0)
(2.3954029e-09 5.5158076e-05 0)
(1.4823374e-09 5.5156147e-05 0)
(9.1600942e-10 5.5155079e-05 0)
(5.6704508e-10 5.5154729e-05 0)
(3.5441502e-10 5.5154827e-05 0)
(2.0459135e-10 5.5155535e-05 0)
(7.8827295e-11 5.5151269e-05 0)
(-3.0259181e-11 5.5128509e-05 0)
(-1.777993e-10 5.4992562e-05 0)
(-4.2536638e-10 5.4287834e-05 0)
(-7.2669364e-10 5.1284075e-05 0)
(-8.4248477e-10 4.1304038e-05 0)
(-4.0394359e-10 1.7518121e-05 0)
)
;

boundaryField
{
    Wall
    {
        type            fixedValue;
        value           uniform (0 0 0);
    }
    frontAndBack
    {
        type            empty;
    }
    atmosphere
    {
        type            pressureInletOutletVelocity;
        value           nonuniform List<vector> 
20
(
(6.6648742e-10 1.7513116e-05 0)
(2.2673649e-09 4.1294091e-05 0)
(4.2481225e-09 5.1272002e-05 0)
(5.8652187e-09 5.4280243e-05 0)
(6.2976186e-09 5.4990709e-05 0)
(5.3514285e-09 5.5132067e-05 0)
(3.7683269e-09 5.5155799e-05 0)
(2.3954029e-09 5.5158076e-05 0)
(1.4823374e-09 5.5156147e-05 0)
(9.1600942e-10 5.5155079e-05 0)
(5.6704508e-10 5.5154729e-05 0)
(3.5441502e-10 5.5154827e-05 0)
(2.0459135e-10 5.5155535e-05 0)
(7.8827295e-11 5.5151269e-05 0)
(-3.0259181e-11 5.5128509e-05 0)
(-1.777993e-10 5.4992562e-05 0)
(-4.2536638e-10 5.4287834e-05 0)
(-7.2669364e-10 5.1284075e-05 0)
(-8.4248477e-10 4.1304038e-05 0)
(-4.0394359e-10 1.7518121e-05 0)
)
;
    }
}


// ************************************************************************* //
