/*--------------------------------*- C++ -*----------------------------------*\
| =========                 |                                                 |
| \\      /  F ield         | OpenFOAM: The Open Source CFD Toolbox           |
|  \\    /   O peration     | Version:  3.0.1                                 |
|   \\  /    A nd           | Web:      www.OpenFOAM.org                      |
|    \\/     M anipulation  |                                                 |
\*---------------------------------------------------------------------------*/
FoamFile
{
    version     2.0;
    format      ascii;
    class       volScalarField;
    location    "3";
    object      wCO2_l;
}
// * * * * * * * * * * * * * * * * * * * * * * * * * * * * * * * * * * * * * //

dimensions      [0 0 0 0 0 0 0];

internalField   nonuniform List<scalar> 
800
(
0.0015723953
0.001572395
0.0015723949
0.0015723949
0.0015723949
0.0015723949
0.0015723949
0.0015723949
0.0015723949
0.0015723949
0.0015723949
0.0015723949
0.0015723949
0.0015723949
0.0015723949
0.0015723949
0.0015723949
0.0015723949
0.001572395
0.0015723953
0.0014309649
0.0014309669
0.0014309674
0.0014309677
0.0014309681
0.0014309683
0.0014309685
0.0014309686
0.0014309687
0.0014309687
0.0014309687
0.0014309687
0.0014309686
0.0014309685
0.0014309683
0.0014309681
0.0014309677
0.0014309674
0.0014309669
0.0014309649
5.9969141e-06
6.1696894e-06
6.1880119e-06
6.1912073e-06
6.1916902e-06
6.1917268e-06
6.1917076e-06
6.1916889e-06
6.1916772e-06
6.1916718e-06
6.191672e-06
6.1916773e-06
6.1916893e-06
6.1917077e-06
6.1917264e-06
6.1916897e-06
6.1912062e-06
6.1880104e-06
6.1696876e-06
5.9969133e-06
1.9264691e-08
3.0479137e-08
3.3718119e-08
3.4453039e-08
3.4580463e-08
3.4593174e-08
3.4590102e-08
3.4586756e-08
3.4584692e-08
3.4583768e-08
3.458378e-08
3.458472e-08
3.4586787e-08
3.4590121e-08
3.4593157e-08
3.458039e-08
3.4452908e-08
3.3717941e-08
3.0478932e-08
1.9264579e-08
6.0799039e-11
1.8548674e-10
2.3364093e-10
2.4507749e-10
2.4703681e-10
2.4721263e-10
2.4715098e-10
2.4709034e-10
2.470531e-10
2.4703637e-10
2.4703659e-10
2.4705357e-10
2.4709084e-10
2.4715131e-10
2.4721235e-10
2.4703551e-10
2.4507524e-10
2.3363791e-10
1.8548356e-10
6.079794e-11
1.8581303e-13
1.0592324e-12
1.5065668e-12
1.6187066e-12
1.6378185e-12
1.6393655e-12
1.6386239e-12
1.637934e-12
1.6375089e-12
1.6373157e-12
1.637318e-12
1.6375134e-12
1.6379393e-12
1.6386276e-12
1.6393628e-12
1.6378049e-12
1.6186826e-12
1.5065347e-12
1.059202e-12
1.8580695e-13
5.0236039e-16
5.1568594e-15
8.2197908e-15
9.0313464e-15
9.1701376e-15
9.1807113e-15
9.1746532e-15
9.169101e-15
9.1656434e-15
9.1640518e-15
9.1640693e-15
9.1656733e-15
9.1691362e-15
9.1746787e-15
9.1806953e-15
9.1700385e-15
9.0311696e-15
8.219556e-15
5.1566578e-15
5.0233732e-16
1.1718084e-18
2.115941e-17
3.7613301e-17
4.2220414e-17
4.3015946e-17
4.3075819e-17
4.3039471e-17
4.3005887e-17
4.2984706e-17
4.2974828e-17
4.297491e-17
4.2984832e-17
4.3006037e-17
4.3039561e-17
4.3075701e-17
4.3015396e-17
4.2219446e-17
3.761204e-17
2.115844e-17
1.1717441e-18
2.3661966e-21
7.4113401e-20
1.4647764e-19
1.6787877e-19
1.7162444e-19
1.7191336e-19
1.7174334e-19
1.7158293e-19
1.7148037e-19
1.7143202e-19
1.7143229e-19
1.7148068e-19
1.7158325e-19
1.7174331e-19
1.7191251e-19
1.7162183e-19
1.6787457e-19
1.4647239e-19
7.4109784e-20
2.3660592e-21
4.175786e-24
2.2501996e-22
4.9351693e-22
5.7733441e-22
5.9223489e-22
5.9343742e-22
5.9278938e-22
5.9216059e-22
5.917533e-22
5.9155938e-22
5.9155993e-22
5.9175276e-22
5.9215945e-22
5.927866e-22
5.9343188e-22
5.9222374e-22
5.7731886e-22
4.9349895e-22
2.2500909e-22
4.1755482e-24
6.5017081e-27
5.9997697e-25
1.4584879e-24
1.7411928e-24
1.7922871e-24
1.7966354e-24
1.7945587e-24
1.7924755e-24
1.7911105e-24
1.7904557e-24
1.7904554e-24
1.7911025e-24
1.7924629e-24
1.7945395e-24
1.7966079e-24
1.7922436e-24
1.7411397e-24
1.4584322e-24
5.9994809e-25
6.5013512e-27
9.0058202e-30
1.4197509e-27
3.8224944e-27
4.6565332e-27
4.80982e-27
4.8235844e-27
4.8178598e-27
4.8119001e-27
4.8079554e-27
4.8060507e-27
4.8060455e-27
4.8079164e-27
4.8118392e-27
4.8177749e-27
4.8234776e-27
4.8096703e-27
4.6563661e-27
3.8223319e-27
1.4196784e-27
9.0053151e-30
1.1177122e-32
3.0072983e-30
8.9636739e-30
1.1141631e-29
1.1548627e-29
1.1587063e-29
1.1573258e-29
1.1558292e-29
1.1548298e-29
1.1543448e-29
1.1543424e-29
1.1548165e-29
1.1558085e-29
1.1572975e-29
1.1586717e-29
1.1548164e-29
1.1141134e-29
8.9632189e-30
3.0071224e-30
1.1176423e-32
1.2506087e-35
5.7425137e-33
1.894437e-32
2.4025809e-32
2.4990993e-32
2.5086428e-32
2.5056933e-32
2.5023525e-32
2.5001042e-32
2.4990084e-32
2.4990016e-32
2.5000684e-32
2.502297e-32
2.5056178e-32
2.5085495e-32
2.4989758e-32
2.4024488e-32
1.8943195e-32
5.7421105e-33
1.2505158e-35
1.2682572e-38
9.9440095e-36
3.6304415e-35
4.697742e-35
4.9037206e-35
4.9249403e-35
4.9193043e-35
4.9126092e-35
4.9080722e-35
4.905854e-35
4.9058386e-35
4.9079928e-35
4.9124864e-35
4.9191334e-35
4.9247251e-35
4.9034341e-35
4.6974346e-35
3.6301722e-35
9.9431768e-36
1.2681443e-38
1.17109e-41
1.5693957e-38
6.3407462e-38
8.3715134e-38
8.7695541e-38
8.8120819e-38
8.8023787e-38
8.7902405e-38
8.7819622e-38
8.7779052e-38
8.7778777e-38
8.7818113e-38
8.7900051e-38
8.8020451e-38
8.8116536e-38
8.7689788e-38
8.3708936e-38
6.3402102e-38
1.5692449e-38
1.1709696e-41
9.8858501e-45
2.2671253e-41
1.0137022e-40
1.3655677e-40
1.4355846e-40
1.4433115e-40
1.4417981e-40
1.4397947e-40
1.4384198e-40
1.4377452e-40
1.4377405e-40
1.4383941e-40
1.4397542e-40
1.4417398e-40
1.4432362e-40
1.4354831e-40
1.3654587e-40
1.0136092e-40
2.2668878e-41
9.884734e-45
7.656009e-48
3.008798e-44
1.4889836e-43
2.0466306e-43
2.1592421e-43
2.1720327e-43
2.1698845e-43
2.1668587e-43
2.1647701e-43
2.1637434e-43
2.1637359e-43
2.164729e-43
2.1667952e-43
2.1697931e-43
2.1719149e-43
2.1590834e-43
2.0464614e-43
1.4888414e-43
3.0084679e-44
7.6550976e-48
5.4562064e-51
3.6802119e-47
2.0159473e-46
2.8273788e-46
2.9936136e-46
3.012986e-46
3.0102008e-46
3.0060008e-46
3.0030842e-46
3.001648e-46
3.0016365e-46
3.0030233e-46
3.0059089e-46
3.0100706e-46
3.01282e-46
2.9933909e-46
2.8271425e-46
2.0157512e-46
3.6797968e-47
5.4555351e-51
3.5879799e-54
4.1602641e-50
2.5228587e-49
3.6104565e-49
3.8364255e-49
3.8633687e-49
3.8600604e-49
3.8546821e-49
3.8509251e-49
3.8490717e-49
3.849057e-49
3.8508432e-49
3.8545609e-49
3.8598914e-49
3.8631565e-49
3.8361389e-49
3.6101537e-49
2.5226102e-49
4.1597861e-50
3.5875276e-54
2.1822634e-57
4.3569973e-53
2.9254115e-52
4.2719884e-52
4.5556464e-52
4.5901695e-52
4.5865624e-52
4.5801902e-52
4.5757127e-52
4.5735004e-52
4.5734824e-52
4.5756125e-52
4.5800443e-52
4.5863607e-52
4.5899179e-52
4.5553036e-52
4.2716261e-52
2.9251189e-52
4.3564883e-53
2.1819823e-57
1.2301618e-60
4.2362982e-56
3.1497748e-55
4.6936e-55
5.0232358e-55
5.0641048e-55
5.0604922e-55
5.0534889e-55
5.0485397e-55
5.0460895e-55
5.0460694e-55
5.0484251e-55
5.0533234e-55
5.0602638e-55
5.0638219e-55
5.0228489e-55
4.6931933e-55
3.1494528e-55
4.2357927e-56
1.2299998e-60
6.4387565e-64
3.8310153e-59
3.1547746e-58
4.7972019e-58
5.1525836e-58
5.1973901e-58
5.1940655e-58
5.1869112e-58
5.1818259e-58
5.179304e-58
5.1792818e-58
5.1817008e-58
5.1867315e-58
5.1938181e-58
5.1970859e-58
5.1521676e-58
4.7967691e-58
3.1544411e-58
3.8305454e-59
6.4378822e-64
3.134087e-67
3.2274434e-62
2.9440429e-61
4.568423e-61
4.9245306e-61
4.9701203e-61
4.9673111e-61
4.9605053e-61
4.9556403e-61
4.9532232e-61
4.9531997e-61
4.9555117e-61
4.9603217e-61
4.9670577e-61
4.9698091e-61
4.924108e-61
4.567989e-61
2.9437192e-61
3.2270345e-62
3.133647e-67
1.4206329e-70
2.5363836e-65
2.5633141e-64
4.0591545e-64
4.3913422e-64
4.4344697e-64
4.4322977e-64
4.4262612e-64
4.4219215e-64
4.4197621e-64
4.4197399e-64
4.421801e-64
4.4260881e-64
4.4320584e-64
4.4341762e-64
4.3909451e-64
4.0587509e-64
2.5630216e-64
2.5360517e-65
1.4204263e-70
6.0037563e-74
1.8616197e-68
2.0847295e-67
3.3690225e-67
3.6578868e-67
3.6958775e-67
3.6943501e-67
3.6893519e-67
3.6857389e-67
3.6839386e-67
3.6839205e-67
3.6856368e-67
3.6892059e-67
3.6941464e-67
3.6956272e-67
3.6575462e-67
3.3686784e-67
2.0844853e-67
1.8613691e-68
6.0028545e-74
2.3679161e-77
1.2773697e-71
1.5853229e-70
2.6145728e-70
2.8490043e-70
2.8802083e-70
2.8792401e-70
2.8753728e-70
2.8725613e-70
2.8711599e-70
2.8711473e-70
2.8724855e-70
2.875264e-70
2.879086e-70
2.8800166e-70
2.8487396e-70
2.6143043e-70
1.5851346e-70
1.277194e-71
2.3675505e-77
8.7231199e-81
8.2006704e-75
1.1281403e-73
1.8988173e-73
2.0765526e-73
2.1004748e-73
2.0999325e-73
2.0971333e-73
2.0950871e-73
2.0940669e-73
2.0940601e-73
2.0950371e-73
2.0970623e-73
2.0998297e-73
2.1003449e-73
2.0763663e-73
1.8986269e-73
1.1280072e-73
8.1995382e-75
8.7217575e-81
3.0035365e-84
4.9292296e-78
7.5175345e-77
1.2913402e-76
1.4173237e-76
1.4344583e-76
1.4342009e-76
1.4323046e-76
1.4309105e-76
1.4302155e-76
1.4302126e-76
1.4308811e-76
1.4322637e-76
1.4341406e-76
1.4343811e-76
1.4172071e-76
1.2912195e-76
7.5166928e-77
4.9285732e-78
3.0030779e-84
9.671188e-88
2.775441e-81
4.6933246e-80
8.2280871e-80
9.0635282e-80
9.1782756e-80
9.1773614e-80
9.1653312e-80
9.1564356e-80
9.1520015e-80
9.1519961e-80
9.1562821e-80
9.1651274e-80
9.177059e-80
9.1778894e-80
9.0628982e-80
8.2274322e-80
4.6928646e-80
2.7751086e-81
9.6698263e-88
2.9132824e-91
1.4644483e-84
2.746274e-83
4.9138633e-83
5.4324139e-83
5.5043012e-83
5.5041989e-83
5.4970515e-83
5.491734e-83
5.4890832e-83
5.4890887e-83
5.4916646e-83
5.4969711e-83
5.5040815e-83
5.5041572e-83
5.4321388e-83
4.9135796e-83
2.7460704e-83
1.4643081e-84
2.9129384e-91
8.21207e-95
7.2428951e-88
1.5065094e-86
2.7511827e-86
3.0525452e-86
3.0946953e-86
3.0948927e-86
3.0909151e-86
3.0879381e-86
3.0864543e-86
3.0864631e-86
3.0879155e-86
3.0909e-86
3.0948728e-86
3.0946786e-86
3.0524708e-86
2.7511103e-86
1.5064496e-86
7.2424616e-88
8.2113847e-95
2.1664263e-98
3.3581174e-91
7.7484223e-90
1.4442317e-89
1.6082521e-89
1.6313881e-89
1.6316294e-89
1.6295565e-89
1.6279959e-89
1.6272191e-89
1.6272277e-89
1.6279953e-89
1.6295689e-89
1.6316496e-89
1.6314226e-89
1.6082678e-89
1.4442536e-89
7.7484748e-90
3.3580789e-91
2.1663481e-98
5.3487583e-102
1.4595435e-94
3.7364562e-93
7.1083235e-93
7.9443982e-93
8.0632988e-93
8.0651859e-93
8.0550706e-93
8.0474109e-93
8.0436035e-93
8.0436668e-93
8.0474692e-93
8.0552446e-93
8.0654605e-93
8.0637242e-93
7.9448067e-93
7.1088016e-93
3.7367035e-93
1.4596182e-94
5.3488946e-102
1.2357167e-105
5.9457999e-98
1.6890632e-96
3.2797801e-96
3.6788973e-96
3.7361097e-96
3.7373148e-96
3.7326932e-96
3.7291707e-96
3.7274222e-96
3.7274607e-96
3.7292245e-96
3.7328245e-96
3.7375251e-96
3.7364345e-96
3.6792635e-96
3.2802064e-96
1.6892986e-96
5.9465694e-98
1.2358439e-105
2.670682e-109
2.2696115e-101
7.1556143e-100
1.4182267e-99
1.596618e-99
1.6223908e-99
1.6230619e-99
1.6210842e-99
1.6195655e-99
1.6188116e-99
1.6188311e-99
1.6195969e-99
1.6211578e-99
1.6231838e-99
1.6225858e-99
1.5968601e-99
1.4185137e-99
7.1572368e-100
2.2701187e-101
2.671206e-109
5.3973551e-113
8.1143686e-105
2.8397307e-103
5.7449366e-103
6.4912433e-103
6.5999098e-103
6.6032572e-103
6.5953263e-103
6.5891793e-103
6.5861218e-103
6.5862026e-103
6.5893117e-103
6.5956494e-103
6.6038253e-103
6.6008807e-103
6.4925667e-103
5.7465684e-103
2.8406668e-103
8.1170857e-105
5.3990048e-113
1.0194005e-116
2.7156094e-108
1.0550809e-106
2.1787883e-106
2.4708862e-106
2.5137561e-106
2.515271e-106
2.5122858e-106
2.5099449e-106
2.5087756e-106
2.5088026e-106
2.5099827e-106
2.5123917e-106
2.515478e-106
2.514159e-106
2.4715086e-106
2.1796079e-106
1.0555581e-106
2.7168781e-108
1.0198427e-116
1.7979523e-120
8.5007904e-112
3.6673305e-110
7.7307064e-110
8.7996347e-110
8.9578485e-110
8.9641214e-110
8.9535535e-110
8.9451373e-110
8.9409094e-110
8.940972e-110
8.9451609e-110
8.9537446e-110
8.9646211e-110
8.9591941e-110
8.802216e-110
7.7344552e-110
3.6695588e-110
8.5061693e-112
1.7990197e-120
2.958467e-124
2.4866862e-115
1.1914447e-113
2.5639565e-113
2.9294264e-113
2.9840107e-113
2.9864099e-113
2.9828905e-113
2.9800379e-113
2.9785897e-113
2.9785914e-113
2.9799866e-113
2.9828417e-113
2.9864247e-113
2.9843615e-113
2.9303935e-113
2.5655393e-113
1.1924015e-113
2.488787e-115
2.9608011e-124
)
;

boundaryField
{
    Wall
    {
        type            zeroGradient;
    }
    frontAndBack
    {
        type            empty;
    }
    atmosphere
    {
        type            zeroGradient;
    }
}


// ************************************************************************* //
