/*--------------------------------*- C++ -*----------------------------------*\
| =========                 |                                                 |
| \\      /  F ield         | OpenFOAM: The Open Source CFD Toolbox           |
|  \\    /   O peration     | Version:  3.0.1                                 |
|   \\  /    A nd           | Web:      www.OpenFOAM.org                      |
|    \\/     M anipulation  |                                                 |
\*---------------------------------------------------------------------------*/
FoamFile
{
    version     2.0;
    format      ascii;
    class       volScalarField;
    location    "46";
    object      thermalDiff_foam;
}
// * * * * * * * * * * * * * * * * * * * * * * * * * * * * * * * * * * * * * //

dimensions      [0 2 -1 0 0 0 0];

internalField   nonuniform List<scalar> 
800
(
1.7975071e-07
1.7976046e-07
1.7976104e-07
1.7976056e-07
1.7976018e-07
1.7975996e-07
1.7975986e-07
1.7975981e-07
1.7975979e-07
1.7975978e-07
1.7975978e-07
1.7975979e-07
1.7975981e-07
1.7975986e-07
1.7975997e-07
1.7976018e-07
1.7976056e-07
1.7976105e-07
1.7976046e-07
1.7975072e-07
1.7965974e-07
1.7970609e-07
1.7971842e-07
1.7972174e-07
1.7972235e-07
1.7972222e-07
1.7972195e-07
1.7972172e-07
1.7972158e-07
1.797215e-07
1.797215e-07
1.7972157e-07
1.7972172e-07
1.7972194e-07
1.7972221e-07
1.7972235e-07
1.7972174e-07
1.7971842e-07
1.7970608e-07
1.7965973e-07
1.7924836e-07
1.7933269e-07
1.7936293e-07
1.7937215e-07
1.7937457e-07
1.7937483e-07
1.7937451e-07
1.7937416e-07
1.793739e-07
1.7937377e-07
1.7937377e-07
1.793739e-07
1.7937415e-07
1.7937451e-07
1.7937482e-07
1.7937456e-07
1.7937215e-07
1.7936293e-07
1.7933269e-07
1.7924835e-07
1.7869485e-07
1.7881343e-07
1.7886238e-07
1.7887783e-07
1.7888224e-07
1.7888301e-07
1.7888273e-07
1.7888228e-07
1.7888193e-07
1.7888176e-07
1.7888176e-07
1.7888193e-07
1.7888228e-07
1.7888272e-07
1.7888301e-07
1.7888223e-07
1.7887782e-07
1.7886237e-07
1.7881342e-07
1.7869483e-07
1.7809188e-07
1.7823926e-07
1.7830555e-07
1.7832689e-07
1.7833314e-07
1.783344e-07
1.7833416e-07
1.7833366e-07
1.7833324e-07
1.7833302e-07
1.7833302e-07
1.7833324e-07
1.7833365e-07
1.7833416e-07
1.783344e-07
1.7833313e-07
1.7832688e-07
1.7830554e-07
1.7823924e-07
1.7809186e-07
1.7749744e-07
1.7766628e-07
1.7774741e-07
1.777739e-07
1.7778152e-07
1.7778309e-07
1.7778283e-07
1.7778225e-07
1.7778176e-07
1.7778151e-07
1.7778151e-07
1.7778176e-07
1.7778224e-07
1.7778283e-07
1.7778308e-07
1.7778152e-07
1.7777389e-07
1.777474e-07
1.7766626e-07
1.7749742e-07
1.7695734e-07
1.771389e-07
1.772315e-07
1.7726204e-07
1.7727038e-07
1.7727192e-07
1.772715e-07
1.7727077e-07
1.7727019e-07
1.772699e-07
1.772699e-07
1.7727019e-07
1.7727077e-07
1.7727149e-07
1.7727192e-07
1.7727037e-07
1.7726203e-07
1.7723149e-07
1.7713889e-07
1.7695732e-07
1.7650881e-07
1.7669392e-07
1.7679384e-07
1.768271e-07
1.7683535e-07
1.7683647e-07
1.7683567e-07
1.768347e-07
1.7683398e-07
1.7683362e-07
1.7683362e-07
1.7683398e-07
1.768347e-07
1.7683567e-07
1.7683646e-07
1.7683534e-07
1.7682709e-07
1.7679383e-07
1.766939e-07
1.7650878e-07
1.7617685e-07
1.7635766e-07
1.7646037e-07
1.7649498e-07
1.765024e-07
1.7650269e-07
1.7650133e-07
1.7650002e-07
1.764991e-07
1.7649866e-07
1.7649866e-07
1.764991e-07
1.7650001e-07
1.7650133e-07
1.7650269e-07
1.7650239e-07
1.7649497e-07
1.7646035e-07
1.7635765e-07
1.7617683e-07
1.7597443e-07
1.7614472e-07
1.7624538e-07
1.7627988e-07
1.7628578e-07
1.7628483e-07
1.7628265e-07
1.7628085e-07
1.7627967e-07
1.7627912e-07
1.7627911e-07
1.7627967e-07
1.7628085e-07
1.7628264e-07
1.7628482e-07
1.7628577e-07
1.7627987e-07
1.7624536e-07
1.761447e-07
1.7597441e-07
1.7590597e-07
1.7606232e-07
1.7615641e-07
1.761895e-07
1.7619338e-07
1.7619088e-07
1.7618767e-07
1.7618527e-07
1.7618376e-07
1.7618306e-07
1.7618306e-07
1.7618376e-07
1.7618526e-07
1.7618766e-07
1.7619087e-07
1.7619337e-07
1.7618949e-07
1.761564e-07
1.7606231e-07
1.7590595e-07
1.7600652e-07
1.7610873e-07
1.7619213e-07
1.7622261e-07
1.7622406e-07
1.7621977e-07
1.7621532e-07
1.7621219e-07
1.762103e-07
1.7620944e-07
1.7620944e-07
1.762103e-07
1.7621219e-07
1.7621531e-07
1.7621976e-07
1.7622405e-07
1.762226e-07
1.7619212e-07
1.7610871e-07
1.7600651e-07
1.7626496e-07
1.7635946e-07
1.7642379e-07
1.7644966e-07
1.7644862e-07
1.7644242e-07
1.7643628e-07
1.7643217e-07
1.7642979e-07
1.764287e-07
1.764287e-07
1.7642979e-07
1.7643217e-07
1.7643628e-07
1.7644242e-07
1.7644861e-07
1.7644965e-07
1.7642378e-07
1.7635946e-07
1.7626495e-07
1.7667977e-07
1.7676826e-07
1.7681031e-07
1.7683051e-07
1.7682756e-07
1.7681981e-07
1.7681161e-07
1.7680632e-07
1.7680337e-07
1.76802e-07
1.76802e-07
1.7680337e-07
1.7680632e-07
1.768116e-07
1.7681981e-07
1.7682756e-07
1.7683051e-07
1.7681031e-07
1.7676825e-07
1.7667976e-07
1.7723965e-07
1.7732573e-07
1.7734478e-07
1.7735841e-07
1.7735435e-07
1.7734548e-07
1.7733476e-07
1.7732805e-07
1.7732442e-07
1.7732272e-07
1.7732272e-07
1.7732442e-07
1.7732805e-07
1.7733476e-07
1.7734548e-07
1.7735434e-07
1.7735841e-07
1.7734478e-07
1.7732573e-07
1.7723965e-07
1.7792941e-07
1.7802133e-07
1.7801946e-07
1.7802587e-07
1.7802163e-07
1.7801199e-07
1.7799826e-07
1.7798981e-07
1.7798531e-07
1.7798326e-07
1.7798327e-07
1.7798531e-07
1.7798981e-07
1.7799826e-07
1.7801199e-07
1.7802162e-07
1.7802587e-07
1.7801946e-07
1.7802133e-07
1.7792941e-07
1.7873257e-07
1.7884342e-07
1.7882577e-07
1.7882485e-07
1.7882146e-07
1.7881122e-07
1.7879383e-07
1.7878325e-07
1.7877756e-07
1.787753e-07
1.787753e-07
1.7877756e-07
1.7878325e-07
1.7879383e-07
1.7881122e-07
1.7882145e-07
1.7882485e-07
1.7882577e-07
1.7884342e-07
1.7873257e-07
1.7963128e-07
1.7977867e-07
1.7975344e-07
1.7974614e-07
1.7974479e-07
1.7973382e-07
1.797118e-07
1.7969861e-07
1.7969126e-07
1.7968912e-07
1.7968912e-07
1.7969126e-07
1.7969861e-07
1.797118e-07
1.7973382e-07
1.7974479e-07
1.7974614e-07
1.7975344e-07
1.7977868e-07
1.7963128e-07
1.8060482e-07
1.8081123e-07
1.8078963e-07
1.8077844e-07
1.8078074e-07
1.8076845e-07
1.8074036e-07
1.8072399e-07
1.8071425e-07
1.8071287e-07
1.8071287e-07
1.8071425e-07
1.8072399e-07
1.8074036e-07
1.8076845e-07
1.8078074e-07
1.8077844e-07
1.8078963e-07
1.8081123e-07
1.8060482e-07
1.816272e-07
1.8192057e-07
1.8191692e-07
1.8190637e-07
1.8191457e-07
1.8189986e-07
1.8186375e-07
1.8184358e-07
1.818304e-07
1.8183078e-07
1.8183078e-07
1.818304e-07
1.8184358e-07
1.8186375e-07
1.8189986e-07
1.8191457e-07
1.8190638e-07
1.8191692e-07
1.8192057e-07
1.816272e-07
1.8266612e-07
1.8308035e-07
1.8311194e-07
1.8310887e-07
1.8312585e-07
1.831071e-07
1.8306074e-07
1.8303613e-07
1.8301814e-07
1.8302153e-07
1.8302153e-07
1.8301814e-07
1.8303613e-07
1.8306074e-07
1.831071e-07
1.8312585e-07
1.8310887e-07
1.8311194e-07
1.8308035e-07
1.8266612e-07
1.8374948e-07
1.8415689e-07
1.8421959e-07
1.8422935e-07
1.8425041e-07
1.8423264e-07
1.8419034e-07
1.8416905e-07
1.8415156e-07
1.8415715e-07
1.8415715e-07
1.8415156e-07
1.8416905e-07
1.8419033e-07
1.8423264e-07
1.8425041e-07
1.8422935e-07
1.8421959e-07
1.8415689e-07
1.8374948e-07
1.8443758e-07
1.8501506e-07
1.8514078e-07
1.8517216e-07
1.8520668e-07
1.8518209e-07
1.851268e-07
1.8510021e-07
1.8507593e-07
1.8508614e-07
1.8508613e-07
1.8507592e-07
1.8510021e-07
1.851268e-07
1.8518209e-07
1.8520668e-07
1.8517216e-07
1.8514078e-07
1.8501506e-07
1.8443758e-07
1.8507577e-07
1.8587333e-07
1.8608933e-07
1.8615474e-07
1.862079e-07
1.8617466e-07
1.8610419e-07
1.8607148e-07
1.8603915e-07
1.8605525e-07
1.8605525e-07
1.8603914e-07
1.8607147e-07
1.8610418e-07
1.8617466e-07
1.8620789e-07
1.8615474e-07
1.8608933e-07
1.8587333e-07
1.8507576e-07
1.856198e-07
1.8669392e-07
1.8703384e-07
1.8714847e-07
1.8722714e-07
1.8718368e-07
1.8709601e-07
1.8705637e-07
1.870155e-07
1.8703854e-07
1.8703854e-07
1.8701549e-07
1.8705636e-07
1.87096e-07
1.8718367e-07
1.8722714e-07
1.8714847e-07
1.8703383e-07
1.8669392e-07
1.8561979e-07
1.8601651e-07
1.8742954e-07
1.8793375e-07
1.8811616e-07
1.8822928e-07
1.8817476e-07
1.8806817e-07
1.8802084e-07
1.87972e-07
1.8800266e-07
1.8800266e-07
1.8797199e-07
1.8802083e-07
1.8806816e-07
1.8817475e-07
1.8822927e-07
1.8811616e-07
1.8793375e-07
1.8742953e-07
1.8601651e-07
1.8620377e-07
1.8802236e-07
1.8873802e-07
1.8901119e-07
1.8916969e-07
1.8910475e-07
1.8897812e-07
1.8892239e-07
1.8886732e-07
1.8890578e-07
1.8890577e-07
1.8886732e-07
1.8892238e-07
1.8897811e-07
1.8910474e-07
1.8916969e-07
1.8901118e-07
1.8873802e-07
1.8802236e-07
1.8620377e-07
1.8611007e-07
1.8840347e-07
1.8938425e-07
1.8977728e-07
1.8999399e-07
1.8992176e-07
1.8977518e-07
1.897104e-07
1.8965185e-07
1.8969769e-07
1.8969769e-07
1.8965184e-07
1.8971039e-07
1.8977517e-07
1.8992175e-07
1.8999398e-07
1.8977727e-07
1.8938424e-07
1.8840348e-07
1.8611007e-07
1.8565563e-07
1.8848905e-07
1.8979489e-07
1.90344e-07
1.9063354e-07
1.9056103e-07
1.903966e-07
1.9032231e-07
1.9026357e-07
1.9031578e-07
1.9031578e-07
1.9026356e-07
1.903223e-07
1.9039658e-07
1.9056102e-07
1.9063353e-07
1.90344e-07
1.8979489e-07
1.8848906e-07
1.8565565e-07
1.8475812e-07
1.8817813e-07
1.8987418e-07
1.9062211e-07
1.9100175e-07
1.9094082e-07
1.907632e-07
1.9067914e-07
1.9062343e-07
1.9068033e-07
1.9068032e-07
1.9062342e-07
1.9067913e-07
1.9076319e-07
1.9094081e-07
1.9100175e-07
1.9062211e-07
1.8987418e-07
1.8817815e-07
1.8475816e-07
1.8311006e-07
1.8735448e-07
1.8950426e-07
1.9049736e-07
1.9098917e-07
1.9095714e-07
1.9077292e-07
1.9067907e-07
1.9062885e-07
1.9068811e-07
1.9068811e-07
1.9062885e-07
1.9067906e-07
1.9077292e-07
1.9095713e-07
1.9098917e-07
1.9049737e-07
1.8950428e-07
1.8735452e-07
1.8311015e-07
1.8010212e-07
1.8590165e-07
1.8854905e-07
1.8983033e-07
1.9046054e-07
1.9048072e-07
1.9029802e-07
1.9019326e-07
1.9014969e-07
1.9020832e-07
1.9020832e-07
1.9014969e-07
1.9019325e-07
1.9029802e-07
1.9048072e-07
1.9046054e-07
1.8983035e-07
1.8854908e-07
1.8590173e-07
1.8010228e-07
1.7575584e-07
1.8375034e-07
1.8687365e-07
1.8846779e-07
1.8925972e-07
1.8936034e-07
1.8919059e-07
1.8907129e-07
1.8903404e-07
1.8908843e-07
1.8908843e-07
1.8903404e-07
1.8907129e-07
1.8919059e-07
1.8936035e-07
1.8925974e-07
1.8846782e-07
1.8687371e-07
1.8375045e-07
1.757561e-07
1.6971343e-07
1.7934817e-07
1.8439763e-07
1.8627734e-07
1.8723675e-07
1.8744395e-07
1.8730094e-07
1.8716793e-07
1.8713547e-07
1.8718155e-07
1.8718155e-07
1.8713547e-07
1.8716793e-07
1.8730094e-07
1.8744397e-07
1.8723678e-07
1.862774e-07
1.8439772e-07
1.7934843e-07
1.6971381e-07
1.6163412e-07
1.7317819e-07
1.797725e-07
1.8295303e-07
1.8432706e-07
1.8464332e-07
1.8454634e-07
1.8441526e-07
1.8438589e-07
1.8441965e-07
1.8441965e-07
1.843859e-07
1.8441527e-07
1.8454635e-07
1.8464335e-07
1.8432711e-07
1.8295314e-07
1.7977269e-07
1.7317857e-07
1.6163467e-07
1.5131942e-07
1.6479997e-07
1.7290054e-07
1.7691373e-07
1.7891839e-07
1.7958039e-07
1.7952628e-07
1.7935309e-07
1.7930748e-07
1.7934027e-07
1.7934028e-07
1.793075e-07
1.7935311e-07
1.7952632e-07
1.7958045e-07
1.7891848e-07
1.7691388e-07
1.7290079e-07
1.6480047e-07
1.5132014e-07
1.3897342e-07
1.54022e-07
1.6357364e-07
1.6849059e-07
1.7103717e-07
1.7199363e-07
1.7206459e-07
1.7192523e-07
1.7187106e-07
1.7188605e-07
1.7188606e-07
1.7187108e-07
1.7192527e-07
1.7206464e-07
1.7199371e-07
1.7103728e-07
1.6849079e-07
1.6357397e-07
1.5402261e-07
1.3897428e-07
1.2519372e-07
1.4096998e-07
1.5160661e-07
1.5738485e-07
1.6050108e-07
1.6181197e-07
1.6204629e-07
1.6199639e-07
1.6193377e-07
1.6192829e-07
1.619283e-07
1.6193379e-07
1.6199644e-07
1.6204636e-07
1.6181206e-07
1.6050122e-07
1.5738508e-07
1.51607e-07
1.4097066e-07
1.2519465e-07
1.1084629e-07
1.2628305e-07
1.3732415e-07
1.4371322e-07
1.4731976e-07
1.4897699e-07
1.4938402e-07
1.4952723e-07
1.4945913e-07
1.4943234e-07
1.4943235e-07
1.4945916e-07
1.4952728e-07
1.4938409e-07
1.4897709e-07
1.4731991e-07
1.4371346e-07
1.3732455e-07
1.2628376e-07
1.1084727e-07
0.00044275797
0.00044524489
1.2082819e-07
1.2679923e-07
1.3011163e-07
1.3196909e-07
1.3241113e-07
1.3264332e-07
1.3254767e-07
1.3249091e-07
1.3249091e-07
1.3254769e-07
1.3264335e-07
1.3241117e-07
1.3196916e-07
1.3011173e-07
1.2679941e-07
1.208285e-07
0.00044524555
0.00044275858
)
;

boundaryField
{
    Wall
    {
        type            calculated;
        value           uniform 4e-05;
    }
    frontAndBack
    {
        type            empty;
    }
    atmosphere
    {
        type            calculated;
        value           uniform 4e-05;
    }
}


// ************************************************************************* //
