/*--------------------------------*- C++ -*----------------------------------*\
| =========                 |                                                 |
| \\      /  F ield         | OpenFOAM: The Open Source CFD Toolbox           |
|  \\    /   O peration     | Version:  3.0.1                                 |
|   \\  /    A nd           | Web:      www.OpenFOAM.org                      |
|    \\/     M anipulation  |                                                 |
\*---------------------------------------------------------------------------*/
FoamFile
{
    version     2.0;
    format      ascii;
    class       volScalarField;
    location    "40";
    object      mTwo;
}
// * * * * * * * * * * * * * * * * * * * * * * * * * * * * * * * * * * * * * //

dimensions      [0 0 0 0 0 0 0];

internalField   nonuniform List<scalar> 
800
(
4.9048391e-11
4.9056351e-11
4.9056806e-11
4.90564e-11
4.9056084e-11
4.9055905e-11
4.9055816e-11
4.9055776e-11
4.905576e-11
4.9055754e-11
4.9055754e-11
4.905576e-11
4.9055776e-11
4.9055816e-11
4.9055906e-11
4.9056085e-11
4.90564e-11
4.9056808e-11
4.9056352e-11
4.9048392e-11
4.8991406e-11
4.9028829e-11
4.9038699e-11
4.9041311e-11
4.9041763e-11
4.9041628e-11
4.9041394e-11
4.9041204e-11
4.9041083e-11
4.9041023e-11
4.9041024e-11
4.9041082e-11
4.9041204e-11
4.9041394e-11
4.9041627e-11
4.9041762e-11
4.904131e-11
4.9038698e-11
4.9028827e-11
4.8991402e-11
4.884906e-11
4.8910847e-11
4.8931932e-11
4.8937856e-11
4.8939134e-11
4.8939059e-11
4.8938698e-11
4.8938378e-11
4.8938168e-11
4.8938065e-11
4.8938066e-11
4.8938167e-11
4.8938377e-11
4.8938697e-11
4.8939057e-11
4.8939132e-11
4.8937854e-11
4.8931928e-11
4.8910843e-11
4.8849052e-11
4.8753359e-11
4.8830726e-11
4.8861507e-11
4.887007e-11
4.887191e-11
4.8871826e-11
4.8871342e-11
4.8870916e-11
4.8870638e-11
4.8870505e-11
4.8870505e-11
4.8870638e-11
4.8870915e-11
4.887134e-11
4.8871824e-11
4.8871907e-11
4.8870066e-11
4.8861502e-11
4.883072e-11
4.8753348e-11
4.8754066e-11
4.8837719e-11
4.8875602e-11
4.8885924e-11
4.888791e-11
4.8887676e-11
4.8887035e-11
4.8886513e-11
4.8886182e-11
4.8886028e-11
4.8886028e-11
4.8886181e-11
4.8886511e-11
4.8887033e-11
4.8887674e-11
4.8887907e-11
4.888592e-11
4.8875597e-11
4.8837712e-11
4.8754054e-11
4.8881658e-11
4.896142e-11
4.9003168e-11
4.9014171e-11
4.901572e-11
4.9015093e-11
4.9014205e-11
4.9013561e-11
4.9013175e-11
4.9013003e-11
4.9013003e-11
4.9013175e-11
4.901356e-11
4.9014203e-11
4.9015091e-11
4.9015717e-11
4.9014167e-11
4.9003163e-11
4.8961413e-11
4.8881646e-11
4.9163094e-11
4.9227801e-11
4.9269557e-11
4.927996e-11
4.9280351e-11
4.9278999e-11
4.927772e-11
4.9276896e-11
4.9276434e-11
4.9276238e-11
4.9276238e-11
4.9276433e-11
4.9276895e-11
4.9277718e-11
4.9278997e-11
4.9280348e-11
4.9279957e-11
4.9269553e-11
4.9227795e-11
4.9163084e-11
4.9623868e-11
4.9661509e-11
4.9698708e-11
4.9707028e-11
4.9705438e-11
4.9702958e-11
4.9701095e-11
4.9700002e-11
4.9699425e-11
4.969919e-11
4.969919e-11
4.9699424e-11
4.9700002e-11
4.9701094e-11
4.9702957e-11
4.9705436e-11
4.9707026e-11
4.9698705e-11
4.9661505e-11
4.962386e-11
5.0288326e-11
5.0286091e-11
5.0313294e-11
5.0317878e-11
5.0313457e-11
5.0309408e-11
5.0306744e-11
5.0305276e-11
5.0304535e-11
5.0304243e-11
5.0304244e-11
5.0304535e-11
5.0305276e-11
5.0306744e-11
5.0309408e-11
5.0313457e-11
5.0317878e-11
5.0313293e-11
5.0286089e-11
5.0288321e-11
5.1179782e-11
5.1125066e-11
5.1135885e-11
5.1134875e-11
5.1126785e-11
5.1120701e-11
5.1116968e-11
5.1114986e-11
5.1114017e-11
5.1113642e-11
5.1113643e-11
5.1114018e-11
5.1114987e-11
5.111697e-11
5.1120703e-11
5.1126787e-11
5.1134877e-11
5.1135886e-11
5.1125067e-11
5.117978e-11
5.2314369e-11
5.2196325e-11
5.2183866e-11
5.2175299e-11
5.2162853e-11
5.2154322e-11
5.2149215e-11
5.2146551e-11
5.2145275e-11
5.2144781e-11
5.2144781e-11
5.2145276e-11
5.2146554e-11
5.2149218e-11
5.2154325e-11
5.2162857e-11
5.2175304e-11
5.2183871e-11
5.2196328e-11
5.2314371e-11
5.3698028e-11
5.3510666e-11
5.3467828e-11
5.3449727e-11
5.343246e-11
5.3421205e-11
5.3414409e-11
5.3410893e-11
5.3409235e-11
5.3408589e-11
5.340859e-11
5.3409238e-11
5.3410896e-11
5.3414414e-11
5.3421211e-11
5.3432466e-11
5.3449734e-11
5.3467836e-11
5.3510673e-11
5.3698034e-11
5.5346391e-11
5.5076632e-11
5.4995477e-11
5.4965676e-11
5.4943346e-11
5.4929242e-11
5.4920377e-11
5.4915796e-11
5.4913683e-11
5.4912841e-11
5.4912842e-11
5.4913686e-11
5.49158e-11
5.4920384e-11
5.4929249e-11
5.4943355e-11
5.4965686e-11
5.4995488e-11
5.5076643e-11
5.53464e-11
5.7268167e-11
5.6908961e-11
5.6782305e-11
5.6738393e-11
5.6710882e-11
5.6693883e-11
5.6682508e-11
5.6676574e-11
5.667392e-11
5.6672822e-11
5.6672824e-11
5.6673923e-11
5.667658e-11
5.6682515e-11
5.6693893e-11
5.6710893e-11
5.6738406e-11
5.6782319e-11
5.6908976e-11
5.726818e-11
5.94717e-11
5.9019032e-11
5.8840686e-11
5.8779946e-11
5.8747302e-11
5.8727478e-11
5.871304e-11
5.8705381e-11
5.8702057e-11
5.8700638e-11
5.870064e-11
5.8702061e-11
5.8705388e-11
5.8713049e-11
5.8727489e-11
5.8747315e-11
5.8779961e-11
5.8840702e-11
5.9019049e-11
5.9471717e-11
6.1964096e-11
6.1416505e-11
6.1182073e-11
6.1101562e-11
6.1064058e-11
6.1041549e-11
6.1023275e-11
6.1013413e-11
6.100919e-11
6.1007433e-11
6.1007435e-11
6.1009195e-11
6.1013421e-11
6.1023286e-11
6.1041562e-11
6.1064074e-11
6.1101581e-11
6.1182093e-11
6.1416526e-11
6.1964119e-11
6.4738948e-11
6.4099448e-11
6.380715e-11
6.3704247e-11
6.3662645e-11
6.3637638e-11
6.3614485e-11
6.3601899e-11
6.3596429e-11
6.3594489e-11
6.3594491e-11
6.3596434e-11
6.3601907e-11
6.3614496e-11
6.3637653e-11
6.3662662e-11
6.3704267e-11
6.3807172e-11
6.4099471e-11
6.4738973e-11
6.7783785e-11
6.7060674e-11
6.671168e-11
6.6584435e-11
6.6539961e-11
6.6512349e-11
6.6482775e-11
6.6466864e-11
6.6459578e-11
6.6457926e-11
6.6457928e-11
6.6459583e-11
6.6466872e-11
6.6482787e-11
6.6512364e-11
6.6539979e-11
6.6584456e-11
6.6711703e-11
6.7060699e-11
6.7783811e-11
7.1084252e-11
7.0291327e-11
6.9889616e-11
6.9737232e-11
6.9691603e-11
6.9660632e-11
6.9622438e-11
6.9602499e-11
6.9592485e-11
6.959204e-11
6.9592042e-11
6.9592491e-11
6.9602507e-11
6.962245e-11
6.9660648e-11
6.9691621e-11
6.9737254e-11
6.988964e-11
7.0291352e-11
7.1084279e-11
7.4625177e-11
7.3782105e-11
7.3334475e-11
7.3157834e-11
7.3113297e-11
7.3077312e-11
7.3027604e-11
7.3002855e-11
7.298872e-11
7.2990932e-11
7.2990934e-11
7.2988726e-11
7.3002864e-11
7.3027616e-11
7.3077328e-11
7.3113317e-11
7.3157857e-11
7.3334501e-11
7.3782132e-11
7.4625206e-11
7.8379665e-11
7.7513771e-11
7.7029749e-11
7.6831825e-11
7.6791072e-11
7.6747446e-11
7.6682807e-11
7.6652399e-11
7.663218e-11
7.6639e-11
7.6639002e-11
7.6632185e-11
7.6652407e-11
7.6682818e-11
7.6747461e-11
7.679109e-11
7.6831846e-11
7.7029772e-11
7.7513796e-11
7.837969e-11
8.231975e-11
8.1467011e-11
8.0959294e-11
8.0745188e-11
8.0711145e-11
8.0656447e-11
8.0573273e-11
8.0536352e-11
8.0507658e-11
8.0521429e-11
8.0521431e-11
8.0507662e-11
8.0536359e-11
8.0573283e-11
8.065646e-11
8.0711161e-11
8.0745208e-11
8.0959315e-11
8.1467033e-11
8.2319771e-11
8.6415619e-11
8.5621319e-11
8.5106582e-11
8.4883473e-11
8.4859413e-11
8.4789715e-11
8.4684514e-11
8.4640244e-11
8.4600646e-11
8.4623902e-11
8.4623903e-11
8.4600648e-11
8.4640248e-11
8.4684521e-11
8.4789725e-11
8.4859426e-11
8.4883489e-11
8.5106598e-11
8.5621336e-11
8.6415633e-11
9.0620063e-11
8.9941696e-11
8.9441869e-11
8.9218592e-11
8.920851e-11
8.9119591e-11
8.8989113e-11
8.8936723e-11
8.8884468e-11
8.8919668e-11
8.8919669e-11
8.8884469e-11
8.8936725e-11
8.8989118e-11
8.9119598e-11
8.920852e-11
8.9218604e-11
8.944188e-11
8.9941707e-11
9.0620071e-11
9.4881259e-11
9.4389384e-11
9.3933819e-11
9.3721061e-11
9.3730451e-11
9.3617948e-11
9.3459057e-11
9.3397852e-11
9.3332575e-11
9.33819e-11
9.3381901e-11
9.3332574e-11
9.3397852e-11
9.3459058e-11
9.3617952e-11
9.3730456e-11
9.3721067e-11
9.3933824e-11
9.4389388e-11
9.4881261e-11
9.9128376e-11
9.8910711e-11
9.8537824e-11
9.8348828e-11
9.8385076e-11
9.824511e-11
9.8054823e-11
9.7984365e-11
9.7907716e-11
9.7972933e-11
9.7972933e-11
9.7907714e-11
9.7984362e-11
9.8054821e-11
9.8245109e-11
9.8385076e-11
9.8348828e-11
9.8537824e-11
9.8910709e-11
9.9128371e-11
1.0326235e-10
1.0342937e-10
1.0318884e-10
1.0304173e-10
1.0311384e-10
1.0294384e-10
1.0271972e-10
1.0263978e-10
1.025556e-10
1.0263794e-10
1.0263794e-10
1.025556e-10
1.0263977e-10
1.0271971e-10
1.0294384e-10
1.0311384e-10
1.0304173e-10
1.0318883e-10
1.0342936e-10
1.0326234e-10
1.0715464e-10
1.0784732e-10
1.0780347e-10
1.0772454e-10
1.0784262e-10
1.0764263e-10
1.0738353e-10
1.0729408e-10
1.0720819e-10
1.0730826e-10
1.0730826e-10
1.0720818e-10
1.0729407e-10
1.0738352e-10
1.0764262e-10
1.0784261e-10
1.0772453e-10
1.0780346e-10
1.0784731e-10
1.0715463e-10
1.106284e-10
1.1202811e-10
1.1226593e-10
1.1229371e-10
1.1246923e-10
1.1224415e-10
1.1195158e-10
1.1185298e-10
1.1177262e-10
1.1189045e-10
1.1189045e-10
1.1177261e-10
1.1185297e-10
1.1195156e-10
1.1224414e-10
1.1246922e-10
1.122937e-10
1.1226591e-10
1.120281e-10
1.106284e-10
1.1344505e-10
1.157829e-10
1.1641822e-10
1.166063e-10
1.1685414e-10
1.1661522e-10
1.1629394e-10
1.1618674e-10
1.1611959e-10
1.162546e-10
1.162546e-10
1.1611959e-10
1.1618673e-10
1.1629393e-10
1.166152e-10
1.1685413e-10
1.1660629e-10
1.1641821e-10
1.157829e-10
1.1344508e-10
1.1528153e-10
1.1884668e-10
1.2003899e-10
1.2045915e-10
1.20804e-10
1.2057036e-10
1.2022691e-10
1.2011155e-10
1.2006467e-10
1.2021563e-10
1.2021563e-10
1.2006466e-10
1.2011154e-10
1.202269e-10
1.2057035e-10
1.2080399e-10
1.2045914e-10
1.2003899e-10
1.1884671e-10
1.152816e-10
1.157092e-10
1.2085224e-10
1.2282e-10
1.2356648e-10
1.2404821e-10
1.2384969e-10
1.2349074e-10
1.2336404e-10
1.2334268e-10
1.2350759e-10
1.2350759e-10
1.2334267e-10
1.2336404e-10
1.2349073e-10
1.2384968e-10
1.240482e-10
1.2356649e-10
1.2282002e-10
1.2085231e-10
1.1570935e-10
1.1417641e-10
1.2131453e-10
1.2434374e-10
1.2553942e-10
1.2621354e-10
1.2609366e-10
1.257285e-10
1.2557801e-10
1.2558462e-10
1.2576049e-10
1.2576049e-10
1.2558462e-10
1.2557801e-10
1.257285e-10
1.2609366e-10
1.2621355e-10
1.2553944e-10
1.243438e-10
1.2131468e-10
1.1417667e-10
1.1004831e-10
1.1962856e-10
1.2406224e-10
1.2586394e-10
1.268011e-10
1.2681619e-10
1.2645466e-10
1.2626712e-10
1.2630071e-10
1.2648327e-10
1.2648327e-10
1.2630071e-10
1.2626713e-10
1.2645467e-10
1.2681621e-10
1.2680113e-10
1.25864e-10
1.2406236e-10
1.1962883e-10
1.1004874e-10
1.0274867e-10
1.151118e-10
1.2130105e-10
1.2389293e-10
1.2517862e-10
1.2537931e-10
1.2504166e-10
1.2482287e-10
1.248786e-10
1.25062e-10
1.25062e-10
1.2487861e-10
1.2482289e-10
1.2504169e-10
1.2537935e-10
1.2517869e-10
1.2389304e-10
1.2130125e-10
1.1511223e-10
1.0274932e-10
9.1999726e-11
1.0716292e-10
1.1533634e-10
1.1887094e-10
1.2061556e-10
1.2103546e-10
1.207646e-10
1.2054894e-10
1.2061869e-10
1.2079539e-10
1.2079539e-10
1.2061871e-10
1.2054898e-10
1.2076465e-10
1.2103553e-10
1.2061567e-10
1.1887111e-10
1.1533663e-10
1.0716351e-10
9.2000586e-11
7.8250962e-11
9.5591543e-11
1.0559441e-10
1.101151e-10
1.1238739e-10
1.1308202e-10
1.1293239e-10
1.1275138e-10
1.1282511e-10
1.1298622e-10
1.1298623e-10
1.1282514e-10
1.1275144e-10
1.1293247e-10
1.1308213e-10
1.1238754e-10
1.1011533e-10
1.055948e-10
9.5592266e-11
7.825195e-11
6.2633062e-11
8.0821127e-11
9.1982117e-11
9.7343948e-11
1.0011821e-10
1.0112435e-10
1.0113463e-10
1.0106156e-10
1.01132e-10
1.0126966e-10
1.0126968e-10
1.0113204e-10
1.0106163e-10
1.0113472e-10
1.0112448e-10
1.0011839e-10
9.7344228e-11
9.1982563e-11
8.0821898e-11
6.2634049e-11
4.6646418e-11
6.3970278e-11
7.5216291e-11
8.10295e-11
8.4160188e-11
8.545324e-11
8.5626073e-11
8.5780894e-11
8.5844257e-11
8.5952914e-11
8.5952929e-11
8.5844301e-11
8.5780972e-11
8.5626174e-11
8.5453378e-11
8.4160381e-11
8.1029788e-11
7.5216734e-11
6.3971016e-11
4.6647345e-11
3.4421838e-11
4.632618e-11
5.5282361e-11
6.0262083e-11
6.280329e-11
6.4199925e-11
6.4370579e-11
6.4629177e-11
6.4639063e-11
6.469205e-11
6.4692059e-11
6.4639089e-11
6.4629223e-11
6.4370637e-11
6.4200009e-11
6.2803407e-11
6.0262266e-11
5.5282652e-11
4.6326718e-11
3.4422677e-11
)
;

boundaryField
{
    Wall
    {
        type            zeroGradient;
    }
    frontAndBack
    {
        type            empty;
    }
    atmosphere
    {
        type            zeroGradient;
    }
}


// ************************************************************************* //
