/*--------------------------------*- C++ -*----------------------------------*\
| =========                 |                                                 |
| \\      /  F ield         | OpenFOAM: The Open Source CFD Toolbox           |
|  \\    /   O peration     | Version:  3.0.1                                 |
|   \\  /    A nd           | Web:      www.OpenFOAM.org                      |
|    \\/     M anipulation  |                                                 |
\*---------------------------------------------------------------------------*/
FoamFile
{
    version     2.0;
    format      ascii;
    class       volScalarField;
    location    "25";
    object      alpha.gas;
}
// * * * * * * * * * * * * * * * * * * * * * * * * * * * * * * * * * * * * * //

dimensions      [0 0 0 0 0 0 0];

internalField   nonuniform List<scalar> 
800
(
2.3774055e-28
2.2928891e-25
4.4086636e-22
8.6255398e-22
9.1029313e-24
1.0657899e-21
9.3113138e-22
5.7234166e-23
1.7352447e-25
2.3521877e-28
3.047465e-23
2.9662295e-23
3.288153e-25
6.9052266e-23
6.7831696e-23
1.5928707e-27
3.0523079e-32
1.3233472e-35
2.6080206e-39
4.8466181e-43
2.1953648e-12
5.0111675e-13
3.5806639e-11
1.2963297e-11
5.60226e-13
1.6953543e-11
1.3385384e-11
1.6101081e-11
3.272562e-11
8.2191197e-11
4.1306321e-11
4.1110759e-11
2.2235192e-11
1.3184054e-11
1.2424018e-11
2.4172223e-12
4.8041569e-16
7.8350035e-14
6.9247061e-12
9.5685405e-15
3.4603836e-07
3.1673509e-07
3.0967187e-07
3.0881634e-07
3.0917255e-07
3.0978769e-07
3.1026712e-07
3.1059509e-07
3.1079634e-07
3.1091508e-07
3.1088822e-07
3.1080201e-07
3.1059939e-07
3.1026736e-07
3.0978536e-07
3.0917449e-07
3.0880858e-07
3.0964927e-07
3.1674037e-07
3.4603842e-07
1.5731605e-06
1.4349347e-06
1.4029102e-06
1.3999508e-06
1.4019351e-06
1.4047656e-06
1.4069486e-06
1.4083951e-06
1.4092529e-06
1.4096644e-06
1.4096411e-06
1.4092585e-06
1.4084e-06
1.4069503e-06
1.4047654e-06
1.4019389e-06
1.3999462e-06
1.4028928e-06
1.4349419e-06
1.573164e-06
4.2531009e-06
3.8686997e-06
3.7798553e-06
3.7738503e-06
3.7803307e-06
3.7882828e-06
3.7942451e-06
3.7980853e-06
3.8003333e-06
3.8013635e-06
3.8013414e-06
3.8003399e-06
3.7980921e-06
3.7942495e-06
3.7882854e-06
3.7803375e-06
3.7738485e-06
3.7798412e-06
3.8687094e-06
4.2531076e-06
8.9201477e-06
8.0928596e-06
7.8976184e-06
7.8890467e-06
7.905282e-06
7.922841e-06
7.9355206e-06
7.9434434e-06
7.9480035e-06
7.9500324e-06
7.9500111e-06
7.9480121e-06
7.9434522e-06
7.9355277e-06
7.9228459e-06
7.9052916e-06
7.8890462e-06
7.8976056e-06
8.0928698e-06
8.9201551e-06
1.6039871e-05
1.4515747e-05
1.4138128e-05
1.4129454e-05
1.4165066e-05
1.4198337e-05
1.4221309e-05
1.4235182e-05
1.4242998e-05
1.4246376e-05
1.4246356e-05
1.4243008e-05
1.4235192e-05
1.4221318e-05
1.4198342e-05
1.4165076e-05
1.4129452e-05
1.4138113e-05
1.4515755e-05
1.6039877e-05
2.6037076e-05
2.3496311e-05
2.2829883e-05
2.2824907e-05
2.2889985e-05
2.294777e-05
2.2984532e-05
2.3005838e-05
2.3017603e-05
2.3022519e-05
2.30225e-05
2.3017613e-05
2.3005849e-05
2.298454e-05
2.2947774e-05
2.2889989e-05
2.2824898e-05
2.2829863e-05
2.3496315e-05
2.603708e-05
3.9441632e-05
3.54197e-05
3.4357837e-05
3.4361622e-05
3.4469188e-05
3.4555142e-05
3.4606696e-05
3.4635721e-05
3.4651681e-05
3.4657953e-05
3.4657934e-05
3.465169e-05
3.4635731e-05
3.4606701e-05
3.455514e-05
3.4469186e-05
3.4361604e-05
3.4357811e-05
3.54197e-05
3.9441639e-05
5.736465e-05
5.1003144e-05
4.9512742e-05
4.9523253e-05
4.9684025e-05
4.9799659e-05
4.9864176e-05
4.9899407e-05
4.9919779e-05
4.9926831e-05
4.9926813e-05
4.9919787e-05
4.9899413e-05
4.9864175e-05
4.9799648e-05
4.9684013e-05
4.9523224e-05
4.9512709e-05
5.1003142e-05
5.7364662e-05
8.3540418e-05
7.2730327e-05
7.0739855e-05
7.0707888e-05
7.0906612e-05
7.1041602e-05
7.1109348e-05
7.1144311e-05
7.1173612e-05
7.1179472e-05
7.1179454e-05
7.1173616e-05
7.1144312e-05
7.1109339e-05
7.1041577e-05
7.0906585e-05
7.0707843e-05
7.073981e-05
7.2730317e-05
8.354043e-05
0.00013433934
0.00011193446
0.00010811261
0.00010767761
0.00010772854
0.00010777924
0.00010779148
0.00010778869
0.00010782704
0.00010782117
0.00010782116
0.00010782704
0.00010778868
0.00010779145
0.00010777919
0.00010772848
0.00010767752
0.00010811253
0.00011193441
0.00013433931
0.00030435878
0.00023230585
0.00021744364
0.00021371207
0.00021203852
0.00021116801
0.00021068348
0.00021036386
0.00021022288
0.00021012985
0.00021012981
0.00021022285
0.00021036378
0.00021068335
0.0002111678
0.00021203828
0.00021371177
0.00021744333
0.00023230551
0.00030435824
0.0014818261
0.00099568745
0.00087265497
0.00083478912
0.00081373149
0.00080255641
0.00079659715
0.00079278186
0.00078949842
0.00078845717
0.00078845698
0.00078949793
0.00079278104
0.00079659591
0.00080255476
0.00081372949
0.00083478678
0.00087265212
0.00099568357
0.0014818179
0.025362329
0.013921612
0.011146576
0.010222207
0.0096866883
0.0094156063
0.0092710552
0.0091840288
0.0091051599
0.0090841462
0.0090841427
0.0091051463
0.0091840094
0.0092710256
0.0094155687
0.0096866398
0.010222149
0.011146504
0.0139215
0.025362058
0.437223
0.32295025
0.28374663
0.2681585
0.25858848
0.25349404
0.25018465
0.24842717
0.24687076
0.24645665
0.24645658
0.24687048
0.24842678
0.25018405
0.25349329
0.25858758
0.26815746
0.28374545
0.32294876
0.43722087
0.92826909
0.88389564
0.86448016
0.85605477
0.85065421
0.84770143
0.84562959
0.84457562
0.84363914
0.84338825
0.8433882
0.84363897
0.84457538
0.84562923
0.84770098
0.85065369
0.85605419
0.86447952
0.88389496
0.92826841
0.99867358
0.99673169
0.99558763
0.99507572
0.99474296
0.99455688
0.99441625
0.99434741
0.9942862
0.99426991
0.9942699
0.99428618
0.99434739
0.99441622
0.99455685
0.99474293
0.99507568
0.9955876
0.99673166
0.99867355
0.99999805
0.99999016
0.99998355
0.99998059
0.99997878
0.99997779
0.99997705
0.99997668
0.99997634
0.99997626
0.99997626
0.99997634
0.99997668
0.99997705
0.99997779
0.99997878
0.99998059
0.99998355
0.99999016
0.99999805
1
1
1
0.99999999
0.99999999
0.99999999
0.99999999
0.99999999
0.99999999
0.99999999
0.99999999
0.99999999
0.99999999
0.99999999
0.99999999
0.99999999
0.99999999
1
1
1
1
1
1
1
1
1
1
1
1
1
1
1
1
1
1
1
1
1
1
1
1
1
1
1
1
1
1
1
1
1
1
1
1
1
1
1
1
1
1
1
1
1
1
1
1
1
1
1
1
1
1
1
1
1
1
1
1
1
1
1
1
1
1
1
1
1
1
1
1
1
1
1
1
1
1
1
1
1
1
1
1
1
1
1
1
1
1
1
1
1
1
1
1
1
1
1
1
1
1
1
1
1
1
1
1
1
1
1
1
1
1
1
1
1
1
1
1
1
1
1
1
1
1
1
1
1
1
1
1
1
1
1
1
1
1
1
1
1
1
1
1
1
1
1
1
1
1
1
1
1
1
1
1
1
1
1
1
1
1
1
1
1
1
1
1
1
1
1
1
1
1
1
1
1
1
1
1
1
1
1
1
1
1
1
1
1
1
1
1
1
1
1
1
1
1
1
1
1
1
1
1
1
1
1
1
1
1
1
1
1
1
1
1
1
1
1
1
1
1
1
1
1
1
1
1
1
1
1
1
1
1
1
1
1
1
1
1
1
1
1
1
1
1
1
1
1
1
1
1
1
1
1
1
1
1
1
1
1
1
1
1
1
1
1
1
1
1
1
1
1
1
1
1
1
1
1
1
1
1
1
1
1
1
1
1
1
1
1
1
1
1
1
1
1
1
1
1
1
1
1
1
1
1
1
1
1
1
1
1
1
1
1
1
1
1
1
1
1
1
1
1
1
1
1
1
1
1
1
1
1
1
1
1
1
1
1
1
1
1
1
1
1
1
1
1
1
1
1
1
1
1
1
1
1
1
1
1
1
1
1
1
1
1
1
1
1
1
1
1
1
1
1
1
1
1
1
1
1
1
1
1
1
1
1
1
1
1
1
1
1
1
1
1
1
1
1
1
1
1
1
)
;

boundaryField
{
    Wall
    {
        type            zeroGradient;
    }
    frontAndBack
    {
        type            empty;
    }
    atmosphere
    {
        type            zeroGradient;
    }
}


// ************************************************************************* //
