/*--------------------------------*- C++ -*----------------------------------*\
| =========                 |                                                 |
| \\      /  F ield         | OpenFOAM: The Open Source CFD Toolbox           |
|  \\    /   O peration     | Version:  3.0.1                                 |
|   \\  /    A nd           | Web:      www.OpenFOAM.org                      |
|    \\/     M anipulation  |                                                 |
\*---------------------------------------------------------------------------*/
FoamFile
{
    version     2.0;
    format      ascii;
    class       volScalarField;
    location    "25";
    object      g1_BA;
}
// * * * * * * * * * * * * * * * * * * * * * * * * * * * * * * * * * * * * * //

dimensions      [0 0 0 0 0 0 0];

internalField   nonuniform List<scalar> 
800
(
0.43814699
0.43826703
0.43828866
0.43829155
0.43829213
0.43829265
0.4382933
0.4382939
0.43829434
0.43829456
0.43829456
0.43829433
0.43829389
0.4382933
0.43829265
0.43829212
0.43829156
0.43828867
0.43826704
0.438147
0.40695066
0.40828283
0.40858414
0.40862826
0.40861815
0.40860342
0.40859383
0.40858915
0.4085873
0.40858672
0.40858673
0.40858729
0.40858914
0.40859383
0.40860341
0.40861813
0.40862825
0.40858412
0.4082828
0.40695061
0.36774048
0.37005927
0.37072298
0.3708422
0.37083586
0.37081166
0.370794
0.37078466
0.37078062
0.37077927
0.37077927
0.37078062
0.37078464
0.37079399
0.37081164
0.37083583
0.37084217
0.37072294
0.37005922
0.36774039
0.32788734
0.33103352
0.33199928
0.33217506
0.33216865
0.33213412
0.33210824
0.33209384
0.33208725
0.33208488
0.33208488
0.33208724
0.33209382
0.33210822
0.33213409
0.33216861
0.33217502
0.33199923
0.33103346
0.32788724
0.29141953
0.29515761
0.29637786
0.29659494
0.29658265
0.29653519
0.29650004
0.29647966
0.29646988
0.29646611
0.29646611
0.29646987
0.29647964
0.29650002
0.29653515
0.29658261
0.2965949
0.29637782
0.29515757
0.29141946
0.25992653
0.26402883
0.26547589
0.2657288
0.26570697
0.26564409
0.26559816
0.26557047
0.2655567
0.26555104
0.26555104
0.2655567
0.26557045
0.26559814
0.26564407
0.26570695
0.26572878
0.26547587
0.26402881
0.2599265
0.2330939
0.23753507
0.2391444
0.23943988
0.23941
0.2393318
0.23927497
0.2392396
0.23922163
0.23921387
0.23921387
0.23922162
0.23923959
0.23927496
0.2393318
0.23941
0.23943989
0.23914441
0.23753509
0.23309392
0.2094064
0.21436337
0.21603553
0.21639389
0.21636367
0.21627379
0.21620838
0.21616675
0.21614532
0.21613574
0.21613574
0.21614532
0.21616675
0.21620838
0.21627381
0.21636369
0.21639393
0.21603557
0.21436342
0.20940646
0.18660323
0.192399
0.19408151
0.19454026
0.19452689
0.19443441
0.19436733
0.19432412
0.1943017
0.19429144
0.19429144
0.1943017
0.19432412
0.19436734
0.19443444
0.19452693
0.19454032
0.19408158
0.19239908
0.18660332
0.16209519
0.16909451
0.17083465
0.17144894
0.17149186
0.17141975
0.1713663
0.17133104
0.17131244
0.17130398
0.17130398
0.17131244
0.17133104
0.17136632
0.17141979
0.17149191
0.17144901
0.17083473
0.1690946
0.16209528
0.13312954
0.14159754
0.1435452
0.14439565
0.14458315
0.14458332
0.14457043
0.1445596
0.14455221
0.1445497
0.14454969
0.1445522
0.1445596
0.14457044
0.14458336
0.1445832
0.14439573
0.14354527
0.14159763
0.13312961
0.097519897
0.10694488
0.10964649
0.11084546
0.11093029
0.11104865
0.11110867
0.11114582
0.11117087
0.11118228
0.11118228
0.11117087
0.11114581
0.11110868
0.11104868
0.11093033
0.11084552
0.10964654
0.10694494
0.09751994
0.055457394
0.064478577
0.068117525
0.069170594
0.069390397
0.069646195
0.069802722
0.069929337
0.070147902
0.070203886
0.070203883
0.070147897
0.06992933
0.069802726
0.069646212
0.069390425
0.069170632
0.06811756
0.06447861
0.05545742
0.014299463
0.020923827
0.023969505
0.025025806
0.025502683
0.025811074
0.026027833
0.026167597
0.026043073
0.026092538
0.026092537
0.026043073
0.026167595
0.026027838
0.025811087
0.025502702
0.025025831
0.023969529
0.020923854
0.014299496
0
0
0
0
0
0
0
0
0
0
0
0
0
0
0
0
0
0
0
0
0
0
0
0
0
0
0
0
0
0
0
0
0
0
0
0
0
0
0
0
0
0
0
0
0
0
0
0
0
0
0
0
0
0
0
0
0
0
0
0
0
0
0
0
0
0
0
0
0
0
0
0
0
0
0
0
0
0
0
0
0
0
0
0
0
0
0
0
0
0
0
0
0
0
0
0
0
0
0
0
0
0
0
0
0
0
0
0
0
0
0
0
0
0
0
0
0
0
0
0
0
0
0
0
0
0
0
0
0
0
0
0
0
0
0
0
0
0
0
0
0
0
0
0
0
0
0
0
0
0
0
0
0
0
0
0
0
0
0
0
0
0
0
0
0
0
0
0
0
0
0
0
0
0
0
0
0
0
0
0
0
0
0
0
0
0
0
0
0
0
0
0
0
0
0
0
0
0
0
0
0
0
0
0
0
0
0
0
0
0
0
0
0
0
0
0
0
0
0
0
0
0
0
0
0
0
0
0
0
0
0
0
0
0
0
0
0
0
0
0
0
0
0
0
0
0
0
0
0
0
0
0
0
0
0
0
0
0
0
0
0
0
0
0
0
0
0
0
0
0
0
0
0
0
0
0
0
0
0
0
0
0
0
0
0
0
0
0
0
0
0
0
0
0
0
0
0
0
0
0
0
0
0
0
0
0
0
0
0
0
0
0
0
0
0
0
0
0
0
0
0
0
0
0
0
0
0
0
0
0
0
0
0
0
0
0
0
0
0
0
0
0
0
0
0
0
0
0
0
0
0
0
0
0
0
0
0
0
0
0
0
0
0
0
0
0
0
0
0
0
0
0
0
0
0
0
0
0
0
0
0
0
0
0
0
0
0
0
0
0
0
0
0
0
0
0
0
0
0
0
0
0
0
0
0
0
0
0
0
0
0
0
0
0
0
0
0
0
0
0
0
0
0
0
0
0
0
0
0
0
0
0
0
0
0
0
0
0
0
0
0
0
0
0
0
0
0
0
0
0
0
0
0
0
0
0
0
0
0
0
0
0
0
0
0
0
0
0
0
0
0
0
0
0
0
0
0
0
0
0
0
0
0
0
0
0
0
0
0
0
0
0
0
0
0
0
0
0
0
0
0
0
0
0
0
0
0
0
0
0
0
0
0
0
0
0
0
0
0
0
)
;

boundaryField
{
    Wall
    {
        type            zeroGradient;
    }
    frontAndBack
    {
        type            empty;
    }
    atmosphere
    {
        type            zeroGradient;
    }
}


// ************************************************************************* //
