/*--------------------------------*- C++ -*----------------------------------*\
| =========                 |                                                 |
| \\      /  F ield         | OpenFOAM: The Open Source CFD Toolbox           |
|  \\    /   O peration     | Version:  3.0.1                                 |
|   \\  /    A nd           | Web:      www.OpenFOAM.org                      |
|    \\/     M anipulation  |                                                 |
\*---------------------------------------------------------------------------*/
FoamFile
{
    version     2.0;
    format      ascii;
    class       volScalarField;
    location    "25";
    object      g1_CO2;
}
// * * * * * * * * * * * * * * * * * * * * * * * * * * * * * * * * * * * * * //

dimensions      [0 0 0 0 0 0 0];

internalField   nonuniform List<scalar> 
800
(
0.48392114
0.48395868
0.48396622
0.4839673
0.48396755
0.48396778
0.48396804
0.48396827
0.48396843
0.48396852
0.48396852
0.48396843
0.48396826
0.48396803
0.48396778
0.48396755
0.4839673
0.48396623
0.48395869
0.48392115
0.50262321
0.50253358
0.50257413
0.50258534
0.502578
0.50256463
0.50255178
0.50254189
0.50253543
0.50253227
0.50253227
0.50253543
0.50254188
0.50255177
0.50256461
0.50257798
0.50258532
0.5025741
0.50253355
0.50262318
0.52363505
0.52332541
0.52333578
0.52335308
0.52334332
0.52332335
0.52330342
0.52328775
0.52327734
0.52327218
0.52327218
0.52327733
0.52328774
0.5233034
0.52332333
0.52334329
0.52335305
0.52333574
0.52332536
0.52363499
0.55078163
0.54992218
0.54984791
0.54987203
0.54986191
0.5498399
0.54981655
0.54979787
0.54978516
0.54977881
0.54977881
0.54978515
0.54979786
0.54981654
0.54983988
0.54986188
0.54987199
0.54984787
0.54992213
0.55078157
0.58759004
0.58575354
0.58555775
0.58552097
0.58550782
0.58548459
0.58545892
0.58543819
0.58542381
0.58541663
0.58541663
0.58542381
0.58543819
0.58545892
0.58548457
0.5855078
0.58552094
0.58555771
0.58575349
0.58758999
0.63713532
0.63369592
0.63331097
0.63316375
0.6331383
0.63310801
0.63307666
0.63305163
0.63303407
0.63302533
0.63302534
0.63303407
0.63305163
0.63307666
0.633108
0.63313829
0.63316373
0.63331094
0.63369589
0.63713529
0.7013159
0.69576294
0.69501433
0.6947538
0.69470256
0.69465486
0.69461054
0.694576
0.694552
0.69454013
0.69454013
0.69455201
0.69457602
0.69461055
0.69465487
0.69470256
0.69475379
0.69501431
0.69576291
0.7013159
0.78092122
0.77310437
0.77161482
0.77124428
0.77115503
0.77107267
0.77100227
0.77094878
0.77091264
0.77089488
0.77089489
0.77091266
0.7709488
0.77100229
0.77107268
0.77115504
0.77124428
0.77161481
0.77310436
0.78092125
0.87587736
0.86611128
0.8634918
0.8629753
0.86287342
0.86273626
0.8626167
0.86252897
0.86247184
0.86244395
0.86244395
0.86247186
0.86252899
0.86261672
0.86273628
0.86287343
0.86297531
0.86349181
0.86611129
0.87587745
0.98447098
0.97424205
0.97011791
0.96935821
0.96931579
0.96935892
0.96914817
0.969002
0.96891071
0.96886638
0.96886639
0.96891072
0.96900202
0.96914818
0.96935894
0.9693158
0.96935823
0.97011793
0.9742421
0.98447112
1.1001231
1.0924904
1.0875572
1.0863441
1.0869676
1.0873417
1.0869677
1.086723
1.0865765
1.0865061
1.0865061
1.0865765
1.086723
1.0869677
1.0873418
1.0869676
1.0863442
1.0875572
1.0924905
1.1001233
1.204996
1.2049188
1.2030112
1.200756
1.2033915
1.2038813
1.2032665
1.2028723
1.202592
1.2024805
1.2024805
1.202592
1.2028723
1.2032665
1.2038813
1.2033915
1.200756
1.2030112
1.2049189
1.2049961
1.24676
1.2684039
1.2769571
1.272625
1.2769548
1.2772589
1.2764099
1.2757375
1.280182
1.2798751
1.2798751
1.280182
1.2757374
1.2764098
1.2772589
1.2769547
1.2726249
1.276957
1.2684038
1.2467599
1.0481305
1.1341395
1.1673234
1.1816222
1.1882178
1.1890375
1.1887032
1.1883345
1.1927634
1.1925763
1.1925762
1.1927634
1.1883344
1.1887031
1.1890373
1.1882177
1.181622
1.1673232
1.1341392
1.0481302
0.75342261
0.84511851
0.8864749
0.90459664
0.91592293
0.91817756
0.91813039
0.91788596
0.92419713
0.92406889
0.92406887
0.9241971
0.9178859
0.91813035
0.91817753
0.91592289
0.9045966
0.88647483
0.84511844
0.75342265
0.41271509
0.49361275
0.53583814
0.55110107
0.56238002
0.56507312
0.56801314
0.56787451
0.57271713
0.57262952
0.5726295
0.57271712
0.56787446
0.56801312
0.5650731
0.56237999
0.55110104
0.5358381
0.49361277
0.41271529
0
0
0
0
0
0
0
0
0
0
0
0
0
0
0
0
0
0
0
0
0
0
0
0
0
0
0
0
0
0
0
0
0
0
0
0
0
0
0
0
0
0
0
0
0
0
0
0
0
0
0
0
0
0
0
0
0
0
0
0
0
0
0
0
0
0
0
0
0
0
0
0
0
0
0
0
0
0
0
0
0
0
0
0
0
0
0
0
0
0
0
0
0
0
0
0
0
0
0
0
0
0
0
0
0
0
0
0
0
0
0
0
0
0
0
0
0
0
0
0
0
0
0
0
0
0
0
0
0
0
0
0
0
0
0
0
0
0
0
0
0
0
0
0
0
0
0
0
0
0
0
0
0
0
0
0
0
0
0
0
0
0
0
0
0
0
0
0
0
0
0
0
0
0
0
0
0
0
0
0
0
0
0
0
0
0
0
0
0
0
0
0
0
0
0
0
0
0
0
0
0
0
0
0
0
0
0
0
0
0
0
0
0
0
0
0
0
0
0
0
0
0
0
0
0
0
0
0
0
0
0
0
0
0
0
0
0
0
0
0
0
0
0
0
0
0
0
0
0
0
0
0
0
0
0
0
0
0
0
0
0
0
0
0
0
0
0
0
0
0
0
0
0
0
0
0
0
0
0
0
0
0
0
0
0
0
0
0
0
0
0
0
0
0
0
0
0
0
0
0
0
0
0
0
0
0
0
0
0
0
0
0
0
0
0
0
0
0
0
0
0
0
0
0
0
0
0
0
0
0
0
0
0
0
0
0
0
0
0
0
0
0
0
0
0
0
0
0
0
0
0
0
0
0
0
0
0
0
0
0
0
0
0
0
0
0
0
0
0
0
0
0
0
0
0
0
0
0
0
0
0
0
0
0
0
0
0
0
0
0
0
0
0
0
0
0
0
0
0
0
0
0
0
0
0
0
0
0
0
0
0
0
0
0
0
0
0
0
0
0
0
0
0
0
0
0
0
0
0
0
0
0
0
0
0
0
0
0
0
0
0
0
0
0
0
0
0
0
0
0
0
0
0
0
0
0
0
0
0
0
0
0
0
0
0
0
0
0
0
0
0
0
0
0
0
0
0
0
0
0
)
;

boundaryField
{
    Wall
    {
        type            zeroGradient;
    }
    frontAndBack
    {
        type            empty;
    }
    atmosphere
    {
        type            zeroGradient;
    }
}


// ************************************************************************* //
