/*--------------------------------*- C++ -*----------------------------------*\
| =========                 |                                                 |
| \\      /  F ield         | OpenFOAM: The Open Source CFD Toolbox           |
|  \\    /   O peration     | Version:  3.0.1                                 |
|   \\  /    A nd           | Web:      www.OpenFOAM.org                      |
|    \\/     M anipulation  |                                                 |
\*---------------------------------------------------------------------------*/
FoamFile
{
    version     2.0;
    format      ascii;
    class       volScalarField;
    location    "25";
    object      M0;
}
// * * * * * * * * * * * * * * * * * * * * * * * * * * * * * * * * * * * * * //

dimensions      [0 0 0 0 0 0 0];

internalField   nonuniform List<scalar> 
800
(
8.383209e+11
8.3825742e+11
8.382497e+11
8.3824984e+11
8.3825049e+11
8.3825096e+11
8.382512e+11
8.3825132e+11
8.3825138e+11
8.3825141e+11
8.3825141e+11
8.3825138e+11
8.3825132e+11
8.3825119e+11
8.3825095e+11
8.3825049e+11
8.3824983e+11
8.3824969e+11
8.3825742e+11
8.383209e+11
8.6202653e+11
8.6090632e+11
8.607025e+11
8.6067873e+11
8.606888e+11
8.6069853e+11
8.607032e+11
8.6070431e+11
8.6070396e+11
8.607035e+11
8.6070349e+11
8.6070396e+11
8.6070431e+11
8.607032e+11
8.6069853e+11
8.6068881e+11
8.6067873e+11
8.6070251e+11
8.6090634e+11
8.6202656e+11
8.7292566e+11
8.7148241e+11
8.7108825e+11
8.7104043e+11
8.7104642e+11
8.710543e+11
8.7105629e+11
8.7105447e+11
8.7105177e+11
8.7105002e+11
8.7105002e+11
8.7105177e+11
8.7105447e+11
8.7105629e+11
8.710543e+11
8.7104642e+11
8.7104043e+11
8.7108825e+11
8.7148242e+11
8.7292568e+11
8.7045058e+11
8.6911066e+11
8.6861789e+11
8.6856363e+11
8.6856588e+11
8.6856845e+11
8.685648e+11
8.6855821e+11
8.6855217e+11
8.6854872e+11
8.6854871e+11
8.6855217e+11
8.6855821e+11
8.685648e+11
8.6856844e+11
8.6856587e+11
8.6856361e+11
8.6861787e+11
8.6911065e+11
8.7045058e+11
8.5583365e+11
8.5496147e+11
8.5445289e+11
8.5434552e+11
8.5434572e+11
8.5434241e+11
8.5433249e+11
8.5432084e+11
8.5431138e+11
8.5430621e+11
8.5430621e+11
8.5431137e+11
8.5432084e+11
8.5433248e+11
8.5434239e+11
8.5434569e+11
8.5434548e+11
8.5445285e+11
8.5496144e+11
8.5583362e+11
8.3193064e+11
8.3165788e+11
8.3119411e+11
8.3100416e+11
8.3100417e+11
8.3099636e+11
8.309813e+11
8.3096555e+11
8.3095337e+11
8.3094686e+11
8.3094685e+11
8.3095336e+11
8.3096554e+11
8.3098127e+11
8.3099633e+11
8.3100414e+11
8.3100411e+11
8.3119406e+11
8.3165783e+11
8.319306e+11
8.0246705e+11
8.0264799e+11
8.02337e+11
8.0207398e+11
8.0207593e+11
8.0206609e+11
8.0204824e+11
8.0203025e+11
8.0201657e+11
8.0200932e+11
8.0200932e+11
8.0201656e+11
8.0203023e+11
8.0204821e+11
8.0206606e+11
8.0207589e+11
8.0207393e+11
8.0233695e+11
8.0264794e+11
8.0246701e+11
7.7127253e+11
7.7165728e+11
7.7153359e+11
7.7123506e+11
7.7124295e+11
7.7123443e+11
7.7121685e+11
7.7119883e+11
7.7118493e+11
7.7117753e+11
7.7117753e+11
7.7118492e+11
7.7119882e+11
7.7121683e+11
7.712344e+11
7.7124291e+11
7.7123502e+11
7.7153355e+11
7.7165725e+11
7.712725e+11
7.4203193e+11
7.4220344e+11
7.4230911e+11
7.4202649e+11
7.4189705e+11
7.4189528e+11
7.4188107e+11
7.4186473e+11
7.418513e+11
7.4184395e+11
7.4184395e+11
7.4185129e+11
7.4186472e+11
7.4188105e+11
7.4189526e+11
7.4189703e+11
7.4202647e+11
7.4230909e+11
7.4220342e+11
7.4203191e+11
7.1850087e+11
7.1761338e+11
7.180425e+11
7.1783688e+11
7.1748006e+11
7.1727445e+11
7.1726493e+11
7.1724993e+11
7.1723614e+11
7.1722828e+11
7.1722827e+11
7.1723614e+11
7.1724993e+11
7.1726493e+11
7.1727445e+11
7.1748006e+11
7.1783688e+11
7.180425e+11
7.1761338e+11
7.1850088e+11
7.0483747e+11
7.0202324e+11
7.0255015e+11
7.0250304e+11
7.0166396e+11
7.0114129e+11
7.0113147e+11
7.0111301e+11
7.0109553e+11
7.0108511e+11
7.0108511e+11
7.0109554e+11
7.0111301e+11
7.0113149e+11
7.0114131e+11
7.0166398e+11
7.0250306e+11
7.0255017e+11
7.0202327e+11
7.0483753e+11
7.0612285e+11
7.0068001e+11
7.0073356e+11
7.0100019e+11
6.9930446e+11
6.9850785e+11
6.9847658e+11
6.9843859e+11
6.9841117e+11
6.9839285e+11
6.9839285e+11
6.9841118e+11
6.9843861e+11
6.9847661e+11
6.9850789e+11
6.9930451e+11
7.0100025e+11
7.0073361e+11
7.0068008e+11
7.0612296e+11
7.2992723e+11
7.2094674e+11
7.2016402e+11
7.2100205e+11
7.1851583e+11
7.1749722e+11
7.1738907e+11
7.172931e+11
7.1659273e+11
7.1655928e+11
7.1655928e+11
7.1659275e+11
7.1729312e+11
7.1738912e+11
7.1749728e+11
7.1851592e+11
7.2100216e+11
7.2016412e+11
7.2094687e+11
7.2992743e+11
7.8633085e+11
7.7384852e+11
7.7299096e+11
7.7382948e+11
7.7077226e+11
7.6948941e+11
7.6918016e+11
7.6892029e+11
7.6759101e+11
7.6750177e+11
7.6750177e+11
7.6759103e+11
7.6892031e+11
7.6918022e+11
7.694895e+11
7.7077238e+11
7.7382964e+11
7.7299112e+11
7.7384873e+11
7.8633114e+11
8.5973349e+11
8.4878408e+11
8.5061023e+11
8.5323872e+11
8.5017138e+11
8.4865463e+11
8.4804991e+11
8.4751982e+11
8.45491e+11
8.4530624e+11
8.4530623e+11
8.4549101e+11
8.4751983e+11
8.4804998e+11
8.4865474e+11
8.5017153e+11
8.5323892e+11
8.5061043e+11
8.4878433e+11
8.5973383e+11
9.5656784e+11
9.5420875e+11
9.6359224e+11
9.7204053e+11
9.7095721e+11
9.6951916e+11
9.6519025e+11
9.6410861e+11
9.6153577e+11
9.6115398e+11
9.6115395e+11
9.6153575e+11
9.6410856e+11
9.6519028e+11
9.6951926e+11
9.7095737e+11
9.7204074e+11
9.6359244e+11
9.5420904e+11
9.5656825e+11
1.000751e+12
1.0403111e+12
1.0773968e+12
1.1006803e+12
1.1065164e+12
1.1064443e+12
1.1023113e+12
1.1001042e+12
1.0969766e+12
1.0961535e+12
1.0961534e+12
1.0969765e+12
1.100104e+12
1.1023113e+12
1.1064443e+12
1.1065165e+12
1.1006805e+12
1.077397e+12
1.0403115e+12
1.0007515e+12
9.0956319e+11
1.0237375e+12
1.1061574e+12
1.1572781e+12
1.1785005e+12
1.1831571e+12
1.1798986e+12
1.1759162e+12
1.1717548e+12
1.1700875e+12
1.1700874e+12
1.1717546e+12
1.175916e+12
1.1798984e+12
1.1831571e+12
1.1785005e+12
1.1572782e+12
1.1061575e+12
1.0237379e+12
9.0956406e+11
6.442897e+11
8.9764796e+11
1.0390394e+12
1.1243522e+12
1.1656294e+12
1.1777408e+12
1.1750734e+12
1.1684969e+12
1.1623635e+12
1.159264e+12
1.1592638e+12
1.1623632e+12
1.1684965e+12
1.1750732e+12
1.1777407e+12
1.1656294e+12
1.1243522e+12
1.0390395e+12
8.9764836e+11
6.4429084e+11
3.1194335e+11
6.921232e+11
8.9563167e+11
1.0142873e+12
1.073697e+12
1.0925072e+12
1.0894174e+12
1.0793626e+12
1.0701907e+12
1.0650949e+12
1.0650946e+12
1.0701902e+12
1.0793619e+12
1.089417e+12
1.0925069e+12
1.0736969e+12
1.0142872e+12
8.9563168e+11
6.9212353e+11
3.1194421e+11
1.0145318e+11
4.660185e+11
7.0795335e+11
8.5189129e+11
9.2473457e+11
9.482955e+11
9.4436883e+11
9.3100093e+11
9.1868385e+11
9.1158536e+11
9.1158502e+11
9.1868321e+11
9.3100009e+11
9.4436822e+11
9.4829504e+11
9.2473422e+11
8.5189104e+11
7.0795322e+11
4.6601868e+11
1.0145354e+11
2.4561163e+10
2.7532774e+11
5.1395999e+11
6.6753146e+11
7.4726759e+11
7.7380047e+11
7.6988554e+11
7.5494246e+11
7.4083783e+11
7.325533e+11
7.3255291e+11
7.4083706e+11
7.5494146e+11
7.6988475e+11
7.7379985e+11
7.4726709e+11
6.6753111e+11
5.1395978e+11
2.753278e+11
2.4561259e+10
4.9315326e+09
1.449071e+11
3.4461534e+11
4.8974906e+11
5.6880589e+11
5.9650668e+11
5.9388274e+11
5.7972739e+11
5.6589397e+11
5.5764696e+11
5.5764655e+11
5.6589315e+11
5.7972632e+11
5.9388185e+11
5.9650597e+11
5.6880533e+11
4.8974868e+11
3.446151e+11
1.449071e+11
4.9315531e+09
8.8010622e+08
6.9328714e+10
2.1520397e+11
3.382135e+11
4.097752e+11
4.3664562e+11
4.3602184e+11
4.2441719e+11
4.1253386e+11
4.0534055e+11
4.0534016e+11
4.1253307e+11
4.2441614e+11
4.3602095e+11
4.3664491e+11
4.0977466e+11
3.3821316e+11
2.1520378e+11
6.9328706e+10
8.801102e+08
1.4536675e+08
3.0733977e+10
1.2629921e+11
2.2120371e+11
2.8085114e+11
3.050429e+11
3.0628618e+11
2.9789285e+11
2.8874331e+11
2.831064e+11
2.8310606e+11
2.8874261e+11
2.9789192e+11
3.0628538e+11
3.0504227e+11
2.8085068e+11
2.2120345e+11
1.2629909e+11
3.0733978e+10
1.4536751e+08
22758232
1.2812856e+10
7.0232404e+10
1.3783749e+11
1.8404707e+11
2.0431615e+11
2.0676648e+11
2.0134495e+11
1.9491189e+11
1.9086321e+11
1.9086294e+11
1.9491132e+11
2.0134417e+11
2.0676581e+11
2.0431564e+11
1.8404672e+11
1.3783732e+11
7.0232346e+10
1.2812861e+10
22758377
3425517.4
5.0763061e+09
3.7253021e+10
8.2252788e+10
1.1582431e+11
1.317168e+11
1.3461956e+11
1.3148503e+11
1.2729801e+11
1.2459279e+11
1.2459258e+11
1.2729757e+11
1.3148443e+11
1.3461904e+11
1.3171641e+11
1.1582405e+11
8.2252687e+10
3.7252997e+10
5.0763111e+09
3425544.2
499902.82
1.9251267e+09
1.8946107e+10
4.7200122e+10
7.0248394e+10
8.1984808e+10
8.4763042e+10
8.3162308e+10
8.0616481e+10
7.8916965e+10
7.8916818e+10
8.0616159e+10
8.3161864e+10
8.4762659e+10
8.1984524e+10
7.0248216e+10
4.7200065e+10
1.8946099e+10
1.9251296e+09
499907.47
71082.77
7.0236283e+08
9.2752598e+09
2.6130725e+10
4.1177396e+10
4.9390252e+10
5.1723555e+10
5.1035165e+10
4.9581398e+10
4.8570092e+10
4.8569991e+10
4.9581173e+10
5.1034853e+10
5.1723285e+10
4.9390055e+10
4.1177277e+10
2.6130693e+10
9.2752581e+09
7.023643e+08
71083.522
9876.6108
2.4740923e+08
4.3842644e+09
1.3991735e+10
2.3378711e+10
2.8853077e+10
3.0637705e+10
3.0429131e+10
2.9648049e+10
2.9075253e+10
2.9075185e+10
2.9647899e+10
3.0428922e+10
3.0637524e+10
2.8852946e+10
2.3378634e+10
1.3991717e+10
4.3842648e+09
2.4740988e+08
9876.7247
1343.1694
84368850
2.0057112e+09
7.2605977e+09
1.2878828e+10
1.6369714e+10
1.763865e+10
1.764596e+10
1.7251864e+10
1.6942144e+10
1.6942101e+10
1.7251767e+10
1.7645826e+10
1.7638533e+10
1.6369631e+10
1.287878e+10
7.2605881e+09
2.005712e+09
84369116
1343.1858
179.08751
27909800
8.8977725e+08
3.6573179e+09
6.8935101e+09
9.0307263e+09
9.880352e+09
9.9613434e+09
9.7759245e+09
9.6158288e+09
9.6158025e+09
9.7758644e+09
9.9612599e+09
9.8802788e+09
9.0306749e+09
6.8934816e+09
3.6573129e+09
8.8977785e+08
27909903
179.08749
26.230956
8971423.1
3.8338664e+08
1.7907673e+09
3.5894633e+09
4.8494157e+09
5.3897659e+09
5.4782571e+09
5.3982089e+09
5.3191147e+09
5.3190992e+09
5.3981728e+09
5.4782071e+09
5.3897219e+09
4.8493852e+09
3.5894469e+09
1.7907648e+09
3.8338703e+08
8971461.7
26.270315
25.109506
2806108.2
1.606707e+08
8.533325e+08
1.820088e+09
2.5371026e+09
2.8655529e+09
2.9371526e+09
2.9065958e+09
2.8693217e+09
2.8693128e+09
2.9065749e+09
2.9371237e+09
2.8655273e+09
2.537085e+09
1.8200789e+09
8.5333122e+08
1.6067093e+08
2806122.2
25.133778
17.907865
855854.12
65569676
3.9614793e+08
8.9955789e+08
1.294274e+09
1.4859712e+09
1.5362466e+09
1.5269625e+09
1.5102806e+09
1.5102757e+09
1.5269507e+09
1.5362304e+09
1.4859568e+09
1.2942642e+09
8.9955299e+08
3.9614731e+08
65569797
855859
17.921648
6.9975241
255102.47
26088183
1.7933425e+08
4.337138e+08
6.4429268e+08
7.5210372e+08
7.8437634e+08
7.8314428e+08
7.7611358e+08
7.7611092e+08
7.8313783e+08
7.8436748e+08
7.520958e+08
6.4428736e+08
4.3371123e+08
1.7933396e+08
26088235
255103.15
6.9969217
2.0543444
74316.341
10129810
79236030
2.0414836e+08
3.1319554e+08
3.7178871e+08
3.9118842e+08
3.9235673e+08
3.8961114e+08
3.8960975e+08
3.9235329e+08
3.9118371e+08
3.717845e+08
3.1319272e+08
2.0414705e+08
79235877
10129830
74316.388
2.0540125
0.49599258
21157.523
3841658
34196736
93880015
1.4876806e+08
1.7961291e+08
1.906799e+08
1.9213079e+08
1.9117087e+08
1.9117015e+08
1.9212901e+08
1.9067747e+08
1.7961071e+08
1.4876661e+08
93879354
34196656
3841665.8
21157.463
0.49602984
0.095483985
5884.4315
1424031.4
14426496
42206373
69093952
84851679
90893178
92009618
91735366
91735011
92008715
90891950
84850564
69093214
42206045
14426455
1424034.1
5884.3925
0.095574257
0.014038457
1598.9643
516318.85
5953122.2
18562363
31395349
39220492
42394111
43114754
43073522
43073349
43114307
42393504
39219937
31394981
18562203
5953101
516319.63
1598.9452
0.01409144
)
;

boundaryField
{
    Wall
    {
        type            zeroGradient;
    }
    frontAndBack
    {
        type            empty;
    }
    atmosphere
    {
        type            zeroGradient;
    }
}


// ************************************************************************* //
