/*--------------------------------*- C++ -*----------------------------------*\
| =========                 |                                                 |
| \\      /  F ield         | OpenFOAM: The Open Source CFD Toolbox           |
|  \\    /   O peration     | Version:  3.0.1                                 |
|   \\  /    A nd           | Web:      www.OpenFOAM.org                      |
|    \\/     M anipulation  |                                                 |
\*---------------------------------------------------------------------------*/
FoamFile
{
    version     2.0;
    format      ascii;
    class       volScalarField;
    location    "25";
    object      M2;
}
// * * * * * * * * * * * * * * * * * * * * * * * * * * * * * * * * * * * * * //

dimensions      [0 0 0 0 0 0 0];

internalField   nonuniform List<scalar> 
800
(
1.0001395e-12
1.000229e-12
1.0002399e-12
1.0002397e-12
1.0002388e-12
1.0002381e-12
1.0002378e-12
1.0002376e-12
1.0002375e-12
1.0002375e-12
1.0002375e-12
1.0002375e-12
1.0002376e-12
1.0002378e-12
1.0002381e-12
1.0002388e-12
1.0002397e-12
1.0002399e-12
1.000229e-12
1.0001395e-12
9.6813858e-13
9.6959458e-13
9.6986192e-13
9.6989277e-13
9.6987893e-13
9.6986555e-13
9.6985893e-13
9.6985713e-13
9.6985737e-13
9.6985787e-13
9.6985787e-13
9.6985737e-13
9.6985713e-13
9.6985893e-13
9.6986555e-13
9.6987893e-13
9.6989276e-13
9.6986192e-13
9.6959456e-13
9.6813854e-13
9.5143669e-13
9.5332341e-13
9.5384038e-13
9.5390439e-13
9.5389527e-13
9.5388319e-13
9.5387906e-13
9.5388034e-13
9.5388318e-13
9.5388514e-13
9.5388515e-13
9.5388318e-13
9.5388033e-13
9.5387905e-13
9.5388319e-13
9.5389526e-13
9.5390439e-13
9.5384037e-13
9.533234e-13
9.5143665e-13
9.5013649e-13
9.5199195e-13
9.5266126e-13
9.5273721e-13
9.5273166e-13
9.5272446e-13
9.5272613e-13
9.5273266e-13
9.5273931e-13
9.5274326e-13
9.5274326e-13
9.5273931e-13
9.5273266e-13
9.5272613e-13
9.5272447e-13
9.5273167e-13
9.5273722e-13
9.5266127e-13
9.5199196e-13
9.5013648e-13
9.6337874e-13
9.6479359e-13
9.6553663e-13
9.6569053e-13
9.6568541e-13
9.6568323e-13
9.6569147e-13
9.6570383e-13
9.6571463e-13
9.6572072e-13
9.6572073e-13
9.6571464e-13
9.6570383e-13
9.6569149e-13
9.6568325e-13
9.6568544e-13
9.6569057e-13
9.6553667e-13
9.6479363e-13
9.6337876e-13
9.8905489e-13
9.8985251e-13
9.9061162e-13
9.9089758e-13
9.908887e-13
9.9088908e-13
9.9090258e-13
9.909199e-13
9.9093431e-13
9.9094227e-13
9.9094228e-13
9.9093432e-13
9.9091991e-13
9.9090261e-13
9.9088912e-13
9.9088875e-13
9.9089764e-13
9.9061168e-13
9.8985256e-13
9.8905493e-13
1.0240399e-12
1.0243942e-12
1.0250149e-12
1.0254395e-12
1.0254208e-12
1.0254188e-12
1.025434e-12
1.0254538e-12
1.0254703e-12
1.0254795e-12
1.0254795e-12
1.0254703e-12
1.0254538e-12
1.025434e-12
1.0254188e-12
1.0254208e-12
1.0254395e-12
1.025015e-12
1.0243943e-12
1.02404e-12
1.0645013e-12
1.0647711e-12
1.0651912e-12
1.06572e-12
1.0656808e-12
1.0656682e-12
1.065679e-12
1.0656971e-12
1.0657135e-12
1.0657227e-12
1.0657227e-12
1.0657135e-12
1.0656972e-12
1.065679e-12
1.0656683e-12
1.0656808e-12
1.06572e-12
1.0651912e-12
1.0647712e-12
1.0645014e-12
1.1057102e-12
1.1066696e-12
1.1068067e-12
1.1073838e-12
1.1075885e-12
1.1075504e-12
1.1075473e-12
1.1075585e-12
1.107572e-12
1.1075801e-12
1.1075801e-12
1.107572e-12
1.1075585e-12
1.1075473e-12
1.1075504e-12
1.1075885e-12
1.1073838e-12
1.1068068e-12
1.1066696e-12
1.1057103e-12
1.1413675e-12
1.1448253e-12
1.1445349e-12
1.1450996e-12
1.1457512e-12
1.1460853e-12
1.1460571e-12
1.1460558e-12
1.1460642e-12
1.1460702e-12
1.1460702e-12
1.1460642e-12
1.1460558e-12
1.1460571e-12
1.1460853e-12
1.1457512e-12
1.1450996e-12
1.1445349e-12
1.1448253e-12
1.1413675e-12
1.1632068e-12
1.1713098e-12
1.1711831e-12
1.1716826e-12
1.1733279e-12
1.1742671e-12
1.1742048e-12
1.1741875e-12
1.1741891e-12
1.1741926e-12
1.1741926e-12
1.1741891e-12
1.1741874e-12
1.1742048e-12
1.1742671e-12
1.1733279e-12
1.1716826e-12
1.1711831e-12
1.1713098e-12
1.1632067e-12
1.1606223e-12
1.1753516e-12
1.1769851e-12
1.177343e-12
1.1807093e-12
1.1821588e-12
1.1820701e-12
1.1820428e-12
1.1820344e-12
1.1820374e-12
1.1820374e-12
1.1820344e-12
1.1820428e-12
1.1820701e-12
1.1821588e-12
1.1807092e-12
1.177343e-12
1.1769851e-12
1.1753516e-12
1.1606222e-12
1.1193339e-12
1.1429673e-12
1.1480595e-12
1.1481769e-12
1.1530435e-12
1.1548295e-12
1.1547612e-12
1.1547475e-12
1.1559487e-12
1.1559475e-12
1.1559475e-12
1.1559487e-12
1.1547475e-12
1.1547612e-12
1.1548295e-12
1.1530434e-12
1.1481768e-12
1.1480594e-12
1.1429672e-12
1.1193337e-12
1.0238169e-12
1.0571343e-12
1.0659833e-12
1.0678582e-12
1.0737518e-12
1.0758212e-12
1.0758883e-12
1.075979e-12
1.0778789e-12
1.0779128e-12
1.0779128e-12
1.0778789e-12
1.0759789e-12
1.0758882e-12
1.0758211e-12
1.0737517e-12
1.0678581e-12
1.0659831e-12
1.0571341e-12
1.0238166e-12
8.7977171e-13
9.1476565e-13
9.2388687e-13
9.2570084e-13
9.3171625e-13
9.339546e-13
9.3425425e-13
9.3454367e-13
9.3686777e-13
9.3697206e-13
9.3697206e-13
9.3686774e-13
9.3454362e-13
9.3425418e-13
9.3395449e-13
9.3171611e-13
9.2570067e-13
9.2388669e-13
9.1476543e-13
8.7977145e-13
7.1222304e-13
7.493095e-13
7.6008983e-13
7.6181697e-13
7.6724507e-13
7.6947036e-13
7.7206458e-13
7.7252492e-13
7.748012e-13
7.7495743e-13
7.7495743e-13
7.7480119e-13
7.7252489e-13
7.7206452e-13
7.6947027e-13
7.6724495e-13
7.6181683e-13
7.6008968e-13
7.4930933e-13
7.1222289e-13
5.4345788e-13
5.7567801e-13
5.8623757e-13
5.8848746e-13
5.9304139e-13
5.9516109e-13
5.975177e-13
5.9813071e-13
6.0008302e-13
6.002809e-13
6.002809e-13
6.0008303e-13
5.981307e-13
5.9751768e-13
5.9516105e-13
5.9304133e-13
5.8848738e-13
5.862375e-13
5.7567794e-13
5.434579e-13
3.7949735e-13
4.1834272e-13
4.3123442e-13
4.3444858e-13
4.3769724e-13
4.392511e-13
4.4070669e-13
4.412483e-13
4.4273351e-13
4.4291821e-13
4.4291821e-13
4.4273353e-13
4.4124831e-13
4.4070669e-13
4.3925109e-13
4.3769721e-13
4.3444853e-13
4.3123438e-13
4.1834272e-13
3.7949755e-13
2.1359533e-13
2.8022252e-13
3.0147776e-13
3.0734534e-13
3.0955077e-13
3.0991941e-13
3.1002042e-13
3.0992777e-13
3.105976e-13
3.1059084e-13
3.1059084e-13
3.1059762e-13
3.0992777e-13
3.1002042e-13
3.0991939e-13
3.0955072e-13
3.0734528e-13
3.0147772e-13
2.8022254e-13
2.1359562e-13
8.4259234e-14
1.6670922e-13
1.9737351e-13
2.0753018e-13
2.1016002e-13
2.0974208e-13
2.0864068e-13
2.0763073e-13
2.0734706e-13
2.0701507e-13
2.0701507e-13
2.0734706e-13
2.0763072e-13
2.0864066e-13
2.0974204e-13
2.1015995e-13
2.0753009e-13
1.9737345e-13
1.6670924e-13
8.4259435e-14
2.2765082e-14
8.6785427e-14
1.1966418e-13
1.3278862e-13
1.3656435e-13
1.362183e-13
1.3463109e-13
1.3305972e-13
1.3212278e-13
1.3153927e-13
1.3153926e-13
1.3212277e-13
1.3305969e-13
1.3463104e-13
1.3621824e-13
1.3656426e-13
1.3278853e-13
1.1966412e-13
8.6785429e-14
2.2765155e-14
4.6412222e-15
3.9810825e-14
6.7097325e-14
8.0257705e-14
8.4746201e-14
8.4908791e-14
8.3499969e-14
8.1911476e-14
8.0785217e-14
8.0137887e-14
8.0137878e-14
8.0785193e-14
8.1911433e-14
8.3499915e-14
8.4908724e-14
8.4746122e-14
8.0257626e-14
6.7097268e-14
3.9810819e-14
4.6412387e-15
7.9199004e-16
1.6410006e-14
3.5010853e-14
4.5892204e-14
5.0240118e-14
5.0853937e-14
4.9912071e-14
4.8653137e-14
4.7670933e-14
4.711231e-14
4.7112299e-14
4.7670906e-14
4.8653094e-14
4.991202e-14
5.0853879e-14
5.0240056e-14
4.5892147e-14
3.5010813e-14
1.6409999e-14
7.9199306e-16
1.2088067e-16
6.219482e-15
1.7168546e-14
2.4946248e-14
2.8530492e-14
2.9334257e-14
2.8840276e-14
2.7996335e-14
2.7284768e-14
2.6876229e-14
2.687622e-14
2.7284744e-14
2.79963e-14
2.8840236e-14
2.9334214e-14
2.853045e-14
2.4946212e-14
1.7168524e-14
6.2194789e-15
1.2088117e-16
1.7155246e-17
2.2110504e-15
7.993376e-15
1.2969939e-14
1.5582381e-14
1.6347345e-14
1.6157068e-14
1.5659186e-14
1.5205061e-14
1.4939507e-14
1.4939499e-14
1.5205043e-14
1.565916e-14
1.615704e-14
1.6347317e-14
1.5582356e-14
1.2969919e-14
7.9933667e-15
2.2110498e-15
1.7155329e-17
2.3166271e-18
7.4809268e-16
3.5641564e-15
6.4877811e-15
8.2195311e-15
8.8291758e-15
8.7994582e-15
8.5354346e-15
8.2717038e-15
8.1136746e-15
8.1136695e-15
8.2716914e-15
8.5354171e-15
8.7994398e-15
8.8291588e-15
8.2195175e-15
6.4877721e-15
3.5641531e-15
7.4809286e-16
2.3166409e-18
3.0183137e-19
2.4323887e-16
1.5319978e-15
3.1376546e-15
4.2029812e-15
4.6345938e-15
4.6690361e-15
4.5421749e-15
4.4000494e-15
4.3122805e-15
4.3122773e-15
4.4000415e-15
4.5421638e-15
4.6690249e-15
4.6345841e-15
4.2029744e-15
3.137651e-15
1.5319971e-15
2.4323911e-16
3.018336e-19
3.8260571e-20
7.6479872e-17
6.3774578e-16
1.4725722e-15
2.0895081e-15
2.3697182e-15
2.4176697e-15
2.3627631e-15
2.2908337e-15
2.2447556e-15
2.2447536e-15
2.2908289e-15
2.3627563e-15
2.4176632e-15
2.369713e-15
2.0895049e-15
1.472571e-15
6.3774579e-16
7.6480011e-17
3.8260913e-20
4.7423036e-21
2.3348099e-17
2.5793397e-16
6.7246885e-16
1.0121904e-15
1.182251e-15
1.2231747e-15
1.2023888e-15
1.1679653e-15
1.1449043e-15
1.1449031e-15
1.1679625e-15
1.2023849e-15
1.2231711e-15
1.1822483e-15
1.0121889e-15
6.7246851e-16
2.5793412e-16
2.3348162e-17
4.7423522e-21
5.7645296e-22
6.9390358e-18
1.0157624e-16
2.9937315e-16
4.7852437e-16
5.7621927e-16
6.0516781e-16
5.9891759e-16
5.83292e-16
5.722281e-16
5.7222745e-16
5.8329045e-16
5.9891545e-16
6.0516587e-16
5.7621787e-16
4.7852373e-16
2.9937311e-16
1.0157636e-16
6.9390607e-18
5.7645938e-22
6.8837144e-23
2.0112683e-18
3.9009341e-17
1.3010203e-16
2.2103973e-16
2.7461485e-16
2.9297536e-16
2.9210909e-16
2.8538487e-16
2.8027839e-16
2.8027803e-16
2.8538403e-16
2.9210795e-16
2.9297435e-16
2.7461417e-16
2.2103946e-16
1.3010207e-16
3.9009413e-17
2.0112773e-18
6.8837958e-23
8.0839192e-24
5.6926156e-19
1.4626174e-17
5.5248114e-17
9.9846478e-17
1.2806038e-16
1.3885558e-16
1.3954124e-16
1.3681047e-16
1.3453857e-16
1.3453838e-16
1.3681003e-16
1.3954065e-16
1.3885507e-16
1.2806005e-16
9.9846375e-17
5.5248159e-17
1.4626211e-17
5.6926464e-19
8.0840107e-24
9.6017088e-25
1.5748066e-19
5.3587064e-18
2.2942876e-17
4.413474e-17
5.8464967e-17
6.4453433e-17
6.530568e-17
6.4270454e-17
6.3295374e-17
6.3295278e-17
6.4270232e-17
6.5305382e-17
6.4453182e-17
5.8464816e-17
4.4134705e-17
2.2942908e-17
5.3587244e-18
1.5748169e-19
9.6083523e-25
3.7909613e-25
4.2611678e-20
1.9198528e-18
9.3228865e-18
1.9100844e-17
2.6143664e-17
2.9311297e-17
2.9950348e-17
2.9592512e-17
2.9188976e-17
2.9188929e-17
2.9592403e-17
2.9950203e-17
2.9311177e-17
2.6143596e-17
1.9100835e-17
9.3229056e-18
1.919861e-18
4.2612008e-20
3.7947049e-25
2.0697063e-25
1.1290701e-20
6.7300457e-19
3.709056e-18
8.0976165e-18
1.1455296e-17
1.3064079e-17
1.3463971e-17
1.3357424e-17
1.3196677e-17
1.3196654e-17
1.3357372e-17
1.3463902e-17
1.3064023e-17
1.1455267e-17
8.0976152e-18
3.7090663e-18
6.7300813e-19
1.1290806e-20
2.0714654e-25
6.9745195e-26
2.9333489e-21
2.3098153e-19
1.4454326e-18
3.3642244e-18
4.9202105e-18
5.7085275e-18
5.9345883e-18
5.9121049e-18
5.850689e-18
5.8506784e-18
5.9120804e-18
5.9345562e-18
5.7085021e-18
4.9201983e-18
3.3642251e-18
1.4454378e-18
2.3098296e-19
2.9333739e-21
6.9742348e-26
1.7979374e-26
7.4713458e-22
7.7657212e-20
5.5203094e-19
1.3702894e-18
2.0723391e-18
2.4463475e-18
2.5655904e-18
2.5666195e-18
2.5442557e-18
2.5442509e-18
2.5666083e-18
2.5655757e-18
2.4463362e-18
2.0723341e-18
1.3702902e-18
5.520333e-19
7.7657759e-20
7.4714108e-22
1.7977251e-26
3.8367072e-27
1.8652403e-22
2.5586207e-20
2.0670685e-19
5.4741416e-19
8.562395e-19
1.0285119e-18
1.0881843e-18
1.093232e-18
1.0855579e-18
1.0855557e-18
1.093227e-18
1.0881778e-18
1.0285069e-18
8.5623746e-19
5.4741461e-19
2.0670788e-19
2.5586411e-20
1.8652556e-22
3.8371276e-27
6.5698765e-28
4.5626986e-23
8.2646207e-21
7.5918945e-20
2.1456869e-19
3.4717299e-19
4.2437186e-19
4.5298044e-19
4.5701802e-19
4.5458979e-19
4.5458884e-19
4.5701581e-19
4.5297758e-19
4.2436973e-19
3.4717214e-19
2.1456891e-19
7.5919366e-20
8.264694e-21
4.5627333e-23
6.5761002e-28
8.6816077e-29
1.0935583e-23
2.6182554e-21
2.7360559e-20
8.2552061e-20
1.3818768e-19
1.7190188e-19
1.8512468e-19
1.8757188e-19
1.8689705e-19
1.8689664e-19
1.8757093e-19
1.8512344e-19
1.7190096e-19
1.3818732e-19
8.2552153e-20
2.7360724e-20
2.6182806e-21
1.0935654e-23
8.7146973e-29
)
;

boundaryField
{
    Wall
    {
        type            zeroGradient;
    }
    frontAndBack
    {
        type            empty;
    }
    atmosphere
    {
        type            zeroGradient;
    }
}


// ************************************************************************* //
