/*--------------------------------*- C++ -*----------------------------------*\
| =========                 |                                                 |
| \\      /  F ield         | OpenFOAM: The Open Source CFD Toolbox           |
|  \\    /   O peration     | Version:  3.0.1                                 |
|   \\  /    A nd           | Web:      www.OpenFOAM.org                      |
|    \\/     M anipulation  |                                                 |
\*---------------------------------------------------------------------------*/
FoamFile
{
    version     2.0;
    format      ascii;
    class       volScalarField;
    location    "25";
    object      M3;
}
// * * * * * * * * * * * * * * * * * * * * * * * * * * * * * * * * * * * * * //

dimensions      [0 0 0 0 0 0 0];

internalField   nonuniform List<scalar> 
800
(
1.0754014e-24
1.0755938e-24
1.0756179e-24
1.0756179e-24
1.0756164e-24
1.0756153e-24
1.0756148e-24
1.0756147e-24
1.0756146e-24
1.0756145e-24
1.0756146e-24
1.0756146e-24
1.0756147e-24
1.0756149e-24
1.0756153e-24
1.0756164e-24
1.075618e-24
1.0756179e-24
1.0755938e-24
1.0754014e-24
1.0102231e-24
1.0131838e-24
1.013729e-24
1.0137923e-24
1.0137648e-24
1.0137381e-24
1.013725e-24
1.0137215e-24
1.0137221e-24
1.0137232e-24
1.0137232e-24
1.0137221e-24
1.0137215e-24
1.013725e-24
1.0137381e-24
1.0137648e-24
1.0137923e-24
1.0137289e-24
1.0131838e-24
1.010223e-24
9.7858171e-25
9.8231934e-25
9.8335242e-25
9.8347891e-25
9.8346104e-25
9.8343764e-25
9.8343002e-25
9.8343302e-25
9.8343897e-25
9.8344302e-25
9.8344303e-25
9.8343897e-25
9.8343301e-25
9.8343002e-25
9.8343764e-25
9.8346102e-25
9.834789e-25
9.8335242e-25
9.8231931e-25
9.7858164e-25
9.7905227e-25
9.8266151e-25
9.8399009e-25
9.8413867e-25
9.84128e-25
9.84115e-25
9.8411956e-25
9.8413346e-25
9.8414725e-25
9.8415537e-25
9.8415538e-25
9.8414725e-25
9.8413345e-25
9.8411957e-25
9.8411502e-25
9.8412801e-25
9.841387e-25
9.8399013e-25
9.8266153e-25
9.7905226e-25
1.0098085e-24
1.0124959e-24
1.0139799e-24
1.0142916e-24
1.0142823e-24
1.0142804e-24
1.0142992e-24
1.0143257e-24
1.0143484e-24
1.0143612e-24
1.0143612e-24
1.0143485e-24
1.0143257e-24
1.0142992e-24
1.0142804e-24
1.0142823e-24
1.0142917e-24
1.01398e-24
1.012496e-24
1.0098085e-24
1.0675876e-24
1.0689747e-24
1.0705136e-24
1.0711173e-24
1.0711012e-24
1.071106e-24
1.0711374e-24
1.0711755e-24
1.0712068e-24
1.071224e-24
1.071224e-24
1.0712068e-24
1.0711756e-24
1.0711374e-24
1.0711061e-24
1.0711013e-24
1.0711175e-24
1.0705137e-24
1.0689748e-24
1.0675877e-24
1.1474619e-24
1.1478596e-24
1.1491222e-24
1.1500532e-24
1.1500167e-24
1.1500181e-24
1.1500552e-24
1.1501007e-24
1.150138e-24
1.1501584e-24
1.1501584e-24
1.1501381e-24
1.1501008e-24
1.1500553e-24
1.1500182e-24
1.1500169e-24
1.1500534e-24
1.1491223e-24
1.1478598e-24
1.147462e-24
1.2426741e-24
1.2428013e-24
1.2436242e-24
1.2448241e-24
1.244742e-24
1.2447209e-24
1.2447501e-24
1.2447942e-24
1.2448328e-24
1.2448543e-24
1.2448543e-24
1.2448328e-24
1.2447942e-24
1.2447502e-24
1.244721e-24
1.2447421e-24
1.2448243e-24
1.2436244e-24
1.2428015e-24
1.2426742e-24
1.3435167e-24
1.345121e-24
1.3452575e-24
1.3466032e-24
1.3471102e-24
1.3470296e-24
1.3470278e-24
1.3470571e-24
1.3470906e-24
1.3471104e-24
1.3471104e-24
1.3470906e-24
1.3470571e-24
1.3470278e-24
1.3470297e-24
1.3471102e-24
1.3466033e-24
1.3452576e-24
1.3451211e-24
1.3435168e-24
1.4353248e-24
1.4427605e-24
1.44177e-24
1.443107e-24
1.4447298e-24
1.4455648e-24
1.4455005e-24
1.4454998e-24
1.4455216e-24
1.4455368e-24
1.4455368e-24
1.4455216e-24
1.4454998e-24
1.4455005e-24
1.4455648e-24
1.4447299e-24
1.4431071e-24
1.44177e-24
1.4427606e-24
1.4353248e-24
1.4977936e-24
1.5162788e-24
1.515503e-24
1.5166748e-24
1.5207917e-24
1.5231428e-24
1.5229873e-24
1.5229434e-24
1.5229476e-24
1.5229561e-24
1.5229561e-24
1.5229476e-24
1.5229433e-24
1.5229873e-24
1.5231428e-24
1.5207917e-24
1.5166748e-24
1.515503e-24
1.5162788e-24
1.4977936e-24
1.5051688e-24
1.5390711e-24
1.5423379e-24
1.5431177e-24
1.5514663e-24
1.5550841e-24
1.554847e-24
1.5547682e-24
1.5547448e-24
1.5547494e-24
1.5547494e-24
1.5547448e-24
1.5547682e-24
1.554847e-24
1.5550841e-24
1.5514662e-24
1.5431177e-24
1.5423379e-24
1.539071e-24
1.5051686e-24
1.426598e-24
1.4795773e-24
1.4906752e-24
1.4907258e-24
1.5024497e-24
1.5067944e-24
1.5065768e-24
1.5065084e-24
1.5093725e-24
1.5093597e-24
1.5093596e-24
1.5093724e-24
1.5065083e-24
1.5065767e-24
1.5067942e-24
1.5024495e-24
1.4907256e-24
1.490675e-24
1.479577e-24
1.4265976e-24
1.2376905e-24
1.3075961e-24
1.3261185e-24
1.3298875e-24
1.3432403e-24
1.3479653e-24
1.3480083e-24
1.3481377e-24
1.3523199e-24
1.3523735e-24
1.3523735e-24
1.3523198e-24
1.3481376e-24
1.3480082e-24
1.3479651e-24
1.34324e-24
1.3298873e-24
1.3261182e-24
1.3075957e-24
1.23769e-24
9.7961823e-25
1.0459231e-24
1.063274e-24
1.0665973e-24
1.0790691e-24
1.083678e-24
1.0841126e-24
1.0845731e-24
1.089175e-24
1.0893474e-24
1.0893474e-24
1.089175e-24
1.084573e-24
1.0841125e-24
1.0836779e-24
1.0790689e-24
1.066597e-24
1.0632737e-24
1.0459227e-24
9.7961776e-25
7.0963057e-25
7.7078403e-25
7.8837778e-25
7.9081924e-25
8.0078659e-25
8.0480121e-25
8.0924951e-25
8.0992525e-25
8.1389307e-25
8.1412984e-25
8.1412984e-25
8.1389305e-25
8.099252e-25
8.0924942e-25
8.0480107e-25
8.007864e-25
7.9081901e-25
7.8837754e-25
7.7078374e-25
7.0963031e-25
4.7867451e-25
5.2056325e-25
5.3335891e-25
5.3543504e-25
5.4249802e-25
5.4577599e-25
5.4943853e-25
5.5026545e-25
5.5320739e-25
5.5348147e-25
5.5348148e-25
5.532074e-25
5.5026544e-25
5.4943851e-25
5.4577595e-25
5.4249794e-25
5.3543494e-25
5.3335881e-25
5.2056314e-25
4.7867448e-25
2.9760484e-25
3.3304806e-25
3.4293111e-25
3.4442364e-25
3.4842066e-25
3.5061918e-25
3.5274856e-25
3.5352704e-25
3.5557657e-25
3.5584562e-25
3.5584563e-25
3.555766e-25
3.5352706e-25
3.5274858e-25
3.5061918e-25
3.4842063e-25
3.444236e-25
3.4293108e-25
3.3304805e-25
2.9760499e-25
1.4960594e-25
1.9705156e-25
2.0979691e-25
2.1194202e-25
2.1352027e-25
2.1418832e-25
2.1478046e-25
2.1504893e-25
2.1612453e-25
2.1624879e-25
2.162488e-25
2.1612456e-25
2.1504895e-25
2.1478048e-25
2.1418832e-25
2.1352025e-25
2.1194199e-25
2.0979688e-25
1.9705158e-25
1.4960615e-25
5.2789008e-26
1.0328658e-25
1.2017302e-25
1.245013e-25
1.2550286e-25
1.2522686e-25
1.2476889e-25
1.2438537e-25
1.245937e-25
1.2449782e-25
1.2449783e-25
1.2459371e-25
1.2438538e-25
1.2476888e-25
1.2522685e-25
1.2550282e-25
1.2450125e-25
1.2017299e-25
1.0328659e-25
5.2789142e-26
1.2751017e-26
4.7071637e-26
6.3551222e-26
6.9229351e-26
7.0571506e-26
7.0188795e-26
6.9393552e-26
6.8690627e-26
6.8407528e-26
6.8171888e-26
6.8171888e-26
6.840753e-26
6.8690617e-26
6.9393536e-26
7.0188767e-26
7.0571462e-26
6.9229302e-26
6.3551187e-26
4.7071641e-26
1.2751061e-26
2.3168096e-27
1.8769679e-26
3.0945247e-26
3.6285126e-26
3.7867217e-26
3.773643e-26
3.7068773e-26
3.6400245e-26
3.5991402e-26
3.5738789e-26
3.5738786e-26
3.5991397e-26
3.6400231e-26
3.7068752e-26
3.7736401e-26
3.7867179e-26
3.6285087e-26
3.0945219e-26
1.8769677e-26
2.3168187e-27
3.503959e-28
6.6830953e-27
1.395767e-26
1.794413e-26
1.938676e-26
1.9482464e-26
1.9074733e-26
1.8599174e-26
1.8259972e-26
1.8062707e-26
1.8062704e-26
1.8259964e-26
1.859916e-26
1.9074714e-26
1.948244e-26
1.9386733e-26
1.7944105e-26
1.3957652e-26
6.6830928e-27
3.5039738e-28
4.7057275e-29
2.1762599e-27
5.8910861e-27
8.4115527e-27
9.492119e-27
9.6787701e-27
9.4825109e-27
9.2012632e-27
8.9796924e-27
8.8521347e-27
8.8521322e-27
8.9796859e-27
9.2012525e-27
9.4824978e-27
9.6787546e-27
9.4921027e-27
8.4115382e-27
5.8910772e-27
2.1762587e-27
4.705749e-29
5.8275376e-30
6.6157012e-28
2.3515644e-27
3.7603644e-27
4.4610808e-27
4.639577e-27
4.5664173e-27
4.4212202e-27
4.2963629e-27
4.2238499e-27
4.2238482e-27
4.2963584e-27
4.4212133e-27
4.5664091e-27
4.6395681e-27
4.4610721e-27
3.7603573e-27
2.3515608e-27
6.6156983e-28
5.8275684e-30
6.8063302e-31
1.9055462e-28
8.9577266e-28
1.6126416e-27
2.0204258e-27
2.1519662e-27
2.1350895e-27
2.0680084e-27
2.0046727e-27
1.9671774e-27
1.9671763e-27
2.00467e-27
2.0680043e-27
2.1350849e-27
2.1519615e-27
2.0204217e-27
1.6126386e-27
8.9577147e-28
1.9055462e-28
6.8063739e-31
7.6010134e-32
5.2518201e-29
3.2781495e-28
6.6665077e-28
8.8484601e-28
9.6815919e-28
9.7099574e-28
9.4298558e-28
9.1337935e-28
8.9536953e-28
8.9536895e-28
9.1337786e-28
9.4298339e-28
9.7099333e-28
9.6815686e-28
8.8484414e-28
6.666496e-28
3.2781462e-28
5.2518236e-29
7.6010737e-32
8.18553e-33
1.393753e-29
1.1578884e-28
2.6660558e-28
3.7573161e-28
4.2328008e-28
4.3005336e-28
4.1952679e-28
4.0660064e-28
3.9845726e-28
3.9845696e-28
4.0659987e-28
4.1952566e-28
4.3005216e-28
4.2327899e-28
3.7573082e-28
2.6660517e-28
1.1578878e-28
1.393755e-29
8.1856087e-33
8.5458764e-34
3.576085e-30
3.9596591e-29
1.0340384e-28
1.5499223e-28
1.8007753e-28
1.8564479e-28
1.8217581e-28
1.7686585e-28
1.7336993e-28
1.7336978e-28
1.7686547e-28
1.8217526e-28
1.8564422e-28
1.8007704e-28
1.549919e-28
1.0340371e-28
3.9596588e-29
3.576093e-30
8.5459713e-34
8.6793938e-35
8.8946707e-31
1.3136936e-29
3.8961438e-29
6.2192678e-29
7.4616469e-29
7.8146953e-29
7.7225429e-29
7.5167174e-29
7.373466e-29
7.3734589e-29
7.5166995e-29
7.7225172e-29
7.8146696e-29
7.4616255e-29
6.2192552e-29
3.8961399e-29
1.3136942e-29
8.8946978e-31
8.6795001e-35
8.5946019e-36
2.1484831e-31
4.2342778e-30
1.4277772e-29
2.4297144e-29
3.0131057e-29
3.2087548e-29
3.1957613e-29
3.120562e-29
3.0643563e-29
3.0643531e-29
3.1205538e-29
3.1957498e-29
3.2087435e-29
3.0130968e-29
2.4297096e-29
1.4277762e-29
4.234282e-30
2.1484913e-31
8.5947148e-36
8.3106199e-37
5.0461781e-32
1.3272152e-30
5.0928375e-30
9.2475735e-30
1.1862529e-29
1.2853931e-29
1.2909822e-29
1.2652365e-29
1.2440893e-29
1.2440878e-29
1.2652329e-29
1.2909772e-29
1.2853884e-29
1.1862493e-29
9.2475566e-30
5.092836e-30
1.3272173e-30
5.0462013e-32
8.3107347e-37
7.9325817e-38
1.1535238e-32
4.0485825e-31
1.7692593e-30
3.4304915e-30
4.5546684e-30
5.0242568e-30
5.0908559e-30
5.0093566e-30
4.9330492e-30
4.9330429e-30
5.0093415e-30
5.090835e-30
5.0242374e-30
4.5546544e-30
3.4304859e-30
1.7692595e-30
4.0485916e-31
1.1535302e-32
7.9368382e-38
1.9811195e-38
2.5682565e-33
1.2026125e-31
5.9891364e-31
1.2408017e-30
1.7059465e-30
1.9164813e-30
1.9597299e-30
1.9365674e-30
1.9101939e-30
1.9101914e-30
1.9365612e-30
1.9597215e-30
1.9164736e-30
1.7059413e-30
1.2408e-30
5.9891405e-31
1.2026161e-31
2.5682734e-33
1.9832474e-38
8.2313365e-39
5.575206e-34
3.4804209e-32
1.9763352e-31
4.3773331e-31
6.2346188e-31
7.1351486e-31
7.3649355e-31
7.3101511e-31
7.2231012e-31
7.2230911e-31
7.3101266e-31
7.364903e-31
7.1351197e-31
6.2346002e-31
4.3773287e-31
1.9763378e-31
3.4804346e-32
5.5752502e-34
8.2390181e-39
2.2377078e-39
1.1814671e-34
9.8185989e-33
6.3598473e-32
1.5066602e-31
2.2238169e-31
2.5932728e-31
2.7024887e-31
2.6946149e-31
2.6673241e-31
2.6673202e-31
2.6946056e-31
2.7024765e-31
2.5932621e-31
2.2238106e-31
1.5066593e-31
6.3598604e-32
9.8186455e-33
1.181476e-34
2.2376049e-39
4.6795824e-40
2.4440396e-35
2.7013887e-33
1.9966113e-32
5.0612027e-32
7.7436744e-32
9.2030959e-32
9.6840308e-32
9.7007136e-32
9.6202254e-32
9.620211e-32
9.7006789e-32
9.6839862e-32
9.2030582e-32
7.7436538e-32
5.0612021e-32
1.9966169e-32
2.7014039e-33
2.4440595e-35
4.6788949e-40
8.0933535e-41
4.9349672e-36
7.2510762e-34
6.1173932e-33
1.6598421e-32
2.6331378e-32
3.189817e-32
3.3895175e-32
3.4113691e-32
3.3894366e-32
3.3894314e-32
3.4113565e-32
3.3895016e-32
3.1898039e-32
2.6331312e-32
1.6598426e-32
6.1174145e-33
7.251124e-34
4.935008e-36
8.0940092e-41
1.1229284e-41
9.7242853e-37
1.8995756e-34
1.8298736e-33
5.3161586e-33
8.7459541e-33
1.080087e-32
1.1590835e-32
1.1721143e-32
1.1668004e-32
1.1667986e-32
1.1721098e-32
1.159078e-32
1.0800825e-32
8.7459333e-33
5.3161623e-33
1.8298812e-33
1.89959e-34
9.7243682e-37
1.1239043e-41
1.211459e-42
1.8700176e-37
4.8586707e-35
5.3458388e-34
1.6633796e-33
2.8384493e-33
3.5738534e-33
3.8734933e-33
3.9358475e-33
3.9255481e-33
3.9255418e-33
3.9358322e-33
3.8734746e-33
3.5738385e-33
2.8384428e-33
1.6633813e-33
5.3458645e-34
4.8587121e-35
1.8700341e-37
1.2159973e-42
)
;

boundaryField
{
    Wall
    {
        type            zeroGradient;
    }
    frontAndBack
    {
        type            empty;
    }
    atmosphere
    {
        type            zeroGradient;
    }
}


// ************************************************************************* //
