/*--------------------------------*- C++ -*----------------------------------*\
| =========                 |                                                 |
| \\      /  F ield         | OpenFOAM: The Open Source CFD Toolbox           |
|  \\    /   O peration     | Version:  3.0.1                                 |
|   \\  /    A nd           | Web:      www.OpenFOAM.org                      |
|    \\/     M anipulation  |                                                 |
\*---------------------------------------------------------------------------*/
FoamFile
{
    version     2.0;
    format      ascii;
    class       volScalarField;
    location    "25";
    object      mOne;
}
// * * * * * * * * * * * * * * * * * * * * * * * * * * * * * * * * * * * * * //

dimensions      [0 0 0 0 0 0 0];

internalField   nonuniform List<scalar> 
800
(
10.928606
10.92951
10.92962
10.929618
10.929608
10.929602
10.929598
10.929597
10.929596
10.929595
10.929595
10.929596
10.929597
10.929598
10.929602
10.929608
10.929618
10.92962
10.92951
10.928606
10.600571
10.615666
10.618416
10.618737
10.618601
10.61847
10.618407
10.618392
10.618397
10.618403
10.618403
10.618397
10.618392
10.618407
10.61847
10.618601
10.618737
10.618416
10.615665
10.600571
10.29607
10.318116
10.324348
10.325204
10.325112
10.324949
10.324871
10.324861
10.324877
10.324891
10.324891
10.324877
10.324861
10.324871
10.324949
10.325111
10.325204
10.324348
10.318116
10.29607
10.042706
10.069065
10.077979
10.079138
10.079047
10.078849
10.078758
10.078752
10.078777
10.078798
10.078798
10.078777
10.078752
10.078758
10.078849
10.079047
10.079138
10.077979
10.069064
10.042705
9.8447785
9.8733864
9.8842209
9.8862722
9.8861071
9.8858382
9.8857157
9.8857013
9.885728
9.8857525
9.8857525
9.8857279
9.8857012
9.8857155
9.8858381
9.8861069
9.8862721
9.8842207
9.8733862
9.8447781
9.6874323
9.7187635
9.7310362
9.7343797
9.7340582
9.7336669
9.733483
9.7334415
9.733459
9.7334815
9.7334815
9.7334589
9.7334413
9.7334828
9.7336668
9.734058
9.7343796
9.7310362
9.7187634
9.6874321
9.5428943
9.5809816
9.5935832
9.5981777
9.597616
9.5970455
9.5967655
9.5966749
9.5966717
9.5966868
9.5966868
9.5966716
9.5966747
9.5967654
9.5970454
9.5976159
9.5981777
9.5935832
9.5809816
9.5428941
9.376121
9.4265989
9.4396333
9.4451475
9.4442345
9.4434294
9.4430239
9.4428691
9.4428381
9.4428426
9.4428426
9.442838
9.4428689
9.4430237
9.4434292
9.4442344
9.4451475
9.4396333
9.4265989
9.3761209
9.1456073
9.216789
9.2306361
9.2366839
9.2375291
9.2364102
9.2358741
9.2356618
9.2356076
9.2356044
9.2356044
9.2356074
9.2356615
9.2358738
9.23641
9.237529
9.2366838
9.2306361
9.216789
9.1456071
8.8013832
8.9077546
8.9227041
8.9290073
8.9330704
8.934741
8.9341377
8.933913
8.9338564
8.9338588
8.9338588
8.9338562
8.9339126
8.9341373
8.9347406
8.9330701
8.9290071
8.9227038
8.9077543
8.8013825
8.2871013
8.4416388
8.4636246
8.4701841
8.4811531
8.4872332
8.4867003
8.4865575
8.4865238
8.4865559
8.4865558
8.4865234
8.486557
8.4866998
8.4872327
8.4811525
8.4701836
8.463624
8.4416381
8.2871
7.5488148
7.7569044
7.7971803
7.8040944
7.8265266
7.8360465
7.8358702
7.8359973
7.8359446
7.8360576
7.8360575
7.8359442
7.8359966
7.8358694
7.8360457
7.8265257
7.8040935
7.7971793
7.7569032
7.5488128
6.5442716
6.8045117
6.8703162
6.8786428
6.9096654
6.9210437
6.9216864
6.922369
6.9295261
6.9297538
6.9297536
6.9295256
6.9223683
6.9216855
6.9210427
6.9096643
6.8786415
6.8703147
6.8045099
6.5442692
5.2866829
5.5771018
5.6633373
5.6844538
5.7189426
5.7312028
5.7331595
5.7347993
5.74595
5.7464909
5.7464908
5.7459496
5.7347987
5.7331587
5.7312018
5.7189413
5.6844524
5.6633357
5.5771
5.2866807
4.0306931
4.3111424
4.4089395
4.4369193
4.4708679
4.4828747
4.4854027
4.487468
4.4998809
4.5005587
4.5005586
4.4998806
4.4874674
4.485402
4.4828738
4.4708669
4.4369181
4.4089382
4.311141
4.0306918
2.7838919
3.0427607
3.1520492
3.1832496
3.2116031
3.2219121
3.238635
3.2407062
3.2505358
3.251151
3.2511509
3.2505357
3.2407058
3.2386346
3.2219116
3.2116025
3.1832488
3.1520485
3.0427601
2.7838917
1.7597548
1.9662306
2.0696099
2.1060861
2.1285616
2.1364052
2.1454123
2.1468632
2.1527153
2.1530822
2.1530822
2.1527153
2.1468632
2.1454122
2.1364051
2.1285614
2.1060859
2.0696097
1.9662306
1.7597556
0.99045587
1.202481
1.3123327
1.3574555
1.3768675
1.3815086
1.3836331
1.3829277
1.3850346
1.3847071
1.3847071
1.3850346
1.3829277
1.383633
1.3815085
1.3768674
1.3574554
1.3123327
1.2024812
0.99045704
0.44776915
0.69366857
0.81435503
0.86653057
0.88475719
0.88623146
0.88312122
0.87929684
0.87789605
0.87650213
0.87650211
0.87789605
0.87929677
0.88312117
0.88623138
0.88475704
0.86653036
0.81435493
0.69366877
0.44777007
0.15398636
0.37292976
0.49211126
0.54770161
0.56678565
0.56733002
0.56172257
0.55566175
0.55186652
0.5495789
0.54957887
0.55186646
0.55566162
0.56172244
0.56732986
0.56678545
0.54770137
0.49211113
0.37292986
0.15398679
0.040710291
0.1868178
0.28768337
0.34012355
0.35966583
0.36108384
0.35553808
0.34908811
0.34446494
0.34186192
0.34186187
0.34446484
0.34908795
0.35553791
0.36108365
0.35966561
0.34012333
0.28768323
0.18681783
0.040710426
0.0086772987
0.08723144
0.16210907
0.20627746
0.22458505
0.22719451
0.22302664
0.21751499
0.2132415
0.2108481
0.21084804
0.21324139
0.21751483
0.22302647
0.22719433
0.22458486
0.20627729
0.16210895
0.08723144
0.0086773298
0.0015795188
0.038017613
0.087878662
0.12170327
0.13731709
0.14061611
0.13805467
0.13398284
0.1306133
0.12870425
0.1287042
0.13061319
0.13398269
0.13805452
0.14061595
0.13731694
0.12170315
0.087878585
0.038017606
0.0015795248
0.00025790227
0.015543468
0.045800202
0.069698787
0.081949497
0.085295912
0.084020882
0.08132447
0.078943635
0.0775703
0.07757026
0.078943545
0.081324346
0.08402076
0.085295799
0.081949399
0.069698713
0.045800161
0.015543465
0.00025790334
3.9113473e-05
0.0060067139
0.022962637
0.038708384
0.047648811
0.050585474
0.050140012
0.048510016
0.046963117
0.046051161
0.046051131
0.046963049
0.048509922
0.050139923
0.050585397
0.047648751
0.038708345
0.02296262
0.0060067146
3.9113664e-05
5.6354223e-06
0.0022110935
0.011091606
0.020845405
0.026969072
0.029288376
0.029283745
0.028377357
0.027439272
0.026872017
0.026871995
0.027439223
0.02837729
0.029283684
0.029288327
0.026969039
0.020845388
0.011091601
0.002211095
5.6354561e-06
7.8216521e-07
0.00078039696
0.005171615
0.010890616
0.014855615
0.016542615
0.016718181
0.016254911
0.015719133
0.015385399
0.015385385
0.015719099
0.016254866
0.01671814
0.016542585
0.014855597
0.01089061
0.0051716152
0.00078039814
7.8217104e-07
1.0546096e-07
0.0002654449
0.0023323606
0.0055243004
0.0079653438
0.0091122652
0.0093232418
0.0091080042
0.0088182405
0.0086312978
0.0086312883
0.0088182188
0.0091079745
0.0093232158
0.009112247
0.0079653348
0.0055242992
0.002332362
0.00026544553
1.0546191e-07
1.3882898e-08
8.7341056e-05
0.0010193578
0.0027232714
0.0041590212
0.0048952373
0.0050771212
0.0049889975
0.004840176
0.0047400132
0.0047400072
0.0048401624
0.0049889789
0.0050771054
0.0048952267
0.0041590168
0.0027232719
0.001019359
8.7341342e-05
1.388304e-08
1.7895395e-09
2.7876451e-05
0.00043246235
0.001305911
0.0021158831
0.0025653591
0.0026996947
0.0026706397
0.0025980023
0.0025465052
0.0025465016
0.0025979941
0.0026706285
0.0026996854
0.0025653532
0.002115881
0.0013059118
0.00043246312
2.7876568e-05
1.7895594e-09
2.2626259e-10
8.6477519e-06
0.00017835689
0.00060975392
0.0010494825
0.0013119232
0.001401894
0.0013969907
0.0013633523
0.0013378924
0.0013378902
0.0013633476
0.0013969842
0.0014018887
0.00131192
0.0010494815
0.00060975452
0.00017835733
8.647796e-06
2.2626528e-10
2.8092399e-11
2.6113773e-06
7.1596481e-05
0.00027746052
0.00050783299
0.00065501004
0.00071110517
0.00071415081
0.00069944022
0.00068732147
0.00068732027
0.00069943754
0.00071414716
0.00071110222
0.00065500835
0.00050783258
0.00027746093
7.1596708e-05
2.6113932e-06
2.809267e-11
3.5910278e-12
7.6850263e-07
2.8004074e-05
0.00012314463
0.00023988778
0.00031943348
0.00035247207
0.00035686468
0.00035084985
0.00034529434
0.00034529369
0.00035084839
0.0003568627
0.00035247049
0.00031943262
0.00023988762
0.00012314488
2.8004185e-05
7.6850816e-07
3.5943569e-12
1.9427618e-12
2.2062005e-07
1.0682911e-05
5.3350116e-05
0.00011069071
0.00015224041
0.00017079211
0.0001743708
0.00017211807
0.00016966688
0.00016966654
0.0001721173
0.00017436976
0.00017079129
0.00015223997
0.00011069065
5.3350253e-05
1.0682963e-05
2.2062191e-07
1.944711e-12
1.1910734e-12
6.1874169e-08
3.9779663e-06
2.2577566e-05
4.9922568e-05
7.09455e-05
8.0939267e-05
8.3342674e-05
8.2605559e-05
8.1566583e-05
8.1566407e-05
8.2605161e-05
8.3342137e-05
8.0938849e-05
7.0945291e-05
4.9922549e-05
2.2577638e-05
3.9779895e-06
6.187478e-08
1.1920609e-12
4.264325e-13
1.6979832e-08
1.4471171e-06
9.3397161e-06
2.2020326e-05
3.2344018e-05
3.7532235e-05
3.8982464e-05
3.8800552e-05
3.8379007e-05
3.8378919e-05
3.8800353e-05
3.8982196e-05
3.7532028e-05
3.2343919e-05
2.2020321e-05
9.3397521e-06
1.4471266e-06
1.6979979e-08
4.2641134e-13
1.1571255e-13
4.5593599e-09
5.1469064e-07
3.7791715e-06
9.5046931e-06
1.4433238e-05
1.7037776e-05
1.7851499e-05
1.7844176e-05
1.7681503e-05
1.7681461e-05
1.7844078e-05
1.7851368e-05
1.7037677e-05
1.4433192e-05
9.5046923e-06
3.779188e-06
5.1469443e-07
4.5593981e-09
1.156981e-13
2.5897757e-14
1.1977418e-09
1.790795e-07
1.4967106e-06
4.0168509e-06
6.3074732e-06
7.5752178e-06
8.0072676e-06
8.0385617e-06
7.979539e-06
7.9795188e-06
8.0385154e-06
8.0072051e-06
7.5751704e-06
6.3074519e-06
4.0168506e-06
1.4967178e-06
1.7908096e-07
1.1977504e-09
2.5900482e-14
4.6368767e-15
3.07739e-10
6.0989298e-08
5.8050658e-07
1.6630374e-06
2.7007792e-06
3.3003471e-06
3.5196592e-06
3.5487966e-06
3.5291049e-06
3.5290956e-06
3.5487749e-06
3.5196299e-06
3.300325e-06
2.7007693e-06
1.6630371e-06
5.8050958e-07
6.0989836e-08
3.0774081e-10
4.6413071e-15
6.3786173e-16
7.7335969e-11
2.0343359e-08
2.2062118e-07
6.7485802e-07
1.1336492e-06
1.4096558e-06
1.5167879e-06
1.5360424e-06
1.5302992e-06
1.5302949e-06
1.5360325e-06
1.5167745e-06
1.4096456e-06
1.1336446e-06
6.7485777e-07
2.2062236e-07
2.0343549e-08
7.7336259e-11
6.4029267e-16
)
;

boundaryField
{
    Wall
    {
        type            zeroGradient;
    }
    frontAndBack
    {
        type            empty;
    }
    atmosphere
    {
        type            zeroGradient;
    }
}


// ************************************************************************* //
