/*--------------------------------*- C++ -*----------------------------------*\
| =========                 |                                                 |
| \\      /  F ield         | OpenFOAM: The Open Source CFD Toolbox           |
|  \\    /   O peration     | Version:  3.0.1                                 |
|   \\  /    A nd           | Web:      www.OpenFOAM.org                      |
|    \\/     M anipulation  |                                                 |
\*---------------------------------------------------------------------------*/
FoamFile
{
    version     2.0;
    format      ascii;
    class       volScalarField;
    location    "25";
    object      mThree;
}
// * * * * * * * * * * * * * * * * * * * * * * * * * * * * * * * * * * * * * //

dimensions      [0 0 0 0 0 0 0];

internalField   nonuniform List<scalar> 
800
(
1.282804e-23
1.2831307e-23
1.2831712e-23
1.2831711e-23
1.2831682e-23
1.2831662e-23
1.2831653e-23
1.2831649e-23
1.2831647e-23
1.2831646e-23
1.2831646e-23
1.2831647e-23
1.2831649e-23
1.2831653e-23
1.2831663e-23
1.2831682e-23
1.2831711e-23
1.2831712e-23
1.2831307e-23
1.2828041e-23
1.1719165e-23
1.1768804e-23
1.1777925e-23
1.1778987e-23
1.1778529e-23
1.1778085e-23
1.1777869e-23
1.1777814e-23
1.1777826e-23
1.1777845e-23
1.1777845e-23
1.1777826e-23
1.1777814e-23
1.1777869e-23
1.1778085e-23
1.1778529e-23
1.1778987e-23
1.1777925e-23
1.1768804e-23
1.1719164e-23
1.1054128e-23
1.1118004e-23
1.1135825e-23
1.11381e-23
1.1137806e-23
1.1137381e-23
1.1137218e-23
1.1137242e-23
1.1137325e-23
1.1137385e-23
1.1137385e-23
1.1137325e-23
1.1137242e-23
1.1137218e-23
1.1137381e-23
1.1137806e-23
1.1138099e-23
1.1135825e-23
1.1118004e-23
1.1054126e-23
1.0811386e-23
1.0877144e-23
1.0900621e-23
1.0903408e-23
1.09032e-23
1.0902862e-23
1.0902823e-23
1.090297e-23
1.0903148e-23
1.0903259e-23
1.0903259e-23
1.0903148e-23
1.090297e-23
1.0902823e-23
1.0902862e-23
1.09032e-23
1.0903408e-23
1.0900622e-23
1.0877144e-23
1.0811386e-23
1.095115e-23
1.1009259e-23
1.1036381e-23
1.1041855e-23
1.1041585e-23
1.1041292e-23
1.1041373e-23
1.1041646e-23
1.1041921e-23
1.1042085e-23
1.1042085e-23
1.1041921e-23
1.1041646e-23
1.1041373e-23
1.1041292e-23
1.1041586e-23
1.1041855e-23
1.1036382e-23
1.100926e-23
1.095115e-23
1.140977e-23
1.1458086e-23
1.148772e-23
1.149778e-23
1.1497262e-23
1.1496895e-23
1.1497035e-23
1.14974e-23
1.1497754e-23
1.1497963e-23
1.1497963e-23
1.1497755e-23
1.14974e-23
1.1497035e-23
1.1496896e-23
1.1497263e-23
1.1497782e-23
1.1487721e-23
1.1458088e-23
1.1409771e-23
1.209757e-23
1.2145482e-23
1.2173321e-23
1.2188468e-23
1.2187436e-23
1.2186794e-23
1.2186866e-23
1.2187244e-23
1.2187635e-23
1.2187869e-23
1.2187869e-23
1.2187635e-23
1.2187244e-23
1.2186866e-23
1.2186795e-23
1.2187437e-23
1.218847e-23
1.2173323e-23
1.2145483e-23
1.2097571e-23
1.2894136e-23
1.2958191e-23
1.2982981e-23
1.3002372e-23
1.3000377e-23
1.2999155e-23
1.2998955e-23
1.2999223e-23
1.2999588e-23
1.2999818e-23
1.2999818e-23
1.2999588e-23
1.2999223e-23
1.2998956e-23
1.2999156e-23
1.3000378e-23
1.3002373e-23
1.2982983e-23
1.2958192e-23
1.2894137e-23
1.3630793e-23
1.3742818e-23
1.376284e-23
1.3784751e-23
1.379108e-23
1.3788748e-23
1.3788007e-23
1.3788021e-23
1.3788291e-23
1.3788489e-23
1.3788489e-23
1.3788291e-23
1.3788021e-23
1.3788007e-23
1.3788749e-23
1.379108e-23
1.3784752e-23
1.3762841e-23
1.3742819e-23
1.3630793e-23
1.4068169e-23
1.4294517e-23
1.4306257e-23
1.432862e-23
1.4350603e-23
1.4361312e-23
1.4359801e-23
1.4359469e-23
1.4359604e-23
1.4359758e-23
1.4359758e-23
1.4359604e-23
1.4359468e-23
1.4359801e-23
1.4361312e-23
1.4350603e-23
1.432862e-23
1.4306257e-23
1.4294517e-23
1.4068168e-23
1.3910161e-23
1.4316157e-23
1.4342152e-23
1.4363189e-23
1.4418859e-23
1.4450411e-23
1.4448124e-23
1.444749e-23
1.4447479e-23
1.4447608e-23
1.4447608e-23
1.4447478e-23
1.4447489e-23
1.4448123e-23
1.445041e-23
1.4418858e-23
1.4363188e-23
1.4342151e-23
1.4316156e-23
1.3910158e-23
1.286741e-23
1.3477499e-23
1.3568225e-23
1.3585754e-23
1.3694058e-23
1.3740796e-23
1.3738427e-23
1.3737928e-23
1.3737639e-23
1.3737856e-23
1.3737855e-23
1.3737638e-23
1.3737926e-23
1.3738425e-23
1.3740794e-23
1.3694056e-23
1.3585752e-23
1.3568223e-23
1.3477495e-23
1.2867404e-23
1.0762643e-23
1.1547378e-23
1.1732085e-23
1.1744896e-23
1.1883874e-23
1.1935384e-23
1.1934629e-23
1.1935116e-23
1.1968608e-23
1.196885e-23
1.196885e-23
1.1968607e-23
1.1935114e-23
1.1934627e-23
1.1935382e-23
1.1883871e-23
1.1744893e-23
1.1732082e-23
1.1547373e-23
1.0762636e-23
7.780968e-24
8.6001929e-24
8.8363747e-24
8.8895718e-24
9.0251541e-24
9.0734276e-24
9.0763551e-24
9.0794367e-24
9.1226821e-24
9.1237754e-24
9.1237751e-24
9.1226811e-24
9.0794351e-24
9.0763529e-24
9.073425e-24
9.0251509e-24
8.8895682e-24
8.8363707e-24
8.600188e-24
7.7809621e-24
4.9281586e-24
5.5550465e-24
5.7511846e-24
5.7990036e-24
5.9034447e-24
5.9416709e-24
5.9467942e-24
5.95156e-24
5.9903329e-24
5.9920191e-24
5.992019e-24
5.9903323e-24
5.9515589e-24
5.9467927e-24
5.9416689e-24
5.9034423e-24
5.7990007e-24
5.7511815e-24
5.5550429e-24
4.928155e-24
2.6851654e-24
3.1160954e-24
3.2733833e-24
3.3081942e-24
3.3725953e-24
3.3978e-24
3.4301133e-24
3.434655e-24
3.4594817e-24
3.4609889e-24
3.4609888e-24
3.4594815e-24
3.4346545e-24
3.4301126e-24
3.397799e-24
3.372594e-24
3.3081927e-24
3.2733818e-24
3.1160937e-24
2.6851643e-24
1.3210243e-24
1.5441106e-24
1.6372038e-24
1.6631074e-24
1.6972385e-24
1.7117747e-24
1.7282107e-24
1.7316101e-24
1.7441054e-24
1.7451726e-24
1.7451726e-24
1.7441054e-24
1.73161e-24
1.7282106e-24
1.7117744e-24
1.6972381e-24
1.6631069e-24
1.6372034e-24
1.5441103e-24
1.3210246e-24
5.923693e-25
7.3353202e-25
7.9297083e-25
8.119634e-25
8.2814973e-25
8.3500259e-25
8.4082314e-25
8.424294e-25
8.480624e-25
8.4858759e-25
8.485876e-25
8.4806249e-25
8.4242943e-25
8.4082317e-25
8.3500256e-25
8.2814963e-25
8.1196326e-25
7.9297073e-25
7.3353208e-25
5.9236994e-25
2.1659486e-25
3.3374004e-25
3.8064607e-25
3.9559627e-25
4.0243386e-25
4.0400875e-25
4.0445765e-25
4.0414078e-25
4.058594e-25
4.0579131e-25
4.0579132e-25
4.0585945e-25
4.041408e-25
4.0445767e-25
4.0400874e-25
4.0243379e-25
3.9559615e-25
3.8064601e-25
3.3374011e-25
2.1659531e-25
6.0917795e-26
1.4180521e-25
1.7931151e-25
1.9269086e-25
1.9663608e-25
1.9627182e-25
1.9485439e-25
1.9350157e-25
1.9335278e-25
1.929192e-25
1.929192e-25
1.933528e-25
1.9350156e-25
1.9485437e-25
1.9627178e-25
1.9663599e-25
1.9269076e-25
1.7931145e-25
1.4180525e-25
6.0917972e-26
1.3270115e-26
5.5865457e-26
8.1833851e-26
9.2775884e-26
9.5953665e-26
9.5532835e-26
9.4065602e-26
9.2669707e-26
9.1971524e-26
9.1477261e-26
9.1477257e-26
9.1971519e-26
9.2669684e-26
9.4065568e-26
9.5532784e-26
9.595359e-26
9.2775803e-26
8.1833798e-26
5.5865463e-26
1.3270162e-26
2.3369133e-27
2.0406985e-26
3.5961752e-26
4.376993e-26
4.6371628e-26
4.630994e-26
4.5336098e-26
4.4317845e-26
4.3666263e-26
4.3274244e-26
4.327424e-26
4.3666252e-26
4.4317821e-26
4.5336065e-26
4.6309897e-26
4.6371574e-26
4.3769876e-26
3.5961716e-26
2.0406983e-26
2.3369225e-27
3.5094936e-28
6.9371706e-27
1.5184252e-26
2.012799e-26
2.2048894e-26
2.2222012e-26
2.1708089e-26
2.1091144e-26
2.0644967e-26
2.0387455e-26
2.038745e-26
2.0644956e-26
2.1091126e-26
2.1708065e-26
2.2221982e-26
2.204886e-26
2.0127959e-26
1.5184231e-26
6.937168e-27
3.5095084e-28
4.7069411e-29
2.2100865e-27
6.1608991e-27
8.9978277e-27
1.0269993e-26
1.050433e-26
1.027924e-26
9.949551e-27
9.688582e-27
9.5387975e-27
9.5387944e-27
9.6885741e-27
9.9495384e-27
1.0279224e-26
1.0504312e-26
1.0269975e-26
8.9978116e-27
6.1608895e-27
2.2100853e-27
4.7069626e-29
5.8277655e-30
6.6554398e-28
2.4055625e-27
3.905922e-27
4.673646e-27
4.8742723e-27
4.7953776e-27
4.6356936e-27
4.4981335e-27
4.4183631e-27
4.4183612e-27
4.4981285e-27
4.635686e-27
4.7953685e-27
4.8742625e-27
4.6736366e-27
3.9059145e-27
2.4055588e-27
6.6554369e-28
5.8277964e-30
6.8063685e-31
1.9097595e-28
9.0570822e-28
1.6462578e-27
2.0749148e-27
2.2149938e-27
2.1976129e-27
2.126693e-27
2.0596794e-27
2.0200394e-27
2.0200383e-27
2.0596765e-27
2.1266887e-27
2.1976081e-27
2.2149889e-27
2.0749105e-27
1.6462547e-27
9.0570701e-28
1.9097595e-28
6.8064122e-31
7.6010193e-32
5.2559186e-29
3.2951028e-28
6.7391101e-28
8.9799094e-28
9.8417507e-28
9.8722902e-28
9.5831373e-28
9.2773688e-28
9.0914515e-28
9.0914455e-28
9.2773534e-28
9.5831146e-28
9.8722653e-28
9.8417268e-28
8.9798903e-28
6.7390982e-28
3.2950995e-28
5.2559221e-29
7.6010797e-32
8.1855309e-33
1.394123e-29
1.160589e-28
2.6807839e-28
3.7872444e-28
4.2713712e-28
4.3406285e-28
4.2334784e-28
4.1018614e-28
4.0189646e-28
4.0189616e-28
4.1018535e-28
4.2334669e-28
4.3406163e-28
4.2713601e-28
3.7872364e-28
2.6807797e-28
1.1605884e-28
1.394125e-29
8.1856096e-33
8.5458765e-34
3.5763974e-30
3.9636954e-29
1.0368544e-28
1.5563684e-28
1.8095905e-28
1.8658733e-28
1.8308468e-28
1.7772191e-28
1.7419171e-28
1.7419156e-28
1.7772153e-28
1.8308413e-28
1.8658676e-28
1.8095856e-28
1.5563652e-28
1.0368531e-28
3.9636951e-29
3.5764054e-30
8.5459714e-34
8.6793938e-35
8.8949187e-31
1.3142617e-29
3.9012319e-29
6.232427e-29
7.4807887e-29
7.8357926e-29
7.7431671e-29
7.5362458e-29
7.3922426e-29
7.3922355e-29
7.5362278e-29
7.7431412e-29
7.8357667e-29
7.4807672e-29
6.2324144e-29
3.9012279e-29
1.3142623e-29
8.8949457e-31
8.6795001e-35
8.5946019e-36
2.1485017e-31
4.235033e-30
1.4286478e-29
2.4322643e-29
3.0170587e-29
3.2132531e-29
3.2002258e-29
3.1248164e-29
3.0684561e-29
3.0684528e-29
3.1248082e-29
3.2002142e-29
3.2132418e-29
3.0170498e-29
2.4322596e-29
1.4286468e-29
4.2350372e-30
2.1485098e-31
8.5947148e-36
8.3106199e-37
5.0461913e-32
1.3273102e-30
5.0942506e-30
9.2522697e-30
1.1870299e-29
1.2863072e-29
1.2919041e-29
1.2661215e-29
1.2449444e-29
1.2449429e-29
1.2661179e-29
1.2918991e-29
1.2863024e-29
1.1870263e-29
9.2522528e-30
5.0942491e-30
1.3273123e-30
5.0462145e-32
8.3107347e-37
7.9325817e-38
1.1535247e-32
4.0486959e-31
1.7694771e-30
3.4313144e-30
4.5561233e-30
5.0260277e-30
5.0926726e-30
5.0111142e-30
4.9347525e-30
4.9347463e-30
5.011099e-30
5.0926518e-30
5.0260083e-30
4.5561093e-30
3.4313088e-30
1.7694774e-30
4.048705e-31
1.153531e-32
7.9368382e-38
1.9811195e-38
2.5682571e-33
1.2026253e-31
5.9894559e-31
1.240939e-30
1.7062062e-30
1.9168086e-30
1.9600716e-30
1.9369007e-30
1.910518e-30
1.9105155e-30
1.9368946e-30
1.9600632e-30
1.9168009e-30
1.706201e-30
1.2409373e-30
5.98946e-31
1.202629e-31
2.5682739e-33
1.9832474e-38
8.2313365e-39
5.5752063e-34
3.4804347e-32
1.9763798e-31
4.3775517e-31
6.2350611e-31
7.1357261e-31
7.3655493e-31
7.3107549e-31
7.2236904e-31
7.2236803e-31
7.3107305e-31
7.3655168e-31
7.1356972e-31
6.2350425e-31
4.3775472e-31
1.9763825e-31
3.4804484e-32
5.5752505e-34
8.2390181e-39
2.2377078e-39
1.1814671e-34
9.8186131e-33
6.3599067e-32
1.5066934e-31
2.2238888e-31
2.5933701e-31
2.7025941e-31
2.6947194e-31
2.6674265e-31
2.6674226e-31
2.6947101e-31
2.7025819e-31
2.5933595e-31
2.2238825e-31
1.5066925e-31
6.3599198e-32
9.8186597e-33
1.181476e-34
2.2376049e-39
4.6795824e-40
2.4440396e-35
2.7013901e-33
1.9966189e-32
5.0612508e-32
7.7437862e-32
9.2032527e-32
9.6842037e-32
9.7008867e-32
9.6203955e-32
9.6203811e-32
9.700852e-32
9.6841591e-32
9.203215e-32
7.7437655e-32
5.0612502e-32
1.9966244e-32
2.7014053e-33
2.4440595e-35
4.6788949e-40
8.0933535e-41
4.9349672e-36
7.2510775e-34
6.1174024e-33
1.6598487e-32
2.6331544e-32
3.1898412e-32
3.3895446e-32
3.4113965e-32
3.3894637e-32
3.3894584e-32
3.4113839e-32
3.3895288e-32
3.1898281e-32
2.6331478e-32
1.6598492e-32
6.1174236e-33
7.2511253e-34
4.9350081e-36
8.0940092e-41
1.1229284e-41
9.7242853e-37
1.8995758e-34
1.8298746e-33
5.3161675e-33
8.7459777e-33
1.0800906e-32
1.1590875e-32
1.1721184e-32
1.1668045e-32
1.1668027e-32
1.172114e-32
1.1590821e-32
1.0800861e-32
8.7459569e-33
5.3161711e-33
1.8298822e-33
1.8995902e-34
9.7243682e-37
1.1239043e-41
1.211459e-42
1.8700176e-37
4.8586708e-35
5.34584e-34
1.6633808e-33
2.8384525e-33
3.5738584e-33
3.8734992e-33
3.9358535e-33
3.9255541e-33
3.9255478e-33
3.9358383e-33
3.8734805e-33
3.5738435e-33
2.838446e-33
1.6633825e-33
5.3458657e-34
4.8587122e-35
1.8700341e-37
1.2159973e-42
)
;

boundaryField
{
    Wall
    {
        type            zeroGradient;
    }
    frontAndBack
    {
        type            empty;
    }
    atmosphere
    {
        type            zeroGradient;
    }
}


// ************************************************************************* //
