/*--------------------------------*- C++ -*----------------------------------*\
| =========                 |                                                 |
| \\      /  F ield         | OpenFOAM: The Open Source CFD Toolbox           |
|  \\    /   O peration     | Version:  3.0.1                                 |
|   \\  /    A nd           | Web:      www.OpenFOAM.org                      |
|    \\/     M anipulation  |                                                 |
\*---------------------------------------------------------------------------*/
FoamFile
{
    version     2.0;
    format      ascii;
    class       volScalarField;
    location    "25";
    object      mTwo;
}
// * * * * * * * * * * * * * * * * * * * * * * * * * * * * * * * * * * * * * //

dimensions      [0 0 0 0 0 0 0];

internalField   nonuniform List<scalar> 
800
(
1.193027e-11
1.1932242e-11
1.1932481e-11
1.1932477e-11
1.1932457e-11
1.1932442e-11
1.1932435e-11
1.1932431e-11
1.1932429e-11
1.1932428e-11
1.1932428e-11
1.1932429e-11
1.1932431e-11
1.1932435e-11
1.1932443e-11
1.1932457e-11
1.1932477e-11
1.1932482e-11
1.1932242e-11
1.1930271e-11
1.123096e-11
1.1262486e-11
1.126826e-11
1.1268929e-11
1.1268637e-11
1.1268354e-11
1.1268216e-11
1.126818e-11
1.1268188e-11
1.1268199e-11
1.12682e-11
1.1268188e-11
1.126818e-11
1.1268216e-11
1.1268354e-11
1.1268636e-11
1.1268929e-11
1.1268259e-11
1.1262486e-11
1.1230959e-11
1.0747496e-11
1.0789825e-11
1.080162e-11
1.0803162e-11
1.080297e-11
1.0802679e-11
1.0802557e-11
1.0802562e-11
1.0802609e-11
1.0802646e-11
1.0802646e-11
1.0802609e-11
1.0802562e-11
1.0802557e-11
1.0802678e-11
1.080297e-11
1.0803162e-11
1.080162e-11
1.0789825e-11
1.0747495e-11
1.0492078e-11
1.0537661e-11
1.0553561e-11
1.0555507e-11
1.0555359e-11
1.0555091e-11
1.0555023e-11
1.0555089e-11
1.0555186e-11
1.055525e-11
1.055525e-11
1.0555186e-11
1.0555089e-11
1.0555022e-11
1.0555091e-11
1.0555359e-11
1.0555507e-11
1.0553561e-11
1.053766e-11
1.0492077e-11
1.0447629e-11
1.0490573e-11
1.0509114e-11
1.051277e-11
1.0512555e-11
1.0512271e-11
1.0512243e-11
1.0512363e-11
1.0512507e-11
1.0512597e-11
1.0512597e-11
1.0512507e-11
1.0512363e-11
1.0512243e-11
1.0512272e-11
1.0512555e-11
1.051277e-11
1.0509114e-11
1.0490574e-11
1.0447629e-11
1.0570457e-11
1.0609995e-11
1.0630289e-11
1.0636671e-11
1.0636257e-11
1.0635873e-11
1.0635836e-11
1.0635981e-11
1.0636153e-11
1.0636261e-11
1.0636261e-11
1.0636153e-11
1.0635981e-11
1.0635836e-11
1.0635874e-11
1.0636257e-11
1.0636671e-11
1.063029e-11
1.0609995e-11
1.0570457e-11
1.0796345e-11
1.0839096e-11
1.0858581e-11
1.086779e-11
1.0867016e-11
1.086641e-11
1.0866284e-11
1.08664e-11
1.0866572e-11
1.0866685e-11
1.0866685e-11
1.0866572e-11
1.08664e-11
1.0866284e-11
1.086641e-11
1.0867016e-11
1.086779e-11
1.0858582e-11
1.0839097e-11
1.0796345e-11
1.1045394e-11
1.1101941e-11
1.1120205e-11
1.1131602e-11
1.113022e-11
1.1129231e-11
1.1128911e-11
1.1128936e-11
1.1129074e-11
1.1129175e-11
1.1129175e-11
1.1129074e-11
1.1128936e-11
1.1128911e-11
1.1129231e-11
1.113022e-11
1.1131603e-11
1.1120206e-11
1.1101942e-11
1.1045395e-11
1.1218102e-11
1.130661e-11
1.1323337e-11
1.1335938e-11
1.133897e-11
1.133734e-11
1.1336715e-11
1.1336594e-11
1.1336673e-11
1.1336752e-11
1.1336752e-11
1.1336673e-11
1.1336594e-11
1.1336715e-11
1.133734e-11
1.133897e-11
1.1335938e-11
1.1323337e-11
1.130661e-11
1.1218102e-11
1.118698e-11
1.1342648e-11
1.1356881e-11
1.1369702e-11
1.1380827e-11
1.1386061e-11
1.1385089e-11
1.1384819e-11
1.1384838e-11
1.13849e-11
1.13849e-11
1.1384837e-11
1.1384819e-11
1.1385089e-11
1.138606e-11
1.1380827e-11
1.1369702e-11
1.1356881e-11
1.1342648e-11
1.118698e-11
1.0802819e-11
1.1059084e-11
1.1083638e-11
1.109605e-11
1.1124502e-11
1.1140545e-11
1.1139329e-11
1.1138997e-11
1.1138973e-11
1.1139043e-11
1.1139043e-11
1.1138972e-11
1.1138996e-11
1.1139328e-11
1.1140545e-11
1.1124501e-11
1.109605e-11
1.1083637e-11
1.1059083e-11
1.0802817e-11
9.9219455e-12
1.0292442e-11
1.035415e-11
1.0365439e-11
1.0421562e-11
1.044561e-11
1.0444618e-11
1.0444527e-11
1.0444391e-11
1.0444551e-11
1.044455e-11
1.044439e-11
1.0444526e-11
1.0444617e-11
1.0445609e-11
1.042156e-11
1.0365438e-11
1.0354149e-11
1.029244e-11
9.9219422e-12
8.4445587e-12
8.9203016e-12
9.0355911e-12
9.0460759e-12
9.1201883e-12
9.1474551e-12
9.1476563e-12
9.1483362e-12
9.1661252e-12
9.1663791e-12
9.1663789e-12
9.1661245e-12
9.148335e-12
9.1476548e-12
9.1474535e-12
9.1201864e-12
9.0460738e-12
9.0355887e-12
8.9202985e-12
8.4445545e-12
6.436412e-12
6.9528799e-12
7.1030061e-12
7.1380488e-12
7.214477e-12
7.2415707e-12
7.2441277e-12
7.2465026e-12
7.2713171e-12
7.2721287e-12
7.2721285e-12
7.2713164e-12
7.2465015e-12
7.2441262e-12
7.2415689e-12
7.2144749e-12
7.1380464e-12
7.1030034e-12
6.9528767e-12
6.4364082e-12
4.4258614e-12
4.8584506e-12
4.9972482e-12
5.0329607e-12
5.0972966e-12
5.120756e-12
5.1247608e-12
5.1282784e-12
5.1526611e-12
5.1538698e-12
5.1538697e-12
5.1526607e-12
5.1282777e-12
5.1247597e-12
5.1207546e-12
5.0972949e-12
5.0329587e-12
4.997246e-12
4.8584482e-12
4.425859e-12
2.694975e-12
3.029279e-12
3.1559304e-12
3.1868705e-12
3.2313318e-12
3.2486362e-12
3.2725e-12
3.2760512e-12
3.2933203e-12
3.2944611e-12
3.294461e-12
3.2933201e-12
3.2760508e-12
3.2724994e-12
3.2486355e-12
3.2313308e-12
3.1868694e-12
3.1559292e-12
3.0292778e-12
2.6949743e-12
1.4998105e-12
1.7075937e-12
1.7995207e-12
1.8278927e-12
1.8553665e-12
1.8666663e-12
1.8794395e-12
1.8822355e-12
1.8918909e-12
1.892735e-12
1.892735e-12
1.891891e-12
1.8822355e-12
1.8794394e-12
1.8666661e-12
1.8553662e-12
1.8278924e-12
1.7995203e-12
1.7075935e-12
1.499811e-12
7.5537274e-13
9.2139187e-13
9.9715746e-13
1.0241932e-12
1.0403483e-12
1.0460803e-12
1.050483e-12
1.0514628e-12
1.0559347e-12
1.0562302e-12
1.0562302e-12
1.0559348e-12
1.0514628e-12
1.050483e-12
1.0460802e-12
1.0403482e-12
1.024193e-12
9.9715735e-13
9.2139198e-13
7.5537357e-13
3.0923673e-13
4.7460407e-13
5.469877e-13
5.7366948e-13
5.8342804e-13
5.8457974e-13
5.8380604e-13
5.8244628e-13
5.8327e-13
5.8282437e-13
5.8282437e-13
5.8327004e-13
5.8244626e-13
5.8380602e-13
5.8457968e-13
5.834279e-13
5.736693e-13
5.4698759e-13
4.7460416e-13
3.0923734e-13
9.7234007e-14
2.2888005e-13
2.9450323e-13
3.2119479e-13
3.2927571e-13
3.2873506e-13
3.2583886e-13
3.2300318e-13
3.2177496e-13
3.2078618e-13
3.2078618e-13
3.2177495e-13
3.2300313e-13
3.258388e-13
3.2873497e-13
3.2927556e-13
3.2119461e-13
2.9450312e-13
2.2888009e-13
9.7234275e-14
2.3691855e-14
1.0299849e-13
1.5408958e-13
1.7795316e-13
1.8568187e-13
1.8540452e-13
1.8249757e-13
1.7950929e-13
1.7763445e-13
1.7650753e-13
1.7650752e-13
1.7763442e-13
1.7950923e-13
1.8249748e-13
1.8540441e-13
1.8568173e-13
1.7795301e-13
1.5408948e-13
1.0299849e-13
2.3691934e-14
4.6814955e-15
4.3283581e-14
7.797441e-14
9.681306e-14
1.0377893e-13
1.041996e-13
1.0212269e-13
9.972845e-14
9.8011978e-14
9.7034808e-14
9.7034792e-14
9.801194e-14
9.9728385e-14
1.0212261e-13
1.041995e-13
1.0377882e-13
9.6812952e-14
7.7974336e-14
4.3283574e-14
4.6815123e-15
7.9324101e-16
1.7033875e-14
3.808756e-14
5.1477436e-14
5.7138945e-14
5.8004819e-14
5.6802665e-14
5.5171822e-14
5.389739e-14
5.3175865e-14
5.317585e-14
5.3897355e-14
5.5171767e-14
5.68026e-14
5.8004746e-14
5.7138867e-14
5.1477366e-14
3.8087514e-14
1.7033868e-14
7.9324403e-16
1.2091185e-16
6.3161543e-15
1.7954868e-14
2.6684971e-14
3.0868552e-14
3.1836349e-14
3.1263461e-14
3.0273122e-14
2.9438727e-14
2.8961027e-14
2.8961015e-14
2.9438698e-14
3.027308e-14
3.1263414e-14
3.1836299e-14
3.0868503e-14
2.6684931e-14
1.7954845e-14
6.3161512e-15
1.2091235e-16
1.7155917e-17
2.2243316e-15
8.176925e-15
1.3471984e-14
1.6324863e-14
1.7174283e-14
1.6967184e-14
1.6418813e-14
1.5919138e-14
1.5627488e-14
1.562748e-14
1.5919119e-14
1.6418784e-14
1.6967152e-14
1.7174252e-14
1.6324836e-14
1.3471963e-14
8.1769154e-15
2.2243309e-15
1.7156e-17
2.3166402e-18
7.4974678e-16
3.6036886e-15
6.6230215e-15
8.4412043e-15
9.087768e-15
9.0571392e-15
8.7776477e-15
8.4986733e-15
8.3317054e-15
8.3317e-15
8.4986601e-15
8.7776291e-15
9.0571199e-15
9.0877501e-15
8.44119e-15
6.6230122e-15
3.6036853e-15
7.4974696e-16
2.3166539e-18
3.018316e-19
2.4342869e-16
1.5399207e-15
3.1718256e-15
4.2654191e-15
4.7112621e-15
4.7470939e-15
4.6160076e-15
4.4692143e-15
4.3786267e-15
4.3786233e-15
4.4692061e-15
4.615996e-15
4.7470823e-15
4.7112521e-15
4.2654121e-15
3.1718219e-15
1.53992e-15
2.4342894e-16
3.0183384e-19
3.8260575e-20
7.6500173e-17
6.3923324e-16
1.4807072e-15
2.1061518e-15
2.3913117e-15
2.4402103e-15
2.3842831e-15
2.3110348e-15
2.2641307e-15
2.2641287e-15
2.3110299e-15
2.3842763e-15
2.4402036e-15
2.3913064e-15
2.1061485e-15
1.4807059e-15
6.3923325e-16
7.6500312e-17
3.8260917e-20
4.7423037e-21
2.3350138e-17
2.581969e-16
6.7430016e-16
1.0164001e-15
1.1880384e-15
1.229385e-15
1.2083875e-15
1.1736184e-15
1.1503312e-15
1.15033e-15
1.1736156e-15
1.2083836e-15
1.2293813e-15
1.1880356e-15
1.0163986e-15
6.7429982e-16
2.5819704e-16
2.3350202e-17
4.7423522e-21
5.7645296e-22
6.9392292e-18
1.0162017e-16
2.997641e-16
4.7953687e-16
5.7769748e-16
6.0680158e-16
6.0051708e-16
5.8480739e-16
5.7368528e-16
5.7368463e-16
5.8480583e-16
6.0051493e-16
6.0679963e-16
5.7769607e-16
4.7953623e-16
2.9976407e-16
1.0162029e-16
6.9392542e-18
5.7645938e-22
6.8837144e-23
2.0112857e-18
3.9016299e-17
1.3018136e-16
2.2127171e-16
2.7497513e-16
2.9338608e-16
2.9251717e-16
2.8577395e-16
2.8065337e-16
2.8065301e-16
2.8577311e-16
2.9251602e-16
2.9338506e-16
2.7497444e-16
2.2127144e-16
1.301814e-16
3.9016371e-17
2.0112947e-18
6.8837958e-23
8.0839192e-24
5.6926304e-19
1.4627221e-17
5.5263443e-17
9.9897183e-17
1.2814426e-16
1.3895432e-16
1.3964089e-16
1.3690616e-16
1.3463104e-16
1.3463085e-16
1.3690572e-16
1.396403e-16
1.3895381e-16
1.2814393e-16
9.989708e-17
5.5263488e-17
1.4627258e-17
5.6926613e-19
8.0840107e-24
9.6017088e-25
1.5748078e-19
5.3588565e-18
2.2945701e-17
4.4145328e-17
5.8483643e-17
6.4476151e-17
6.5328985e-17
6.4293003e-17
6.331723e-17
6.3317134e-17
6.4292781e-17
6.5328687e-17
6.44759e-17
5.8483492e-17
4.4145293e-17
2.2945734e-17
5.3588745e-18
1.5748181e-19
9.6083523e-25
3.7909613e-25
4.2611687e-20
1.9198733e-18
9.3233839e-18
1.9102959e-17
2.6147644e-17
2.9316303e-17
2.9955571e-17
2.9597605e-17
2.9193928e-17
2.9193881e-17
2.9597496e-17
2.9955425e-17
2.9316183e-17
2.6147576e-17
1.9102949e-17
9.323403e-18
1.9198815e-18
4.2612018e-20
3.7947049e-25
2.0697063e-25
1.1290702e-20
6.7300725e-19
3.7091397e-18
8.0980208e-18
1.1456109e-17
1.3065137e-17
1.3465093e-17
1.3358528e-17
1.3197753e-17
1.3197731e-17
1.3358475e-17
1.3465024e-17
1.3065081e-17
1.145608e-17
8.0980195e-18
3.70915e-18
6.7301081e-19
1.1290807e-20
2.0714654e-25
6.9745195e-26
2.933349e-21
2.3098187e-19
1.4454461e-18
3.3642985e-18
4.9203696e-18
5.7087417e-18
5.9348197e-18
5.9123343e-18
5.8509136e-18
5.8509029e-18
5.9123098e-18
5.9347876e-18
5.7087164e-18
4.9203574e-18
3.3642992e-18
1.4454513e-18
2.309833e-19
2.933374e-21
6.9742348e-26
1.7979374e-26
7.4713458e-22
7.7657252e-20
5.5203302e-19
1.3703025e-18
2.072369e-18
2.4463892e-18
2.5656362e-18
2.5666653e-18
2.5443007e-18
2.5442959e-18
2.566654e-18
2.5656215e-18
2.4463779e-18
2.072364e-18
1.3703033e-18
5.5203539e-19
7.7657799e-20
7.4714108e-22
1.7977251e-26
3.8367072e-27
1.8652403e-22
2.5586211e-20
2.0670716e-19
5.4741635e-19
8.562449e-19
1.0285196e-18
1.088193e-18
1.0932408e-18
1.0855666e-18
1.0855644e-18
1.0932357e-18
1.0881865e-18
1.0285147e-18
8.5624286e-19
5.4741681e-19
2.0670819e-19
2.5586415e-20
1.8652556e-22
3.8371276e-27
6.5698765e-28
4.5626986e-23
8.2646212e-21
7.5918989e-20
2.1456905e-19
3.4717393e-19
4.2437326e-19
4.5298203e-19
4.5701964e-19
4.5459139e-19
4.5459045e-19
4.5701743e-19
4.5297917e-19
4.2437113e-19
3.4717308e-19
2.1456927e-19
7.5919411e-20
8.2646945e-21
4.5627333e-23
6.5761002e-28
8.6816077e-29
1.0935583e-23
2.6182555e-21
2.7360565e-20
8.2552117e-20
1.3818783e-19
1.7190212e-19
1.8512496e-19
1.8757217e-19
1.8689734e-19
1.8689693e-19
1.8757122e-19
1.8512372e-19
1.719012e-19
1.3818748e-19
8.2552209e-20
2.736073e-20
2.6182807e-21
1.0935654e-23
8.7146973e-29
)
;

boundaryField
{
    Wall
    {
        type            zeroGradient;
    }
    frontAndBack
    {
        type            empty;
    }
    atmosphere
    {
        type            zeroGradient;
    }
}


// ************************************************************************* //
