/*--------------------------------*- C++ -*----------------------------------*\
| =========                 |                                                 |
| \\      /  F ield         | OpenFOAM: The Open Source CFD Toolbox           |
|  \\    /   O peration     | Version:  3.0.1                                 |
|   \\  /    A nd           | Web:      www.OpenFOAM.org                      |
|    \\/     M anipulation  |                                                 |
\*---------------------------------------------------------------------------*/
FoamFile
{
    version     2.0;
    format      ascii;
    class       volScalarField;
    location    "25";
    object      mZero;
}
// * * * * * * * * * * * * * * * * * * * * * * * * * * * * * * * * * * * * * //

dimensions      [0 0 0 0 0 0 0];

internalField   nonuniform List<scalar> 
800
(
1e+13
1e+13
1e+13
1e+13
1e+13
1e+13
1e+13
1e+13
1e+13
1e+13
1e+13
1e+13
1e+13
1e+13
1e+13
1e+13
1e+13
1e+13
1e+13
1e+13
1e+13
1e+13
1e+13
1e+13
1e+13
1e+13
1e+13
1e+13
1e+13
1e+13
1e+13
1e+13
1e+13
1e+13
1e+13
1e+13
1e+13
1e+13
1e+13
1e+13
9.8606296e+12
9.8635391e+12
9.8645065e+12
9.8647109e+12
9.8646979e+12
9.8646455e+12
9.8646002e+12
9.8645706e+12
9.864554e+12
9.8645468e+12
9.8645468e+12
9.8645539e+12
9.8645706e+12
9.8646002e+12
9.8646454e+12
9.8646978e+12
9.8647107e+12
9.8645064e+12
9.8635389e+12
9.8606294e+12
9.6121297e+12
9.6202422e+12
9.6225306e+12
9.6229362e+12
9.6228821e+12
9.6227391e+12
9.6226196e+12
9.6225409e+12
9.6224958e+12
9.622476e+12
9.622476e+12
9.6224957e+12
9.6225407e+12
9.6226194e+12
9.6227389e+12
9.6228818e+12
9.6229359e+12
9.6225302e+12
9.6202418e+12
9.6121292e+12
9.2813264e+12
9.2963264e+12
9.300054e+12
9.3006379e+12
9.300499e+12
9.3002332e+12
9.3000206e+12
9.2998816e+12
9.2998013e+12
9.299766e+12
9.299766e+12
9.2998012e+12
9.2998813e+12
9.3000203e+12
9.3002329e+12
9.3004985e+12
9.3006374e+12
9.3000535e+12
9.2963259e+12
9.2813258e+12
8.8912024e+12
8.9143441e+12
8.9195741e+12
8.9203142e+12
8.9200472e+12
8.9196382e+12
8.9193236e+12
8.9191201e+12
8.9190039e+12
8.9189527e+12
8.9189527e+12
8.9190038e+12
8.9191198e+12
8.9193232e+12
8.9196377e+12
8.9200466e+12
8.9203136e+12
8.9195735e+12
8.9143435e+12
8.8912017e+12
8.4603253e+12
8.4928036e+12
8.4996237e+12
8.5005226e+12
8.5000927e+12
8.4995308e+12
8.4991171e+12
8.4988538e+12
8.4987063e+12
8.4986416e+12
8.4986415e+12
8.498706e+12
8.4988535e+12
8.4991167e+12
8.4995304e+12
8.5000922e+12
8.500522e+12
8.4996232e+12
8.4928031e+12
8.4603248e+12
8.0028171e+12
8.0457609e+12
8.0545277e+12
8.0556639e+12
8.0550422e+12
8.0543323e+12
8.053836e+12
8.0535285e+12
8.0533594e+12
8.0532856e+12
8.0532855e+12
8.0533592e+12
8.0535282e+12
8.0538356e+12
8.0543319e+12
8.0550417e+12
8.0556635e+12
8.0545273e+12
8.0457606e+12
8.0028167e+12
7.5283646e+12
7.5829359e+12
7.5942944e+12
7.5958906e+12
7.5951927e+12
7.5943445e+12
7.5938012e+12
7.5934765e+12
7.5932988e+12
7.5932213e+12
7.5932212e+12
7.5932986e+12
7.5934762e+12
7.5938009e+12
7.5943441e+12
7.5951924e+12
7.5958903e+12
7.5942941e+12
7.5829357e+12
7.5283642e+12
7.0423023e+12
7.1099372e+12
7.1249233e+12
7.1274077e+12
7.1267799e+12
7.1259359e+12
7.1254086e+12
7.1250984e+12
7.1249208e+12
7.1248445e+12
7.1248444e+12
7.1249207e+12
7.1250982e+12
7.1254083e+12
7.1259357e+12
7.1267797e+12
7.1274075e+12
7.1249231e+12
7.109937e+12
7.0423019e+12
6.545897e+12
6.6282499e+12
6.6486709e+12
6.6528331e+12
6.6525834e+12
6.651891e+12
6.6514242e+12
6.6511488e+12
6.6509594e+12
6.6508831e+12
6.650883e+12
6.6509592e+12
6.6511486e+12
6.651424e+12
6.6518907e+12
6.6525833e+12
6.652833e+12
6.6486707e+12
6.6282496e+12
6.5458966e+12
6.0365134e+12
6.1357879e+12
6.1644795e+12
6.1716718e+12
6.1724294e+12
6.1720478e+12
6.1716483e+12
6.1714015e+12
6.1711224e+12
6.1710394e+12
6.1710394e+12
6.1711222e+12
6.1714012e+12
6.1716481e+12
6.1720476e+12
6.1724293e+12
6.1716717e+12
6.1644793e+12
6.1357876e+12
6.036513e+12
5.5067693e+12
5.6266372e+12
5.6679185e+12
5.6805176e+12
5.6832198e+12
5.6833268e+12
5.6829313e+12
5.6826606e+12
5.6822407e+12
5.6821387e+12
5.6821386e+12
5.6822406e+12
5.6826603e+12
5.682931e+12
5.6833266e+12
5.6832197e+12
5.6805175e+12
5.6679183e+12
5.626637e+12
5.506769e+12
4.9434127e+12
5.0896805e+12
5.1506995e+12
5.1726274e+12
5.1787745e+12
5.1795893e+12
5.1790127e+12
5.1785238e+12
5.1781306e+12
5.1779437e+12
5.1779436e+12
5.1781304e+12
5.1785235e+12
5.1790125e+12
5.1795891e+12
5.1787744e+12
5.1726274e+12
5.1506993e+12
5.0896804e+12
4.9434128e+12
4.3250553e+12
4.5080131e+12
4.6008993e+12
4.6389901e+12
4.6511753e+12
4.653067e+12
4.6518953e+12
4.6507379e+12
4.6500998e+12
4.6496566e+12
4.6496564e+12
4.6500996e+12
4.6507375e+12
4.651895e+12
4.6530669e+12
4.6511753e+12
4.6389901e+12
4.6008992e+12
4.5080133e+12
4.3250559e+12
3.6195493e+12
3.8576376e+12
4.0008824e+12
4.0662881e+12
4.0892865e+12
4.0932247e+12
4.0910892e+12
4.0885013e+12
4.0870423e+12
4.0860107e+12
4.0860105e+12
4.087042e+12
4.0885008e+12
4.091089e+12
4.0932247e+12
4.0892865e+12
4.0662883e+12
4.0008825e+12
3.8576382e+12
3.6195507e+12
2.7618272e+12
3.0858027e+12
3.3071879e+12
3.4188078e+12
3.4618046e+12
3.4702577e+12
3.4672235e+12
3.4618774e+12
3.4584548e+12
3.4562621e+12
3.4562619e+12
3.4584545e+12
3.4618768e+12
3.4672233e+12
3.4702577e+12
3.4618047e+12
3.4188081e+12
3.3071883e+12
3.0858037e+12
2.7618296e+12
1.8104454e+12
2.2547624e+12
2.5578039e+12
2.7282316e+12
2.8011395e+12
2.8176989e+12
2.8124452e+12
2.8021234e+12
2.7946758e+12
2.790316e+12
2.7903157e+12
2.7946754e+12
2.8021227e+12
2.8124449e+12
2.8176988e+12
2.8011395e+12
2.7282317e+12
2.5578042e+12
2.2547636e+12
1.8104482e+12
9.3278276e+11
1.5203181e+12
1.8851864e+12
2.0986377e+12
2.1969285e+12
2.2214918e+12
2.2128057e+12
2.1959526e+12
2.1827978e+12
2.1753614e+12
2.175361e+12
2.1827972e+12
2.1959517e+12
2.2128052e+12
2.2214915e+12
2.1969282e+12
2.0986375e+12
1.8851865e+12
1.520319e+12
9.3278499e+11
3.5997838e+11
9.5023654e+11
1.3363821e+12
1.5698142e+12
1.6822531e+12
1.7123193e+12
1.7013677e+12
1.6791231e+12
1.6607931e+12
1.6504486e+12
1.6504481e+12
1.6607923e+12
1.6791219e+12
1.7013669e+12
1.7123187e+12
1.6822526e+12
1.5698137e+12
1.336382e+12
9.5023706e+11
3.599795e+11
1.0558337e+11
5.5307905e+11
9.1161976e+11
1.1416396e+12
1.25733e+12
1.2907097e+12
1.2801279e+12
1.2560023e+12
1.2351382e+12
1.2232217e+12
1.2232212e+12
1.2351373e+12
1.256001e+12
1.2801269e+12
1.2907089e+12
1.2573293e+12
1.1416391e+12
9.1161949e+11
5.5307928e+11
1.0558375e+11
2.4774288e+10
2.9934498e+11
5.9727757e+11
8.0522816e+11
9.1509272e+11
9.4960369e+11
9.4159052e+11
9.1915377e+11
8.988152e+11
8.8701077e+11
8.8701026e+11
8.9881418e+11
9.1915242e+11
9.4158942e+11
9.4960279e+11
9.1509197e+11
8.0522761e+11
5.9727726e+11
2.9934504e+11
2.4774385e+10
4.939322e+09
1.5041612e+11
3.7489967e+11
5.4935313e+11
6.4691266e+11
6.8038513e+11
6.7587103e+11
6.5740091e+11
6.3980725e+11
6.294185e+11
6.2941801e+11
6.3980626e+11
6.573996e+11
6.7586993e+11
6.8038423e+11
6.4691194e+11
5.4935264e+11
3.7489938e+11
1.5041612e+11
4.9393426e+09
8.803332e+08
7.0406322e+10
2.2506035e+11
3.6178657e+11
4.4335607e+11
4.738897e+11
4.7265678e+11
4.5893269e+11
4.4510078e+11
4.3678293e+11
4.367825e+11
4.4509989e+11
4.589315e+11
4.7265577e+11
4.7388888e+11
4.4335545e+11
3.6178618e+11
2.2506015e+11
7.0406315e+10
8.8033719e+08
1.4537243e+08
3.0918587e+10
1.2919937e+11
2.2976615e+11
2.9423336e+11
3.2047364e+11
3.2164337e+11
3.1234364e+11
3.023036e+11
2.9614378e+11
2.9614342e+11
3.0230285e+11
3.1234263e+11
3.216425e+11
3.2047296e+11
2.9423286e+11
2.2976587e+11
1.2919925e+11
3.0918588e+10
1.453732e+08
22758360
1.2841186e+10
7.1011394e+10
1.4071076e+11
1.8901065e+11
2.1030024e+11
2.1282137e+11
2.0705858e+11
2.0026013e+11
1.9599209e+11
1.9599181e+11
2.0025954e+11
2.0705778e+11
2.1282068e+11
2.102997e+11
1.8901028e+11
1.4071059e+11
7.1011335e+10
1.2841192e+10
22758505
3425520.1
5.0802676e+09
3.744568e+10
8.3148572e+10
1.1754495e+11
1.3389574e+11
1.3687015e+11
1.3362231e+11
1.2929902e+11
1.265097e+11
1.2650949e+11
1.2929857e+11
1.3362169e+11
1.3686962e+11
1.3389534e+11
1.1754469e+11
8.3148469e+10
3.7445655e+10
5.0802726e+09
3425546.8
499902.87
1.9256377e+09
1.8990296e+10
4.746087e+10
7.0807946e+10
8.2731875e+10
8.5553309e+10
8.3919751e+10
8.1327377e+10
7.9598121e+10
7.9597972e+10
8.132705e+10
8.39193e+10
8.555292e+10
8.2731587e+10
7.0807766e+10
4.7460812e+10
1.8990288e+10
1.9256406e+09
499907.53
71082.771
7.0242417e+08
9.2847146e+09
2.6201886e+10
4.1348654e+10
4.9632029e+10
5.1986162e+10
5.1289779e+10
4.9821381e+10
4.8800315e+10
4.8800213e+10
4.9821154e+10
5.1289465e+10
5.198589e+10
4.963183e+10
4.1348534e+10
2.6201854e+10
9.2847129e+09
7.0242565e+08
71083.523
9876.6109
2.4741613e+08
4.3861604e+09
1.4010007e+10
2.3428177e+10
2.8927096e+10
3.0720418e+10
3.0510397e+10
2.9725075e+10
2.9149293e+10
2.9149225e+10
2.9724924e+10
3.0510187e+10
3.0720235e+10
2.8926964e+10
2.3428101e+10
1.4009989e+10
4.3861609e+09
2.4741678e+08
9876.7248
1343.1694
84369580
2.006069e+09
7.2650249e+09
1.2892344e+10
1.639119e+10
1.7663378e+10
1.7670612e+10
1.7275385e+10
1.696481e+10
1.6964767e+10
1.7275287e+10
1.7670477e+10
1.766326e+10
1.6391106e+10
1.2892296e+10
7.2650153e+09
2.0060697e+09
84369845
1343.1858
179.08751
27909873
8.8984096e+08
3.6583326e+09
6.8970108e+09
9.0366415e+09
9.887378e+09
9.9684573e+09
9.7827622e+09
9.6224379e+09
9.6224116e+09
9.782702e+09
9.9683737e+09
9.8873047e+09
9.03659e+09
6.8969823e+09
3.6583276e+09
8.8984156e+08
27909975
179.08749
26.230956
8971430
3.8339737e+08
1.7909879e+09
3.5903244e+09
4.8509648e+09
5.3916656e+09
5.4802121e+09
5.4001028e+09
5.3209514e+09
5.3209358e+09
5.4000667e+09
5.4801621e+09
5.3916216e+09
4.8509342e+09
3.590308e+09
1.7909853e+09
3.8339777e+08
8971468.6
26.270315
25.109506
2806108.8
1.6067242e+08
8.5337802e+08
1.8202895e+09
2.5374889e+09
2.8660424e+09
2.9376648e+09
2.9070961e+09
2.8698086e+09
2.8697997e+09
2.9070752e+09
2.9376358e+09
2.8660167e+09
2.5374712e+09
1.8202804e+09
8.5337675e+08
1.6067265e+08
2806122.8
25.133778
17.907865
855854.17
65569937
3.9615688e+08
8.996028e+08
1.2943659e+09
1.4860915e+09
1.5363747e+09
1.5270887e+09
1.5104038e+09
1.5103988e+09
1.5270769e+09
1.5363584e+09
1.4860771e+09
1.294356e+09
8.995979e+08
3.9615625e+08
65570058
855859.06
17.921648
6.9975241
255102.47
26088221
1.7933593e+08
4.3372335e+08
6.4431352e+08
7.5213195e+08
7.8440692e+08
7.8317466e+08
7.7614336e+08
7.761407e+08
7.8316822e+08
7.8439806e+08
7.5212403e+08
6.443082e+08
4.3372078e+08
1.7933563e+08
26088273
255103.16
6.9969217
2.0543444
74316.341
10129815
79236329
2.041503e+08
3.1320006e+08
3.7179505e+08
3.911954e+08
3.9236373e+08
3.8961803e+08
3.8961664e+08
3.9236029e+08
3.911907e+08
3.7179083e+08
3.1319724e+08
2.0414899e+08
79236176
10129835
74316.388
2.0540125
0.49599258
21157.523
3841658.7
34196787
93880392
1.48769e+08
1.7961427e+08
1.9068143e+08
1.9213234e+08
1.9117239e+08
1.9117168e+08
1.9213056e+08
1.90679e+08
1.7961207e+08
1.4876755e+08
93879732
34196708
3841666.5
21157.463
0.49602984
0.095483985
5884.4315
1424031.5
14426505
42206443
69094138
84851959
90893498
92009945
91735689
91735335
92009042
90892270
84850844
69093401
42206115
14426464
1424034.2
5884.3926
0.095574257
0.014038457
1598.9643
516318.87
5953123.5
18562375
31395384
39220547
42394176
43114820
43073588
43073415
43114373
42393568
39219992
31395017
18562216
5953102.3
516319.64
1598.9452
0.01409144
)
;

boundaryField
{
    Wall
    {
        type            zeroGradient;
    }
    frontAndBack
    {
        type            empty;
    }
    atmosphere
    {
        type            zeroGradient;
    }
}


// ************************************************************************* //
