/*--------------------------------*- C++ -*----------------------------------*\
| =========                 |                                                 |
| \\      /  F ield         | OpenFOAM: The Open Source CFD Toolbox           |
|  \\    /   O peration     | Version:  3.0.1                                 |
|   \\  /    A nd           | Web:      www.OpenFOAM.org                      |
|    \\/     M anipulation  |                                                 |
\*---------------------------------------------------------------------------*/
FoamFile
{
    version     2.0;
    format      ascii;
    class       volScalarField;
    location    "25";
    object      node1;
}
// * * * * * * * * * * * * * * * * * * * * * * * * * * * * * * * * * * * * * //

dimensions      [0 0 0 0 0 0 0];

internalField   nonuniform List<scalar> 
800
(
1.089685e-12
1.0897748e-12
1.0897857e-12
1.0897855e-12
1.0897846e-12
1.0897839e-12
1.0897836e-12
1.0897834e-12
1.0897833e-12
1.0897833e-12
1.0897833e-12
1.0897833e-12
1.0897834e-12
1.0897836e-12
1.0897839e-12
1.0897846e-12
1.0897855e-12
1.0897857e-12
1.0897748e-12
1.089685e-12
1.0562071e-12
1.0577604e-12
1.0580404e-12
1.0580732e-12
1.05806e-12
1.0580473e-12
1.0580416e-12
1.0580405e-12
1.0580413e-12
1.0580421e-12
1.0580421e-12
1.0580413e-12
1.0580405e-12
1.0580416e-12
1.0580473e-12
1.05806e-12
1.0580732e-12
1.0580404e-12
1.0577604e-12
1.0562071e-12
1.0400573e-12
1.0420335e-12
1.0425791e-12
1.0426462e-12
1.0426394e-12
1.0426296e-12
1.0426275e-12
1.0426303e-12
1.0426342e-12
1.0426367e-12
1.0426367e-12
1.0426342e-12
1.0426303e-12
1.0426275e-12
1.0426296e-12
1.0426394e-12
1.0426462e-12
1.0425791e-12
1.0420335e-12
1.0400573e-12
1.0404924e-12
1.0424108e-12
1.0431123e-12
1.0431916e-12
1.0431898e-12
1.0431863e-12
1.043191e-12
1.0431997e-12
1.0432078e-12
1.0432124e-12
1.0432124e-12
1.0432078e-12
1.0431997e-12
1.043191e-12
1.0431863e-12
1.0431899e-12
1.0431916e-12
1.0431123e-12
1.0424108e-12
1.0404924e-12
1.0564709e-12
1.0578227e-12
1.0585588e-12
1.0587133e-12
1.0587115e-12
1.0587132e-12
1.0587245e-12
1.0587389e-12
1.0587511e-12
1.0587578e-12
1.0587578e-12
1.0587511e-12
1.058739e-12
1.0587245e-12
1.0587132e-12
1.0587115e-12
1.0587133e-12
1.0585588e-12
1.0578227e-12
1.056471e-12
1.0855033e-12
1.0861608e-12
1.0868914e-12
1.0871784e-12
1.0871746e-12
1.0871807e-12
1.0871985e-12
1.0872187e-12
1.0872348e-12
1.0872436e-12
1.0872436e-12
1.0872348e-12
1.0872187e-12
1.0871985e-12
1.0871807e-12
1.0871747e-12
1.0871784e-12
1.0868915e-12
1.0861608e-12
1.0855033e-12
1.124419e-12
1.1245292e-12
1.1250937e-12
1.1255196e-12
1.1255086e-12
1.1255149e-12
1.125536e-12
1.1255597e-12
1.1255786e-12
1.1255887e-12
1.1255887e-12
1.1255786e-12
1.1255598e-12
1.1255361e-12
1.1255149e-12
1.1255087e-12
1.1255197e-12
1.1250938e-12
1.1245293e-12
1.1244191e-12
1.1693706e-12
1.1692635e-12
1.1695905e-12
1.1701185e-12
1.1700894e-12
1.1700878e-12
1.1701063e-12
1.1701294e-12
1.1701487e-12
1.1701592e-12
1.1701592e-12
1.1701487e-12
1.1701294e-12
1.1701063e-12
1.1700879e-12
1.1700895e-12
1.1701185e-12
1.1695906e-12
1.1692636e-12
1.1693707e-12
1.2155364e-12
1.2159629e-12
1.2159542e-12
1.2165196e-12
1.216749e-12
1.2167238e-12
1.2167297e-12
1.2167466e-12
1.2167634e-12
1.2167731e-12
1.2167731e-12
1.2167634e-12
1.2167466e-12
1.2167297e-12
1.2167238e-12
1.216749e-12
1.2165196e-12
1.2159542e-12
1.215963e-12
1.2155364e-12
1.2565481e-12
1.2593005e-12
1.2587775e-12
1.2593074e-12
1.2600029e-12
1.2603727e-12
1.2603533e-12
1.2603578e-12
1.2603697e-12
1.2603775e-12
1.2603775e-12
1.2603697e-12
1.2603578e-12
1.2603534e-12
1.2603727e-12
1.260003e-12
1.2593075e-12
1.2587775e-12
1.2593005e-12
1.2565481e-12
1.2845708e-12
1.2916409e-12
1.2911705e-12
1.2915994e-12
1.2933132e-12
1.2943004e-12
1.2942446e-12
1.2942317e-12
1.2942366e-12
1.2942416e-12
1.2942416e-12
1.2942366e-12
1.2942317e-12
1.2942446e-12
1.2943004e-12
1.2933132e-12
1.2915994e-12
1.2911705e-12
1.2916409e-12
1.2845707e-12
1.2904937e-12
1.303501e-12
1.3045911e-12
1.3048335e-12
1.308246e-12
1.3097233e-12
1.3096331e-12
1.3096049e-12
1.3095993e-12
1.3096024e-12
1.3096024e-12
1.3095993e-12
1.3096049e-12
1.3096331e-12
1.3097233e-12
1.308246e-12
1.3048335e-12
1.304591e-12
1.3035009e-12
1.2904936e-12
1.2633039e-12
1.2839141e-12
1.2880424e-12
1.2879605e-12
1.2927373e-12
1.2945112e-12
1.294418e-12
1.2943872e-12
1.295563e-12
1.2955573e-12
1.2955573e-12
1.2955629e-12
1.2943872e-12
1.294418e-12
1.2945112e-12
1.2927372e-12
1.2879604e-12
1.2880424e-12
1.283914e-12
1.2633038e-12
1.192884e-12
1.2211344e-12
1.2283094e-12
1.2296728e-12
1.2353205e-12
1.2373287e-12
1.2373121e-12
1.2373434e-12
1.2390496e-12
1.2390658e-12
1.2390658e-12
1.2390496e-12
1.2373434e-12
1.237312e-12
1.2373286e-12
1.2353204e-12
1.2296727e-12
1.2283093e-12
1.2211343e-12
1.1928838e-12
1.0974851e-12
1.1272988e-12
1.1348361e-12
1.1361499e-12
1.1420914e-12
1.1442525e-12
1.1443384e-12
1.1444641e-12
1.1464393e-12
1.1464919e-12
1.1464919e-12
1.1464393e-12
1.1444641e-12
1.1443383e-12
1.1442524e-12
1.1420913e-12
1.1361498e-12
1.134836e-12
1.1272987e-12
1.0974849e-12
9.7939484e-13
1.0132068e-12
1.0225445e-12
1.0234271e-12
1.0290862e-12
1.031278e-12
1.0339673e-12
1.0341888e-12
1.0361316e-12
1.0362166e-12
1.0362166e-12
1.0361316e-12
1.0341887e-12
1.0339672e-12
1.031278e-12
1.0290861e-12
1.023427e-12
1.0225444e-12
1.0132067e-12
9.7939469e-13
0
0
0
0
0
0
0
0
0
0
0
0
0
0
0
0
0
0
0
0
0
0
0
0
0
0
0
0
0
0
0
0
0
0
0
0
0
0
0
0
0
0
0
0
0
0
0
0
0
0
0
0
0
0
0
0
0
0
0
0
0
0
0
0
0
0
0
0
0
0
0
0
0
0
0
0
0
0
0
0
0
0
0
0
0
0
0
0
0
0
0
0
0
0
0
0
0
0
0
0
0
0
0
0
0
0
0
0
0
0
0
0
0
0
0
0
0
0
0
0
0
0
0
0
0
0
0
0
0
0
0
0
0
0
0
0
0
0
0
0
0
0
0
0
0
0
0
0
0
0
0
0
0
0
0
0
0
0
0
0
0
0
0
0
0
0
0
0
0
0
0
0
0
0
0
0
0
0
0
0
0
0
0
0
0
0
0
0
0
0
0
0
0
0
0
0
0
0
0
0
0
0
0
0
0
0
0
0
0
0
0
0
0
0
0
0
0
0
0
0
0
0
0
0
0
0
0
0
0
0
0
0
0
0
0
0
0
0
0
0
0
0
0
0
0
0
0
0
0
0
0
0
0
0
0
0
0
0
0
0
0
0
0
0
0
0
0
0
0
0
0
0
0
0
0
0
0
0
0
0
0
0
0
0
0
0
0
0
0
0
0
0
0
0
0
0
0
0
0
0
0
0
0
0
0
0
0
0
0
0
0
0
0
0
0
0
0
0
0
0
0
0
0
0
0
0
0
0
0
0
0
0
0
0
0
0
0
0
0
0
0
0
0
0
0
0
0
0
0
0
0
0
0
0
0
0
0
0
0
0
0
0
0
0
0
0
0
0
0
0
0
0
0
0
0
0
0
0
0
0
0
0
0
0
0
0
0
0
0
0
0
0
0
0
0
0
0
0
0
0
0
0
0
0
0
0
0
0
0
0
0
0
0
0
0
0
0
0
0
0
0
0
0
0
0
0
0
0
0
0
0
0
0
0
0
0
0
0
0
0
0
0
0
0
0
0
0
0
0
0
0
0
0
0
0
0
0
0
0
0
0
0
0
0
0
0
0
0
0
0
0
0
0
0
0
0
0
0
0
0
)
;

boundaryField
{
    Wall
    {
        type            zeroGradient;
    }
    frontAndBack
    {
        type            empty;
    }
    atmosphere
    {
        type            zeroGradient;
    }
}


// ************************************************************************* //
