/*--------------------------------*- C++ -*----------------------------------*\
| =========                 |                                                 |
| \\      /  F ield         | OpenFOAM: The Open Source CFD Toolbox           |
|  \\    /   O peration     | Version:  3.0.1                                 |
|   \\  /    A nd           | Web:      www.OpenFOAM.org                      |
|    \\/     M anipulation  |                                                 |
\*---------------------------------------------------------------------------*/
FoamFile
{
    version     2.0;
    format      ascii;
    class       surfaceScalarField;
    location    "25";
    object      phi;
}
// * * * * * * * * * * * * * * * * * * * * * * * * * * * * * * * * * * * * * //

dimensions      [0 3 -1 0 0 0 0];

internalField   nonuniform List<scalar> 
1540
(
3.6038601e-10
1.8308973e-08
4.3441847e-10
1.8604432e-08
4.0939459e-10
1.870471e-08
3.4606277e-10
1.8742853e-08
2.7495231e-10
1.875046e-08
2.0801696e-10
1.8746272e-08
1.4828546e-10
1.8739152e-08
9.5013627e-11
1.8732806e-08
4.6231627e-11
1.8728414e-08
-2.8299456e-13
1.872621e-08
-4.6783207e-11
1.8726214e-08
-9.5523359e-11
1.8728424e-08
-1.4873088e-10
1.8732818e-08
-2.0838162e-10
1.8739164e-08
-2.7522964e-10
1.8746276e-08
-3.4625653e-10
1.8750449e-08
-4.0951623e-10
1.874282e-08
-4.3447881e-10
1.8704646e-08
-3.6041954e-10
1.8604352e-08
1.8308827e-08
2.0329102e-10
3.7077599e-08
3.4241054e-10
3.7437491e-08
3.570246e-10
3.7666991e-08
3.182155e-10
3.775915e-08
2.6086982e-10
3.7785074e-08
2.0111413e-10
3.7782925e-08
1.4490314e-10
3.7771953e-08
9.3364371e-11
3.7760729e-08
4.5581118e-11
3.7752468e-08
-2.1008805e-13
3.7748229e-08
-4.5990144e-11
3.7748234e-08
-9.3741198e-11
3.7752483e-08
-1.4522952e-10
3.7760746e-08
-2.0137742e-10
3.7771964e-08
-2.6106372e-10
3.7782917e-08
-3.1834336e-10
3.7785036e-08
-3.5709847e-10
3.7759069e-08
-3.4245121e-10
3.766686e-08
-2.0331071e-10
3.7437308e-08
3.7077307e-08
2.9379194e-10
5.599004e-08
3.5566423e-10
5.658438e-08
3.4310442e-10
5.6892739e-08
2.9707217e-10
5.7019527e-08
2.4063315e-10
5.705549e-08
1.8445034e-10
5.7052327e-08
1.3241223e-10
5.7036516e-08
8.5072151e-11
5.7020085e-08
4.1443139e-11
5.7007797e-08
-1.8852709e-13
5.7001413e-08
-4.1812151e-11
5.7001418e-08
-8.541645e-11
5.7007808e-08
-1.3271763e-10
5.7020093e-08
-1.8470624e-10
5.7036508e-08
-2.4083313e-10
5.7052288e-08
-2.9721663e-10
5.7055405e-08
-3.4319966e-10
5.7019383e-08
-3.5572265e-10
5.6892528e-08
-2.938222e-10
5.65841e-08
5.5989661e-08
2.9045827e-10
7.5177134e-08
3.4681588e-10
7.6004513e-08
3.2190418e-10
7.6397561e-08
2.7051395e-10
7.6555574e-08
2.1389782e-10
7.6596262e-08
1.6093445e-10
7.6588345e-08
1.1387844e-10
7.6565588e-08
7.23704e-11
7.6542826e-08
3.5028696e-11
7.6525868e-08
-1.7496169e-13
7.6517104e-08
-3.5373514e-11
7.6517105e-08
-7.2700635e-11
7.6525868e-08
-1.1418278e-10
7.6542812e-08
-1.6120491e-10
7.6565549e-08
-2.1412777e-10
7.6588265e-08
-2.7070034e-10
7.6596128e-08
-3.2204668e-10
7.6555376e-08
-3.4691868e-10
7.6397295e-08
-2.9051983e-10
7.6004185e-08
7.5176733e-08
2.6769961e-10
9.4794221e-08
3.2364221e-10
9.5826646e-08
2.9262819e-10
9.6309226e-08
2.3663287e-10
9.6495075e-08
1.8027288e-10
9.6535421e-08
1.3119154e-10
9.6518792e-08
9.0267499e-11
9.6486523e-08
5.6154835e-11
9.6455916e-08
2.677412e-11
9.6433557e-08
-1.6510875e-13
9.6422024e-08
-2.7102521e-11
9.6422019e-08
-5.6478846e-11
9.6433543e-08
-9.0579566e-11
9.6455877e-08
-1.3148661e-10
9.6486453e-08
-1.8053955e-10
9.6518674e-08
-2.3686472e-10
9.6535254e-08
-2.9281714e-10
9.6494851e-08
-3.237804e-10
9.6308952e-08
-2.6776838e-10
9.5826337e-08
9.4793887e-08
2.7049046e-10
1.1505604e-07
3.068834e-10
1.1629942e-07
2.6172705e-10
1.1685903e-07
1.9636359e-10
1.170618e-07
1.3949615e-10
1.1709259e-07
9.5087314e-11
1.1706168e-07
6.1435851e-11
1.1701698e-07
3.6164376e-11
1.169767e-07
1.661362e-11
1.1694779e-07
-1.587807e-13
1.1693306e-07
-1.6934744e-11
1.1693305e-07
-3.648713e-11
1.1694776e-07
-6.1758927e-11
1.1697664e-07
-9.5402668e-11
1.1701688e-07
-1.3980149e-10
1.1706156e-07
-1.9663166e-10
1.1709242e-07
-2.6194488e-10
1.1706159e-07
-3.0703112e-10
1.1685881e-07
-2.7053615e-10
1.1629919e-07
1.1505585e-07
2.8601477e-10
1.362716e-07
2.8885572e-10
1.3773233e-07
2.2288045e-10
1.3835507e-07
1.4482533e-10
1.3855988e-07
8.8269345e-11
1.3856752e-07
5.0386378e-11
1.3851571e-07
2.6337797e-11
1.3845518e-07
1.1969818e-11
1.3840369e-07
4.3804307e-12
1.3836701e-07
-1.5472698e-13
1.3834873e-07
-4.6912309e-12
1.3834872e-07
-1.2288228e-11
1.3836697e-07
-2.6667232e-11
1.3840363e-07
-5.0717775e-11
1.3845508e-07
-8.8587626e-11
1.3851559e-07
-1.451019e-10
1.3856737e-07
-2.2309491e-10
1.3855973e-07
-2.889796e-10
1.3835493e-07
-2.8600673e-10
1.3773222e-07
1.3627157e-07
2.9407988e-10
1.5880385e-07
2.5706536e-10
1.604854e-07
1.6504165e-10
1.6114006e-07
7.2987726e-11
1.6132971e-07
2.104466e-11
1.6131312e-07
-4.6615407e-12
1.6123219e-07
-1.5583107e-11
1.6115462e-07
-1.6549843e-11
1.6109147e-07
-9.8556566e-12
1.6104599e-07
-1.5421622e-13
1.6102413e-07
9.5430556e-12
1.6102412e-07
1.6232485e-11
1.6104595e-07
1.5252955e-11
1.610914e-07
4.3351517e-12
1.6115454e-07
-2.1334374e-11
1.6123208e-07
-7.3240889e-11
1.6131303e-07
-1.6521947e-10
1.6132963e-07
-2.5713521e-10
1.6114002e-07
-2.9400156e-10
1.6048541e-07
1.5880396e-07
2.8133111e-10
1.8302178e-07
1.9335568e-10
1.8495148e-07
7.5512462e-11
1.8558042e-07
-2.1723618e-11
1.8573081e-07
-6.5602915e-11
1.8567238e-07
-7.0336638e-11
1.8557945e-07
-6.404511e-11
1.8548858e-07
-4.9399015e-11
1.854152e-07
-2.5819333e-11
1.8535954e-07
-1.5408017e-13
1.8533495e-07
2.550772e-11
1.8533493e-07
4.9076589e-11
1.8535951e-07
6.37223e-11
1.8541515e-07
7.0025039e-11
1.8548851e-07
6.5321739e-11
1.8557939e-07
2.1509848e-11
1.8567234e-07
-7.5637044e-11
1.857308e-07
-1.9335885e-10
1.8558045e-07
-2.8118703e-10
1.8495155e-07
1.8302193e-07
2.3927138e-10
2.0930481e-07
8.0574472e-11
2.1144479e-07
-6.4191352e-11
2.1202684e-07
-1.4933732e-10
2.120973e-07
-1.5998175e-10
2.1200239e-07
-1.4258407e-10
2.1189968e-07
-1.1599317e-10
2.1179708e-07
-8.5039996e-11
2.1171728e-07
-4.2548335e-11
2.1164859e-07
-1.5110002e-13
2.1162331e-07
4.2243921e-11
2.116233e-07
8.4734266e-11
2.1164856e-07
1.1569325e-10
2.1171724e-07
1.4230679e-10
2.1179704e-07
1.5975049e-10
2.1189965e-07
1.4917967e-10
2.1200238e-07
6.4133268e-11
2.1209733e-07
-8.0512442e-11
2.120269e-07
-2.3908517e-10
2.1144487e-07
2.0930494e-07
1.0761404e-10
2.3808809e-07
-1.4720843e-10
2.4029119e-07
-2.7176563e-10
2.407706e-07
-3.1055216e-10
2.4072939e-07
-2.6309542e-10
2.4061744e-07
-2.1879614e-10
2.4050499e-07
-1.6877337e-10
2.4039419e-07
-1.2556746e-10
2.4031896e-07
-5.928072e-11
2.4022476e-07
-1.4380031e-13
2.4020568e-07
5.8994292e-11
2.4020567e-07
1.2528627e-10
2.4022474e-07
1.6850749e-10
2.4031893e-07
2.1856275e-10
2.4039417e-07
2.6291461e-10
2.4050499e-07
3.1044555e-10
2.4061745e-07
2.7175185e-10
2.4072942e-07
1.4729561e-10
2.4077064e-07
-1.0742889e-10
2.4029122e-07
2.3808815e-07
-1.3995126e-10
2.6960673e-07
-5.1065391e-10
2.716885e-07
-5.8480514e-10
2.7194769e-07
-4.973599e-10
2.7172067e-07
-3.8292231e-10
2.7156247e-07
-2.9962031e-10
2.7144797e-07
-2.2118183e-10
2.7133965e-07
-1.7865736e-10
2.7129672e-07
-7.708054e-11
2.7127201e-07
-1.3077145e-13
2.7127482e-07
7.6822764e-11
2.7127482e-07
1.7840826e-10
2.7127201e-07
2.2095535e-10
2.7129672e-07
2.9942983e-10
2.7133965e-07
3.8278229e-10
2.7144798e-07
4.9728477e-10
2.7156248e-07
5.8480638e-10
2.7172068e-07
5.10734e-10
2.7194769e-07
1.4009507e-10
2.7168849e-07
2.6960672e-07
-6.7102241e-10
3.038701e-07
-1.1157158e-09
3.0532609e-07
-1.0770228e-09
3.0523477e-07
-7.5831621e-10
3.0489374e-07
-5.2631549e-10
3.0474878e-07
-3.7868528e-10
3.0467495e-07
-2.5288694e-10
3.0458471e-07
-1.7220486e-10
3.0458062e-07
-7.7903323e-11
3.0461702e-07
-1.1262636e-13
3.0463282e-07
7.7681763e-11
3.0463283e-07
1.7199641e-10
3.0461704e-07
2.527008e-10
3.0458065e-07
3.7853244e-10
3.0458475e-07
5.2620517e-10
3.0467499e-07
7.5825692e-10
3.0474882e-07
1.0770227e-09
3.0489377e-07
1.1157739e-09
3.0523479e-07
6.7113219e-10
3.0532609e-07
3.0387011e-07
-1.7415575e-09
3.4212768e-07
-2.0655491e-09
3.4297083e-07
-1.6690478e-09
3.4293213e-07
-1.0667342e-09
3.4273433e-07
-6.6922622e-10
3.4273201e-07
-4.4699457e-10
3.4276683e-07
-2.5450504e-10
3.4268215e-07
-1.5072796e-10
3.4273528e-07
-6.3694816e-11
3.4282201e-07
-8.7256574e-14
3.4284787e-07
6.3524016e-11
3.4284789e-07
1.5056759e-10
3.4282206e-07
2.5436248e-10
3.4273536e-07
4.468763e-10
3.4268225e-07
6.6913783e-10
3.4276694e-07
1.066681e-09
3.4273213e-07
1.6690359e-09
3.4273445e-07
2.0655761e-09
3.4293224e-07
1.7416175e-09
3.4297093e-07
3.4212782e-07
-2.8826172e-09
3.8318704e-07
-2.8703839e-09
3.812422e-07
-2.0844897e-09
3.8106987e-07
-1.2851242e-09
3.8106827e-07
-7.6317049e-10
3.8120072e-07
-5.1605687e-10
3.8135719e-07
-2.5284259e-10
3.8183163e-07
-1.3336768e-10
3.819477e-07
-4.9926843e-11
3.8207191e-07
-5.7353971e-14
3.8210182e-07
4.9814323e-11
3.8210185e-07
1.3326186e-10
3.82072e-07
2.5274786e-10
3.8194783e-07
5.159731e-10
3.8183181e-07
7.6310535e-10
3.8135739e-07
1.2850834e-09
3.8120095e-07
2.0844774e-09
3.810685e-07
2.8704005e-09
3.8107012e-07
2.8826535e-09
3.8124247e-07
3.8318741e-07
-3.7184344e-09
4.0846088e-07
-2.9631825e-09
4.1053649e-07
-2.0592142e-09
4.1326609e-07
-1.30874e-09
4.1502479e-07
-7.6377153e-10
4.1632062e-07
-2.5833673e-10
4.1690406e-07
-1.756272e-10
4.1709838e-07
-1.1227551e-10
4.1731346e-07
-3.9376566e-11
4.1761676e-07
-3.1239426e-14
4.1769058e-07
3.9313431e-11
4.1769063e-07
1.122082e-10
4.1761691e-07
1.755558e-10
4.1731368e-07
2.5828103e-10
4.1709867e-07
7.6372675e-10
4.169044e-07
1.3087029e-09
4.1632102e-07
2.0592036e-09
4.1502522e-07
2.9632054e-09
4.1326655e-07
3.7184855e-09
4.1053702e-07
4.084617e-07
5.4975857e-09
3.9143791e-07
2.1161379e-09
4.025801e-07
9.5175251e-10
4.0367737e-07
5.4638613e-10
4.0496865e-07
3.8896815e-10
4.0613316e-07
4.5693962e-10
4.0653555e-07
2.5096575e-10
4.0701214e-07
1.5097803e-10
4.0712081e-07
7.7304257e-11
4.0739686e-07
-4.3719719e-14
4.0747386e-07
-7.7388583e-11
4.0747391e-07
-1.5106035e-10
4.0739703e-07
-2.5105468e-10
4.0712107e-07
-4.5703792e-10
4.0701248e-07
-3.8905178e-10
4.0653592e-07
-5.4645192e-10
4.0613359e-07
-9.5179563e-10
4.0496911e-07
-2.1161459e-09
4.0367786e-07
-5.4975357e-09
4.0258068e-07
3.9143892e-07
4.9393651e-08
3.4016366e-07
4.0365095e-08
4.0878019e-07
2.7324242e-08
4.1358099e-07
1.8105487e-08
4.1093603e-07
1.2208311e-08
4.0866662e-07
8.216428e-09
4.0709157e-07
5.4556909e-09
4.0626723e-07
3.2872692e-09
4.0575074e-07
1.5492789e-09
4.0556259e-07
-2.8418906e-13
4.0544195e-07
-1.5498519e-09
4.0544201e-07
-3.2878437e-09
4.0556276e-07
-5.4562549e-09
4.0575099e-07
-8.2170103e-09
4.0626755e-07
-1.2208891e-08
4.0709193e-07
-1.8105972e-08
4.0866697e-07
-2.7324578e-08
4.1093636e-07
-4.0365256e-08
4.1358139e-07
-4.9393596e-08
4.087807e-07
3.4016464e-07
6.5937444e-08
2.7419572e-07
7.9589145e-08
3.9505393e-07
7.0540358e-08
4.2253494e-07
5.5939392e-08
4.2543522e-07
4.2080498e-08
4.2241802e-07
3.04575e-08
4.186032e-07
2.0919779e-08
4.1568981e-07
1.3034062e-08
4.1351928e-07
6.2540519e-09
4.122235e-07
-5.1713148e-13
4.1157687e-07
-6.2550931e-09
4.115769e-07
-1.3035131e-08
4.1222364e-07
-2.0920866e-08
4.1351949e-07
-3.0458582e-08
4.1569005e-07
-4.2081534e-08
4.1860351e-07
-5.5940244e-08
4.2241829e-07
-7.054097e-08
4.2543546e-07
-7.958943e-08
4.2253528e-07
-6.5937458e-08
3.950544e-07
2.7419648e-07
5.157981e-08
2.2261595e-07
7.4806566e-08
3.718273e-07
7.5906261e-08
4.2143507e-07
6.6567199e-08
4.3477388e-07
5.3845366e-08
4.3513943e-07
4.0956525e-08
4.3149163e-07
2.9189135e-08
4.2745686e-07
1.8635094e-08
4.2407306e-07
9.0620078e-09
4.2179635e-07
-3.936739e-13
4.2063902e-07
-9.0627596e-09
4.2063905e-07
-1.8635885e-08
4.2179647e-07
-2.9189985e-08
4.2407322e-07
-4.0957374e-08
4.2745707e-07
-5.3846173e-08
4.314919e-07
-6.6567829e-08
4.3513966e-07
-7.5906674e-08
4.3477414e-07
-7.4806692e-08
4.2143536e-07
-5.1579707e-08
3.7182772e-07
2.2261652e-07
3.4693053e-08
1.8792313e-07
5.8282582e-08
3.482379e-07
6.5627134e-08
4.1409067e-07
6.2315452e-08
4.3808566e-07
5.3569991e-08
4.43885e-07
4.2678069e-08
4.4238364e-07
3.1449681e-08
4.3868539e-07
2.0551852e-08
4.349711e-07
1.0129765e-08
4.3221869e-07
-3.0476087e-13
4.3076936e-07
-1.0130391e-08
4.3076939e-07
-2.0552524e-08
4.3221875e-07
-3.1450385e-08
4.349712e-07
-4.2678781e-08
4.3868554e-07
-5.3570626e-08
4.4238383e-07
-6.2315975e-08
4.4388517e-07
-6.5627488e-08
4.3808589e-07
-5.82827e-08
4.1409094e-07
-3.4692987e-08
3.4823826e-07
1.8792357e-07
2.1536311e-08
1.663869e-07
4.141777e-08
3.2835644e-07
5.1099307e-08
4.044091e-07
5.199428e-08
4.3719067e-07
4.7168318e-08
4.4871094e-07
3.9188033e-08
4.5036395e-07
2.9784813e-08
4.4808872e-07
1.989094e-08
4.4486515e-07
9.9310849e-09
4.4217875e-07
-2.3392782e-13
4.4070089e-07
-9.9315894e-09
4.4070088e-07
-1.9891476e-08
4.4217875e-07
-2.9785395e-08
4.4486517e-07
-3.9188631e-08
4.4808879e-07
-4.7168879e-08
4.5036408e-07
-5.1994751e-08
4.4871109e-07
-5.1099655e-08
4.3719087e-07
-4.1417932e-08
4.0440934e-07
-2.1536319e-08
3.2835677e-07
1.6638729e-07
1.2819129e-08
1.5356766e-07
2.7875918e-08
3.1329943e-07
3.7350459e-08
3.9493435e-07
4.0435788e-08
4.3410515e-07
3.8500408e-08
4.5064615e-07
3.321925e-08
4.5564501e-07
2.5974151e-08
4.5533373e-07
1.7694709e-08
4.5314458e-07
8.9390845e-09
4.5093435e-07
-1.944816e-13
4.4964021e-07
-8.9395194e-09
4.4964019e-07
-1.7695158e-08
4.5093433e-07
-2.5974636e-08
4.5314455e-07
-3.3219747e-08
4.5533375e-07
-3.8500889e-08
4.5564504e-07
-4.0436248e-08
4.5064625e-07
-3.7350832e-08
4.3410532e-07
-2.7876179e-08
3.9493459e-07
-1.2819231e-08
3.1329977e-07
1.5356805e-07
7.5265172e-09
1.4604084e-07
1.8175244e-08
3.0265034e-07
2.6192964e-08
3.869163e-07
2.997555e-08
4.3032228e-07
2.9812193e-08
4.5080927e-07
2.6616169e-08
4.588408e-07
2.1354464e-08
4.605953e-07
1.4813265e-08
4.5968569e-07
7.5635917e-09
4.5818391e-07
-1.7688723e-13
4.5720385e-07
-7.5639266e-09
4.5720384e-07
-1.4813624e-08
4.5818384e-07
-2.1354871e-08
4.5968558e-07
-2.6616593e-08
4.6059524e-07
-2.981262e-08
4.5884082e-07
-2.9975966e-08
4.5080935e-07
-2.6193325e-08
4.3032245e-07
-1.8175529e-08
3.8691659e-07
-7.5266948e-09
3.0265073e-07
1.4604131e-07
4.4237239e-09
1.4161679e-07
1.1624126e-08
2.9544963e-07
1.7836006e-08
3.8070412e-07
2.1446409e-08
4.2671159e-07
2.2185602e-08
4.500698e-07
2.0429936e-08
4.6059626e-07
1.6779836e-08
4.6424516e-07
1.1833008e-08
4.6463233e-07
6.1004848e-09
4.6391628e-07
-1.5550615e-13
4.6330433e-07
-6.1007971e-09
4.6330429e-07
-1.1833331e-08
4.6391617e-07
-1.6780188e-08
4.646322e-07
-2.0430286e-08
4.6424508e-07
-2.2185992e-08
4.6059623e-07
-2.1446784e-08
4.500699e-07
-1.7836336e-08
4.2671178e-07
-1.1624405e-08
3.8070445e-07
-4.4239214e-09
2.9545008e-07
1.4161734e-07
2.6111669e-09
1.3900537e-07
7.3307633e-09
2.9072979e-07
1.186509e-08
3.7616958e-07
1.4909823e-08
4.2366664e-07
1.5985197e-08
4.4899422e-07
1.5142658e-08
4.6143862e-07
1.270703e-08
4.6668061e-07
9.0967506e-09
4.6824239e-07
4.7312222e-09
4.6828158e-07
-1.4657774e-13
4.6803555e-07
-4.7315246e-09
4.680355e-07
-9.0970372e-09
4.6828148e-07
-1.2707324e-08
4.6824226e-07
-1.5142949e-08
4.6668051e-07
-1.598551e-08
4.6143858e-07
-1.4910125e-08
4.4899432e-07
-1.1865356e-08
4.2366684e-07
-7.3310125e-09
3.7616992e-07
-2.6113319e-09
2.9073032e-07
1.3900597e-07
1.5428552e-09
1.3746236e-07
4.5628914e-09
2.8770964e-07
7.7305729e-09
3.730018e-07
1.010702e-08
4.2129007e-07
1.1197698e-08
4.4790341e-07
1.0888751e-08
4.617474e-07
9.3208663e-09
4.6824836e-07
6.7661699e-09
4.7079697e-07
3.5477345e-09
4.7149988e-07
-1.5949712e-13
4.7158333e-07
-3.5480298e-09
4.7158331e-07
-6.766454e-09
4.7149981e-07
-9.3211264e-09
4.7079686e-07
-1.0889008e-08
4.682483e-07
-1.1197945e-08
4.6174741e-07
-1.0107263e-08
4.4790353e-07
-7.7307879e-09
4.2129028e-07
-4.563085e-09
3.7300218e-07
-1.5429943e-09
2.8771019e-07
1.3746301e-07
9.0603558e-10
1.3655632e-07
2.797282e-09
2.8581841e-07
4.9337912e-09
3.7086529e-07
6.6889848e-09
4.1953486e-07
7.6414905e-09
4.4695091e-07
7.6157529e-09
4.617731e-07
6.6423412e-09
4.6922174e-07
4.8852549e-09
4.7255396e-07
2.5810756e-09
4.7380401e-07
-1.7264108e-13
4.741645e-07
-2.5813588e-09
4.7416449e-07
-4.885551e-09
4.7380396e-07
-6.6425908e-09
4.7255389e-07
-7.6159788e-09
4.6922169e-07
-7.6416966e-09
4.6177313e-07
-6.6891796e-09
4.4695103e-07
-4.9339411e-09
4.1953509e-07
-2.7974157e-09
3.708657e-07
-9.0613931e-10
2.8581896e-07
1.3655692e-07
5.2327121e-10
1.3603314e-07
1.6809854e-09
2.8466084e-07
3.0782981e-09
3.6946811e-07
4.3197304e-09
4.1829352e-07
5.0819727e-09
4.4618868e-07
5.186174e-09
4.6166894e-07
4.6054971e-09
4.6980246e-07
3.4300269e-09
4.7372943e-07
1.8254503e-09
4.7540858e-07
-1.5795972e-13
4.7599013e-07
-1.8257568e-09
4.7599012e-07
-3.4303072e-09
4.7540855e-07
-4.6057345e-09
4.737294e-07
-5.1863975e-09
4.6980245e-07
-5.0821636e-09
4.6166899e-07
-4.3198757e-09
4.4618884e-07
-3.078395e-09
4.1829378e-07
-1.6810593e-09
3.6946849e-07
-5.2330282e-10
2.8466133e-07
1.3603369e-07
2.9287578e-10
1.3574043e-07
9.8240922e-10
2.8397146e-07
1.8693638e-09
3.6858126e-07
2.7156673e-09
4.1744735e-07
3.2899905e-09
4.4561446e-07
3.4374159e-09
4.6152159e-07
3.1074512e-09
4.7013248e-07
2.3431733e-09
4.7449374e-07
1.2560188e-09
4.7649578e-07
-1.7026157e-13
4.7724636e-07
-1.2563181e-09
4.7724637e-07
-2.3434678e-09
4.7649577e-07
-3.1077069e-09
4.7449375e-07
-3.4376273e-09
4.7013251e-07
-3.2901494e-09
4.6152167e-07
-2.7157807e-09
4.456146e-07
-1.869463e-09
4.1744761e-07
-9.8243658e-10
3.6858165e-07
-2.928679e-10
2.8397192e-07
1.357409e-07
1.5521857e-10
1.3558538e-07
5.5125925e-10
2.8357557e-07
1.0965506e-09
3.6803612e-07
1.6542276e-09
4.1688979e-07
2.0673273e-09
4.4520146e-07
2.2135511e-09
4.6137543e-07
2.0381526e-09
4.7030793e-07
1.5564708e-09
4.7497551e-07
8.4044788e-10
4.7721187e-07
-1.6065047e-13
4.7808702e-07
-8.4073816e-10
4.7808703e-07
-1.5567485e-09
4.7721188e-07
-2.0384057e-09
4.7497551e-07
-2.2137587e-09
4.7030799e-07
-2.0674677e-09
4.6137555e-07
-1.6543259e-09
4.4520163e-07
-1.0966138e-09
4.1689006e-07
-5.5127154e-10
3.6803649e-07
-1.5518413e-10
2.83576e-07
1.3558582e-07
7.4364402e-11
1.3551115e-07
2.9030488e-10
2.8335972e-07
6.131519e-10
3.677134e-07
9.6842295e-10
4.1653459e-07
1.2541832e-09
4.4491574e-07
1.379885e-09
4.6124978e-07
1.2961554e-09
4.7039175e-07
1.0033302e-09
4.7526836e-07
5.4598965e-10
4.7766926e-07
-1.5679958e-13
4.7863321e-07
-5.4627574e-10
4.7863321e-07
-1.0036114e-09
4.7766929e-07
-1.2963832e-09
4.7526842e-07
-1.3801053e-09
4.7039183e-07
-1.2543412e-09
4.6124993e-07
-9.6852199e-10
4.4491596e-07
-6.1320425e-10
4.1653489e-07
-2.9032045e-10
3.6771376e-07
-7.4330476e-11
2.8336015e-07
1.3551155e-07
2.8247644e-11
1.3548297e-07
1.367177e-10
2.832513e-07
3.1878598e-10
3.6753133e-07
5.3704588e-10
4.1631639e-07
7.2788705e-10
4.4472492e-07
8.274882e-10
4.6115023e-07
7.9544888e-10
4.7042381e-07
6.2530767e-10
4.7543853e-07
3.4325663e-10
4.7795136e-07
-1.442579e-13
4.7897663e-07
-3.4351656e-10
4.7897664e-07
-6.2556495e-10
4.7795139e-07
-7.9569311e-10
4.754386e-07
-8.2767298e-10
4.704239e-07
-7.2804352e-10
4.6115038e-07
-5.3714901e-10
4.4472518e-07
-3.1886535e-10
4.1631671e-07
-1.3672439e-10
3.6753172e-07
-2.8207413e-11
2.8325173e-07
1.3548336e-07
3.1409208e-12
1.3547983e-07
4.9754517e-11
2.8320466e-07
1.4581179e-10
3.6743524e-07
2.7431262e-10
4.1618791e-07
3.9747221e-10
4.4460174e-07
4.7210661e-10
4.6107557e-07
4.6734146e-10
4.7042857e-07
3.743736e-10
4.7553151e-07
2.0765713e-10
4.7811805e-07
-1.2592209e-13
4.791844e-07
-2.0792296e-10
4.7918441e-07
-3.7461731e-10
4.7811808e-07
-4.675869e-10
4.7553155e-07
-4.7229908e-10
4.7042869e-07
-3.9763991e-10
4.6107575e-07
-2.7443243e-10
4.44602e-07
-1.4591539e-10
4.1618825e-07
-4.9786934e-11
3.6743566e-07
-3.114088e-12
2.8320513e-07
1.3548025e-07
-8.2191249e-12
1.3548797e-07
3.9393848e-12
2.8319241e-07
4.9207965e-11
3.6738987e-07
1.2093104e-10
4.1611616e-07
1.976671e-10
4.4452495e-07
2.5125182e-10
4.6102194e-07
2.5924491e-10
4.704205e-07
2.12993e-10
4.7557768e-07
1.197615e-10
4.7821126e-07
-1.3172557e-13
4.7930425e-07
-1.2000216e-10
4.7930426e-07
-2.1323054e-10
4.7821128e-07
-2.5946888e-10
4.7557778e-07
-2.5143283e-10
4.7042064e-07
-1.978115e-10
4.6102213e-07
-1.2105023e-10
4.4452522e-07
-4.9315016e-11
4.161165e-07
-3.9720895e-12
3.6739033e-07
8.2144278e-12
2.8319294e-07
1.3548848e-07
-1.1817573e-11
1.3549969e-07
-1.6746371e-11
2.8319722e-07
-3.9576426e-13
3.6737342e-07
3.7004904e-11
4.1607864e-07
8.2769927e-11
4.4447912e-07
1.1979357e-10
4.6098485e-07
1.3236541e-10
4.7040785e-07
1.1303504e-10
4.75597e-07
6.4787268e-11
4.782594e-07
-1.0926128e-13
4.7936911e-07
-6.5036063e-11
4.7936913e-07
-1.1321909e-10
4.7825944e-07
-1.3257219e-10
4.7559706e-07
-1.1998812e-10
4.7040798e-07
-8.2926398e-11
4.6098505e-07
-3.7128244e-11
4.4447941e-07
3.056599e-13
4.1607904e-07
1.6685425e-11
3.6737391e-07
1.1795431e-11
2.8319782e-07
1.3550024e-07
-1.1379705e-11
1.3551093e-07
-2.2484923e-11
2.832082e-07
-2.1367541e-11
3.6737219e-07
-4.7780363e-12
4.1606194e-07
2.1534038e-11
4.4445272e-07
4.6222665e-11
4.6096007e-07
5.899673e-11
4.70395e-07
5.3993183e-11
4.7560193e-07
3.1962538e-11
4.7828133e-07
-1.0703692e-13
4.7940112e-07
-3.217846e-11
4.7940113e-07
-5.4166537e-11
4.7828138e-07
-5.9186106e-11
4.7560202e-07
-4.6400737e-11
4.7039514e-07
-2.1667905e-11
4.6096028e-07
4.6653309e-12
4.4445303e-07
2.1296765e-11
4.1606235e-07
2.2448499e-11
3.6737272e-07
1.1344544e-11
2.8320883e-07
1.3551157e-07
-8.8730143e-12
1.355197e-07
-1.9923924e-11
2.8321914e-07
-2.5272912e-11
3.6737745e-07
-2.0245845e-11
4.1605681e-07
-6.6235644e-12
4.4443905e-07
9.1277676e-12
4.6094423e-07
1.991887e-11
4.7038414e-07
2.1515083e-11
4.756003e-07
1.3608589e-11
4.7828917e-07
-9.2201202e-14
4.7941475e-07
-1.3784215e-11
4.7941477e-07
-2.1680013e-11
4.7828921e-07
-2.0090321e-11
4.7560038e-07
-9.2892543e-12
4.7038428e-07
6.5191491e-12
4.6094442e-07
2.0146838e-11
4.4443933e-07
2.5228438e-11
4.1605722e-07
1.9897522e-11
3.67378e-07
8.8515515e-12
2.8321979e-07
1.3552039e-07
-4.811024e-12
1.3552444e-07
-1.3083123e-11
2.8322732e-07
-1.997026e-11
3.6738426e-07
-2.0684727e-11
4.1605746e-07
-1.4884863e-11
4.4443315e-07
-5.8316794e-12
4.6093509e-07
2.1172091e-12
4.7037612e-07
5.7482845e-12
4.7559663e-07
4.3797961e-12
4.7829043e-07
-9.0808038e-14
4.7941915e-07
-4.5414804e-12
4.7941917e-07
-5.9072863e-12
4.7829049e-07
-2.3058429e-12
4.755967e-07
5.702511e-12
4.7037623e-07
1.4772651e-11
4.6093527e-07
2.0622185e-11
4.4443343e-07
1.9942802e-11
4.1605784e-07
1.3055552e-11
3.6738478e-07
4.8105071e-12
2.8322799e-07
1.3552521e-07
-1.6193236e-12
-6.7548895e-12
-1.2360196e-11
-1.4853876e-11
-1.3083123e-11
-8.4480465e-12
-3.5128599e-12
-2.2324984e-13
6.7273986e-13
-7.4781529e-14
-8.0367144e-13
9.6997263e-14
3.3762e-12
8.3683831e-12
1.3025018e-11
1.4818609e-11
1.2345152e-11
6.7483583e-12
1.6443553e-12
)
;

boundaryField
{
    Wall
    {
        type            calculated;
        value           uniform 0;
    }
    frontAndBack
    {
        type            empty;
        value           nonuniform 0();
    }
    atmosphere
    {
        type            calculated;
        value           nonuniform List<scalar> 
20
(
1.3552607e-07
2.8323242e-07
3.6738985e-07
4.1605992e-07
4.4443134e-07
4.6093049e-07
4.703711e-07
4.755933e-07
4.7828949e-07
4.7941988e-07
4.794199e-07
4.7828953e-07
4.7559336e-07
4.7037121e-07
4.6093059e-07
4.444316e-07
4.1606028e-07
3.6739036e-07
2.8323308e-07
1.3552681e-07
)
;
    }
}


// ************************************************************************* //
