/*--------------------------------*- C++ -*----------------------------------*\
| =========                 |                                                 |
| \\      /  F ield         | OpenFOAM: The Open Source CFD Toolbox           |
|  \\    /   O peration     | Version:  3.0.1                                 |
|   \\  /    A nd           | Web:      www.OpenFOAM.org                      |
|    \\/     M anipulation  |                                                 |
\*---------------------------------------------------------------------------*/
FoamFile
{
    version     2.0;
    format      ascii;
    class       volScalarField;
    location    "25";
    object      Psi2;
}
// * * * * * * * * * * * * * * * * * * * * * * * * * * * * * * * * * * * * * //

dimensions      [0 -2 2 0 0 0 0];

internalField   nonuniform List<scalar> 
800
(
0.00094393312
0.00094386338
0.00094385492
0.00094385508
0.0009438558
0.00094385632
0.00094385658
0.00094385671
0.00094385678
0.00094385682
0.00094385682
0.00094385678
0.00094385671
0.00094385658
0.00094385631
0.0009438558
0.00094385507
0.0009438549
0.00094386337
0.00094393311
0.00097031544
0.00096907685
0.00096885195
0.00096882586
0.00096883699
0.00096884766
0.00096885272
0.00096885385
0.00096885341
0.00096885287
0.00096885286
0.00096885341
0.00096885385
0.00096885272
0.00096884766
0.00096883699
0.00096882586
0.00096885196
0.00096907687
0.00097031547
0.00099608037
0.00099417645
0.00099364036
0.00099356702
0.000993575
0.00099358883
0.00099359534
0.00099359607
0.00099359459
0.00099359328
0.00099359328
0.00099359459
0.00099359608
0.00099359535
0.00099358884
0.00099357502
0.00099356703
0.00099364038
0.00099417648
0.00099608042
0.0010185408
0.0010161614
0.0010153602
0.0010152567
0.0010152649
0.0010152824
0.0010152903
0.0010152907
0.0010152883
0.0010152863
0.0010152863
0.0010152883
0.0010152907
0.0010152904
0.0010152824
0.0010152649
0.0010152567
0.0010153603
0.0010161615
0.0010185409
0.0010367913
0.0010341147
0.0010331055
0.0010329145
0.0010329299
0.0010329547
0.0010329658
0.0010329669
0.0010329643
0.0010329619
0.0010329619
0.0010329643
0.0010329669
0.0010329658
0.0010329547
0.0010329299
0.0010329145
0.0010331055
0.0010341147
0.0010367913
0.0010518103
0.0010487866
0.0010476092
0.0010472878
0.0010473186
0.0010473559
0.0010473732
0.0010473769
0.001047375
0.0010473728
0.0010473728
0.001047375
0.0010473769
0.0010473732
0.0010473559
0.0010473186
0.0010472878
0.0010476092
0.0010487866
0.0010518104
0.0010661011
0.0010623097
0.0010610682
0.0010606146
0.0010606698
0.0010607256
0.0010607527
0.0010607614
0.0010607615
0.0010607599
0.0010607599
0.0010607615
0.0010607614
0.0010607528
0.0010607256
0.0010606698
0.0010606146
0.0010610682
0.0010623097
0.0010661011
0.0010832398
0.0010780358
0.0010767088
0.0010761477
0.00107624
0.0010763211
0.0010763616
0.0010763769
0.0010763797
0.0010763791
0.0010763791
0.0010763797
0.0010763769
0.0010763617
0.0010763211
0.00107624
0.0010761477
0.0010767088
0.0010780358
0.0010832399
0.0011080185
0.0011003294
0.0010988535
0.0010982114
0.0010981159
0.0010982332
0.0010982888
0.0010983105
0.0010983157
0.0010983158
0.0010983158
0.0010983157
0.0010983105
0.0010982889
0.0010982332
0.0010981159
0.0010982114
0.0010988535
0.0011003294
0.0011080185
0.0011473363
0.0011350284
0.0011333219
0.0011326073
0.0011321382
0.0011319398
0.0011320054
0.0011320291
0.0011320344
0.0011320336
0.0011320336
0.0011320344
0.0011320291
0.0011320055
0.0011319398
0.0011321382
0.0011326073
0.0011333219
0.0011350284
0.0011473364
0.0012116744
0.0011918255
0.0011890319
0.0011882068
0.0011868201
0.0011860499
0.0011861111
0.0011861255
0.0011861276
0.0011861226
0.0011861226
0.0011861276
0.0011861255
0.0011861112
0.00118605
0.0011868201
0.0011882069
0.001189032
0.0011918256
0.0012116745
0.0013178518
0.0012864751
0.0012805083
0.0012794854
0.0012762118
0.0012748292
0.0012748444
0.0012748195
0.0012748225
0.0012748045
0.0012748045
0.0012748226
0.0012748196
0.0012748445
0.0012748294
0.0012762119
0.0012794856
0.0012805085
0.0012864753
0.0013178521
0.0014961906
0.0014461751
0.001433957
0.0014323787
0.0014267401
0.0014246792
0.0014245435
0.0014244073
0.001423103
0.001423058
0.0014230581
0.0014231031
0.0014244075
0.0014245436
0.0014246793
0.0014267403
0.0014323789
0.0014339573
0.0014461754
0.0014961911
0.0017991311
0.0017200204
0.0016977583
0.001692346
0.0016836493
0.0016805621
0.0016800411
0.0016796102
0.0016768303
0.0016766888
0.0016766888
0.0016768304
0.0016796103
0.0016800413
0.0016805623
0.0016836496
0.0016923464
0.0016977587
0.0017200209
0.0017991317
0.0022506492
0.0021324708
0.0020939143
0.0020831642
0.0020703276
0.0020657944
0.0020647894
0.0020639904
0.002059387
0.0020591262
0.0020591262
0.0020593871
0.0020639906
0.0020647897
0.0020657947
0.0020703279
0.0020831646
0.0020939148
0.0021324713
0.0022506498
0.0030026584
0.0028094168
0.0027347096
0.0027142331
0.0026962613
0.0026897413
0.0026784242
0.0026771023
0.0026710943
0.002670705
0.002670705
0.0026710943
0.0026771025
0.0026784244
0.0026897416
0.0026962617
0.0027142335
0.0027347101
0.0028094172
0.0030026585
0.0041023564
0.0038184438
0.0036889178
0.0036447428
0.0036189548
0.0036101183
0.0036003302
0.0035987551
0.0035923946
0.0035920114
0.0035920114
0.0035923946
0.0035987552
0.0036003304
0.0036101185
0.0036189551
0.0036447431
0.0036889181
0.0038184438
0.0041023552
0.0056782486
0.0051205596
0.0048744543
0.0047796973
0.004741138
0.0047324717
0.0047294263
0.0047312298
0.004727642
0.0047284417
0.0047284417
0.0047276419
0.0047312299
0.0047294263
0.0047324719
0.0047411382
0.0047796976
0.0048744545
0.0051205591
0.0056782453
0.0077616578
0.0066242647
0.0061799625
0.0060055419
0.0059477678
0.0059439148
0.0059550307
0.0059679383
0.0059732346
0.0059779651
0.0059779652
0.0059732346
0.0059679386
0.0059550309
0.0059439152
0.0059477684
0.0060055427
0.0061799629
0.0066242641
0.0077616533
0.0096278055
0.0081205589
0.0074762255
0.0072082113
0.0071207645
0.0071186466
0.0071448756
0.0071732304
0.0071914124
0.0072022631
0.0072022632
0.0071914127
0.007173231
0.0071448763
0.0071186474
0.0071207655
0.0072082124
0.0074762262
0.0081205584
0.0096278023
0.010583625
0.0093367598
0.0086213217
0.0082888856
0.0081711141
0.0081625744
0.0081956903
0.0082346076
0.0082629353
0.0082789136
0.0082789139
0.0082629359
0.0082346086
0.0081956913
0.0081625756
0.0081711154
0.008288887
0.0086213227
0.0093367597
0.010583624
0.010882194
0.010144238
0.0095135336
0.0091742845
0.0090400251
0.0090208558
0.0090506868
0.0090906705
0.0091220628
0.0091397236
0.009139724
0.0091220636
0.0090906718
0.0090506881
0.0090208572
0.0090400264
0.0091742857
0.0095135345
0.010144238
0.010882194
0.010949415
0.010593639
0.010130719
0.0098362926
0.0097053659
0.0096777568
0.0096985124
0.0097320392
0.0097600695
0.0097760239
0.0097760243
0.0097600704
0.0097320404
0.0096985137
0.0096777581
0.0097053671
0.0098362937
0.01013072
0.010593639
0.010949415
0.010961856
0.01081067
0.010515572
0.010291231
0.010179239
0.010148734
0.010159879
0.010183998
0.010205475
0.010217912
0.010217912
0.010205475
0.010183999
0.01015988
0.010148735
0.010179239
0.010291231
0.010515572
0.01081067
0.010961856
0.010963899
0.01090477
0.010735765
0.010581637
0.010495534
0.010467303
0.01047129
0.010486635
0.010501307
0.010509984
0.010509984
0.010501308
0.010486636
0.010471291
0.010467304
0.010495534
0.010581637
0.010735765
0.01090477
0.010963899
0.010964209
0.010942418
0.010853259
0.010755778
0.010695064
0.010672072
0.010671949
0.010680734
0.010689895
0.010695449
0.01069545
0.010689895
0.010680735
0.01067195
0.010672073
0.010695064
0.010755778
0.010853259
0.010942418
0.010964209
0.010964254
0.010956585
0.01091249
0.01085485
0.010814969
0.010797975
0.010796115
0.010800668
0.010805982
0.0108093
0.0108093
0.010805982
0.010800669
0.010796115
0.010797976
0.010814969
0.01085485
0.01091249
0.010956585
0.010964254
0.01096426
0.010961663
0.010940972
0.01090875
0.010884061
0.010872428
0.010870239
0.010872363
0.010875255
0.010877127
0.010877127
0.010875256
0.010872363
0.01087024
0.010872429
0.010884061
0.01090875
0.010940972
0.010961663
0.01096426
0.010964261
0.010963411
0.010954122
0.010936956
0.010922428
0.010914951
0.010913078
0.010913942
0.01091543
0.010916434
0.010916434
0.01091543
0.010913942
0.010913078
0.010914951
0.010922428
0.010936956
0.010954122
0.010963411
0.010964261
0.010964261
0.010963991
0.010959979
0.010951213
0.010943036
0.010938479
0.010937104
0.010937383
0.010938108
0.010938623
0.010938623
0.010938108
0.010937383
0.010937104
0.010938479
0.010943036
0.010951213
0.010959979
0.010963991
0.010964261
0.010964261
0.010964178
0.010962504
0.010958194
0.010953771
0.01095112
0.010950205
0.010950247
0.010950581
0.010950835
0.010950835
0.010950581
0.010950247
0.010950205
0.01095112
0.010953771
0.010958194
0.010962504
0.010964178
0.010964261
0.010964261
0.010964236
0.010963559
0.010961513
0.010959206
0.010957726
0.010957158
0.010957124
0.010957269
0.01095739
0.01095739
0.010957269
0.010957124
0.010957158
0.010957726
0.010959206
0.010961513
0.010963559
0.010964236
0.010964261
0.010964261
0.010964254
0.010963988
0.010963047
0.010961884
0.010961088
0.010960755
0.01096071
0.010960768
0.010960823
0.010960823
0.010960769
0.01096071
0.010960755
0.010961088
0.010961884
0.010963047
0.010963988
0.010964254
0.010964261
0.010964261
0.010964259
0.010964157
0.010963738
0.010963169
0.010962755
0.01096257
0.010962533
0.010962555
0.010962579
0.010962579
0.010962555
0.010962533
0.01096257
0.010962755
0.010963169
0.010963738
0.010964157
0.010964259
0.010964261
0.010964261
0.01096426
0.010964223
0.010964041
0.010963771
0.010963562
0.010963463
0.010963439
0.010963446
0.010963456
0.010963456
0.010963446
0.010963439
0.010963463
0.010963562
0.010963771
0.010964041
0.010964223
0.01096426
0.010964261
0.010964261
0.010964261
0.010964247
0.01096417
0.010964046
0.010963944
0.010963893
0.010963878
0.01096388
0.010963884
0.010963884
0.01096388
0.010963878
0.010963893
0.010963944
0.010964046
0.01096417
0.010964247
0.010964261
0.010964261
0.010964261
0.010964261
0.010964256
0.010964224
0.010964169
0.01096412
0.010964095
0.010964087
0.010964087
0.010964088
0.010964088
0.010964087
0.010964087
0.010964095
0.01096412
0.010964169
0.010964224
0.010964256
0.010964261
0.010964261
0.010964261
0.010964261
0.010964259
0.010964247
0.010964222
0.0109642
0.010964187
0.010964183
0.010964183
0.010964183
0.010964183
0.010964183
0.010964183
0.010964187
0.0109642
0.010964222
0.010964247
0.010964259
0.010964261
0.010964261
0.010964261
0.010964261
0.01096426
0.010964255
0.010964245
0.010964235
0.010964229
0.010964227
0.010964227
0.010964227
0.010964227
0.010964227
0.010964227
0.010964229
0.010964235
0.010964245
0.010964255
0.01096426
0.010964261
0.010964261
0.010964261
0.010964261
0.010964261
0.010964259
0.010964255
0.01096425
0.010964247
0.010964246
0.010964246
0.010964246
0.010964246
0.010964246
0.010964246
0.010964247
0.01096425
0.010964255
0.010964259
0.010964261
0.010964261
0.010964261
)
;

boundaryField
{
    Wall
    {
        type            calculated;
        value           nonuniform List<scalar> 
100
(
9.9999996e-21
9.9999996e-21
9.9999996e-21
9.9999996e-21
9.9999996e-21
9.9999996e-21
9.9999996e-21
9.9999996e-21
9.9999996e-21
9.9999996e-21
9.9999997e-21
9.9999997e-21
9.9999997e-21
9.9999997e-21
9.9999998e-21
9.9999999e-21
1e-20
1e-20
1e-20
1e-20
1e-20
1e-20
1e-20
1e-20
1e-20
1e-20
1e-20
1e-20
1e-20
1e-20
1e-20
1e-20
1e-20
1e-20
1e-20
1e-20
1e-20
1e-20
1e-20
1e-20
9.9999996e-21
9.9999996e-21
9.9999996e-21
9.9999996e-21
9.9999996e-21
9.9999996e-21
9.9999996e-21
9.9999996e-21
9.9999996e-21
9.9999996e-21
9.9999997e-21
9.9999997e-21
9.9999997e-21
9.9999997e-21
9.9999998e-21
9.9999999e-21
1e-20
1e-20
1e-20
1e-20
1e-20
1e-20
1e-20
1e-20
1e-20
1e-20
1e-20
1e-20
1e-20
1e-20
1e-20
1e-20
1e-20
1e-20
1e-20
1e-20
1e-20
1e-20
1e-20
1e-20
9.9999996e-21
9.9999996e-21
9.9999996e-21
9.9999996e-21
9.9999996e-21
9.9999996e-21
9.9999996e-21
9.9999996e-21
9.9999996e-21
9.9999996e-21
9.9999996e-21
9.9999996e-21
9.9999996e-21
9.9999996e-21
9.9999996e-21
9.9999996e-21
9.9999996e-21
9.9999996e-21
9.9999996e-21
9.9999996e-21
)
;
    }
    frontAndBack
    {
        type            empty;
    }
    atmosphere
    {
        type            calculated;
        value           uniform 1e-20;
    }
}


// ************************************************************************* //
