/*--------------------------------*- C++ -*----------------------------------*\
| =========                 |                                                 |
| \\      /  F ield         | OpenFOAM: The Open Source CFD Toolbox           |
|  \\    /   O peration     | Version:  3.0.1                                 |
|   \\  /    A nd           | Web:      www.OpenFOAM.org                      |
|    \\/     M anipulation  |                                                 |
\*---------------------------------------------------------------------------*/
FoamFile
{
    version     2.0;
    format      ascii;
    class       volScalarField;
    location    "25";
    object      rho;
}
// * * * * * * * * * * * * * * * * * * * * * * * * * * * * * * * * * * * * * //

dimensions      [1 -3 0 0 0 0 0];

internalField   nonuniform List<scalar> 
800
(
94.393316
94.386341
94.385496
94.385512
94.385584
94.385635
94.385662
94.385675
94.385682
94.385686
94.385685
94.385682
94.385675
94.385661
94.385634
94.385583
94.38551
94.385494
94.386341
94.393315
97.031548
96.907689
96.885199
96.88259
96.883703
96.88477
96.885276
96.885389
96.885345
96.885291
96.88529
96.885345
96.885389
96.885276
96.88477
96.883703
96.88259
96.8852
96.907691
97.031551
99.608007
99.417618
99.36401
99.356676
99.357474
99.358857
99.359508
99.359581
99.359433
99.359302
99.359302
99.359433
99.359582
99.359509
99.358858
99.357475
99.356677
99.364011
99.417621
99.608012
101.85393
101.616
101.53589
101.52553
101.52635
101.5281
101.5289
101.52893
101.52869
101.52849
101.52849
101.52869
101.52894
101.5289
101.52811
101.52635
101.52553
101.53589
101.61601
101.85393
103.67869
103.41107
103.31017
103.29106
103.29261
103.29509
103.2962
103.29631
103.29604
103.2958
103.2958
103.29604
103.29631
103.2962
103.29509
103.29261
103.29107
103.31017
103.41108
103.6787
105.18011
104.87782
104.7601
104.72796
104.73105
104.73477
104.7365
104.73687
104.73668
104.73646
104.73646
104.73668
104.73687
104.7365
104.73477
104.73105
104.72796
104.7601
104.87782
105.18011
106.60843
106.22945
106.10534
106.05998
106.06549
106.07107
106.07379
106.07465
106.07466
106.0745
106.0745
106.07466
106.07465
106.07379
106.07107
106.06549
106.05998
106.10534
106.22945
106.60843
108.3212
107.80108
107.66845
107.61235
107.62156
107.62967
107.63372
107.63525
107.63553
107.63547
107.63547
107.63553
107.63525
107.63372
107.62967
107.62157
107.61235
107.66845
107.80108
108.3212
110.79753
110.02909
109.88162
109.81741
109.80785
109.81957
109.82513
109.82729
109.82781
109.82781
109.82781
109.82781
109.82729
109.82513
109.81957
109.80785
109.81742
109.88162
110.02909
110.79753
114.72712
113.49711
113.32664
113.25518
113.20826
113.18841
113.19496
113.19732
113.19785
113.19777
113.19777
113.19785
113.19733
113.19497
113.18841
113.20826
113.25518
113.32664
113.49712
114.72713
121.15742
119.17397
118.89487
118.81237
118.67368
118.59666
118.60277
118.6042
118.6044
118.60391
118.60391
118.60441
118.6042
118.60277
118.59667
118.67369
118.81237
118.89487
119.17398
121.15744
131.76764
128.63325
128.03712
127.9349
127.60757
127.46932
127.47083
127.46834
127.46864
127.46684
127.46684
127.46865
127.46835
127.47084
127.46933
127.60758
127.93491
128.03714
128.63327
131.76767
149.5739
144.58419
143.36479
143.20752
142.64402
142.43809
142.42459
142.41103
142.28064
142.27616
142.27616
142.28065
142.41104
142.42461
142.43811
142.64404
143.20754
143.36482
144.58423
149.57395
179.64829
171.83199
169.62873
169.09433
168.2289
167.9223
167.87124
167.82882
167.5516
167.53763
167.53763
167.55161
167.82883
167.87126
167.92233
168.22893
169.09437
169.62877
171.83203
179.64836
219.38719
210.29505
207.07081
206.19924
205.03892
204.64567
204.5758
204.51449
204.07453
204.05298
204.05299
204.07454
204.51451
204.57583
204.64571
205.03897
206.19929
207.07088
210.29512
219.38731
169.50738
190.59904
196.215
198.96064
200.21422
201.09498
201.13258
201.50185
201.46417
201.54495
201.54497
201.46425
201.50197
201.13276
201.09521
200.2145
198.96095
196.21535
190.59948
169.50802
30.540501
45.394471
51.029533
53.491598
55.068351
55.998829
56.5932
56.946919
57.183358
57.267185
57.267201
57.183419
56.947007
56.593331
55.998992
55.068543
53.491814
51.029769
45.394732
30.540768
1.951585
2.8696332
3.3454929
3.5477468
3.6861262
3.769409
3.8340947
3.8675887
3.8944256
3.9025646
3.9025661
3.8944311
3.8675967
3.8341064
3.7694233
3.6861425
3.5477646
3.3455114
2.8696511
1.951597
1.2015131
1.2065051
1.2101477
1.2116328
1.2125932
1.2131733
1.2136399
1.213889
1.2141017
1.2141609
1.2141609
1.2141017
1.2138891
1.21364
1.2131735
1.2125933
1.2116329
1.2101479
1.2065052
1.2015131
1.2000003
1.2000017
1.2000036
1.2000043
1.2000047
1.2000049
1.2000051
1.2000051
1.2000052
1.2000052
1.2000052
1.2000052
1.2000051
1.2000051
1.2000049
1.2000047
1.2000043
1.2000036
1.2000017
1.2000003
1.2000001
1.2000004
1.2000005
1.2000005
1.2000005
1.2000005
1.2000005
1.2000005
1.2000005
1.2000005
1.2000005
1.2000005
1.2000005
1.2000005
1.2000005
1.2000005
1.2000005
1.2000005
1.2000004
1.2000001
1.2
1.2000003
1.2000004
1.2000005
1.2000005
1.2000005
1.2000005
1.2000005
1.2000005
1.2000005
1.2000005
1.2000005
1.2000005
1.2000005
1.2000005
1.2000005
1.2000005
1.2000004
1.2000003
1.2
1.2
1.2000002
1.2000004
1.2000004
1.2000005
1.2000005
1.2000006
1.2000006
1.2000005
1.2000005
1.2000005
1.2000005
1.2000006
1.2000006
1.2000005
1.2000005
1.2000004
1.2000004
1.2000002
1.2
1.2
1.2000001
1.2000003
1.2000004
1.2000005
1.2000005
1.2000005
1.2000005
1.2000005
1.2000005
1.2000005
1.2000005
1.2000005
1.2000005
1.2000005
1.2000005
1.2000004
1.2000003
1.2000001
1.2
1.2
1.2000001
1.2000002
1.2000003
1.2000004
1.2000004
1.2000005
1.2000005
1.2000004
1.2000004
1.2000004
1.2000004
1.2000005
1.2000005
1.2000004
1.2000004
1.2000003
1.2000002
1.2000001
1.2
1.2
1.2
1.2000001
1.2000002
1.2000003
1.2000003
1.2000004
1.2000004
1.2000004
1.2000004
1.2000004
1.2000004
1.2000004
1.2000004
1.2000003
1.2000003
1.2000002
1.2000001
1.2
1.2
1.2
1.2
1.2000001
1.2000002
1.2000002
1.2000003
1.2000003
1.2000003
1.2000003
1.2000003
1.2000003
1.2000003
1.2000003
1.2000003
1.2000003
1.2000002
1.2000002
1.2000001
1.2
1.2
1.2
1.2
1.2
1.2000001
1.2000002
1.2000002
1.2000002
1.2000002
1.2000002
1.2000002
1.2000002
1.2000002
1.2000002
1.2000002
1.2000002
1.2000002
1.2000001
1.2
1.2
1.2
1.2
1.2
1.2
1.2000001
1.2000001
1.2000001
1.2000001
1.2000001
1.2000001
1.2000001
1.2000001
1.2000001
1.2000001
1.2000001
1.2000001
1.2000001
1.2000001
1.2
1.2
1.2
1.2
1.2
1.2
1.2
1.2000001
1.2000001
1.2000001
1.2000001
1.2000001
1.2000001
1.2000001
1.2000001
1.2000001
1.2000001
1.2000001
1.2000001
1.2
1.2
1.2
1.2
1.2
1.2
1.2
1.2
1.2
1.2000001
1.2000001
1.2000001
1.2000001
1.2000001
1.2000001
1.2000001
1.2000001
1.2000001
1.2000001
1.2
1.2
1.2
1.2
1.2
1.2
1.2
1.2
1.2
1.2
1.2
1.2
1.2
1.2
1.2
1.2
1.2
1.2
1.2
1.2
1.2
1.2
1.2
1.2
1.2
1.2
1.2
1.2
1.2
1.2
1.2
1.2
1.2
1.2
1.2
1.2
1.2
1.2
1.2
1.2
1.2
1.2
1.2
1.2
1.2
1.2
1.2
1.2
1.2
1.2
1.2
1.2
1.2
1.2
1.2
1.2
1.2
1.2
1.2
1.2
1.2
1.2
1.2
1.2
1.2
1.2
1.2
1.2
1.2
1.2
1.2
1.2
1.2
1.2
1.2
1.2
1.2
1.2
1.2
1.2
1.2
1.2
1.2
1.2
1.2
1.2
1.2
1.2
1.2
1.2
1.2
1.2
1.2
1.2
1.2
1.2
1.2
1.2
1.2
1.2
1.2
1.2
1.2
1.2
1.2
1.2
1.2
1.2
1.2
1.2
1.2
1.2
1.2
1.2
1.2
1.2
1.2
1.2
1.2
1.2
1.2
1.2
1.2
1.2
1.2
1.2
1.2
1.2
1.2
1.2
1.2
1.2
1.2
1.2
1.2
1.2
1.2
1.2
1.2
1.2
1.2
1.2
1.2
1.2
1.2
1.2
1.2
1.2
1.2
1.2
1.2
1.2
1.2
1.2
1.2
1.2
1.2
1.2
1.2
1.2
1.2
1.2
1.2
1.2
1.2
1.2
1.2
1.2
1.2
1.2
1.2
1.2
1.2
1.2
1.2
1.2
1.2
1.2
1.2
1.2
1.2
1.2
1.2
1.2
1.2
)
;

boundaryField
{
    Wall
    {
        type            calculated;
        value           nonuniform List<scalar> 
100
(
1e-15
2.6354378e-12
4.1524604e-07
1.8877926e-06
5.1037211e-06
1.0704177e-05
1.9247846e-05
3.1244491e-05
4.7329958e-05
6.883758e-05
0.0001002485
0.00016120721
0.00036523054
0.0017781913
0.030434795
0.52466761
1.1139229
1.1984083
1.1999977
1.2
1.2
1.2
1.2
1.2
1.2
1.2
1.2
1.2
1.2
1.2
1.2
1.2
1.2
1.2
1.2
1.2
1.2
1.2
1.2
1.2
1e-15
1.2482249e-14
4.1524611e-07
1.8877968e-06
5.1037291e-06
1.0704186e-05
1.9247853e-05
3.1244496e-05
4.7329966e-05
6.8837595e-05
0.00010024852
0.00016120717
0.00036522989
0.0017781814
0.03043447
0.52466504
1.1139221
1.1984083
1.1999977
1.2
1.2
1.2
1.2
1.2
1.2
1.2
1.2
1.2
1.2
1.2
1.2
1.2
1.2
1.2
1.2
1.2
1.2
1.2
1.2
1.2
1e-15
1e-15
1.0000005e-15
1.000001e-15
1e-15
1.0000013e-15
1.0000011e-15
1.0000001e-15
1e-15
1e-15
1e-15
1e-15
1e-15
1.0000001e-15
1.0000001e-15
1e-15
1e-15
1e-15
1e-15
1e-15
)
;
    }
    frontAndBack
    {
        type            empty;
    }
    atmosphere
    {
        type            calculated;
        value           nonuniform List<scalar> 
20
(
1.2
1.2
1.2
1.2
1.2
1.2
1.2
1.2
1.2
1.2
1.2
1.2
1.2
1.2
1.2
1.2
1.2
1.2
1.2
1.2
)
;
    }
}


// ************************************************************************* //
