/*--------------------------------*- C++ -*----------------------------------*\
| =========                 |                                                 |
| \\      /  F ield         | OpenFOAM: The Open Source CFD Toolbox           |
|  \\    /   O peration     | Version:  3.0.1                                 |
|   \\  /    A nd           | Web:      www.OpenFOAM.org                      |
|    \\/     M anipulation  |                                                 |
\*---------------------------------------------------------------------------*/
FoamFile
{
    version     2.0;
    format      ascii;
    class       volScalarField;
    location    "25";
    object      rho_foam;
}
// * * * * * * * * * * * * * * * * * * * * * * * * * * * * * * * * * * * * * //

dimensions      [1 -3 0 0 0 0 0];

internalField   nonuniform List<scalar> 
800
(
94.393316
94.386341
94.385496
94.385512
94.385584
94.385635
94.385662
94.385675
94.385682
94.385686
94.385685
94.385682
94.385675
94.385661
94.385634
94.385583
94.38551
94.385494
94.386341
94.393315
97.031548
96.907689
96.885199
96.88259
96.883703
96.88477
96.885276
96.885389
96.885345
96.885291
96.88529
96.885345
96.885389
96.885276
96.88477
96.883703
96.88259
96.8852
96.907691
97.031551
99.608041
99.417649
99.36404
99.356706
99.357504
99.358887
99.359538
99.359611
99.359463
99.359332
99.359332
99.359463
99.359612
99.359539
99.358888
99.357506
99.356707
99.364042
99.417652
99.608047
101.85408
101.61615
101.53603
101.52567
101.52649
101.52824
101.52904
101.52908
101.52883
101.52863
101.52863
101.52883
101.52908
101.52904
101.52825
101.52649
101.52567
101.53603
101.61615
101.85409
103.67913
103.41147
103.31056
103.29145
103.29299
103.29547
103.29659
103.2967
103.29643
103.29619
103.29619
103.29643
103.2967
103.29659
103.29548
103.293
103.29145
103.31056
103.41147
103.67913
105.18104
104.87866
104.76092
104.72878
104.73187
104.73559
104.73732
104.73769
104.73751
104.73728
104.73728
104.73751
104.73769
104.73732
104.73559
104.73187
104.72878
104.76092
104.87866
105.18104
106.61012
106.23098
106.10683
106.06146
106.06698
106.07256
106.07528
106.07614
106.07615
106.07599
106.07599
106.07615
106.07614
106.07528
106.07256
106.06698
106.06146
106.10682
106.23098
106.61012
108.32399
107.80358
107.67088
107.61478
107.624
107.63211
107.63617
107.63769
107.63798
107.63792
107.63792
107.63798
107.6377
107.63617
107.63211
107.624
107.61478
107.67088
107.80358
108.32399
110.80185
110.03294
109.88535
109.82115
109.81159
109.82332
109.82889
109.83105
109.83157
109.83158
109.83158
109.83157
109.83106
109.82889
109.82333
109.8116
109.82115
109.88535
110.03294
110.80186
114.73363
113.50284
113.33219
113.26073
113.21382
113.19398
113.20055
113.20291
113.20344
113.20337
113.20337
113.20345
113.20292
113.20055
113.19399
113.21382
113.26073
113.33219
113.50285
114.73364
121.16744
119.18255
118.90319
118.82068
118.68201
118.605
118.61111
118.61255
118.61276
118.61227
118.61227
118.61276
118.61256
118.61112
118.60501
118.68202
118.82069
118.9032
119.18256
121.16746
131.78518
128.64752
128.05084
127.94855
127.62119
127.48293
127.48444
127.48195
127.48226
127.48045
127.48045
127.48226
127.48196
127.48445
127.48294
127.6212
127.94856
128.05085
128.64754
131.78521
149.61907
144.61751
143.39571
143.23787
142.67402
142.46792
142.45435
142.44074
142.31031
142.30581
142.30581
142.31031
142.44075
142.45437
142.46794
142.67404
143.23789
143.39574
144.61754
149.61912
179.91312
172.00205
169.77584
169.23461
168.36493
168.05621
168.00411
167.96102
167.68304
167.66888
167.66888
167.68305
167.96104
168.00414
168.05624
168.36496
169.23464
169.77588
172.0021
179.91318
225.06493
213.24708
209.39144
208.31642
207.03276
206.57944
206.47895
206.39904
205.93871
205.91262
205.91263
205.93872
206.39906
206.47898
206.57947
207.0328
208.31647
209.39148
213.24714
225.06498
300.26585
280.94168
273.47097
271.42331
269.62613
268.97413
267.84242
267.71023
267.10943
267.0705
267.07051
267.10944
267.71025
267.84245
268.97416
269.62617
271.42336
273.47101
280.94172
300.26586
410.23564
381.84439
368.89178
364.47428
361.89548
361.01183
360.03303
359.87551
359.23946
359.20114
359.20114
359.23946
359.87552
360.03304
361.01185
361.89551
364.47431
368.89181
381.84438
410.23552
567.82486
512.05596
487.44543
477.96973
474.1138
473.24717
472.94263
473.12298
472.7642
472.84417
472.84417
472.76419
473.12299
472.94263
473.24719
474.11382
477.96976
487.44545
512.05591
567.82453
776.16578
662.42647
617.99625
600.5542
594.77678
594.39149
595.50307
596.79383
597.32346
597.79651
597.79652
597.32346
596.79386
595.50309
594.39152
594.77684
600.55427
617.9963
662.42641
776.16533
962.78055
812.05589
747.62255
720.82113
712.07645
711.86466
714.48756
717.32304
719.14124
720.22631
720.22632
719.14127
717.3231
714.48763
711.86474
712.07655
720.82124
747.62262
812.05584
962.78024
1058.3625
933.67598
862.13217
828.88857
817.11141
816.25744
819.56903
823.46076
826.29353
827.89136
827.89139
826.29359
823.46086
819.56913
816.25756
817.11154
828.8887
862.13227
933.67597
1058.3624
1088.2194
1014.4238
951.35336
917.42845
904.00251
902.08558
905.06869
909.06705
912.20628
913.97236
913.9724
912.20636
909.06718
905.06881
902.08572
904.00265
917.42858
951.35345
1014.4238
1088.2194
1094.9415
1059.3639
1013.0719
983.62926
970.53659
967.77568
969.85125
973.20392
976.00695
977.60239
977.60243
976.00704
973.20404
969.85138
967.77581
970.53671
983.62937
1013.072
1059.3639
1094.9415
1096.1856
1081.067
1051.5572
1029.1231
1017.9239
1014.8734
1015.9879
1018.3998
1020.5475
1021.7912
1021.7912
1020.5475
1018.3999
1015.988
1014.8735
1017.9239
1029.1231
1051.5572
1081.067
1096.1856
1096.3899
1090.477
1073.5765
1058.1637
1049.5534
1046.7303
1047.129
1048.6635
1050.1307
1050.9984
1050.9984
1050.1308
1048.6636
1047.1291
1046.7304
1049.5534
1058.1637
1073.5765
1090.477
1096.3899
1096.4209
1094.2418
1085.3259
1075.5778
1069.5064
1067.2072
1067.1949
1068.0734
1068.9895
1069.5449
1069.545
1068.9895
1068.0735
1067.195
1067.2073
1069.5064
1075.5778
1085.3259
1094.2418
1096.4209
1096.4254
1095.6585
1091.249
1085.485
1081.4969
1079.7975
1079.6115
1080.0669
1080.5982
1080.93
1080.93
1080.5982
1080.0669
1079.6115
1079.7976
1081.4969
1085.485
1091.249
1095.6585
1096.4254
1096.426
1096.1663
1094.0972
1090.875
1088.4061
1087.2428
1087.0239
1087.2363
1087.5255
1087.7127
1087.7127
1087.5256
1087.2363
1087.024
1087.2429
1088.4061
1090.875
1094.0972
1096.1663
1096.426
1096.4261
1096.3411
1095.4122
1093.6956
1092.2428
1091.4951
1091.3078
1091.3942
1091.543
1091.6434
1091.6434
1091.543
1091.3942
1091.3078
1091.4951
1092.2428
1093.6956
1095.4122
1096.3411
1096.4261
1096.4261
1096.3991
1095.9979
1095.1213
1094.3036
1093.8479
1093.7104
1093.7383
1093.8108
1093.8623
1093.8623
1093.8108
1093.7383
1093.7104
1093.8479
1094.3036
1095.1213
1095.9979
1096.3991
1096.4261
1096.4261
1096.4178
1096.2504
1095.8194
1095.3771
1095.112
1095.0205
1095.0247
1095.0581
1095.0835
1095.0835
1095.0581
1095.0247
1095.0205
1095.112
1095.3771
1095.8194
1096.2504
1096.4178
1096.4261
1096.4261
1096.4236
1096.3559
1096.1513
1095.9206
1095.7726
1095.7158
1095.7124
1095.7269
1095.739
1095.739
1095.7269
1095.7124
1095.7158
1095.7726
1095.9206
1096.1513
1096.3559
1096.4236
1096.4261
1096.4261
1096.4254
1096.3988
1096.3047
1096.1884
1096.1088
1096.0755
1096.071
1096.0768
1096.0823
1096.0823
1096.0769
1096.071
1096.0755
1096.1088
1096.1884
1096.3047
1096.3988
1096.4254
1096.4261
1096.4261
1096.4259
1096.4157
1096.3738
1096.3169
1096.2755
1096.257
1096.2533
1096.2555
1096.2579
1096.2579
1096.2555
1096.2533
1096.257
1096.2755
1096.3169
1096.3738
1096.4157
1096.4259
1096.4261
1096.4261
1096.426
1096.4223
1096.4041
1096.3771
1096.3562
1096.3463
1096.3439
1096.3446
1096.3456
1096.3456
1096.3446
1096.3439
1096.3463
1096.3562
1096.3771
1096.4041
1096.4223
1096.426
1096.4261
1096.4261
1096.4261
1096.4247
1096.417
1096.4046
1096.3944
1096.3893
1096.3878
1096.388
1096.3884
1096.3884
1096.388
1096.3878
1096.3893
1096.3944
1096.4046
1096.417
1096.4247
1096.4261
1096.4261
1096.4261
1096.4261
1096.4256
1096.4224
1096.4169
1096.412
1096.4095
1096.4087
1096.4087
1096.4088
1096.4088
1096.4087
1096.4087
1096.4095
1096.412
1096.4169
1096.4224
1096.4256
1096.4261
1096.4261
1096.4261
1096.4261
1096.4259
1096.4247
1096.4222
1096.42
1096.4187
1096.4183
1096.4183
1096.4183
1096.4183
1096.4183
1096.4183
1096.4187
1096.42
1096.4222
1096.4247
1096.4259
1096.4261
1096.4261
1096.4261
1096.4261
1096.426
1096.4255
1096.4245
1096.4235
1096.4229
1096.4227
1096.4227
1096.4227
1096.4227
1096.4227
1096.4227
1096.4229
1096.4235
1096.4245
1096.4255
1096.426
1096.4261
1096.4261
1096.4261
1096.4261
1096.4261
1096.4259
1096.4255
1096.425
1096.4247
1096.4246
1096.4246
1096.4246
1096.4246
1096.4246
1096.4246
1096.4247
1096.425
1096.4255
1096.4259
1096.4261
1096.4261
1096.4261
)
;

boundaryField
{
    Wall
    {
        type            zeroGradient;
    }
    frontAndBack
    {
        type            empty;
    }
    atmosphere
    {
        type            zeroGradient;
    }
}


// ************************************************************************* //
