/*--------------------------------*- C++ -*----------------------------------*\
| =========                 |                                                 |
| \\      /  F ield         | OpenFOAM: The Open Source CFD Toolbox           |
|  \\    /   O peration     | Version:  3.0.1                                 |
|   \\  /    A nd           | Web:      www.OpenFOAM.org                      |
|    \\/     M anipulation  |                                                 |
\*---------------------------------------------------------------------------*/
FoamFile
{
    version     2.0;
    format      ascii;
    class       volScalarField;
    location    "25";
    object      thermalConductivity;
}
// * * * * * * * * * * * * * * * * * * * * * * * * * * * * * * * * * * * * * //

dimensions      [0 2 -1 0 0 0 0];

internalField   nonuniform List<scalar> 
800
(
0.020402303
0.020401598
0.020401513
0.020401514
0.020401522
0.020401527
0.02040153
0.020401531
0.020401532
0.020401532
0.020401532
0.020401532
0.020401531
0.02040153
0.020401527
0.020401522
0.020401514
0.020401513
0.020401598
0.020402303
0.020672235
0.020659576
0.020657284
0.02065702
0.020657134
0.020657242
0.020657293
0.020657304
0.020657299
0.020657293
0.020657293
0.020657299
0.020657304
0.020657293
0.020657242
0.020657134
0.02065702
0.020657284
0.020659576
0.020672235
0.020936798
0.020917272
0.020911777
0.02091103
0.020911113
0.020911253
0.020911318
0.020911324
0.020911307
0.020911293
0.020911293
0.020911307
0.020911324
0.020911318
0.020911253
0.020911113
0.02091103
0.020911778
0.020917272
0.020936798
0.021168288
0.021143798
0.021135553
0.021134495
0.02113458
0.021134759
0.021134838
0.02113484
0.021134813
0.021134792
0.021134792
0.021134813
0.02113484
0.021134838
0.021134759
0.021134581
0.021134495
0.021135553
0.021143799
0.021168288
0.021357271
0.021329623
0.021319205
0.021317227
0.021317388
0.021317642
0.021317754
0.021317763
0.021317734
0.021317708
0.021317708
0.021317734
0.021317763
0.021317754
0.021317643
0.021317388
0.021317227
0.021319205
0.021329623
0.021357272
0.021514037
0.021482626
0.021470435
0.021467084
0.021467406
0.02146779
0.021467966
0.021468002
0.02146798
0.021467956
0.021467956
0.021467981
0.021468002
0.021467966
0.02146779
0.021467406
0.021467084
0.021470435
0.021482626
0.021514037
0.021664994
0.021625303
0.021612421
0.021607675
0.021608252
0.02160883
0.021609109
0.021609195
0.021609194
0.021609176
0.021609176
0.021609194
0.021609195
0.021609109
0.02160883
0.021608252
0.021607675
0.021612421
0.021625302
0.021664994
0.021848126
0.021793238
0.021779384
0.021773499
0.021774467
0.02177531
0.021775729
0.021775884
0.02177591
0.021775902
0.021775902
0.02177591
0.021775884
0.021775729
0.02177531
0.021774467
0.021773499
0.021779384
0.021793238
0.021848126
0.022115018
0.022033293
0.022017736
0.022010977
0.022009903
0.022011129
0.022011705
0.022011924
0.022011973
0.022011971
0.022011971
0.022011973
0.022011924
0.022011705
0.02201113
0.022009904
0.022010977
0.022017736
0.022033293
0.022115019
0.022541581
0.022409457
0.022391238
0.022383657
0.022378545
0.022376315
0.022376991
0.022377226
0.022377272
0.022377259
0.022377259
0.022377272
0.022377227
0.022376991
0.022376315
0.022378546
0.022383658
0.022391238
0.022409458
0.022541582
0.023246755
0.023030933
0.023000428
0.022991539
0.022976325
0.02296784
0.022968455
0.022968579
0.022968583
0.022968521
0.022968521
0.022968583
0.02296858
0.022968456
0.022967841
0.022976326
0.02299154
0.023000429
0.023030934
0.023246757
0.024429967
0.024082055
0.024015445
0.024004106
0.023967619
0.023952269
0.023952346
0.023952015
0.023952009
0.023951795
0.023951796
0.023952009
0.023952016
0.023952348
0.023952271
0.02396762
0.024004108
0.024015447
0.024082057
0.024429971
0.026470659
0.025898621
0.025758636
0.025740145
0.025675849
0.025652379
0.025650663
0.025649008
0.025633984
0.025633443
0.025633443
0.025633985
0.025649009
0.025650664
0.025652381
0.025675852
0.025740148
0.025758639
0.025898625
0.026470664
0.030066869
0.029123968
0.028859592
0.028794916
0.028691718
0.028654994
0.028648541
0.028643252
0.028610218
0.028608478
0.028608478
0.028610219
0.028643254
0.028648543
0.028654997
0.028691722
0.02879492
0.028859597
0.029123974
0.030066877
0.035731605
0.03422685
0.033738481
0.033603182
0.033442638
0.033385728
0.033372666
0.033362443
0.033305165
0.033301813
0.033301813
0.033305167
0.033362446
0.03337267
0.033385732
0.033442643
0.033603188
0.033738487
0.034226857
0.035731613
0.046132339
0.043370144
0.042316657
0.04203187
0.04178772
0.041698703
0.041532778
0.041514442
0.04143413
0.041428735
0.041428736
0.041434131
0.041514444
0.041532781
0.041698707
0.041787725
0.042031876
0.042316663
0.043370149
0.04613234
0.024
0.024
0.024
0.024
0.024
0.024
0.024
0.024
0.024
0.024
0.024
0.024
0.024
0.024
0.024
0.024
0.024
0.024
0.024
0.024
0.024
0.024
0.024
0.024
0.024
0.024
0.024
0.024
0.024
0.024
0.024
0.024
0.024
0.024
0.024
0.024
0.024
0.024
0.024
0.024
0.024
0.024
0.024
0.024
0.024
0.024
0.024
0.024
0.024
0.024
0.024
0.024
0.024
0.024
0.024
0.024
0.024
0.024
0.024
0.024
0.024
0.024
0.024
0.024
0.024
0.024
0.024
0.024
0.024
0.024
0.024
0.024
0.024
0.024
0.024
0.024
0.024
0.024
0.024
0.024
0.024
0.024
0.024
0.024
0.024
0.024
0.024
0.024
0.024
0.024
0.024
0.024
0.024
0.024
0.024
0.024
0.024
0.024
0.024
0.024
0.024
0.024
0.024
0.024
0.024
0.024
0.024
0.024
0.024
0.024
0.024
0.024
0.024
0.024
0.024
0.024
0.024
0.024
0.024
0.024
0.024
0.024
0.024
0.024
0.024
0.024
0.024
0.024
0.024
0.024
0.024
0.024
0.024
0.024
0.024
0.024
0.024
0.024
0.024
0.024
0.024
0.024
0.024
0.024
0.024
0.024
0.024
0.024
0.024
0.024
0.024
0.024
0.024
0.024
0.024
0.024
0.024
0.024
0.024
0.024
0.024
0.024
0.024
0.024
0.024
0.024
0.024
0.024
0.024
0.024
0.024
0.024
0.024
0.024
0.024
0.024
0.024
0.024
0.024
0.024
0.024
0.024
0.024
0.024
0.024
0.024
0.024
0.024
0.024
0.024
0.024
0.024
0.024
0.024
0.024
0.024
0.024
0.024
0.024
0.024
0.024
0.024
0.024
0.024
0.024
0.024
0.024
0.024
0.024
0.024
0.024
0.024
0.024
0.024
0.024
0.024
0.024
0.024
0.024
0.024
0.024
0.024
0.024
0.024
0.024
0.024
0.024
0.024
0.024
0.024
0.024
0.024
0.024
0.024
0.024
0.024
0.024
0.024
0.024
0.024
0.024
0.024
0.024
0.024
0.024
0.024
0.024
0.024
0.024
0.024
0.024
0.024
0.024
0.024
0.024
0.024
0.024
0.024
0.024
0.024
0.024
0.024
0.024
0.024
0.024
0.024
0.024
0.024
0.024
0.024
0.024
0.024
0.024
0.024
0.024
0.024
0.024
0.024
0.024
0.024
0.024
0.024
0.024
0.024
0.024
0.024
0.024
0.024
0.024
0.024
0.024
0.024
0.024
0.024
0.024
0.024
0.024
0.024
0.024
0.024
0.024
0.024
0.024
0.024
0.024
0.024
0.024
0.024
0.024
0.024
0.024
0.024
0.024
0.024
0.024
0.024
0.024
0.024
0.024
0.024
0.024
0.024
0.024
0.024
0.024
0.024
0.024
0.024
0.024
0.024
0.024
0.024
0.024
0.024
0.024
0.024
0.024
0.024
0.024
0.024
0.024
0.024
0.024
0.024
0.024
0.024
0.024
0.024
0.024
0.024
0.024
0.024
0.024
0.024
0.024
0.024
0.024
0.024
0.024
0.024
0.024
0.024
0.024
0.024
0.024
0.024
0.024
0.024
0.024
0.024
0.024
0.024
0.024
0.024
0.024
0.024
0.024
0.024
0.024
0.024
0.024
0.024
0.024
0.024
0.024
0.024
0.024
0.024
0.024
0.024
0.024
0.024
0.024
0.024
0.024
0.024
0.024
0.024
0.024
0.024
0.024
0.024
0.024
0.024
0.024
0.024
0.024
0.024
0.024
0.024
0.024
0.024
0.024
0.024
0.024
0.024
0.024
0.024
0.024
0.024
0.024
0.024
0.024
0.024
0.024
0.024
0.024
0.024
0.024
0.024
0.024
0.024
0.024
0.024
0.024
0.024
0.024
0.024
0.024
0.024
0.024
0.024
0.024
0.024
0.024
0.024
0.024
0.024
0.024
0.024
0.024
0.024
0.024
0.024
0.024
0.024
0.024
0.024
0.024
0.024
0.024
0.024
0.024
0.024
0.024
0.024
0.024
0.024
0.024
0.024
0.024
0.024
0.024
0.024
0.024
0.024
0.024
0.024
0.024
0.024
)
;

boundaryField
{
    Wall
    {
        type            calculated;
        value           uniform 0.024;
    }
    frontAndBack
    {
        type            empty;
    }
    atmosphere
    {
        type            calculated;
        value           uniform 0.024;
    }
}


// ************************************************************************* //
