/*--------------------------------*- C++ -*----------------------------------*\
| =========                 |                                                 |
| \\      /  F ield         | OpenFOAM: The Open Source CFD Toolbox           |
|  \\    /   O peration     | Version:  3.0.1                                 |
|   \\  /    A nd           | Web:      www.OpenFOAM.org                      |
|    \\/     M anipulation  |                                                 |
\*---------------------------------------------------------------------------*/
FoamFile
{
    version     2.0;
    format      ascii;
    class       volScalarField;
    location    "25";
    object      thermalDiff_gas;
}
// * * * * * * * * * * * * * * * * * * * * * * * * * * * * * * * * * * * * * //

dimensions      [0 2 -1 0 0 0 0];

internalField   nonuniform List<scalar> 
800
(
0.00029315887
0.000293168
0.00029316959
0.00029316979
0.00029316983
0.00029316987
0.00029316991
0.00029316996
0.00029316999
0.00029317001
0.00029317001
0.00029316999
0.00029316996
0.00029316991
0.00029316987
0.00029316983
0.00029316979
0.00029316959
0.000293168
0.00029315887
0.00029058101
0.00029068351
0.00029070611
0.0002907095
0.00029070889
0.00029070794
0.00029070735
0.0002907071
0.00029070703
0.00029070702
0.00029070702
0.00029070703
0.0002907071
0.00029070735
0.00029070794
0.00029070889
0.0002907095
0.00029070611
0.00029068351
0.000290581
0.00028840302
0.00028856016
0.00028860377
0.00028861152
0.00028861135
0.00028861009
0.00028860924
0.00028860887
0.00028860876
0.00028860875
0.00028860875
0.00028860876
0.00028860887
0.00028860924
0.00028861009
0.00028861135
0.00028861152
0.00028860377
0.00028856015
0.00028840301
0.00028673881
0.00028693522
0.0002869959
0.00028700702
0.00028700709
0.00028700552
0.00028700443
0.00028700394
0.00028700379
0.00028700377
0.00028700377
0.00028700379
0.00028700394
0.00028700443
0.00028700552
0.00028700708
0.00028700702
0.0002869959
0.00028693522
0.0002867388
0.00028563962
0.00028585749
0.0002859339
0.00028594799
0.000285948
0.00028594591
0.00028594448
0.00028594377
0.00028594353
0.00028594347
0.00028594347
0.00028594353
0.00028594377
0.00028594448
0.00028594591
0.000285948
0.00028594799
0.0002859339
0.00028585749
0.00028563962
0.00028510258
0.00028532674
0.00028542066
0.00028543812
0.000285438
0.00028543517
0.00028543322
0.00028543215
0.00028543172
0.00028543157
0.00028543157
0.00028543172
0.00028543215
0.00028543322
0.00028543517
0.000285438
0.00028543812
0.00028542066
0.00028532674
0.00028510258
0.00028506634
0.00028529288
0.00028540161
0.00028542372
0.00028542372
0.00028542003
0.00028541741
0.00028541583
0.00028541513
0.00028541483
0.00028541483
0.00028541513
0.00028541583
0.00028541741
0.00028542004
0.00028542373
0.00028542373
0.00028540162
0.00028529289
0.00028506635
0.00028540039
0.00028564386
0.00028575899
0.00028578831
0.00028578917
0.00028578471
0.00028578137
0.00028577921
0.00028577818
0.00028577772
0.00028577772
0.00028577819
0.00028577921
0.00028578137
0.00028578472
0.00028578917
0.00028578832
0.000285759
0.00028564387
0.0002854004
0.0002858861
0.00028618437
0.00028629877
0.00028633997
0.00028634327
0.0002863385
0.00028633473
0.00028633215
0.00028633089
0.00028633028
0.00028633028
0.00028633089
0.00028633215
0.00028633473
0.0002863385
0.00028634328
0.00028633998
0.00028629878
0.00028618438
0.00028588611
0.00028619477
0.00028661171
0.00028672745
0.00028678855
0.00028679846
0.00028679522
0.00028679219
0.00028678992
0.00028678883
0.00028678829
0.00028678829
0.00028678883
0.00028678992
0.00028679219
0.00028679523
0.00028679847
0.00028678856
0.00028672746
0.00028661172
0.00028619478
0.00028581702
0.00028644663
0.00028658205
0.00028667766
0.00028670588
0.00028670994
0.00028671101
0.00028671112
0.00028671123
0.0002867113
0.0002867113
0.00028671124
0.00028671112
0.00028671101
0.00028670995
0.00028670589
0.00028667767
0.00028658206
0.00028644664
0.00028581703
0.00028397703
0.0002848804
0.00028513922
0.00028529888
0.00028530391
0.00028532408
0.00028533564
0.00028534264
0.00028534864
0.00028535079
0.00028535079
0.00028534864
0.00028534264
0.00028533564
0.00028532408
0.00028530392
0.00028529889
0.00028513923
0.00028488042
0.00028397704
0.000279497
0.00028073159
0.00028126459
0.0002814226
0.00028144682
0.00028149768
0.00028153111
0.00028155814
0.00028160462
0.00028161678
0.00028161678
0.00028160462
0.00028155814
0.00028153112
0.00028149768
0.00028144683
0.00028142261
0.0002812646
0.0002807316
0.00027949701
0.00027082665
0.00027255184
0.0002733103
0.00027356751
0.00027369496
0.00027379268
0.00027386592
0.00027391303
0.00027386661
0.00027388341
0.00027388341
0.00027386662
0.00027391303
0.00027386592
0.00027379268
0.00027369497
0.00027356752
0.00027331031
0.00027255185
0.00027082666
0.00026000672
0.00026130629
0.00026199539
0.00026222394
0.00026236224
0.00026247893
0.0002628277
0.00026290342
0.00026292507
0.00026294224
0.00026294224
0.00026292507
0.00026290342
0.00026282771
0.00026247894
0.00026236224
0.00026222394
0.00026199539
0.00026130629
0.00026000672
0.00025531416
0.00025574292
0.00025605599
0.0002562183
0.00025632201
0.00025641862
0.0002565183
0.00025659278
0.00025663772
0.00025665585
0.00025665585
0.00025663772
0.00025659278
0.0002565183
0.00025641862
0.00025632201
0.0002562183
0.00025605599
0.00025574291
0.00025531416
0.00025205547
0.00025210084
0.00025219784
0.00025228742
0.00025236479
0.00025243872
0.00025250944
0.00025256429
0.00025259914
0.00025261536
0.00025261536
0.00025259914
0.00025256429
0.00025250944
0.00025243872
0.00025236478
0.00025228742
0.00025219784
0.00025210084
0.00025205546
0.00024962764
0.0002496729
0.00024974578
0.00024982293
0.00024989525
0.00024996158
0.0002500203
0.00025006574
0.00025009566
0.00025011019
0.00025011019
0.00025009566
0.00025006574
0.0002500203
0.00024996158
0.00024989525
0.00024982293
0.00024974578
0.00024967289
0.00024962764
0.00024736679
0.00024743922
0.00024752274
0.00024760352
0.00024767645
0.00024773981
0.00024779254
0.00024783261
0.00024785919
0.00024787232
0.00024787232
0.00024785919
0.0002478326
0.00024779254
0.00024773981
0.00024767645
0.00024760352
0.00024752274
0.00024743922
0.00024736678
0.00024528961
0.00024538804
0.00024549441
0.0002455896
0.00024567006
0.00024573587
0.00024578779
0.00024582608
0.0002458512
0.0002458636
0.0002458636
0.0002458512
0.00024582608
0.00024578779
0.00024573587
0.00024567006
0.0002455896
0.00024549441
0.00024538804
0.0002452896
0.00024340385
0.00024351837
0.00024364556
0.00024375775
0.00024384951
0.00024392169
0.00024397645
0.00024401571
0.00024404102
0.0002440534
0.0002440534
0.00024404101
0.00024401571
0.00024397645
0.00024392169
0.00024384951
0.00024375775
0.00024364556
0.00024351836
0.00024340385
0.00024170605
0.00024182684
0.00024196755
0.00024209387
0.00024219699
0.00024227703
0.00024233661
0.00024237858
0.00024240526
0.00024241821
0.00024241821
0.00024240526
0.00024237858
0.00024233661
0.00024227702
0.00024219699
0.00024209386
0.00024196755
0.00024182684
0.00024170604
0.00024018491
0.000240305
0.00024045152
0.00024058682
0.00024069888
0.00024078619
0.00024085102
0.00024089643
0.00024092512
0.00024093899
0.00024093899
0.00024092512
0.00024089643
0.00024085102
0.00024078619
0.00024069888
0.00024058682
0.00024045152
0.000240305
0.00024018491
0.00023882546
0.00023894072
0.00023908687
0.00023922584
0.0002393433
0.00023943601
0.00023950534
0.00023955405
0.00023958485
0.00023959974
0.00023959974
0.00023958485
0.00023955405
0.00023950534
0.00023943601
0.0002393433
0.00023922584
0.00023908687
0.00023894072
0.00023882546
0.00023761189
0.00023772019
0.00023786173
0.00023799988
0.00023811914
0.00023821481
0.0002382872
0.00023833847
0.00023837106
0.00023838685
0.00023838685
0.00023837106
0.00023833847
0.0002382872
0.00023821481
0.00023811914
0.00023799988
0.00023786173
0.00023772019
0.00023761189
0.00023652915
0.00023662958
0.00023676386
0.00023689783
0.00023701577
0.00023711195
0.00023718569
0.00023723845
0.00023727221
0.00023728865
0.00023728865
0.00023727221
0.00023723845
0.00023718569
0.00023711195
0.00023701577
0.00023689783
0.00023676386
0.00023662958
0.00023652915
0.00023556351
0.00023565583
0.0002357814
0.00023590891
0.00023602308
0.00023611761
0.00023619103
0.00023624411
0.00023627833
0.00023629507
0.00023629507
0.00023627833
0.00023624411
0.00023619103
0.00023611761
0.00023602308
0.00023590891
0.0002357814
0.00023565583
0.00023556351
0.00023470283
0.00023478715
0.00023490331
0.00023502295
0.00023513159
0.00023522275
0.00023529439
0.0002353467
0.00023538067
0.00023539735
0.00023539735
0.00023538067
0.0002353467
0.00023529439
0.00023522275
0.00023513159
0.00023502295
0.00023490331
0.00023478715
0.00023470283
0.00023393645
0.00023401306
0.00023411963
0.00023423061
0.00023433256
0.00023441909
0.0002344878
0.0002345384
0.00023457148
0.00023458779
0.00023458779
0.00023457148
0.0002345384
0.0002344878
0.00023441909
0.00023433256
0.00023423061
0.00023411963
0.00023401307
0.00023393646
0.00023325518
0.00023332445
0.00023342152
0.00023352351
0.0002336181
0.00023369914
0.00023376406
0.00023381223
0.00023384391
0.00023385959
0.00023385959
0.00023384391
0.00023381223
0.00023376406
0.00023369914
0.0002336181
0.00023352351
0.00023342152
0.00023332445
0.00023325518
0.00023265114
0.00023271346
0.00023280132
0.00023289428
0.00023298117
0.0002330562
0.00023311677
0.00023316199
0.00023319189
0.00023320673
0.00023320673
0.00023319189
0.000233162
0.00023311677
0.0002330562
0.00023298117
0.00023289428
0.00023280132
0.00023271346
0.00023265114
0.0002321177
0.00023217347
0.00023225247
0.00023233656
0.00023241567
0.00023248445
0.00023254031
0.00023258227
0.00023261012
0.00023262398
0.00023262398
0.00023261012
0.00023258227
0.00023254031
0.00023248445
0.00023241567
0.00023233656
0.00023225247
0.00023217347
0.0002321177
0.00023164942
0.000231699
0.00023176955
0.00023184503
0.00023191646
0.00023197892
0.00023202994
0.00023206844
0.0002320941
0.0002321069
0.0002321069
0.0002320941
0.00023206844
0.00023202994
0.00023197892
0.00023191646
0.00023184503
0.00023176955
0.000231699
0.00023164942
0.000231242
0.00023128572
0.00023134823
0.00023141545
0.0002314794
0.00023153564
0.00023158182
0.00023161682
0.00023164023
0.00023165193
0.00023165193
0.00023164023
0.00023161682
0.00023158182
0.00023153564
0.00023147941
0.00023141545
0.00023134823
0.00023128573
0.00023124201
0.00023089231
0.00023093047
0.00023098533
0.00023104467
0.00023110146
0.00023115169
0.00023119314
0.00023122471
0.00023124589
0.00023125651
0.00023125651
0.00023124589
0.00023122471
0.00023119315
0.00023115169
0.00023110146
0.00023104467
0.00023098533
0.00023093048
0.00023089231
0.00023059838
0.00023063126
0.00023067887
0.00023073077
0.0002307808
0.00023082534
0.00023086232
0.00023089061
0.00023090966
0.00023091923
0.00023091923
0.00023090966
0.00023089061
0.00023086232
0.00023082534
0.0002307808
0.00023073077
0.00023067887
0.00023063126
0.00023059838
0.00023035948
0.00023038736
0.00023042819
0.00023047319
0.00023051698
0.0002305563
0.00023058917
0.00023061446
0.00023063156
0.00023064017
0.00023064017
0.00023063156
0.00023061446
0.00023058917
0.0002305563
0.00023051698
0.00023047319
0.0002304282
0.00023038736
0.00023035948
0.00023017619
0.00023019943
0.00023023411
0.00023027293
0.00023031123
0.00023034598
0.00023037529
0.00023039799
0.00023041341
0.0002304212
0.0002304212
0.00023041341
0.00023039799
0.00023037529
0.00023034598
0.00023031123
0.00023027293
0.00023023411
0.00023019943
0.00023017619
0.00023005045
0.00023006964
0.00023009915
0.00023013295
0.00023016685
0.00023019801
0.00023022454
0.00023024524
0.00023025937
0.00023026653
0.00023026653
0.00023025937
0.00023024524
0.00023022454
0.00023019801
0.00023016685
0.00023013295
0.00023009915
0.00023006964
0.00023005045
0.0002299855
0.00023000186
0.00023002798
0.00023005862
0.00023008984
0.00023011886
0.00023014376
0.00023016329
0.00023017668
0.00023018347
0.00023018347
0.00023017668
0.00023016329
0.00023014376
0.00023011886
0.00023008984
0.00023005862
0.00023002799
0.00023000186
0.0002299855
)
;

boundaryField
{
    Wall
    {
        type            calculated;
        value           uniform 0.1;
    }
    frontAndBack
    {
        type            empty;
    }
    atmosphere
    {
        type            calculated;
        value           uniform 0.1;
    }
}


// ************************************************************************* //
