/*--------------------------------*- C++ -*----------------------------------*\
| =========                 |                                                 |
| \\      /  F ield         | OpenFOAM: The Open Source CFD Toolbox           |
|  \\    /   O peration     | Version:  3.0.1                                 |
|   \\  /    A nd           | Web:      www.OpenFOAM.org                      |
|    \\/     M anipulation  |                                                 |
\*---------------------------------------------------------------------------*/
FoamFile
{
    version     2.0;
    format      ascii;
    class       volScalarField;
    location    "25";
    object      thermalDiffusivity;
}
// * * * * * * * * * * * * * * * * * * * * * * * * * * * * * * * * * * * * * //

dimensions      [0 2 -1 0 0 0 0];

internalField   nonuniform List<scalar> 
800
(
1.1964725e-07
1.1965192e-07
1.1965248e-07
1.1965247e-07
1.1965242e-07
1.1965238e-07
1.1965236e-07
1.1965236e-07
1.1965235e-07
1.1965235e-07
1.1965235e-07
1.1965235e-07
1.1965236e-07
1.1965237e-07
1.1965238e-07
1.1965242e-07
1.1965247e-07
1.1965248e-07
1.1965192e-07
1.1964725e-07
1.1791643e-07
1.1799515e-07
1.1800943e-07
1.1801107e-07
1.1801036e-07
1.1800969e-07
1.1800937e-07
1.1800931e-07
1.1800934e-07
1.1800939e-07
1.1800938e-07
1.1800935e-07
1.1800931e-07
1.1800937e-07
1.1800969e-07
1.1801036e-07
1.1801107e-07
1.1800942e-07
1.1799515e-07
1.1791642e-07
1.1642285e-07
1.1652875e-07
1.1655898e-07
1.1656313e-07
1.1656275e-07
1.165621e-07
1.1656186e-07
1.1656192e-07
1.1656207e-07
1.1656219e-07
1.1656218e-07
1.1656207e-07
1.1656192e-07
1.1656186e-07
1.165621e-07
1.1656275e-07
1.1656313e-07
1.1655898e-07
1.1652875e-07
1.1642284e-07
1.1545681e-07
1.1555359e-07
1.1559049e-07
1.1559556e-07
1.1559566e-07
1.1559547e-07
1.1559565e-07
1.1559606e-07
1.1559645e-07
1.1559669e-07
1.1559668e-07
1.1559645e-07
1.1559606e-07
1.1559565e-07
1.1559547e-07
1.1559565e-07
1.1559556e-07
1.1559048e-07
1.1555359e-07
1.1545681e-07
1.1519446e-07
1.1523296e-07
1.1526364e-07
1.1527258e-07
1.1527357e-07
1.1527447e-07
1.1527557e-07
1.1527662e-07
1.1527742e-07
1.1527785e-07
1.1527784e-07
1.1527742e-07
1.1527662e-07
1.1527557e-07
1.1527447e-07
1.1527357e-07
1.1527258e-07
1.1526364e-07
1.1523296e-07
1.1519446e-07
1.157031e-07
1.1563104e-07
1.1563923e-07
1.156543e-07
1.1565726e-07
1.1566026e-07
1.1566295e-07
1.1566501e-07
1.1566642e-07
1.1566713e-07
1.1566712e-07
1.1566642e-07
1.1566502e-07
1.1566295e-07
1.1566026e-07
1.1565727e-07
1.156543e-07
1.1563922e-07
1.1563104e-07
1.157031e-07
1.169687e-07
1.1673587e-07
1.166944e-07
1.1671611e-07
1.1672337e-07
1.167299e-07
1.1673501e-07
1.1673851e-07
1.1674074e-07
1.1674179e-07
1.1674179e-07
1.1674074e-07
1.1673852e-07
1.1673502e-07
1.167299e-07
1.1672337e-07
1.1671611e-07
1.1669439e-07
1.1673587e-07
1.169687e-07
1.1893314e-07
1.1847802e-07
1.1835749e-07
1.1838531e-07
1.1839922e-07
1.1841153e-07
1.1841992e-07
1.1842521e-07
1.1842842e-07
1.1842985e-07
1.1842984e-07
1.1842842e-07
1.1842521e-07
1.1841992e-07
1.1841153e-07
1.1839922e-07
1.1838531e-07
1.1835749e-07
1.1847802e-07
1.1893314e-07
1.2153514e-07
1.2076914e-07
1.2054099e-07
1.205747e-07
1.2061057e-07
1.2062934e-07
1.206413e-07
1.2064851e-07
1.2065281e-07
1.2065459e-07
1.2065458e-07
1.2065281e-07
1.2064851e-07
1.206413e-07
1.2062933e-07
1.2061056e-07
1.205747e-07
1.2054098e-07
1.2076914e-07
1.2153514e-07
1.2482693e-07
1.2358366e-07
1.2324014e-07
1.2327861e-07
1.233471e-07
1.2338965e-07
1.234051e-07
1.2341407e-07
1.2341966e-07
1.2342171e-07
1.2342171e-07
1.2341966e-07
1.2341407e-07
1.2340509e-07
1.2338964e-07
1.2334709e-07
1.232786e-07
1.2324013e-07
1.2358366e-07
1.2482693e-07
1.2955191e-07
1.2730601e-07
1.2686095e-07
1.2689229e-07
1.270091e-07
1.2708042e-07
1.2709757e-07
1.2710713e-07
1.2711552e-07
1.2711744e-07
1.2711743e-07
1.2711552e-07
1.2710712e-07
1.2709757e-07
1.2708042e-07
1.2700909e-07
1.2689227e-07
1.2686094e-07
1.2730601e-07
1.2955191e-07
1.3997438e-07
1.3476143e-07
1.3390883e-07
1.3383765e-07
1.3396783e-07
1.3403312e-07
1.3403761e-07
1.3403863e-07
1.3405023e-07
1.3404947e-07
1.3404946e-07
1.3405023e-07
1.3403862e-07
1.340376e-07
1.340331e-07
1.3396781e-07
1.3383762e-07
1.339088e-07
1.3476141e-07
1.3997437e-07
1.8184456e-07
1.6324407e-07
1.5951146e-07
1.5853917e-07
1.5822447e-07
1.5804581e-07
1.5792057e-07
1.5784023e-07
1.5784599e-07
1.5782364e-07
1.5782363e-07
1.5784598e-07
1.578402e-07
1.5792053e-07
1.5804575e-07
1.582244e-07
1.5853908e-07
1.5951137e-07
1.6324397e-07
1.8184441e-07
4.922142e-07
3.635518e-07
3.3106906e-07
3.2103252e-07
3.1552989e-07
3.1260556e-07
3.1104252e-07
3.1004326e-07
3.0915715e-07
3.0888794e-07
3.0888789e-07
3.0915702e-07
3.1004304e-07
3.1104217e-07
3.1260511e-07
3.1552934e-07
3.2103188e-07
3.3106828e-07
3.6355074e-07
4.9221198e-07
6.6783372e-06
3.7237086e-06
3.0068504e-06
2.7671891e-06
2.6282731e-06
2.5583183e-06
2.5236331e-06
2.5014711e-06
2.4809854e-06
2.4756208e-06
2.4756199e-06
2.4809818e-06
2.501466e-06
2.5236253e-06
2.5583085e-06
2.6282604e-06
2.7671738e-06
3.0068316e-06
3.7236795e-06
6.6782668e-06
0.00011167584
8.2648639e-05
7.2714864e-05
6.8768308e-05
6.6343961e-05
6.5063079e-05
6.4239736e-05
6.3807567e-05
6.3419442e-05
6.3317671e-05
6.3317652e-05
6.341937e-05
6.3807466e-05
6.4239583e-05
6.5062887e-05
6.6343729e-05
6.8768041e-05
7.2714559e-05
8.2648257e-05
0.00011167529
0.00025205547
0.00025210084
0.00025219784
0.00025228742
0.00025236479
0.00025243872
0.00025250944
0.00025256429
0.00025259914
0.00025261536
0.00025261536
0.00025259914
0.00025256429
0.00025250944
0.00025243872
0.00025236478
0.00025228742
0.00025219784
0.00025210084
0.00025205546
0.00024962764
0.0002496729
0.00024974578
0.00024982293
0.00024989525
0.00024996158
0.0002500203
0.00025006574
0.00025009566
0.00025011019
0.00025011019
0.00025009566
0.00025006574
0.0002500203
0.00024996158
0.00024989525
0.00024982293
0.00024974578
0.00024967289
0.00024962764
0.00024736679
0.00024743922
0.00024752274
0.00024760352
0.00024767645
0.00024773981
0.00024779254
0.00024783261
0.00024785919
0.00024787232
0.00024787232
0.00024785919
0.0002478326
0.00024779254
0.00024773981
0.00024767645
0.00024760352
0.00024752274
0.00024743922
0.00024736678
0.00024528961
0.00024538804
0.00024549441
0.0002455896
0.00024567006
0.00024573587
0.00024578779
0.00024582608
0.0002458512
0.0002458636
0.0002458636
0.0002458512
0.00024582608
0.00024578779
0.00024573587
0.00024567006
0.0002455896
0.00024549441
0.00024538804
0.0002452896
0.00024340385
0.00024351837
0.00024364556
0.00024375775
0.00024384951
0.00024392169
0.00024397645
0.00024401571
0.00024404102
0.0002440534
0.0002440534
0.00024404101
0.00024401571
0.00024397645
0.00024392169
0.00024384951
0.00024375775
0.00024364556
0.00024351836
0.00024340385
0.00024170605
0.00024182684
0.00024196755
0.00024209387
0.00024219699
0.00024227703
0.00024233661
0.00024237858
0.00024240526
0.00024241821
0.00024241821
0.00024240526
0.00024237858
0.00024233661
0.00024227702
0.00024219699
0.00024209386
0.00024196755
0.00024182684
0.00024170604
0.00024018491
0.000240305
0.00024045152
0.00024058682
0.00024069888
0.00024078619
0.00024085102
0.00024089643
0.00024092512
0.00024093899
0.00024093899
0.00024092512
0.00024089643
0.00024085102
0.00024078619
0.00024069888
0.00024058682
0.00024045152
0.000240305
0.00024018491
0.00023882546
0.00023894072
0.00023908687
0.00023922584
0.0002393433
0.00023943601
0.00023950534
0.00023955405
0.00023958485
0.00023959974
0.00023959974
0.00023958485
0.00023955405
0.00023950534
0.00023943601
0.0002393433
0.00023922584
0.00023908687
0.00023894072
0.00023882546
0.00023761189
0.00023772019
0.00023786173
0.00023799988
0.00023811914
0.00023821481
0.0002382872
0.00023833847
0.00023837106
0.00023838685
0.00023838685
0.00023837106
0.00023833847
0.0002382872
0.00023821481
0.00023811914
0.00023799988
0.00023786173
0.00023772019
0.00023761189
0.00023652915
0.00023662958
0.00023676386
0.00023689783
0.00023701577
0.00023711195
0.00023718569
0.00023723845
0.00023727221
0.00023728865
0.00023728865
0.00023727221
0.00023723845
0.00023718569
0.00023711195
0.00023701577
0.00023689783
0.00023676386
0.00023662958
0.00023652915
0.00023556351
0.00023565583
0.0002357814
0.00023590891
0.00023602308
0.00023611761
0.00023619103
0.00023624411
0.00023627833
0.00023629507
0.00023629507
0.00023627833
0.00023624411
0.00023619103
0.00023611761
0.00023602308
0.00023590891
0.0002357814
0.00023565583
0.00023556351
0.00023470283
0.00023478715
0.00023490331
0.00023502295
0.00023513159
0.00023522275
0.00023529439
0.0002353467
0.00023538067
0.00023539735
0.00023539735
0.00023538067
0.0002353467
0.00023529439
0.00023522275
0.00023513159
0.00023502295
0.00023490331
0.00023478715
0.00023470283
0.00023393645
0.00023401306
0.00023411963
0.00023423061
0.00023433256
0.00023441909
0.0002344878
0.0002345384
0.00023457148
0.00023458779
0.00023458779
0.00023457148
0.0002345384
0.0002344878
0.00023441909
0.00023433256
0.00023423061
0.00023411963
0.00023401307
0.00023393646
0.00023325518
0.00023332445
0.00023342152
0.00023352351
0.0002336181
0.00023369914
0.00023376406
0.00023381223
0.00023384391
0.00023385959
0.00023385959
0.00023384391
0.00023381223
0.00023376406
0.00023369914
0.0002336181
0.00023352351
0.00023342152
0.00023332445
0.00023325518
0.00023265114
0.00023271346
0.00023280132
0.00023289428
0.00023298117
0.0002330562
0.00023311677
0.00023316199
0.00023319189
0.00023320673
0.00023320673
0.00023319189
0.000233162
0.00023311677
0.0002330562
0.00023298117
0.00023289428
0.00023280132
0.00023271346
0.00023265114
0.0002321177
0.00023217347
0.00023225247
0.00023233656
0.00023241567
0.00023248445
0.00023254031
0.00023258227
0.00023261012
0.00023262398
0.00023262398
0.00023261012
0.00023258227
0.00023254031
0.00023248445
0.00023241567
0.00023233656
0.00023225247
0.00023217347
0.0002321177
0.00023164942
0.000231699
0.00023176955
0.00023184503
0.00023191646
0.00023197892
0.00023202994
0.00023206844
0.0002320941
0.0002321069
0.0002321069
0.0002320941
0.00023206844
0.00023202994
0.00023197892
0.00023191646
0.00023184503
0.00023176955
0.000231699
0.00023164942
0.000231242
0.00023128572
0.00023134823
0.00023141545
0.0002314794
0.00023153564
0.00023158182
0.00023161682
0.00023164023
0.00023165193
0.00023165193
0.00023164023
0.00023161682
0.00023158182
0.00023153564
0.00023147941
0.00023141545
0.00023134823
0.00023128573
0.00023124201
0.00023089231
0.00023093047
0.00023098533
0.00023104467
0.00023110146
0.00023115169
0.00023119314
0.00023122471
0.00023124589
0.00023125651
0.00023125651
0.00023124589
0.00023122471
0.00023119315
0.00023115169
0.00023110146
0.00023104467
0.00023098533
0.00023093048
0.00023089231
0.00023059838
0.00023063126
0.00023067887
0.00023073077
0.0002307808
0.00023082534
0.00023086232
0.00023089061
0.00023090966
0.00023091923
0.00023091923
0.00023090966
0.00023089061
0.00023086232
0.00023082534
0.0002307808
0.00023073077
0.00023067887
0.00023063126
0.00023059838
0.00023035948
0.00023038736
0.00023042819
0.00023047319
0.00023051698
0.0002305563
0.00023058917
0.00023061446
0.00023063156
0.00023064017
0.00023064017
0.00023063156
0.00023061446
0.00023058917
0.0002305563
0.00023051698
0.00023047319
0.0002304282
0.00023038736
0.00023035948
0.00023017619
0.00023019943
0.00023023411
0.00023027293
0.00023031123
0.00023034598
0.00023037529
0.00023039799
0.00023041341
0.0002304212
0.0002304212
0.00023041341
0.00023039799
0.00023037529
0.00023034598
0.00023031123
0.00023027293
0.00023023411
0.00023019943
0.00023017619
0.00023005045
0.00023006964
0.00023009915
0.00023013295
0.00023016685
0.00023019801
0.00023022454
0.00023024524
0.00023025937
0.00023026653
0.00023026653
0.00023025937
0.00023024524
0.00023022454
0.00023019801
0.00023016685
0.00023013295
0.00023009915
0.00023006964
0.00023005045
0.0002299855
0.00023000186
0.00023002798
0.00023005862
0.00023008984
0.00023011886
0.00023014376
0.00023016329
0.00023017668
0.00023018347
0.00023018347
0.00023017668
0.00023016329
0.00023014376
0.00023011886
0.00023008984
0.00023005862
0.00023002799
0.00023000186
0.0002299855
)
;

boundaryField
{
    Wall
    {
        type            calculated;
        value           uniform 4e-05;
    }
    frontAndBack
    {
        type            empty;
    }
    atmosphere
    {
        type            calculated;
        value           uniform 4e-05;
    }
}


// ************************************************************************* //
