/*--------------------------------*- C++ -*----------------------------------*\
| =========                 |                                                 |
| \\      /  F ield         | OpenFOAM: The Open Source CFD Toolbox           |
|  \\    /   O peration     | Version:  3.0.1                                 |
|   \\  /    A nd           | Web:      www.OpenFOAM.org                      |
|    \\/     M anipulation  |                                                 |
\*---------------------------------------------------------------------------*/
FoamFile
{
    version     2.0;
    format      ascii;
    class       volScalarField;
    location    "25";
    object      thermalDiff_foam;
}
// * * * * * * * * * * * * * * * * * * * * * * * * * * * * * * * * * * * * * //

dimensions      [0 2 -1 0 0 0 0];

internalField   nonuniform List<scalar> 
800
(
1.1964725e-07
1.1965192e-07
1.1965248e-07
1.1965247e-07
1.1965242e-07
1.1965238e-07
1.1965236e-07
1.1965236e-07
1.1965235e-07
1.1965235e-07
1.1965235e-07
1.1965235e-07
1.1965236e-07
1.1965237e-07
1.1965238e-07
1.1965242e-07
1.1965247e-07
1.1965248e-07
1.1965192e-07
1.1964725e-07
1.1791643e-07
1.1799515e-07
1.1800942e-07
1.1801107e-07
1.1801036e-07
1.1800968e-07
1.1800937e-07
1.180093e-07
1.1800933e-07
1.1800937e-07
1.1800937e-07
1.1800933e-07
1.180093e-07
1.1800937e-07
1.1800968e-07
1.1801036e-07
1.1801107e-07
1.1800942e-07
1.1799515e-07
1.1791642e-07
1.1632309e-07
1.1643739e-07
1.1646965e-07
1.1647404e-07
1.1647355e-07
1.1647273e-07
1.1647235e-07
1.1647231e-07
1.1647241e-07
1.1647249e-07
1.1647249e-07
1.1647241e-07
1.1647231e-07
1.1647235e-07
1.1647273e-07
1.1647355e-07
1.1647404e-07
1.1646965e-07
1.1643739e-07
1.1632309e-07
1.1500591e-07
1.1514202e-07
1.1518802e-07
1.1519393e-07
1.1519345e-07
1.1519245e-07
1.1519201e-07
1.15192e-07
1.1519215e-07
1.1519227e-07
1.1519227e-07
1.1519215e-07
1.15192e-07
1.1519201e-07
1.1519245e-07
1.1519345e-07
1.1519393e-07
1.1518802e-07
1.1514202e-07
1.150059e-07
1.1398009e-07
1.1412751e-07
1.1418328e-07
1.1419389e-07
1.1419302e-07
1.1419166e-07
1.1419106e-07
1.1419101e-07
1.1419117e-07
1.1419131e-07
1.1419131e-07
1.1419117e-07
1.1419101e-07
1.1419106e-07
1.1419166e-07
1.1419302e-07
1.1419389e-07
1.1418328e-07
1.141275e-07
1.1398009e-07
1.1316096e-07
1.1332285e-07
1.1338598e-07
1.1340336e-07
1.1340169e-07
1.133997e-07
1.1339879e-07
1.133986e-07
1.1339871e-07
1.1339884e-07
1.1339884e-07
1.1339871e-07
1.133986e-07
1.1339878e-07
1.133997e-07
1.1340169e-07
1.1340336e-07
1.1338598e-07
1.1332285e-07
1.1316096e-07
1.1239807e-07
1.1259626e-07
1.1266095e-07
1.1268482e-07
1.1268192e-07
1.1267901e-07
1.1267761e-07
1.1267717e-07
1.1267718e-07
1.1267727e-07
1.1267727e-07
1.1267718e-07
1.1267717e-07
1.1267761e-07
1.1267901e-07
1.1268192e-07
1.1268482e-07
1.1266095e-07
1.1259626e-07
1.1239807e-07
1.1150505e-07
1.1176907e-07
1.118362e-07
1.1186477e-07
1.1186007e-07
1.1185597e-07
1.1185394e-07
1.1185319e-07
1.1185306e-07
1.118531e-07
1.118531e-07
1.1185306e-07
1.1185319e-07
1.1185394e-07
1.1185597e-07
1.1186007e-07
1.1186477e-07
1.118362e-07
1.1176907e-07
1.1150505e-07
1.1026367e-07
1.1063649e-07
1.1070818e-07
1.107394e-07
1.1074436e-07
1.107387e-07
1.1073604e-07
1.1073502e-07
1.107348e-07
1.1073481e-07
1.1073481e-07
1.107348e-07
1.1073502e-07
1.1073604e-07
1.1073869e-07
1.1074436e-07
1.107394e-07
1.1070818e-07
1.1063649e-07
1.1026367e-07
1.0841568e-07
1.0897112e-07
1.0904888e-07
1.0908131e-07
1.0910322e-07
1.0911278e-07
1.0910988e-07
1.0910887e-07
1.0910867e-07
1.0910873e-07
1.0910873e-07
1.0910867e-07
1.0910887e-07
1.0910988e-07
1.0911278e-07
1.0910321e-07
1.0908131e-07
1.0904888e-07
1.0897112e-07
1.0841568e-07
1.0568346e-07
1.064804e-07
1.0659572e-07
1.0662946e-07
1.0668732e-07
1.0671967e-07
1.0671733e-07
1.0671685e-07
1.0671684e-07
1.0671707e-07
1.0671707e-07
1.0671684e-07
1.0671685e-07
1.0671732e-07
1.0671967e-07
1.0668732e-07
1.0662945e-07
1.0659572e-07
1.064804e-07
1.0568346e-07
1.0183878e-07
1.0288502e-07
1.0309283e-07
1.0312845e-07
1.0324358e-07
1.0329224e-07
1.03292e-07
1.0329305e-07
1.0329307e-07
1.0329375e-07
1.0329375e-07
1.0329307e-07
1.0329305e-07
1.03292e-07
1.0329224e-07
1.0324358e-07
1.0312845e-07
1.0309282e-07
1.0288501e-07
1.0183877e-07
9.6806663e-08
9.8051263e-08
9.8373658e-08
9.8416795e-08
9.8567807e-08
9.862333e-08
9.8627399e-08
9.8631322e-08
9.8666995e-08
9.8668281e-08
9.866828e-08
9.8666992e-08
9.8631318e-08
9.8627394e-08
9.8623325e-08
9.8567802e-08
9.8416789e-08
9.8373651e-08
9.8051254e-08
9.6806651e-08
9.1031088e-08
9.2267223e-08
9.2644317e-08
9.2738756e-08
9.2891268e-08
9.294609e-08
9.2955753e-08
9.2963679e-08
9.3013325e-08
9.3015946e-08
9.3015946e-08
9.3013323e-08
9.2963676e-08
9.2955749e-08
9.2946085e-08
9.2891263e-08
9.273875e-08
9.264431e-08
9.2267215e-08
9.1031079e-08
8.6146172e-08
8.7116706e-08
8.7473888e-08
8.7576866e-08
8.7701406e-08
8.7746175e-08
8.7756496e-08
8.7764587e-08
8.7810115e-08
8.781279e-08
8.781279e-08
8.7810114e-08
8.7764585e-08
8.7756493e-08
8.7746172e-08
8.7701402e-08
8.7576861e-08
8.7473883e-08
8.7116701e-08
8.6146168e-08
8.2824599e-08
8.3302593e-08
8.354448e-08
8.361633e-08
8.3680239e-08
8.3704083e-08
8.3749313e-08
8.3754375e-08
8.3776696e-08
8.3778205e-08
8.3778204e-08
8.3776696e-08
8.3754375e-08
8.3749312e-08
8.3704082e-08
8.3680238e-08
8.3616328e-08
8.3544478e-08
8.3302592e-08
8.2824599e-08
0.00025205547
0.00025210084
0.00025219784
0.00025228742
0.00025236479
0.00025243872
0.00025250944
0.00025256429
0.00025259914
0.00025261536
0.00025261536
0.00025259914
0.00025256429
0.00025250944
0.00025243872
0.00025236478
0.00025228742
0.00025219784
0.00025210084
0.00025205546
0.00024962764
0.0002496729
0.00024974578
0.00024982293
0.00024989525
0.00024996158
0.0002500203
0.00025006574
0.00025009566
0.00025011019
0.00025011019
0.00025009566
0.00025006574
0.0002500203
0.00024996158
0.00024989525
0.00024982293
0.00024974578
0.00024967289
0.00024962764
0.00024736679
0.00024743922
0.00024752274
0.00024760352
0.00024767645
0.00024773981
0.00024779254
0.00024783261
0.00024785919
0.00024787232
0.00024787232
0.00024785919
0.0002478326
0.00024779254
0.00024773981
0.00024767645
0.00024760352
0.00024752274
0.00024743922
0.00024736678
0.00024528961
0.00024538804
0.00024549441
0.0002455896
0.00024567006
0.00024573587
0.00024578779
0.00024582608
0.0002458512
0.0002458636
0.0002458636
0.0002458512
0.00024582608
0.00024578779
0.00024573587
0.00024567006
0.0002455896
0.00024549441
0.00024538804
0.0002452896
0.00024340385
0.00024351837
0.00024364556
0.00024375775
0.00024384951
0.00024392169
0.00024397645
0.00024401571
0.00024404102
0.0002440534
0.0002440534
0.00024404101
0.00024401571
0.00024397645
0.00024392169
0.00024384951
0.00024375775
0.00024364556
0.00024351836
0.00024340385
0.00024170605
0.00024182684
0.00024196755
0.00024209387
0.00024219699
0.00024227703
0.00024233661
0.00024237858
0.00024240526
0.00024241821
0.00024241821
0.00024240526
0.00024237858
0.00024233661
0.00024227702
0.00024219699
0.00024209386
0.00024196755
0.00024182684
0.00024170604
0.00024018491
0.000240305
0.00024045152
0.00024058682
0.00024069888
0.00024078619
0.00024085102
0.00024089643
0.00024092512
0.00024093899
0.00024093899
0.00024092512
0.00024089643
0.00024085102
0.00024078619
0.00024069888
0.00024058682
0.00024045152
0.000240305
0.00024018491
0.00023882546
0.00023894072
0.00023908687
0.00023922584
0.0002393433
0.00023943601
0.00023950534
0.00023955405
0.00023958485
0.00023959974
0.00023959974
0.00023958485
0.00023955405
0.00023950534
0.00023943601
0.0002393433
0.00023922584
0.00023908687
0.00023894072
0.00023882546
0.00023761189
0.00023772019
0.00023786173
0.00023799988
0.00023811914
0.00023821481
0.0002382872
0.00023833847
0.00023837106
0.00023838685
0.00023838685
0.00023837106
0.00023833847
0.0002382872
0.00023821481
0.00023811914
0.00023799988
0.00023786173
0.00023772019
0.00023761189
0.00023652915
0.00023662958
0.00023676386
0.00023689783
0.00023701577
0.00023711195
0.00023718569
0.00023723845
0.00023727221
0.00023728865
0.00023728865
0.00023727221
0.00023723845
0.00023718569
0.00023711195
0.00023701577
0.00023689783
0.00023676386
0.00023662958
0.00023652915
0.00023556351
0.00023565583
0.0002357814
0.00023590891
0.00023602308
0.00023611761
0.00023619103
0.00023624411
0.00023627833
0.00023629507
0.00023629507
0.00023627833
0.00023624411
0.00023619103
0.00023611761
0.00023602308
0.00023590891
0.0002357814
0.00023565583
0.00023556351
0.00023470283
0.00023478715
0.00023490331
0.00023502295
0.00023513159
0.00023522275
0.00023529439
0.0002353467
0.00023538067
0.00023539735
0.00023539735
0.00023538067
0.0002353467
0.00023529439
0.00023522275
0.00023513159
0.00023502295
0.00023490331
0.00023478715
0.00023470283
0.00023393645
0.00023401306
0.00023411963
0.00023423061
0.00023433256
0.00023441909
0.0002344878
0.0002345384
0.00023457148
0.00023458779
0.00023458779
0.00023457148
0.0002345384
0.0002344878
0.00023441909
0.00023433256
0.00023423061
0.00023411963
0.00023401307
0.00023393646
0.00023325518
0.00023332445
0.00023342152
0.00023352351
0.0002336181
0.00023369914
0.00023376406
0.00023381223
0.00023384391
0.00023385959
0.00023385959
0.00023384391
0.00023381223
0.00023376406
0.00023369914
0.0002336181
0.00023352351
0.00023342152
0.00023332445
0.00023325518
0.00023265114
0.00023271346
0.00023280132
0.00023289428
0.00023298117
0.0002330562
0.00023311677
0.00023316199
0.00023319189
0.00023320673
0.00023320673
0.00023319189
0.000233162
0.00023311677
0.0002330562
0.00023298117
0.00023289428
0.00023280132
0.00023271346
0.00023265114
0.0002321177
0.00023217347
0.00023225247
0.00023233656
0.00023241567
0.00023248445
0.00023254031
0.00023258227
0.00023261012
0.00023262398
0.00023262398
0.00023261012
0.00023258227
0.00023254031
0.00023248445
0.00023241567
0.00023233656
0.00023225247
0.00023217347
0.0002321177
0.00023164942
0.000231699
0.00023176955
0.00023184503
0.00023191646
0.00023197892
0.00023202994
0.00023206844
0.0002320941
0.0002321069
0.0002321069
0.0002320941
0.00023206844
0.00023202994
0.00023197892
0.00023191646
0.00023184503
0.00023176955
0.000231699
0.00023164942
0.000231242
0.00023128572
0.00023134823
0.00023141545
0.0002314794
0.00023153564
0.00023158182
0.00023161682
0.00023164023
0.00023165193
0.00023165193
0.00023164023
0.00023161682
0.00023158182
0.00023153564
0.00023147941
0.00023141545
0.00023134823
0.00023128573
0.00023124201
0.00023089231
0.00023093047
0.00023098533
0.00023104467
0.00023110146
0.00023115169
0.00023119314
0.00023122471
0.00023124589
0.00023125651
0.00023125651
0.00023124589
0.00023122471
0.00023119315
0.00023115169
0.00023110146
0.00023104467
0.00023098533
0.00023093048
0.00023089231
0.00023059838
0.00023063126
0.00023067887
0.00023073077
0.0002307808
0.00023082534
0.00023086232
0.00023089061
0.00023090966
0.00023091923
0.00023091923
0.00023090966
0.00023089061
0.00023086232
0.00023082534
0.0002307808
0.00023073077
0.00023067887
0.00023063126
0.00023059838
0.00023035948
0.00023038736
0.00023042819
0.00023047319
0.00023051698
0.0002305563
0.00023058917
0.00023061446
0.00023063156
0.00023064017
0.00023064017
0.00023063156
0.00023061446
0.00023058917
0.0002305563
0.00023051698
0.00023047319
0.0002304282
0.00023038736
0.00023035948
0.00023017619
0.00023019943
0.00023023411
0.00023027293
0.00023031123
0.00023034598
0.00023037529
0.00023039799
0.00023041341
0.0002304212
0.0002304212
0.00023041341
0.00023039799
0.00023037529
0.00023034598
0.00023031123
0.00023027293
0.00023023411
0.00023019943
0.00023017619
0.00023005045
0.00023006964
0.00023009915
0.00023013295
0.00023016685
0.00023019801
0.00023022454
0.00023024524
0.00023025937
0.00023026653
0.00023026653
0.00023025937
0.00023024524
0.00023022454
0.00023019801
0.00023016685
0.00023013295
0.00023009915
0.00023006964
0.00023005045
0.0002299855
0.00023000186
0.00023002798
0.00023005862
0.00023008984
0.00023011886
0.00023014376
0.00023016329
0.00023017668
0.00023018347
0.00023018347
0.00023017668
0.00023016329
0.00023014376
0.00023011886
0.00023008984
0.00023005862
0.00023002799
0.00023000186
0.0002299855
)
;

boundaryField
{
    Wall
    {
        type            calculated;
        value           uniform 4e-05;
    }
    frontAndBack
    {
        type            empty;
    }
    atmosphere
    {
        type            calculated;
        value           uniform 4e-05;
    }
}


// ************************************************************************* //
