/*--------------------------------*- C++ -*----------------------------------*\
| =========                 |                                                 |
| \\      /  F ield         | OpenFOAM: The Open Source CFD Toolbox           |
|  \\    /   O peration     | Version:  3.0.1                                 |
|   \\  /    A nd           | Web:      www.OpenFOAM.org                      |
|    \\/     M anipulation  |                                                 |
\*---------------------------------------------------------------------------*/
FoamFile
{
    version     2.0;
    format      ascii;
    class       volScalarField;
    location    "25";
    object      TS;
}
// * * * * * * * * * * * * * * * * * * * * * * * * * * * * * * * * * * * * * //

dimensions      [0 0 0 1 0 0 0];

internalField   nonuniform List<scalar> 
800
(
340.86479
340.87062
340.87164
340.87177
340.87179
340.87182
340.87185
340.87187
340.87189
340.8719
340.8719
340.87189
340.87187
340.87185
340.87182
340.87179
340.87177
340.87164
340.87062
340.86479
339.2343
339.29947
339.31387
339.31605
339.31567
339.31506
339.31468
339.31452
339.31447
339.31446
339.31446
339.31447
339.31452
339.31468
339.31506
339.31566
339.31605
339.31387
339.29946
339.2343
337.85368
337.95374
337.98158
337.98655
337.98645
337.98564
337.9851
337.98485
337.98477
337.98476
337.98476
337.98477
337.98485
337.9851
337.98564
337.98645
337.98655
337.98158
337.95374
337.85368
336.79671
336.92193
336.96069
336.96783
336.96788
336.96688
336.96618
336.96585
336.96575
336.96573
336.96573
336.96575
336.96585
336.96618
336.96688
336.96788
336.96782
336.96069
336.92193
336.79671
336.09763
336.23662
336.28543
336.29446
336.29448
336.29315
336.29223
336.29176
336.2916
336.29156
336.29156
336.2916
336.29176
336.29223
336.29315
336.29448
336.29446
336.28543
336.23662
336.09763
335.75637
335.89934
335.95927
335.97045
335.97038
335.96858
335.96732
335.96663
335.96635
335.96625
335.96625
335.96635
335.96663
335.96732
335.96858
335.97038
335.97045
335.95927
335.89935
335.75638
335.73585
335.88003
335.94935
335.96346
335.96346
335.96111
335.95942
335.95841
335.95795
335.95776
335.95777
335.95795
335.95841
335.95942
335.96111
335.96346
335.96346
335.94936
335.88003
335.73586
335.95531
336.10952
336.1829
336.20154
336.20207
336.19922
336.19707
336.19568
336.19502
336.19472
336.19472
336.19502
336.19568
336.19707
336.19922
336.20207
336.20154
336.18291
336.10953
335.95531
336.27887
336.46666
336.53946
336.56554
336.56759
336.56452
336.56208
336.56041
336.55959
336.5592
336.5592
336.55959
336.56042
336.56209
336.56452
336.56759
336.56555
336.53946
336.46667
336.27888
336.50232
336.76368
336.83693
336.87549
336.88163
336.87946
336.87744
336.87594
336.8752
336.87484
336.87484
336.8752
336.87594
336.87744
336.87946
336.88163
336.87549
336.83693
336.76369
336.50233
336.30966
336.7038
336.78866
336.84882
336.86626
336.86854
336.869
336.86893
336.86892
336.86892
336.86892
336.86892
336.86893
336.86901
336.86854
336.86626
336.84883
336.78867
336.70381
336.30967
335.2192
335.78568
335.94656
336.0467
336.04969
336.0619
336.06881
336.07296
336.07653
336.07782
336.07782
336.07653
336.07296
336.06881
336.0619
336.0497
336.04671
335.94657
335.78569
335.21921
332.49433
333.27088
333.6039
333.70347
333.71704
333.74836
333.76886
333.7854
333.81374
333.82118
333.82118
333.81374
333.7854
333.76887
333.74837
333.71704
333.70348
333.60391
333.27089
332.49433
327.11262
328.21904
328.70182
328.86397
328.94256
329.00412
329.05031
329.08001
329.04958
329.06022
329.06022
329.04958
329.08001
329.05031
329.00413
328.94256
328.86398
328.70183
328.21904
327.11263
320.07516
320.94046
321.39913
321.56095
321.65814
321.73753
321.94512
321.99518
322.00849
322.02006
322.02006
322.00849
321.99518
321.94512
321.73753
321.65814
321.56096
321.39913
320.94046
320.07516
316.84992
317.06242
317.24103
317.34532
317.41402
317.47459
317.52735
317.57229
317.60107
317.61307
317.61307
317.60107
317.57229
317.52734
317.47459
317.41401
317.34532
317.24103
317.06242
316.84992
314.50984
314.54535
314.60946
314.66997
314.72205
314.77007
314.8135
314.84831
314.87115
314.882
314.882
314.87115
314.84831
314.8135
314.77007
314.72204
314.66997
314.60945
314.54535
314.50983
312.89081
312.92509
312.97607
313.02906
313.0781
313.12241
313.16097
313.19111
313.21122
313.22107
313.22107
313.21122
313.19111
313.16097
313.12241
313.0781
313.02905
312.97607
312.92508
312.89081
311.39287
311.44153
311.49759
311.55182
311.60074
311.64322
311.67856
311.70555
311.72355
311.73247
311.73247
311.72355
311.70555
311.67855
311.64322
311.60074
311.55181
311.49759
311.44153
311.39286
310.01556
310.0804
310.15046
310.2133
310.26658
310.31035
310.34501
310.3707
310.3876
310.39596
310.39596
310.3876
310.3707
310.34501
310.31034
310.26658
310.21329
310.15045
310.0804
310.01556
308.76287
308.83847
308.92219
308.996
309.05647
309.10416
309.14047
309.16658
309.18345
309.19172
309.19172
309.18345
309.16658
309.14047
309.10416
309.05647
308.996
308.92219
308.83847
308.76287
307.63299
307.71311
307.8061
307.88942
307.95742
308.01022
308.04959
308.07737
308.09505
308.10364
308.10364
308.09505
308.07737
308.04959
308.01022
307.95741
307.88942
307.8061
307.71311
307.63298
306.6191
306.69908
306.79633
306.88591
306.96
307.0177
307.06055
307.09056
307.10954
307.11871
307.11871
307.10954
307.09056
307.06054
307.0177
306.96
306.88591
306.79633
306.69908
306.6191
305.71184
305.78884
305.88618
305.97852
306.05644
306.11787
306.16377
306.19601
306.2164
306.22625
306.22625
306.2164
306.19601
306.16377
306.11787
306.05644
305.97852
305.88618
305.78884
305.71184
304.90113
304.97363
305.06815
305.16023
305.23957
305.30314
305.35119
305.3852
305.4068
305.41727
305.41727
305.4068
305.3852
305.35119
305.30314
305.23957
305.16023
305.06815
304.97363
304.90113
304.17722
304.24455
304.33442
304.42392
304.50259
304.56666
304.61573
304.65081
304.67324
304.68416
304.68416
304.67324
304.65081
304.61573
304.56666
304.50259
304.42392
304.33442
304.24455
304.17722
303.53115
303.59312
303.67729
303.76264
303.83896
303.90207
303.95104
303.98641
304.00921
304.02035
304.02035
304.00921
303.98641
303.95104
303.90207
303.83896
303.76264
303.67729
303.59312
303.53115
302.95495
303.01161
303.08957
303.16978
303.24253
303.30351
303.35139
303.38632
303.40899
303.42012
303.42012
303.40899
303.38632
303.35139
303.30351
303.24253
303.16978
303.08957
303.01161
302.95495
302.44161
302.49313
302.56473
302.63922
302.70759
302.76557
302.81157
302.84542
302.86755
302.87845
302.87845
302.86755
302.84543
302.81157
302.76557
302.70759
302.63922
302.56473
302.49313
302.44161
301.98505
302.03167
302.09694
302.16547
302.22898
302.28335
302.32689
302.35917
302.38039
302.39089
302.39089
302.38039
302.35917
302.32689
302.28336
302.22898
302.16547
302.09694
302.03167
301.98505
301.58006
301.62202
301.68115
301.74367
301.80207
301.85247
301.89313
301.92348
301.94354
301.95349
301.95349
301.94354
301.92348
301.89313
301.85247
301.80207
301.74367
301.68115
301.62203
301.58006
301.22225
301.25982
301.31302
301.36962
301.42284
301.46909
301.50663
301.53482
301.55352
301.56283
301.56283
301.55352
301.53482
301.50663
301.46909
301.42284
301.36962
301.31303
301.25982
301.22225
300.90802
300.94144
300.98898
301.03982
301.08791
301.12994
301.16426
301.19015
301.2074
301.21601
301.21601
301.2074
301.19015
301.16426
301.12994
301.08791
301.03982
300.98898
300.94144
300.90802
300.63453
300.66402
300.70615
300.75145
300.79454
300.83241
300.8635
300.88706
300.90281
300.91069
300.91069
300.90281
300.88706
300.8635
300.83241
300.79454
300.75146
300.70615
300.66402
300.63453
300.39971
300.42545
300.46245
300.50246
300.54074
300.57459
300.60252
300.62378
300.63804
300.64519
300.64519
300.63804
300.62378
300.60252
300.57459
300.54074
300.50246
300.46245
300.42546
300.39971
300.20225
300.22445
300.25657
300.29158
300.32532
300.35535
300.38027
300.39934
300.41218
300.41863
300.41863
300.41218
300.39934
300.38027
300.35535
300.32532
300.29158
300.25657
300.22445
300.20225
300.04171
300.06053
300.0881
300.11846
300.148
300.17452
300.19669
300.21375
300.22528
300.23108
300.23108
300.22528
300.21375
300.19669
300.17452
300.14801
300.11846
300.0881
300.06054
300.04171
299.9185
299.93419
299.9576
299.98381
300.00966
300.03311
300.05288
300.06819
300.07859
300.08385
300.08385
300.07859
300.06819
300.05288
300.03311
300.00966
299.98381
299.95761
299.93419
299.9185
299.83394
299.8469
299.86683
299.88965
299.91253
299.93356
299.95147
299.96543
299.97497
299.97979
299.97979
299.97497
299.96543
299.95147
299.93356
299.91253
299.88965
299.86683
299.8469
299.83394
299.79024
299.80129
299.81894
299.83962
299.8607
299.88029
299.89709
299.91027
299.9193
299.92389
299.92389
299.9193
299.91027
299.89709
299.88029
299.8607
299.83963
299.81894
299.8013
299.79024
)
;

boundaryField
{
    Wall
    {
        type            zeroGradient;
    }
    frontAndBack
    {
        type            empty;
    }
    atmosphere
    {
        type            zeroGradient;
    }
}


// ************************************************************************* //
