/*--------------------------------*- C++ -*----------------------------------*\
| =========                 |                                                 |
| \\      /  F ield         | OpenFOAM: The Open Source CFD Toolbox           |
|  \\    /   O peration     | Version:  3.0.1                                 |
|   \\  /    A nd           | Web:      www.OpenFOAM.org                      |
|    \\/     M anipulation  |                                                 |
\*---------------------------------------------------------------------------*/
FoamFile
{
    version     2.0;
    format      ascii;
    class       volVectorField;
    location    "25";
    object      U;
}
// * * * * * * * * * * * * * * * * * * * * * * * * * * * * * * * * * * * * * //

dimensions      [0 1 -1 0 0 0 0];

internalField   nonuniform List<vector> 
800
(
(6.2348343e-06 0.00028905429 0)
(8.0271334e-06 0.00029127266 0)
(8.8047925e-06 0.00029258343 0)
(7.7132464e-06 0.00029307265 0)
(6.2131841e-06 0.00029312899 0)
(4.7936278e-06 0.0002930251 0)
(3.5251618e-06 0.00029289203 0)
(2.4029306e-06 0.00029278184 0)
(1.3937926e-06 0.00029270863 0)
(4.5325746e-07 0.00029267303 0)
(-4.6442482e-07 0.00029267307 0)
(-1.4043921e-06 0.00029270874 0)
(-2.4124729e-06 0.00029278198 0)
(-3.5332608e-06 0.00029289216 0)
(-4.8000495e-06 0.00029302515 0)
(-6.2178672e-06 0.00029312887 0)
(-7.7162379e-06 0.00029307227 0)
(-8.8066257e-06 0.00029258279 0)
(-8.0280393e-06 0.00029127219 0)
(-6.2359287e-06 0.00028905292 0)
(3.778768e-06 0.00051109433 0)
(5.4100861e-06 0.00051740996 0)
(7.4008783e-06 0.00052055512 0)
(6.9286304e-06 0.00052179096 0)
(5.8058293e-06 0.00052210628 0)
(4.5949866e-06 0.00052204659 0)
(3.4291188e-06 0.00052187757 0)
(2.3558822e-06 0.00052171431 0)
(1.3721111e-06 0.00052159735 0)
(4.4780523e-07 0.00052153793 0)
(-4.5608398e-07 0.00052153803 0)
(-1.3799534e-06 0.0005215976 0)
(-2.3629047e-06 0.00052171462 0)
(-3.4350172e-06 0.0005218778 0)
(-4.5995711e-06 0.00052204657 0)
(-5.809056e-06 0.00052210581 0)
(-6.9305612e-06 0.00052178983 0)
(-7.4017742e-06 0.0005205532 0)
(-5.4107796e-06 0.0005174074 0)
(-3.779501e-06 0.00051108981 0)
(5.1180709e-06 0.00092274019 0)
(6.5615792e-06 0.00093438192 0)
(7.3196613e-06 0.00093991643 0)
(6.5235079e-06 0.0009421699 0)
(5.378699e-06 0.00094282358 0)
(4.2248301e-06 0.00094279016 0)
(3.1379852e-06 0.00094253278 0)
(2.1484327e-06 0.00094226162 0)
(1.247969e-06 0.00094205868 0)
(4.0669266e-07 0.00094195328 0)
(-4.1413826e-07 0.0009419534 0)
(-1.2550862e-06 0.00094205897 0)
(-2.1549214e-06 0.0009422619 0)
(-3.1436026e-06 0.00094253285 0)
(-4.2294089e-06 0.00094278973 0)
(-5.3821738e-06 0.00094282239 0)
(-6.5258697e-06 0.0009421677 0)
(-7.321033e-06 0.00093991305 0)
(-6.5623723e-06 0.00093437726 0)
(-5.1183298e-06 0.00092273369 0)
(5.3027156e-06 0.0013128743 0)
(6.5259713e-06 0.0013272751 0)
(6.9583746e-06 0.0013343064 0)
(6.0015627e-06 0.0013371892 0)
(4.8223052e-06 0.0013379867 0)
(3.7107201e-06 0.0013378956 0)
(2.7115455e-06 0.0013375202 0)
(1.8331912e-06 0.0013371332 0)
(1.055468e-06 0.001336843 0)
(3.42333e-07 0.0013366923 0)
(-3.4926459e-07 0.0013366923 0)
(-1.062208e-06 0.0013368431 0)
(-1.8395385e-06 0.0013371331 0)
(-2.7173065e-06 0.0013375198 0)
(-3.7157476e-06 0.0013378944 0)
(-4.8265015e-06 0.0013379845 0)
(-6.0048348e-06 0.0013371858 0)
(-6.9606745e-06 0.0013343017 0)
(-6.5274881e-06 0.001327269 0)
(-5.3031009e-06 0.0013128664 0)
(5.0423456e-06 0.0016978396 0)
(6.0876075e-06 0.0017161583 0)
(6.4138737e-06 0.0017249097 0)
(5.3398338e-06 0.0017283819 0)
(4.1206137e-06 0.0017292285 0)
(3.0614616e-06 0.0017290087 0)
(2.1698346e-06 0.0017284717 0)
(1.429149e-06 0.0017279447 0)
(8.0696433e-07 0.0017275549 0)
(2.5901455e-07 0.0017273533 0)
(-2.6557421e-07 0.0017273533 0)
(-8.134997e-07 0.0017275548 0)
(-1.4355368e-06 0.0017279441 0)
(-2.1759136e-06 0.0017284707 0)
(-3.0670916e-06 0.0017290068 0)
(-4.1256346e-06 0.0017292256 0)
(-5.3440314e-06 0.0017283778 0)
(-6.4169971e-06 0.0017249043 0)
(-6.0895598e-06 0.001716152 0)
(-5.0426722e-06 0.0016978323 0)
(5.1065474e-06 0.0020941507 0)
(5.984899e-06 0.0021168678 0)
(5.9075617e-06 0.0021273496 0)
(4.5837126e-06 0.0021312964 0)
(3.2707655e-06 0.0021320523 0)
(2.2696843e-06 0.0021316082 0)
(1.5078137e-06 0.0021308534 0)
(9.3491522e-07 0.002130151 0)
(5.0262812e-07 0.0021296414 0)
(1.5672348e-07 0.0021293801 0)
(-1.6304375e-07 0.00212938 0)
(-5.0908938e-07 0.002129641 0)
(-9.4144093e-07 0.00213015 0)
(-1.5142544e-06 0.0021308518 0)
(-2.2758659e-06 0.0021316058 0)
(-3.2764232e-06 0.0021320489 0)
(-4.5885613e-06 0.0021312921 0)
(-5.9110679e-06 0.0021273447 0)
(-5.9866863e-06 0.0021168625 0)
(-5.1065076e-06 0.0020941455 0)
(5.3666059e-06 0.0025075089 0)
(6.0230231e-06 0.0025345217 0)
(5.2791394e-06 0.0025464552 0)
(3.6084197e-06 0.0025506174 0)
(2.1867894e-06 0.0025510557 0)
(1.295769e-06 0.002550242 0)
(7.0840291e-07 0.0025491966 0)
(3.4004363e-07 0.0025482806 0)
(1.3744006e-07 0.0025476264 0)
(3.4409196e-08 0.0025472965 0)
(-4.0608384e-08 0.0025472963 0)
(-1.4393802e-07 0.0025476257 0)
(-3.467191e-07 0.0025482794 0)
(-7.1501135e-07 0.0025491947 0)
(-1.3022839e-06 0.0025502396 0)
(-2.1927561e-06 0.0025510524 0)
(-3.6132975e-06 0.0025506138 0)
(-5.2823533e-06 0.0025464515 0)
(-6.024018e-06 0.0025345185 0)
(-5.3659103e-06 0.0025075067 0)
(5.5176017e-06 0.0029436295 0)
(5.905598e-06 0.0029749466 0)
(4.2872021e-06 0.0029878434 0)
(2.2261467e-06 0.0029919031 0)
(7.2676311e-07 0.0029918489 0)
(6.3619961e-08 0.0029905219 0)
(-2.5460522e-07 0.0029891256 0)
(-3.6488373e-07 0.0029879703 0)
(-2.928172e-07 0.0029871495 0)
(-1.0779946e-07 0.0029867467 0)
(1.0160984e-07 0.0029867464 0)
(2.8633783e-07 0.0029871486 0)
(3.5822355e-07 0.002987969 0)
(2.4804704e-07 0.0029891237 0)
(-7.0135243e-08 0.0029905197 0)
(-7.3255733e-07 0.0029918465 0)
(-2.2304389e-06 0.0029919009 0)
(-4.2894921e-06 0.0029878417 0)
(-5.9052872e-06 0.0029749458 0)
(-5.5161065e-06 0.0029436304 0)
(5.3028565e-06 0.0034098326 0)
(5.2771947e-06 0.0034457416 0)
(2.5540147e-06 0.0034587719 0)
(3.3068068e-07 0.0034622816 0)
(-1.1487135e-06 0.0034615347 0)
(-1.4642509e-06 0.0034597695 0)
(-1.3784244e-06 0.0034580523 0)
(-1.1739727e-06 0.0034566705 0)
(-7.8321567e-07 0.0034556652 0)
(-2.6552695e-07 0.0034551988 0)
(2.593319e-07 0.0034551985 0)
(7.7686305e-07 0.0034556643 0)
(1.1675196e-06 0.0034566693 0)
(1.3721051e-06 0.0034580508 0)
(1.4582827e-06 0.0034597679 0)
(1.1437149e-06 0.0034615334 0)
(-3.3394869e-07 0.0034622808 0)
(-2.5550539e-06 0.0034587719 0)
(-5.2755283e-06 0.0034457426 0)
(-5.3006511e-06 0.0034098353 0)
(4.6339691e-06 0.0039139988 0)
(3.7725907e-06 0.0039543515 0)
(-5.6015856e-07 0.0039667629 0)
(-2.3744949e-06 0.0039690636 0)
(-3.4017546e-06 0.0039675217 0)
(-3.0874099e-06 0.0039654854 0)
(-2.5746159e-06 0.0039635051 0)
(-2.0545268e-06 0.0039619468 0)
(-1.3165288e-06 0.0039606848 0)
(-4.239335e-07 0.0039601832 0)
(4.1786261e-07 0.003960183 0)
(1.3104222e-06 0.0039606841 0)
(2.0484798e-06 0.0039619459 0)
(2.5688512e-06 0.0039635041 0)
(3.0823019e-06 0.0039654845 0)
(3.3978277e-06 0.0039675213 0)
(2.3723337e-06 0.0039690638 0)
(5.6023432e-07 0.0039667638 0)
(-3.7698947e-06 0.0039543531 0)
(-4.6313665e-06 0.0039140018 0)
(2.6033173e-06 0.0044649471 0)
(7.4438786e-07 0.004508048 0)
(-5.4797868e-06 0.0045189606 0)
(-6.1688654e-06 0.0045193145 0)
(-5.9862391e-06 0.004517149 0)
(-4.7564039e-06 0.0045149071 0)
(-3.7933719e-06 0.0045127032 0)
(-3.0183056e-06 0.004511073 0)
(-1.9169965e-06 0.0045093724 0)
(-5.592403e-07 0.0045088896 0)
(5.534665e-07 0.0045088894 0)
(1.9113008e-06 0.004509372 0)
(3.0128463e-06 0.0045110724 0)
(3.7883715e-06 0.0045127026 0)
(4.7522449e-06 0.0045149068 0)
(5.9833306e-06 0.004517149 0)
(6.1676519e-06 0.004519315 0)
(5.4805941e-06 0.0045189615 0)
(-7.4130956e-07 0.0045080492 0)
(-2.6007358e-06 0.0044649489 0)
(-2.8331534e-06 0.0050706016 0)
(-5.6853233e-06 0.0051132818 0)
(-1.2760601e-05 0.0051207304 0)
(-1.1150688e-05 0.0051178536 0)
(-8.8866747e-06 0.0051148886 0)
(-6.5768126e-06 0.0051124656 0)
(-4.995138e-06 0.0051101719 0)
(-4.1376882e-06 0.0051088557 0)
(-2.6813022e-06 0.0051075502 0)
(-6.4151163e-07 0.0051073124 0)
(6.3624311e-07 0.0051073123 0)
(2.676197e-06 0.00510755 0)
(4.1329364e-06 0.0051088555 0)
(4.9909381e-06 0.0051101718 0)
(6.5735046e-06 0.0051124657 0)
(8.8844999e-06 0.0051148889 0)
(1.1149924e-05 0.0051178541 0)
(1.2761519e-05 0.0051207308 0)
(5.6880986e-06 0.005113282 0)
(2.8353348e-06 0.005070602 0)
(-1.34237e-05 0.0057329063 0)
(-1.8273539e-05 0.0057695718 0)
(-2.4032997e-05 0.0057706949 0)
(-1.8386027e-05 0.0057643608 0)
(-1.2622492e-05 0.0057608823 0)
(-8.5977043e-06 0.0057587587 0)
(-5.9067924e-06 0.0057565954 0)
(-4.4244466e-06 0.0057560346 0)
(-2.7076498e-06 0.005755944 0)
(-5.3543428e-07 0.0057560999 0)
(5.3091975e-07 0.0057561 0)
(2.7033261e-06 0.0057559442 0)
(4.4204921e-06 0.0057560349 0)
(5.9033733e-06 0.0057565958 0)
(8.5950739e-06 0.0057587592 0)
(1.2620763e-05 0.0057608829 0)
(1.8385406e-05 0.0057643614 0)
(2.4033667e-05 0.0057706952 0)
(1.8275495e-05 0.0057695716 0)
(1.3425215e-05 0.0057329062 0)
(-3.1295295e-05 0.0064505358 0)
(-4.102085e-05 0.0064830466 0)
(-3.9425026e-05 0.0064819445 0)
(-2.6789614e-05 0.0064761279 0)
(-1.6699616e-05 0.0064744586 0)
(-1.0548674e-05 0.006473956 0)
(-6.5078184e-06 0.0064719561 0)
(-4.0560956e-06 0.0064724244 0)
(-2.2739929e-06 0.0064736537 0)
(-3.3455908e-07 0.0064741115 0)
(3.3106756e-07 0.0064741118 0)
(2.2706667e-06 0.0064736544 0)
(4.053056e-06 0.0064724254 0)
(6.5051712e-06 0.0064719574 0)
(1.0546609e-05 0.0064739576 0)
(1.6698163e-05 0.0064744602 0)
(2.6788913e-05 0.0064761294 0)
(3.9425217e-05 0.0064819458 0)
(4.1021953e-05 0.0064830476 0)
(3.1296251e-05 0.0064505373 0)
(-4.917205e-05 0.0071291824 0)
(-6.375956e-05 0.0071605535 0)
(-5.103464e-05 0.0071656854 0)
(-3.2410188e-05 0.007165742 0)
(-1.952496e-05 0.0071685706 0)
(-1.2356349e-05 0.007171466 0)
(-7.3517649e-06 0.0071762921 0)
(-3.4913898e-06 0.0071784205 0)
(-1.8500491e-06 0.007180925 0)
(-1.9123469e-07 0.0071816329 0)
(1.8892975e-07 0.0071816334 0)
(1.8478585e-06 0.0071809262 0)
(3.4893542e-06 0.0071784223 0)
(7.3499161e-06 0.0071762945 0)
(1.2354864e-05 0.0071714687 0)
(1.9523828e-05 0.0071685735 0)
(3.2409572e-05 0.007165745 0)
(5.103466e-05 0.0071656884 0)
(6.3760358e-05 0.0071605564 0)
(4.91728e-05 0.0071291865 0)
(-6.0034944e-05 0.0076829684 0)
(-7.4212891e-05 0.0077039765 0)
(-5.1441465e-05 0.0077155761 0)
(-3.2082099e-05 0.0077252189 0)
(-1.9249088e-05 0.0077356614 0)
(-7.926348e-06 0.0077424148 0)
(-2.8384488e-06 0.0077494417 0)
(-2.6389391e-06 0.0077529466 0)
(-1.6867064e-06 0.0077568916 0)
(-7.135775e-08 0.0077579282 0)
(7.0053424e-08 0.0077579286 0)
(1.6854717e-06 0.0077568928 0)
(2.6377898e-06 0.0077529484 0)
(2.8372756e-06 0.0077494439 0)
(7.9253224e-06 0.0077424172 0)
(1.9248293e-05 0.007735664 0)
(3.2081729e-05 0.0077252215 0)
(5.1441561e-05 0.0077155787 0)
(7.4213849e-05 0.0077039791 0)
(6.0035874e-05 0.0076829723 0)
(7.3815515e-05 0.0083091545 0)
(7.5178985e-05 0.0083358388 0)
(3.1701407e-05 0.0083459625 0)
(1.7472775e-05 0.0083646384 0)
(1.0702176e-05 0.008382879 0)
(8.2190914e-06 0.0083909756 0)
(6.2613622e-06 0.0083882862 0)
(4.7417416e-06 0.0083915853 0)
(2.3220448e-06 0.0083969738 0)
(1.1915106e-06 0.0083983395 0)
(-1.1932791e-06 0.0083983401 0)
(-2.3237975e-06 0.0083969756 0)
(-4.7434868e-06 0.008391588 0)
(-6.2631853e-06 0.0083882895 0)
(-8.2209032e-06 0.0083909794 0)
(-1.0703875e-05 0.0083828833 0)
(-1.7474045e-05 0.0083646429 0)
(-3.1702066e-05 0.0083459673 0)
(-7.5178545e-05 0.0083358443 0)
(-7.381445e-05 0.0083091643 0)
(0.00069075877 0.0078015437 0)
(0.00092630134 0.0084831371 0)
(0.00068099797 0.0085085182 0)
(0.00045715625 0.0085090942 0)
(0.00030238129 0.0085179062 0)
(0.0002031481 0.0085196278 0)
(0.00013535688 0.00852637 0)
(8.7093465e-05 0.0085284182 0)
(4.787665e-05 0.0085343148 0)
(1.5713509e-05 0.0085363049 0)
(-1.5724957e-05 0.0085363061 0)
(-4.788815e-05 0.0085343188 0)
(-8.7104997e-05 0.0085284245 0)
(-0.00013536844 0.0085263781 0)
(-0.00020315975 0.0085196371 0)
(-0.00030239183 0.0085179169 0)
(-0.00045716446 0.008509106 0)
(-0.00068100296 0.0085085313 0)
(-0.00092630174 0.0084831537 0)
(-0.00069075682 0.0078015755 0)
(0.00085314772 0.0061233692 0)
(0.0015886522 0.008086111 0)
(0.0015513423 0.0083871398 0)
(0.001276063 0.0083613892 0)
(0.00097583967 0.0082942531 0)
(0.00071739837 0.0082355269 0)
(0.00050624797 0.0082018043 0)
(0.00033448369 0.0081767908 0)
(0.00018968002 0.0081640234 0)
(6.2069755e-05 0.008157668 0)
(-6.2090559e-05 0.0081576694 0)
(-0.0001897011 0.0081640283 0)
(-0.0003345053 0.0081767985 0)
(-0.00050627013 0.008201814 0)
(-0.00071741921 0.0082355379 0)
(-0.00097585829 0.0082942639 0)
(-0.0012760778 0.0083613988 0)
(-0.0015513511 0.0083871516 0)
(-0.0015886548 0.0080861251 0)
(-0.00085314718 0.0061233892 0)
(0.00060705828 0.0048919824 0)
(0.0013875785 0.0076580702 0)
(0.0015765422 0.0084350255 0)
(0.0014534641 0.0085845876 0)
(0.0012104878 0.0085438203 0)
(0.00094509932 0.0084590034 0)
(0.00069577415 0.0083828097 0)
(0.00047315339 0.0083240228 0)
(0.00027348748 0.0082866115 0)
(9.0312438e-05 0.0082678418 0)
(-9.0327912e-05 0.0082678425 0)
(-0.00027350291 0.0082866142 0)
(-0.00047316973 0.0083240268 0)
(-0.00069579121 0.0083828146 0)
(-0.0009451158 0.0084590095 0)
(-0.0012105023 0.0085438249 0)
(-0.0014534741 0.0085845923 0)
(-0.0015765473 0.0084350319 0)
(-0.0013875787 0.0076580792 0)
(-0.00060705698 0.0048919966 0)
(0.00036154799 0.0040500201 0)
(0.0010088372 0.0071957897 0)
(0.0013041808 0.0083739432 0)
(0.001316362 0.0087507546 0)
(0.0011748126 0.0088072988 0)
(0.00096691678 0.0087489374 0)
(0.00074037737 0.0086652954 0)
(0.00051757438 0.0085901404 0)
(0.0003046164 0.0085372845 0)
(0.00010153647 0.0085099892 0)
(-0.00010154891 0.0085099897 0)
(-0.00030462939 0.0085372861 0)
(-0.00051758807 0.0085901427 0)
(-0.00074039145 0.0086652984 0)
(-0.00096693022 0.0087489414 0)
(-0.0011748244 0.0088073025 0)
(-0.0013163702 0.0087507594 0)
(-0.0013041851 0.0083739486 0)
(-0.001008838 0.0071957979 0)
(-0.00036154738 0.0040500305 0)
(0.00019807171 0.0035055457 0)
(0.00066726143 0.006751878 0)
(0.00097568005 0.0081934253 0)
(0.0010669116 0.0087707377 0)
(0.0010118755 0.0089450626 0)
(0.00087327503 0.0089439424 0)
(0.00069329519 0.0088805169 0)
(0.00049737876 0.0088079466 0)
(0.00029776551 0.0087513333 0)
(0.00010009637 0.008720947 0)
(-0.00010010619 0.008720947 0)
(-0.00029777596 0.0087513339 0)
(-0.00049738991 0.0088079478 0)
(-0.00069330691 0.0088805189 0)
(-0.00087328644 0.0089439454 0)
(-0.0010118858 0.0089450658 0)
(-0.0010669197 0.0087707419 0)
(-0.00097568464 0.0081934299 0)
(-0.00066726322 0.0067518847 0)
(-0.00019807216 0.0035055539 0)
(0.00010473034 0.0031759496 0)
(0.00041736164 0.006398065 0)
(0.00068668173 0.0079905107 0)
(0.00080788594 0.0087199403 0)
(0.00080954239 0.009004485 0)
(0.0007293033 0.0090712513 0)
(0.00059837926 0.0090438979 0)
(0.00043968099 0.0089879056 0)
(0.00026739404 0.0089374116 0)
(9.0536653e-05 0.008908864 0)
(-9.0544821e-05 0.0089088636 0)
(-0.00026740288 0.0089374114 0)
(-0.00043969029 0.0089879055 0)
(-0.000598389 0.0090438987 0)
(-0.00072931292 0.009071253 0)
(-0.00080955164 0.0090044876 0)
(-0.00080789419 0.0087199441 0)
(-0.00068668779 0.0079905156 0)
(-0.00041736547 0.0063980714 0)
(-0.0001047317 0.0031759573 0)
(5.5506336e-05 0.0029821476 0)
(0.00025393889 0.0061433812 0)
(0.00046467349 0.007811632 0)
(0.00058421322 0.0086456169 0)
(0.00061545604 0.0090206352 0)
(0.00057648425 0.0091527968 0)
(0.00048736127 0.0091673225 0)
(0.0003660281 0.0091356649 0)
(0.00022581695 0.0090977758 0)
(7.6924732e-05 0.0090745676 0)
(-7.693172e-05 0.0090745672 0)
(-0.0002258239 0.0090977747 0)
(-0.00036603574 0.0091356635 0)
(-0.00048736951 0.009167322 0)
(-0.00057649261 0.0091527973 0)
(-0.00061546429 0.0090206369 0)
(-0.00058422089 0.0086456203 0)
(-0.00046467981 0.0078116374 0)
(-0.00025394379 0.0061433886 0)
(-5.5508383e-05 0.0029821564 0)
(3.0060205e-05 0.0028684177 0)
(0.0001528623 0.0059688754 0)
(0.00030609268 0.0076688721 0)
(0.00040841757 0.008569029 0)
(0.00045031317 0.0090119194 0)
(0.00043704898 0.0092000048 0)
(0.00037970461 0.0092550801 0)
(0.00029092996 0.0092500522 0)
(0.00018184773 0.0092277295 0)
(6.2268935e-05 0.0092116664 0)
(-6.2275196e-05 0.0092116658 0)
(-0.00018185405 0.0092277276 0)
(-0.00029093671 0.0092500498 0)
(-0.00037971155 0.0092550786 0)
(-0.00043705623 0.0092000047 0)
(-0.00045032071 0.0090119211 0)
(-0.00040842448 0.0085690325 0)
(-0.00030609861 0.0076688784 0)
(-0.00015286734 0.0059688839 0)
(-3.0062438e-05 0.002868428 0)
(1.6650636e-05 0.0028013816 0)
(9.1632444e-05 0.0058532085 0)
(0.00019751082 0.0075622301 0)
(0.00027785922 0.0085012638 0)
(0.00031937143 0.0089917298 0)
(0.00032024543 0.0092239478 0)
(0.00028529946 0.0093143087 0)
(0.00022264895 0.0093344965 0)
(0.00014084618 0.0093279944 0)
(4.8449146e-05 0.0093194954 0)
(-4.845515e-05 0.0093194946 0)
(-0.00014085204 0.0093279924 0)
(-0.00022265471 0.0093344939 0)
(-0.00028530523 0.0093143069 0)
(-0.00032025137 0.0092239472 0)
(-0.00031937747 0.0089917318 0)
(-0.00027786479 0.0085012678 0)
(-0.00019751582 0.0075622368 0)
(-9.1636801e-05 0.0058532183 0)
(-1.6652471e-05 0.0028013931 0)
(9.3467771e-06 0.0027617712 0)
(5.4681166e-05 0.0057785502 0)
(0.00012514618 0.0074865179 0)
(0.00018456425 0.0084468003 0)
(0.00022040837 0.0089688799 0)
(0.00022781383 0.0092339404 0)
(0.00020775315 0.0093528691 0)
(0.00016492322 0.0093948796 0)
(0.00010549515 0.0094027816 0)
(3.6439523e-05 0.0094013618 0)
(-3.6445639e-05 0.009401361 0)
(-0.0001055009 0.0094027799 0)
(-0.00016492865 0.0093948773 0)
(-0.00020775826 0.0093528675 0)
(-0.00022781878 0.0092339402 0)
(-0.00022041318 0.0089688822 0)
(-0.00018456873 0.0084468046 0)
(-0.00012515012 0.007486525 0)
(-5.4684658e-05 0.0057785609 0)
(-9.3483145e-06 0.0027617837 0)
(5.2387984e-06 0.0027384283 0)
(3.2329166e-05 0.0057314157 0)
(7.7832834e-05 0.0074348072 0)
(0.00011980834 0.0084057641 0)
(0.00014827644 0.0089479095 0)
(0.00015770554 0.009236301 0)
(0.00014703305 0.0093771441 0)
(0.00011861761 0.0094368739 0)
(7.6673647e-05 0.0094569556 0)
(2.6588299e-05 0.0094616513 0)
(-2.6594611e-05 0.009461651 0)
(-7.6679399e-05 0.0094569543 0)
(-0.00011862303 0.0094368721 0)
(-0.00014703775 0.009377143 0)
(-0.00015770981 0.0092363015 0)
(-0.00014828036 0.0089479119 0)
(-0.00011981173 0.0084057686 0)
(-7.7835577e-05 0.0074348149 0)
(-3.2331662e-05 0.0057314266 0)
(-5.2400083e-06 0.0027384409 0)
(2.8732922e-06 0.0027248276 0)
(1.8777261e-05 0.0057022895 0)
(4.7370417e-05 0.0074005947 0)
(7.5925987e-05 0.0083762728 0)
(9.7241318e-05 0.0089306055 0)
(0.00010632168 0.0092349228 0)
(0.00010126709 0.0093918559 0)
(8.2976032e-05 0.0094652764 0)
(5.4177701e-05 0.0094951013 0)
(1.8860019e-05 0.0095047796 0)
(-1.8866268e-05 0.0095047794 0)
(-5.4183502e-05 0.0094951005 0)
(-8.2981175e-05 0.0094652754 0)
(-0.00010127165 0.0093918555 0)
(-0.00010632576 0.0092349236 0)
(-9.7244652e-05 0.0089306082 0)
(-7.5928385e-05 0.0083762777 0)
(-4.7371997e-05 0.0074006025 0)
(-1.8778371e-05 0.0057023 0)
(-2.8736759e-06 0.0027248392 0)
(1.4977622e-06 0.0027170909 0)
(1.0577545e-05 0.0056847311 0)
(2.804257e-05 0.0073786185 0)
(4.6823124e-05 0.0083558844 0)
(6.2066434e-05 0.0089172772 0)
(6.9762958e-05 0.0092320722 0)
(6.7874754e-05 0.0094003795 0)
(5.6477928e-05 0.0094839502 0)
(3.7244597e-05 0.0095212281 0)
(1.3016543e-05 0.0095347813 0)
(-1.3022943e-05 0.0095347812 0)
(-3.7250473e-05 0.0095212277 0)
(-5.6483386e-05 0.0094839501 0)
(-6.7879372e-05 0.0094003797 0)
(-6.9766638e-05 0.0092320736 0)
(-6.2069167e-05 0.0089172801 0)
(-4.6825196e-05 0.0083558896 0)
(-2.8043717e-05 0.0073786262 0)
(-1.0577765e-05 0.0056847407 0)
(-1.4976734e-06 0.0027171012 0)
(7.0266726e-07 0.0027128733 0)
(5.6610059e-06 0.0056744769 0)
(1.5980314e-05 0.0073649275 0)
(2.7931133e-05 0.0083422701 0)
(3.84164e-05 0.0089075239 0)
(4.4452438e-05 0.0092289652 0)
(4.4213833e-05 0.0094050384 0)
(3.7376572e-05 0.0094958667 0)
(2.4899677e-05 0.0095386315 0)
(8.7386166e-06 0.0095550823 0)
(-8.7447229e-06 0.0095550824 0)
(-2.4905309e-05 0.0095386314 0)
(-3.7381875e-05 0.0094958669 0)
(-4.4218345e-05 0.0094050393 0)
(-4.4455931e-05 0.0092289673 0)
(-3.8418819e-05 0.008907527 0)
(-2.7932658e-05 0.0083422754 0)
(-1.5981009e-05 0.0073649351 0)
(-5.6607635e-06 0.0056744858 0)
(-7.0226533e-07 0.0027128824 0)
(2.5274641e-07 0.0027107401 0)
(2.7657345e-06 0.0056687476 0)
(8.6056695e-06 0.0073566897 0)
(1.5947077e-05 0.0083334784 0)
(2.2908256e-05 0.0089006765 0)
(2.7388663e-05 0.0092261727 0)
(2.7908644e-05 0.0094073722 0)
(2.3998537e-05 0.0095032186 0)
(1.6161089e-05 0.0095498866 0)
(5.6977876e-06 0.0095684306 0)
(-5.7037567e-06 0.0095684306 0)
(-1.6166728e-05 0.0095498869 0)
(-2.4003633e-05 0.0095032193 0)
(-2.7913016e-05 0.0094073736 0)
(-2.7392482e-05 0.0092261753 0)
(-2.291085e-05 0.0089006804 0)
(-1.5948495e-05 0.0083334841 0)
(-8.606312e-06 0.0073566969 0)
(-2.7655309e-06 0.0056687561 0)
(-2.5237897e-07 0.0027107484 0)
(8.3362906e-09 0.0027098098 0)
(1.1110272e-06 0.0056657565 0)
(4.2190672e-06 0.0073519423 0)
(8.547378e-06 0.0083279958 0)
(1.3011246e-05 0.0088960407 0)
(1.6196837e-05 0.0092238993 0)
(1.6981281e-05 0.0094083671 0)
(1.4889857e-05 0.0095075719 0)
(1.0149957e-05 0.0095569288 0)
(3.5973593e-06 0.0095769367 0)
(-3.6028473e-06 0.0095769368 0)
(-1.0155093e-05 0.0095569293 0)
(-1.4894877e-05 0.0095075732 0)
(-1.6985455e-05 0.0094083688 0)
(-1.6200293e-05 0.0092239022 0)
(-1.3013893e-05 0.0088960454 0)
(-8.5490951e-06 0.0083280021 0)
(-4.2198931e-06 0.0073519498 0)
(-1.1108158e-06 0.0056657651 0)
(-8.0302709e-09 0.0027098177 0)
(-1.0838073e-07 0.0027095606 0)
(2.1391972e-07 0.0056643537 0)
(1.7074152e-06 0.0073493633 0)
(4.130744e-06 0.0083247097 0)
(6.8900643e-06 0.0088930078 0)
(9.0729934e-06 0.0092221617 0)
(9.8700808e-06 0.0094086348 0)
(8.8664651e-06 0.0095100143 0)
(6.1332176e-06 0.0095611654 0)
(2.1876558e-06 0.0095821658 0)
(-2.1927836e-06 0.0095821659 0)
(-6.1382809e-06 0.0095611659 0)
(-8.8713755e-06 0.0095100154 0)
(-9.8743538e-06 0.0094086368 0)
(-9.0766225e-06 0.009222165 0)
(-6.8930007e-06 0.0088930129 0)
(-4.1328902e-06 0.0083247164 0)
(-1.7087504e-06 0.0073493714 0)
(-2.139052e-07 0.0056643627 0)
(1.0872361e-07 0.0027095686 0)
(-1.4419846e-07 0.0027096539 0)
(-2.2188957e-07 0.0056638538 0)
(3.5245763e-07 0.0073480706 0)
(1.6139275e-06 0.0083228339 0)
(3.2512547e-06 0.0088910905 0)
(4.6978665e-06 0.0092208936 0)
(5.3943179e-06 0.0094085421 0)
(5.0085579e-06 0.0095112798 0)
(3.5318528e-06 0.0095635901 0)
(1.2700482e-06 0.0095852427 0)
(-1.2751453e-06 0.0095852429 0)
(-3.5366583e-06 0.0095635905 0)
(-5.0131882e-06 0.0095112812 0)
(-5.3982491e-06 0.0094085446 0)
(-4.701146e-06 0.0092208974 0)
(-3.2539649e-06 0.0088910958 0)
(-1.616158e-06 0.0083228409 0)
(-3.5387179e-07 0.0073480795 0)
(2.2159877e-07 0.0056638639 0)
(1.4425534e-07 0.0027096633 0)
(-1.3492313e-07 0.0027098736 0)
(-3.7991511e-07 0.0056638476 0)
(-2.966973e-07 0.0073475277 0)
(2.7861708e-07 0.0083218194 0)
(1.2021069e-06 0.0088899259 0)
(2.1314254e-06 0.0092200043 0)
(2.6895288e-06 0.0094083015 0)
(2.6296419e-06 0.0095118536 0)
(1.9072342e-06 0.0095648865 0)
(6.9382036e-07 0.0095869539 0)
(-6.9840388e-07 0.0095869542 0)
(-1.9115633e-06 0.0095648871 0)
(-2.6335938e-06 0.0095118551 0)
(-2.6934923e-06 0.0094083042 0)
(-2.1349319e-06 0.0092200082 0)
(-1.2049263e-06 0.0088899315 0)
(-2.8075693e-07 0.0083218269 0)
(2.9522743e-07 0.0073475373 0)
(3.7917869e-07 0.005663859 0)
(1.3473343e-07 0.0027098843 0)
(-1.0782264e-07 0.002710131 0)
(-3.808403e-07 0.0056640599 0)
(-5.223508e-07 0.0073474216 0)
(-3.3128025e-07 0.0083213427 0)
(1.4955129e-07 0.0088892556 0)
(7.2251279e-07 0.0092194151 0)
(1.1434994e-06 0.0094080416 0)
(1.2330846e-06 0.0095120578 0)
(9.3798783e-07 0.0095655231 0)
(3.47473e-07 0.0095878448 0)
(-3.5176227e-07 0.0095878451 0)
(-9.4190201e-07 0.009565524 0)
(-1.236733e-06 0.0095120593 0)
(-1.1471459e-06 0.0094080445 0)
(-7.2562179e-07 0.0092194193 0)
(-1.5202506e-07 0.0088892615 0)
(3.2947449e-07 0.0083213508 0)
(5.2133625e-07 0.0073474319 0)
(3.801907e-07 0.0056640723 0)
(1.0749681e-07 0.0027101429 0)
(-7.3135645e-08 0.0027103019 0)
(-2.9934026e-07 0.0056642767 0)
(-5.0365332e-07 0.0073474766 0)
(-5.0924996e-07 0.0083211449 0)
(-2.9437557e-07 0.0088888683 0)
(3.7693124e-08 0.0092190063 0)
(3.3462324e-07 0.0094077825 0)
(4.7138009e-07 0.0095120465 0)
(3.9678826e-07 0.0095657585 0)
(1.5223687e-07 0.009588229 0)
(-1.5583355e-07 0.0095882294 0)
(-4.0018627e-07 0.0095657595 0)
(-4.7479377e-07 0.0095120482 0)
(-3.3802793e-07 0.0094077854 0)
(-4.038492e-08 0.0092190104 0)
(2.9233227e-07 0.0088888742 0)
(5.0783216e-07 0.008321153 0)
(5.0303541e-07 0.0073474873 0)
(2.9896353e-07 0.0056642896 0)
(7.2960026e-08 0.0027103152 0)
(-2.8458953e-08 0.002709857 0)
(-1.7270745e-07 0.005663903 0)
(-3.5708345e-07 0.0073470884 0)
(-4.4495843e-07 0.0083206204 0)
(-3.814143e-07 0.0088882014 0)
(-2.089582e-07 0.0092182812 0)
(-1.8311015e-08 0.0094071076 0)
(1.0694609e-07 0.0095114956 0)
(1.2564576e-07 0.0095653412 0)
(5.2379374e-08 0.0095878954 0)
(-5.5858935e-08 0.0095878958 0)
(-1.2867317e-07 0.0095653422 0)
(-1.0975635e-07 0.0095114971 0)
(1.554632e-08 0.00940711 0)
(2.0652723e-07 0.0092182848 0)
(3.7966727e-07 0.0088882068 0)
(4.4405698e-07 0.0083206282 0)
(3.5664091e-07 0.007347099 0)
(1.7255569e-07 0.005663916 0)
(2.8485294e-08 0.0027098713 0)
(7.0931359e-10 0.002710636 0)
(-6.8628236e-08 0.0056647611 0)
(-2.0093003e-07 0.007347909 0)
(-2.9771476e-07 0.0083213133 0)
(-3.0135903e-07 0.0088887463 0)
(-2.2293402e-07 0.0092187322 0)
(-1.126487e-07 0.0094075458 0)
(-2.2801121e-08 0.0095119888 0)
(1.7469455e-08 0.0095659103 0)
(1.0979011e-08 0.0095885164 0)
(-1.3658489e-08 0.0095885169 0)
(-1.9835715e-08 0.0095659113 0)
(2.0166464e-08 0.0095119902 0)
(1.1039569e-07 0.009407548 0)
(2.2154346e-07 0.0092187348 0)
(3.0043026e-07 0.0088887514 0)
(2.9725091e-07 0.0083213206 0)
(2.00811e-07 0.0073479192 0)
(6.8938131e-08 0.0056647745 0)
(-3.3031998e-10 0.0027106514 0)
)
;

boundaryField
{
    Wall
    {
        type            fixedValue;
        value           uniform (0 0 0);
    }
    frontAndBack
    {
        type            empty;
    }
    atmosphere
    {
        type            pressureInletOutletVelocity;
        value           nonuniform List<vector> 
20
(
(7.0931359e-10 0.002710636 0)
(-6.8628236e-08 0.0056647611 0)
(-2.0093003e-07 0.007347909 0)
(-2.9771476e-07 0.0083213133 0)
(-3.0135903e-07 0.0088887463 0)
(-2.2293402e-07 0.0092187322 0)
(-1.126487e-07 0.0094075458 0)
(-2.2801121e-08 0.0095119888 0)
(1.7469455e-08 0.0095659103 0)
(1.0979011e-08 0.0095885164 0)
(-1.3658489e-08 0.0095885169 0)
(-1.9835715e-08 0.0095659113 0)
(2.0166464e-08 0.0095119902 0)
(1.1039569e-07 0.009407548 0)
(2.2154346e-07 0.0092187348 0)
(3.0043026e-07 0.0088887514 0)
(2.9725091e-07 0.0083213206 0)
(2.00811e-07 0.0073479192 0)
(6.8938131e-08 0.0056647745 0)
(-3.3031998e-10 0.0027106514 0)
)
;
    }
}


// ************************************************************************* //
