/*--------------------------------*- C++ -*----------------------------------*\
| =========                 |                                                 |
| \\      /  F ield         | OpenFOAM: The Open Source CFD Toolbox           |
|  \\    /   O peration     | Version:  3.0.1                                 |
|   \\  /    A nd           | Web:      www.OpenFOAM.org                      |
|    \\/     M anipulation  |                                                 |
\*---------------------------------------------------------------------------*/
FoamFile
{
    version     2.0;
    format      ascii;
    class       volScalarField;
    location    "25";
    object      wBA_g;
}
// * * * * * * * * * * * * * * * * * * * * * * * * * * * * * * * * * * * * * //

dimensions      [0 0 0 0 0 0 0];

internalField   nonuniform List<scalar> 
800
(
0.046634329
0.046637179
0.046637787
0.046637936
0.046638016
0.046638079
0.046638131
0.04663817
0.046638196
0.046638209
0.046638209
0.046638196
0.04663817
0.04663813
0.046638079
0.046638016
0.046637936
0.046637787
0.04663718
0.04663433
0.050305973
0.050271648
0.050263104
0.050261159
0.050260502
0.050260171
0.050259917
0.050259706
0.050259553
0.050259473
0.050259473
0.050259552
0.050259705
0.050259916
0.05026017
0.050260501
0.050261159
0.050263104
0.050271649
0.050305974
0.052193109
0.052158568
0.05217239
0.052169782
0.052168347
0.052167449
0.052166832
0.052166425
0.052166168
0.052166045
0.052166045
0.052166167
0.052166423
0.05216683
0.052167447
0.052168344
0.052169779
0.052172388
0.052158565
0.052193106
0.052523649
0.052513043
0.052548711
0.052546188
0.052544336
0.052543081
0.052542231
0.052541786
0.052541529
0.052541427
0.052541426
0.052541528
0.052541783
0.052542227
0.052543076
0.05254433
0.052546182
0.052548705
0.052513036
0.05252364
0.051626859
0.051662268
0.051703797
0.051720144
0.051717382
0.051715675
0.051714623
0.051714254
0.051714073
0.051714048
0.051714047
0.051714071
0.051714249
0.051714617
0.051715668
0.051717373
0.051720134
0.051703786
0.051662256
0.051626843
0.049904888
0.050008314
0.050033807
0.050073189
0.050067839
0.050065036
0.050063526
0.050063156
0.050063028
0.050063088
0.050063087
0.050063025
0.05006315
0.050063518
0.050065025
0.050067827
0.050073175
0.050033792
0.050008298
0.049904869
0.047771745
0.047954484
0.047951709
0.048001959
0.04799128
0.04798612
0.047983526
0.047982813
0.047982554
0.047982628
0.047982627
0.04798255
0.047982806
0.047983516
0.047986108
0.047991265
0.048001942
0.047951691
0.047954465
0.047771724
0.0456113
0.045837932
0.045830607
0.045872485
0.045853053
0.045843673
0.045838967
0.045837282
0.04583653
0.045836449
0.045836448
0.045836526
0.045837275
0.045838956
0.04584366
0.045853036
0.045872467
0.045830588
0.045837911
0.045611277
0.04369088
0.043939425
0.043928609
0.043942812
0.043953194
0.043937227
0.043928875
0.043925216
0.043923368
0.043922844
0.043922843
0.043923363
0.043925208
0.043928864
0.043937213
0.043953176
0.043942792
0.043928588
0.043939403
0.043690857
0.042053391
0.042422142
0.042368087
0.042337481
0.042391169
0.042427882
0.042413572
0.042406373
0.04240247
0.04240105
0.042401049
0.042402467
0.042406366
0.042413562
0.042427868
0.042391152
0.042337461
0.042368066
0.042422119
0.042053369
0.040573688
0.041151652
0.041105174
0.041013381
0.041169342
0.041269012
0.041244418
0.041231046
0.041223495
0.041220456
0.041220455
0.041223492
0.04123104
0.041244409
0.041268999
0.041169326
0.041013363
0.041105155
0.041151631
0.040573669
0.038899559
0.039820148
0.039880459
0.039697538
0.040110012
0.040229982
0.04019088
0.040168251
0.040152585
0.040146912
0.040146911
0.040152582
0.040168246
0.040190873
0.040229972
0.040109999
0.039697524
0.039880443
0.03982013
0.038899541
0.035859004
0.037459723
0.037790268
0.037580474
0.038083612
0.038180047
0.038125775
0.038086544
0.038311292
0.038294916
0.038294916
0.03831129
0.038086541
0.038125769
0.03818004
0.038083601
0.037580462
0.037790254
0.037459707
0.035858988
0.02717173
0.03026174
0.031320958
0.031740985
0.032179534
0.032257935
0.032215423
0.032182876
0.032496572
0.032483476
0.032483476
0.032496571
0.032182873
0.032215419
0.03225793
0.032179528
0.031740977
0.031320949
0.030261729
0.027171719
0.014102235
0.016185297
0.016984366
0.017284657
0.01764989
0.017737484
0.017722797
0.017715389
0.017950135
0.017946805
0.017946805
0.017950134
0.017715389
0.017722795
0.017737482
0.017649886
0.017284653
0.016984361
0.01618529
0.014102229
0.0076582273
0.0087881591
0.0092367389
0.0093686058
0.0096204307
0.0096923596
0.0096961736
0.0096984562
0.0098306527
0.0098309758
0.0098309759
0.0098306529
0.0096984561
0.0096961731
0.0096923586
0.0096204289
0.0093686034
0.0092367362
0.0087881559
0.0076582254
0.0041312272
0.0047870274
0.0050718851
0.0051479038
0.0053052466
0.0053573444
0.0053661145
0.0053706911
0.0054328231
0.0054340604
0.0054340605
0.0054328235
0.0053706914
0.0053661147
0.0053573443
0.0053052462
0.005147903
0.0050718843
0.0047870268
0.0041312286
0.0020268323
0.0024915563
0.0027035101
0.0027692596
0.0028540036
0.002884526
0.0028905877
0.0028921578
0.0029150218
0.0029154665
0.0029154666
0.0029150221
0.002892158
0.0028905879
0.002884526
0.0028540034
0.0027692592
0.0027035098
0.0024915565
0.0020268345
0.00081777238
0.0012473046
0.0014364421
0.0015029444
0.0015468264
0.0015591293
0.0015569572
0.0015530639
0.0015573549
0.0015560145
0.0015560145
0.0015573551
0.001553064
0.0015569573
0.0015591292
0.0015468261
0.0015029439
0.0014364417
0.0012473047
0.00081777405
0.00025417763
0.0005904392
0.00075915984
0.00082814221
0.0008574976
0.00086118339
0.00085418763
0.00084653255
0.00084318957
0.00084041754
0.00084041751
0.00084318957
0.00084653243
0.00085418748
0.00086118316
0.00085749718
0.00082814169
0.00075915951
0.00059043928
0.00025417836
6.0990515e-05
0.00026338318
0.00039529747
0.00045863889
0.00048323006
0.00048533403
0.00047812138
0.00046999528
0.00046458892
0.00046142157
0.00046142153
0.00046458883
0.00046999509
0.00047812117
0.00048533376
0.00048322968
0.00045863849
0.00039529719
0.00026338318
6.0990729e-05
1.1783366e-05
0.00011072727
0.00020162972
0.00025287521
0.00027399977
0.00027677279
0.00027147523
0.00026481193
0.00025981148
0.00025700824
0.00025700819
0.00025981135
0.00026481173
0.00027147501
0.00027677254
0.00027399948
0.00025287493
0.00020162952
0.00011072725
1.1783411e-05
1.9366465e-06
4.3897541e-05
0.00010033295
0.00013777869
0.00015484994
0.00015821204
0.00015505237
0.00015035446
0.00014655673
0.00014441963
0.00014441958
0.00014655661
0.00015035429
0.00015505218
0.00015821185
0.00015484975
0.00013777851
0.00010033283
4.3897527e-05
1.9366544e-06
2.8422889e-07
1.646053e-05
4.8542786e-05
7.3750355e-05
8.6556407e-05
8.9893416e-05
8.8339678e-05
8.5360732e-05
8.2786802e-05
8.1314697e-05
8.1314654e-05
8.2786704e-05
8.5360595e-05
8.8339539e-05
8.989328e-05
8.6556282e-05
7.3750255e-05
4.8542728e-05
1.6460524e-05
2.8423016e-07
3.8571074e-08
5.8669764e-06
2.2777096e-05
3.861109e-05
4.7573552e-05
5.0426969e-05
4.9852205e-05
4.8118783e-05
4.6511058e-05
4.5571946e-05
4.5571914e-05
4.6510986e-05
4.8118682e-05
4.9852107e-05
5.0426881e-05
4.7573479e-05
3.8611039e-05
2.2777072e-05
5.8669758e-06
3.8571276e-08
4.9500882e-09
1.9982194e-06
1.034884e-05
1.9707373e-05
2.5601118e-05
2.7788116e-05
2.7712054e-05
2.67795e-05
2.5839793e-05
2.5277215e-05
2.5277194e-05
2.5839742e-05
2.677943e-05
2.7711988e-05
2.7788062e-05
2.5601079e-05
1.970735e-05
1.0348832e-05
1.9982203e-06
4.9501203e-09
6.0919292e-10
6.532953e-07
4.5500846e-06
9.7857463e-06
1.3449524e-05
1.4988824e-05
1.5112941e-05
1.4649582e-05
1.4131514e-05
1.3812398e-05
1.3812384e-05
1.4131481e-05
1.4649536e-05
1.5112899e-05
1.4988792e-05
1.3449504e-05
9.7857381e-06
4.5500836e-06
6.5329617e-07
6.0919781e-10
7.250462e-11
2.0575764e-07
1.9359079e-06
4.7214421e-06
6.8848173e-06
7.8948646e-06
8.0628941e-06
7.852386e-06
7.5818614e-06
7.4095523e-06
7.4095431e-06
7.5818407e-06
7.8523572e-06
8.0628689e-06
7.8948464e-06
6.8848076e-06
4.7214399e-06
1.9359086e-06
2.057581e-07
7.2505329e-11
8.388987e-12
6.2594098e-08
7.9739223e-07
2.2122163e-06
3.4303592e-06
4.0544259e-06
4.2001929e-06
4.1149791e-06
3.9809349e-06
3.8920618e-06
3.8920563e-06
3.9809225e-06
4.1149618e-06
4.2001781e-06
4.0544158e-06
3.4303545e-06
2.2122161e-06
7.9739299e-07
6.2594299e-08
8.3890813e-12
9.4669196e-13
1.8428727e-08
3.1817423e-07
1.0064941e-06
1.6627131e-06
2.0283347e-06
2.1338543e-06
2.1051482e-06
2.0421262e-06
1.9982397e-06
1.9982365e-06
2.042119e-06
2.1051382e-06
2.1338459e-06
2.0283292e-06
1.662711e-06
1.0064945e-06
3.1817474e-07
1.8428804e-08
9.4670362e-13
1.0441827e-13
5.2588009e-09
1.2308146e-07
4.4475068e-07
7.839059e-07
9.8807962e-07
1.0565318e-06
1.0503896e-06
1.022332e-06
1.0015539e-06
1.0015521e-06
1.022328e-06
1.050384e-06
1.0565272e-06
9.8807678e-07
7.839049e-07
4.4475103e-07
1.2308174e-07
5.2588276e-09
1.0441964e-13
1.1272947e-14
1.4561694e-09
4.6195392e-08
1.9094884e-07
3.5952688e-07
4.6864182e-07
5.0966961e-07
5.1092291e-07
4.9915154e-07
4.8971345e-07
4.8971248e-07
4.9914937e-07
5.109199e-07
5.0966718e-07
4.6864038e-07
3.5952643e-07
1.9094908e-07
4.6195529e-08
1.4561782e-09
1.1273092e-14
1.2379974e-15
3.9163555e-10
1.6835497e-08
7.9695631e-08
1.6045222e-07
2.1643923e-07
2.3953188e-07
2.4222219e-07
2.3761232e-07
2.3349972e-07
2.3349921e-07
2.3761119e-07
2.4222063e-07
2.3953063e-07
2.1643853e-07
1.6045203e-07
7.9695774e-08
1.683556e-08
3.9163834e-10
1.239327e-15
6.3530119e-16
1.0238782e-10
5.9622399e-09
3.2353257e-08
6.9707605e-08
9.7361933e-08
1.0968968e-07
1.1192755e-07
1.1027408e-07
1.0855673e-07
1.0855647e-07
1.1027351e-07
1.1192677e-07
1.0968906e-07
9.7361595e-08
6.9707528e-08
3.2353332e-08
5.9622675e-09
1.0238867e-10
6.3605977e-16
4.1232988e-16
2.6054513e-11
2.0533863e-09
1.2782906e-08
2.9494191e-08
4.267314e-08
4.8956453e-08
5.0419934e-08
4.9899301e-08
4.9213609e-08
4.9213486e-08
4.9899025e-08
5.0419553e-08
4.8956154e-08
4.2672984e-08
2.9494161e-08
1.2782943e-08
2.0533977e-09
2.6054769e-11
4.1264716e-16
1.402064e-16
6.465936e-12
6.8825369e-10
4.9184988e-09
1.2159982e-08
1.823109e-08
2.1303259e-08
2.2147943e-08
2.2020883e-08
2.1760179e-08
2.1760121e-08
2.2020753e-08
2.2147763e-08
2.1303119e-08
1.8231019e-08
1.215997e-08
4.9185162e-09
6.8825806e-10
6.4659862e-12
1.4018325e-16
3.4907218e-17
1.5647967e-12
2.2468775e-10
1.8441661e-09
4.8875727e-09
7.5955566e-09
9.0416541e-09
9.4904094e-09
9.4805575e-09
9.3868455e-09
9.3868192e-09
9.4804976e-09
9.490327e-09
9.0415905e-09
7.5955256e-09
4.8875683e-09
1.8441735e-09
2.2468934e-10
1.564808e-12
3.4893254e-17
7.07512e-18
3.691713e-13
7.148497e-11
6.7422204e-10
1.9162391e-09
3.0874443e-09
3.7445847e-09
3.9685453e-09
3.9834183e-09
3.9519829e-09
3.9519712e-09
3.9833916e-09
3.9685086e-09
3.7445565e-09
3.0874309e-09
1.9162372e-09
6.7422506e-10
7.1485537e-11
3.6917348e-13
7.0739595e-18
1.1400315e-18
8.4866033e-14
2.2177318e-11
2.4048705e-10
7.332206e-10
1.225016e-09
1.5139418e-09
1.6201639e-09
1.6341057e-09
1.6245158e-09
1.6245107e-09
1.634094e-09
1.6201479e-09
1.5139295e-09
1.2250102e-09
7.3321974e-10
2.404882e-10
2.2177511e-11
8.486636e-14
1.1408421e-18
1.4200106e-19
1.9007943e-14
6.7131276e-12
8.3736406e-11
2.7395167e-10
4.7467724e-10
5.978123e-10
6.4604151e-10
6.5477842e-10
6.5227619e-10
6.5227407e-10
6.5477349e-10
6.4603469e-10
5.9780704e-10
4.7467479e-10
2.7395127e-10
8.3736821e-11
6.71319e-12
1.9007986e-14
1.4252968e-19
)
;

boundaryField
{
    Wall
    {
        type            zeroGradient;
    }
    frontAndBack
    {
        type            empty;
    }
    atmosphere
    {
        type            zeroGradient;
    }
}


// ************************************************************************* //
