/*--------------------------------*- C++ -*----------------------------------*\
| =========                 |                                                 |
| \\      /  F ield         | OpenFOAM: The Open Source CFD Toolbox           |
|  \\    /   O peration     | Version:  3.0.1                                 |
|   \\  /    A nd           | Web:      www.OpenFOAM.org                      |
|    \\/     M anipulation  |                                                 |
\*---------------------------------------------------------------------------*/
FoamFile
{
    version     2.0;
    format      ascii;
    class       volScalarField;
    location    "25";
    object      wBA_l_0;
}
// * * * * * * * * * * * * * * * * * * * * * * * * * * * * * * * * * * * * * //

dimensions      [0 0 0 0 0 0 0];

internalField   nonuniform List<scalar> 
800
(
0.050809537
0.050808002
0.050807792
0.050807778
0.05080778
0.050807779
0.050807774
0.05080777
0.050807766
0.050807764
0.050807764
0.050807766
0.050807769
0.050807774
0.050807778
0.050807779
0.050807778
0.050807792
0.050808002
0.050809538
0.051558767
0.051534209
0.051529342
0.051528469
0.051528415
0.051528439
0.051528415
0.051528358
0.051528302
0.051528269
0.051528268
0.051528301
0.051528358
0.051528414
0.051528438
0.051528415
0.051528469
0.051529342
0.05153421
0.051558768
0.051535788
0.051514612
0.051510217
0.051509363
0.051509043
0.051508776
0.051508513
0.051508288
0.051508126
0.051508044
0.051508044
0.051508126
0.051508287
0.051508513
0.051508776
0.051509043
0.051509363
0.051510217
0.051514612
0.051535788
0.050844251
0.050843659
0.050843425
0.050843178
0.050842562
0.050841852
0.050841226
0.050840758
0.050840452
0.050840303
0.050840303
0.050840451
0.050840758
0.050841226
0.050841851
0.050842561
0.050843177
0.050843424
0.050843658
0.050844249
0.049602647
0.04963679
0.049642685
0.049643089
0.049642041
0.049640749
0.049639676
0.049638921
0.049638444
0.049638221
0.049638221
0.049638444
0.04963892
0.049639675
0.049640747
0.049642039
0.049643087
0.049642682
0.049636786
0.049602642
0.047932555
0.048011827
0.048024976
0.048026065
0.048024383
0.048022397
0.048020828
0.048019764
0.048019116
0.048018819
0.048018819
0.048019116
0.048019763
0.048020826
0.048022395
0.04802438
0.048026061
0.048024972
0.048011822
0.04793255
0.045945831
0.046077973
0.046099948
0.046101818
0.046099282
0.046096518
0.046094445
0.046093089
0.046092288
0.046091928
0.046091928
0.046092287
0.046093087
0.046094442
0.046096515
0.046099278
0.046101814
0.046099943
0.046077968
0.045945826
0.043736454
0.043927751
0.04396102
0.043964015
0.043960647
0.043957072
0.043954547
0.04395296
0.04395205
0.043951647
0.043951646
0.043952049
0.043952959
0.043954545
0.043957069
0.043960644
0.043964011
0.043961015
0.043927746
0.043736451
0.041375323
0.041631674
0.041679928
0.041685004
0.041681015
0.041676902
0.041674072
0.041672371
0.041671405
0.041670983
0.041670983
0.041671404
0.041672369
0.04167407
0.041676899
0.041681012
0.041685001
0.041679924
0.04163167
0.041375321
0.038906179
0.039234656
0.039303366
0.039312491
0.03930879
0.039304501
0.039301666
0.039299996
0.039299015
0.039298595
0.039298595
0.039299014
0.039299994
0.039301664
0.039304499
0.039308788
0.039312488
0.039303363
0.039234654
0.038906178
0.036343308
0.036754353
0.036851854
0.036868887
0.036867102
0.036863477
0.036860864
0.036859332
0.036858286
0.036857865
0.036857865
0.036858285
0.03685933
0.036860862
0.036863476
0.0368671
0.036868885
0.036851852
0.036754351
0.036343308
0.033668961
0.034178024
0.034317899
0.034350184
0.034354205
0.03435224
0.034349964
0.034348596
0.034346803
0.034346362
0.034346361
0.034346802
0.034348595
0.034349962
0.034352238
0.034354204
0.034350182
0.034317898
0.034178023
0.033668961
0.030826776
0.03145683
0.031663389
0.031722521
0.031736808
0.031737588
0.031735571
0.031734245
0.03173305
0.03173253
0.03173253
0.031733049
0.031734243
0.031735569
0.031737587
0.031736807
0.031722521
0.031663388
0.031456829
0.030826776
0.027712981
0.028489864
0.028800237
0.028907915
0.02893989
0.028945036
0.028942848
0.028941046
0.028939548
0.028938812
0.028938811
0.028939546
0.028941044
0.028942847
0.028945035
0.02893989
0.028907914
0.028800236
0.028489864
0.027712982
0.024193231
0.025178049
0.02566017
0.025854812
0.025919304
0.025931505
0.025925203
0.025921071
0.025918506
0.025916837
0.025916837
0.025918504
0.025921068
0.025925202
0.025931504
0.025919304
0.025854812
0.025660169
0.02517805
0.024193235
0.020196126
0.021388048
0.022136844
0.022471798
0.022587452
0.022607913
0.022605094
0.022593423
0.022586331
0.022581671
0.02258167
0.02258633
0.02259342
0.022605092
0.022607913
0.022587451
0.022471798
0.022136845
0.021388051
0.020196134
0.01541662
0.017136281
0.018324547
0.018922034
0.019148612
0.01919262
0.019175536
0.019148685
0.019131553
0.019120562
0.01912056
0.019131552
0.019148682
0.019175535
0.01919262
0.019148612
0.018922036
0.018324549
0.017136287
0.015416634
0.0099554957
0.012373552
0.014044611
0.014983857
0.015381988
0.015470379
0.015441135
0.015385591
0.015346103
0.015322947
0.015322946
0.015346101
0.015385587
0.015441133
0.015470378
0.015381988
0.014983857
0.014044612
0.012373558
0.0099555118
0.0049148431
0.0081607039
0.010180204
0.011361268
0.011900751
0.012030727
0.011978674
0.01188392
0.01181102
0.011770014
0.011770012
0.011811017
0.011883915
0.011978671
0.012030725
0.011900749
0.011361266
0.010180204
0.0081607084
0.0049148557
0.0017517737
0.0049524381
0.0070685006
0.0083500941
0.0089620589
0.009118021
0.0090496055
0.0089222623
0.0088190285
0.0087611767
0.0087611743
0.0088190242
0.0089222561
0.0090496012
0.0091180177
0.008962056
0.0083500916
0.0070684999
0.0049524408
0.0017517796
0.00045845531
0.0027765323
0.0047019556
0.0059461205
0.0065670035
0.0067374273
0.0066697442
0.0065317371
0.0064145449
0.0063481325
0.0063481298
0.0064145397
0.0065317302
0.0066697387
0.0067374229
0.0065669998
0.0059461175
0.004701954
0.0027765334
0.00045845708
9.3491803e-05
0.0014322906
0.0029874429
0.0040890219
0.0046680708
0.0048420805
0.0047894728
0.0046627396
0.0045501628
0.0044853756
0.0044853728
0.0045501573
0.0046627323
0.0047894667
0.0048420755
0.0046680667
0.0040890189
0.0029874412
0.0014322908
9.3492183e-05
1.5923929e-05
0.00067773566
0.0018062442
0.0027057575
0.0032085766
0.0033751505
0.0033436102
0.0032414732
0.003146333
0.0030906643
0.0030906617
0.0031463277
0.0032414662
0.0033436042
0.0033751457
0.0032085728
0.0027057549
0.0018062427
0.00067773563
1.5923996e-05
2.4009763e-06
0.00029528813
0.0010365855
0.0017181388
0.0021271573
0.002276521
0.0022646098
0.0021908421
0.0021182842
0.0020750708
0.0020750685
0.0021182795
0.0021908359
0.0022646046
0.0022765168
0.0021271541
0.0017181368
0.0010365845
0.00029528808
2.4009871e-06
3.3375649e-07
0.00011948342
0.00056436894
0.0010454527
0.0013580979
0.0014834973
0.0014856992
0.0014374348
0.0013866747
0.0013558426
0.0013558408
0.0013866709
0.0014374296
0.0014856948
0.0014834938
0.0013580954
0.0010454513
0.00056436836
0.00011948343
3.3375822e-07
4.3883071e-08
4.5330232e-05
0.00029188968
0.00060943364
0.00083450647
0.00093318199
0.00094313066
0.00091444475
0.00088152623
0.00086106773
0.00086106636
0.0008815233
0.00091444076
0.00094312723
0.00093317935
0.00083450468
0.00060943282
0.0002918894
4.5330251e-05
4.3883346e-08
5.5410045e-09
1.6260312e-05
0.0001437567
0.0003405721
0.00049353747
0.00056648336
0.00057898479
0.00056358816
0.00054366739
0.00053094008
0.00053093909
0.00054366526
0.00056358522
0.00057898226
0.00056648146
0.00049353623
0.00034057164
0.00014375658
1.6260328e-05
5.541047e-09
6.7771117e-10
5.5514869e-06
6.7614403e-05
0.00018267327
0.00028108267
0.00033190135
0.00034366421
0.00033635072
0.00032505938
0.0003175946
0.00031759392
0.00032505791
0.00033634866
0.00034366244
0.00033190004
0.00028108186
0.00018267302
6.7614364e-05
5.5514953e-06
6.7771739e-10
8.0664762e-11
1.8130165e-06
3.0457527e-05
9.4181471e-05
0.00015428746
0.00018776634
0.00019725055
0.00019434249
0.00018834006
0.00018419661
0.00018419617
0.00018833909
0.00019434112
0.00019724937
0.00018776549
0.00015428694
9.4181336e-05
3.0457517e-05
1.8130202e-06
8.0665602e-11
9.3652576e-12
5.6849564e-07
1.3174437e-05
4.6747423e-05
8.17027e-05
0.00010263139
0.00010951085
0.00010872048
0.00010573171
0.0001035499
0.00010354963
0.00010573109
0.00010871962
0.0001095101
0.00010263085
8.1702384e-05
4.6747352e-05
1.3174436e-05
5.684971e-07
9.3653643e-12
1.0616996e-12
1.7163653e-07
5.4846883e-06
2.2372535e-05
4.1783493e-05
5.4238891e-05
5.8837554e-05
5.8901779e-05
5.7514494e-05
5.6423342e-05
5.642318e-05
5.7514122e-05
5.8901257e-05
5.8837099e-05
5.4238569e-05
4.1783307e-05
2.2372498e-05
5.4846891e-06
1.7163705e-07
1.0617126e-12
1.177016e-13
5.000351e-08
2.2020147e-06
1.0338616e-05
2.0658067e-05
2.7736252e-05
3.0609578e-05
3.0916123e-05
3.0322258e-05
2.9804017e-05
2.9803924e-05
3.0322043e-05
3.0915822e-05
3.0609313e-05
2.7736066e-05
2.0657963e-05
1.0338597e-05
2.2020156e-06
5.0003686e-08
1.1770082e-13
1.5973856e-14
1.408207e-08
8.5405422e-07
4.619281e-06
9.8839629e-06
1.3735264e-05
1.5429008e-05
1.5728612e-05
1.5499492e-05
1.526612e-05
1.5266068e-05
1.5499372e-05
1.5728445e-05
1.542886e-05
1.3735162e-05
9.8839073e-06
4.6192719e-06
8.5405487e-07
1.4082128e-08
1.602853e-14
2.6671094e-14
3.8393477e-09
3.2047882e-07
1.9979085e-06
4.5808583e-06
6.5920665e-06
7.5401915e-06
7.7603542e-06
7.6850121e-06
7.5857492e-06
7.5857221e-06
7.6849478e-06
7.7602645e-06
7.5401116e-06
6.5920121e-06
4.5808297e-06
1.9979042e-06
3.2047917e-07
3.8393661e-09
2.6700289e-14
1.763933e-14
1.0158935e-09
1.1650151e-07
8.3741864e-07
2.0583986e-06
3.0685626e-06
3.5750309e-06
3.715449e-06
3.6980098e-06
3.6584228e-06
3.6584091e-06
3.6979764e-06
3.7154027e-06
3.5749895e-06
3.0685347e-06
2.0583844e-06
8.3741663e-07
1.1650169e-07
1.0158992e-09
1.7653049e-14
5.94177e-15
2.6162389e-10
4.1080459e-08
3.4048975e-07
8.9752264e-07
1.3864285e-06
1.6455715e-06
1.7271862e-06
1.7279355e-06
1.7133394e-06
1.7133326e-06
1.7279189e-06
1.7271632e-06
1.6455507e-06
1.3864147e-06
8.9751586e-07
3.4048883e-07
4.1080523e-08
2.6162416e-10
5.9410972e-15
1.4831007e-15
6.5571069e-11
1.4066674e-08
1.3442085e-07
3.800427e-07
6.0843462e-07
7.3582128e-07
7.8005377e-07
7.844555e-07
7.7962268e-07
7.7961948e-07
7.8444743e-07
7.8004269e-07
7.3581123e-07
6.0842796e-07
3.8003955e-07
1.3442042e-07
1.4066694e-08
6.5570907e-11
1.4828457e-15
3.0194493e-16
1.5987998e-11
4.6812903e-09
5.1569785e-08
1.5639136e-07
2.5952031e-07
3.1982728e-07
3.4246968e-07
3.4620639e-07
3.4487082e-07
3.4486934e-07
3.4620261e-07
3.4246449e-07
3.1982255e-07
2.5951719e-07
1.5638992e-07
5.1569585e-08
4.6812961e-09
1.5987866e-11
3.0196478e-16
4.848694e-17
3.7893685e-12
1.5153064e-09
1.9240334e-08
6.258702e-08
1.0765766e-07
1.3520823e-07
1.4624423e-07
1.4861674e-07
1.4838686e-07
1.483862e-07
1.4861501e-07
1.4624188e-07
1.3520607e-07
1.0765624e-07
6.2586382e-08
1.9240242e-08
1.5153077e-09
3.7893126e-12
4.8534166e-17
5.8217034e-18
8.7281869e-13
4.7744695e-10
6.9858541e-09
2.4373723e-08
4.3460354e-08
5.562643e-08
6.0775932e-08
6.2086688e-08
6.2134255e-08
6.2133967e-08
6.2085924e-08
6.0774894e-08
5.5625467e-08
4.3459718e-08
2.4373447e-08
6.9858132e-09
4.77447e-10
8.7279838e-13
5.8457847e-18
)
;

boundaryField
{
    Wall
    {
        type            zeroGradient;
    }
    frontAndBack
    {
        type            empty;
    }
    atmosphere
    {
        type            zeroGradient;
    }
}


// ************************************************************************* //
