/*--------------------------------*- C++ -*----------------------------------*\
| =========                 |                                                 |
| \\      /  F ield         | OpenFOAM: The Open Source CFD Toolbox           |
|  \\    /   O peration     | Version:  3.0.1                                 |
|   \\  /    A nd           | Web:      www.OpenFOAM.org                      |
|    \\/     M anipulation  |                                                 |
\*---------------------------------------------------------------------------*/
FoamFile
{
    version     2.0;
    format      ascii;
    class       volScalarField;
    location    "25";
    object      wBA_l;
}
// * * * * * * * * * * * * * * * * * * * * * * * * * * * * * * * * * * * * * //

dimensions      [0 0 0 0 0 0 0];

internalField   nonuniform List<scalar> 
800
(
0.05076148
0.050759933
0.050759721
0.050759706
0.050759708
0.050759707
0.050759703
0.050759698
0.050759694
0.050759692
0.050759692
0.050759694
0.050759697
0.050759702
0.050759706
0.050759707
0.050759706
0.050759721
0.050759933
0.050761481
0.051511283
0.051486628
0.051481732
0.051480852
0.051480798
0.051480823
0.051480801
0.051480745
0.051480689
0.051480657
0.051480657
0.051480689
0.051480744
0.0514808
0.051480822
0.051480798
0.051480852
0.051481732
0.051486629
0.051511285
0.051495234
0.051473793
0.051469324
0.051468457
0.051468139
0.051467876
0.051467616
0.051467392
0.051467231
0.051467149
0.051467149
0.051467231
0.051467392
0.051467616
0.051467876
0.051468139
0.051468457
0.051469324
0.051473793
0.051495234
0.050815239
0.050814169
0.050813825
0.050813568
0.05081296
0.050812257
0.050811636
0.050811169
0.050810862
0.050810714
0.050810714
0.050810862
0.050811168
0.050811635
0.050812256
0.050812959
0.050813567
0.050813823
0.050814168
0.050815237
0.049588093
0.049621522
0.049627287
0.049627694
0.049626662
0.049625381
0.049624312
0.049623557
0.04962308
0.049622856
0.049622856
0.049623079
0.049623556
0.049624311
0.049625379
0.04962666
0.049627691
0.049627285
0.049621519
0.049588088
0.047933971
0.048012294
0.048025303
0.048026408
0.048024751
0.048022779
0.048021213
0.048020148
0.048019497
0.048019198
0.048019198
0.048019496
0.048020147
0.048021211
0.048022777
0.048024748
0.048026404
0.048025299
0.048012289
0.047933965
0.045963777
0.046094716
0.046116531
0.046118424
0.04611592
0.04611317
0.046111097
0.046109735
0.046108929
0.046108566
0.046108566
0.046108928
0.046109734
0.046111095
0.046113167
0.046115917
0.046118421
0.046116526
0.04609471
0.045963772
0.043771046
0.04396084
0.04399389
0.043996898
0.043993563
0.043989997
0.043987465
0.043985867
0.043984945
0.043984536
0.043984536
0.043984944
0.043985865
0.043987463
0.043989994
0.04399356
0.043996895
0.043993886
0.043960835
0.043771042
0.041426734
0.041681205
0.041729107
0.04173415
0.041730174
0.041726059
0.04172321
0.041721487
0.041720504
0.041720073
0.041720073
0.041720503
0.041721485
0.041723208
0.041726056
0.041730171
0.041734147
0.041729103
0.041681201
0.041426731
0.038975157
0.039301218
0.039369325
0.039378309
0.039374576
0.039370256
0.03936738
0.039365675
0.039364667
0.039364235
0.039364235
0.039364666
0.039365673
0.039367378
0.039370254
0.039374574
0.039378306
0.039369321
0.039301215
0.038975156
0.036431711
0.036839545
0.036935989
0.036952647
0.036950737
0.036947024
0.036944344
0.036942761
0.036941681
0.036941245
0.036941245
0.03694168
0.036942759
0.036944342
0.036947022
0.036950735
0.036952645
0.036935987
0.036839543
0.03643171
0.033780332
0.034285067
0.034422996
0.034454454
0.034458138
0.03445601
0.034453638
0.034452206
0.034450419
0.034449964
0.034449963
0.034450418
0.034452204
0.034453636
0.034456008
0.034458136
0.034454453
0.034422993
0.034285065
0.033780332
0.030967458
0.031591474
0.031794408
0.031851892
0.031865536
0.031866058
0.031863916
0.031862528
0.031861309
0.031860786
0.031860785
0.031861308
0.031862526
0.031863914
0.031866056
0.031865535
0.031851891
0.031794406
0.031591472
0.030967458
0.027888756
0.028659082
0.028963716
0.029068528
0.029099354
0.029104144
0.029101844
0.029100033
0.029098639
0.029097924
0.029097923
0.029098637
0.02910003
0.029101842
0.029104143
0.029099352
0.029068527
0.028963715
0.028659081
0.027888756
0.024420994
0.025396106
0.025867029
0.026055769
0.026118222
0.026130027
0.026124068
0.026120155
0.026117797
0.026116221
0.026116221
0.026117796
0.026120152
0.026124067
0.026130026
0.026118221
0.026055769
0.025867029
0.025396107
0.024420997
0.020429109
0.02165283
0.022379977
0.02270466
0.02281696
0.022837197
0.022834468
0.022823604
0.022816996
0.022812595
0.022812594
0.022816994
0.022823602
0.022834467
0.022837196
0.02281696
0.022704661
0.022379978
0.021652832
0.020429116
0.015791292
0.017466384
0.018623083
0.01920117
0.019419654
0.019462056
0.019446215
0.019420656
0.019404469
0.01939402
0.019394019
0.019404468
0.019420653
0.019446214
0.019462056
0.019419654
0.019201172
0.018623085
0.01746639
0.015791306
0.010363329
0.012717147
0.014362231
0.015284262
0.015673594
0.015760037
0.01573234
0.015679113
0.01564153
0.015619356
0.015619354
0.015641528
0.015679109
0.015732339
0.015760037
0.015673594
0.015284263
0.014362233
0.012717154
0.010363346
0.0052413353
0.0084478954
0.010453975
0.011628922
0.012165966
0.012296382
0.012246899
0.012154909
0.012084268
0.012044428
0.012044426
0.012084265
0.012154905
0.012246896
0.01229638
0.012165964
0.011628921
0.010453975
0.0084479005
0.0052413492
0.0019169142
0.0051623335
0.0072887087
0.008575495
0.0091906665
0.0093485804
0.0092819767
0.0091561629
0.0090542379
0.0089970714
0.0089970689
0.0090542337
0.0091561571
0.0092819727
0.0093485774
0.0091906637
0.0085754924
0.0072887081
0.0051623367
0.0019169209
0.00051327616
0.0029152709
0.0048704905
0.0061295848
0.0067580763
0.006931277
0.0068639935
0.0067255906
0.0066081152
0.006541528
0.0065415253
0.0066081102
0.0067255838
0.0068639884
0.0069312728
0.0067580726
0.0061295819
0.004870489
0.0029152723
0.00051327824
0.00010655092
0.0015159334
0.0031103611
0.0042332135
0.0048228342
0.0050001688
0.0049469224
0.0048182519
0.0047040234
0.0046382844
0.0046382817
0.0047040179
0.0048182448
0.0049469167
0.005000164
0.0048228302
0.0042332106
0.0031103594
0.0015159338
0.00010655137
1.838138e-05
0.00072329621
0.0018912097
0.0028145094
0.0033294015
0.0034997225
0.0034671698
0.0033623675
0.0032648477
0.003207793
0.0032077904
0.0032648424
0.0033623606
0.003467164
0.0034997178
0.0033293977
0.0028145068
0.0018912081
0.00072329622
1.8381463e-05
2.7963932e-06
0.00031768313
0.0010918973
0.0017963732
0.0022176155
0.0023709883
0.0023582183
0.0022817926
0.0022067583
0.0021620829
0.0021620805
0.0022067536
0.0022817864
0.002358213
0.002370984
0.0022176122
0.0017963711
0.0010918962
0.0003176831
2.7964065e-06
3.9124021e-07
0.00012951414
0.00059817328
0.0010989364
0.0014228353
0.0015522514
0.0015540016
0.0015035328
0.0014506159
0.0014184908
0.0014184889
0.001450612
0.0015035276
0.0015539972
0.0015522479
0.0014228327
0.001098935
0.00059817269
0.00012951415
3.9124237e-07
5.1699474e-08
4.9479263e-05
0.00031129724
0.00064414237
0.00087873751
0.0009811448
0.0009910627
0.00096078278
0.00092620457
0.00090473349
0.00090473207
0.00092620155
0.00096077867
0.00099105916
0.00098114209
0.00087873566
0.00064414151
0.00031129695
4.9479286e-05
5.1699818e-08
6.5558288e-09
1.7864763e-05
0.00015425602
0.00036197125
0.00052239315
0.00059854645
0.00061131666
0.00059489673
0.00057381798
0.00056036879
0.00056036776
0.00057381577
0.00059489368
0.00061131404
0.00059854447
0.00052239187
0.00036197077
0.0001542559
1.7864782e-05
6.5558819e-09
8.0500226e-10
6.1371805e-06
7.2989146e-05
0.00019523131
0.00029907635
0.00035245188
0.00036462785
0.00035673027
0.00034469586
0.00033675518
0.00033675448
0.00034469433
0.00035672812
0.000364626
0.00035245052
0.0002990755
0.00019523104
7.2989106e-05
6.1371903e-06
8.0501004e-10
9.6188761e-11
2.0162906e-06
3.3072209e-05
0.00010121307
0.00016502864
0.00020040702
0.00021032226
0.00020712262
0.00020067822
0.00019624181
0.00019624135
0.0002006772
0.00020712119
0.00021032103
0.00020040612
0.0001650281
0.00010121293
3.3072199e-05
2.016295e-06
9.6189812e-11
1.1212037e-11
6.3591886e-07
1.4387935e-05
5.0513413e-05
8.7851253e-05
0.00011010208
0.000117355
0.00011644419
0.00011321086
0.0001108596
0.00011085931
0.00011321021
0.00011644329
0.00011735421
0.00011010152
8.7850921e-05
5.0513338e-05
1.4387934e-05
6.3592056e-07
1.121217e-11
1.2763132e-12
1.9308973e-07
6.0238017e-06
2.4306448e-05
4.5164455e-05
5.8486582e-05
6.3371722e-05
6.340273e-05
6.1889572e-05
6.0705967e-05
6.0705793e-05
6.1889178e-05
6.3402179e-05
6.337124e-05
5.8486241e-05
4.5164259e-05
2.4306409e-05
6.0238029e-06
1.9309034e-07
1.2763293e-12
1.4207228e-13
5.6570362e-08
2.431935e-06
1.1292905e-05
2.2446959e-05
3.0062799e-05
3.3136641e-05
3.3447038e-05
3.2793185e-05
3.2227263e-05
3.2227163e-05
3.2792956e-05
3.3446717e-05
3.3136359e-05
3.0062603e-05
2.2446849e-05
1.1292886e-05
2.4319361e-06
5.6570567e-08
1.4207194e-13
1.8598668e-14
1.6020092e-08
9.4841029e-07
5.0726601e-06
1.0796155e-05
1.4964372e-05
1.6788406e-05
1.7102955e-05
1.6847676e-05
1.6591051e-05
1.6590996e-05
1.6847547e-05
1.7102775e-05
1.6788247e-05
1.4964263e-05
1.0796096e-05
5.0726506e-06
9.4841103e-07
1.6020159e-08
1.8651919e-14
2.6395137e-14
4.3917676e-09
3.5781579e-07
2.2056574e-06
5.0297845e-06
7.2191329e-06
8.2467247e-06
8.4816771e-06
8.3961779e-06
8.2862082e-06
8.286179e-06
8.3961086e-06
8.4815806e-06
8.2466388e-06
7.2190745e-06
5.0297538e-06
2.2056528e-06
3.578162e-07
4.391789e-09
2.642499e-14
1.9462144e-14
1.1681462e-09
1.3077217e-07
9.293752e-07
2.2719104e-06
3.3778607e-06
3.9301783e-06
4.0816868e-06
4.060976e-06
4.016754e-06
4.016739e-06
4.0609399e-06
4.0816366e-06
3.9301335e-06
3.3778306e-06
2.2718952e-06
9.2937307e-07
1.3077237e-07
1.1681528e-09
1.9475364e-14
6.8322231e-15
3.0242572e-10
4.6356467e-08
3.7986222e-07
9.9577623e-07
1.5340819e-06
1.8183902e-06
1.9072283e-06
1.9073206e-06
1.8908538e-06
1.8908464e-06
1.9073024e-06
1.9072032e-06
1.8183677e-06
1.5340668e-06
9.9576887e-07
3.7986125e-07
4.6356541e-08
3.0242588e-10
6.8308204e-15
1.7402098e-15
7.6202738e-11
1.5956794e-08
1.5074677e-07
4.2383812e-07
6.7672204e-07
8.1730569e-07
8.6582291e-07
8.7037263e-07
8.6484808e-07
8.6484457e-07
8.703638e-07
8.6581076e-07
8.1729471e-07
6.7671477e-07
4.2383469e-07
1.5074631e-07
1.5956818e-08
7.6202524e-11
1.7395052e-15
3.5943246e-16
1.8679461e-11
5.338027e-09
5.8133755e-08
1.7531845e-07
2.9014459e-07
3.5708637e-07
3.8209638e-07
3.8611698e-07
3.8455562e-07
3.8455399e-07
3.8611281e-07
3.8209068e-07
3.5708118e-07
2.9014117e-07
1.7531688e-07
5.8133541e-08
5.3380343e-09
1.8679309e-11
3.5937981e-16
5.8498382e-17
4.4509697e-12
1.7368387e-09
2.1801653e-08
7.0525291e-08
1.2098625e-07
1.5174357e-07
1.6401397e-07
1.6661118e-07
1.6632272e-07
1.6632199e-07
1.6660927e-07
1.6401137e-07
1.5174118e-07
1.2098468e-07
7.052459e-08
2.1801555e-08
1.7368406e-09
4.4509032e-12
5.854451e-17
7.191789e-18
1.030717e-12
5.5006331e-10
7.9567082e-09
2.7607508e-08
4.9094679e-08
6.2754026e-08
6.8515694e-08
6.9966982e-08
7.0007819e-08
7.0007498e-08
6.9966132e-08
6.8514539e-08
6.2752957e-08
4.9093976e-08
2.7607203e-08
7.9566641e-09
5.5006353e-10
1.0306946e-12
7.2206275e-18
)
;

boundaryField
{
    Wall
    {
        type            zeroGradient;
    }
    frontAndBack
    {
        type            empty;
    }
    atmosphere
    {
        type            zeroGradient;
    }
}


// ************************************************************************* //
