/*--------------------------------*- C++ -*----------------------------------*\
| =========                 |                                                 |
| \\      /  F ield         | OpenFOAM: The Open Source CFD Toolbox           |
|  \\    /   O peration     | Version:  3.0.1                                 |
|   \\  /    A nd           | Web:      www.OpenFOAM.org                      |
|    \\/     M anipulation  |                                                 |
\*---------------------------------------------------------------------------*/
FoamFile
{
    version     2.0;
    format      ascii;
    class       volScalarField;
    location    "25";
    object      wCO2_l;
}
// * * * * * * * * * * * * * * * * * * * * * * * * * * * * * * * * * * * * * //

dimensions      [0 0 0 0 0 0 0];

internalField   nonuniform List<scalar> 
800
(
0.0034248911
0.0034250296
0.0034250538
0.0034250573
0.0034250583
0.0034250591
0.00342506
0.0034250608
0.0034250613
0.0034250616
0.0034250616
0.0034250613
0.0034250607
0.00342506
0.0034250591
0.0034250582
0.0034250573
0.0034250538
0.0034250296
0.0034248911
0.0033760416
0.0033777876
0.0033784811
0.0033786289
0.0033786053
0.0033785394
0.0033784781
0.0033784337
0.0033784063
0.0033783934
0.0033783934
0.0033784063
0.0033784337
0.003378478
0.0033785393
0.0033786052
0.0033786288
0.0033784809
0.0033777875
0.0033760414
0.0034692501
0.0034689315
0.0034684069
0.0034685593
0.0034685598
0.0034685018
0.0034684374
0.0034683851
0.0034683503
0.0034683329
0.0034683329
0.0034683503
0.0034683851
0.0034684374
0.0034685019
0.0034685598
0.0034685593
0.0034684069
0.0034689315
0.00346925
0.0037110058
0.003704438
0.0037021494
0.0037022744
0.0037023067
0.0037022902
0.0037022502
0.0037022069
0.0037021742
0.0037021563
0.0037021563
0.0037021743
0.003702207
0.0037022503
0.0037022904
0.0037023069
0.0037022746
0.0037021496
0.0037044382
0.003711006
0.0041220608
0.004103327
0.0040992452
0.0040980943
0.0040981785
0.0040982288
0.0040982281
0.0040981985
0.0040981699
0.0040981514
0.0040981515
0.0040981701
0.0040981988
0.0040982285
0.0040982292
0.0040981791
0.0040980949
0.0040992458
0.0041033276
0.0041220615
0.0047297067
0.0046905067
0.0046849811
0.0046817676
0.0046819812
0.0046821296
0.0046821806
0.0046821628
0.0046821335
0.0046821101
0.0046821102
0.0046821338
0.0046821633
0.0046821813
0.0046821305
0.0046819821
0.0046817686
0.0046849821
0.0046905077
0.0047297079
0.005561189
0.0054920751
0.0054841377
0.0054790446
0.0054795674
0.0054798777
0.005479996
0.0054799825
0.0054799424
0.0054799061
0.0054799063
0.0054799429
0.0054799832
0.0054799971
0.005479879
0.0054795688
0.0054790461
0.005484139
0.0054920764
0.0055611907
0.0066354552
0.0065311758
0.0065153855
0.0065094305
0.006510673
0.00651126
0.0065114679
0.0065114455
0.0065113816
0.0065113224
0.0065113226
0.0065113822
0.0065114465
0.0065114692
0.0065112616
0.0065106747
0.0065094323
0.0065153873
0.0065311775
0.0066354576
0.0079596488
0.0078187622
0.0077898625
0.0077846067
0.0077836244
0.0077847564
0.0077850728
0.0077850296
0.0077849354
0.0077848464
0.0077848466
0.0077849361
0.0077850307
0.0077850743
0.0077847583
0.0077836265
0.007784609
0.0077898647
0.0078187646
0.0079596522
0.0095297572
0.0093494505
0.0093065005
0.009303955
0.0092991186
0.0092962602
0.0092966766
0.0092966278
0.0092965333
0.009296422
0.0092964222
0.009296534
0.009296629
0.0092966782
0.0092962623
0.009299121
0.0093039577
0.0093065033
0.0093494537
0.0095297617
0.011306241
0.011095834
0.011037027
0.011039509
0.011026081
0.011017275
0.011017929
0.011017991
0.011018027
0.011017939
0.01101794
0.011018028
0.011017992
0.01101793
0.011017277
0.011026084
0.011039512
0.01103703
0.011095838
0.011306246
0.013181407
0.012953552
0.012897236
0.012907834
0.012863391
0.012851078
0.01285231
0.012852747
0.012853124
0.012853152
0.012853152
0.012853125
0.012852748
0.012852312
0.01285108
0.012863393
0.012907837
0.012897239
0.012953555
0.013181412
0.014932282
0.01472424
0.014703724
0.014699683
0.014641693
0.014630235
0.014632773
0.01463423
0.014625573
0.014626043
0.014626043
0.014625573
0.01463423
0.014632773
0.014630236
0.014641694
0.014699685
0.014703726
0.014724243
0.014932284
0.016086661
0.016052087
0.016063313
0.016066429
0.016030487
0.016024298
0.016029115
0.01603232
0.015987749
0.015988803
0.015988803
0.015987749
0.016032319
0.016029114
0.016024298
0.016030487
0.016066429
0.016063313
0.016052087
0.016086661
0.015616118
0.015956258
0.016069299
0.016121435
0.016124833
0.016127653
0.01613571
0.01614205
0.016138037
0.016140184
0.016140184
0.016138037
0.016142049
0.016135709
0.016127652
0.016124831
0.016121434
0.016069298
0.015956256
0.015616117
0.012296216
0.013243858
0.013648366
0.013752899
0.013790673
0.013801755
0.013897651
0.013904843
0.013935594
0.013937867
0.013937867
0.013935593
0.013904842
0.013897651
0.013801755
0.013790672
0.013752898
0.013648365
0.013243857
0.012296218
0.0082490131
0.0091279528
0.009608652
0.0097801303
0.0098478867
0.0098640943
0.009921362
0.0099242201
0.0099519171
0.0099525013
0.0099525012
0.0099519175
0.0099242203
0.0099213623
0.0098640946
0.0098478869
0.0097801304
0.0096086525
0.0091279546
0.0082490185
0.0048967529
0.005893105
0.0064561899
0.0067023616
0.0067952819
0.0068111778
0.0068232647
0.0068159572
0.0068290045
0.0068261669
0.0068261668
0.0068290048
0.0068159573
0.0068232651
0.0068111781
0.0067952821
0.0067023617
0.0064561903
0.0058931072
0.0048967598
0.0023291078
0.0035555531
0.0041971248
0.0044964286
0.0046055424
0.0046166809
0.0046007143
0.0045783887
0.0045725928
0.0045643411
0.004564341
0.0045725928
0.0045783884
0.0046007143
0.0046166808
0.0046055419
0.004496428
0.0041971246
0.0035555547
0.0023291133
0.00083608503
0.0019897852
0.0026423897
0.0029667864
0.0030882792
0.0030991773
0.0030704005
0.0030362036
0.0030157936
0.0030025209
0.0030025206
0.0030157933
0.0030362029
0.0030704
0.0030991767
0.0030882782
0.0029667853
0.0026423893
0.001989786
0.00083608764
0.00022808015
0.0010348241
0.0016049998
0.0019164992
0.0020421364
0.0020583375
0.0020292368
0.0019920746
0.0019654172
0.0019499378
0.0019499374
0.0019654166
0.0019920736
0.0020292359
0.0020583366
0.0020421353
0.0019164981
0.0016049992
0.0010348245
0.00022808099
4.9545777e-05
0.0005004773
0.00093823304
0.0012067054
0.0013252165
0.0013471863
0.0013247364
0.0012919173
0.0012660725
0.0012513495
0.0012513491
0.0012660718
0.0012919163
0.0013247354
0.0013471853
0.0013252155
0.0012067045
0.00093823246
0.00050047737
4.9545975e-05
9.0922159e-06
0.00022524736
0.00052692239
0.0007381551
0.00084058794
0.00086546332
0.00085138647
0.00082625199
0.00080502596
0.0007928576
0.00079285725
0.00080502521
0.00082625097
0.00085138552
0.00086546243
0.00084058711
0.00073815442
0.00052692196
0.00022524735
9.0922544e-06
1.48426e-06
9.475883e-05
0.00028406834
0.00043776797
0.00051971246
0.0005440287
0.00053702302
0.00051975932
0.00050418548
0.0004951178
0.0004951175
0.00050418483
0.00051975844
0.0005370222
0.00054402797
0.00051971186
0.00043776752
0.00028406809
9.4758822e-05
1.4842668e-06
2.2370384e-07
3.7538084e-05
0.00014705356
0.00025144614
0.00031267215
0.00033389344
0.00033165357
0.00032083306
0.00031034465
0.00030411294
0.0003041127
0.00031034413
0.00032083234
0.00033165293
0.00033389291
0.00031267174
0.00025144588
0.00014705345
3.753809e-05
2.2370503e-07
3.1888515e-08
1.4113724e-05
7.3190269e-05
0.00013985007
0.00018288776
0.00019980969
0.0002001947
0.00019396084
0.00018737719
0.00018337013
0.00018336995
0.0001873768
0.0001939603
0.00020019422
0.00019980932
0.00018288751
0.00013984995
7.3190235e-05
1.4113735e-05
3.1888722e-08
4.363579e-09
5.0710721e-06
3.5086591e-05
7.5344649e-05
0.00010397421
0.00011649793
0.00011797624
0.00011467858
0.00011079161
0.00010835783
0.0001083577
0.00011079133
0.0001146782
0.00011797591
0.00011649769
0.00010397406
7.5344598e-05
3.5086588e-05
5.0710797e-06
4.3636138e-09
5.7831711e-10
1.7505254e-06
1.6232975e-05
3.9347264e-05
5.745864e-05
6.6155942e-05
6.7826967e-05
6.6243348e-05
6.4073414e-05
6.2668123e-05
6.2668036e-05
6.4073224e-05
6.6243086e-05
6.7826743e-05
6.6155784e-05
5.7458556e-05
3.9347247e-05
1.6232981e-05
1.7505294e-06
5.7832265e-10
7.4624957e-11
5.8287075e-07
7.2619223e-06
1.9935269e-05
3.0876012e-05
3.6589169e-05
3.8028981e-05
3.7359959e-05
3.6211475e-05
3.5436691e-05
3.5436635e-05
3.6211351e-05
3.7359788e-05
3.8028837e-05
3.6589071e-05
3.0875964e-05
1.9935265e-05
7.2619287e-06
5.828726e-07
7.4625771e-11
9.4042138e-12
1.877463e-07
3.1466414e-06
9.8078392e-06
1.6141038e-05
1.9712421e-05
2.0791185e-05
2.0564218e-05
1.9987696e-05
1.9578629e-05
1.9578594e-05
1.9987619e-05
2.0564111e-05
2.0791096e-05
1.9712362e-05
1.6141012e-05
9.8078403e-06
3.1466457e-06
1.8774705e-07
9.4043251e-12
1.1594189e-12
5.8626414e-08
1.322625e-06
4.6899072e-06
8.2134755e-06
1.0348061e-05
1.1084701e-05
1.1045773e-05
1.0771855e-05
1.0564657e-05
1.0564636e-05
1.0771808e-05
1.1045709e-05
1.1084647e-05
1.0348026e-05
8.2134608e-06
4.6899089e-06
1.3226275e-06
5.8626694e-08
1.1594334e-12
1.4001153e-13
1.7776204e-08
5.3998927e-07
2.1815993e-06
4.0706451e-06
5.2951016e-06
5.7641378e-06
5.789896e-06
5.6673893e-06
5.5666261e-06
5.5666139e-06
5.6673621e-06
5.7898583e-06
5.7641067e-06
5.2950821e-06
4.0706371e-06
2.1816007e-06
5.399906e-07
1.7776303e-08
1.4001287e-13
1.7541917e-14
5.2403367e-09
2.1438072e-07
9.8801766e-07
1.9660749e-06
2.6422468e-06
2.9243984e-06
2.9621416e-06
2.9111481e-06
2.8641101e-06
2.8641033e-06
2.9111328e-06
2.9621205e-06
2.924381e-06
2.6422361e-06
1.9660708e-06
9.8801859e-07
2.1438138e-07
5.2403708e-09
1.7560949e-14
1.0726625e-14
1.5035191e-09
8.2846689e-08
4.3598448e-07
9.259669e-07
1.2863433e-06
1.4480526e-06
1.4794919e-06
1.4601958e-06
1.4391473e-06
1.4391436e-06
1.4601875e-06
1.4794803e-06
1.4480431e-06
1.2863376e-06
9.2596481e-07
4.3598501e-07
8.2846999e-08
1.5035305e-09
1.0738096e-14
7.5365918e-15
4.2049709e-10
3.1192012e-08
1.8759064e-07
4.2550268e-07
6.1126864e-07
7.0008309e-07
7.2165785e-07
7.1538276e-07
7.0638115e-07
7.0637921e-07
7.1537832e-07
7.2165173e-07
7.0007806e-07
6.1126568e-07
4.2550164e-07
1.8759092e-07
3.1192151e-08
4.2050076e-10
7.5420374e-15
2.802045e-15
1.148778e-10
1.1451913e-08
7.8755334e-08
1.9088261e-07
2.8366678e-07
3.3060913e-07
3.4389161e-07
3.4244258e-07
3.3878343e-07
3.3878244e-07
3.4244029e-07
3.4388848e-07
3.3060654e-07
2.8366528e-07
1.9088211e-07
7.8755474e-08
1.145197e-08
1.1487852e-10
2.8015799e-15
7.6655884e-16
3.0657017e-11
4.1034213e-09
3.2282498e-08
8.3641648e-08
1.2861581e-07
1.5256965e-07
1.601602e-07
1.6022024e-07
1.588201e-07
1.5881961e-07
1.6021909e-07
1.6015863e-07
1.5256836e-07
1.2861507e-07
8.3641407e-08
3.2282559e-08
4.1034433e-09
3.0657173e-11
7.6626887e-16
1.7115776e-16
7.9899039e-12
1.4358754e-09
1.2928496e-08
3.5818183e-08
5.7002444e-08
6.8833389e-08
7.2930264e-08
7.3298595e-08
7.2803498e-08
7.2803262e-08
7.3298035e-08
7.2929498e-08
6.8832754e-08
5.7002084e-08
3.5818066e-08
1.2928521e-08
1.4358837e-09
7.9899278e-12
1.7113422e-16
3.0408798e-17
2.0327762e-12
4.9096911e-10
5.0613753e-09
1.4998008e-08
2.4706337e-08
3.0373574e-08
3.2483335e-08
3.280165e-08
3.2646153e-08
3.2646042e-08
3.2801383e-08
3.248297e-08
3.037327e-08
2.4706164e-08
1.4997951e-08
5.0613841e-09
4.909721e-10
2.0327764e-12
3.0431724e-17
4.1624091e-18
5.0485178e-13
1.6414384e-10
1.9380553e-09
6.1436236e-09
1.0476974e-08
1.3114285e-08
1.4157668e-08
1.4364535e-08
1.4325715e-08
1.4325664e-08
1.436441e-08
1.4157497e-08
1.3114142e-08
1.0476892e-08
6.1435963e-09
1.938058e-09
1.6414485e-10
5.0485035e-13
4.1779713e-18
)
;

boundaryField
{
    Wall
    {
        type            zeroGradient;
    }
    frontAndBack
    {
        type            empty;
    }
    atmosphere
    {
        type            zeroGradient;
    }
}


// ************************************************************************* //
