/*--------------------------------*- C++ -*----------------------------------*\
| =========                 |                                                 |
| \\      /  F ield         | OpenFOAM: The Open Source CFD Toolbox           |
|  \\    /   O peration     | Version:  3.0.1                                 |
|   \\  /    A nd           | Web:      www.OpenFOAM.org                      |
|    \\/     M anipulation  |                                                 |
\*---------------------------------------------------------------------------*/
FoamFile
{
    version     2.0;
    format      ascii;
    class       volScalarField;
    location    "25";
    object      wCO2_g;
}
// * * * * * * * * * * * * * * * * * * * * * * * * * * * * * * * * * * * * * //

dimensions      [0 0 0 0 0 0 0];

internalField   nonuniform List<scalar> 
800
(
0.012521132
0.012521735
0.01252184
0.01252187
0.01252189
0.012521906
0.012521918
0.012521927
0.012521932
0.012521935
0.012521935
0.012521932
0.012521926
0.012521918
0.012521906
0.01252189
0.01252187
0.01252184
0.012521735
0.012521132
0.012589848
0.012595368
0.012596242
0.012596279
0.012596178
0.012596106
0.012596073
0.012596065
0.012596067
0.01259607
0.012596069
0.012596067
0.012596065
0.012596073
0.012596106
0.012596178
0.012596279
0.012596242
0.012595368
0.012589848
0.012666825
0.012673657
0.012676491
0.012676629
0.012676511
0.012676433
0.012676414
0.012676429
0.01267645
0.012676464
0.012676464
0.01267645
0.012676429
0.012676414
0.012676433
0.012676511
0.012676629
0.012676491
0.012673657
0.012666825
0.012761882
0.012768693
0.012773348
0.012773568
0.012773435
0.012773366
0.012773375
0.012773424
0.012773472
0.012773501
0.012773501
0.012773472
0.012773424
0.012773375
0.012773366
0.012773435
0.012773568
0.012773348
0.012768693
0.012761882
0.012868984
0.012875486
0.012881481
0.012882817
0.012882608
0.01288251
0.012882527
0.0128826
0.01288267
0.012882713
0.012882713
0.01288267
0.0128826
0.012882527
0.01288251
0.012882607
0.012882817
0.012881481
0.012875486
0.012868984
0.012966974
0.012976068
0.012982969
0.012986108
0.012985709
0.012985504
0.012985479
0.012985548
0.012985623
0.012985671
0.012985671
0.012985623
0.012985548
0.012985479
0.012985504
0.012985709
0.012986108
0.012982969
0.012976068
0.012966973
0.013023231
0.013041987
0.013048703
0.013053587
0.013052844
0.013052421
0.013052285
0.013052306
0.013052362
0.013052407
0.013052407
0.013052362
0.013052306
0.013052285
0.013052421
0.013052843
0.013053586
0.013048703
0.013041986
0.01302323
0.012997814
0.013035007
0.013042255
0.013048289
0.013047074
0.013046304
0.013045981
0.01304591
0.013045926
0.013045957
0.013045957
0.013045926
0.01304591
0.013045981
0.013046303
0.013047073
0.013048288
0.013042255
0.013035006
0.012997813
0.012841866
0.012909915
0.012918808
0.012925253
0.012926509
0.012925322
0.012924755
0.012924569
0.012924534
0.012924547
0.012924547
0.012924534
0.012924568
0.012924755
0.012925321
0.012926508
0.012925252
0.012918807
0.012909914
0.012841865
0.012491943
0.012612536
0.012623893
0.012630183
0.012636152
0.012638936
0.012638151
0.012637874
0.012637797
0.012637801
0.012637801
0.012637797
0.012637873
0.01263815
0.012638935
0.012636151
0.012630182
0.012623891
0.012612534
0.012491942
0.011870946
0.01206494
0.012087512
0.012093554
0.012109567
0.012118732
0.012117852
0.012117575
0.012117478
0.012117497
0.012117496
0.012117477
0.012117574
0.012117851
0.01211873
0.012109566
0.012093552
0.012087511
0.012064938
0.011870944
0.010898757
0.01117758
0.011227773
0.011233852
0.011267214
0.011281273
0.011280675
0.011280641
0.011280366
0.011280463
0.011280463
0.011280365
0.01128064
0.011280673
0.011281272
0.011267212
0.01123385
0.011227771
0.011177578
0.010898754
0.0095052635
0.0098704659
0.0099598788
0.0099681628
0.010014352
0.010030883
0.010031296
0.010031907
0.010042417
0.010042599
0.010042598
0.010042416
0.010031906
0.010031294
0.010030882
0.01001435
0.0099681606
0.0099598763
0.009870463
0.0095052601
0.007692046
0.0081129474
0.0082354434
0.0082637262
0.0083147714
0.0083325142
0.0083349056
0.0083369778
0.0083535131
0.0083541773
0.008354177
0.0083535124
0.0083369767
0.0083349041
0.0083325125
0.0083147694
0.0082637238
0.0082354408
0.0081129444
0.0076920428
0.0058273061
0.0062445279
0.006387731
0.0064277927
0.0064781904
0.0064958595
0.0064988046
0.0065017617
0.0065203014
0.0065212611
0.0065212609
0.0065203009
0.0065017608
0.0064988035
0.0064958581
0.0064781888
0.0064277908
0.0063877289
0.0062445257
0.0058273041
0.0039531862
0.0043297038
0.0044874675
0.0045311027
0.0045716171
0.0045863417
0.004612755
0.0046157966
0.0046303277
0.0046312297
0.0046312296
0.0046303275
0.0046157961
0.0046127544
0.0045863409
0.0045716161
0.0045311016
0.0044874664
0.0043297028
0.0039531858
0.0024717739
0.0027591252
0.0029022692
0.0029523707
0.0029836414
0.0029946077
0.0030079707
0.003010202
0.0030188607
0.0030194395
0.0030194395
0.0030188608
0.0030102019
0.0030079706
0.0029946075
0.0029836411
0.0029523704
0.002902269
0.0027591253
0.0024717751
0.0013655799
0.0016498167
0.001798624
0.0018597619
0.0018861896
0.0018925527
0.0018958748
0.0018951984
0.0018984558
0.0018981081
0.0018981081
0.0018984559
0.0018951984
0.0018958748
0.0018925526
0.0018861896
0.0018597617
0.001798624
0.0016498172
0.0013655817
0.0006010475
0.00092435988
0.001084024
0.0011530412
0.0011768956
0.0011785486
0.0011744604
0.0011695027
0.0011677961
0.001166003
0.001166003
0.0011677961
0.0011695027
0.0011744604
0.0011785486
0.0011768954
0.001153041
0.0010840238
0.0009243602
0.00060104889
0.00019750145
0.0004794329
0.00063416265
0.00070627105
0.00073048553
0.00073050683
0.0007228294
0.00071476888
0.00070974873
0.00070674972
0.00070674967
0.00070974868
0.00071476875
0.00072282927
0.00073050667
0.00073048527
0.00070627073
0.0006341625
0.00047943308
0.00019750208
4.8697312e-05
0.00022985037
0.00035752168
0.00042410079
0.00044840159
0.00044945766
0.00044183829
0.00043329293
0.00042721313
0.0004238267
0.00042382665
0.00042721302
0.00043329275
0.00044183811
0.00044945745
0.00044840133
0.00042410052
0.00035752152
0.00022985044
4.86975e-05
9.438096e-06
0.00010177609
0.00019338066
0.00024795387
0.0002702402
0.00027286396
0.00026716772
0.00025998476
0.00025447885
0.00025142688
0.00025142682
0.00025447872
0.00025998457
0.00026716752
0.00027286375
0.00027023998
0.00024795366
0.00019338053
0.0001017761
9.438136e-06
1.5262755e-06
4.1646218e-05
0.00010007579
0.00014047993
0.00015898677
0.00016253046
0.00015904797
0.00015386925
0.00014964904
0.00014728225
0.0001472822
0.00014964891
0.00015386907
0.00015904779
0.00016253028
0.0001589866
0.00014047979
0.0001000757
4.1646216e-05
1.5262824e-06
2.1716238e-07
1.5827523e-05
4.9486508e-05
7.689853e-05
9.0948367e-05
9.4572623e-05
9.2825518e-05
8.9499003e-05
8.6617652e-05
8.4972904e-05
8.4972857e-05
8.6617548e-05
8.949886e-05
9.282538e-05
9.4572495e-05
9.0948257e-05
7.6898448e-05
4.9486464e-05
1.5827522e-05
2.1716344e-07
2.8271462e-08
5.6327077e-06
2.3387151e-05
4.0610595e-05
5.046785e-05
5.359717e-05
5.294086e-05
5.1000428e-05
4.9201324e-05
4.8152313e-05
4.8152278e-05
4.9201246e-05
5.1000321e-05
5.2940759e-05
5.3597086e-05
5.0467785e-05
4.0610553e-05
2.3387134e-05
5.632709e-06
2.8271621e-08
3.4577829e-09
1.8935243e-06
1.0578066e-05
2.0683045e-05
2.7132006e-05
2.9529148e-05
2.9437122e-05
2.8400736e-05
2.735783e-05
2.6734553e-05
2.673453e-05
2.7357776e-05
2.8400662e-05
2.9437054e-05
2.9529095e-05
2.7131971e-05
2.0683027e-05
1.0578062e-05
1.8935259e-06
3.4578064e-09
4.0418166e-10
6.0585432e-07
4.5885099e-06
1.0162526e-05
1.4125475e-05
1.5799274e-05
1.5933588e-05
1.5426816e-05
1.4860492e-05
1.451213e-05
1.4512114e-05
1.4860457e-05
1.5426768e-05
1.5933546e-05
1.5799243e-05
1.4125458e-05
1.0162521e-05
4.5885104e-06
6.0585537e-07
4.04185e-10
4.5647632e-11
1.8560864e-07
1.9132206e-06
4.8211482e-06
7.1221574e-06
8.2053453e-06
8.3876183e-06
8.1629767e-06
7.8733634e-06
7.6889958e-06
7.6889861e-06
7.8733417e-06
8.1629466e-06
8.3875925e-06
8.2053274e-06
7.1221489e-06
4.8211474e-06
1.9132218e-06
1.8560913e-07
4.5648084e-11
5.0149861e-12
5.4687617e-08
7.6849615e-07
2.2105745e-06
3.4792071e-06
4.1361671e-06
4.2919768e-06
4.2041845e-06
4.0643268e-06
3.9715157e-06
3.97151e-06
4.0643139e-06
4.2041666e-06
4.2919618e-06
4.1361573e-06
3.4792031e-06
2.2105751e-06
7.6849716e-07
5.4687819e-08
5.0150427e-12
5.3814954e-13
1.554684e-08
2.9796009e-07
9.8071211e-07
1.6476379e-06
2.0240563e-06
2.1345108e-06
2.1065485e-06
2.0427391e-06
1.998162e-06
1.9981588e-06
2.0427318e-06
2.1065384e-06
2.1345025e-06
2.0240511e-06
1.6476361e-06
9.807128e-07
2.9796069e-07
1.5546912e-08
5.3815616e-13
5.6535539e-14
4.2743732e-09
1.1170051e-07
4.2143469e-07
7.5691882e-07
9.6189021e-07
1.0317928e-06
1.0266867e-06
9.9923459e-07
9.7876666e-07
9.7876487e-07
9.9923058e-07
1.0266812e-06
1.0317883e-06
9.6188756e-07
7.5691804e-07
4.2143519e-07
1.1170081e-07
4.2743974e-09
5.6536278e-14
5.8223582e-15
1.1384791e-09
4.0547696e-08
1.755978e-07
3.375614e-07
4.4412762e-07
4.8488977e-07
4.8673941e-07
4.7566169e-07
4.666683e-07
4.6666736e-07
4.7565958e-07
4.867365e-07
4.8488745e-07
4.4412631e-07
3.3756107e-07
1.755981e-07
4.0547838e-08
1.1384867e-09
5.8224257e-15
6.1847307e-16
2.9414606e-10
1.4270358e-08
7.1011114e-08
1.4624635e-07
1.9934148e-07
2.2161729e-07
2.2450877e-07
2.2036235e-07
2.1658077e-07
2.1658029e-07
2.2036128e-07
2.2450731e-07
2.2161613e-07
1.9934085e-07
1.4624621e-07
7.1011274e-08
1.4270419e-08
2.9414838e-10
6.1942113e-16
4.0626063e-16
7.3795684e-11
4.8745511e-09
2.7895962e-08
6.1596278e-08
8.7023914e-08
9.8551234e-08
1.0078267e-07
9.937622e-08
9.7856216e-08
9.7855982e-08
9.9375698e-08
1.0078195e-07
9.8550669e-08
8.702362e-08
6.1596226e-08
2.7896042e-08
4.8745768e-09
7.3796362e-11
4.0678727e-16
2.6826843e-16
1.8004526e-11
1.6176455e-09
1.0654356e-08
2.5238393e-08
3.6972716e-08
4.2660722e-08
4.4048153e-08
4.3639324e-08
4.3056826e-08
4.3056716e-08
4.3639077e-08
4.4047812e-08
4.2660457e-08
3.6972584e-08
2.5238374e-08
1.0654393e-08
1.6176557e-09
1.800472e-11
2.684757e-16
8.7987989e-17
4.2811873e-12
5.2202276e-10
3.9593248e-09
1.0066953e-08
1.5296037e-08
1.7985624e-08
1.8752389e-08
1.8668165e-08
1.8456394e-08
1.8456343e-08
1.8668051e-08
1.8752233e-08
1.7985504e-08
1.5295979e-08
1.0066946e-08
3.959341e-09
5.2202647e-10
4.2812233e-12
8.7971596e-17
2.0985058e-17
9.9207138e-13
1.6396159e-10
1.4326886e-09
3.9114941e-09
6.1657128e-09
7.3889856e-09
7.7801099e-09
7.7831042e-09
7.710717e-09
7.7106948e-09
7.7830535e-09
7.7800403e-09
7.3889321e-09
6.1656876e-09
3.9114914e-09
1.4326952e-09
1.6396288e-10
9.9207891e-13
2.0975997e-17
4.0652122e-18
2.2395913e-13
5.0157034e-11
5.0516567e-10
1.4813953e-09
2.4229349e-09
2.9596461e-09
3.1472905e-09
3.1640591e-09
3.1411871e-09
3.1411776e-09
3.1640372e-09
3.1472604e-09
2.9596229e-09
2.4229242e-09
1.4813941e-09
5.0516818e-10
5.0157472e-11
2.239604e-13
4.0643874e-18
6.2486382e-19
4.9226935e-14
1.4953658e-11
1.7368123e-10
5.47205e-10
9.2875282e-10
1.1564408e-09
1.2420396e-09
1.2548648e-09
1.2484209e-09
1.2484169e-09
1.2548555e-09
1.2420268e-09
1.156431e-09
9.287483e-10
5.4720439e-10
1.7368214e-10
1.4953799e-11
4.9227067e-14
6.2527003e-19
7.4080946e-20
1.0533775e-14
4.3479397e-12
5.8262321e-11
1.9725808e-10
3.4745527e-10
4.4102912e-10
4.7841763e-10
4.8577184e-10
4.84303e-10
4.8430138e-10
4.8576801e-10
4.7841234e-10
4.4102502e-10
3.4745337e-10
1.9725778e-10
5.8262628e-11
4.3479832e-12
1.0533777e-14
7.4352372e-20
)
;

boundaryField
{
    Wall
    {
        type            zeroGradient;
    }
    frontAndBack
    {
        type            empty;
    }
    atmosphere
    {
        type            zeroGradient;
    }
}


// ************************************************************************* //
