/*--------------------------------*- C++ -*----------------------------------*\
| =========                 |                                                 |
| \\      /  F ield         | OpenFOAM: The Open Source CFD Toolbox           |
|  \\    /   O peration     | Version:  3.0.1                                 |
|   \\  /    A nd           | Web:      www.OpenFOAM.org                      |
|    \\/     M anipulation  |                                                 |
\*---------------------------------------------------------------------------*/
FoamFile
{
    version     2.0;
    format      ascii;
    class       volScalarField;
    location    "25";
    object      weight0;
}
// * * * * * * * * * * * * * * * * * * * * * * * * * * * * * * * * * * * * * //

dimensions      [0 0 0 0 0 0 0];

internalField   nonuniform List<scalar> 
800
(
1.098475e+10
1.0985673e+10
1.0985878e+10
1.0985926e+10
1.0985952e+10
1.0985973e+10
1.0985991e+10
1.0986005e+10
1.0986014e+10
1.0986018e+10
1.0986018e+10
1.0986014e+10
1.0986005e+10
1.0985991e+10
1.0985973e+10
1.0985952e+10
1.0985926e+10
1.0985878e+10
1.0985673e+10
1.098475e+10
5.4837072e+09
5.9141992e+09
5.9714003e+09
5.9816842e+09
5.985305e+09
5.9889773e+09
5.9928362e+09
5.9962147e+09
5.998631e+09
5.9998775e+09
5.9998771e+09
5.9986305e+09
5.996214e+09
5.9928354e+09
5.9889765e+09
5.9853048e+09
5.9816847e+09
5.9714012e+09
5.9142003e+09
5.4837046e+09
2.8494012e+09
3.3693438e+09
3.5390013e+09
3.5634296e+09
3.5744832e+09
3.5828848e+09
3.5900376e+09
3.5956998e+09
3.5995759e+09
3.6015413e+09
3.6015406e+09
3.599575e+09
3.5956985e+09
3.5900359e+09
3.5828827e+09
3.5744817e+09
3.5634289e+09
3.539001e+09
3.3693433e+09
2.8493961e+09
2.6259141e+08
8.8696525e+08
1.1238537e+09
1.1582311e+09
1.1738777e+09
1.1842449e+09
1.1922651e+09
1.1983506e+09
1.2024581e+09
1.2045323e+09
1.2045312e+09
1.2024561e+09
1.1983473e+09
1.1922607e+09
1.1842389e+09
1.1738719e+09
1.1582252e+09
1.1238479e+09
8.8695898e+08
2.6258027e+08
7960989.6
4671421.6
3888889.5
3769932.3
3714822
3683739.1
3662250.8
3646710.5
3636340.3
3631111.4
3631116.1
3636352.4
3646730.5
3662278
3683772.2
3714858.3
3769972.3
3888930
4671468.2
7961077.1
1.9590679e+08
1.5380233e+08
1.4629575e+08
1.4552924e+08
1.4467208e+08
1.4419848e+08
1.439e+08
1.4369502e+08
1.4356151e+08
1.4349463e+08
1.4349471e+08
1.4356174e+08
1.4369539e+08
1.4390051e+08
1.4419909e+08
1.4467274e+08
1.4552996e+08
1.4629645e+08
1.5380303e+08
1.959078e+08
1.4774225e+09
1.2731495e+09
1.242864e+09
1.2435048e+09
1.2379119e+09
1.2343351e+09
1.2320469e+09
1.2304961e+09
1.229519e+09
1.22903e+09
1.2290305e+09
1.2295205e+09
1.2304983e+09
1.2320499e+09
1.2343385e+09
1.2379156e+09
1.2435088e+09
1.2428678e+09
1.2731531e+09
1.4774275e+09
6.3028446e+09
5.7197261e+09
5.6559476e+09
5.6721365e+09
5.6504267e+09
5.6325751e+09
5.6203344e+09
5.6119924e+09
5.6068118e+09
5.604181e+09
5.6041827e+09
5.6068167e+09
5.6120006e+09
5.6203455e+09
5.6325875e+09
5.6504399e+09
5.6721515e+09
5.6559609e+09
5.7197388e+09
6.3028629e+09
1.8865546e+10
1.7788185e+10
1.7715928e+10
1.7808839e+10
1.7806753e+10
1.7748791e+10
1.7703697e+10
1.7672925e+10
1.7653904e+10
1.7644034e+10
1.7644038e+10
1.7653917e+10
1.7672947e+10
1.7703727e+10
1.7748825e+10
1.780679e+10
1.7808883e+10
1.7715966e+10
1.7788223e+10
1.8865603e+10
4.5250044e+10
4.3671149e+10
4.3770854e+10
4.4136426e+10
4.4134968e+10
4.4011336e+10
4.3884443e+10
4.3798266e+10
4.3745345e+10
4.3717246e+10
4.3717255e+10
4.3745372e+10
4.3798309e+10
4.3884509e+10
4.4011413e+10
4.4135055e+10
4.4136533e+10
4.3770946e+10
4.3671249e+10
4.5250197e+10
9.6281833e+10
9.3820781e+10
9.4507961e+10
9.5616826e+10
9.5439271e+10
9.4999769e+10
9.4695249e+10
9.4487051e+10
9.4361892e+10
9.4293723e+10
9.4293737e+10
9.4361939e+10
9.4487123e+10
9.4695373e+10
9.4999921e+10
9.543945e+10
9.5617054e+10
9.4508159e+10
9.382101e+10
9.6282179e+10
1.8815011e+11
1.8480704e+11
1.8680372e+11
1.8963284e+11
1.8849929e+11
1.8753657e+11
1.8687158e+11
1.8640754e+11
1.8614516e+11
1.8599365e+11
1.8599367e+11
1.8614522e+11
1.8640764e+11
1.8687178e+11
1.8753683e+11
1.8849961e+11
1.8963325e+11
1.8680409e+11
1.8480749e+11
1.8815076e+11
3.4028978e+11
3.376851e+11
3.435807e+11
3.4918911e+11
3.4706173e+11
3.4558199e+11
3.4423473e+11
3.4326027e+11
3.4183764e+11
3.4152278e+11
3.4152279e+11
3.4183772e+11
3.4326037e+11
3.44235e+11
3.4558238e+11
3.4706221e+11
3.4918976e+11
3.4358129e+11
3.3768583e+11
3.4029078e+11
5.5486922e+11
5.6351245e+11
5.8053895e+11
5.9021186e+11
5.8892968e+11
5.8713407e+11
5.846698e+11
5.8278989e+11
5.7907928e+11
5.7845719e+11
5.7845717e+11
5.7907933e+11
5.8278994e+11
5.8467009e+11
5.8713454e+11
5.889303e+11
5.902127e+11
5.8053971e+11
5.635134e+11
5.5487046e+11
7.7734963e+11
8.1813758e+11
8.5776099e+11
8.790651e+11
8.8279719e+11
8.8143224e+11
8.7759177e+11
8.7445162e+11
8.6866663e+11
8.6760465e+11
8.6760458e+11
8.686666e+11
8.7445153e+11
8.7759198e+11
8.8143268e+11
8.8279782e+11
8.7906597e+11
8.5776178e+11
8.181386e+11
7.773509e+11
9.3031173e+11
1.0365768e+12
1.1189692e+12
1.1632928e+12
1.1792322e+12
1.1800246e+12
1.1702214e+12
1.1653997e+12
1.159469e+12
1.1577954e+12
1.1577953e+12
1.1594689e+12
1.1653995e+12
1.1702214e+12
1.1800249e+12
1.1792327e+12
1.1632935e+12
1.1189699e+12
1.0365777e+12
9.3031299e+11
0
0
0
0
0
0
0
0
0
0
0
0
0
0
0
0
0
0
0
0
0
0
0
0
0
0
0
0
0
0
0
0
0
0
0
0
0
0
0
0
0
0
0
0
0
0
0
0
0
0
0
0
0
0
0
0
0
0
0
0
0
0
0
0
0
0
0
0
0
0
0
0
0
0
0
0
0
0
0
0
0
0
0
0
0
0
0
0
0
0
0
0
0
0
0
0
0
0
0
0
0
0
0
0
0
0
0
0
0
0
0
0
0
0
0
0
0
0
0
0
0
0
0
0
0
0
0
0
0
0
0
0
0
0
0
0
0
0
0
0
0
0
0
0
0
0
0
0
0
0
0
0
0
0
0
0
0
0
0
0
0
0
0
0
0
0
0
0
0
0
0
0
0
0
0
0
0
0
0
0
0
0
0
0
0
0
0
0
0
0
0
0
0
0
0
0
0
0
0
0
0
0
0
0
0
0
0
0
0
0
0
0
0
0
0
0
0
0
0
0
0
0
0
0
0
0
0
0
0
0
0
0
0
0
0
0
0
0
0
0
0
0
0
0
0
0
0
0
0
0
0
0
0
0
0
0
0
0
0
0
0
0
0
0
0
0
0
0
0
0
0
0
0
0
0
0
0
0
0
0
0
0
0
0
0
0
0
0
0
0
0
0
0
0
0
0
0
0
0
0
0
0
0
0
0
0
0
0
0
0
0
0
0
0
0
0
0
0
0
0
0
0
0
0
0
0
0
0
0
0
0
0
0
0
0
0
0
0
0
0
0
0
0
0
0
0
0
0
0
0
0
0
0
0
0
0
0
0
0
0
0
0
0
0
0
0
0
0
0
0
0
0
0
0
0
0
0
0
0
0
0
0
0
0
0
0
0
0
0
0
0
0
0
0
0
0
0
0
0
0
0
0
0
0
0
0
0
0
0
0
0
0
0
0
0
0
0
0
0
0
0
0
0
0
0
0
0
0
0
0
0
0
0
0
0
0
0
0
0
0
0
0
0
0
0
0
0
0
0
0
0
0
0
0
0
0
0
0
0
0
0
0
0
0
0
0
0
0
0
0
0
0
0
0
0
0
0
0
0
0
)
;

boundaryField
{
    Wall
    {
        type            zeroGradient;
    }
    frontAndBack
    {
        type            empty;
    }
    atmosphere
    {
        type            zeroGradient;
    }
}


// ************************************************************************* //
