/*--------------------------------*- C++ -*----------------------------------*\
| =========                 |                                                 |
| \\      /  F ield         | OpenFOAM: The Open Source CFD Toolbox           |
|  \\    /   O peration     | Version:  3.0.1                                 |
|   \\  /    A nd           | Web:      www.OpenFOAM.org                      |
|    \\/     M anipulation  |                                                 |
\*---------------------------------------------------------------------------*/
FoamFile
{
    version     2.0;
    format      ascii;
    class       volScalarField;
    location    "25";
    object      weight1;
}
// * * * * * * * * * * * * * * * * * * * * * * * * * * * * * * * * * * * * * //

dimensions      [0 0 0 0 0 0 0];

internalField   nonuniform List<scalar> 
800
(
9.9890153e+12
9.9890143e+12
9.9890141e+12
9.9890141e+12
9.989014e+12
9.989014e+12
9.989014e+12
9.989014e+12
9.989014e+12
9.989014e+12
9.989014e+12
9.989014e+12
9.989014e+12
9.989014e+12
9.989014e+12
9.989014e+12
9.9890141e+12
9.9890141e+12
9.9890143e+12
9.9890153e+12
9.9945163e+12
9.9940858e+12
9.9940286e+12
9.9940183e+12
9.9940147e+12
9.994011e+12
9.9940072e+12
9.9940038e+12
9.9940014e+12
9.9940001e+12
9.9940001e+12
9.9940014e+12
9.9940038e+12
9.9940072e+12
9.994011e+12
9.9940147e+12
9.9940183e+12
9.9940286e+12
9.9940858e+12
9.9945163e+12
9.8567983e+12
9.8591992e+12
9.8599979e+12
9.8601769e+12
9.8601522e+12
9.8600911e+12
9.8600387e+12
9.8600035e+12
9.8599831e+12
9.859974e+12
9.859974e+12
9.859983e+12
9.8600034e+12
9.8600386e+12
9.860091e+12
9.860152e+12
9.8601767e+12
9.8599977e+12
9.859199e+12
9.8567981e+12
9.6092235e+12
9.6167401e+12
9.6187914e+12
9.6191591e+12
9.6190874e+12
9.6189333e+12
9.6188058e+12
9.6187213e+12
9.6186725e+12
9.6186508e+12
9.6186508e+12
9.6186724e+12
9.6187212e+12
9.6188056e+12
9.6189331e+12
9.6190871e+12
9.6191588e+12
9.618791e+12
9.6167397e+12
9.609223e+12
9.2765938e+12
9.2916454e+12
9.2953703e+12
9.2959473e+12
9.2958049e+12
9.2955382e+12
9.2953259e+12
9.2951875e+12
9.295108e+12
9.295073e+12
9.295073e+12
9.2951078e+12
9.2951873e+12
9.2953256e+12
9.2955378e+12
9.2958045e+12
9.2959468e+12
9.2953697e+12
9.2916449e+12
9.2765931e+12
8.8839809e+12
8.9072378e+12
8.9124674e+12
8.9131979e+12
8.912927e+12
8.9125175e+12
8.9122041e+12
8.9120021e+12
8.9118872e+12
8.9118367e+12
8.9118366e+12
8.911887e+12
8.9120018e+12
8.9122037e+12
8.912517e+12
8.9129265e+12
8.9131974e+12
8.9124668e+12
8.9072373e+12
8.8839803e+12
8.44943e+12
8.482219e+12
8.4890594e+12
8.4899454e+12
8.4895158e+12
8.4889573e+12
8.4885478e+12
8.4882883e+12
8.4881435e+12
8.4880804e+12
8.4880803e+12
8.4881433e+12
8.4882879e+12
8.4885473e+12
8.4889568e+12
8.4895153e+12
8.4899449e+12
8.4890589e+12
8.4822186e+12
8.4494294e+12
7.9846701e+12
8.0283467e+12
8.0371748e+12
8.0382846e+12
8.03768e+12
8.0369895e+12
8.036509e+12
8.0362136e+12
8.0360525e+12
8.0359828e+12
8.0359828e+12
8.0360523e+12
8.0362133e+12
8.0365086e+12
8.0369891e+12
8.0376796e+12
8.0382842e+12
8.0371744e+12
8.0283464e+12
7.9846697e+12
7.4951847e+12
7.5510397e+12
7.5624917e+12
7.563994e+12
7.5632989e+12
7.5625128e+12
7.5620209e+12
7.5617325e+12
7.5615779e+12
7.5615123e+12
7.5615122e+12
7.5615777e+12
7.5617322e+12
7.5620206e+12
7.5625125e+12
7.5632986e+12
7.5639937e+12
7.5624913e+12
7.5510394e+12
7.4951842e+12
6.98015e+12
7.0496484e+12
7.0646064e+12
7.066746e+12
7.0661298e+12
7.0654194e+12
7.0650286e+12
7.0648123e+12
7.0646931e+12
7.0646472e+12
7.0646471e+12
7.0646929e+12
7.064812e+12
7.0650283e+12
7.0654191e+12
7.0661295e+12
7.0667457e+12
7.0646061e+12
7.049648e+12
6.9801494e+12
6.4298725e+12
6.5150775e+12
6.5349824e+12
6.5381012e+12
6.5380561e+12
6.5378201e+12
6.5376706e+12
6.5376127e+12
6.5375546e+12
6.5375489e+12
6.5375488e+12
6.5375544e+12
6.5376123e+12
6.5376703e+12
6.5378198e+12
6.5380557e+12
6.5381008e+12
6.534982e+12
6.515077e+12
6.4298717e+12
5.8253097e+12
5.9284937e+12
5.9555331e+12
5.9600452e+12
5.9619961e+12
5.9626034e+12
5.9628829e+12
5.9631088e+12
5.9630977e+12
5.9631678e+12
5.9631677e+12
5.9630974e+12
5.9631084e+12
5.9628825e+12
5.9626029e+12
5.9619956e+12
5.9600447e+12
5.9555325e+12
5.928493e+12
5.8253086e+12
5.1393089e+12
5.2626585e+12
5.2986913e+12
5.3059931e+12
5.3109415e+12
5.3125653e+12
5.3135278e+12
5.3142346e+12
5.3152332e+12
5.3154448e+12
5.3154447e+12
5.315233e+12
5.3142342e+12
5.3135273e+12
5.3125648e+12
5.3109409e+12
5.3059924e+12
5.2986905e+12
5.2626576e+12
5.1393077e+12
4.3559245e+12
4.4950031e+12
4.5401958e+12
4.5530412e+12
4.5606869e+12
4.5633454e+12
4.5652311e+12
4.5666095e+12
4.5699251e+12
4.5703539e+12
4.5703539e+12
4.5699249e+12
4.5666091e+12
4.5652305e+12
4.5633447e+12
4.5606862e+12
4.5530403e+12
4.5401948e+12
4.4950021e+12
4.3559234e+12
3.507385e+12
3.6519875e+12
3.7073878e+12
3.7252582e+12
3.7341034e+12
3.7374241e+12
3.7400658e+12
3.7419986e+12
3.7471205e+12
3.7477196e+12
3.7477196e+12
3.7471203e+12
3.7419982e+12
3.7400653e+12
3.7374235e+12
3.7341028e+12
3.7252574e+12
3.7073869e+12
3.6519867e+12
3.5073844e+12
2.6372784e+12
2.7738843e+12
2.838475e+12
2.8615502e+12
2.869381e+12
2.872657e+12
2.8801945e+12
2.8823109e+12
2.8867095e+12
2.8873051e+12
2.887305e+12
2.8867094e+12
2.8823107e+12
2.8801943e+12
2.8726566e+12
2.8693805e+12
2.8615497e+12
2.8384745e+12
2.773884e+12
2.6372786e+12
0
0
0
0
0
0
0
0
0
0
0
0
0
0
0
0
0
0
0
0
0
0
0
0
0
0
0
0
0
0
0
0
0
0
0
0
0
0
0
0
0
0
0
0
0
0
0
0
0
0
0
0
0
0
0
0
0
0
0
0
0
0
0
0
0
0
0
0
0
0
0
0
0
0
0
0
0
0
0
0
0
0
0
0
0
0
0
0
0
0
0
0
0
0
0
0
0
0
0
0
0
0
0
0
0
0
0
0
0
0
0
0
0
0
0
0
0
0
0
0
0
0
0
0
0
0
0
0
0
0
0
0
0
0
0
0
0
0
0
0
0
0
0
0
0
0
0
0
0
0
0
0
0
0
0
0
0
0
0
0
0
0
0
0
0
0
0
0
0
0
0
0
0
0
0
0
0
0
0
0
0
0
0
0
0
0
0
0
0
0
0
0
0
0
0
0
0
0
0
0
0
0
0
0
0
0
0
0
0
0
0
0
0
0
0
0
0
0
0
0
0
0
0
0
0
0
0
0
0
0
0
0
0
0
0
0
0
0
0
0
0
0
0
0
0
0
0
0
0
0
0
0
0
0
0
0
0
0
0
0
0
0
0
0
0
0
0
0
0
0
0
0
0
0
0
0
0
0
0
0
0
0
0
0
0
0
0
0
0
0
0
0
0
0
0
0
0
0
0
0
0
0
0
0
0
0
0
0
0
0
0
0
0
0
0
0
0
0
0
0
0
0
0
0
0
0
0
0
0
0
0
0
0
0
0
0
0
0
0
0
0
0
0
0
0
0
0
0
0
0
0
0
0
0
0
0
0
0
0
0
0
0
0
0
0
0
0
0
0
0
0
0
0
0
0
0
0
0
0
0
0
0
0
0
0
0
0
0
0
0
0
0
0
0
0
0
0
0
0
0
0
0
0
0
0
0
0
0
0
0
0
0
0
0
0
0
0
0
0
0
0
0
0
0
0
0
0
0
0
0
0
0
0
0
0
0
0
0
0
0
0
0
0
0
0
0
0
0
0
0
0
0
0
0
0
0
0
0
0
0
0
0
0
0
0
0
0
0
0
0
0
0
0
0
0
0
0
0
0
0
)
;

boundaryField
{
    Wall
    {
        type            zeroGradient;
    }
    frontAndBack
    {
        type            empty;
    }
    atmosphere
    {
        type            zeroGradient;
    }
}


// ************************************************************************* //
