/*--------------------------------*- C++ -*----------------------------------*\
| =========                 |                                                 |
| \\      /  F ield         | OpenFOAM: The Open Source CFD Toolbox           |
|  \\    /   O peration     | Version:  3.0.1                                 |
|   \\  /    A nd           | Web:      www.OpenFOAM.org                      |
|    \\/     M anipulation  |                                                 |
\*---------------------------------------------------------------------------*/
FoamFile
{
    version     2.0;
    format      ascii;
    class       volScalarField;
    location    "25";
    object      XOH;
}
// * * * * * * * * * * * * * * * * * * * * * * * * * * * * * * * * * * * * * //

dimensions      [0 0 0 0 0 0 0];

internalField   nonuniform List<scalar> 
800
(
0.14024198
0.14025165
0.14025301
0.14025318
0.14025323
0.14025327
0.14025332
0.14025337
0.1402534
0.14025341
0.14025341
0.1402534
0.14025337
0.14025332
0.14025327
0.14025323
0.14025318
0.14025301
0.14025165
0.14024198
0.1337209
0.1339163
0.13395315
0.13395905
0.13395886
0.13395825
0.13395813
0.13395836
0.13395867
0.13395886
0.13395886
0.13395867
0.13395836
0.13395813
0.13395825
0.13395886
0.13395905
0.13395315
0.1339163
0.13372089
0.1279296
0.12823649
0.12830932
0.128323
0.12832416
0.1283236
0.1283235
0.12832386
0.12832432
0.12832461
0.12832461
0.12832432
0.12832386
0.1283235
0.1283236
0.12832416
0.128323
0.12830931
0.12823648
0.12792959
0.12274099
0.12314974
0.12325146
0.12327054
0.1232724
0.12327157
0.12327129
0.12327159
0.12327209
0.12327242
0.12327242
0.12327208
0.12327159
0.12327129
0.12327157
0.1232724
0.12327054
0.12325146
0.12314973
0.12274099
0.11799747
0.11850478
0.11863413
0.11865824
0.11866032
0.11865886
0.1186582
0.11865829
0.11865872
0.11865904
0.11865904
0.11865872
0.11865829
0.1186582
0.11865886
0.11866032
0.11865824
0.11863413
0.11850478
0.11799747
0.11349235
0.11410547
0.11426574
0.11429578
0.11429804
0.11429582
0.11429469
0.1142945
0.11429484
0.11429512
0.11429512
0.11429484
0.1142945
0.11429469
0.11429582
0.11429804
0.11429578
0.11426574
0.11410547
0.11349235
0.10897214
0.10971458
0.10990986
0.10994749
0.1099502
0.10994733
0.10994583
0.10994545
0.10994577
0.10994604
0.10994604
0.10994577
0.10994544
0.10994583
0.10994733
0.1099502
0.10994749
0.10990986
0.10971458
0.10897214
0.10413683
0.10504704
0.10528538
0.10533295
0.10533631
0.10533318
0.1053317
0.10533144
0.10533196
0.10533233
0.10533233
0.10533196
0.10533144
0.1053317
0.10533318
0.10533631
0.10533295
0.10528539
0.10504704
0.10413683
0.098634192
0.099762027
0.10005875
0.10011931
0.10012515
0.10012213
0.10012156
0.10012214
0.10012326
0.10012395
0.10012395
0.10012326
0.10012213
0.10012156
0.10012212
0.10012515
0.10011932
0.10005875
0.099762032
0.098634194
0.092053391
0.093456104
0.093835351
0.093912127
0.093922789
0.093922782
0.093925079
0.093927754
0.093930138
0.093931514
0.093931514
0.093930136
0.093927751
0.093925077
0.093922781
0.093922789
0.09391213
0.093835354
0.093456107
0.09205339
0.083918077
0.08565046
0.086145751
0.086242285
0.086265424
0.086273575
0.086281863
0.086288601
0.086292987
0.08629556
0.086295559
0.086292984
0.086288598
0.08628186
0.086273573
0.086265423
0.086242285
0.086145751
0.085650458
0.08391807
0.073694325
0.075829191
0.076446228
0.076568341
0.076645731
0.076667652
0.076685624
0.076699031
0.076705914
0.076710478
0.076710477
0.076705912
0.076699027
0.07668562
0.076667648
0.076645727
0.076568338
0.076446224
0.075829184
0.073694311
0.060860553
0.063504147
0.064179027
0.064405189
0.064558209
0.064597201
0.064627177
0.064651152
0.064671784
0.064680931
0.064680931
0.064671782
0.064651148
0.064627172
0.064597196
0.064558204
0.064405183
0.064179019
0.063504136
0.060860537
0.045207758
0.048237838
0.049054875
0.049345103
0.049533683
0.049584403
0.049622714
0.049654484
0.049900679
0.049913122
0.049913122
0.049900677
0.049654482
0.049622711
0.049584399
0.049533678
0.049345097
0.049054867
0.048237829
0.045207747
0.026685593
0.029949284
0.031118625
0.031342202
0.031489126
0.031534134
0.03157794
0.03160762
0.031881449
0.031893031
0.031893031
0.031881448
0.03160762
0.031577939
0.031534132
0.031489123
0.031342198
0.031118621
0.029949279
0.026685591
0.0039815866
0.0078283488
0.0096111921
0.0096823252
0.0097318837
0.0097529613
0.011114197
0.011129991
0.011229684
0.011234897
0.011234897
0.011229685
0.011129992
0.011114199
0.0097529622
0.0097318844
0.0096823257
0.0096111925
0.0078283491
0.003981587
1e-150
1e-150
1e-150
1e-150
1e-150
1e-150
1e-150
1e-150
1e-150
1e-150
1e-150
1e-150
1e-150
1e-150
1e-150
1e-150
1e-150
1e-150
1e-150
1e-150
1e-150
1e-150
1e-150
1e-150
1e-150
1e-150
1e-150
1e-150
1e-150
1e-150
1e-150
1e-150
1e-150
1e-150
1e-150
1e-150
1e-150
1e-150
1e-150
1e-150
1e-150
1e-150
1e-150
1e-150
1e-150
1e-150
1e-150
1e-150
1e-150
1e-150
1e-150
1e-150
1e-150
1e-150
1e-150
1e-150
1e-150
1e-150
1e-150
1e-150
1e-150
1e-150
1e-150
1e-150
1e-150
1e-150
1e-150
1e-150
1e-150
1e-150
1e-150
1e-150
1e-150
1e-150
1e-150
1e-150
1e-150
1e-150
1e-150
1e-150
1e-150
1e-150
1e-150
1e-150
1e-150
1e-150
1e-150
1e-150
1e-150
1e-150
1e-150
1e-150
1e-150
1e-150
1e-150
1e-150
1e-150
1e-150
1e-150
1e-150
1e-150
1e-150
1e-150
1e-150
1e-150
1e-150
1e-150
1e-150
1e-150
1e-150
1e-150
1e-150
1e-150
1e-150
1e-150
1e-150
1e-150
1e-150
1e-150
1e-150
1e-150
1e-150
1e-150
1e-150
1e-150
1e-150
1e-150
1e-150
1e-150
1e-150
1e-150
1e-150
1e-150
1e-150
1e-150
1e-150
1e-150
1e-150
1e-150
1e-150
1e-150
1e-150
1e-150
1e-150
1e-150
1e-150
1e-150
1e-150
1e-150
1e-150
1e-150
1e-150
1e-150
1e-150
1e-150
1e-150
1e-150
1e-150
1e-150
1e-150
1e-150
1e-150
1e-150
1e-150
1e-150
1e-150
1e-150
1e-150
1e-150
1e-150
1e-150
1e-150
1e-150
1e-150
1e-150
1e-150
1e-150
1e-150
1e-150
1e-150
1e-150
1e-150
1e-150
1e-150
1e-150
1e-150
1e-150
1e-150
1e-150
1e-150
1e-150
1e-150
1e-150
1e-150
1e-150
1e-150
1e-150
1e-150
1e-150
1e-150
1e-150
1e-150
1e-150
1e-150
1e-150
1e-150
1e-150
1e-150
1e-150
1e-150
1e-150
1e-150
1e-150
1e-150
1e-150
1e-150
1e-150
1e-150
1e-150
1e-150
1e-150
1e-150
1e-150
1e-150
1e-150
1e-150
1e-150
1e-150
1e-150
1e-150
1e-150
1e-150
1e-150
1e-150
1e-150
1e-150
1e-150
1e-150
1e-150
1e-150
1e-150
1e-150
1e-150
1e-150
1e-150
1e-150
1e-150
1e-150
1e-150
1e-150
1e-150
1e-150
1e-150
1e-150
1e-150
1e-150
1e-150
1e-150
1e-150
1e-150
1e-150
1e-150
1e-150
1e-150
1e-150
1e-150
1e-150
1e-150
1e-150
1e-150
1e-150
1e-150
1e-150
1e-150
1e-150
1e-150
1e-150
1e-150
1e-150
1e-150
1e-150
1e-150
1e-150
1e-150
1e-150
1e-150
1e-150
1e-150
1e-150
1e-150
1e-150
1e-150
1e-150
1e-150
1e-150
1e-150
1e-150
1e-150
1e-150
1e-150
1e-150
1e-150
1e-150
1e-150
1e-150
1e-150
1e-150
1e-150
1e-150
1e-150
1e-150
1e-150
1e-150
1e-150
1e-150
1e-150
1e-150
1e-150
1e-150
1e-150
1e-150
1e-150
1e-150
1e-150
1e-150
1e-150
1e-150
1e-150
1e-150
1e-150
1e-150
1e-150
1e-150
1e-150
1e-150
1e-150
1e-150
1e-150
1e-150
1e-150
1e-150
1e-150
1e-150
1e-150
1e-150
1e-150
1e-150
1e-150
1e-150
1e-150
1e-150
1e-150
1e-150
1e-150
1e-150
1e-150
1e-150
1e-150
1e-150
1e-150
1e-150
1e-150
1e-150
1e-150
1e-150
1e-150
1e-150
1e-150
1e-150
1e-150
1e-150
1e-150
1e-150
1e-150
1e-150
1e-150
1e-150
1e-150
1e-150
1e-150
1e-150
1e-150
1e-150
1e-150
1e-150
1e-150
1e-150
1e-150
1e-150
1e-150
1e-150
1e-150
1e-150
1e-150
1e-150
1e-150
1e-150
1e-150
1e-150
1e-150
1e-150
1e-150
1e-150
1e-150
1e-150
1e-150
1e-150
1e-150
1e-150
1e-150
1e-150
1e-150
1e-150
1e-150
1e-150
1e-150
1e-150
1e-150
1e-150
1e-150
1e-150
1e-150
1e-150
1e-150
1e-150
1e-150
1e-150
1e-150
1e-150
1e-150
1e-150
1e-150
1e-150
1e-150
1e-150
1e-150
1e-150
1e-150
1e-150
1e-150
1e-150
1e-150
1e-150
1e-150
1e-150
1e-150
1e-150
1e-150
1e-150
1e-150
1e-150
1e-150
1e-150
1e-150
1e-150
1e-150
1e-150
1e-150
1e-150
1e-150
1e-150
1e-150
1e-150
1e-150
1e-150
1e-150
1e-150
1e-150
1e-150
1e-150
1e-150
1e-150
1e-150
1e-150
1e-150
1e-150
1e-150
1e-150
1e-150
1e-150
)
;

boundaryField
{
    Wall
    {
        type            zeroGradient;
    }
    frontAndBack
    {
        type            empty;
    }
    atmosphere
    {
        type            zeroGradient;
    }
}


// ************************************************************************* //
