/*--------------------------------*- C++ -*----------------------------------*\
| =========                 |                                                 |
| \\      /  F ield         | OpenFOAM: The Open Source CFD Toolbox           |
|  \\    /   O peration     | Version:  3.0.1                                 |
|   \\  /    A nd           | Web:      www.OpenFOAM.org                      |
|    \\/     M anipulation  |                                                 |
\*---------------------------------------------------------------------------*/
FoamFile
{
    version     2.0;
    format      ascii;
    class       volScalarField;
    location    "25";
    object      XW;
}
// * * * * * * * * * * * * * * * * * * * * * * * * * * * * * * * * * * * * * //

dimensions      [0 0 0 0 0 0 0];

internalField   nonuniform List<scalar> 
800
(
0.59828512
0.59830807
0.59831122
0.5983116
0.59831172
0.59831182
0.59831193
0.59831203
0.59831209
0.59831212
0.59831212
0.59831209
0.59831203
0.59831193
0.59831182
0.59831172
0.59831161
0.59831122
0.59830807
0.59828512
0.58108197
0.58159716
0.58169361
0.58170942
0.58170931
0.58170806
0.58170801
0.58170881
0.58170973
0.58171028
0.58171029
0.58170973
0.58170881
0.58170801
0.58170806
0.58170931
0.58170941
0.58169361
0.58159715
0.58108195
0.56478415
0.56563915
0.56583902
0.56587729
0.56588105
0.56587993
0.56587989
0.56588102
0.56588237
0.56588322
0.56588322
0.56588237
0.56588102
0.56587989
0.56587992
0.56588105
0.56587728
0.56583901
0.56563914
0.56478413
0.54906669
0.55027555
0.55056641
0.55062157
0.55062749
0.55062538
0.55062465
0.55062553
0.55062692
0.55062786
0.55062786
0.55062692
0.55062552
0.55062465
0.55062537
0.55062748
0.55062156
0.5505664
0.55027554
0.54906667
0.53347739
0.53507746
0.53546153
0.53553374
0.53554049
0.53553626
0.5355342
0.53553434
0.5355355
0.53553638
0.53553638
0.5355355
0.53553433
0.53553419
0.53553625
0.53554048
0.53553373
0.53546151
0.53507745
0.53347737
0.51738231
0.51944669
0.51993847
0.52003147
0.52003883
0.52003201
0.52002834
0.52002758
0.52002849
0.52002928
0.52002928
0.52002849
0.52002757
0.52002833
0.520032
0.52003882
0.52003146
0.51993846
0.51944668
0.5173823
0.49995765
0.50261256
0.5032382
0.50335762
0.5033661
0.50335692
0.50335201
0.50335073
0.50335171
0.50335257
0.50335257
0.5033517
0.50335072
0.50335199
0.50335691
0.50336609
0.50335761
0.50323819
0.50261256
0.49995764
0.48017723
0.48359702
0.48441116
0.48456434
0.48457335
0.4845628
0.48455796
0.48455742
0.48455931
0.4845607
0.4845607
0.4845593
0.48455741
0.48455795
0.48456279
0.48457334
0.48456434
0.48441116
0.48359702
0.48017723
0.45676916
0.46116926
0.46226298
0.46245918
0.46247386
0.46246241
0.46246081
0.46246362
0.46246799
0.46247073
0.46247073
0.46246798
0.46246361
0.4624608
0.4624624
0.46247386
0.46245918
0.46226298
0.46116926
0.45676915
0.42812387
0.43376224
0.43526545
0.43551382
0.43554018
0.43553783
0.43554659
0.43555737
0.43556656
0.43557202
0.43557202
0.43556655
0.43555735
0.43554657
0.43553781
0.43554017
0.43551381
0.43526544
0.43376223
0.42812384
0.39225881
0.39940256
0.40148335
0.4017946
0.4018568
0.40188172
0.40191228
0.40193828
0.40195481
0.4019649
0.40196489
0.4019548
0.40193827
0.40191226
0.4018817
0.40185678
0.40179458
0.40148333
0.39940253
0.39225876
0.34681962
0.35590901
0.35855638
0.35895132
0.35928441
0.35935924
0.35942612
0.35947756
0.35950179
0.35951956
0.35951955
0.35950177
0.35947754
0.35942609
0.35935921
0.35928438
0.35895129
0.35855634
0.35590896
0.34681954
0.28919935
0.3009233
0.3038104
0.30472528
0.30543351
0.30557578
0.30569005
0.30578287
0.30585251
0.30588772
0.30588771
0.3058525
0.30578285
0.30569003
0.30557575
0.30543348
0.30472524
0.30381035
0.30092324
0.28919927
0.21748172
0.23144812
0.23510107
0.23636238
0.23724201
0.23743803
0.23758934
0.2377173
0.23891499
0.23896511
0.2389651
0.23891498
0.23771728
0.23758932
0.23743801
0.23724198
0.23636234
0.23510103
0.23144807
0.21748166
0.12986043
0.14547569
0.15103045
0.15202732
0.15271598
0.15289896
0.15307152
0.15319553
0.1545325
0.15458124
0.15458124
0.1545325
0.15319553
0.15307152
0.15289895
0.15271597
0.15202731
0.15103043
0.14547566
0.12986042
0.019516521
0.038334201
0.047045456
0.047363005
0.047594274
0.047683945
0.054359678
0.054427329
0.054912546
0.054934955
0.054934957
0.05491255
0.054427333
0.054359683
0.047683949
0.047594276
0.047363007
0.047045458
0.038334202
0.019516523
1e-150
1e-150
1e-150
1e-150
1e-150
1e-150
1e-150
1e-150
1e-150
1e-150
1e-150
1e-150
1e-150
1e-150
1e-150
1e-150
1e-150
1e-150
1e-150
1e-150
1e-150
1e-150
1e-150
1e-150
1e-150
1e-150
1e-150
1e-150
1e-150
1e-150
1e-150
1e-150
1e-150
1e-150
1e-150
1e-150
1e-150
1e-150
1e-150
1e-150
1e-150
1e-150
1e-150
1e-150
1e-150
1e-150
1e-150
1e-150
1e-150
1e-150
1e-150
1e-150
1e-150
1e-150
1e-150
1e-150
1e-150
1e-150
1e-150
1e-150
1e-150
1e-150
1e-150
1e-150
1e-150
1e-150
1e-150
1e-150
1e-150
1e-150
1e-150
1e-150
1e-150
1e-150
1e-150
1e-150
1e-150
1e-150
1e-150
1e-150
1e-150
1e-150
1e-150
1e-150
1e-150
1e-150
1e-150
1e-150
1e-150
1e-150
1e-150
1e-150
1e-150
1e-150
1e-150
1e-150
1e-150
1e-150
1e-150
1e-150
1e-150
1e-150
1e-150
1e-150
1e-150
1e-150
1e-150
1e-150
1e-150
1e-150
1e-150
1e-150
1e-150
1e-150
1e-150
1e-150
1e-150
1e-150
1e-150
1e-150
1e-150
1e-150
1e-150
1e-150
1e-150
1e-150
1e-150
1e-150
1e-150
1e-150
1e-150
1e-150
1e-150
1e-150
1e-150
1e-150
1e-150
1e-150
1e-150
1e-150
1e-150
1e-150
1e-150
1e-150
1e-150
1e-150
1e-150
1e-150
1e-150
1e-150
1e-150
1e-150
1e-150
1e-150
1e-150
1e-150
1e-150
1e-150
1e-150
1e-150
1e-150
1e-150
1e-150
1e-150
1e-150
1e-150
1e-150
1e-150
1e-150
1e-150
1e-150
1e-150
1e-150
1e-150
1e-150
1e-150
1e-150
1e-150
1e-150
1e-150
1e-150
1e-150
1e-150
1e-150
1e-150
1e-150
1e-150
1e-150
1e-150
1e-150
1e-150
1e-150
1e-150
1e-150
1e-150
1e-150
1e-150
1e-150
1e-150
1e-150
1e-150
1e-150
1e-150
1e-150
1e-150
1e-150
1e-150
1e-150
1e-150
1e-150
1e-150
1e-150
1e-150
1e-150
1e-150
1e-150
1e-150
1e-150
1e-150
1e-150
1e-150
1e-150
1e-150
1e-150
1e-150
1e-150
1e-150
1e-150
1e-150
1e-150
1e-150
1e-150
1e-150
1e-150
1e-150
1e-150
1e-150
1e-150
1e-150
1e-150
1e-150
1e-150
1e-150
1e-150
1e-150
1e-150
1e-150
1e-150
1e-150
1e-150
1e-150
1e-150
1e-150
1e-150
1e-150
1e-150
1e-150
1e-150
1e-150
1e-150
1e-150
1e-150
1e-150
1e-150
1e-150
1e-150
1e-150
1e-150
1e-150
1e-150
1e-150
1e-150
1e-150
1e-150
1e-150
1e-150
1e-150
1e-150
1e-150
1e-150
1e-150
1e-150
1e-150
1e-150
1e-150
1e-150
1e-150
1e-150
1e-150
1e-150
1e-150
1e-150
1e-150
1e-150
1e-150
1e-150
1e-150
1e-150
1e-150
1e-150
1e-150
1e-150
1e-150
1e-150
1e-150
1e-150
1e-150
1e-150
1e-150
1e-150
1e-150
1e-150
1e-150
1e-150
1e-150
1e-150
1e-150
1e-150
1e-150
1e-150
1e-150
1e-150
1e-150
1e-150
1e-150
1e-150
1e-150
1e-150
1e-150
1e-150
1e-150
1e-150
1e-150
1e-150
1e-150
1e-150
1e-150
1e-150
1e-150
1e-150
1e-150
1e-150
1e-150
1e-150
1e-150
1e-150
1e-150
1e-150
1e-150
1e-150
1e-150
1e-150
1e-150
1e-150
1e-150
1e-150
1e-150
1e-150
1e-150
1e-150
1e-150
1e-150
1e-150
1e-150
1e-150
1e-150
1e-150
1e-150
1e-150
1e-150
1e-150
1e-150
1e-150
1e-150
1e-150
1e-150
1e-150
1e-150
1e-150
1e-150
1e-150
1e-150
1e-150
1e-150
1e-150
1e-150
1e-150
1e-150
1e-150
1e-150
1e-150
1e-150
1e-150
1e-150
1e-150
1e-150
1e-150
1e-150
1e-150
1e-150
1e-150
1e-150
1e-150
1e-150
1e-150
1e-150
1e-150
1e-150
1e-150
1e-150
1e-150
1e-150
1e-150
1e-150
1e-150
1e-150
1e-150
1e-150
1e-150
1e-150
1e-150
1e-150
1e-150
1e-150
1e-150
1e-150
1e-150
1e-150
1e-150
1e-150
1e-150
1e-150
1e-150
1e-150
1e-150
1e-150
1e-150
1e-150
1e-150
1e-150
1e-150
1e-150
1e-150
1e-150
1e-150
1e-150
1e-150
1e-150
1e-150
1e-150
1e-150
1e-150
1e-150
1e-150
1e-150
1e-150
1e-150
1e-150
1e-150
1e-150
1e-150
1e-150
1e-150
1e-150
1e-150
1e-150
1e-150
1e-150
1e-150
1e-150
1e-150
1e-150
1e-150
1e-150
1e-150
1e-150
1e-150
1e-150
1e-150
1e-150
)
;

boundaryField
{
    Wall
    {
        type            zeroGradient;
    }
    frontAndBack
    {
        type            empty;
    }
    atmosphere
    {
        type            zeroGradient;
    }
}


// ************************************************************************* //
