/*--------------------------------*- C++ -*----------------------------------*\
| =========                 |                                                 |
| \\      /  F ield         | OpenFOAM: The Open Source CFD Toolbox           |
|  \\    /   O peration     | Version:  3.0.1                                 |
|   \\  /    A nd           | Web:      www.OpenFOAM.org                      |
|    \\/     M anipulation  |                                                 |
\*---------------------------------------------------------------------------*/
FoamFile
{
    version     2.0;
    format      ascii;
    class       volScalarField;
    location    "5";
    object      M2;
}
// * * * * * * * * * * * * * * * * * * * * * * * * * * * * * * * * * * * * * //

dimensions      [0 0 0 0 0 0 0];

internalField   nonuniform List<scalar> 
800
(
4.4491708e-16
4.4491269e-16
4.4491108e-16
4.4491159e-16
4.4491197e-16
4.4491216e-16
4.4491229e-16
4.4491238e-16
4.4491243e-16
4.4491244e-16
4.4491245e-16
4.4491243e-16
4.4491238e-16
4.4491229e-16
4.4491217e-16
4.4491197e-16
4.449116e-16
4.4491109e-16
4.4491268e-16
4.4491708e-16
3.5974528e-17
3.5951484e-17
3.5956822e-17
3.5959862e-17
3.5961141e-17
3.5961636e-17
3.5961808e-17
3.5961859e-17
3.596187e-17
3.596187e-17
3.596187e-17
3.596187e-17
3.5961859e-17
3.5961808e-17
3.5961636e-17
3.5961141e-17
3.5959862e-17
3.5956823e-17
3.5951484e-17
3.5974528e-17
1.287747e-18
1.2881033e-18
1.2890648e-18
1.2893867e-18
1.2894926e-18
1.2895222e-18
1.2895265e-18
1.2895238e-18
1.2895204e-18
1.2895184e-18
1.2895185e-18
1.2895204e-18
1.2895238e-18
1.2895265e-18
1.2895222e-18
1.2894926e-18
1.2893867e-18
1.2890649e-18
1.2881033e-18
1.2877472e-18
4.5937502e-20
4.8279792e-20
4.8350184e-20
4.835576e-20
4.8354453e-20
4.8351381e-20
4.8348666e-20
4.8346744e-20
4.8345535e-20
4.8344909e-20
4.8344903e-20
4.8345514e-20
4.8346714e-20
4.8348632e-20
4.8351344e-20
4.8354408e-20
4.8355697e-20
4.8350085e-20
4.8279637e-20
4.5937328e-20
1.7619061e-21
2.0068132e-21
2.0120713e-21
2.0111078e-21
2.0100401e-21
2.0091592e-21
2.0085419e-21
2.0081462e-21
2.007912e-21
2.0077981e-21
2.0077971e-21
2.0079091e-21
2.008142e-21
2.0085368e-21
2.0091531e-21
2.0100323e-21
2.0110964e-21
2.0120542e-21
2.0067873e-21
1.7618771e-21
5.9680301e-23
7.4093099e-23
7.4499794e-23
7.443009e-23
7.4332859e-23
7.4250217e-23
7.4191723e-23
7.4154057e-23
7.4131872e-23
7.4121413e-23
7.4121343e-23
7.4131641e-23
7.4153705e-23
7.4191277e-23
7.4249659e-23
7.4332128e-23
7.4429025e-23
7.4498215e-23
7.4090778e-23
5.9677871e-23
1.8437253e-24
2.4956217e-24
2.5206863e-24
2.5189353e-24
2.5141376e-24
2.5096038e-24
2.5062482e-24
2.5040312e-24
2.5027073e-24
2.5020834e-24
2.5020788e-24
2.5026927e-24
2.5040092e-24
2.5062202e-24
2.5095688e-24
2.5140925e-24
2.5188716e-24
2.5205934e-24
2.4954887e-24
1.8435981e-24
5.2234014e-26
7.7128154e-26
7.8335924e-26
7.8348348e-26
7.8174835e-26
7.7988546e-26
7.7843803e-26
7.7745509e-26
7.7685818e-26
7.7657501e-26
7.7657265e-26
7.7685092e-26
7.7744402e-26
7.7842424e-26
7.7986886e-26
7.8172768e-26
7.8345539e-26
7.8331956e-26
7.7122637e-26
5.222925e-26
1.3914656e-27
2.2420818e-27
2.2911996e-27
2.2945398e-27
2.2893731e-27
2.2829348e-27
2.2776867e-27
2.2740287e-27
2.2717717e-27
2.2706926e-27
2.2706822e-27
2.2717404e-27
2.2739809e-27
2.277628e-27
2.2828668e-27
2.2892932e-27
2.2944382e-27
2.2910628e-27
2.2418986e-27
1.3913244e-27
3.4967167e-29
6.1396172e-29
6.3143089e-29
6.3336227e-29
6.3205168e-29
6.3009437e-29
6.28423e-29
6.2723055e-29
6.2648426e-29
6.2612477e-29
6.2612069e-29
6.2647227e-29
6.2721231e-29
6.284009e-29
6.3006958e-29
6.3202398e-29
6.3332949e-29
6.3138976e-29
6.1390977e-29
3.4963644e-29
8.3216846e-31
1.590249e-30
1.6461853e-30
1.6541823e-30
1.6513304e-30
1.6459473e-30
1.6411375e-30
1.6376339e-30
1.6354144e-30
1.634338e-30
1.6343239e-30
1.6353731e-30
1.637571e-30
1.6410615e-30
1.6458635e-30
1.6512406e-30
1.6540831e-30
1.6460701e-30
1.5901136e-30
8.3208859e-31
1.8791492e-32
3.9066177e-32
4.0709482e-32
4.0986373e-32
4.0934902e-32
4.0798815e-32
4.0671586e-32
4.0577177e-32
4.0516747e-32
4.0487262e-32
4.0486819e-32
4.0515455e-32
4.0575205e-32
4.0669192e-32
4.079618e-32
4.0932134e-32
4.098345e-32
4.0706297e-32
3.9062703e-32
1.8789704e-32
4.0116962e-34
9.076362e-34
9.5220328e-34
9.6062775e-34
9.5995839e-34
9.5677896e-34
9.5366572e-34
9.5131628e-34
9.4979937e-34
9.4905544e-34
9.4904293e-34
9.4976305e-34
9.5126061e-34
9.5359723e-34
9.5670302e-34
9.5987864e-34
9.6054482e-34
9.5211605e-34
9.0754569e-34
4.0112799e-34
8.0795829e-36
1.9895622e-35
2.1014446e-35
2.1244782e-35
2.1243232e-35
2.1174383e-35
2.1103645e-35
2.1049431e-35
2.1014167e-35
2.0996802e-35
2.0996488e-35
2.1013252e-35
2.1048016e-35
2.1101884e-35
2.1172401e-35
2.1241127e-35
2.1242578e-35
2.1012142e-35
1.9893281e-35
8.0785939e-36
1.5476756e-37
4.1484222e-37
4.4116628e-37
4.4695623e-37
4.47223e-37
4.458242e-37
4.4431234e-37
4.4313683e-37
4.4236735e-37
4.4198731e-37
4.4198013e-37
4.423465e-37
4.4310431e-37
4.4427131e-37
4.4577729e-37
4.4717229e-37
4.4690229e-37
4.4110938e-37
4.1478433e-37
1.547447e-37
2.8115834e-39
8.1991767e-39
8.7790681e-39
8.9135887e-39
8.9251641e-39
8.898531e-39
8.8681472e-39
8.8441971e-39
8.8284351e-39
8.8206324e-39
8.8204846e-39
8.8280021e-39
8.843517e-39
8.8672788e-39
8.8975245e-39
8.9240571e-39
8.9123903e-39
8.7777841e-39
8.1978584e-39
2.811095e-39
4.8223779e-41
1.5299176e-40
1.6493521e-40
1.6782977e-40
1.681693e-40
1.6769527e-40
1.6712206e-40
1.6666422e-40
1.6636149e-40
1.6621137e-40
1.6620856e-40
1.6635326e-40
1.6665122e-40
1.6710533e-40
1.6767567e-40
1.6814742e-40
1.6780568e-40
1.6490899e-40
1.5296455e-40
4.8214351e-41
7.7563992e-43
2.6782276e-42
2.9072365e-42
2.9648221e-42
2.9730296e-42
2.9651932e-42
2.9550917e-42
2.9469178e-42
2.9414896e-42
2.9387945e-42
2.9387451e-42
2.9413448e-42
2.9466884e-42
2.9547947e-42
2.9648424e-42
2.9726341e-42
2.9643816e-42
2.9067516e-42
2.6777206e-42
7.7547687e-43
1.1578268e-44
4.3531191e-44
4.7580688e-44
4.8631589e-44
4.8803193e-44
4.8684132e-44
4.8519416e-44
4.8384389e-44
4.8294355e-44
4.8249597e-44
4.8248793e-44
4.829199e-44
4.8380633e-44
4.8514534e-44
4.8678335e-44
4.8796619e-44
4.8624226e-44
4.7572527e-44
4.3522658e-44
1.1575739e-44
1.6028492e-46
6.5615093e-46
7.221536e-46
7.3975893e-46
7.4293918e-46
7.4127963e-46
7.3879533e-46
7.3673198e-46
7.3535082e-46
7.3466338e-46
7.3465087e-46
7.3531421e-46
7.3667361e-46
7.3871932e-46
7.4118924e-46
7.428365e-46
7.3964391e-46
7.2202631e-46
6.5601888e-46
1.6024911e-46
2.0687136e-48
9.219723e-48
1.0217777e-47
1.0490549e-47
1.0543821e-47
1.0522489e-47
1.0487604e-47
1.0458245e-47
1.0438518e-47
1.0428683e-47
1.0428496e-47
1.0437969e-47
1.0457371e-47
1.0486463e-47
1.0521133e-47
1.0542281e-47
1.0488831e-47
1.0215893e-47
9.2177975e-48
2.0682385e-48
2.4074695e-50
1.1666976e-49
1.3019981e-49
1.3398047e-49
1.3476607e-49
1.3452209e-49
1.3408118e-49
1.3370514e-49
1.3345152e-49
1.3332486e-49
1.3332224e-49
1.3344386e-49
1.3369294e-49
1.3406522e-49
1.345031e-49
1.3474452e-49
1.3395657e-49
1.3017394e-49
1.1664386e-49
2.4068894e-50
2.4061121e-52
1.2675023e-51
1.4244543e-51
1.4692114e-51
1.478993e-51
1.4766308e-51
1.471845e-51
1.4677088e-51
1.4649088e-51
1.4635076e-51
1.4634757e-51
1.464815e-51
1.4675591e-51
1.4716484e-51
1.476396e-51
1.4787267e-51
1.4689176e-51
1.4241402e-51
1.2671946e-51
2.405486e-52
1.8724673e-54
1.0730075e-53
1.2146532e-53
1.2558388e-53
1.2652351e-53
1.2634928e-53
1.2594451e-53
1.2558982e-53
1.2534876e-53
1.2522787e-53
1.2522481e-53
1.2533977e-53
1.2557539e-53
1.2592547e-53
1.2632642e-53
1.2649751e-53
1.2555526e-53
1.2143502e-53
1.0727164e-53
1.8719282e-54
8.523034e-57
5.3007767e-56
6.0465669e-56
6.2679264e-56
6.3203194e-56
6.3130382e-56
6.2930203e-56
6.2752284e-56
6.2630908e-56
6.2569894e-56
6.2568192e-56
6.2625881e-56
6.2744204e-56
6.2919474e-56
6.3117421e-56
6.3188396e-56
6.2662973e-56
6.0448519e-56
5.2991532e-56
8.5202797e-57
2.875297e-60
1.9364088e-59
2.2880311e-59
2.4042265e-59
2.4332407e-59
2.4320097e-59
2.4241646e-59
2.4169482e-59
2.4119951e-59
2.4095021e-59
2.409431e-59
2.411785e-59
2.416609e-59
2.4237111e-59
2.4314574e-59
2.432606e-59
2.4035276e-59
2.2873049e-59
1.9357467e-59
2.8742598e-60
1.9287725e-63
2.3335962e-62
3.6608963e-62
4.2219563e-62
4.380088e-62
4.4020498e-62
4.3918301e-62
4.3787163e-62
4.3692218e-62
4.3643933e-62
4.364265e-62
4.3688373e-62
4.3780889e-62
4.390978e-62
4.4009951e-62
4.3788626e-62
4.2206296e-62
3.65964e-62
2.3327335e-62
1.9280119e-63
5.1908901e-66
1.5595642e-64
3.0419555e-64
3.7182449e-64
3.9199503e-64
3.9582266e-64
3.9558481e-64
3.9473789e-64
3.9406872e-64
3.9372071e-64
3.9370888e-64
3.9403316e-64
3.946795e-64
3.9550483e-64
3.9572271e-64
3.918781e-64
3.7169914e-64
3.0408337e-64
1.5589463e-64
5.1886877e-66
2.5145524e-68
1.3420075e-66
2.9392295e-66
3.7056531e-66
3.9389487e-66
3.9857171e-66
3.9855021e-66
3.977668e-66
3.9712161e-66
3.96783e-66
3.9677096e-66
3.9708529e-66
3.9770681e-66
3.9846741e-66
3.9846742e-66
3.9377201e-66
3.7043389e-66
2.9380856e-66
1.3414469e-66
2.5134288e-68
1.1022716e-70
1.0369049e-68
2.5597592e-68
3.3337217e-68
3.5744281e-68
3.6248701e-68
3.6268192e-68
3.6204077e-68
3.6148483e-68
3.6119003e-68
3.6117918e-68
3.6145204e-68
3.6198631e-68
3.6260617e-68
3.6239081e-68
3.5732878e-68
3.3325052e-68
2.5587309e-68
1.0364582e-68
1.1017653e-70
4.2263919e-73
7.0581595e-71
1.9776729e-70
2.6665694e-70
2.8857014e-70
2.9333402e-70
2.9367849e-70
2.9322327e-70
2.9280179e-70
2.9257558e-70
2.925671e-70
2.9277599e-70
2.9318019e-70
2.9361804e-70
2.9325664e-70
2.8847783e-70
2.6655876e-70
1.9768686e-70
7.0550844e-71
4.2244268e-73
1.4004693e-75
4.2099553e-73
1.3485104e-72
1.886573e-72
2.0617583e-72
2.1010122e-72
2.1048759e-72
2.102091e-72
2.0992873e-72
2.0977623e-72
2.0977046e-72
2.0991107e-72
2.1017947e-72
2.1044566e-72
2.100471e-72
2.0611088e-72
1.8858845e-72
1.3479645e-72
4.2081269e-73
1.399811e-75
4.0252496e-78
2.2074143e-75
8.1321351e-75
1.182612e-74
1.3057817e-74
1.3340732e-74
1.3374261e-74
1.3359576e-74
1.3343122e-74
1.3334042e-74
1.3333701e-74
1.334207e-74
1.3357798e-74
1.3371725e-74
1.3337432e-74
1.3053834e-74
1.1821912e-74
8.1289065e-75
2.2064698e-75
4.0233186e-78
1.0134001e-80
1.0248865e-77
4.3630512e-77
6.6049826e-77
7.3708458e-77
7.5504025e-77
7.574448e-77
7.5677588e-77
7.5591618e-77
7.5543427e-77
7.5541666e-77
7.5586117e-77
7.5668242e-77
7.5731028e-77
7.5486393e-77
7.3687034e-77
6.6027284e-77
4.3613787e-77
1.0244593e-77
1.0128962e-80
2.2586193e-83
4.2486848e-80
2.0976643e-79
3.3093855e-79
3.7336162e-79
3.8348107e-79
3.8495617e-79
3.8469363e-79
3.8428975e-79
3.8405954e-79
3.840515e-79
3.8426426e-79
3.846502e-79
3.8489321e-79
3.8339799e-79
3.7326011e-79
3.3083214e-79
2.0969008e-79
4.2469859e-80
2.2574383e-83
4.4992225e-86
1.5850821e-82
9.1018167e-82
1.4978076e-81
1.7087235e-81
1.7597919e-81
1.7677073e-81
1.766831e-81
1.7651094e-81
1.7641109e-81
1.7640781e-81
1.7650041e-81
1.766651e-81
1.7674451e-81
1.7594442e-81
1.7082965e-81
1.4973626e-81
9.0987331e-82
1.5844855e-82
4.4967477e-86
8.0771472e-89
5.3598402e-85
3.5876498e-84
6.1627066e-84
7.1105371e-84
7.3430975e-84
7.3808406e-84
7.3784531e-84
7.371745e-84
7.3677804e-84
7.3676608e-84
7.3713521e-84
7.3777808e-84
7.3798589e-84
7.3417939e-84
7.1089315e-84
6.1610474e-84
3.5865432e-84
5.3579876e-85
8.0723577e-89
1.3160974e-91
1.6530313e-87
1.2922282e-86
2.3184726e-86
2.7059486e-86
2.8021762e-86
2.8183579e-86
2.8178977e-86
2.8154937e-86
2.8140446e-86
2.8140045e-86
2.8153596e-86
2.8176687e-86
2.8180239e-86
2.8017336e-86
2.7054047e-86
2.3179183e-86
1.2918737e-86
1.6525202e-87
1.3152165e-91
1.9583261e-94
4.6756584e-90
4.2756164e-89
8.0166833e-89
9.4659246e-89
9.8299062e-89
9.8928647e-89
9.8927359e-89
9.884771e-89
9.8798694e-89
9.8797451e-89
9.884347e-89
9.8920161e-89
9.8918192e-89
9.8285328e-89
9.4642498e-89
8.0150128e-89
4.2745975e-89
4.674402e-90
1.9567412e-94
2.6751761e-97
1.2188781e-92
1.305643e-91
2.5595145e-91
3.0579813e-91
3.184513e-91
3.2069082e-91
3.2073238e-91
3.2048747e-91
3.2033342e-91
3.2032981e-91
3.2047493e-91
3.2071122e-91
3.2066039e-91
3.1841187e-91
3.0575086e-91
2.559057e-91
1.3053788e-91
1.2186008e-92
2.6723274e-97
)
;

boundaryField
{
    Wall
    {
        type            zeroGradient;
    }
    frontAndBack
    {
        type            empty;
    }
    atmosphere
    {
        type            zeroGradient;
    }
}


// ************************************************************************* //
