/*--------------------------------*- C++ -*----------------------------------*\
| =========                 |                                                 |
| \\      /  F ield         | OpenFOAM: The Open Source CFD Toolbox           |
|  \\    /   O peration     | Version:  3.0.1                                 |
|   \\  /    A nd           | Web:      www.OpenFOAM.org                      |
|    \\/     M anipulation  |                                                 |
\*---------------------------------------------------------------------------*/
FoamFile
{
    version     2.0;
    format      ascii;
    class       volScalarField;
    location    "5";
    object      mOne;
}
// * * * * * * * * * * * * * * * * * * * * * * * * * * * * * * * * * * * * * //

dimensions      [0 0 0 0 0 0 0];

internalField   nonuniform List<scalar> 
800
(
0.0714494
0.071449048
0.071448921
0.071448962
0.071448993
0.071449009
0.071449019
0.071449027
0.071449031
0.071449032
0.071449032
0.071449031
0.071449026
0.071449019
0.07144901
0.071448993
0.071448963
0.071448921
0.071449048
0.0714494
0.016555756
0.016549146
0.016550304
0.016551028
0.016551335
0.016551454
0.016551495
0.016551506
0.016551508
0.016551507
0.016551508
0.016551508
0.016551506
0.016551495
0.016551454
0.016551335
0.016551028
0.016550304
0.016549146
0.016555756
0.00082732256
0.00082759425
0.00082814519
0.00082831359
0.00082836613
0.00082837959
0.00082838065
0.00082837851
0.00082837631
0.00082837509
0.0008283751
0.00082837632
0.00082837851
0.00082838065
0.0008283796
0.00082836613
0.0008283136
0.00082814519
0.00082759423
0.00082732266
3.6473452e-05
3.8170613e-05
3.8219241e-05
3.8223362e-05
3.822224e-05
3.8219822e-05
3.821773e-05
3.8216267e-05
3.8215354e-05
3.8214884e-05
3.8214878e-05
3.8215337e-05
3.8216244e-05
3.8217703e-05
3.8219793e-05
3.8222204e-05
3.8223312e-05
3.8219163e-05
3.8170491e-05
3.6473314e-05
1.6021527e-06
1.8084062e-06
1.8126982e-06
1.8119077e-06
1.8109666e-06
1.8101785e-06
1.8096258e-06
1.809272e-06
1.8090633e-06
1.8089621e-06
1.8089612e-06
1.8090606e-06
1.8092683e-06
1.8096212e-06
1.810173e-06
1.8109596e-06
1.8118975e-06
1.812683e-06
1.808383e-06
1.6021264e-06
5.9588024e-08
7.3020062e-08
7.3406013e-08
7.3345726e-08
7.3252101e-08
7.3171119e-08
7.3113619e-08
7.3076596e-08
7.3054811e-08
7.3044564e-08
7.3044496e-08
7.3054586e-08
7.3076252e-08
7.3113181e-08
7.3170571e-08
7.3251383e-08
7.3344679e-08
7.3404459e-08
7.3017776e-08
5.9585598e-08
1.9910076e-09
2.6472763e-09
2.6734499e-09
2.6721199e-09
2.6671678e-09
2.6623853e-09
2.6588316e-09
2.6564827e-09
2.6550807e-09
2.654421e-09
2.6544162e-09
2.6550654e-09
2.6564595e-09
2.658802e-09
2.6623482e-09
2.6671201e-09
2.6720525e-09
2.6733515e-09
2.6471353e-09
1.9908702e-09
6.0835691e-11
8.7896811e-11
8.9269209e-11
8.9309765e-11
8.9118789e-11
8.8907684e-11
8.8742858e-11
8.8630843e-11
8.8562837e-11
8.8530611e-11
8.8530343e-11
8.8562014e-11
8.8629587e-11
8.874129e-11
8.8905794e-11
8.9116435e-11
8.9306566e-11
8.9264688e-11
8.789052e-11
6.0830136e-11
1.7146723e-12
2.6923968e-12
2.7516297e-12
2.7567834e-12
2.750871e-12
2.7431884e-12
2.7368878e-12
2.7324919e-12
2.7297798e-12
2.7284844e-12
2.7284719e-12
2.7297424e-12
2.7324346e-12
2.7368175e-12
2.7431068e-12
2.7507751e-12
2.7566613e-12
2.7514653e-12
2.6921765e-12
1.7144981e-12
4.50033e-14
7.6747816e-14
7.8958475e-14
7.9244626e-14
7.9092179e-14
7.8849328e-14
7.8640342e-14
7.8491044e-14
7.8397608e-14
7.8352633e-14
7.8352124e-14
7.8396112e-14
7.8488768e-14
7.8637581e-14
7.8846228e-14
7.9088715e-14
7.9240524e-14
7.8953329e-14
7.6741314e-14
4.4998758e-14
1.1084432e-15
2.0524253e-15
2.1262038e-15
2.1381494e-15
2.1348857e-15
2.1280062e-15
2.1217958e-15
2.1172638e-15
2.1143926e-15
2.1130008e-15
2.1129827e-15
2.1143394e-15
2.1171827e-15
2.1216976e-15
2.1278979e-15
2.1347697e-15
2.1380211e-15
2.1260549e-15
2.0522503e-15
1.1083366e-15
2.5743621e-17
5.1763684e-17
5.4009581e-17
5.4430747e-17
5.4376658e-17
5.4198718e-17
5.4030065e-17
5.3904618e-17
5.3824297e-17
5.3785124e-17
5.3784536e-17
5.3822583e-17
5.3902003e-17
5.4026889e-17
5.4195218e-17
5.4372982e-17
5.4426865e-17
5.4005355e-17
5.1759076e-17
2.5741169e-17
5.6269203e-19
1.2290367e-18
1.2918621e-18
1.3049534e-18
1.304489e-18
1.3002597e-18
1.2960421e-18
1.2928491e-18
1.2907866e-18
1.2897755e-18
1.2897585e-18
1.2907374e-18
1.2927736e-18
1.2959491e-18
1.3001566e-18
1.3043807e-18
1.3048407e-18
1.2917437e-18
1.2289141e-18
5.6263358e-19
1.1538085e-20
2.7405454e-20
2.9028203e-20
2.9394583e-20
2.9405429e-20
2.9312842e-20
2.921533e-20
2.9140289e-20
2.9091442e-20
2.9067396e-20
2.9066962e-20
2.9090176e-20
2.9138332e-20
2.9212896e-20
2.9310099e-20
2.9402514e-20
2.9391532e-20
2.902502e-20
2.7402229e-20
1.1536672e-20
2.2283988e-22
5.7574748e-22
6.147259e-22
6.2411138e-22
6.2484118e-22
6.229629e-22
6.2086259e-22
6.1922063e-22
6.1814478e-22
6.1761355e-22
6.1760354e-22
6.181157e-22
6.1917527e-22
6.2080531e-22
6.2289735e-22
6.247703e-22
6.24036e-22
6.1464656e-22
5.756671e-22
2.2280695e-22
4.0559189e-24
1.1403989e-23
1.2278518e-23
1.250073e-23
1.2526259e-23
1.2490891e-23
1.2448581e-23
1.2414988e-23
1.239285e-23
1.2381893e-23
1.2381686e-23
1.2392244e-23
1.2414035e-23
1.2447363e-23
1.2489479e-23
1.2524705e-23
1.2499048e-23
1.2276721e-23
1.1402154e-23
4.0552137e-24
6.9339168e-26
2.1238182e-25
2.3072318e-25
2.3560708e-25
2.3631326e-25
2.3569783e-25
2.3490123e-25
2.3425873e-25
2.338331e-25
2.3362203e-25
2.336181e-25
2.3382157e-25
2.342405e-25
2.3487775e-25
2.3567029e-25
2.3628251e-25
2.3557322e-25
2.3068647e-25
2.1234401e-25
6.9325598e-26
1.1042468e-27
3.6902651e-27
4.0484049e-27
4.1479463e-27
4.1647894e-27
4.1550146e-27
4.1410847e-27
4.1296616e-27
4.1220555e-27
4.1182785e-27
4.1182095e-27
4.1218535e-27
4.1293413e-27
4.1406695e-27
4.1545234e-27
4.1642352e-27
4.1473295e-27
4.0477291e-27
3.6895659e-27
1.1040144e-27
1.6193202e-29
5.9182964e-29
6.5656128e-29
6.7531597e-29
6.7888511e-29
6.7749887e-29
6.7525907e-29
6.7338828e-29
6.7213617e-29
6.7151343e-29
6.7150232e-29
6.7210344e-29
6.7333628e-29
6.7519136e-29
6.7741836e-29
6.7879369e-29
6.7521367e-29
6.5644861e-29
5.9171351e-29
1.6189661e-29
2.1868007e-31
8.7745328e-31
9.8644344e-31
1.0193679e-30
1.026241e-30
1.024522e-30
1.0212029e-30
1.0183708e-30
1.0164648e-30
1.0155154e-30
1.0154983e-30
1.0164146e-30
1.0182908e-30
1.0210984e-30
1.0243975e-30
1.0260993e-30
1.0192094e-30
9.8626954e-31
8.7727659e-31
2.1863113e-31
2.7069696e-33
1.1970278e-32
1.3681895e-32
1.4222576e-32
1.4344361e-32
1.4326883e-32
1.4281755e-32
1.4242229e-32
1.4215458e-32
1.4202093e-32
1.4201842e-32
1.4214719e-32
1.4241052e-32
1.4280215e-32
1.4325045e-32
1.434227e-32
1.4220249e-32
1.3679375e-32
1.1967778e-32
2.7063471e-33
2.9737221e-35
1.4622434e-34
1.7101357e-34
1.7925643e-34
1.8124021e-34
1.8113192e-34
1.8058477e-34
1.8008805e-34
1.7974884e-34
1.7957905e-34
1.7957559e-34
1.797387e-34
1.8007186e-34
1.8056354e-34
1.8110654e-34
1.8121134e-34
1.7922452e-34
1.7097966e-34
1.461919e-34
2.9730047e-35
2.7328949e-37
1.5282773e-36
1.8556158e-36
1.9716198e-36
2.0013086e-36
2.0020676e-36
1.996445e-36
1.9910326e-36
1.9872911e-36
1.9854108e-36
1.9853687e-36
1.987167e-36
1.990834e-36
1.996183e-36
2.001753e-36
2.0009506e-36
1.9712272e-36
1.8552086e-36
1.5279075e-36
2.7321834e-37
1.8379218e-39
1.2541317e-38
1.6467773e-38
1.7979767e-38
1.8390246e-38
1.8431552e-38
1.8387514e-38
1.8339412e-38
1.8305392e-38
1.8288188e-38
1.8287762e-38
1.8304132e-38
1.8337384e-38
1.8384818e-38
1.8428289e-38
1.8386518e-38
1.7975712e-38
1.6463712e-38
1.2537945e-38
1.8373932e-39
6.8250848e-42
7.6695306e-41
1.2215504e-40
1.4136837e-40
1.4685288e-40
1.4773478e-40
1.4751066e-40
1.471582e-40
1.4689643e-40
1.4676249e-40
1.4675886e-40
1.4688557e-40
1.4714063e-40
1.4748703e-40
1.4770584e-40
1.468196e-40
1.4133266e-40
1.2212147e-40
7.667253e-41
6.822915e-42
4.7169696e-44
7.8976484e-43
1.3961202e-42
1.6633489e-42
1.7412885e-42
1.7551143e-42
1.7532856e-42
1.7493359e-42
1.7463128e-42
1.7447539e-42
1.7447071e-42
1.7461729e-42
1.7491085e-42
1.7529775e-42
1.7547341e-42
1.7408489e-42
1.6628789e-42
1.3956914e-42
7.8950406e-43
4.7153015e-44
2.7206662e-46
7.670278e-45
1.5172206e-44
1.8626457e-44
1.9654222e-44
1.9849572e-44
1.9838905e-44
1.9797263e-44
1.9764254e-44
1.974709e-44
1.9746533e-44
1.9762578e-44
1.9794519e-44
1.9835162e-44
1.9844916e-44
1.9648804e-44
1.8620681e-44
1.5167083e-44
7.6675018e-45
2.7196124e-46
1.4105724e-48
6.9472918e-47
1.5377179e-46
1.9453467e-46
2.0690792e-46
2.0938498e-46
2.0938281e-46
2.0897888e-46
2.0864533e-46
2.0847028e-46
2.0846421e-46
2.0862702e-46
2.0894872e-46
2.0934137e-46
2.0933301e-46
2.06847e-46
1.9446987e-46
1.5371587e-46
6.9445885e-47
1.4099874e-48
6.6915228e-51
5.7044792e-49
1.4180813e-48
1.8513042e-48
1.9855747e-48
2.0136157e-48
2.0147404e-48
2.0112405e-48
2.0082008e-48
2.0065889e-48
2.0065301e-48
2.0080228e-48
2.0109455e-48
2.0143318e-48
2.013099e-48
1.9849646e-48
1.8506565e-48
1.4175378e-48
5.7021413e-49
6.6886134e-51
2.822713e-53
4.1844581e-51
1.1757702e-50
1.5872237e-50
1.7175338e-50
1.7457158e-50
1.7477492e-50
1.7450781e-50
1.7426064e-50
1.7412803e-50
1.74123e-50
1.7424537e-50
1.7448237e-50
1.7473938e-50
1.7452626e-50
1.716995e-50
1.5866529e-50
1.1753047e-50
4.1826854e-51
2.8214449e-53
1.0480299e-55
2.732644e-53
8.7362558e-53
1.2219316e-52
1.3347155e-52
1.3598177e-52
1.3622554e-52
1.3604671e-52
1.3586752e-52
1.3577013e-52
1.3576637e-52
1.35856e-52
1.3602741e-52
1.3619832e-52
1.3594675e-52
1.3342962e-52
1.2214881e-52
8.7327457e-53
2.7314657e-53
1.0475451e-55
3.4401947e-58
1.5951695e-55
5.8345078e-55
8.4693462e-55
9.3419703e-55
9.540803e-55
9.5639431e-55
9.553417e-55
9.5417644e-55
9.5353428e-55
9.5350939e-55
9.5409953e-55
9.5521217e-55
9.5620997e-55
9.5384104e-55
9.3390847e-55
8.4662994e-55
5.8321684e-55
1.5944788e-55
3.4385461e-58
1.0082864e-60
8.3859957e-58
3.524043e-57
5.3157265e-57
5.9227929e-57
6.063815e-57
6.0823166e-57
6.0768483e-57
6.0699858e-57
6.0661497e-57
6.0660031e-57
6.0695289e-57
6.0760731e-57
6.0812049e-57
6.0623599e-57
5.9210262e-57
5.3138654e-57
3.5226568e-57
8.3824043e-58
1.0077802e-60
2.666107e-63
4.002852e-60
1.9387152e-59
3.0417769e-59
3.424223e-59
3.5145134e-59
3.5273919e-59
3.5248804e-59
3.5211861e-59
3.5190899e-59
3.5190128e-59
3.5209425e-59
3.5244649e-59
3.5267908e-59
3.5137211e-59
3.423254e-59
3.0407595e-59
1.9379814e-59
4.001186e-60
2.6646844e-63
6.4191331e-66
1.7481409e-62
9.7815685e-62
1.5974635e-61
1.8172265e-61
1.8698338e-61
1.8778058e-61
1.8767921e-61
1.8749585e-61
1.8739015e-61
1.8738648e-61
1.8748404e-61
1.8765904e-61
1.8775121e-61
1.8694443e-61
1.8167475e-61
1.5969629e-61
9.778077e-62
1.7474486e-62
6.4154394e-66
1.4184367e-68
7.0330354e-65
4.5546302e-64
7.7469683e-64
8.9065768e-64
9.18757e-64
9.2321275e-64
9.2286041e-64
9.2201509e-64
9.2151992e-64
9.2150382e-64
9.2196261e-64
9.2277063e-64
9.2308167e-64
9.1858261e-64
8.9044236e-64
7.7447362e-64
4.5531288e-64
7.0304445e-65
1.4175575e-68
2.8961303e-71
2.6222871e-67
1.9682978e-66
3.4883731e-66
4.0536811e-66
4.1921783e-66
4.2149225e-66
4.2139284e-66
4.2102885e-66
4.208119e-66
4.208054e-66
4.2100718e-66
4.2135581e-66
4.2143818e-66
4.1914599e-66
4.0527937e-66
3.4874638e-66
1.9677105e-66
2.6214098e-67
2.8941177e-71
5.4957665e-74
9.1092816e-70
7.9340682e-69
1.4656908e-68
1.7216929e-68
1.7850498e-68
1.7957469e-68
1.795567e-68
1.794096e-68
1.7932035e-68
1.7931786e-68
1.7940117e-68
1.7954236e-68
1.7955386e-68
1.7847745e-68
1.7213547e-68
1.4653502e-68
7.9319649e-69
9.106574e-70
5.491221e-74
9.7416207e-77
2.961945e-72
2.9964207e-71
5.7716078e-71
6.8537768e-71
7.1241496e-71
7.170837e-71
7.1710326e-71
7.1654315e-71
7.1619705e-71
7.1618801e-71
7.1651214e-71
7.1705089e-71
7.1700813e-71
7.1231623e-71
6.8525775e-71
5.7704294e-71
2.995728e-71
2.9611798e-72
9.731294e-77
1.6200863e-79
9.0520757e-75
1.0644741e-73
2.138393e-73
2.5672523e-73
2.67537e-73
2.6943911e-73
2.694791e-73
2.6927757e-73
2.6915063e-73
2.6914754e-73
2.6926671e-73
2.6946093e-73
2.6941321e-73
2.6750371e-73
2.5668555e-73
2.138015e-73
1.0642636e-73
9.050083e-75
1.6177294e-79
)
;

boundaryField
{
    Wall
    {
        type            zeroGradient;
    }
    frontAndBack
    {
        type            empty;
    }
    atmosphere
    {
        type            zeroGradient;
    }
}


// ************************************************************************* //
