/*--------------------------------*- C++ -*----------------------------------*\
| =========                 |                                                 |
| \\      /  F ield         | OpenFOAM: The Open Source CFD Toolbox           |
|  \\    /   O peration     | Version:  3.0.1                                 |
|   \\  /    A nd           | Web:      www.OpenFOAM.org                      |
|    \\/     M anipulation  |                                                 |
\*---------------------------------------------------------------------------*/
FoamFile
{
    version     2.0;
    format      ascii;
    class       volScalarField;
    location    "5";
    object      mZero;
}
// * * * * * * * * * * * * * * * * * * * * * * * * * * * * * * * * * * * * * //

dimensions      [0 0 0 0 0 0 0];

internalField   nonuniform List<scalar> 
800
(
1e+13
1e+13
1e+13
1e+13
1e+13
1e+13
1e+13
1e+13
1e+13
1e+13
1e+13
1e+13
1e+13
1e+13
1e+13
1e+13
1e+13
1e+13
1e+13
1e+13
1e+13
1e+13
1e+13
1e+13
1e+13
1e+13
1e+13
1e+13
1e+13
1e+13
1e+13
1e+13
1e+13
1e+13
1e+13
1e+13
1e+13
1e+13
1e+13
1e+13
8.4420835e+11
8.4773052e+11
8.4847526e+11
8.4863006e+11
8.4864952e+11
8.4863718e+11
8.4862077e+11
8.4860722e+11
8.485981e+11
8.4859359e+11
8.485936e+11
8.485981e+11
8.4860725e+11
8.4862077e+11
8.4863717e+11
8.4864952e+11
8.4863004e+11
8.4847521e+11
8.4773046e+11
8.4420845e+11
4.7500543e+10
5.020888e+10
5.0455567e+10
5.0515551e+10
5.0526291e+10
5.0524469e+10
5.0520988e+10
5.0518246e+10
5.0516491e+10
5.0515607e+10
5.0515602e+10
5.051647e+10
5.051822e+10
5.0520954e+10
5.0524428e+10
5.0526244e+10
5.0515483e+10
5.045546e+10
5.0208716e+10
4.7500366e+10
2.390736e+09
2.746032e+09
2.7747716e+09
2.7805871e+09
2.7808602e+09
2.7799438e+09
2.7790842e+09
2.7784915e+09
2.778134e+09
2.7779612e+09
2.77796e+09
2.7781302e+09
2.7784862e+09
2.7790774e+09
2.7799353e+09
2.7808494e+09
2.7805711e+09
2.7747477e+09
2.7459964e+09
2.3906968e+09
97068841
1.2200487e+08
1.2422304e+08
1.24632e+08
1.2460179e+08
1.2448849e+08
1.24392e+08
1.243268e+08
1.2428791e+08
1.2426961e+08
1.242695e+08
1.2428755e+08
1.2432625e+08
1.2439128e+08
1.2448756e+08
1.2460056e+08
1.2463019e+08
1.2422038e+08
1.2200103e+08
97064885
3465864.8
4764762.5
4896074.8
4921490.7
4919521.6
4912126.4
4905704.6
4901291.3
4898629.4
4897375.7
4897367.3
4898602.2
4901250.3
4905651.4
4912058.4
4919433.3
4921365.2
4895893.1
4764507.6
3465625.5
111255.32
167622.96
174051.02
175408.49
175365.6
175018.38
174701.89
174478.86
174342.21
174277.4
174276.9
174340.64
174476.47
174698.86
175014.69
175360.96
175402.15
174042.15
167610.91
111245.15
3237.1894
5356.1638
5627.9787
5690.7541
5692.2544
5679.2344
5666.5745
5657.4079
5651.7017
5648.9737
5648.9489
5651.6262
5657.2927
5666.4316
5679.0666
5692.0557
5690.5003
5627.6404
5355.724
3236.8601
86.391467
157.14264
167.28812
169.82105
170.00408
169.59096
169.15738
168.83494
168.63125
168.53311
168.53205
168.62811
168.83016
169.15154
169.58434
169.99662
169.81221
167.27715
157.12927
86.382735
2.1399076
4.2827757
4.6235625
4.7143387
4.7244232
4.7129482
4.6997819
4.6897331
4.6833016
4.6801805
4.6801415
4.6831863
4.6895574
4.6995679
4.7127099
4.7241664
4.714054
4.6232366
4.282409
2.1397015
0.049435104
0.10903688
0.11948704
0.12242578
0.12284333
0.1225599
0.12219819
0.12191503
0.12173167
0.12164211
0.12164082
0.12172787
0.12190924
0.12219111
0.12255204
0.12283503
0.122417
0.11947764
0.10902713
0.049430387
0.0010595465
0.0025837513
0.0028785054
0.0029654209
0.0029799896
0.0029738052
0.002964764
0.0029575001
0.0029527467
0.0029504123
0.0029503746
0.0029526364
0.0029573308
0.0029645544
0.0029735711
0.0029797423
0.0029651638
0.0028782406
0.0025834928
0.0010594362
2.110543e-05
5.710705e-05
6.4807972e-05
6.7177759e-05
6.7625263e-05
6.7507457e-05
6.7300131e-05
6.7128949e-05
6.701583e-05
6.6960022e-05
6.6959051e-05
6.701298e-05
6.7124539e-05
6.7294609e-05
6.7501191e-05
6.7618568e-05
6.7170766e-05
6.4800845e-05
5.7100315e-05
2.1102842e-05
3.9194076e-07
1.1808355e-06
1.3678925e-06
1.4277478e-06
1.4401039e-06
1.4382046e-06
1.4338123e-06
1.430077e-06
1.4275858e-06
1.4263523e-06
1.4263299e-06
1.4275203e-06
1.4299747e-06
1.4336823e-06
1.4380547e-06
1.4399409e-06
1.427575e-06
1.3677157e-06
1.1806704e-06
3.9188278e-07
6.7831937e-09
2.285817e-08
2.7094688e-08
2.8500655e-08
2.8811644e-08
2.8788353e-08
2.8702125e-08
2.8626339e-08
2.8575334e-08
2.8549998e-08
2.8549538e-08
2.8573976e-08
2.8624201e-08
2.8699373e-08
2.8785134e-08
2.8808081e-08
2.8496817e-08
2.7090723e-08
2.2854492e-08
6.7820135e-09
1.0855822e-10
4.1219749e-10
5.0173377e-10
5.3251054e-10
5.3970836e-10
5.3960177e-10
5.3803845e-10
5.3661071e-10
5.3564079e-10
5.3515763e-10
5.3514899e-10
5.3561526e-10
5.3657027e-10
5.3798592e-10
5.3953959e-10
5.3963847e-10
5.3243406e-10
5.0165408e-10
4.1212423e-10
1.0853697e-10
1.5872101e-12
6.8712301e-12
8.6359868e-12
9.264261e-12
9.418223e-12
9.4233482e-12
9.3973749e-12
9.3725087e-12
9.3554382e-12
9.3469127e-12
9.346764e-12
9.3549987e-12
9.3718095e-12
9.3964601e-12
9.4222541e-12
9.4169789e-12
9.2628869e-12
8.6345507e-12
6.8699329e-12
1.5868762e-12
2.1217947e-14
1.0617528e-13
1.3866363e-13
1.5064493e-13
1.5369871e-13
1.5391796e-13
1.5352209e-13
1.5311997e-13
1.5284061e-13
1.5270067e-13
1.526983e-13
1.5283355e-13
1.531087e-13
1.5350726e-13
1.5390009e-13
1.5367823e-13
1.5062222e-13
1.3863999e-13
1.0615457e-13
2.1213312e-14
2.5761311e-16
1.5161756e-15
2.0733477e-15
2.2863756e-15
2.3425293e-15
2.3483083e-15
2.3428093e-15
2.3367788e-15
2.3325308e-15
2.3303955e-15
2.3303591e-15
2.3324228e-15
2.3366054e-15
2.3425802e-15
2.3480311e-15
2.3422105e-15
2.2860231e-15
2.072986e-15
1.5158733e-15
2.5755557e-16
2.770235e-18
1.9790767e-17
2.8662804e-17
3.21852e-17
3.3141673e-17
3.326489e-17
3.3196584e-17
3.3113356e-17
3.3053723e-17
3.3023608e-17
3.3023072e-17
3.3052128e-17
3.3110796e-17
3.3193188e-17
3.3260773e-17
3.3136936e-17
3.2180005e-17
2.8657607e-17
1.9786696e-17
2.7696e-18
2.5016568e-20
2.3177887e-19
3.6236335e-19
4.1634295e-19
4.3140228e-19
4.3367761e-19
4.3294701e-19
4.3190259e-19
4.3113757e-19
4.30749e-19
4.3074148e-19
4.311152e-19
4.3186661e-19
4.3289911e-19
4.336194e-19
4.3133528e-19
4.1627027e-19
3.6229312e-19
2.3172863e-19
2.5010573e-20
1.7595738e-22
2.4135824e-21
4.1836008e-21
4.9479036e-21
5.1665259e-21
5.2037027e-21
5.1973639e-21
5.1855014e-21
5.1765558e-21
5.1719776e-21
5.171879e-21
5.176261e-21
5.1850257e-21
5.1967267e-21
5.2029247e-21
5.1656308e-21
4.9469443e-21
4.1827113e-21
2.4130181e-21
1.7591227e-22
1.0151506e-24
2.3457665e-23
4.5538213e-23
5.5516855e-23
5.8436392e-23
5.8974882e-23
5.893291e-23
5.8807358e-23
5.8709357e-23
5.8658767e-23
5.8657536e-23
5.8705666e-23
5.8801364e-23
5.8924836e-23
5.8964966e-23
5.8424959e-23
5.5504727e-23
4.5527399e-23
2.3451643e-23
1.014868e-24
5.2597671e-27
2.1234037e-25
4.615295e-25
5.7994776e-25
6.1536015e-25
6.222889e-25
6.2217472e-25
6.2095398e-25
6.1996228e-25
6.1944524e-25
6.1943103e-25
6.1991939e-25
6.208841e-25
6.2207989e-25
6.2217167e-25
6.1522462e-25
5.7980507e-25
4.6140665e-25
2.1228002e-25
5.2581743e-27
2.4931035e-29
1.7417298e-27
4.2529411e-27
5.5154892e-27
5.901533e-27
5.9806914e-27
5.9829918e-27
5.9723908e-27
5.9633469e-27
5.9585785e-27
5.9584309e-27
5.9629012e-27
5.9716612e-27
5.9819945e-27
5.9794498e-27
5.9000907e-27
5.5139777e-27
4.2516807e-27
1.7411831e-27
2.4922851e-29
1.0508322e-31
1.2761337e-29
3.5223237e-29
4.7236119e-29
5.0993434e-29
5.1793785e-29
5.1844989e-29
5.1763846e-29
5.169026e-29
5.1650981e-29
5.1649645e-29
5.1686193e-29
5.1757142e-29
5.1835753e-29
5.1782195e-29
5.0979881e-29
4.7221956e-29
3.5211777e-29
1.2756949e-29
1.0504588e-31
3.8988189e-34
8.3241607e-32
2.6139602e-31
3.6319039e-31
3.9576833e-31
4.0292557e-31
4.0357549e-31
4.0302999e-31
4.0249632e-31
4.0220755e-31
4.0219691e-31
4.0246376e-31
4.0297604e-31
4.035005e-31
4.0283059e-31
3.9565638e-31
3.6307356e-31
2.613042e-31
8.3210583e-32
3.8973141e-34
1.2790117e-36
4.8538632e-34
1.7435203e-33
2.5139182e-33
2.7662402e-33
2.8230783e-33
2.8294058e-33
2.8261756e-33
2.8227037e-33
2.8207979e-33
2.8207237e-33
2.8224747e-33
2.8257938e-33
2.8288701e-33
2.8223937e-33
2.765426e-33
2.5130686e-33
1.7428708e-33
4.8519278e-34
1.2784738e-36
3.7465723e-39
2.5490273e-36
1.0517164e-35
1.5756038e-35
1.7512185e-35
1.7915931e-35
1.7967204e-35
1.7950273e-35
1.7929823e-35
1.7918431e-35
1.7917971e-35
1.7928397e-35
1.7947881e-35
1.7963815e-35
1.7911559e-35
1.750694e-35
1.5750564e-35
1.0513094e-35
2.5479593e-36
3.7448561e-39
9.9015004e-42
1.2154342e-38
5.778078e-38
9.0023817e-38
1.0108694e-37
1.0367387e-37
1.0403349e-37
1.0395471e-37
1.038446e-37
1.0378232e-37
1.0377979e-37
1.0383667e-37
1.0394132e-37
1.0401436e-37
1.0364895e-37
1.0105679e-37
8.9992358e-38
5.7758063e-38
1.2149113e-38
9.8965561e-42
2.3827661e-44
5.3023832e-41
2.9110935e-40
4.7201825e-40
5.3555948e-40
5.5063311e-40
5.528692e-40
5.5254447e-40
5.5199791e-40
5.5168398e-40
5.5167143e-40
5.5195807e-40
5.524769e-40
5.5277183e-40
5.5050527e-40
5.3540357e-40
4.7185597e-40
2.9099587e-40
5.3001025e-41
2.3814516e-44
5.2626992e-47
2.1308388e-43
1.3534275e-42
2.2850665e-42
2.6200559e-42
2.7005293e-42
2.7130575e-42
2.7118872e-42
2.7093679e-42
2.7078982e-42
2.7078414e-42
2.7091853e-42
2.7115757e-42
2.7126063e-42
2.6999329e-42
2.6193244e-42
2.2843093e-42
1.3529163e-42
2.1299471e-43
5.2593768e-47
1.0740308e-49
7.9354859e-46
5.8392009e-45
1.0269771e-44
1.1900795e-44
1.2297039e-44
1.2361056e-44
1.2357497e-44
1.2346656e-44
1.2340227e-44
1.233999e-44
1.2345883e-44
1.2356175e-44
1.235913e-44
1.2294485e-44
1.189765e-44
1.0266546e-44
5.8371088e-45
7.9323321e-46
1.0732108e-49
2.0371744e-52
2.7531397e-48
2.3495101e-47
4.3059929e-47
5.0434178e-47
5.2244208e-47
5.2545298e-47
5.2537192e-47
5.2493432e-47
5.2467033e-47
5.2466106e-47
5.2490356e-47
5.2531952e-47
5.2537657e-47
5.2234059e-47
5.0421685e-47
4.3047277e-47
2.3487238e-47
2.7521206e-48
2.0351991e-52
3.6092178e-55
8.9398603e-51
8.8558919e-50
1.6917445e-49
2.0028573e-49
2.0799556e-49
2.0930875e-49
2.0930275e-49
2.0913642e-49
2.0903431e-49
2.0903085e-49
2.0912488e-49
2.0928318e-49
2.0928027e-49
2.0795786e-49
2.0023949e-49
1.6912838e-49
8.8531574e-50
8.9368193e-51
3.6047635e-55
5.9996148e-58
2.728115e-53
3.1393013e-52
6.2522875e-52
7.4823904e-52
7.7900004e-52
7.8434317e-52
7.8441432e-52
7.838172e-52
7.8344377e-52
7.8343171e-52
7.8377624e-52
7.8434522e-52
7.8424325e-52
7.7886877e-52
7.480791e-52
6.250723e-52
3.1384163e-52
2.7272716e-53
5.9896044e-58
9.3947587e-61
7.852462e-56
1.0502925e-54
2.1812251e-54
2.6388033e-54
2.7542242e-54
2.7746074e-54
2.7751769e-54
2.7731473e-54
2.7718536e-54
2.7718138e-54
2.7730103e-54
2.7749479e-54
2.7742793e-54
2.7537975e-54
2.6382882e-54
2.180731e-54
1.0500259e-54
7.8502781e-56
9.3724328e-61
1.3908087e-63
2.1388023e-58
3.3268684e-57
7.2057244e-57
8.8126211e-57
9.2213446e-57
9.2945588e-57
9.2974956e-57
9.2909453e-57
9.2866913e-57
9.2865693e-57
9.2905204e-57
9.2967928e-57
9.2935606e-57
9.2200632e-57
8.8110878e-57
7.2042842e-57
3.3261252e-57
2.1382765e-58
1.3859714e-63
1.9531753e-66
5.5286737e-61
1.0005591e-59
2.2604345e-59
2.7948142e-59
2.9318409e-59
2.956692e-59
2.9579451e-59
2.9559342e-59
2.9546032e-59
2.95457e-59
2.9558142e-59
2.9577489e-59
2.9564159e-59
2.9314905e-59
2.7943987e-59
2.2600526e-59
1.00037e-59
5.5275081e-61
1.942855e-66
)
;

boundaryField
{
    Wall
    {
        type            zeroGradient;
    }
    frontAndBack
    {
        type            empty;
    }
    atmosphere
    {
        type            zeroGradient;
    }
}


// ************************************************************************* //
