/*--------------------------------*- C++ -*----------------------------------*\
| =========                 |                                                 |
| \\      /  F ield         | OpenFOAM: The Open Source CFD Toolbox           |
|  \\    /   O peration     | Version:  3.0.1                                 |
|   \\  /    A nd           | Web:      www.OpenFOAM.org                      |
|    \\/     M anipulation  |                                                 |
\*---------------------------------------------------------------------------*/
FoamFile
{
    version     2.0;
    format      ascii;
    class       surfaceScalarField;
    location    "5";
    object      phi;
}
// * * * * * * * * * * * * * * * * * * * * * * * * * * * * * * * * * * * * * //

dimensions      [0 3 -1 0 0 0 0];

internalField   nonuniform List<scalar> 
1540
(
-4.8706396e-11
7.5984218e-08
-3.2478646e-11
7.5955856e-08
-1.3393086e-11
7.5970939e-08
-4.7218788e-12
7.597804e-08
-1.2745938e-12
7.598099e-08
-4.943306e-14
7.5982103e-08
3.5499757e-13
7.5982474e-08
3.3272274e-13
7.5982571e-08
1.8544672e-13
7.5982582e-08
3.6020242e-15
7.5982576e-08
-1.7815347e-13
7.5982576e-08
-3.2589189e-13
7.5982582e-08
-3.4839108e-13
7.5982571e-08
5.5112309e-14
7.5982474e-08
1.2790112e-12
7.5982103e-08
4.7262352e-12
7.598099e-08
1.339707e-11
7.597804e-08
3.2481791e-11
7.5970939e-08
4.8708063e-11
7.5955856e-08
7.5984218e-08
-4.6997814e-11
8.0587116e-08
-2.5555049e-11
8.0773051e-08
-4.5851059e-12
8.0815499e-08
-3.4840386e-14
8.0827485e-08
9.5216173e-13
8.0830716e-08
9.0700931e-13
8.0831225e-08
6.8833498e-13
8.0830981e-08
4.5221462e-13
8.0830619e-08
2.2461701e-13
8.0830335e-08
3.4585908e-15
8.0830188e-08
-2.1708787e-13
8.0830188e-08
-4.4600914e-13
8.0830335e-08
-6.8191051e-13
8.0830619e-08
-9.0133729e-13
8.0830981e-08
-9.4734145e-13
8.0831224e-08
4.1686089e-14
8.0830715e-08
4.5896794e-12
8.0827483e-08
2.5554292e-11
8.0815496e-08
4.6999519e-11
8.0773046e-08
8.0587116e-08
2.2437739e-11
9.3342409e-08
1.5087023e-11
1.0039015e-07
1.1387302e-11
1.0059979e-07
1.0778019e-11
1.0058922e-07
8.7052383e-12
1.0057758e-07
6.5698848e-12
1.0056852e-07
4.6864447e-12
1.0056232e-07
3.0249523e-12
1.005584e-07
1.5011634e-12
1.0055605e-07
4.261474e-14
1.0055484e-07
-1.4182671e-12
1.0055482e-07
-2.9491225e-12
1.00556e-07
-4.6208331e-12
1.0055833e-07
-6.5119134e-12
1.0056225e-07
-8.6553919e-12
1.0056844e-07
-1.0730267e-11
1.0057747e-07
-1.134783e-11
1.0058908e-07
-1.5048459e-11
1.0059958e-07
-2.2403831e-11
1.0038982e-07
9.3342025e-08
1.3194442e-09
1.1249981e-07
1.2991809e-09
1.2768744e-07
9.9240067e-10
1.2820403e-07
7.3757319e-10
1.2814659e-07
5.4515672e-10
1.2808488e-07
3.976279e-10
1.2803774e-07
2.7919096e-10
1.2800575e-07
1.786095e-10
1.2798556e-07
8.8160736e-11
1.2797371e-07
2.2295951e-12
1.2796796e-07
-8.3807507e-11
1.2796791e-07
-1.7456221e-10
1.2797357e-07
-2.7555987e-10
1.2798536e-07
-3.9439911e-10
1.2800551e-07
-5.4228278e-10
1.2803744e-07
-7.3492207e-10
1.2808449e-07
-9.8997037e-10
1.2814602e-07
-1.2971208e-09
1.282032e-07
-1.3181419e-09
1.2768621e-07
1.1249841e-07
8.9303764e-10
1.0884888e-07
1.1737731e-09
1.2585044e-07
1.0487856e-09
1.2665104e-07
8.4515946e-10
1.2661451e-07
6.5370877e-10
1.2651981e-07
4.8947445e-10
1.2643572e-07
3.4896837e-10
1.2637522e-07
2.2520316e-10
1.2633594e-07
1.1166089e-10
1.263128e-07
2.8297065e-12
1.2630206e-07
-1.061023e-10
1.26302e-07
-2.2002891e-10
1.2631258e-07
-3.443302e-10
1.263356e-07
-4.8537922e-10
1.2637478e-07
-6.5008587e-10
1.2643516e-07
-8.4193335e-10
1.2651905e-07
-1.0459356e-09
1.2661341e-07
-1.1715208e-09
1.2664942e-07
-8.9179468e-10
1.2584813e-07
1.0884626e-07
5.1363935e-10
1.0612641e-07
7.6289707e-10
1.230751e-07
7.7345356e-10
1.2408202e-07
6.7948419e-10
1.2413369e-07
5.5594268e-10
1.2406231e-07
4.3184209e-10
1.2397695e-07
3.1524857e-10
1.2390856e-07
2.0643799e-10
1.2386147e-07
1.0323392e-10
1.2383274e-07
2.8245923e-12
1.2381916e-07
-9.7725994e-11
1.2381905e-07
-2.0129359e-10
1.238324e-07
-3.1063617e-10
1.2386096e-07
-4.2779577e-10
1.2390791e-07
-5.5245794e-10
1.2397615e-07
-6.7654189e-10
1.240613e-07
-7.7108625e-10
1.2413231e-07
-7.6130383e-10
1.2408006e-07
-5.1302769e-10
1.2307241e-07
1.0612344e-07
3.0233033e-10
1.0561184e-07
4.8643893e-10
1.226326e-07
5.3888895e-10
1.2377004e-07
5.0911809e-10
1.2389892e-07
4.3971684e-10
1.238636e-07
3.5489963e-10
1.2379197e-07
2.6592429e-10
1.2372712e-07
1.7712248e-10
1.236797e-07
8.9511282e-11
1.2364967e-07
2.7103577e-12
1.2363518e-07
-8.4218604e-11
1.2363503e-07
-1.7213757e-10
1.2364923e-07
-2.6144203e-10
1.2367901e-07
-3.5100993e-10
1.237263e-07
-4.3645771e-10
1.2379104e-07
-5.0654117e-10
1.2386252e-07
-5.3710946e-10
1.2389759e-07
-4.8559167e-10
1.2376831e-07
-3.0237907e-10
1.2263036e-07
1.0560954e-07
1.8481832e-10
1.0543111e-07
3.1457368e-10
1.2249345e-07
3.7163334e-10
1.2370604e-07
3.7187599e-10
1.2389132e-07
3.3636442e-10
1.2389052e-07
2.8111346e-10
1.2383776e-07
2.1597224e-10
1.2378236e-07
1.4629781e-10
1.2373922e-07
7.4753684e-11
1.2371094e-07
2.5545155e-12
1.2369702e-07
-6.9742476e-11
1.2369683e-07
-1.4154531e-10
1.2371039e-07
-2.1162895e-10
1.2373837e-07
-2.7733844e-10
1.2378135e-07
-3.3327073e-10
1.2383669e-07
-3.6956391e-10
1.2388945e-07
-3.7026139e-10
1.2389024e-07
-3.1423937e-10
1.2370489e-07
-1.8529214e-10
1.2249219e-07
1.0543005e-07
1.1704413e-10
1.0532019e-07
2.0746514e-10
1.2239893e-07
2.5691375e-10
1.2365442e-07
2.687172e-10
1.2387821e-07
2.5233541e-10
1.2390553e-07
2.1721035e-10
1.2387124e-07
1.705861e-10
1.2382713e-07
1.1735557e-10
1.2379051e-07
6.0608579e-11
1.2376568e-07
2.3610992e-12
1.2375321e-07
-5.5961744e-11
1.2375297e-07
-1.1288605e-10
1.23765e-07
-1.6640837e-10
1.2378949e-07
-2.1349862e-10
1.2382593e-07
-2.492383e-10
1.2387002e-07
-2.6642652e-10
1.2390439e-07
-2.5561509e-10
1.2387726e-07
-2.0725038e-10
1.2365372e-07
-1.175622e-10
1.2239856e-07
1.0532026e-07
7.6569157e-11
1.0524892e-07
1.396929e-10
1.2233379e-07
1.7896076e-10
1.2361438e-07
1.9350263e-10
1.2386386e-07
1.8709546e-10
1.2391248e-07
1.649699e-10
1.23894e-07
1.3198921e-10
1.2386076e-07
9.2022092e-11
1.2383112e-07
4.7998058e-11
1.2381038e-07
2.1164634e-12
1.2379976e-07
-4.378134e-11
1.237995e-07
-8.7880488e-11
1.2380961e-07
-1.2799629e-10
1.2382996e-07
-1.6127885e-10
1.2385936e-07
-1.839087e-10
1.2389253e-07
-1.9101507e-10
1.2391114e-07
-1.7739798e-10
1.238628e-07
-1.3915444e-10
1.2361374e-07
-7.675788e-11
1.2233371e-07
1.052494e-07
5.1532469e-11
1.0520267e-07
9.5873839e-11
1.2228966e-07
1.2579084e-10
1.2358543e-07
1.3935028e-10
1.23852e-07
1.3777988e-10
1.2391618e-07
1.2380478e-10
1.239103e-07
1.0054747e-10
1.2388649e-07
7.0889844e-11
1.2386338e-07
3.7295617e-11
1.2384666e-07
1.8519299e-12
1.2383795e-07
-3.358511e-11
1.2383766e-07
-6.7144585e-11
1.2384583e-07
-9.6793124e-11
1.2386211e-07
-1.2017297e-10
1.2388493e-07
-1.3446435e-10
1.239086e-07
-1.3658226e-10
1.2391451e-07
-1.2379702e-10
1.2385057e-07
-9.4774404e-11
1.2358438e-07
-5.1188515e-11
1.2228917e-07
1.0520272e-07
3.5496582e-11
1.051722e-07
6.6886761e-11
1.2225973e-07
8.9181506e-11
1.2356492e-07
1.0052829e-10
1.2384293e-07
1.0104992e-10
1.2391827e-07
9.2128146e-11
1.2392209e-07
7.5722156e-11
1.2390598e-07
5.3866013e-11
1.2388845e-07
2.8542921e-11
1.2387537e-07
1.5690204e-12
1.2386844e-07
-2.537172e-11
1.2386816e-07
-5.054566e-11
1.2387458e-07
-7.2267372e-11
1.2388722e-07
-8.8645113e-11
1.2390437e-07
-9.7686056e-11
1.2392025e-07
-9.7518796e-11
1.2391634e-07
-8.6793305e-11
1.2384106e-07
-6.5243681e-11
1.2356324e-07
-3.4666056e-11
1.2225838e-07
1.0517126e-07
2.4910637e-11
1.0515139e-07
4.7274616e-11
1.2223872e-07
6.3697337e-11
1.2354995e-07
7.2666131e-11
1.2383568e-07
7.393626e-11
1.2391896e-07
6.8146532e-11
1.2393005e-07
5.6513423e-11
1.2391998e-07
4.0502841e-11
1.2390706e-07
2.1591643e-11
1.2389704e-07
1.294932e-12
1.2389167e-07
-1.8922703e-11
1.2389145e-07
-3.7634042e-11
1.2389639e-07
-5.3434022e-11
1.2390599e-07
-6.4889186e-11
1.2391854e-07
-7.0661495e-11
1.2392829e-07
-6.9602606e-11
1.2391696e-07
-6.1094505e-11
1.2383351e-07
-4.5329742e-11
1.2354772e-07
-2.3819549e-11
1.2223652e-07
1.0514941e-07
1.7704591e-11
1.0513617e-07
3.3732245e-11
1.2222292e-07
4.572824e-11
1.2353805e-07
5.2606832e-11
1.2382906e-07
5.3996156e-11
1.2391801e-07
5.0176466e-11
1.2393447e-07
4.1913088e-11
1.2392904e-07
3.0201433e-11
1.2391976e-07
1.6192139e-11
1.2391224e-07
1.0723681e-12
1.2390817e-07
-1.3964316e-11
1.2390801e-07
-2.7754754e-11
1.2391179e-07
-3.919821e-11
1.2391899e-07
-4.7244134e-11
1.2392792e-07
-5.0965945e-11
1.2393302e-07
-4.9710186e-11
1.2391623e-07
-4.3198065e-11
1.2382695e-07
-3.1795528e-11
1.2353565e-07
-1.6654318e-11
1.2222024e-07
1.0513351e-07
1.2659131e-11
1.0512402e-07
2.4178993e-11
1.2220992e-07
3.2914721e-11
1.2352765e-07
3.8098227e-11
1.2382231e-07
3.9354362e-11
1.239153e-07
3.6798408e-11
1.2393572e-07
3.0931278e-11
1.239338e-07
2.2395178e-11
1.2392734e-07
1.2102655e-11
1.2392179e-07
9.1954377e-13
1.2391875e-07
-1.0168904e-11
1.2391869e-07
-2.0271803e-11
1.2392155e-07
-2.8553827e-11
1.239269e-07
-3.4206305e-11
1.2393311e-07
-3.6667017e-11
1.2393473e-07
-3.5530218e-11
1.2391397e-07
-3.0689105e-11
1.238206e-07
-2.2555007e-11
1.235255e-07
-1.1932359e-11
1.2220732e-07
1.0512128e-07
9.0289172e-12
1.0511371e-07
1.7318669e-11
1.2219862e-07
2.3680907e-11
1.2351811e-07
2.7543824e-11
1.2381533e-07
2.860921e-11
1.239112e-07
2.6898759e-11
1.2393453e-07
2.273085e-11
1.2393524e-07
1.6555035e-11
1.2393091e-07
9.0295324e-12
1.2392688e-07
8.4729628e-13
1.2392465e-07
-7.27533e-12
1.2392463e-07
-1.4631532e-11
1.2392683e-07
-2.0607708e-11
1.2393077e-07
-2.4602333e-11
1.2393497e-07
-2.6272212e-11
1.2393405e-07
-2.5373918e-11
1.2391044e-07
-2.1900634e-11
1.2381419e-07
-1.6191049e-11
1.2351654e-07
-8.7844955e-12
1.2219653e-07
1.0511142e-07
6.3621367e-12
1.0510481e-07
1.2327813e-11
1.2218871e-07
1.6957073e-11
1.2350943e-07
1.9823965e-11
1.2380847e-07
2.0727601e-11
1.2390646e-07
1.9597789e-11
1.2393191e-07
1.6638061e-11
1.2393455e-07
1.2214509e-11
1.2393181e-07
6.7643261e-12
1.2392889e-07
8.3049741e-13
1.2392727e-07
-5.0491255e-12
1.2392728e-07
-1.0378785e-11
1.2392893e-07
-1.4657499e-11
1.2393184e-07
-1.7498255e-11
1.2393451e-07
-1.8676062e-11
1.2393174e-07
-1.8034407e-11
1.239061e-07
-1.5632342e-11
1.2380786e-07
-1.1729424e-11
1.2350846e-07
-6.5925446e-12
1.2218732e-07
1.0510327e-07
4.3974604e-12
1.0509742e-07
8.6738744e-12
1.2218036e-07
1.2041624e-11
1.2350197e-07
1.4187694e-11
1.2380233e-07
1.4910463e-11
1.2390184e-07
1.4184769e-11
1.2392883e-07
1.2126556e-11
1.2393289e-07
8.9801787e-12
1.2393133e-07
5.0986236e-12
1.2392925e-07
8.4687417e-13
1.2392804e-07
-3.3590954e-12
1.2392806e-07
-7.1549563e-12
1.2392929e-07
-1.0201554e-11
1.2393136e-07
-1.2217006e-11
1.2393289e-07
-1.3061529e-11
1.2392874e-07
-1.2659715e-11
1.2390164e-07
-1.1071719e-11
1.2380199e-07
-8.4885586e-12
1.235014e-07
-4.9700506e-12
1.2217955e-07
1.0509657e-07
2.9632487e-12
1.0509177e-07
5.9826749e-12
1.2217387e-07
8.4317907e-12
1.2349614e-07
1.0036085e-11
1.2379747e-07
1.0628563e-11
1.2389809e-07
1.0175426e-11
1.2392622e-07
8.7691558e-12
1.2393132e-07
6.5751503e-12
1.2393059e-07
3.8457961e-12
1.239291e-07
8.709187e-13
1.2392818e-07
-2.084337e-12
1.2392814e-07
-4.7408793e-12
1.23929e-07
-6.8739322e-12
1.239304e-07
-8.283949e-12
1.2393105e-07
-8.8774098e-12
1.2392587e-07
-8.6652872e-12
1.2389767e-07
-7.6819048e-12
1.2379698e-07
-6.0345109e-12
1.2349556e-07
-3.6873092e-12
1.2217326e-07
1.0509126e-07
1.9234905e-12
1.0508792e-07
4.0326177e-12
1.221694e-07
5.7917652e-12
1.2349214e-07
6.9859709e-12
1.237942e-07
7.4520942e-12
1.2389564e-07
7.1851656e-12
1.2392458e-07
6.2346843e-12
1.2393045e-07
4.739949e-12
1.2393035e-07
2.8759315e-12
1.2392928e-07
8.3654928e-13
1.2392853e-07
-1.1752804e-12
1.2392841e-07
-2.9942731e-12
1.2392894e-07
-4.4093721e-12
1.2392982e-07
-5.3620283e-12
1.2392974e-07
-5.7851114e-12
1.2392374e-07
-5.6839479e-12
1.2389469e-07
-5.1195849e-12
1.2379321e-07
-4.1283706e-12
1.2349117e-07
-2.6027015e-12
1.2216851e-07
1.050873e-07
1.2085173e-12
1.0508582e-07
2.6287977e-12
1.2216685e-07
3.8761443e-12
1.2348995e-07
4.7393982e-12
1.2379254e-07
5.0890662e-12
1.2389458e-07
4.9443735e-12
1.2392414e-07
4.3151134e-12
1.2393057e-07
3.3262627e-12
1.2393091e-07
2.0690595e-12
1.2393012e-07
7.18703e-13
1.2392949e-07
-5.8871481e-13
1.2392929e-07
-1.7642517e-12
1.2392954e-07
-2.6652088e-12
1.2392997e-07
-3.2558246e-12
1.2392931e-07
-3.5223521e-12
1.2392263e-07
-3.477538e-12
1.2389289e-07
-3.178294e-12
1.2379077e-07
-2.6256767e-12
1.2348822e-07
-1.7026095e-12
1.2216529e-07
1.0508468e-07
7.2420257e-13
1.0508512e-07
1.6323786e-12
1.2216585e-07
2.4935292e-12
1.2348922e-07
3.080679e-12
1.2379222e-07
3.3290305e-12
1.238947e-07
3.254313e-12
1.2392472e-07
2.8319802e-12
1.2393153e-07
2.1845064e-12
1.239322e-07
1.3701474e-12
1.2393165e-07
5.2206694e-13
1.2393109e-07
-2.8221512e-13
1.2393082e-07
-9.7528e-13
1.2393084e-07
-1.493751e-12
1.239309e-07
-1.813933e-12
1.2392976e-07
-1.9399048e-12
1.2392255e-07
-1.9033354e-12
1.2389225e-07
-1.7413899e-12
1.2378959e-07
-1.4586919e-12
1.234866e-07
-9.5897982e-13
1.2216339e-07
1.0508317e-07
4.044719e-13
1.0508535e-07
9.4645621e-13
1.2216588e-07
1.4985033e-12
1.2348945e-07
1.8661455e-12
1.2379272e-07
2.0205095e-12
1.2389554e-07
1.9500508e-12
1.2392588e-07
1.6690383e-12
1.2393302e-07
1.2675012e-12
1.2393397e-07
7.5613873e-13
1.2393357e-07
2.5540789e-13
1.2393309e-07
-1.9977829e-13
1.2393277e-07
-5.5890686e-13
1.2393263e-07
-7.969257e-13
1.2393241e-07
-9.0162238e-13
1.239309e-07
-9.1287182e-13
1.2392324e-07
-8.5406448e-13
1.2389248e-07
-7.4592048e-13
1.2378938e-07
-6.204448e-13
1.2348599e-07
-3.825286e-13
1.2216252e-07
1.0508254e-07
2.1149013e-13
1.0508603e-07
4.9282746e-13
1.2216643e-07
7.9378651e-13
1.234901e-07
9.8422689e-13
1.2379357e-07
1.0375947e-12
1.2389664e-07
9.6021027e-13
1.2392725e-07
7.7198722e-13
1.2393463e-07
5.0212839e-13
1.2393577e-07
2.123905e-13
1.2393553e-07
-5.8353271e-14
1.2393511e-07
-2.7699852e-13
1.2393479e-07
-4.2367677e-13
1.2393453e-07
-4.6400839e-13
1.2393412e-07
-4.3382825e-13
1.2393234e-07
-3.4776968e-13
1.2392435e-07
-2.3750536e-13
1.2389324e-07
-1.5658616e-13
1.2378978e-07
-9.0995244e-14
1.2348607e-07
-5.5174817e-14
1.2216236e-07
1.0508251e-07
6.3522333e-14
1.0508673e-07
1.6072288e-13
1.2216697e-07
2.7616454e-13
1.2349072e-07
3.3949018e-13
1.2379432e-07
3.1399306e-13
1.2389756e-07
2.1577763e-13
1.2392836e-07
7.0157996e-14
1.2393595e-07
-9.9978509e-14
1.2393727e-07
-2.7210582e-13
1.2393718e-07
-3.9071098e-13
1.2393685e-07
-4.7602862e-13
1.2393653e-07
-4.689608e-13
1.2393624e-07
-4.1476481e-13
1.239357e-07
-2.8155654e-13
1.2393373e-07
-1.2854035e-13
1.2392552e-07
1.0146441e-14
1.2389414e-07
1.1428426e-13
1.2379041e-07
1.7928202e-13
1.2348644e-07
1.5838653e-13
1.2216253e-07
1.0508277e-07
-4.6865229e-14
1.0508714e-07
-7.9339695e-14
1.2216716e-07
-8.9918686e-14
1.2349095e-07
-1.382119e-13
1.2379466e-07
-2.180326e-13
1.2389804e-07
-3.3369525e-13
1.2392899e-07
-4.4930557e-13
1.2393674e-07
-5.6294285e-13
1.2393822e-07
-6.6883411e-13
1.2393822e-07
-7.1532119e-13
1.2393799e-07
-7.0866481e-13
1.2393775e-07
-6.4785629e-13
1.2393744e-07
-5.3018259e-13
1.2393686e-07
-3.6089862e-13
1.2393481e-07
-1.7714824e-13
1.2392645e-07
-1.3473101e-14
1.2389489e-07
1.222763e-13
1.2379097e-07
2.3594765e-13
1.2348681e-07
2.0656866e-13
1.2216275e-07
1.0508311e-07
-1.3499875e-13
1.0508712e-07
-2.4433663e-13
1.2216689e-07
-3.589361e-13
1.2349068e-07
-4.7683933e-13
1.2379447e-07
-6.0091759e-13
1.2389794e-07
-7.1386425e-13
1.23929e-07
-8.261411e-13
1.2393688e-07
-9.1876762e-13
1.2393847e-07
-9.7136079e-13
1.2393862e-07
-9.6750506e-13
1.2393848e-07
-9.4670908e-13
1.2393828e-07
-8.6296205e-13
1.2393803e-07
-7.4609737e-13
1.2393744e-07
-5.8148027e-13
1.2393535e-07
-3.9363257e-13
1.2392693e-07
-2.0815763e-13
1.2389527e-07
-5.4659848e-14
1.2379126e-07
1.1115612e-13
1.2348701e-07
1.420995e-13
1.2216288e-07
1.0508339e-07
-2.1565262e-13
1.0508668e-07
-3.9544346e-13
1.2216614e-07
-5.551346e-13
1.2348993e-07
-7.1688852e-13
1.2379375e-07
-8.6510626e-13
1.2389729e-07
-9.8111278e-13
1.2392845e-07
-1.0766129e-12
1.2393643e-07
-1.1440926e-12
1.2393814e-07
-1.1737485e-12
1.2393838e-07
-1.1633554e-12
1.2393834e-07
-1.1368678e-12
1.2393822e-07
-1.081228e-12
1.2393801e-07
-9.8751445e-13
1.2393746e-07
-8.6767538e-13
1.2393538e-07
-7.0783116e-13
1.2392696e-07
-5.1674608e-13
1.2389528e-07
-3.2104873e-13
1.2379123e-07
-9.8179137e-14
1.2348695e-07
1.6057977e-14
1.2216281e-07
1.0508352e-07
-2.850054e-13
1.0508591e-07
-5.0490115e-13
1.2216506e-07
-7.0737076e-13
1.2348884e-07
-8.9367984e-13
1.237927e-07
-1.0443891e-12
1.2389629e-07
-1.1375481e-12
1.2392753e-07
-1.2206759e-12
1.2393559e-07
-1.2692771e-12
1.2393738e-07
-1.291474e-12
1.2393771e-07
-1.2823497e-12
1.2393775e-07
-1.2768563e-12
1.239377e-07
-1.2672346e-12
1.2393756e-07
-1.2241553e-12
1.2393705e-07
-1.1568725e-12
1.2393502e-07
-1.0449343e-12
1.2392663e-07
-8.4763137e-13
1.23895e-07
-6.1696877e-13
1.2379099e-07
-3.316626e-13
1.2348673e-07
-1.1113626e-13
1.2216263e-07
1.0508359e-07
-3.4544495e-13
1.0508502e-07
-6.0590596e-13
1.2216385e-07
-8.2352837e-13
1.2348764e-07
-1.0049696e-12
1.2379153e-07
-1.1358315e-12
1.2389519e-07
-1.2257648e-12
1.239265e-07
-1.2752833e-12
1.2393462e-07
-1.306047e-12
1.2393648e-07
-1.3136125e-12
1.2393688e-07
-1.3339344e-12
1.2393696e-07
-1.3632997e-12
1.2393698e-07
-1.3941866e-12
1.239369e-07
-1.4146429e-12
1.2393647e-07
-1.4063144e-12
1.2393449e-07
-1.3259404e-12
1.2392617e-07
-1.1474917e-12
1.238946e-07
-9.0024624e-13
1.2379063e-07
-5.3014785e-13
1.2348645e-07
-2.055029e-13
1.2216245e-07
1.0508365e-07
-3.8517725e-13
1.0508421e-07
-6.6483395e-13
1.2216276e-07
-9.0287367e-13
1.2348656e-07
-1.0548891e-12
1.2379051e-07
-1.180191e-12
1.2389422e-07
-1.2436129e-12
1.2392558e-07
-1.2702993e-12
1.2393377e-07
-1.2785484e-12
1.2393568e-07
-1.2924238e-12
1.2393613e-07
-1.3149942e-12
1.2393629e-07
-1.3760712e-12
1.2393635e-07
-1.4529312e-12
1.2393632e-07
-1.5429608e-12
1.2393593e-07
-1.5799768e-12
1.2393403e-07
-1.5589944e-12
1.2392577e-07
-1.3955556e-12
1.2389429e-07
-1.0969786e-12
1.2379042e-07
-6.6956453e-13
1.2348632e-07
-2.5599023e-13
1.2216241e-07
1.050838e-07
-4.035909e-13
1.0508359e-07
-6.9935526e-13
1.221619e-07
-9.0509522e-13
1.2348575e-07
-1.0538671e-12
1.2378976e-07
-1.1604089e-12
1.2389353e-07
-1.2060118e-12
1.2392496e-07
-1.2096867e-12
1.239332e-07
-1.1973259e-12
1.2393517e-07
-1.2088968e-12
1.2393564e-07
-1.2528546e-12
1.2393583e-07
-1.3356698e-12
1.2393594e-07
-1.4682008e-12
1.2393595e-07
-1.6065197e-12
1.2393561e-07
-1.6956895e-12
1.2393377e-07
-1.6995804e-12
1.2392559e-07
-1.5498602e-12
1.2389419e-07
-1.2223446e-12
1.2379041e-07
-7.2038906e-13
1.2348638e-07
-2.6772068e-13
1.2216253e-07
1.0508407e-07
-3.8177869e-13
1.0508319e-07
-6.411934e-13
1.2216134e-07
-8.5201293e-13
1.2348522e-07
-9.9204759e-13
1.2378932e-07
-1.070078e-12
1.2389317e-07
-1.109711e-12
1.2392464e-07
-1.0895049e-12
1.2393294e-07
-1.0884106e-12
1.2393493e-07
-1.0895382e-12
1.2393545e-07
-1.1464079e-12
1.2393566e-07
-1.2604876e-12
1.239358e-07
-1.427689e-12
1.2393584e-07
-1.6068463e-12
1.2393556e-07
-1.7311003e-12
1.2393377e-07
-1.7526203e-12
1.2392565e-07
-1.6120358e-12
1.2389432e-07
-1.2735981e-12
1.237906e-07
-7.2902948e-13
1.2348662e-07
-2.6050867e-13
1.2216278e-07
1.0508442e-07
-3.1309653e-13
1.0508297e-07
-5.3440583e-13
1.2216099e-07
-7.1240625e-13
1.2348494e-07
-8.4450623e-13
1.2378912e-07
-9.3554923e-13
1.2389304e-07
-9.5470756e-13
1.239246e-07
-9.5225511e-13
1.2393292e-07
-9.3609899e-13
1.2393496e-07
-9.4356185e-13
1.2393551e-07
-1.0134904e-12
1.2393573e-07
-1.1481175e-12
1.2393588e-07
-1.3468936e-12
1.2393593e-07
-1.5389402e-12
1.2393569e-07
-1.7092405e-12
1.2393395e-07
-1.7426465e-12
1.2392589e-07
-1.6146603e-12
1.2389462e-07
-1.2792678e-12
1.2379093e-07
-7.4393592e-13
1.2348694e-07
-2.5956207e-13
1.2216308e-07
1.0508473e-07
-1.9023007e-13
1.050828e-07
-3.3507622e-13
1.2216075e-07
-4.913297e-13
1.2348479e-07
-6.2491652e-13
1.2378907e-07
-7.1506013e-13
1.2389309e-07
-7.6692138e-13
1.2392471e-07
-7.6567411e-13
1.2393309e-07
-7.5417386e-13
1.2393514e-07
-7.8883745e-13
1.2393569e-07
-8.6379528e-13
1.2393593e-07
-1.0209558e-12
1.2393607e-07
-1.2094294e-12
1.2393615e-07
-1.4405212e-12
1.2393593e-07
-1.6184039e-12
1.2393423e-07
-1.679855e-12
1.2392623e-07
-1.5797332e-12
1.2389498e-07
-1.288337e-12
1.237913e-07
-7.8126237e-13
1.2348727e-07
-2.978002e-13
1.2216332e-07
1.0508495e-07
9.4113703e-15
1.050824e-07
-4.9100281e-14
1.2216041e-07
-1.6542289e-13
1.2348466e-07
-3.1087968e-13
1.2378908e-07
-4.4988058e-13
1.2389318e-07
-5.3401325e-13
1.2392485e-07
-5.5453097e-13
1.2393326e-07
-5.8580721e-13
1.2393531e-07
-6.1829589e-13
1.2393586e-07
-7.1449131e-13
1.2393606e-07
-8.7297625e-13
1.2393623e-07
-1.0616884e-12
1.2393634e-07
-1.2942903e-12
1.2393613e-07
-1.4777453e-12
1.2393448e-07
-1.5895671e-12
1.2392651e-07
-1.548311e-12
1.2389531e-07
-1.3493057e-12
1.2379162e-07
-9.175588e-13
1.2348753e-07
-3.8355929e-13
1.221634e-07
1.0508487e-07
3.473102e-13
1.050819e-07
4.4632768e-13
1.2216001e-07
2.9279517e-13
1.2348459e-07
6.1987135e-14
1.2378915e-07
-1.3585802e-13
1.2389329e-07
-2.7169854e-13
1.2392499e-07
-3.5448369e-13
1.2393339e-07
-4.0902851e-13
1.2393544e-07
-4.6629889e-13
1.2393596e-07
-5.4575164e-13
1.2393618e-07
-6.9597985e-13
1.2393634e-07
-8.9018793e-13
1.2393645e-07
-1.1064759e-12
1.2393628e-07
-1.2995386e-12
1.2393467e-07
-1.4539964e-12
1.2392675e-07
-1.530229e-12
1.2389561e-07
-1.4710025e-12
1.2379196e-07
-1.2178165e-12
1.2348778e-07
-6.7382867e-13
1.2216332e-07
1.0508468e-07
1.152277e-12
1.0507885e-07
1.327023e-12
1.2215956e-07
8.7785345e-13
1.2348473e-07
4.588394e-13
1.2378923e-07
1.6944663e-13
1.2389332e-07
-1.8957432e-14
1.2392498e-07
-1.5640364e-13
1.2393335e-07
-2.3860227e-13
1.2393535e-07
-3.141633e-13
1.2393584e-07
-3.8963452e-13
1.2393605e-07
-5.1769747e-13
1.2393621e-07
-6.7941066e-13
1.2393634e-07
-8.7859768e-13
1.2393622e-07
-1.0716961e-12
1.2393464e-07
-1.2583856e-12
1.2392682e-07
-1.4733487e-12
1.2389578e-07
-1.7056095e-12
1.2379228e-07
-1.8875749e-12
1.2348819e-07
-1.414106e-12
1.221632e-07
1.0508189e-07
4.0360065e-12
1.0506929e-07
2.955213e-12
1.2215857e-07
1.4915803e-12
1.2348526e-07
7.4564381e-13
1.2378921e-07
3.7009948e-13
1.2389302e-07
1.4200471e-13
1.2392459e-07
1.1094016e-15
1.239329e-07
-9.7282022e-14
1.2393486e-07
-1.6184555e-13
1.2393531e-07
-2.2841831e-13
1.2393549e-07
-3.1542541e-13
1.2393565e-07
-4.3241798e-13
1.239358e-07
-5.88351e-13
1.2393571e-07
-7.4424879e-13
1.2393419e-07
-9.4365456e-13
1.2392643e-07
-1.2667625e-12
1.2389555e-07
-1.9205506e-12
1.2379239e-07
-3.2490379e-12
1.2348892e-07
-4.1931809e-12
1.2216243e-07
1.0507252e-07
3.8321053e-12
2.615496e-12
1.190767e-12
6.0859785e-13
3.7515739e-13
2.0784401e-13
9.6990106e-14
1.6282734e-14
-3.0233298e-14
-6.9202931e-14
-1.2196756e-13
-1.7503404e-13
-2.6712752e-13
-3.5065543e-13
-4.565008e-13
-6.8267547e-13
-1.2603319e-12
-2.666512e-12
-3.8587224e-12
)
;

boundaryField
{
    Wall
    {
        type            calculated;
        value           uniform 0;
    }
    frontAndBack
    {
        type            empty;
        value           nonuniform 0();
    }
    atmosphere
    {
        type            calculated;
        value           nonuniform List<scalar> 
20
(
1.0505476e-07
1.2215332e-07
1.234822e-07
1.2378597e-07
1.2388971e-07
1.239213e-07
1.2392963e-07
1.2393158e-07
1.2393195e-07
1.2393211e-07
1.2393225e-07
1.2393244e-07
1.239324e-07
1.2393084e-07
1.2392309e-07
1.2389226e-07
1.2378921e-07
1.2348592e-07
1.2215718e-07
1.0505807e-07
)
;
    }
}


// ************************************************************************* //
