/*--------------------------------*- C++ -*----------------------------------*\
| =========                 |                                                 |
| \\      /  F ield         | OpenFOAM: The Open Source CFD Toolbox           |
|  \\    /   O peration     | Version:  3.0.1                                 |
|   \\  /    A nd           | Web:      www.OpenFOAM.org                      |
|    \\/     M anipulation  |                                                 |
\*---------------------------------------------------------------------------*/
FoamFile
{
    version     2.0;
    format      ascii;
    class       volScalarField;
    location    "5";
    object      thermalDiffusivity;
}
// * * * * * * * * * * * * * * * * * * * * * * * * * * * * * * * * * * * * * //

dimensions      [0 2 -1 0 0 0 0];

internalField   nonuniform List<scalar> 
800
(
1.0343161e-07
1.0343162e-07
1.0343162e-07
1.0343162e-07
1.0343162e-07
1.0343162e-07
1.0343162e-07
1.0343162e-07
1.0343162e-07
1.0343162e-07
1.0343162e-07
1.0343162e-07
1.0343162e-07
1.0343162e-07
1.0343162e-07
1.0343162e-07
1.0343162e-07
1.0343162e-07
1.0343162e-07
1.0343161e-07
1.0543701e-07
1.0543719e-07
1.0543726e-07
1.0543722e-07
1.0543714e-07
1.0543736e-07
1.0543724e-07
1.0543725e-07
1.0543722e-07
1.0543735e-07
1.0543724e-07
1.0543724e-07
1.0543735e-07
1.0543724e-07
1.0543724e-07
1.0543714e-07
1.0543714e-07
1.0543716e-07
1.0543725e-07
1.05437e-07
0.00022874204
0.00022874205
0.00022874211
0.00022874217
0.00022874222
0.00022874226
0.00022874229
0.00022874231
0.00022874233
0.00022874234
0.00022874234
0.00022874233
0.00022874231
0.00022874229
0.00022874226
0.00022874222
0.00022874217
0.00022874211
0.00022874205
0.00022874204
0.00022852073
0.00022852089
0.00022852098
0.00022852105
0.0002285211
0.00022852114
0.00022852117
0.00022852119
0.00022852121
0.00022852122
0.00022852122
0.00022852121
0.00022852119
0.00022852117
0.00022852114
0.0002285211
0.00022852105
0.00022852098
0.00022852089
0.00022852073
0.00022835624
0.0002283565
0.00022835662
0.0002283567
0.00022835675
0.00022835679
0.00022835683
0.00022835685
0.00022835687
0.00022835687
0.00022835687
0.00022835687
0.00022835685
0.00022835683
0.00022835679
0.00022835675
0.0002283567
0.00022835662
0.0002283565
0.00022835623
0.0002282209
0.00022822117
0.00022822131
0.00022822139
0.00022822145
0.00022822149
0.00022822153
0.00022822155
0.00022822157
0.00022822158
0.00022822158
0.00022822157
0.00022822155
0.00022822153
0.00022822149
0.00022822145
0.00022822139
0.00022822131
0.00022822117
0.0002282209
0.00022810332
0.00022810358
0.00022810373
0.00022810381
0.00022810388
0.00022810392
0.00022810396
0.00022810398
0.000228104
0.00022810401
0.00022810401
0.000228104
0.00022810398
0.00022810396
0.00022810392
0.00022810388
0.00022810381
0.00022810372
0.00022810358
0.00022810332
0.00022799868
0.00022799892
0.00022799906
0.00022799916
0.00022799922
0.00022799927
0.0002279993
0.00022799933
0.00022799934
0.00022799935
0.00022799935
0.00022799934
0.00022799933
0.0002279993
0.00022799927
0.00022799922
0.00022799916
0.00022799906
0.00022799892
0.00022799868
0.00022790494
0.00022790516
0.00022790529
0.00022790538
0.00022790545
0.00022790549
0.00022790553
0.00022790555
0.00022790557
0.00022790558
0.00022790558
0.00022790557
0.00022790555
0.00022790553
0.00022790549
0.00022790545
0.00022790538
0.00022790529
0.00022790516
0.00022790494
0.00022782109
0.00022782129
0.00022782142
0.0002278215
0.00022782156
0.00022782161
0.00022782164
0.00022782167
0.00022782168
0.00022782169
0.00022782169
0.00022782168
0.00022782167
0.00022782164
0.00022782161
0.00022782156
0.0002278215
0.00022782142
0.00022782129
0.00022782109
0.0002277465
0.00022774668
0.00022774679
0.00022774687
0.00022774693
0.00022774697
0.000227747
0.00022774703
0.00022774704
0.00022774705
0.00022774705
0.00022774704
0.00022774703
0.000227747
0.00022774697
0.00022774693
0.00022774687
0.00022774679
0.00022774668
0.0002277465
0.00022768058
0.00022768074
0.00022768084
0.00022768091
0.00022768097
0.00022768101
0.00022768104
0.00022768106
0.00022768107
0.00022768108
0.00022768108
0.00022768107
0.00022768106
0.00022768104
0.00022768101
0.00022768097
0.00022768091
0.00022768084
0.00022768074
0.00022768058
0.00022762277
0.00022762291
0.000227623
0.00022762306
0.00022762311
0.00022762315
0.00022762318
0.00022762319
0.00022762321
0.00022762321
0.00022762321
0.00022762321
0.00022762319
0.00022762318
0.00022762315
0.00022762311
0.00022762306
0.000227623
0.00022762291
0.00022762277
0.00022757247
0.00022757259
0.00022757267
0.00022757272
0.00022757277
0.0002275728
0.00022757282
0.00022757284
0.00022757285
0.00022757286
0.00022757286
0.00022757285
0.00022757284
0.00022757282
0.0002275728
0.00022757277
0.00022757272
0.00022757267
0.00022757259
0.00022757247
0.00022752906
0.00022752916
0.00022752923
0.00022752928
0.00022752932
0.00022752935
0.00022752937
0.00022752939
0.0002275294
0.0002275294
0.0002275294
0.0002275294
0.00022752939
0.00022752937
0.00022752935
0.00022752932
0.00022752928
0.00022752923
0.00022752916
0.00022752906
0.00022749192
0.00022749201
0.00022749207
0.00022749211
0.00022749214
0.00022749217
0.00022749219
0.0002274922
0.00022749221
0.00022749221
0.00022749221
0.00022749221
0.0002274922
0.00022749219
0.00022749217
0.00022749214
0.00022749211
0.00022749207
0.00022749201
0.00022749192
0.00022746041
0.00022746049
0.00022746054
0.00022746058
0.00022746061
0.00022746063
0.00022746064
0.00022746065
0.00022746066
0.00022746067
0.00022746067
0.00022746066
0.00022746065
0.00022746064
0.00022746063
0.00022746061
0.00022746058
0.00022746054
0.00022746049
0.00022746041
0.00022743393
0.00022743399
0.00022743403
0.00022743407
0.00022743409
0.00022743411
0.00022743412
0.00022743413
0.00022743414
0.00022743414
0.00022743414
0.00022743414
0.00022743413
0.00022743412
0.00022743411
0.00022743409
0.00022743407
0.00022743403
0.00022743399
0.00022743393
0.00022741186
0.00022741191
0.00022741195
0.00022741197
0.00022741199
0.00022741201
0.00022741202
0.00022741203
0.00022741203
0.00022741204
0.00022741204
0.00022741203
0.00022741203
0.00022741202
0.00022741201
0.00022741199
0.00022741197
0.00022741195
0.00022741191
0.00022741186
0.00022739364
0.00022739368
0.00022739371
0.00022739373
0.00022739375
0.00022739376
0.00022739377
0.00022739378
0.00022739378
0.00022739379
0.00022739379
0.00022739378
0.00022739378
0.00022739377
0.00022739376
0.00022739375
0.00022739373
0.00022739371
0.00022739368
0.00022739364
0.00022737873
0.00022737877
0.0002273788
0.00022737881
0.00022737883
0.00022737884
0.00022737885
0.00022737885
0.00022737885
0.00022737886
0.00022737886
0.00022737885
0.00022737885
0.00022737885
0.00022737884
0.00022737883
0.00022737881
0.0002273788
0.00022737877
0.00022737873
0.00022736666
0.00022736669
0.00022736671
0.00022736672
0.00022736673
0.00022736674
0.00022736675
0.00022736675
0.00022736675
0.00022736676
0.00022736676
0.00022736675
0.00022736675
0.00022736675
0.00022736674
0.00022736673
0.00022736672
0.00022736671
0.00022736669
0.00022736666
0.00022735696
0.00022735698
0.000227357
0.00022735701
0.00022735702
0.00022735703
0.00022735703
0.00022735704
0.00022735704
0.00022735704
0.00022735704
0.00022735704
0.00022735704
0.00022735703
0.00022735703
0.00022735702
0.00022735701
0.000227357
0.00022735698
0.00022735696
0.00022734925
0.00022734927
0.00022734928
0.00022734929
0.00022734929
0.0002273493
0.0002273493
0.00022734931
0.00022734931
0.00022734931
0.00022734931
0.00022734931
0.00022734931
0.0002273493
0.0002273493
0.00022734929
0.00022734929
0.00022734928
0.00022734927
0.00022734925
0.00022734317
0.00022734319
0.0002273432
0.0002273432
0.00022734321
0.00022734321
0.00022734322
0.00022734322
0.00022734322
0.00022734322
0.00022734322
0.00022734322
0.00022734322
0.00022734322
0.00022734321
0.00022734321
0.0002273432
0.0002273432
0.00022734319
0.00022734317
0.00022733843
0.00022733844
0.00022733845
0.00022733845
0.00022733846
0.00022733846
0.00022733846
0.00022733847
0.00022733847
0.00022733847
0.00022733847
0.00022733847
0.00022733847
0.00022733846
0.00022733846
0.00022733846
0.00022733845
0.00022733845
0.00022733844
0.00022733843
0.00022733476
0.00022733477
0.00022733478
0.00022733478
0.00022733479
0.00022733479
0.00022733479
0.00022733479
0.00022733479
0.00022733479
0.00022733479
0.00022733479
0.00022733479
0.00022733479
0.00022733479
0.00022733479
0.00022733478
0.00022733478
0.00022733477
0.00022733476
0.00022733196
0.00022733196
0.00022733197
0.00022733197
0.00022733197
0.00022733198
0.00022733198
0.00022733198
0.00022733198
0.00022733198
0.00022733198
0.00022733198
0.00022733198
0.00022733198
0.00022733198
0.00022733197
0.00022733197
0.00022733197
0.00022733196
0.00022733196
0.00022732983
0.00022732983
0.00022732984
0.00022732984
0.00022732984
0.00022732984
0.00022732984
0.00022732984
0.00022732984
0.00022732984
0.00022732984
0.00022732984
0.00022732984
0.00022732984
0.00022732984
0.00022732984
0.00022732984
0.00022732984
0.00022732983
0.00022732983
0.00022732823
0.00022732823
0.00022732823
0.00022732824
0.00022732824
0.00022732824
0.00022732824
0.00022732824
0.00022732824
0.00022732824
0.00022732824
0.00022732824
0.00022732824
0.00022732824
0.00022732824
0.00022732824
0.00022732824
0.00022732823
0.00022732823
0.00022732823
0.00022732704
0.00022732704
0.00022732704
0.00022732704
0.00022732704
0.00022732704
0.00022732705
0.00022732705
0.00022732705
0.00022732705
0.00022732705
0.00022732705
0.00022732705
0.00022732705
0.00022732704
0.00022732704
0.00022732704
0.00022732704
0.00022732704
0.00022732704
0.00022732616
0.00022732616
0.00022732616
0.00022732616
0.00022732616
0.00022732616
0.00022732616
0.00022732616
0.00022732617
0.00022732617
0.00022732617
0.00022732617
0.00022732617
0.00022732616
0.00022732616
0.00022732616
0.00022732616
0.00022732616
0.00022732616
0.00022732616
0.00022732552
0.00022732552
0.00022732552
0.00022732552
0.00022732552
0.00022732552
0.00022732552
0.00022732552
0.00022732552
0.00022732552
0.00022732552
0.00022732552
0.00022732552
0.00022732552
0.00022732552
0.00022732552
0.00022732552
0.00022732552
0.00022732552
0.00022732552
0.00022732505
0.00022732505
0.00022732506
0.00022732506
0.00022732506
0.00022732506
0.00022732506
0.00022732506
0.00022732506
0.00022732506
0.00022732506
0.00022732506
0.00022732506
0.00022732506
0.00022732506
0.00022732506
0.00022732506
0.00022732506
0.00022732505
0.00022732505
0.00022732472
0.00022732472
0.00022732472
0.00022732472
0.00022732472
0.00022732473
0.00022732473
0.00022732473
0.00022732473
0.00022732473
0.00022732473
0.00022732473
0.00022732473
0.00022732473
0.00022732473
0.00022732472
0.00022732472
0.00022732472
0.00022732472
0.00022732472
0.00022732449
0.00022732449
0.00022732449
0.00022732449
0.00022732449
0.00022732449
0.00022732449
0.00022732449
0.00022732449
0.00022732449
0.00022732449
0.00022732449
0.00022732449
0.00022732449
0.00022732449
0.00022732449
0.00022732449
0.00022732449
0.00022732449
0.00022732449
0.00022732433
0.00022732433
0.00022732433
0.00022732433
0.00022732433
0.00022732433
0.00022732433
0.00022732433
0.00022732433
0.00022732433
0.00022732433
0.00022732433
0.00022732433
0.00022732433
0.00022732433
0.00022732433
0.00022732433
0.00022732433
0.00022732433
0.00022732433
0.00022732422
0.00022732422
0.00022732422
0.00022732422
0.00022732422
0.00022732422
0.00022732422
0.00022732422
0.00022732422
0.00022732422
0.00022732422
0.00022732422
0.00022732422
0.00022732422
0.00022732422
0.00022732422
0.00022732422
0.00022732422
0.00022732422
0.00022732422
0.00022732416
0.00022732416
0.00022732416
0.00022732416
0.00022732416
0.00022732416
0.00022732416
0.00022732416
0.00022732416
0.00022732416
0.00022732416
0.00022732416
0.00022732416
0.00022732416
0.00022732416
0.00022732416
0.00022732416
0.00022732416
0.00022732416
0.00022732416
0.00022732413
0.00022732413
0.00022732413
0.00022732413
0.00022732413
0.00022732413
0.00022732413
0.00022732413
0.00022732413
0.00022732413
0.00022732413
0.00022732413
0.00022732413
0.00022732413
0.00022732413
0.00022732413
0.00022732413
0.00022732413
0.00022732413
0.00022732413
)
;

boundaryField
{
    Wall
    {
        type            calculated;
        value           uniform 4e-05;
    }
    frontAndBack
    {
        type            empty;
    }
    atmosphere
    {
        type            calculated;
        value           uniform 4e-05;
    }
}


// ************************************************************************* //
