/*--------------------------------*- C++ -*----------------------------------*\
| =========                 |                                                 |
| \\      /  F ield         | OpenFOAM: The Open Source CFD Toolbox           |
|  \\    /   O peration     | Version:  3.0.1                                 |
|   \\  /    A nd           | Web:      www.OpenFOAM.org                      |
|    \\/     M anipulation  |                                                 |
\*---------------------------------------------------------------------------*/
FoamFile
{
    version     2.0;
    format      ascii;
    class       volScalarField;
    location    "5";
    object      TS;
}
// * * * * * * * * * * * * * * * * * * * * * * * * * * * * * * * * * * * * * //

dimensions      [0 0 0 1 0 0 0];

internalField   nonuniform List<scalar> 
800
(
305.72984
305.72984
305.72984
305.72984
305.72984
305.72984
305.72984
305.72984
305.72984
305.72984
305.72984
305.72984
305.72984
305.72984
305.72984
305.72984
305.72984
305.72984
305.72984
305.72984
299.41807
299.4179
299.41799
299.41805
299.41809
299.41812
299.41814
299.41815
299.41816
299.41817
299.41817
299.41816
299.41815
299.41814
299.41812
299.41809
299.41805
299.41799
299.4179
299.41807
298.97496
298.97497
298.97502
298.97507
298.9751
298.97513
298.97515
298.97517
298.97518
298.97518
298.97518
298.97518
298.97517
298.97515
298.97513
298.9751
298.97507
298.97502
298.97497
298.97496
298.8154
298.81556
298.81564
298.81569
298.81573
298.81575
298.81578
298.81579
298.8158
298.81581
298.81581
298.8158
298.81579
298.81578
298.81575
298.81573
298.81569
298.81564
298.81556
298.8154
298.69785
298.6981
298.69822
298.69828
298.69832
298.69835
298.69837
298.69838
298.69839
298.6984
298.6984
298.69839
298.69838
298.69837
298.69835
298.69832
298.69828
298.69822
298.6981
298.69785
298.60349
298.60375
298.60387
298.60394
298.60398
298.60401
298.60404
298.60405
298.60406
298.60407
298.60407
298.60406
298.60405
298.60404
298.60401
298.60398
298.60394
298.60387
298.60375
298.60349
298.52324
298.52347
298.5236
298.52367
298.52372
298.52375
298.52377
298.52379
298.5238
298.5238
298.5238
298.5238
298.52379
298.52377
298.52375
298.52372
298.52367
298.5236
298.52347
298.52324
298.45271
298.45293
298.45305
298.45313
298.45317
298.45321
298.45323
298.45325
298.45326
298.45326
298.45326
298.45326
298.45325
298.45323
298.45321
298.45317
298.45313
298.45305
298.45293
298.45271
298.38992
298.39012
298.39023
298.3903
298.39035
298.39038
298.39041
298.39042
298.39043
298.39044
298.39044
298.39043
298.39042
298.39041
298.39038
298.39035
298.3903
298.39023
298.39012
298.38992
298.33389
298.33407
298.33417
298.33424
298.33429
298.33432
298.33434
298.33436
298.33437
298.33437
298.33437
298.33437
298.33436
298.33434
298.33432
298.33429
298.33424
298.33417
298.33407
298.33389
298.28406
298.28422
298.28432
298.28438
298.28442
298.28445
298.28448
298.28449
298.2845
298.28451
298.28451
298.2845
298.28449
298.28448
298.28445
298.28442
298.28438
298.28432
298.28422
298.28406
298.24002
298.24016
298.24025
298.2403
298.24034
298.24037
298.24039
298.2404
298.24041
298.24042
298.24042
298.24041
298.2404
298.24039
298.24037
298.24034
298.2403
298.24025
298.24016
298.24002
298.20136
298.20148
298.20156
298.20161
298.20165
298.20167
298.20169
298.2017
298.20171
298.20172
298.20172
298.20171
298.2017
298.20169
298.20167
298.20165
298.20161
298.20156
298.20148
298.20136
298.16769
298.1678
298.16786
298.16791
298.16794
298.16796
298.16798
298.16799
298.168
298.168
298.168
298.168
298.16799
298.16798
298.16796
298.16794
298.16791
298.16786
298.1678
298.16769
298.1386
298.13869
298.13875
298.13879
298.13881
298.13883
298.13885
298.13886
298.13887
298.13887
298.13887
298.13887
298.13886
298.13885
298.13883
298.13881
298.13879
298.13875
298.13869
298.1386
298.11367
298.11375
298.1138
298.11384
298.11386
298.11388
298.11389
298.1139
298.11391
298.11391
298.11391
298.11391
298.1139
298.11389
298.11388
298.11386
298.11384
298.1138
298.11375
298.11367
298.0925
298.09257
298.09261
298.09264
298.09266
298.09268
298.09269
298.0927
298.0927
298.0927
298.0927
298.0927
298.0927
298.09269
298.09268
298.09266
298.09264
298.09261
298.09257
298.0925
298.07468
298.07473
298.07477
298.07479
298.07481
298.07482
298.07483
298.07484
298.07485
298.07485
298.07485
298.07485
298.07484
298.07483
298.07482
298.07481
298.07479
298.07477
298.07473
298.07468
298.0598
298.05985
298.05988
298.0599
298.05991
298.05992
298.05993
298.05994
298.05994
298.05994
298.05994
298.05994
298.05994
298.05993
298.05992
298.05991
298.0599
298.05988
298.05985
298.0598
298.0475
298.04754
298.04756
298.04758
298.04759
298.0476
298.04761
298.04761
298.04761
298.04762
298.04762
298.04761
298.04761
298.04761
298.0476
298.04759
298.04758
298.04756
298.04754
298.0475
298.03741
298.03745
298.03747
298.03748
298.03749
298.0375
298.0375
298.03751
298.03751
298.03751
298.03751
298.03751
298.03751
298.0375
298.0375
298.03749
298.03748
298.03747
298.03745
298.03741
298.02923
298.02925
298.02927
298.02928
298.02929
298.0293
298.0293
298.0293
298.0293
298.02931
298.02931
298.0293
298.0293
298.0293
298.0293
298.02929
298.02928
298.02927
298.02925
298.02923
298.02264
298.02266
298.02267
298.02268
298.02269
298.0227
298.0227
298.0227
298.0227
298.0227
298.0227
298.0227
298.0227
298.0227
298.0227
298.02269
298.02268
298.02267
298.02266
298.02264
298.01739
298.01741
298.01742
298.01743
298.01743
298.01743
298.01744
298.01744
298.01744
298.01744
298.01744
298.01744
298.01744
298.01744
298.01743
298.01743
298.01743
298.01742
298.01741
298.01739
298.01325
298.01326
298.01327
298.01327
298.01328
298.01328
298.01328
298.01328
298.01329
298.01329
298.01329
298.01329
298.01328
298.01328
298.01328
298.01328
298.01327
298.01327
298.01326
298.01325
298.01
298.01001
298.01002
298.01002
298.01003
298.01003
298.01003
298.01003
298.01003
298.01003
298.01003
298.01003
298.01003
298.01003
298.01003
298.01003
298.01002
298.01002
298.01001
298.01
298.00749
298.0075
298.0075
298.00751
298.00751
298.00751
298.00751
298.00751
298.00751
298.00751
298.00751
298.00751
298.00751
298.00751
298.00751
298.00751
298.00751
298.0075
298.0075
298.00749
298.00556
298.00557
298.00557
298.00557
298.00558
298.00558
298.00558
298.00558
298.00558
298.00558
298.00558
298.00558
298.00558
298.00558
298.00558
298.00558
298.00557
298.00557
298.00557
298.00556
298.00409
298.0041
298.0041
298.0041
298.00411
298.00411
298.00411
298.00411
298.00411
298.00411
298.00411
298.00411
298.00411
298.00411
298.00411
298.00411
298.0041
298.0041
298.0041
298.00409
298.00299
298.00299
298.00299
298.003
298.003
298.003
298.003
298.003
298.003
298.003
298.003
298.003
298.003
298.003
298.003
298.003
298.003
298.00299
298.00299
298.00299
298.00216
298.00217
298.00217
298.00217
298.00217
298.00217
298.00217
298.00217
298.00217
298.00217
298.00217
298.00217
298.00217
298.00217
298.00217
298.00217
298.00217
298.00217
298.00217
298.00216
298.00155
298.00156
298.00156
298.00156
298.00156
298.00156
298.00156
298.00156
298.00156
298.00156
298.00156
298.00156
298.00156
298.00156
298.00156
298.00156
298.00156
298.00156
298.00156
298.00155
298.00111
298.00111
298.00111
298.00111
298.00111
298.00111
298.00111
298.00111
298.00111
298.00111
298.00111
298.00111
298.00111
298.00111
298.00111
298.00111
298.00111
298.00111
298.00111
298.00111
298.00078
298.00078
298.00079
298.00079
298.00079
298.00079
298.00079
298.00079
298.00079
298.00079
298.00079
298.00079
298.00079
298.00079
298.00079
298.00079
298.00079
298.00079
298.00078
298.00078
298.00055
298.00055
298.00055
298.00055
298.00055
298.00055
298.00055
298.00055
298.00055
298.00055
298.00055
298.00055
298.00055
298.00055
298.00055
298.00055
298.00055
298.00055
298.00055
298.00055
298.00039
298.00039
298.00039
298.00039
298.00039
298.00039
298.00039
298.00039
298.00039
298.00039
298.00039
298.00039
298.00039
298.00039
298.00039
298.00039
298.00039
298.00039
298.00039
298.00039
298.00027
298.00028
298.00028
298.00028
298.00028
298.00028
298.00028
298.00028
298.00028
298.00028
298.00028
298.00028
298.00028
298.00028
298.00028
298.00028
298.00028
298.00028
298.00028
298.00027
298.0002
298.0002
298.0002
298.0002
298.0002
298.0002
298.0002
298.0002
298.0002
298.0002
298.0002
298.0002
298.0002
298.0002
298.0002
298.0002
298.0002
298.0002
298.0002
298.0002
298.00015
298.00015
298.00015
298.00015
298.00015
298.00015
298.00015
298.00015
298.00015
298.00015
298.00015
298.00015
298.00015
298.00015
298.00015
298.00015
298.00015
298.00015
298.00015
298.00015
298.00013
298.00013
298.00013
298.00013
298.00013
298.00013
298.00013
298.00013
298.00013
298.00013
298.00013
298.00013
298.00013
298.00013
298.00013
298.00013
298.00013
298.00013
298.00013
298.00013
)
;

boundaryField
{
    Wall
    {
        type            zeroGradient;
    }
    frontAndBack
    {
        type            empty;
    }
    atmosphere
    {
        type            zeroGradient;
    }
}


// ************************************************************************* //
