/*--------------------------------*- C++ -*----------------------------------*\
| =========                 |                                                 |
| \\      /  F ield         | OpenFOAM: The Open Source CFD Toolbox           |
|  \\    /   O peration     | Version:  3.0.1                                 |
|   \\  /    A nd           | Web:      www.OpenFOAM.org                      |
|    \\/     M anipulation  |                                                 |
\*---------------------------------------------------------------------------*/
FoamFile
{
    version     2.0;
    format      ascii;
    class       volVectorField;
    location    "5";
    object      U;
}
// * * * * * * * * * * * * * * * * * * * * * * * * * * * * * * * * * * * * * //

dimensions      [0 1 -1 0 0 0 0];

internalField   nonuniform List<vector> 
800
(
(-6.8357525e-07 0.0012611376 0)
(-9.7769855e-07 0.001261374 0)
(-4.2692731e-07 0.001261555 0)
(-1.5955446e-07 0.0012616598 0)
(-4.8714634e-08 0.001261708 0)
(-7.4012731e-09 0.0012617281 0)
(5.4239507e-09 0.0012617359 0)
(7.3176158e-09 0.0012617387 0)
(5.2659652e-09 0.0012617396 0)
(1.9044083e-09 0.0012617399 0)
(-1.7593112e-09 0.0012617399 0)
(-5.1256541e-09 0.0012617396 0)
(-7.1874425e-09 0.0012617387 0)
(-5.30405e-09 0.0012617359 0)
(7.5085424e-09 0.0012617281 0)
(4.8812421e-08 0.001261708 0)
(1.5964458e-07 0.0012616598 0)
(4.2700538e-07 0.001261555 0)
(9.7774607e-07 0.001261374 0)
(6.8358793e-07 0.0012611376 0)
(-7.3125111e-07 0.0012974776 0)
(-8.617203e-07 0.0012984989 0)
(-1.6565013e-07 0.0012988333 0)
(-1.7754108e-08 0.0012989693 0)
(1.5644209e-08 0.0012990205 0)
(1.9537284e-08 0.0012990378 0)
(1.616689e-08 0.0012990423 0)
(1.1467234e-08 0.0012990426 0)
(6.783049e-09 0.0012990418 0)
(2.2827745e-09 0.0012990413 0)
(-2.1382831e-09 0.0012990413 0)
(-6.6453636e-09 0.0012990418 0)
(-1.1341148e-08 0.0012990426 0)
(-1.6045682e-08 0.0012990423 0)
(-1.9435636e-08 0.0012990378 0)
(-1.5550773e-08 0.0012990205 0)
(1.7849314e-08 0.0012989693 0)
(1.6573786e-07 0.0012988333 0)
(8.6177152e-07 0.0012984989 0)
(7.3126199e-07 0.0012974776 0)
(1.5038921e-07 0.0015107858 0)
(3.0685786e-07 0.0015168307 0)
(2.9662304e-07 0.0015176461 0)
(2.7077362e-07 0.001517846 0)
(2.1805983e-07 0.0015178738 0)
(1.6495004e-07 0.0015178565 0)
(1.1953092e-07 0.0015178324 0)
(8.1108627e-08 0.0015178121 0)
(4.7327273e-08 0.0015177982 0)
(1.6060916e-08 0.0015177913 0)
(-1.4431759e-08 0.0015177913 0)
(-4.5772453e-08 0.0015177982 0)
(-7.9692836e-08 0.0015178121 0)
(-1.1826378e-07 0.0015178324 0)
(-1.6382924e-07 0.0015178565 0)
(-2.1703559e-07 0.0015178737 0)
(-2.698057e-07 0.0015178459 0)
(-2.9574991e-07 0.001517646 0)
(-3.0618845e-07 0.0015168305 0)
(-1.501213e-07 0.0015107858 0)
(1.601892e-05 0.0026470645 0)
(2.9212155e-05 0.0029452418 0)
(2.3263033e-05 0.002953248 0)
(1.7313609e-05 0.0029525445 0)
(1.2810499e-05 0.0029519681 0)
(9.4127748e-06 0.0029515653 0)
(6.7579151e-06 0.0029513076 0)
(4.5718392e-06 0.0029511543 0)
(2.6645155e-06 0.0029510699 0)
(9.0295677e-07 0.0029510323 0)
(-8.1477693e-07 0.0029510318 0)
(-2.5804129e-06 0.0029510684 0)
(-4.4949778e-06 0.002951152 0)
(-6.6892701e-06 0.0029513047 0)
(-9.3517112e-06 0.0029515619 0)
(-1.2755228e-05 0.0029519639 0)
(-1.7262866e-05 0.0029525383 0)
(-2.3217854e-05 0.0029532385 0)
(-2.9178696e-05 0.002945227 0)
(-1.6005684e-05 0.002647047 0)
(1.0390417e-05 0.0022280662 0)
(2.2495003e-05 0.0025658564 0)
(2.2574687e-05 0.002579315 0)
(1.8954589e-05 0.0025781108 0)
(1.4945657e-05 0.0025763722 0)
(1.1385285e-05 0.0025749533 0)
(8.3488582e-06 0.0025739667 0)
(5.7184878e-06 0.0025733386 0)
(3.3558974e-06 0.0025729731 0)
(1.1410174e-06 0.0025728046 0)
(-1.02847e-06 0.0025728036 0)
(-3.2482583e-06 0.0025729699 0)
(-5.6202259e-06 0.0025733336 0)
(-8.2615371e-06 0.00257396 0)
(-1.1308184e-05 0.0025749446 0)
(-1.4877194e-05 0.0025763606 0)
(-1.8893806e-05 0.0025780937 0)
(-2.2523448e-05 0.0025792898 0)
(-2.2459604e-05 0.0025658194 0)
(-1.0378043e-05 0.0022280243 0)
(5.6548659e-06 0.002128907 0)
(1.360269e-05 0.0024662817 0)
(1.572385e-05 0.0024845148 0)
(1.4632428e-05 0.0024847033 0)
(1.2366673e-05 0.0024830202 0)
(9.8647599e-06 0.0024812965 0)
(7.4542594e-06 0.0024799855 0)
(5.2036011e-06 0.002479108 0)
(3.088704e-06 0.0024785816 0)
(1.0580715e-06 0.0024783351 0)
(-9.4615364e-07 0.0024783334 0)
(-2.9818837e-06 0.0024785761 0)
(-5.1058903e-06 0.0024790996 0)
(-7.3676566e-06 0.0024799746 0)
(-9.7894537e-06 0.0024812827 0)
(-1.2302337e-05 0.0024830023 0)
(-1.4579194e-05 0.0024846782 0)
(-1.56841e-05 0.0024844785 0)
(-1.3581439e-05 0.0024662309 0)
(-5.6501687e-06 0.0021288504 0)
(3.2190355e-06 0.0021150484 0)
(8.2693539e-06 0.0024546652 0)
(1.0497046e-05 0.0024762796 0)
(1.059363e-05 0.0024781375 0)
(9.5310091e-06 0.0024770691 0)
(7.9576538e-06 0.0024754841 0)
(6.2081785e-06 0.0024741375 0)
(4.4273676e-06 0.0024731822 0)
(2.6636612e-06 0.0024725886 0)
(9.2134014e-07 0.0024723051 0)
(-8.1389794e-07 0.0024723024 0)
(-2.5606469e-06 0.0024725808 0)
(-4.332546e-06 0.0024731703 0)
(-6.1243713e-06 0.0024741227 0)
(-7.8860757e-06 0.0024754667 0)
(-9.472483e-06 0.0024770479 0)
(-1.0549917e-05 0.0024781101 0)
(-1.0470915e-05 0.0024762421 0)
(-8.2632506e-06 0.002454615 0)
(-3.2217933e-06 0.0021149951 0)
(1.9287449e-06 0.0021102732 0)
(5.1761758e-06 0.0024511885 0)
(7.0111548e-06 0.0024747853 0)
(7.5277055e-06 0.0024779687 0)
(7.1316777e-06 0.0024776159 0)
(6.1983609e-06 0.0024763676 0)
(4.9810866e-06 0.0024751579 0)
(3.6266324e-06 0.002474246 0)
(2.2118017e-06 0.0024736588 0)
(7.7345027e-07 0.0024733726 0)
(-6.720054e-07 0.0024733691 0)
(-2.113954e-06 0.0024736488 0)
(-3.5354791e-06 0.0024742307 0)
(-4.8997458e-06 0.0024751395 0)
(-6.1294938e-06 0.0024763475 0)
(-7.0773599e-06 0.0024775943 0)
(-7.4906872e-06 0.0024779444 0)
(-6.9945099e-06 0.0024747562 0)
(-5.1799851e-06 0.002451153 0)
(-1.9359718e-06 0.0021102391 0)
(1.206195e-06 0.0021074422 0)
(3.3365684e-06 0.0024488817 0)
(4.7331608e-06 0.0024736103 0)
(5.3240243e-06 0.0024777295 0)
(5.2548598e-06 0.0024780061 0)
(4.721989e-06 0.0024771375 0)
(3.8929081e-06 0.0024761405 0)
(2.8873471e-06 0.0024753403 0)
(1.7834171e-06 0.0024748069 0)
(6.3086287e-07 0.0024745418 0)
(-5.3701031e-07 0.0024745374 0)
(-1.6920959e-06 0.0024747946 0)
(-2.800684e-06 0.0024753216 0)
(-3.8137828e-06 0.0024761185 0)
(-4.6536319e-06 0.0024771146 0)
(-5.2006348e-06 0.0024779841 0)
(-5.2879446e-06 0.0024777094 0)
(-4.7186244e-06 0.002473592 0)
(-3.3418961e-06 0.0024488656 0)
(-1.2135939e-06 0.0021074324 0)
(7.8305699e-07 0.0021056453 0)
(2.2111829e-06 0.002447288 0)
(3.2406358e-06 0.0024726733 0)
(3.7720223e-06 0.0024774249 0)
(3.8417493e-06 0.0024781949 0)
(3.5452119e-06 0.0024776717 0)
(2.9853445e-06 0.0024768995 0)
(2.249529e-06 0.0024762366 0)
(1.4051184e-06 0.0024757801 0)
(5.0268754e-07 0.0024755488 0)
(-4.181302e-07 0.0024755437 0)
(-1.3214713e-06 0.0024757656 0)
(-2.1680289e-06 0.0024762147 0)
(-2.9082587e-06 0.0024768735 0)
(-3.4761073e-06 0.0024776449 0)
(-3.7846047e-06 0.0024781703 0)
(-3.7312992e-06 0.0024774051 0)
(-3.2202073e-06 0.0024726605 0)
(-2.209411e-06 0.0024472842 0)
(-7.8661604e-07 0.0021056513 0)
(5.2473279e-07 0.0021044865 0)
(1.5015337e-06 0.0024462055 0)
(2.2501799e-06 0.0024719823 0)
(2.6840187e-06 0.0024771553 0)
(2.7986404e-06 0.0024782918 0)
(2.6364909e-06 0.0024780532 0)
(2.2579538e-06 0.0024774852 0)
(1.723634e-06 0.0024769587 0)
(1.0869341e-06 0.0024765843 0)
(3.9307286e-07 0.0024763911 0)
(-3.1899561e-07 0.0024763855 0)
(-1.0124125e-06 0.0024765683 0)
(-1.648548e-06 0.0024769342 0)
(-2.1838607e-06 0.0024774555 0)
(-2.566675e-06 0.0024780215 0)
(-2.7373743e-06 0.0024782618 0)
(-2.6361732e-06 0.0024771305 0)
(-2.2196702e-06 0.0024719659 0)
(-1.4880379e-06 0.0024462005 0)
(-5.2241371e-07 0.0021044926 0)
(3.6077594e-07 0.00210373 0)
(1.0403953e-06 0.0024454741 0)
(1.5820622e-06 0.0024714913 0)
(1.9195314e-06 0.0024769453 0)
(2.0360656e-06 0.0024783468 0)
(1.9482226e-06 0.0024783308 0)
(1.69072e-06 0.0024779343 0)
(1.3041187e-06 0.0024775294 0)
(8.2875818e-07 0.0024772321 0)
(3.0257468e-07 0.002477076 0)
(-2.3966307e-07 0.0024770703 0)
(-7.6397288e-07 0.0024772159 0)
(-1.2363466e-06 0.0024775042 0)
(-1.621161e-06 0.0024779024 0)
(-1.8794235e-06 0.0024782952 0)
(-1.9718971e-06 0.0024783108 0)
(-1.8652838e-06 0.0024769122 0)
(-1.541958e-06 0.0024714642 0)
(-1.0159326e-06 0.0024454562 0)
(-3.5316897e-07 0.0021037216 0)
(2.5312284e-07 0.0021032243 0)
(7.3250206e-07 0.0024449718 0)
(1.1237594e-06 0.0024711406 0)
(1.3790872e-06 0.0024767834 0)
(1.4808819e-06 0.0024783742 0)
(1.4334982e-06 0.002478527 0)
(1.2564507e-06 0.0024782676 0)
(9.7705219e-07 0.0024779648 0)
(6.2492972e-07 0.0024777347 0)
(2.3009363e-07 0.0024776121 0)
(-1.7776595e-07 0.002477607 0)
(-5.6975559e-07 0.0024777202 0)
(-9.1759951e-07 0.0024779416 0)
(-1.1929584e-06 0.0024782369 0)
(-1.3678778e-06 0.0024784907 0)
(-1.4170521e-06 0.0024783347 0)
(-1.3221285e-06 0.0024767426 0)
(-1.0782926e-06 0.0024711013 0)
(-7.0200307e-07 0.0024449363 0)
(-2.4272869e-07 0.0021031951 0)
(1.8014985e-07 0.0021028686 0)
(5.2156857e-07 0.0024446088 0)
(8.0404212e-07 0.0024708752 0)
(9.9410461e-07 0.0024766461 0)
(1.0768025e-06 0.0024783718 0)
(1.051295e-06 0.0024786502 0)
(9.2858893e-07 0.0024784972 0)
(7.2667062e-07 0.0024782767 0)
(4.6718503e-07 0.0024781022 0)
(1.7361994e-07 0.0024780082 0)
(-1.3020075e-07 0.0024780043 0)
(-4.2066589e-07 0.0024780911 0)
(-6.7513282e-07 0.0024782582 0)
(-8.7202674e-07 0.0024784715 0)
(-9.9138349e-07 0.0024786177 0)
(-1.0171216e-06 0.0024783336 0)
(-9.3949033e-07 0.0024766029 0)
(-7.5925713e-07 0.0024708284 0)
(-4.914821e-07 0.0024445594 0)
(-1.7015329e-07 0.0021028219 0)
(1.2909473e-07 0.0021025977 0)
(3.7346312e-07 0.002444324 0)
(5.7741335e-07 0.0024706543 0)
(7.1760006e-07 0.0024765134 0)
(7.8233975e-07 0.0024783351 0)
(7.6865012e-07 0.002478706 0)
(6.8317951e-07 0.0024786343 0)
(5.3757746e-07 0.002478478 0)
(3.4752996e-07 0.0024783482 0)
(1.309761e-07 0.0024782775 0)
(-9.3547003e-08 0.0024782752 0)
(-3.0719203e-07 0.0024783413 0)
(-4.9265347e-07 0.0024784659 0)
(-6.3340679e-07 0.0024786161 0)
(-7.155894e-07 0.0024786815 0)
(-7.2937639e-07 0.0024783037 0)
(-6.6930948e-07 0.0024764747 0)
(-5.3876806e-07 0.0024706083 0)
(-3.4993502e-07 0.0024442704 0)
(-1.2252395e-07 0.0021025433 0)
(9.2420951e-08 0.0021023746 0)
(2.6709393e-07 0.0024440824 0)
(4.1446487e-07 0.0024704558 0)
(5.1750912e-07 0.0024763761 0)
(5.6715313e-07 0.0024782664 0)
(5.6033486e-07 0.0024787054 0)
(5.0072824e-07 0.0024786948 0)
(3.9615271e-07 0.0024785878 0)
(2.5780818e-07 0.0024784927 0)
(9.9343296e-08 0.0024784404 0)
(-6.5113369e-08 0.0024784396 0)
(-2.212325e-07 0.0024784899 0)
(-3.5577136e-07 0.0024785821 0)
(-4.5644833e-07 0.0024786851 0)
(-5.1372787e-07 0.0024786909 0)
(-5.216904e-07 0.0024782455 0)
(-4.7762037e-07 0.0024763475 0)
(-3.8529851e-07 0.0024704182 0)
(-2.5383873e-07 0.002444035 0)
(-9.1004436e-08 0.0021023239 0)
(6.5421106e-08 0.002102183 0)
(1.8951131e-07 0.0024438707 0)
(2.9595354e-07 0.0024702736 0)
(3.7145035e-07 0.0024762372 0)
(4.0958353e-07 0.002478177 0)
(4.0712147e-07 0.0024786659 0)
(3.6565905e-07 0.0024787005 0)
(2.9099966e-07 0.0024786306 0)
(1.9126298e-07 0.0024785617 0)
(7.6378291e-08 0.0024785235 0)
(-4.2820551e-08 0.0024785235 0)
(-1.5592335e-07 0.0024785617 0)
(-2.5289938e-07 0.0024786297 0)
(-3.2475092e-07 0.0024786976 0)
(-3.6531729e-07 0.0024786598 0)
(-3.7076642e-07 0.0024781661 0)
(-3.399389e-07 0.0024762199 0)
(-2.7674674e-07 0.0024702481 0)
(-1.8687712e-07 0.0024438358 0)
(-6.9174014e-08 0.0021021445 0)
(4.5528434e-08 0.0021020202 0)
(1.3250935e-07 0.002443688 0)
(2.0926903e-07 0.0024701117 0)
(2.6486209e-07 0.0024761065 0)
(2.9388647e-07 0.0024780823 0)
(2.9378293e-07 0.0024786075 0)
(2.6554343e-07 0.0024786754 0)
(2.1289555e-07 0.002478633 0)
(1.4187938e-07 0.0024785835 0)
(5.976418e-08 0.0024785554 0)
(-2.5597154e-08 0.0024785557 0)
(-1.0636684e-07 0.0024785843 0)
(-1.7542923e-07 0.0024786338 0)
(-2.264868e-07 0.0024786752 0)
(-2.5530536e-07 0.0024786054 0)
(-2.5970781e-07 0.0024780772 0)
(-2.3951076e-07 0.0024760973 0)
(-1.9787654e-07 0.0024700966 0)
(-1.3798233e-07 0.0024436663 0)
(-5.3065317e-08 0.0021019964 0)
(3.0865064e-08 0.0021018897 0)
(9.0625746e-08 0.0024435393 0)
(1.4556863e-07 0.0024699783 0)
(1.8641702e-07 0.0024759958 0)
(2.0875701e-07 0.0024779977 0)
(2.1008767e-07 0.0024785494 0)
(1.9121769e-07 0.0024786417 0)
(1.5476958e-07 0.0024786193 0)
(1.0499551e-07 0.0024785839 0)
(4.7383461e-08 0.0024785628 0)
(-1.2496187e-08 0.0024785627 0)
(-6.9154072e-08 0.0024785835 0)
(-1.1749168e-07 0.002478618 0)
(-1.5320771e-07 0.0024786393 0)
(-1.7334984e-07 0.0024785456 0)
(-1.7709759e-07 0.0024779921 0)
(-1.6487208e-07 0.002475988 0)
(-1.3886063e-07 0.0024699674 0)
(-1.0034376e-07 0.0024435257 0)
(-4.0173712e-08 0.0021018764 0)
(2.0184879e-08 0.0021017947 0)
(6.0128862e-08 0.0024434297 0)
(9.9150354e-08 0.0024698799 0)
(1.2900282e-07 0.0024759142 0)
(1.4587034e-07 0.0024779353 0)
(1.4783978e-07 0.0024785064 0)
(1.3546608e-07 0.0024786165 0)
(1.1069196e-07 0.0024786085 0)
(7.6705121e-08 0.0024785832 0)
(3.7265823e-08 0.0024785666 0)
(-3.6546301e-09 0.0024785651 0)
(-4.2363192e-08 0.0024785789 0)
(-7.4996369e-08 0.0024786015 0)
(-9.8837315e-08 0.0024786069 0)
(-1.1262615e-07 0.0024784948 0)
(-1.1574371e-07 0.002477922 0)
(-1.0893835e-07 0.0024758999 0)
(-9.372479e-08 0.002469865 0)
(-6.9910705e-08 0.0024434153 0)
(-2.9053165e-08 0.0021017837 0)
(1.2719333e-08 0.0021017353 0)
(3.8532854e-08 0.0024433597 0)
(6.5638761e-08 0.0024698182 0)
(8.6933062e-08 0.002475865 0)
(9.9355087e-08 0.0024779001 0)
(1.0137438e-07 0.0024784854 0)
(9.3486524e-08 0.0024786087 0)
(7.706424e-08 0.0024786113 0)
(5.4320425e-08 0.002478593 0)
(2.7948666e-08 0.0024785792 0)
(1.0891239e-09 0.002478576 0)
(-2.4026345e-08 0.0024785837 0)
(-4.4973427e-08 0.0024785967 0)
(-5.9955172e-08 0.0024785891 0)
(-6.8528059e-08 0.0024784621 0)
(-7.0651025e-08 0.0024778739 0)
(-6.7052101e-08 0.0024758376 0)
(-5.8962237e-08 0.0024697915 0)
(-4.5290593e-08 0.0024433357 0)
(-1.9593589e-08 0.002101718 0)
(7.6917728e-09 0.0021017077 0)
(2.3398957e-08 0.0024433247 0)
(4.161326e-08 0.0024697895 0)
(5.6288539e-08 0.0024758456 0)
(6.4808758e-08 0.0024778911 0)
(6.6554382e-08 0.002478487 0)
(6.1477989e-08 0.0024786197 0)
(5.059904e-08 0.00247863 0)
(3.5776362e-08 0.0024786167 0)
(1.8928773e-08 0.0024786048 0)
(2.1932813e-09 0.0024786001 0)
(-1.295691e-08 0.0024786027 0)
(-2.5161773e-08 0.0024786074 0)
(-3.3570595e-08 0.0024785893 0)
(-3.7995888e-08 0.0024784502 0)
(-3.8783612e-08 0.0024778496 0)
(-3.6717432e-08 0.0024758016 0)
(-3.2639505e-08 0.0024697461 0)
(-2.5528484e-08 0.0024432847 0)
(-1.1701896e-08 0.002101677 0)
(4.1877522e-09 0.0021017035 0)
(1.3068368e-08 0.0024433157 0)
(2.4690051e-08 0.0024697852 0)
(3.394439e-08 0.0024758481 0)
(3.9364781e-08 0.0024779012 0)
(4.0194218e-08 0.002478505 0)
(3.6593253e-08 0.0024786447 0)
(2.9632036e-08 0.002478661 0)
(2.0360946e-08 0.0024786515 0)
(1.0081103e-08 0.0024786411 0)
(3.5894047e-10 0.0024786353 0)
(-7.8938001e-09 0.0024786339 0)
(-1.3891799e-08 0.0024786322 0)
(-1.7309594e-08 0.0024786055 0)
(-1.8417185e-08 0.0024784567 0)
(-1.7852579e-08 0.0024778459 0)
(-1.6065659e-08 0.0024757882 0)
(-1.4105033e-08 0.0024697243 0)
(-1.0802673e-08 0.0024432575 0)
(-5.4390315e-09 0.0021016559 0)
(2.0833318e-09 0.0021017132 0)
(6.3762735e-09 0.0024433222 0)
(1.3005482e-08 0.0024697947 0)
(1.79914e-08 0.0024758623 0)
(2.0523601e-08 0.0024779212 0)
(2.0285534e-08 0.0024785309 0)
(1.7560559e-08 0.0024786762 0)
(1.2895197e-08 0.0024786971 0)
(7.1899813e-09 0.0024786909 0)
(1.4429078e-09 0.0024786818 0)
(-3.5365956e-09 0.0024786754 0)
(-7.236519e-09 0.0024786713 0)
(-9.1274001e-09 0.0024786649 0)
(-9.1958313e-09 0.0024786318 0)
(-7.9661233e-09 0.0024784753 0)
(-5.8948451e-09 0.0024778563 0)
(-3.8883367e-09 0.0024757906 0)
(-2.6491069e-09 0.0024697196 0)
(-1.0439848e-09 0.0024432477 0)
(-1.1630078e-09 0.0021016497 0)
(7.3369963e-10 0.0021017274 0)
(1.8071937e-09 0.0024433337 0)
(4.4783805e-09 0.002469808 0)
(6.2333541e-09 0.0024758789 0)
(6.7741556e-09 0.002477942 0)
(5.4813589e-09 0.0024785562 0)
(3.0132176e-09 0.0024787059 0)
(-2.0689779e-10 0.0024787307 0)
(-3.7435185e-09 0.0024787274 0)
(-6.7212422e-09 0.0024787199 0)
(-8.8084583e-09 0.0024787134 0)
(-9.6319535e-09 0.0024787078 0)
(-9.0273886e-09 0.0024786982 0)
(-7.1240347e-09 0.0024786606 0)
(-4.1879275e-09 0.0024784985 0)
(-1.1448136e-09 0.0024778734 0)
(1.4132212e-09 0.0024758014 0)
(2.7903681e-09 0.0024697245 0)
(4.0493624e-09 0.0024432482 0)
(1.2887606e-09 0.0021016523 0)
(-9.72058e-11 0.0021017388 0)
(-1.4597302e-09 0.0024433415 0)
(-1.6360682e-09 0.0024698169 0)
(-2.231493e-09 0.0024758902 0)
(-3.4732379e-09 0.0024779563 0)
(-5.4327913e-09 0.0024785739 0)
(-7.7698346e-09 0.0024787274 0)
(-1.0103212e-08 0.0024787554 0)
(-1.2364204e-08 0.0024787546 0)
(-1.3923051e-08 0.002478749 0)
(-1.4353894e-08 0.0024787433 0)
(-1.3702658e-08 0.0024787373 0)
(-1.1923035e-08 0.002478726 0)
(-9.0441201e-09 0.0024786857 0)
(-5.4418398e-09 0.0024785198 0)
(-1.7813461e-09 0.0024778903 0)
(1.242422e-09 0.0024758137 0)
(3.5152477e-09 0.0024697323 0)
(5.2550991e-09 0.0024432525 0)
(1.8369858e-09 0.0021016585 0)
(-9.1148874e-10 0.0021017429 0)
(-3.8300918e-09 0.0024433408 0)
(-6.0099893e-09 0.0024698167 0)
(-8.4457926e-09 0.0024758918 0)
(-1.0726965e-08 0.0024779602 0)
(-1.3114131e-08 0.0024785804 0)
(-1.5389981e-08 0.0024787368 0)
(-1.7458051e-08 0.0024787675 0)
(-1.8952459e-08 0.0024787691 0)
(-1.9468995e-08 0.0024787654 0)
(-1.9231192e-08 0.0024787609 0)
(-1.8204938e-08 0.0024787553 0)
(-1.6213232e-08 0.0024787436 0)
(-1.3386446e-08 0.002478702 0)
(-9.8224091e-09 0.0024785341 0)
(-6.0215648e-09 0.0024779018 0)
(-2.5626785e-09 0.0024758224 0)
(5.1841211e-10 0.0024697382 0)
(3.4793842e-09 0.0024432562 0)
(1.3658371e-09 0.0021016648 0)
(-1.654854e-09 0.0021017382 0)
(-6.1185844e-09 0.0024433306 0)
(-9.5261612e-09 0.0024698064 0)
(-1.2778614e-08 0.0024758825 0)
(-1.584641e-08 0.0024779527 0)
(-1.8465118e-08 0.002478575 0)
(-2.0580889e-08 0.0024787336 0)
(-2.2236372e-08 0.0024787666 0)
(-2.3231729e-08 0.0024787705 0)
(-2.3422418e-08 0.0024787687 0)
(-2.3061183e-08 0.0024787655 0)
(-2.2263368e-08 0.0024787609 0)
(-2.0786842e-08 0.0024787495 0)
(-1.866316e-08 0.0024787077 0)
(-1.5845994e-08 0.0024785391 0)
(-1.2270577e-08 0.0024779057 0)
(-8.3992975e-09 0.002475825 0)
(-4.3446719e-09 0.0024697396 0)
(2.1313228e-10 0.0024432568 0)
(3.2058777e-10 0.002101669 0)
(-2.4541963e-09 0.002101726 0)
(-7.9231976e-09 0.0024433121 0)
(-1.2147965e-08 0.0024697878 0)
(-1.6146665e-08 0.0024758646 0)
(-1.9402448e-08 0.002477936 0)
(-2.1848102e-08 0.00247856 0)
(-2.3603163e-08 0.0024787204 0)
(-2.4927775e-08 0.0024787554 0)
(-2.5643736e-08 0.0024787612 0)
(-2.5766906e-08 0.0024787612 0)
(-2.562785e-08 0.0024787594 0)
(-2.5497001e-08 0.002478756 0)
(-2.4992847e-08 0.0024787454 0)
(-2.3922742e-08 0.0024787041 0)
(-2.2152917e-08 0.002478536 0)
(-1.9030664e-08 0.0024779028 0)
(-1.4676742e-08 0.0024758221 0)
(-9.7140095e-09 0.0024697367 0)
(-3.5333173e-09 0.0024432543 0)
(-9.1213321e-10 0.002101671 0)
(-3.0765851e-09 0.0021017092 0)
(-9.6046193e-09 0.0024432889 0)
(-1.4367685e-08 0.0024697646 0)
(-1.8375693e-08 0.0024758421 0)
(-2.1481796e-08 0.0024779147 0)
(-2.3655895e-08 0.0024785401 0)
(-2.5030915e-08 0.0024787019 0)
(-2.5830055e-08 0.0024787384 0)
(-2.6212111e-08 0.0024787458 0)
(-2.6482914e-08 0.0024787471 0)
(-2.6975264e-08 0.0024787467 0)
(-2.7607416e-08 0.0024787445 0)
(-2.8160048e-08 0.0024787352 0)
(-2.8324821e-08 0.002478695 0)
(-2.7487443e-08 0.0024785278 0)
(-2.4882052e-08 0.0024778957 0)
(-2.0627346e-08 0.0024758159 0)
(-1.4568531e-08 0.0024697316 0)
(-6.430708e-09 0.0024432506 0)
(-1.7894079e-09 0.0021016722 0)
(-3.5839823e-09 0.002101692 0)
(-1.0615328e-08 0.0024432657 0)
(-1.5760651e-08 0.0024697415 0)
(-1.9747909e-08 0.00247582 0)
(-2.2396858e-08 0.0024778936 0)
(-2.4282187e-08 0.0024785203 0)
(-2.5166129e-08 0.0024786834 0)
(-2.5495526e-08 0.0024787211 0)
(-2.5696988e-08 0.0024787297 0)
(-2.6050539e-08 0.0024787321 0)
(-2.6893767e-08 0.0024787329 0)
(-2.8299599e-08 0.0024787318 0)
(-3.0017727e-08 0.0024787237 0)
(-3.1354435e-08 0.0024786848 0)
(-3.1595146e-08 0.002478519 0)
(-2.9779711e-08 0.0024778884 0)
(-2.5108955e-08 0.0024758101 0)
(-1.7981862e-08 0.0024697272 0)
(-8.2029513e-09 0.0024432482 0)
(-2.0366578e-09 0.0021016742 0)
(-3.7705488e-09 0.0021016776 0)
(-1.1192431e-08 0.0024432461 0)
(-1.6171928e-08 0.0024697225 0)
(-1.9692112e-08 0.0024758021 0)
(-2.2215338e-08 0.0024778768 0)
(-2.371865e-08 0.0024785048 0)
(-2.4178194e-08 0.002478669 0)
(-2.405908e-08 0.0024787078 0)
(-2.4033174e-08 0.0024787171 0)
(-2.4570491e-08 0.0024787206 0)
(-2.5839958e-08 0.0024787222 0)
(-2.8025794e-08 0.0024787221 0)
(-3.0803179e-08 0.0024787149 0)
(-3.3159323e-08 0.0024786774 0)
(-3.4177657e-08 0.002478513 0)
(-3.2770859e-08 0.0024778842 0)
(-2.802767e-08 0.0024758078 0)
(-1.9740114e-08 0.0024697264 0)
(-8.6867438e-09 0.0024432489 0)
(-2.0220834e-09 0.0021016784 0)
(-3.6786483e-09 0.0021016674 0)
(-1.0408033e-08 0.0024432319 0)
(-1.5021677e-08 0.0024697091 0)
(-1.8585231e-08 0.0024757901 0)
(-2.0663445e-08 0.0024778663 0)
(-2.1844986e-08 0.0024784953 0)
(-2.2017157e-08 0.0024786607 0)
(-2.176181e-08 0.0024787003 0)
(-2.1724101e-08 0.0024787102 0)
(-2.229212e-08 0.0024787143 0)
(-2.4000141e-08 0.0024787167 0)
(-2.6857172e-08 0.0024787173 0)
(-3.0400972e-08 0.0024787111 0)
(-3.352629e-08 0.0024786748 0)
(-3.5086261e-08 0.0024785118 0)
(-3.3981743e-08 0.0024778845 0)
(-2.9175715e-08 0.0024758096 0)
(-2.0365681e-08 0.0024697295 0)
(-8.6379623e-09 0.0024432527 0)
(-1.7823846e-09 0.0021016846 0)
(-2.9610321e-09 0.0021016612 0)
(-8.6209597e-09 0.0024432228 0)
(-1.2535056e-08 0.0024697011 0)
(-1.5626026e-08 0.0024757838 0)
(-1.7861871e-08 0.0024778615 0)
(-1.895295e-08 0.0024784918 0)
(-1.9085622e-08 0.0024786581 0)
(-1.8854895e-08 0.0024786982 0)
(-1.8738568e-08 0.002478709 0)
(-1.9480016e-08 0.0024787133 0)
(-2.1537701e-08 0.0024787162 0)
(-2.4914133e-08 0.0024787172 0)
(-2.8910918e-08 0.002478712 0)
(-3.2646682e-08 0.0024786767 0)
(-3.4775894e-08 0.002478515 0)
(-3.3893731e-08 0.0024778889 0)
(-2.9328169e-08 0.0024758149 0)
(-2.055401e-08 0.0024697353 0)
(-8.6851016e-09 0.0024432583 0)
(-1.6973813e-09 0.0021016913 0)
(-1.7611424e-09 0.0021016572 0)
(-5.2708152e-09 0.0024432167 0)
(-8.2441277e-09 0.0024696965 0)
(-1.1215401e-08 0.002475781 0)
(-1.3405496e-08 0.0024778605 0)
(-1.486175e-08 0.0024784922 0)
(-1.5345729e-08 0.0024786593 0)
(-1.5181187e-08 0.0024787002 0)
(-1.5366405e-08 0.0024787112 0)
(-1.6431559e-08 0.0024787157 0)
(-1.8763818e-08 0.0024787187 0)
(-2.2273014e-08 0.0024787201 0)
(-2.6541107e-08 0.0024787155 0)
(-3.0734295e-08 0.002478681 0)
(-3.3235996e-08 0.0024785204 0)
(-3.2925102e-08 0.0024778952 0)
(-2.9025727e-08 0.0024758216 0)
(-2.1066265e-08 0.0024697415 0)
(-9.7107296e-09 0.0024432634 0)
(-2.2012784e-09 0.0021016965 0)
(3.8840894e-10 0.0021016528 0)
(-6.8585829e-11 0.0024432118 0)
(-1.8954254e-09 0.0024696944 0)
(-4.672556e-09 0.0024757813 0)
(-7.6193753e-09 0.0024778625 0)
(-9.8943677e-09 0.0024784954 0)
(-1.0934446e-08 0.0024786633 0)
(-1.1394101e-08 0.0024787044 0)
(-1.1987977e-08 0.0024787154 0)
(-1.3244283e-08 0.0024787199 0)
(-1.5801381e-08 0.002478723 0)
(-1.9315275e-08 0.0024787249 0)
(-2.3586371e-08 0.0024787206 0)
(-2.7840968e-08 0.002478687 0)
(-3.087531e-08 0.0024785273 0)
(-3.1636261e-08 0.0024779028 0)
(-2.9355759e-08 0.0024758291 0)
(-2.308988e-08 0.002469748 0)
(-1.2763931e-08 0.0024432674 0)
(-3.8318225e-09 0.0021016991 0)
(4.0663025e-09 0.0021016625 0)
(8.7949206e-09 0.0024432279 0)
(7.792932e-09 0.0024697161 0)
(3.5685476e-09 0.0024758058 0)
(-8.2128639e-10 0.0024778882 0)
(-4.2039683e-09 0.0024785218 0)
(-6.3250586e-09 0.00247869 0)
(-7.6650479e-09 0.0024787311 0)
(-8.7463117e-09 0.0024787418 0)
(-1.0052142e-08 0.0024787461 0)
(-1.23476e-08 0.0024787493 0)
(-1.5825729e-08 0.0024787516 0)
(-1.9979539e-08 0.0024787478 0)
(-2.4129493e-08 0.0024787151 0)
(-2.7652426e-08 0.0024785562 0)
(-3.0019893e-08 0.0024779327 0)
(-3.0249724e-08 0.0024758593 0)
(-2.7442163e-08 0.0024697765 0)
(-1.9608646e-08 0.0024432907 0)
(-7.3940705e-09 0.002101715 0)
(1.4250732e-08 0.0021015853 0)
(2.7780583e-08 0.0024431714 0)
(2.2357378e-08 0.0024696694 0)
(1.3232158e-08 0.0024757605 0)
(6.0825425e-09 0.0024778429 0)
(1.2256702e-09 0.0024784764 0)
(-1.9839675e-09 0.0024786441 0)
(-4.0322348e-09 0.0024786847 0)
(-5.5613336e-09 0.0024786949 0)
(-7.0053308e-09 0.0024786991 0)
(-9.013084e-09 0.0024787023 0)
(-1.1934013e-08 0.0024787047 0)
(-1.5576122e-08 0.0024787018 0)
(-1.9517264e-08 0.0024786699 0)
(-2.3299984e-08 0.0024785125 0)
(-2.7283472e-08 0.0024778907 0)
(-3.1800891e-08 0.0024758192 0)
(-3.63722e-08 0.0024697359 0)
(-3.5738967e-08 0.0024432409 0)
(-1.6786588e-08 0.0021016435 0)
(5.5391443e-08 0.0021017053 0)
(8.4261392e-08 0.0024432787 0)
(4.2906453e-08 0.0024697637 0)
(2.0913714e-08 0.0024758466 0)
(1.068775e-08 0.0024779255 0)
(4.91392e-09 0.0024785578 0)
(1.1881403e-09 0.0024787246 0)
(-1.1437642e-09 0.0024787643 0)
(-2.6585626e-09 0.0024787736 0)
(-3.9091583e-09 0.0024787774 0)
(-5.4092512e-09 0.0024787807 0)
(-7.4374207e-09 0.0024787835 0)
(-1.0180441e-08 0.0024787815 0)
(-1.3303276e-08 0.0024787505 0)
(-1.6756609e-08 0.0024785948 0)
(-2.1721413e-08 0.0024779757 0)
(-3.0660733e-08 0.0024759094 0)
(-5.0519631e-08 0.0024698355 0)
(-8.8733477e-08 0.0024433542 0)
(-5.6739662e-08 0.0021017686 0)
(5.4261238e-08 0.0021010952 0)
(7.8699371e-08 0.0024430664 0)
(3.4782903e-08 0.0024696439 0)
(1.6288126e-08 0.0024757195 0)
(9.4824291e-09 0.0024777943 0)
(5.769423e-09 0.002478426 0)
(2.9504678e-09 0.0024785926 0)
(9.8057607e-10 0.0024786314 0)
(-2.2797762e-10 0.0024786391 0)
(-9.8135429e-10 0.0024786423 0)
(-1.9008926e-09 0.0024786452 0)
(-2.9272984e-09 0.0024786489 0)
(-4.3845849e-09 0.002478648 0)
(-6.1512494e-09 0.0024786167 0)
(-7.9277911e-09 0.0024784619 0)
(-1.0869437e-08 0.0024778452 0)
(-1.7740615e-08 0.0024757843 0)
(-3.6099356e-08 0.0024697183 0)
(-7.9480092e-08 0.0024431437 0)
(-5.4506151e-08 0.0021011614 0)
)
;

boundaryField
{
    Wall
    {
        type            fixedValue;
        value           uniform (0 0 0);
    }
    frontAndBack
    {
        type            empty;
    }
    atmosphere
    {
        type            pressureInletOutletVelocity;
        value           nonuniform List<vector> 
20
(
(5.4261238e-08 0.0021010952 0)
(7.8699371e-08 0.0024430664 0)
(3.4782903e-08 0.0024696439 0)
(1.6288126e-08 0.0024757195 0)
(9.4824291e-09 0.0024777943 0)
(5.769423e-09 0.002478426 0)
(2.9504678e-09 0.0024785926 0)
(9.8057607e-10 0.0024786314 0)
(-2.2797762e-10 0.0024786391 0)
(-9.8135429e-10 0.0024786423 0)
(-1.9008926e-09 0.0024786452 0)
(-2.9272984e-09 0.0024786489 0)
(-4.3845849e-09 0.002478648 0)
(-6.1512494e-09 0.0024786167 0)
(-7.9277911e-09 0.0024784619 0)
(-1.0869437e-08 0.0024778452 0)
(-1.7740615e-08 0.0024757843 0)
(-3.6099356e-08 0.0024697183 0)
(-7.9480092e-08 0.0024431437 0)
(-5.4506151e-08 0.0021011614 0)
)
;
    }
}


// ************************************************************************* //
