/*--------------------------------*- C++ -*----------------------------------*\
| =========                 |                                                 |
| \\      /  F ield         | OpenFOAM: The Open Source CFD Toolbox           |
|  \\    /   O peration     | Version:  3.0.1                                 |
|   \\  /    A nd           | Web:      www.OpenFOAM.org                      |
|    \\/     M anipulation  |                                                 |
\*---------------------------------------------------------------------------*/
FoamFile
{
    version     2.0;
    format      ascii;
    class       volScalarField;
    location    "5";
    object      wBA_l;
}
// * * * * * * * * * * * * * * * * * * * * * * * * * * * * * * * * * * * * * //

dimensions      [0 0 0 0 0 0 0];

internalField   nonuniform List<scalar> 
800
(
0.056189437
0.056189059
0.056188873
0.056188907
0.056188931
0.056188943
0.056188947
0.056188951
0.056188952
0.056188952
0.056188952
0.056188952
0.056188951
0.056188947
0.056188943
0.056188931
0.056188907
0.056188873
0.056189059
0.056189437
0.056848423
0.056845259
0.056844621
0.056844465
0.056844303
0.056844181
0.05684409
0.056844027
0.056843986
0.056843967
0.056843967
0.056843986
0.056844027
0.05684409
0.056844181
0.056844303
0.056844465
0.056844622
0.05684526
0.056848423
0.0048596162
0.004862053
0.0048647985
0.0048655775
0.0048657995
0.004865846
0.0048658411
0.0048658255
0.0048658122
0.0048658052
0.0048658052
0.0048658122
0.0048658254
0.004865841
0.0048658459
0.0048657995
0.0048655774
0.0048647983
0.0048620526
0.0048596165
0.00022395296
0.00023560644
0.0002359435
0.0002359546
0.00023594359
0.00023592834
0.00023591596
0.0002359075
0.00023590228
0.00023589957
0.00023589953
0.00023590215
0.00023590733
0.00023591576
0.00023592813
0.00023594335
0.00023595426
0.00023594297
0.00023560562
0.00022395203
7.2422338e-06
8.2934996e-06
8.3183039e-06
8.3142522e-06
8.3099297e-06
8.306429e-06
8.3039934e-06
8.3024388e-06
8.3015213e-06
8.3010744e-06
8.3010698e-06
8.301508e-06
8.3024202e-06
8.3039706e-06
8.3064019e-06
8.3098966e-06
8.3142042e-06
8.3182317e-06
8.2933901e-06
7.2421124e-06
1.3661074e-07
1.7157084e-07
1.7261712e-07
1.7245562e-07
1.7223331e-07
1.7204542e-07
1.7191263e-07
1.7182722e-07
1.7177699e-07
1.7175337e-07
1.717532e-07
1.7177643e-07
1.7182638e-07
1.7191156e-07
1.7204409e-07
1.7223159e-07
1.7245313e-07
1.7261341e-07
1.7156537e-07
1.3660512e-07
1.4063897e-09
1.9372399e-09
1.9582739e-09
1.9568858e-09
1.9531478e-09
1.9496285e-09
1.947025e-09
1.9453056e-09
1.94428e-09
1.943798e-09
1.9437944e-09
1.9442683e-09
1.945288e-09
1.9470025e-09
1.9496005e-09
1.9531122e-09
1.9568356e-09
1.9582003e-09
1.9371345e-09
1.4062913e-09
6.3852919e-12
9.674534e-12
9.8376858e-12
9.8390973e-12
9.816936e-12
9.793249e-12
9.7748554e-12
9.7623685e-12
9.7547938e-12
9.7512097e-12
9.7511798e-12
9.7546991e-12
9.7622264e-12
9.7746765e-12
9.793033e-12
9.81667e-12
9.8387358e-12
9.8371735e-12
9.6738224e-12
6.3846996e-12
2.7380841e-15
4.3481227e-15
4.4375225e-15
4.4421577e-15
4.4310482e-15
4.4179065e-15
4.407329e-15
4.399989e-15
4.3954833e-15
4.393338e-15
4.3933211e-15
4.3954168e-15
4.3998995e-15
4.4072099e-15
4.4177635e-15
4.4308886e-15
4.441951e-15
4.43724e-15
4.3477464e-15
2.7378021e-15
0
0
0
0
0
0
0
0
0
0
0
0
0
0
0
0
0
0
0
0
0
0
0
0
0
0
0
0
0
0
0
0
0
0
0
0
0
0
0
0
0
0
0
0
0
0
0
0
0
0
0
0
0
0
0
0
0
0
0
0
0
0
0
0
0
0
0
0
0
0
0
0
0
0
0
0
0
0
0
0
0
0
0
0
0
0
0
0
0
0
0
0
0
0
0
0
0
0
0
0
0
0
0
0
0
0
0
0
0
0
0
0
0
0
0
0
0
0
0
0
0
0
0
0
0
0
0
0
0
0
0
0
0
0
0
0
0
0
0
0
0
0
0
0
0
0
0
0
0
0
0
0
0
0
0
0
0
0
0
0
0
0
0
0
0
0
0
0
0
0
0
0
0
0
0
0
0
0
0
0
0
0
0
0
0
0
0
0
0
0
0
0
0
0
0
0
0
0
0
0
0
0
0
0
0
0
0
0
0
0
0
0
0
0
0
0
0
0
0
0
0
0
0
0
0
0
0
0
0
0
0
0
0
0
0
0
0
0
0
0
0
0
0
0
0
0
0
0
0
0
0
0
0
0
0
0
0
0
0
0
0
0
0
0
0
0
0
0
0
0
0
0
0
0
0
0
0
0
0
0
0
0
0
0
0
0
0
0
0
0
0
0
0
0
0
0
0
0
0
0
0
0
0
0
0
0
0
0
0
0
0
0
0
0
0
0
0
0
0
0
0
0
0
0
0
0
0
0
0
0
0
0
0
0
0
0
0
0
0
0
0
0
0
0
0
0
0
0
0
0
0
0
0
0
0
0
0
0
0
0
0
0
0
0
0
0
0
0
0
0
0
0
0
0
0
0
0
0
0
0
0
0
0
0
0
0
0
0
0
0
0
0
0
0
0
0
0
0
0
0
0
0
0
0
0
0
0
0
0
0
0
0
0
0
0
0
0
0
0
0
0
0
0
0
0
0
0
0
0
0
0
0
0
0
0
0
0
0
0
0
0
0
0
0
0
0
0
0
0
0
0
0
0
0
0
0
0
0
0
0
0
0
0
0
0
0
0
0
0
0
0
0
0
0
0
0
0
0
0
0
0
0
0
0
0
0
0
0
0
0
0
0
0
0
0
0
0
0
0
0
0
0
0
0
0
0
0
0
0
0
0
0
0
0
0
0
0
0
0
0
0
0
0
0
0
0
0
0
0
0
0
0
0
0
0
0
0
0
0
0
0
0
0
0
0
0
0
0
0
0
0
0
0
0
0
0
0
0
0
0
0
0
0
0
0
0
0
0
0
0
0
0
0
0
0
0
0
0
0
0
0
0
0
0
0
0
0
0
0
0
0
0
0
0
0
0
0
0
0
0
0
0
0
0
0
0
0
0
0
0
0
0
0
0
0
0
0
0
0
0
)
;

boundaryField
{
    Wall
    {
        type            zeroGradient;
    }
    frontAndBack
    {
        type            empty;
    }
    atmosphere
    {
        type            zeroGradient;
    }
}


// ************************************************************************* //
