/*--------------------------------*- C++ -*----------------------------------*\
| =========                 |                                                 |
| \\      /  F ield         | OpenFOAM: The Open Source CFD Toolbox           |
|  \\    /   O peration     | Version:  3.0.1                                 |
|   \\  /    A nd           | Web:      www.OpenFOAM.org                      |
|    \\/     M anipulation  |                                                 |
\*---------------------------------------------------------------------------*/
FoamFile
{
    version     2.0;
    format      ascii;
    class       volScalarField;
    location    "5";
    object      wBA_g;
}
// * * * * * * * * * * * * * * * * * * * * * * * * * * * * * * * * * * * * * //

dimensions      [0 0 0 0 0 0 0];

internalField   nonuniform List<scalar> 
800
(
0.00020330469
0.00020330331
0.00020330268
0.00020330286
0.000203303
0.00020330307
0.00020330311
0.00020330315
0.00020330316
0.00020330317
0.00020330317
0.00020330316
0.00020330314
0.00020330311
0.00020330307
0.000203303
0.00020330287
0.00020330269
0.00020330331
0.00020330469
1.6841757e-05
1.6832314e-05
1.6835137e-05
1.6836591e-05
1.6837209e-05
1.6837446e-05
1.6837527e-05
1.6837549e-05
1.6837553e-05
1.6837552e-05
1.6837552e-05
1.6837553e-05
1.6837549e-05
1.6837527e-05
1.6837446e-05
1.6837209e-05
1.6836592e-05
1.6835138e-05
1.6832314e-05
1.6841757e-05
7.3313594e-07
7.336192e-07
7.3415638e-07
7.3433696e-07
7.3439662e-07
7.3441336e-07
7.3441576e-07
7.3441414e-07
7.3441214e-07
7.3441096e-07
7.3441098e-07
7.3441213e-07
7.3441412e-07
7.3441575e-07
7.3441336e-07
7.3439661e-07
7.3433696e-07
7.3415636e-07
7.3361914e-07
7.3313596e-07
2.2707031e-08
2.4090829e-08
2.4139377e-08
2.4142645e-08
2.4142051e-08
2.4140546e-08
2.4139202e-08
2.4138246e-08
2.4137642e-08
2.4137325e-08
2.4137321e-08
2.4137629e-08
2.4138228e-08
2.4139182e-08
2.4140524e-08
2.4142026e-08
2.414261e-08
2.4139322e-08
2.4090743e-08
2.2706934e-08
5.4797955e-10
6.3912712e-10
6.4171248e-10
6.4146268e-10
6.411343e-10
6.4085723e-10
6.4066129e-10
6.4053504e-10
6.4046002e-10
6.4042321e-10
6.4042285e-10
6.4045898e-10
6.4053358e-10
6.4065954e-10
6.4085514e-10
6.4113168e-10
6.4145889e-10
6.4170683e-10
6.3911859e-10
5.4797022e-10
8.2698004e-12
1.0636153e-11
1.0714441e-11
1.0705411e-11
1.0691522e-11
1.0679597e-11
1.0671121e-11
1.0665651e-11
1.0662424e-11
1.0660899e-11
1.0660888e-11
1.0662389e-11
1.0665598e-11
1.0671054e-11
1.0679514e-11
1.0691414e-11
1.0705254e-11
1.0714209e-11
1.0635811e-11
8.2694562e-12
7.3721601e-14
1.0410204e-13
1.0536087e-13
1.0529344e-13
1.0508939e-13
1.0489598e-13
1.0475264e-13
1.0465788e-13
1.0460126e-13
1.0457457e-13
1.0457437e-13
1.0460063e-13
1.0465692e-13
1.0475143e-13
1.0489447e-13
1.0508746e-13
1.0529071e-13
1.0535688e-13
1.0409633e-13
7.3716394e-14
3.1456581e-16
4.899663e-16
4.9888883e-16
4.9898382e-16
4.9783635e-16
4.9660864e-16
4.9565537e-16
4.9500813e-16
4.9461512e-16
4.9442869e-16
4.9442712e-16
4.9461033e-16
4.9500083e-16
4.9564629e-16
4.965977e-16
4.9782273e-16
4.9896532e-16
4.988627e-16
4.8993003e-16
3.1453634e-16
1.131136e-19
1.8404605e-19
1.8805082e-19
1.8820095e-19
1.8767194e-19
1.8706455e-19
1.8657702e-19
1.8623788e-19
1.8602839e-19
1.8592826e-19
1.8592739e-19
1.8602575e-19
1.8623386e-19
1.8657209e-19
1.8705883e-19
1.8766522e-19
1.8819239e-19
1.8803926e-19
1.8403053e-19
1.1310185e-19
1.6784488e-23
2.8056059e-23
2.8293432e-23
2.7973179e-23
2.7622487e-23
2.7328296e-23
2.7107639e-23
2.6953955e-23
2.6857343e-23
2.6810672e-23
2.6810509e-23
2.6856857e-23
2.6953217e-23
2.7106726e-23
2.7327267e-23
2.7621327e-23
2.7971773e-23
2.8291637e-23
2.8053694e-23
1.6782799e-23
0
0
0
0
0
0
0
0
0
0
0
0
0
0
0
0
0
0
0
0
0
0
0
0
0
0
0
0
0
0
0
0
0
0
0
0
0
0
0
0
0
0
0
0
0
0
0
0
0
0
0
0
0
0
0
0
0
0
0
0
0
0
0
0
0
0
0
0
0
0
0
0
0
0
0
0
0
0
0
0
0
0
0
0
0
0
0
0
0
0
0
0
0
0
0
0
0
0
0
0
0
0
0
0
0
0
0
0
0
0
0
0
0
0
0
0
0
0
0
0
0
0
0
0
0
0
0
0
0
0
0
0
0
0
0
0
0
0
0
0
0
0
0
0
0
0
0
0
0
0
0
0
0
0
0
0
0
0
0
0
0
0
0
0
0
0
0
0
0
0
0
0
0
0
0
0
0
0
0
0
0
0
0
0
0
0
0
0
0
0
0
0
0
0
0
0
0
0
0
0
0
0
0
0
0
0
0
0
0
0
0
0
0
0
0
0
0
0
0
0
0
0
0
0
0
0
0
0
0
0
0
0
0
0
0
0
0
0
0
0
0
0
0
0
0
0
0
0
0
0
0
0
0
0
0
0
0
0
0
0
0
0
0
0
0
0
0
0
0
0
0
0
0
0
0
0
0
0
0
0
0
0
0
0
0
0
0
0
0
0
0
0
0
0
0
0
0
0
0
0
0
0
0
0
0
0
0
0
0
0
0
0
0
0
0
0
0
0
0
0
0
0
0
0
0
0
0
0
0
0
0
0
0
0
0
0
0
0
0
0
0
0
0
0
0
0
0
0
0
0
0
0
0
0
0
0
0
0
0
0
0
0
0
0
0
0
0
0
0
0
0
0
0
0
0
0
0
0
0
0
0
0
0
0
0
0
0
0
0
0
0
0
0
0
0
0
0
0
0
0
0
0
0
0
0
0
0
0
0
0
0
0
0
0
0
0
0
0
0
0
0
0
0
0
0
0
0
0
0
0
0
0
0
0
0
0
0
0
0
0
0
0
0
0
0
0
0
0
0
0
0
0
0
0
0
0
0
0
0
0
0
0
0
0
0
0
0
0
0
0
0
0
0
0
0
0
0
0
0
0
0
0
0
0
0
0
0
0
0
0
0
0
0
0
0
0
0
0
0
0
0
0
0
0
0
0
0
0
0
0
0
0
0
0
0
0
0
0
0
0
0
0
0
0
0
0
0
0
0
0
0
0
0
0
0
0
0
0
0
0
0
0
0
0
0
0
0
0
0
0
0
0
0
0
0
0
0
0
0
0
0
0
0
0
0
0
0
0
0
0
0
0
0
0
0
0
0
0
0
0
0
0
0
0
0
0
0
0
0
0
0
0
0
0
0
0
0
0
0
0
)
;

boundaryField
{
    Wall
    {
        type            zeroGradient;
    }
    frontAndBack
    {
        type            empty;
    }
    atmosphere
    {
        type            zeroGradient;
    }
}


// ************************************************************************* //
