/*--------------------------------*- C++ -*----------------------------------*\
| =========                 |                                                 |
| \\      /  F ield         | OpenFOAM: The Open Source CFD Toolbox           |
|  \\    /   O peration     | Version:  3.0.1                                 |
|   \\  /    A nd           | Web:      www.OpenFOAM.org                      |
|    \\/     M anipulation  |                                                 |
\*---------------------------------------------------------------------------*/
FoamFile
{
    version     2.0;
    format      ascii;
    class       volScalarField;
    location    "5";
    object      wCO2_l;
}
// * * * * * * * * * * * * * * * * * * * * * * * * * * * * * * * * * * * * * //

dimensions      [0 0 0 0 0 0 0];

internalField   nonuniform List<scalar> 
800
(
0.002522322
0.0025223055
0.0025222972
0.0025222987
0.0025222998
0.0025223003
0.0025223005
0.0025223007
0.0025223007
0.0025223007
0.0025223007
0.0025223007
0.0025223007
0.0025223005
0.0025223003
0.0025222998
0.0025222987
0.0025222972
0.0025223055
0.002522322
0.0023607148
0.0023605963
0.0023605928
0.0023606014
0.0023606047
0.0023606064
0.0023606073
0.0023606079
0.0023606082
0.0023606083
0.0023606083
0.0023606082
0.0023606079
0.0023606073
0.0023606064
0.0023606047
0.0023606014
0.0023605928
0.0023605963
0.0023607148
0.00020949886
0.00020993795
0.00021008943
0.00021012532
0.00021013085
0.0002101286
0.0002101251
0.00021012211
0.00021012006
0.00021011905
0.00021011905
0.00021012006
0.00021012211
0.0002101251
0.0002101286
0.00021013085
0.00021012532
0.00021008943
0.00020993794
0.00020949887
1.1064956e-05
1.1676388e-05
1.1708192e-05
1.1713402e-05
1.171365e-05
1.1712719e-05
1.17118e-05
1.1711134e-05
1.1710713e-05
1.17105e-05
1.1710498e-05
1.1710707e-05
1.1711126e-05
1.1711791e-05
1.1712709e-05
1.1713639e-05
1.1713386e-05
1.1708166e-05
1.1676348e-05
1.106491e-05
4.3935334e-07
5.0613979e-07
5.0954764e-07
5.0993742e-07
5.098153e-07
5.0960904e-07
5.0944278e-07
5.0933126e-07
5.0926413e-07
5.0923147e-07
5.092312e-07
5.0926337e-07
5.0933018e-07
5.0944145e-07
5.0960744e-07
5.0981329e-07
5.0993448e-07
5.0954325e-07
5.0613316e-07
4.39346e-07
1.1247212e-08
1.4277305e-08
1.448848e-08
1.451837e-08
1.4510343e-08
1.4495981e-08
1.4484322e-08
1.4476503e-08
1.4471834e-08
1.4469632e-08
1.4469618e-08
1.447179e-08
1.4476435e-08
1.4484235e-08
1.4495871e-08
1.4510198e-08
1.4518159e-08
1.4488168e-08
1.4276851e-08
1.1246749e-08
1.9229699e-10
2.7053659e-10
2.7875669e-10
2.8046484e-10
2.8042694e-10
2.8001221e-10
2.7963714e-10
2.7937627e-10
2.7921818e-10
2.7914365e-10
2.7914315e-10
2.792166e-10
2.7937385e-10
2.7963403e-10
2.8000828e-10
2.8042183e-10
2.8045759e-10
2.7874619e-10
2.7052187e-10
1.922835e-10
2.2236573e-12
3.5653182e-12
3.7887472e-12
3.8494819e-12
3.8572035e-12
3.8513348e-12
3.8444824e-12
3.8394136e-12
3.8362677e-12
3.8347725e-12
3.8347614e-12
3.8362333e-12
3.8393605e-12
3.8444154e-12
3.8512524e-12
3.8570991e-12
3.8493394e-12
3.7885493e-12
3.5650559e-12
2.2234502e-12
1.636898e-14
3.2444279e-14
3.6992775e-14
3.8475307e-14
3.8786585e-14
3.8765695e-14
3.8690041e-14
3.8627078e-14
3.8586608e-14
3.8567148e-14
3.8566987e-14
3.8586117e-14
3.8626317e-14
3.8689087e-14
3.8764553e-14
3.8785201e-14
3.8473535e-14
3.6990482e-14
3.2441542e-14
1.6367277e-14
7.3780237e-17
2.2490046e-16
2.9855626e-16
3.2567646e-16
3.3248979e-16
3.3320662e-16
3.326553e-16
3.3206468e-16
3.3166388e-16
3.3146804e-16
3.3146621e-16
3.3165838e-16
3.3205614e-16
3.3264465e-16
3.3319412e-16
3.3247515e-16
3.2565912e-16
2.985363e-16
2.2488107e-16
7.3772629e-17
2.7011464e-19
1.6286305e-18
2.6068611e-18
2.9992481e-18
3.1049746e-18
3.1215046e-18
3.1180028e-18
3.1124345e-18
3.1084268e-18
3.1064341e-18
3.1064125e-18
3.1083623e-18
3.112334e-18
3.1178777e-18
3.1213597e-18
3.1048112e-18
2.9990698e-18
2.6066821e-18
1.628497e-18
2.7008913e-19
9.3349324e-22
1.1810316e-20
2.2428922e-20
2.7045228e-20
2.8342457e-20
2.8574074e-20
2.8557506e-20
2.8507823e-20
2.8470037e-20
2.8450946e-20
2.8450705e-20
2.8469321e-20
2.8506704e-20
2.8556108e-20
2.8572464e-20
2.8340686e-20
2.7043421e-20
2.2427324e-20
1.1809402e-20
9.3341536e-22
3.131325e-24
7.8967835e-23
1.75607e-22
2.2112555e-22
2.3436464e-22
2.3691614e-22
2.369168e-22
2.3652997e-22
2.3621824e-22
2.3605829e-22
2.3605599e-22
2.362114e-22
2.3651922e-22
2.3690316e-22
2.3690035e-22
2.3434739e-22
2.2110857e-22
1.7559334e-22
7.8961665e-23
3.1310826e-24
9.7067936e-27
4.7153188e-25
1.2210154e-24
1.6031876e-24
1.7178133e-24
1.741095e-24
1.7421661e-24
1.739579e-24
1.7373541e-24
1.7361951e-24
1.7361768e-24
1.7372993e-24
1.739492e-24
1.7420539e-24
1.7409629e-24
1.7176675e-24
1.6030448e-24
1.2209063e-24
4.7149075e-25
9.705994e-27
2.706748e-29
2.4928378e-27
7.5032071e-27
1.0267317e-26
1.1120371e-26
1.1300481e-26
1.1314496e-26
1.1299611e-26
1.1285811e-26
1.1278516e-26
1.1278396e-26
1.1285447e-26
1.1299026e-26
1.1313723e-26
1.1299549e-26
1.1119321e-26
1.0266274e-26
7.5024257e-27
2.4925787e-27
2.7064773e-29
6.7465873e-32
1.1697309e-29
4.091126e-29
5.833748e-29
6.3863387e-29
6.5065338e-29
6.5186541e-29
6.5112261e-29
6.5037034e-29
6.4996696e-29
6.4996042e-29
6.5035008e-29
6.510896e-29
6.5182074e-29
6.5059823e-29
6.3856988e-29
5.8330988e-29
4.0906404e-29
1.1695857e-29
6.7457353e-32
1.5071074e-34
4.9043664e-32
1.9935058e-31
2.9622753e-31
3.277625e-31
3.3478558e-31
3.3561372e-31
3.352892e-31
3.3492418e-31
3.3472566e-31
3.3472267e-31
3.3491467e-31
3.3527348e-31
3.3559193e-31
3.3475797e-31
3.2772946e-31
2.9619312e-31
1.993248e-31
4.9036671e-32
1.5068755e-34
3.0336057e-37
1.8509714e-34
8.7469567e-34
1.3545665e-33
1.5148178e-33
1.5512028e-33
1.5559633e-33
1.5547137e-33
1.5531182e-33
1.5522386e-33
1.5522268e-33
1.5530797e-33
1.554649e-33
1.5558717e-33
1.5510836e-33
1.5146705e-33
1.3544097e-33
8.7457843e-34
1.8506851e-34
3.0330753e-37
5.5334127e-40
6.3317771e-37
3.48001e-36
5.6169867e-36
6.34881e-36
6.5176982e-36
6.5414782e-36
6.537224e-36
6.530883e-36
6.5273366e-36
6.5272964e-36
6.5307437e-36
6.5369875e-36
6.5411355e-36
6.5172418e-36
6.3482296e-36
5.6163597e-36
3.4795462e-36
6.3307714e-37
5.5323894e-40
9.1950258e-43
1.9751785e-39
1.2631362e-38
2.1252177e-38
2.4278847e-38
2.4987274e-38
2.5092575e-38
2.507981e-38
2.5056713e-38
2.5043603e-38
2.5043468e-38
2.5056228e-38
2.5078979e-38
2.5091359e-38
2.4985636e-38
2.4276728e-38
2.124989e-38
1.2629717e-38
1.9748679e-39
9.1933258e-43
1.3987375e-45
5.6488742e-42
4.2052857e-41
7.3762134e-41
8.5173291e-41
8.7878011e-41
8.8297052e-41
8.8263752e-41
8.8186194e-41
8.8141442e-41
8.8140956e-41
8.8184415e-41
8.8260748e-41
8.8292672e-41
8.7872168e-41
8.5165768e-41
7.3754192e-41
4.2047422e-41
5.6480004e-42
1.3984864e-45
1.95631e-48
1.4880952e-44
1.2902088e-43
2.3596005e-43
2.7540069e-43
2.8485668e-43
2.8637035e-43
2.8629762e-43
2.8605633e-43
2.8591466e-43
2.8591273e-43
2.8604945e-43
2.8628617e-43
2.8635399e-43
2.8483531e-43
2.7537386e-43
2.3593277e-43
1.2900347e-43
1.4878625e-44
1.9559667e-48
2.52561e-51
3.6258662e-47
3.6630594e-46
6.9858446e-46
8.241651e-46
8.5459426e-46
8.5959562e-46
8.5947743e-46
8.5877967e-46
8.5836222e-46
8.5835456e-46
8.5875319e-46
8.5943393e-46
8.5953445e-46
8.5451601e-46
8.2407006e-46
6.9849159e-46
3.6625109e-46
3.6252618e-47
2.5251575e-51
3.0203914e-54
8.2016165e-50
9.6591917e-49
1.9211757e-48
2.2910977e-48
2.38163e-48
2.3968402e-48
2.396778e-48
2.394897e-48
2.3937493e-48
2.3937212e-48
2.3948023e-48
2.3966232e-48
2.396625e-48
2.3813588e-48
2.2907763e-48
1.9208714e-48
9.6575115e-49
8.2000815e-50
3.0198051e-54
3.3567537e-57
1.7278777e-52
2.3733771e-51
4.9237697e-51
5.9356439e-51
6.1856402e-51
6.2284307e-51
6.2289409e-51
6.2242047e-51
6.2212544e-51
6.2211628e-51
6.2238998e-51
6.2284452e-51
6.2277453e-51
6.184783e-51
5.934643e-51
4.9228402e-51
2.3728911e-51
1.7275034e-52
3.3564568e-57
3.4771379e-60
3.4003265e-55
5.44987e-54
1.1794328e-53
1.4373049e-53
1.5015968e-53
1.5127796e-53
1.5130631e-53
1.5119469e-53
1.5112371e-53
1.5112107e-53
1.5118601e-53
1.5129224e-53
1.5125855e-53
1.5013544e-53
1.4370233e-53
1.1791739e-53
5.4485726e-54
3.3994728e-55
3.4778596e-60
3.3668599e-63
6.267008e-58
1.1725525e-56
2.6474318e-56
3.2615019e-56
3.4159486e-56
3.4431941e-56
3.4441969e-56
3.4417299e-56
3.4401298e-56
3.4400642e-56
3.4415135e-56
3.4438453e-56
3.4427079e-56
3.415339e-56
3.260792e-56
2.6467816e-56
1.172238e-56
6.2652235e-58
3.3686485e-63
3.0565015e-66
1.0843199e-60
2.3693307e-59
5.5817558e-59
6.9517139e-59
7.2992226e-59
7.3612967e-59
7.364197e-59
7.3590775e-59
7.3556922e-59
7.3555481e-59
7.3586005e-59
7.3634186e-59
7.3602143e-59
7.2978553e-59
6.9501096e-59
5.580288e-59
2.368643e-59
1.0839818e-60
3.057454e-66
2.610888e-69
1.7649815e-63
4.5059791e-62
1.1077254e-61
1.3947358e-61
1.4681468e-61
1.4814079e-61
1.4821429e-61
1.4811436e-61
1.4804701e-61
1.4804422e-61
1.4810499e-61
1.4819894e-61
1.4811927e-61
1.4678724e-61
1.3944103e-61
1.1074276e-61
4.5046244e-62
1.7644037e-63
2.6083373e-69
2.1097383e-72
2.7080194e-66
8.0809214e-65
2.0732173e-64
2.6390853e-64
2.7850028e-64
2.8116311e-64
2.8133118e-64
2.8114739e-64
2.8102119e-64
2.8101634e-64
2.811309e-64
2.8130406e-64
2.8112472e-64
2.7845079e-64
2.6384906e-64
2.072673e-64
8.0785174e-65
2.7071295e-66
2.0968741e-72
1.6248149e-75
3.9233881e-69
1.3690039e-67
3.6658181e-67
4.7177826e-67
4.9912187e-67
5.0415832e-67
5.0451074e-67
5.0419169e-67
5.0396842e-67
5.0396097e-67
5.0416559e-67
5.0446774e-67
5.0409672e-67
4.9904151e-67
4.7168015e-67
3.66492e-67
1.368619e-67
3.9221527e-69
1.5904607e-75
1.2056319e-78
5.3761543e-72
2.1944142e-70
6.133476e-70
7.9807026e-70
8.4646323e-70
8.5545324e-70
8.5613775e-70
8.556141e-70
8.5524072e-70
8.5523066e-70
8.5557734e-70
8.5607692e-70
8.5536484e-70
8.4634621e-70
7.9792446e-70
6.1321409e-70
2.1938592e-70
5.3746089e-72
1.1374049e-78
8.7444948e-82
6.9779375e-75
3.3330496e-73
9.724994e-73
1.2793811e-72
1.3604013e-72
1.3755719e-72
1.3768117e-72
1.3759979e-72
1.3754063e-72
1.3753949e-72
1.3759523e-72
1.376736e-72
1.3754597e-72
1.3602499e-72
1.2791872e-72
9.7232171e-73
3.3323317e-73
6.9762004e-75
7.6842971e-82
6.2834464e-85
8.5904862e-78
4.8035216e-76
1.4631973e-75
1.9462466e-75
2.0747553e-75
2.0989956e-75
2.1010992e-75
2.0999007e-75
2.0990111e-75
2.099001e-75
2.0998526e-75
2.1010197e-75
2.0988735e-75
2.0745857e-75
1.9460195e-75
1.4629884e-75
4.8026982e-76
8.5887436e-78
4.8722613e-85
4.4691437e-88
1.0043492e-80
6.5767186e-79
2.0916184e-78
2.8129995e-78
3.0063701e-78
3.0430971e-78
3.0464546e-78
3.0447785e-78
3.043507e-78
3.0435032e-78
3.0447391e-78
3.0463913e-78
3.0429931e-78
3.0062171e-78
2.8127766e-78
2.0914105e-78
6.5759067e-79
1.0041969e-80
2.9038981e-88
3.0301546e-91
1.1164112e-83
8.5641079e-82
2.8439276e-81
3.8672799e-81
4.143658e-81
4.1964927e-81
4.2015476e-81
4.1993199e-81
4.1975904e-81
4.1975986e-81
4.1993047e-81
4.2015285e-81
4.1964481e-81
4.1435769e-81
3.8671228e-81
2.8437751e-81
8.5634904e-82
1.1163032e-83
1.6528907e-91
1.9910707e-94
1.1811104e-86
1.0617668e-84
3.6818039e-84
5.0623809e-84
5.4380151e-84
5.510268e-84
5.5174642e-84
5.5146482e-84
5.512406e-84
5.5124336e-84
5.5146758e-84
5.5175233e-84
5.5103361e-84
5.4380811e-84
5.0623783e-84
3.681784e-84
1.0617483e-84
1.1810655e-86
8.9942455e-95
1.2370228e-97
1.1904215e-89
1.2544807e-87
4.5427742e-87
6.3158121e-87
6.8017998e-87
6.8958276e-87
6.905536e-87
6.9021489e-87
6.8993794e-87
6.8994324e-87
6.9022393e-87
6.9057117e-87
6.8960709e-87
6.8021027e-87
6.3160759e-87
4.5429849e-87
1.2545326e-87
1.1904509e-89
4.653831e-98
6.9386288e-101
1.1440306e-92
1.4137302e-90
5.3466051e-90
7.5163389e-90
8.1154315e-90
8.2319924e-90
8.2444243e-90
8.2405461e-90
8.2372837e-90
8.2373694e-90
8.2407206e-90
8.2447575e-90
8.2324755e-90
8.1160695e-90
7.5169922e-90
5.3471532e-90
1.413879e-90
1.1441369e-92
2.2917553e-101
3.2561362e-104
1.0491821e-95
1.5208501e-93
6.0072869e-93
8.5394942e-93
9.2437783e-93
9.3815417e-93
9.396676e-93
9.3924495e-93
9.3887828e-93
9.3889064e-93
9.3927247e-93
9.3971995e-93
9.3823198e-93
9.2448352e-93
8.5406502e-93
6.0082685e-93
1.5211165e-93
1.0493578e-95
1.0749229e-104
)
;

boundaryField
{
    Wall
    {
        type            zeroGradient;
    }
    frontAndBack
    {
        type            empty;
    }
    atmosphere
    {
        type            zeroGradient;
    }
}


// ************************************************************************* //
