/*--------------------------------*- C++ -*----------------------------------*\
| =========                 |                                                 |
| \\      /  F ield         | OpenFOAM: The Open Source CFD Toolbox           |
|  \\    /   O peration     | Version:  3.0.1                                 |
|   \\  /    A nd           | Web:      www.OpenFOAM.org                      |
|    \\/     M anipulation  |                                                 |
\*---------------------------------------------------------------------------*/
FoamFile
{
    version     2.0;
    format      ascii;
    class       volScalarField;
    location    "5";
    object      wCO2_g;
}
// * * * * * * * * * * * * * * * * * * * * * * * * * * * * * * * * * * * * * //

dimensions      [0 0 0 0 0 0 0];

internalField   nonuniform List<scalar> 
800
(
0.00011190336
0.00011190228
0.00011190179
0.0001119019
0.00011190198
0.00011190201
0.00011190204
0.00011190205
0.00011190206
0.00011190206
0.00011190206
0.00011190206
0.00011190205
0.00011190204
0.00011190202
0.00011190198
0.0001119019
0.00011190179
0.00011190228
0.00011190336
2.6996106e-05
2.6984959e-05
2.6986877e-05
2.6988118e-05
2.6988638e-05
2.698884e-05
2.6988909e-05
2.6988929e-05
2.6988932e-05
2.6988931e-05
2.6988931e-05
2.6988932e-05
2.6988929e-05
2.6988909e-05
2.698884e-05
2.6988638e-05
2.6988118e-05
2.6986877e-05
2.6984959e-05
2.6996106e-05
1.2641248e-06
1.264982e-06
1.2657719e-06
1.2660249e-06
1.2661009e-06
1.266118e-06
1.266117e-06
1.2661119e-06
1.2661073e-06
1.2661049e-06
1.2661049e-06
1.2661074e-06
1.2661119e-06
1.266117e-06
1.266118e-06
1.2661009e-06
1.2660249e-06
1.2657719e-06
1.264982e-06
1.2641249e-06
4.5174968e-08
4.808525e-08
4.8185632e-08
4.8189407e-08
4.8186642e-08
4.8182853e-08
4.8179767e-08
4.8177641e-08
4.8176317e-08
4.8175634e-08
4.8175626e-08
4.8176295e-08
4.8177611e-08
4.8179732e-08
4.8182813e-08
4.8186595e-08
4.8189341e-08
4.818553e-08
4.8085094e-08
4.5174791e-08
1.4223932e-09
1.6858485e-09
1.6941349e-09
1.6934268e-09
1.6925088e-09
1.6917513e-09
1.6912201e-09
1.6908788e-09
1.690676e-09
1.6905765e-09
1.6905755e-09
1.6906734e-09
1.6908751e-09
1.6912157e-09
1.6917459e-09
1.692502e-09
1.6934169e-09
1.6941202e-09
1.6858266e-09
1.4223696e-09
3.1870702e-11
4.2548345e-11
4.2956351e-11
4.292251e-11
4.2866607e-11
4.2818703e-11
4.278466e-11
4.2762671e-11
4.274968e-11
4.2743522e-11
4.2743479e-11
4.2749542e-11
4.2762463e-11
4.2784397e-11
4.2818375e-11
4.286618e-11
4.292189e-11
4.2955434e-11
4.2547011e-11
3.1869406e-11
5.3322749e-13
7.9770065e-13
8.1011724e-13
8.0971155e-13
8.0816494e-13
8.066914e-13
8.0559684e-13
8.0487191e-13
8.0443811e-13
8.0423299e-13
8.0423144e-13
8.044333e-13
8.0486469e-13
8.0558768e-13
8.0667996e-13
8.0815026e-13
8.0969085e-13
8.1008711e-13
7.9765793e-13
5.3319067e-13
6.6184468e-15
1.0985104e-14
1.1227967e-14
1.1232314e-14
1.1207132e-14
1.1179889e-14
1.1158657e-14
1.114421e-14
1.1135423e-14
1.1131246e-14
1.1131211e-14
1.1135317e-14
1.1144049e-14
1.1158456e-14
1.1179646e-14
1.1206831e-14
1.1231906e-14
1.122739e-14
1.0984309e-14
6.6178406e-15
6.4609528e-17
1.1760827e-16
1.2098245e-16
1.2118906e-16
1.2090892e-16
1.2055813e-16
1.2027161e-16
1.200716e-16
1.1994805e-16
1.1988891e-16
1.1988834e-16
1.1994636e-16
1.2006903e-16
1.2026845e-16
1.2055447e-16
1.2090462e-16
1.2118358e-16
1.2097507e-16
1.1759848e-16
6.4602909e-17
4.7238786e-19
9.2804532e-19
9.6048622e-19
9.6370319e-19
9.6161962e-19
9.5850594e-19
9.5584421e-19
9.5394287e-19
9.5275184e-19
9.5217778e-19
9.5217147e-19
9.5273324e-19
9.5391467e-19
9.5580994e-19
9.5846741e-19
9.615766e-19
9.636522e-19
9.6042214e-19
9.2796487e-19
4.723395e-19
2.9965193e-21
6.4636513e-21
6.7397804e-21
6.7758178e-21
6.7634653e-21
6.7400606e-21
6.7191213e-21
6.7038503e-21
6.6941688e-21
6.6894721e-21
6.6894134e-21
6.6939962e-21
6.7035884e-21
6.7188035e-21
6.7397088e-21
6.7630888e-21
6.7754004e-21
6.7392947e-21
6.4630844e-21
2.9962252e-21
1.1020509e-23
2.5861248e-23
2.7198801e-23
2.74173e-23
2.7382972e-23
2.7283978e-23
2.7190719e-23
2.7121324e-23
2.7076854e-23
2.7055161e-23
2.7054861e-23
2.7075973e-23
2.7119986e-23
2.7189086e-23
2.7282175e-23
2.7381078e-23
2.7415292e-23
2.7196609e-23
2.5858874e-23
1.1019435e-23
1.2441569e-26
3.2206735e-26
3.4685939e-26
3.5258779e-26
3.5277237e-26
3.5136373e-26
3.4988477e-26
3.4875137e-26
3.4801697e-26
3.4765738e-26
3.4765288e-26
3.4800348e-26
3.4873099e-26
3.498593e-26
3.5133523e-26
3.5274254e-26
3.5255656e-26
3.4682663e-26
3.2203416e-26
1.2440252e-26
4.6629967e-30
1.9592571e-29
2.5176238e-29
2.733482e-29
2.7953288e-29
2.802288e-29
2.795711e-29
2.7883612e-29
2.7831923e-29
2.7806031e-29
2.7805632e-29
2.7830703e-29
2.7881763e-29
2.7954756e-29
2.8020186e-29
2.7950434e-29
2.7331858e-29
2.5173337e-29
1.9590169e-29
4.6624207e-30
9.8965629e-34
9.9487075e-33
1.6802951e-32
2.0081846e-32
2.118152e-32
2.1422843e-32
2.1421647e-32
2.1377832e-32
2.1341762e-32
2.1323005e-32
2.1322683e-32
2.1340771e-32
2.1376317e-32
2.1419682e-32
2.1420551e-32
2.1179064e-32
2.0079339e-32
1.6800707e-32
9.9473077e-33
9.8951669e-34
1.5537092e-37
4.0046282e-36
9.0505434e-36
1.1982045e-35
1.3062433e-35
1.3335972e-35
1.3366951e-35
1.3347002e-35
1.3326173e-35
1.3314847e-35
1.3314647e-35
1.3325553e-35
1.334605e-35
1.3365694e-35
1.3334484e-35
1.3060825e-35
1.1980439e-35
9.0492437e-36
4.0040283e-36
1.5534782e-37
1.7391286e-41
1.1621727e-39
3.5307182e-39
5.1884636e-39
5.8510006e-39
6.0319001e-39
6.0611949e-39
6.0559971e-39
6.0476032e-39
6.0427786e-39
6.042693e-39
6.0473358e-39
6.0555825e-39
6.060639e-39
6.0312343e-39
5.8502778e-39
5.1877577e-39
3.5302032e-39
1.1619973e-39
1.7388714e-41
1.3113554e-45
2.2728064e-43
9.290671e-43
1.51604e-42
1.7686762e-42
1.8412372e-42
1.8548964e-42
1.8545239e-42
1.85231e-42
1.8509475e-42
1.8509234e-42
1.8522341e-42
1.8544059e-42
1.8547353e-42
1.8410414e-42
1.7684631e-42
1.5158371e-42
9.2893315e-43
2.2724681e-43
1.3111648e-45
5.9232944e-50
2.665821e-47
1.4668114e-46
2.6577187e-46
3.2073094e-46
3.3713624e-46
3.4049203e-46
3.4064489e-46
3.4030426e-46
3.4007585e-46
3.4007188e-46
3.402915e-46
3.40625e-46
3.4046437e-46
3.371021e-46
3.2069359e-46
2.65737e-46
1.4666016e-46
2.6654243e-47
5.9224231e-50
1.2050539e-54
1.4094513e-51
1.043992e-50
2.1000154e-50
2.6209925e-50
2.7815288e-50
2.8161283e-50
2.8191544e-50
2.8168547e-50
2.815136e-50
2.8151059e-50
2.8167563e-50
2.8190001e-50
2.8159098e-50
2.7812554e-50
2.6206925e-50
2.0997406e-50
1.0438405e-50
1.4092347e-51
1.2048663e-54
0
0
0
0
0
0
0
0
0
0
0
0
0
0
0
0
0
0
0
0
0
0
0
0
0
0
0
0
0
0
0
0
0
0
0
0
0
0
0
0
0
0
0
0
0
0
0
0
0
0
0
0
0
0
0
0
0
0
0
0
0
0
0
0
0
0
0
0
0
0
0
0
0
0
0
0
0
0
0
0
0
0
0
0
0
0
0
0
0
0
0
0
0
0
0
0
0
0
0
0
0
0
0
0
0
0
0
0
0
0
0
0
0
0
0
0
0
0
0
0
0
0
0
0
0
0
0
0
0
0
0
0
0
0
0
0
0
0
0
0
0
0
0
0
0
0
0
0
0
0
0
0
0
0
0
0
0
0
0
0
0
0
0
0
0
0
0
0
0
0
0
0
0
0
0
0
0
0
0
0
0
0
0
0
0
0
0
0
0
0
0
0
0
0
0
0
0
0
0
0
0
0
0
0
0
0
0
0
0
0
0
0
0
0
0
0
0
0
0
0
0
0
0
0
0
0
0
0
0
0
0
0
0
0
0
0
0
0
0
0
0
0
0
0
0
0
0
0
0
0
0
0
0
0
0
0
0
0
0
0
0
0
0
0
0
0
0
0
0
0
0
0
0
0
0
0
0
0
0
0
0
0
0
0
0
0
0
0
0
0
0
0
0
0
0
0
0
0
0
0
0
0
0
0
0
0
0
0
0
0
0
0
0
0
0
0
0
0
0
0
0
0
0
0
0
0
0
0
0
0
0
0
0
0
0
0
0
0
0
0
0
0
0
0
0
0
0
0
0
0
0
0
0
0
0
0
0
0
0
0
0
0
0
0
0
0
0
0
0
0
0
0
0
0
0
0
0
0
0
0
0
0
0
0
0
0
0
0
0
0
0
0
0
0
0
0
0
0
0
0
)
;

boundaryField
{
    Wall
    {
        type            zeroGradient;
    }
    frontAndBack
    {
        type            empty;
    }
    atmosphere
    {
        type            zeroGradient;
    }
}


// ************************************************************************* //
