/*--------------------------------*- C++ -*----------------------------------*\
| =========                 |                                                 |
| \\      /  F ield         | OpenFOAM: The Open Source CFD Toolbox           |
|  \\    /   O peration     | Version:  3.0.1                                 |
|   \\  /    A nd           | Web:      www.OpenFOAM.org                      |
|    \\/     M anipulation  |                                                 |
\*---------------------------------------------------------------------------*/
FoamFile
{
    version     2.0;
    format      ascii;
    class       volScalarField;
    location    "49";
    object      mOne;
}
// * * * * * * * * * * * * * * * * * * * * * * * * * * * * * * * * * * * * * //

dimensions      [0 0 0 0 0 0 0];

internalField   nonuniform List<scalar> 
800
(
22.154534
22.156332
22.156434
22.156342
22.156271
22.156231
22.156211
22.156202
22.156198
22.156197
22.156197
22.156198
22.156201
22.156211
22.156231
22.156271
22.156343
22.156435
22.156332
22.154534
22.141454
22.149937
22.152172
22.152764
22.152866
22.152836
22.152783
22.15274
22.152713
22.152699
22.152699
22.152713
22.15274
22.152783
22.152836
22.152866
22.152764
22.152172
22.149937
22.141453
22.068024
22.083531
22.089082
22.090763
22.091198
22.09124
22.091179
22.091112
22.091064
22.09104
22.09104
22.091064
22.091112
22.091179
22.09124
22.091198
22.090762
22.089081
22.08353
22.068022
21.966556
21.988445
21.997489
22.000332
22.001141
22.001281
22.001225
22.001142
22.001077
22.001044
22.001044
22.001077
22.001141
22.001225
22.00128
22.00114
22.000331
21.997488
21.988443
21.966553
21.854539
21.881834
21.894132
21.898085
21.899241
21.899474
21.899429
21.899335
21.899257
21.899217
21.899217
21.899257
21.899334
21.899429
21.899473
21.899239
21.898083
21.89413
21.881831
21.854535
21.742999
21.774368
21.789463
21.794391
21.795812
21.796106
21.79606
21.795951
21.795861
21.795815
21.795815
21.795861
21.79595
21.796059
21.796105
21.795811
21.79439
21.789461
21.774365
21.742995
21.640618
21.674462
21.691731
21.697438
21.699001
21.699296
21.69922
21.699087
21.698979
21.698925
21.698924
21.698979
21.699086
21.699219
21.699294
21.698999
21.697436
21.691728
21.674459
21.640613
21.554437
21.589074
21.607746
21.613989
21.615545
21.615765
21.615624
21.615446
21.615312
21.615246
21.615246
21.615312
21.615445
21.615622
21.615764
21.615543
21.613987
21.607743
21.58907
21.554432
21.489225
21.523209
21.542441
21.548964
21.550378
21.550449
21.550204
21.549964
21.549794
21.549713
21.549713
21.549794
21.549963
21.550203
21.550448
21.550376
21.548962
21.542439
21.523206
21.48922
21.447463
21.479649
21.498549
21.505082
21.506223
21.506069
21.505674
21.505344
21.505127
21.505024
21.505024
21.505126
21.505344
21.505673
21.506067
21.506222
21.50508
21.498547
21.479646
21.447458
21.430043
21.459807
21.477537
21.483835
21.48461
21.484173
21.483589
21.483148
21.48287
21.482741
21.482741
21.48287
21.483147
21.483588
21.484172
21.484609
21.483833
21.477535
21.459804
21.430039
21.44358
21.463414
21.479212
21.48505
21.485386
21.484621
21.483808
21.483234
21.482885
21.482725
21.482725
21.482885
21.483233
21.483807
21.48462
21.485384
21.485049
21.47921
21.463411
21.443577
21.486065
21.504553
21.516861
21.521859
21.521742
21.520629
21.519502
21.518746
21.518306
21.518104
21.518104
21.518306
21.518746
21.519502
21.520628
21.521741
21.521858
21.51686
21.504551
21.486062
21.557289
21.574803
21.583021
21.586975
21.586516
21.585119
21.58361
21.582635
21.582089
21.581835
21.581835
21.582089
21.582634
21.583609
21.585118
21.586515
21.586974
21.58302
21.574802
21.557287
21.655256
21.672466
21.676446
21.679181
21.678534
21.676936
21.674962
21.673722
21.673052
21.672736
21.672736
21.673051
21.673722
21.674962
21.676936
21.678533
21.67918
21.676445
21.672466
21.655255
21.777216
21.795633
21.795749
21.797135
21.796481
21.794752
21.792218
21.790656
21.789827
21.789448
21.789448
21.789827
21.790656
21.792218
21.794752
21.796481
21.797134
21.795749
21.795633
21.777215
21.920154
21.942185
21.939374
21.939382
21.938922
21.937096
21.933883
21.931924
21.930883
21.930462
21.930462
21.930883
21.931924
21.933883
21.937096
21.938922
21.939382
21.939373
21.942185
21.920153
22.080796
22.109687
22.105454
22.10425
22.104215
22.10227
22.098198
22.095754
22.094417
22.094018
22.094018
22.094417
22.095754
22.098198
22.10227
22.104215
22.10425
22.105454
22.109688
22.080796
22.255344
22.295235
22.291647
22.289677
22.29037
22.2882
22.283002
22.279966
22.278207
22.277951
22.277951
22.278207
22.279966
22.283001
22.2882
22.290369
22.289678
22.291647
22.295236
22.255345
22.439043
22.495082
22.494774
22.492867
22.494703
22.492104
22.485421
22.481678
22.479312
22.479385
22.479385
22.479312
22.481677
22.485421
22.492104
22.494703
22.492867
22.494774
22.495083
22.439044
22.625984
22.704405
22.710566
22.709973
22.713486
22.710157
22.701574
22.697004
22.693785
22.694423
22.694423
22.693785
22.697003
22.701574
22.710157
22.713486
22.709973
22.710567
22.704406
22.625984
22.809751
22.917886
22.934298
22.936698
22.94253
22.938116
22.927219
22.921705
22.917347
22.918814
22.918814
22.917347
22.921705
22.927219
22.938116
22.94253
22.936698
22.934298
22.917887
22.809751
22.983262
23.12962
23.160738
23.168224
23.177141
23.171284
23.157706
23.151135
23.145363
23.14792
23.14792
23.145363
23.151134
23.157705
23.171283
23.177141
23.168224
23.160738
23.12962
22.983261
23.138495
23.332744
23.383815
23.398842
23.411791
23.404174
23.387615
23.379878
23.372517
23.376379
23.376379
23.372516
23.379877
23.387614
23.404174
23.411791
23.398842
23.383814
23.332744
23.138494
23.266766
23.51986
23.597145
23.622557
23.640773
23.63116
23.611369
23.602357
23.5934
23.598716
23.598716
23.5934
23.602356
23.611368
23.631158
23.640772
23.622556
23.597144
23.51986
23.266765
23.35783
23.682322
23.793267
23.832424
23.857488
23.845805
23.822584
23.812194
23.801845
23.808678
23.808677
23.801844
23.812192
23.822583
23.845804
23.857486
23.832423
23.793266
23.682322
23.357829
23.399432
23.809874
23.963303
24.020342
24.054181
24.040633
24.013871
24.001994
23.990661
23.99898
23.998979
23.99066
24.001993
24.013869
24.040631
24.054179
24.02034
23.963302
23.809873
23.399431
23.3765
23.890283
24.096702
24.176968
24.221863
24.207097
24.176862
24.163387
24.15162
24.161298
24.161298
24.151618
24.163385
24.17686
24.207095
24.221861
24.176967
24.096701
23.890284
23.376501
23.269913
23.908047
24.180222
24.290675
24.349319
24.334656
24.301314
24.286126
24.274526
24.28535
24.28535
24.274525
24.286123
24.301311
24.334654
24.349318
24.290674
24.180221
23.908049
23.269917
23.05491
23.842776
24.196822
24.346318
24.422132
24.409733
24.374014
24.356983
24.346087
24.357759
24.357759
24.346086
24.356981
24.374012
24.409732
24.422131
24.346317
24.196823
23.842781
23.054918
22.699119
23.667216
24.123734
24.323321
24.421153
24.414186
24.37703
24.357989
24.348156
24.3603
24.3603
24.348155
24.357987
24.377029
24.414184
24.421152
24.323322
24.123737
23.667226
22.699135
22.160776
23.345162
23.930512
24.193822
24.320494
24.323424
24.285885
24.264323
24.255636
24.267795
24.267795
24.255635
24.264321
24.285884
24.323423
24.320495
24.193825
23.930519
23.345179
22.160803
21.38688
22.829965
23.576899
23.920676
24.085085
24.104006
24.067576
24.042212
24.034436
24.046065
24.046065
24.034435
24.042211
24.067576
24.104007
24.085088
23.920683
23.576912
22.829993
21.386923
20.315934
22.063776
23.010257
23.454828
23.668058
23.710682
23.677241
23.646984
23.639567
23.65003
23.65003
23.639567
23.646984
23.677242
23.710685
23.668064
23.454839
23.010279
22.06382
20.316
18.888695
20.979738
22.164428
22.733172
23.00865
23.082832
23.055766
23.021617
23.013748
23.022319
23.022319
23.013749
23.021619
23.055769
23.082837
23.008659
22.733189
22.164459
20.979802
18.88879
17.067893
19.513157
20.963859
21.677815
22.03222
22.145462
22.130926
22.096848
22.087626
22.093515
22.093515
22.087628
22.096851
22.130932
22.145471
22.032234
21.677839
20.963902
19.513242
17.068019
14.879958
17.627503
19.336444
20.207217
20.654465
20.817636
20.823642
20.79427
20.782973
20.785411
20.785412
20.782976
20.794276
20.82365
20.817649
20.654484
20.207249
19.336499
17.627607
14.880108
12.416452
15.33169
17.238312
18.259625
18.805884
19.030114
19.064019
19.048838
19.035472
19.033991
19.033992
19.035477
19.048846
19.06403
19.03013
18.805908
18.259664
17.238376
15.331807
12.416616
9.8263251
12.707579
14.695267
15.830278
16.467612
16.755587
16.821315
16.838711
16.824166
16.818742
16.818744
16.824172
16.83872
16.821327
16.755605
16.467639
15.83032
14.695336
12.707701
9.8264991
7.7077755
9.9472241
11.653015
12.704269
13.295385
13.619009
13.693207
13.728951
13.708868
13.697413
13.697414
13.708872
13.728958
13.693215
13.619022
13.295405
12.704302
11.653069
9.9473275
7.7079501
)
;

boundaryField
{
    Wall
    {
        type            zeroGradient;
    }
    frontAndBack
    {
        type            empty;
    }
    atmosphere
    {
        type            zeroGradient;
    }
}


// ************************************************************************* //
