/*--------------------------------*- C++ -*----------------------------------*\
| =========                 |                                                 |
| \\      /  F ield         | OpenFOAM: The Open Source CFD Toolbox           |
|  \\    /   O peration     | Version:  3.0.1                                 |
|   \\  /    A nd           | Web:      www.OpenFOAM.org                      |
|    \\/     M anipulation  |                                                 |
\*---------------------------------------------------------------------------*/
FoamFile
{
    version     2.0;
    format      ascii;
    class       volScalarField;
    location    "49";
    object      node0;
}
// * * * * * * * * * * * * * * * * * * * * * * * * * * * * * * * * * * * * * //

dimensions      [0 0 0 0 0 0 0];

internalField   nonuniform List<scalar> 
800
(
0
0
0
0
0
0
0
0
0
0
0
0
0
0
0
0
0
0
0
0
0
0
0
0
0
0
0
0
0
0
0
0
0
0
0
0
0
0
0
0
0
0
0
0
0
0
0
0
0
0
0
0
0
0
0
0
0
0
0
0
0
0
0
0
0
0
0
0
0
0
0
0
0
0
0
0
0
0
0
0
0
0
0
0
0
0
0
0
0
0
0
0
0
0
0
0
0
0
0
0
0
0
0
0
0
0
0
0
0
0
0
0
0
0
0
0
0
0
0
0
0
0
0
0
0
0
0
0
0
0
0
0
0
0
0
0
0
0
0
0
0
0
0
0
0
0
0
0
0
0
0
0
0
0
0
0
0
0
0
0
0
0
0
0
0
0
0
0
0
0
0
0
0
0
0
0
0
0
0
0
0
0
0
0
0
0
0
0
0
0
0
0
0
0
0
0
0
0
0
0
0
0
0
0
0
0
0
0
0
0
0
0
0
0
0
0
0
0
0
0
1.3422626e-13
0
0
0
0
0
0
0
0
0
0
0
0
0
0
0
0
0
0
1.3422822e-13
6.4961008e-13
4.6711857e-13
4.3455698e-13
4.2988782e-13
4.3268466e-13
4.3416925e-13
4.335463e-13
4.3326809e-13
4.3326797e-13
4.3326056e-13
4.3326063e-13
4.3326819e-13
4.3326849e-13
4.3354677e-13
4.3416989e-13
4.3268534e-13
4.2988852e-13
4.345577e-13
4.6711917e-13
6.4961012e-13
9.7846531e-13
8.8980682e-13
8.6293222e-13
8.5843042e-13
8.6406558e-13
8.6725687e-13
8.6655174e-13
8.6629104e-13
8.6637498e-13
8.663609e-13
8.6636089e-13
8.6637496e-13
8.6629105e-13
8.6655168e-13
8.6725683e-13
8.6406549e-13
8.5843023e-13
8.6293205e-13
8.8980657e-13
9.7846462e-13
1.2053897e-12
1.1729852e-12
1.1494879e-12
1.1448602e-12
1.1538833e-12
1.1590318e-12
1.1578173e-12
1.1575642e-12
1.1577738e-12
1.1577774e-12
1.1577774e-12
1.1577736e-12
1.157564e-12
1.1578169e-12
1.1590314e-12
1.1538828e-12
1.1448596e-12
1.1494872e-12
1.1729845e-12
1.2053887e-12
1.3670783e-12
1.3635723e-12
1.343205e-12
1.3382902e-12
1.3502439e-12
1.3567398e-12
1.3548717e-12
1.3545836e-12
1.3549108e-12
1.3549861e-12
1.354986e-12
1.3549106e-12
1.3545832e-12
1.3548712e-12
1.3567391e-12
1.3502432e-12
1.3382892e-12
1.343204e-12
1.3635713e-12
1.367077e-12
1.4942674e-12
1.5035293e-12
1.4859902e-12
1.4805961e-12
1.494246e-12
1.5010592e-12
1.4986731e-12
1.4982735e-12
1.4986637e-12
1.4988986e-12
1.4988985e-12
1.4986635e-12
1.498273e-12
1.4986724e-12
1.5010583e-12
1.494245e-12
1.4805949e-12
1.485989e-12
1.5035281e-12
1.4942658e-12
1.6121386e-12
1.6247053e-12
1.6091778e-12
1.6031499e-12
1.6170792e-12
1.6232853e-12
1.6205343e-12
1.6199322e-12
1.6202923e-12
1.6207969e-12
1.6207968e-12
1.620292e-12
1.6199317e-12
1.6205336e-12
1.6232844e-12
1.6170782e-12
1.6031486e-12
1.6091766e-12
1.624704e-12
1.6121369e-12
1.7361129e-12
1.746298e-12
1.7316826e-12
1.7249691e-12
1.7380201e-12
1.7429773e-12
1.7399024e-12
1.7390095e-12
1.7392111e-12
1.7400941e-12
1.740094e-12
1.7392108e-12
1.739009e-12
1.7399016e-12
1.7429764e-12
1.7380191e-12
1.7249679e-12
1.7316814e-12
1.7462967e-12
1.7361111e-12
1.8732065e-12
1.8776794e-12
1.8628711e-12
1.8555242e-12
1.866949e-12
1.8702842e-12
1.8668433e-12
1.8655881e-12
1.8654782e-12
1.8668223e-12
1.8668222e-12
1.8654779e-12
1.8655876e-12
1.8668426e-12
1.8702833e-12
1.866948e-12
1.8555231e-12
1.8628699e-12
1.8776781e-12
1.8732047e-12
2.0249733e-12
2.022059e-12
2.0060795e-12
1.9981795e-12
2.0075869e-12
2.0091437e-12
2.0052797e-12
2.0036102e-12
2.0030367e-12
2.0048747e-12
2.0048746e-12
2.0030364e-12
2.0036097e-12
2.005279e-12
2.0091428e-12
2.0075859e-12
1.9981783e-12
2.0060783e-12
2.0220576e-12
2.0249714e-12
2.1906363e-12
2.179769e-12
2.1618704e-12
2.153469e-12
2.1607271e-12
2.1605263e-12
2.1562283e-12
2.1541234e-12
2.1529858e-12
2.1552955e-12
2.1552954e-12
2.1529855e-12
2.154123e-12
2.1562277e-12
2.1605255e-12
2.1607262e-12
2.1534678e-12
2.1618693e-12
2.1797677e-12
2.1906344e-12
2.3685596e-12
2.3498409e-12
2.3295415e-12
2.3206143e-12
2.3257702e-12
2.3239438e-12
2.3192418e-12
2.3167091e-12
2.3149989e-12
2.3177076e-12
2.3177075e-12
2.3149986e-12
2.3167087e-12
2.3192412e-12
2.3239429e-12
2.3257693e-12
2.3206131e-12
2.3295403e-12
2.3498394e-12
2.3685577e-12
2.556215e-12
2.5302161e-12
2.5073404e-12
2.4977736e-12
2.5010296e-12
2.4977547e-12
2.4926805e-12
2.4897591e-12
2.4875807e-12
2.4905834e-12
2.4905833e-12
2.4875804e-12
2.4897587e-12
2.4926799e-12
2.4977539e-12
2.5010287e-12
2.4977724e-12
2.5073392e-12
2.5302147e-12
2.5562131e-12
2.7514747e-12
2.7189853e-12
2.6936412e-12
2.6832771e-12
2.684941e-12
2.680384e-12
2.6749335e-12
2.6716906e-12
2.6692373e-12
2.6724229e-12
2.6724229e-12
2.6692371e-12
2.6716902e-12
2.6749329e-12
2.6803832e-12
2.6849401e-12
2.683276e-12
2.6936401e-12
2.7189838e-12
2.7514729e-12
2.9515698e-12
2.9137093e-12
2.8861873e-12
2.8748922e-12
2.8752682e-12
2.869595e-12
2.8637422e-12
2.8602758e-12
2.8577846e-12
2.8610629e-12
2.8610629e-12
2.8577844e-12
2.8602754e-12
2.8637416e-12
2.8695943e-12
2.8752673e-12
2.8748911e-12
2.8861861e-12
2.9137078e-12
2.951568e-12
3.1529226e-12
3.1113422e-12
3.082029e-12
3.0697631e-12
3.0690204e-12
3.0623999e-12
3.0561341e-12
3.0525619e-12
3.0502594e-12
3.0535787e-12
3.0535787e-12
3.0502592e-12
3.0525616e-12
3.0561335e-12
3.0623992e-12
3.0690196e-12
3.069762e-12
3.0820278e-12
3.1113408e-12
3.152921e-12
3.3511878e-12
3.308281e-12
3.2776373e-12
3.2643796e-12
3.262453e-12
3.2550427e-12
3.2483981e-12
3.2448554e-12
3.2429379e-12
3.2462946e-12
3.2462946e-12
3.2429377e-12
3.2448551e-12
3.2483977e-12
3.2550421e-12
3.2624523e-12
3.2643787e-12
3.2776361e-12
3.3082796e-12
3.3511864e-12
3.5399754e-12
3.4992498e-12
3.4679226e-12
3.4534934e-12
3.4500134e-12
3.4419298e-12
3.4349667e-12
3.4316064e-12
3.4302566e-12
3.4337017e-12
3.4337017e-12
3.4302565e-12
3.4316062e-12
3.4349663e-12
3.4419292e-12
3.4500127e-12
3.4534925e-12
3.4679215e-12
3.4992486e-12
3.5399743e-12
3.7103534e-12
3.676866e-12
3.6458927e-12
3.6296523e-12
3.6238735e-12
3.6150185e-12
3.6077053e-12
3.6046641e-12
3.6040773e-12
3.607708e-12
3.6077081e-12
3.6040773e-12
3.604664e-12
3.607705e-12
3.615018e-12
3.6238729e-12
3.6296515e-12
3.6458917e-12
3.6768651e-12
3.7103529e-12
3.8493201e-12
3.8304347e-12
3.8015263e-12
3.7822381e-12
3.772988e-12
3.7628705e-12
3.7548758e-12
3.752229e-12
3.752632e-12
3.7565838e-12
3.7565838e-12
3.752632e-12
3.752229e-12
3.7548757e-12
3.7628703e-12
3.7729876e-12
3.7822376e-12
3.8015257e-12
3.8304344e-12
3.8493207e-12
3.9388881e-12
3.9448168e-12
3.9208922e-12
3.8968879e-12
3.8823569e-12
3.8699242e-12
3.860535e-12
3.8581556e-12
3.8597555e-12
3.8641822e-12
3.8641823e-12
3.8597557e-12
3.8581559e-12
3.8605352e-12
3.8699243e-12
3.882357e-12
3.8968878e-12
3.9208921e-12
3.9448175e-12
3.9388905e-12
3.9577597e-12
4.0006774e-12
3.9861281e-12
3.9559387e-12
3.933785e-12
3.9172478e-12
3.9054631e-12
3.9030766e-12
3.9059217e-12
3.91096e-12
3.9109602e-12
3.9059221e-12
3.9030772e-12
3.9054637e-12
3.9172484e-12
3.9337857e-12
3.9559394e-12
3.9861291e-12
4.0006798e-12
3.9577647e-12
3.889311e-12
3.97811e-12
3.9780225e-12
3.941317e-12
3.909596e-12
3.886509e-12
3.8712054e-12
3.8687915e-12
3.8726079e-12
3.8783249e-12
3.8783251e-12
3.8726086e-12
3.8687925e-12
3.8712065e-12
3.8865103e-12
3.9095974e-12
3.9413187e-12
3.9780249e-12
3.978115e-12
3.8893194e-12
3.7305176e-12
3.8652276e-12
3.8827094e-12
3.8406891e-12
3.7990371e-12
3.7672062e-12
3.7476302e-12
3.7451952e-12
3.7493857e-12
3.7557403e-12
3.7557407e-12
3.7493866e-12
3.7451966e-12
3.7476319e-12
3.7672081e-12
3.7990394e-12
3.840692e-12
3.8827134e-12
3.8652354e-12
3.7305291e-12
3.4919277e-12
3.6651269e-12
3.6981578e-12
3.6529117e-12
3.6021083e-12
3.561298e-12
3.536758e-12
3.5335663e-12
3.5374832e-12
3.5443515e-12
3.544352e-12
3.5374844e-12
3.533568e-12
3.5367602e-12
3.5613005e-12
3.6021113e-12
3.6529156e-12
3.6981632e-12
3.6651367e-12
3.4919413e-12
3.1919108e-12
3.3894896e-12
3.4323605e-12
3.3859168e-12
3.3266191e-12
3.2774479e-12
3.2466313e-12
3.2426136e-12
3.2457845e-12
3.2530101e-12
3.2530106e-12
3.2457858e-12
3.2426157e-12
3.2466338e-12
3.2774508e-12
3.3266226e-12
3.3859214e-12
3.4323668e-12
3.3895001e-12
3.1919242e-12
2.8388737e-12
3.0510588e-12
3.09578e-12
3.0478806e-12
2.9808572e-12
2.925151e-12
2.8864679e-12
2.8806011e-12
2.8827023e-12
2.8901244e-12
2.8901249e-12
2.8827037e-12
2.8806033e-12
2.8864705e-12
2.9251542e-12
2.9808609e-12
3.0478854e-12
3.0957864e-12
3.0510684e-12
2.8388849e-12
2.4544489e-12
2.6679012e-12
2.7036232e-12
2.6502272e-12
2.5753932e-12
2.5092599e-12
2.461855e-12
2.4590069e-12
2.459589e-12
2.4669345e-12
2.4669351e-12
2.4595904e-12
2.459009e-12
2.4618574e-12
2.5092629e-12
2.5753966e-12
2.6502314e-12
2.7036285e-12
2.6679088e-12
2.4544575e-12
0
0
2.1805668e-12
2.1120903e-12
2.0126405e-12
1.944433e-12
1.8859812e-12
1.8728887e-12
1.8698631e-12
1.8759867e-12
1.875987e-12
1.8698638e-12
1.8728898e-12
1.8859824e-12
1.9444344e-12
2.0126419e-12
2.112092e-12
2.1805687e-12
0
0
)
;

boundaryField
{
    Wall
    {
        type            zeroGradient;
    }
    frontAndBack
    {
        type            empty;
    }
    atmosphere
    {
        type            zeroGradient;
    }
}


// ************************************************************************* //
