/*--------------------------------*- C++ -*----------------------------------*\
| =========                 |                                                 |
| \\      /  F ield         | OpenFOAM: The Open Source CFD Toolbox           |
|  \\    /   O peration     | Version:  3.0.1                                 |
|   \\  /    A nd           | Web:      www.OpenFOAM.org                      |
|    \\/     M anipulation  |                                                 |
\*---------------------------------------------------------------------------*/
FoamFile
{
    version     2.0;
    format      ascii;
    class       volScalarField;
    location    "49";
    object      thermalConductivity;
}
// * * * * * * * * * * * * * * * * * * * * * * * * * * * * * * * * * * * * * //

dimensions      [0 2 -1 0 0 0 0];

internalField   nonuniform List<scalar> 
800
(
0.015999996
0.015999645
0.015999624
0.015999641
0.015999655
0.015999663
0.015999667
0.015999668
0.015999669
0.015999669
0.015999669
0.015999669
0.015999668
0.015999667
0.015999663
0.015999655
0.015999641
0.015999624
0.015999645
0.015999996
0.016003279
0.016001606
0.016001161
0.016001041
0.016001019
0.016001024
0.016001034
0.016001042
0.016001047
0.01600105
0.01600105
0.016001047
0.016001042
0.016001034
0.016001024
0.016001019
0.016001041
0.016001161
0.016001606
0.016003279
0.016018186
0.016015122
0.016014024
0.016013689
0.016013602
0.016013592
0.016013604
0.016013617
0.016013626
0.016013631
0.016013631
0.016013626
0.016013617
0.016013604
0.016013592
0.016013602
0.01601369
0.016014024
0.016015122
0.016018186
0.016038406
0.016034058
0.016032266
0.016031701
0.016031539
0.016031511
0.016031521
0.016031538
0.01603155
0.016031557
0.016031557
0.01603155
0.016031538
0.016031522
0.016031511
0.016031539
0.016031701
0.016032266
0.016034058
0.016038406
0.016060647
0.01605519
0.01605274
0.016051951
0.016051721
0.016051674
0.016051683
0.016051702
0.016051717
0.016051725
0.016051725
0.016051717
0.016051702
0.016051683
0.016051674
0.016051721
0.016051952
0.01605274
0.01605519
0.016060648
0.016082796
0.016076483
0.016073455
0.016072468
0.016072183
0.016072125
0.016072135
0.016072156
0.016072175
0.016072184
0.016072184
0.016072175
0.016072157
0.016072135
0.016072125
0.016072184
0.016072468
0.016073455
0.016076483
0.016082797
0.016103116
0.016096264
0.016092778
0.01609163
0.016091316
0.016091258
0.016091274
0.016091301
0.016091323
0.016091334
0.016091334
0.016091323
0.016091302
0.016091274
0.016091258
0.016091317
0.01609163
0.016092779
0.016096265
0.016103117
0.016120134
0.016113095
0.016109304
0.016108044
0.016107731
0.016107689
0.016107719
0.016107756
0.016107783
0.016107797
0.016107797
0.016107784
0.016107756
0.01610772
0.01610769
0.016107732
0.016108044
0.016109305
0.016113095
0.016120135
0.016132813
0.016125898
0.016121979
0.01612066
0.016120377
0.016120366
0.016120418
0.016120468
0.016120503
0.01612052
0.01612052
0.016120503
0.016120469
0.016120419
0.016120367
0.016120378
0.016120661
0.01612198
0.016125898
0.016132814
0.016140579
0.016134044
0.016130189
0.01612887
0.016128644
0.01612868
0.016128764
0.016128833
0.016128878
0.016128899
0.016128899
0.016128878
0.016128833
0.016128764
0.016128681
0.016128644
0.01612887
0.01613019
0.016134044
0.01614058
0.016143213
0.016137204
0.016133596
0.016132328
0.01613218
0.016132275
0.016132398
0.01613249
0.016132548
0.016132575
0.016132575
0.016132548
0.01613249
0.016132398
0.016132276
0.01613218
0.016132329
0.016133596
0.016137204
0.016143213
0.016139346
0.016135424
0.016132228
0.016131061
0.016131005
0.016131169
0.01613134
0.016131459
0.016131532
0.016131565
0.016131565
0.016131532
0.016131459
0.01613134
0.01613117
0.016131005
0.016131061
0.016132228
0.016135424
0.016139347
0.01612944
0.016125829
0.016123374
0.016122388
0.016122427
0.016122663
0.016122898
0.016123054
0.016123145
0.016123187
0.016123187
0.016123145
0.016123054
0.016122898
0.016122663
0.016122427
0.016122388
0.016123374
0.016125829
0.016129441
0.016113632
0.016110274
0.01610868
0.016107915
0.016108026
0.01610832
0.016108631
0.016108831
0.016108943
0.016108995
0.016108995
0.016108943
0.016108831
0.016108631
0.01610832
0.016108027
0.016107915
0.01610868
0.016110274
0.016113632
0.016092472
0.016089236
0.016088521
0.016088009
0.016088162
0.016088495
0.016088897
0.016089149
0.016089286
0.01608935
0.01608935
0.016089286
0.016089149
0.016088897
0.016088495
0.016088162
0.016088009
0.016088521
0.016089236
0.016092472
0.016066679
0.016063264
0.016063333
0.016063096
0.016063253
0.016063611
0.016064121
0.016064434
0.016064602
0.016064677
0.016064677
0.016064602
0.016064434
0.016064121
0.016063611
0.016063253
0.016063096
0.016063333
0.016063264
0.016066679
0.016037022
0.01603296
0.016033606
0.01603364
0.016033764
0.016034139
0.016034776
0.016035164
0.016035372
0.016035455
0.016035455
0.016035372
0.016035164
0.016034776
0.016034139
0.016033764
0.01603364
0.016033606
0.01603296
0.016037022
0.016004307
0.015998988
0.015999898
0.016000161
0.01600021
0.016000606
0.0160014
0.016001876
0.016002141
0.016002219
0.016002219
0.016002141
0.016001876
0.0160014
0.016000606
0.01600021
0.016000161
0.015999898
0.015998988
0.016004307
0.015969417
0.015962092
0.015962857
0.015963254
0.015963172
0.015963608
0.015964604
0.015965185
0.01596553
0.015965579
0.015965579
0.01596553
0.015965185
0.015964604
0.015963608
0.015963172
0.015963254
0.015962857
0.015962092
0.015969417
0.015933376
0.015923145
0.015923272
0.015923639
0.015923354
0.015923866
0.015925123
0.015925825
0.015926284
0.015926271
0.015926271
0.015926284
0.015925825
0.015925123
0.015923866
0.015923354
0.015923639
0.015923272
0.015923145
0.015933376
0.015897365
0.015883175
0.015882097
0.015882202
0.015881623
0.015882262
0.015883845
0.015884685
0.0158853
0.015885184
0.015885184
0.0158853
0.015884686
0.015883845
0.015882262
0.015881623
0.015882202
0.015882097
0.015883175
0.015897365
0.015867995
0.015834214
0.015829179
0.015828399
0.01582672
0.015828137
0.015831523
0.015833234
0.015834644
0.015834193
0.015834193
0.015834644
0.015833234
0.015831523
0.015828137
0.01582672
0.015828399
0.015829179
0.015834213
0.015867995
0.015812
0.015768794
0.015759805
0.015757583
0.015755149
0.015756882
0.015760797
0.01576269
0.015764424
0.015763694
0.015763694
0.015764424
0.01576269
0.015760797
0.015756882
0.015755149
0.015757583
0.015759805
0.015768794
0.015812
0.015764435
0.015710135
0.015696317
0.015692203
0.015688883
0.015690957
0.01569538
0.015697446
0.015699496
0.015698474
0.015698474
0.015699496
0.015697446
0.015695381
0.015690957
0.015688883
0.015692203
0.015696317
0.015710135
0.015764436
0.015726821
0.015659473
0.015639869
0.015633429
0.015629057
0.015631467
0.015636366
0.015638597
0.015640908
0.015639604
0.015639604
0.015640908
0.015638597
0.015636366
0.015631468
0.015629057
0.015633429
0.01563987
0.015659473
0.015726822
0.015700936
0.015617987
0.015591476
0.015582244
0.015576611
0.015579318
0.015584655
0.015587045
0.015589525
0.015587967
0.015587967
0.015589525
0.015587046
0.015584656
0.015579318
0.015576612
0.015582244
0.015591477
0.015617987
0.015700936
0.01568914
0.015586968
0.015552117
0.015539509
0.015532359
0.015535274
0.015541015
0.015543567
0.015546103
0.01554433
0.015544331
0.015546103
0.015543567
0.015541016
0.015535274
0.01553236
0.015539509
0.015552117
0.015586968
0.01568914
0.01569501
0.015568072
0.015522872
0.015506038
0.015497049
0.015500023
0.015506126
0.015508854
0.015511335
0.015509391
0.015509391
0.015511335
0.015508854
0.015506127
0.015500023
0.015497049
0.015506039
0.015522872
0.015568072
0.015695009
0.015724431
0.015563936
0.0155053
0.015482951
0.015471668
0.015474462
0.015480876
0.01548381
0.015486146
0.015484069
0.015484069
0.015486146
0.01548381
0.015480877
0.015474463
0.015471669
0.015482951
0.0155053
0.015563935
0.01572443
0.015787619
0.01557915
0.015501994
0.015472107
0.015457796
0.015460056
0.015466723
0.015469922
0.015472057
0.015469876
0.015469877
0.015472057
0.015469922
0.015466724
0.015460056
0.015457796
0.015472107
0.015501993
0.015579149
0.015787617
0.015882161
0.015622063
0.015517658
0.015476933
0.015458261
0.015459449
0.015466355
0.015469924
0.015471848
0.015469579
0.015469579
0.015471848
0.015469925
0.015466356
0.015459449
0.015458262
0.015476933
0.015517657
0.015622061
0.015882158
0.015987363
0.015708303
0.015561059
0.015503819
0.015478369
0.015477581
0.015484774
0.01548896
0.015490714
0.015488355
0.015488355
0.015490714
0.01548896
0.015484774
0.015477581
0.015478369
0.015503818
0.015561057
0.015708298
0.015987357
0.016148997
0.015867922
0.015649012
0.01556496
0.015528352
0.015523918
0.015531426
0.015536783
0.01553847
0.01553601
0.01553601
0.01553847
0.015536784
0.015531426
0.015523918
0.015528351
0.015564958
0.015649008
0.015867912
0.016148988
0.016394954
0.01601456
0.015815111
0.015684577
0.015628526
0.015617208
0.015624991
0.015632344
0.015634155
0.015631586
0.015631586
0.015634155
0.015632344
0.015624991
0.015617207
0.015628524
0.015684574
0.015815104
0.01601455
0.016394938
0.016769585
0.016250711
0.015999211
0.015887526
0.015820647
0.015796234
0.015803613
0.015813736
0.015816028
0.015813394
0.015813394
0.015816028
0.015813735
0.015803612
0.015796232
0.015820644
0.015887523
0.015999204
0.016250695
0.016769557
0.017344876
0.016615883
0.016261944
0.016104765
0.016030217
0.016006146
0.016008104
0.016014381
0.016016037
0.016014846
0.016014846
0.016016037
0.016014381
0.016008102
0.016006144
0.016030214
0.016104759
0.016261933
0.016615859
0.017344831
0.018234501
0.017181815
0.016674301
0.016448064
0.016338782
0.016299022
0.016296099
0.016301843
0.016304079
0.01630346
0.01630346
0.016304078
0.016301841
0.016296097
0.016299019
0.016338777
0.016448055
0.016674285
0.017181779
0.018234429
0.019640973
0.018071811
0.017327085
0.016991689
0.016826959
0.016760696
0.016749031
0.016751511
0.016754626
0.016754898
0.016754898
0.016754625
0.016751508
0.016749028
0.016760691
0.016826952
0.016991677
0.017327061
0.018071757
0.019640857
0.021987906
0.019507394
0.018375419
0.017861253
0.017604992
0.017494332
0.017467791
0.017458511
0.01746292
0.017464657
0.017464656
0.017462918
0.017458508
0.017467787
0.017494326
0.017604982
0.017861235
0.018375384
0.019507308
0.021987695
0.024
0.024
0.02022768
0.019445708
0.019072617
0.018879148
0.018834634
0.018811477
0.018820998
0.01882666
0.018826659
0.018820996
0.018811474
0.018834629
0.018879142
0.019072606
0.019445686
0.020227634
0.024
0.024
)
;

boundaryField
{
    Wall
    {
        type            calculated;
        value           uniform 0.024;
    }
    frontAndBack
    {
        type            empty;
    }
    atmosphere
    {
        type            calculated;
        value           uniform 0.024;
    }
}


// ************************************************************************* //
