/*--------------------------------*- C++ -*----------------------------------*\
| =========                 |                                                 |
| \\      /  F ield         | OpenFOAM: The Open Source CFD Toolbox           |
|  \\    /   O peration     | Version:  3.0.1                                 |
|   \\  /    A nd           | Web:      www.OpenFOAM.org                      |
|    \\/     M anipulation  |                                                 |
\*---------------------------------------------------------------------------*/
FoamFile
{
    version     2.0;
    format      ascii;
    class       volScalarField;
    location    "12";
    object      alpha.gas;
}
// * * * * * * * * * * * * * * * * * * * * * * * * * * * * * * * * * * * * * //

dimensions      [0 0 0 0 0 0 0];

internalField   nonuniform List<scalar> 
800
(
1.6072344e-28
2.3412201e-25
4.5044447e-22
8.7396462e-22
6.4516509e-25
1.0817474e-21
9.3701664e-22
5.3840781e-23
1.7294999e-26
1.8626012e-30
3.0694704e-23
2.9960114e-23
3.1644889e-26
6.9555858e-23
6.8849246e-23
1.0213546e-27
3.0058646e-32
4.2566668e-36
8.4071271e-40
1.5627163e-43
6.9388527e-12
1.5693945e-12
1.16178e-10
4.0982169e-11
1.4718137e-12
5.4845183e-11
4.2945325e-11
5.1763324e-11
1.0527433e-10
2.6425054e-10
1.3269884e-10
1.3223164e-10
7.1551532e-11
4.2373557e-11
4.0146658e-11
7.8344596e-12
5.9324718e-17
4.1224325e-14
2.234124e-11
2.99882e-14
0.0027130195
0.0026112346
0.0026089023
0.0026125402
0.0026157503
0.0026184084
0.0026205059
0.0026220701
0.0026230996
0.002623609
0.0026236085
0.0026230984
0.0026220681
0.0026205031
0.0026184048
0.0026157463
0.0026125353
0.0026088975
0.0026112295
0.0027130142
0.048015429
0.043727546
0.043383951
0.043434618
0.043546234
0.043651371
0.043735986
0.043798687
0.04383905
0.043858988
0.043858975
0.043839012
0.043798623
0.043735899
0.043651261
0.043546112
0.043434478
0.043383812
0.043727396
0.048015229
0.51900977
0.49498536
0.49244902
0.492589
0.49323067
0.49389954
0.49440933
0.49481195
0.49506143
0.49518761
0.49518753
0.49506122
0.49481159
0.49440885
0.49389894
0.49322999
0.49258822
0.49244819
0.49498452
0.51900873
0.94523998
0.93762454
0.93659926
0.93662399
0.93683011
0.93705804
0.93722334
0.93735185
0.9374313
0.93747392
0.93747389
0.93743125
0.93735176
0.93722319
0.93705787
0.93682991
0.93662374
0.93659901
0.9376243
0.9452397
0.99899837
0.99860874
0.99851635
0.99851187
0.99852259
0.99853573
0.99854591
0.9985522
0.99855651
0.99855906
0.99855906
0.9985565
0.9985522
0.9985459
0.99853572
0.99852258
0.99851185
0.99851634
0.99860873
0.99899836
0.9999984
0.99999613
0.9999952
0.99999506
0.99999513
0.99999523
0.99999532
0.99999537
0.9999954
0.99999543
0.99999543
0.9999954
0.99999537
0.99999532
0.99999523
0.99999513
0.99999506
0.9999952
0.99999613
0.9999984
1
1
1
1
1
1
1
1
1
1
1
1
1
1
1
1
1
1
1
1
1
1
1
1
1
1
1
1
1
1
1
1
1
1
1
1
1
1
1
1
1
1
1
1
1
1
1
1
1
1
1
1
1
1
1
1
1
1
1
1
1
1
1
1
1
1
1
1
1
1
1
1
1
1
1
1
1
1
1
1
1
1
1
1
1
1
1
1
1
1
1
1
1
1
1
1
1
1
1
1
1
1
1
1
1
1
1
1
1
1
1
1
1
1
1
1
1
1
1
1
1
1
1
1
1
1
1
1
1
1
1
1
1
1
1
1
1
1
1
1
1
1
1
1
1
1
1
1
1
1
1
1
1
1
1
1
1
1
1
1
1
1
1
1
1
1
1
1
1
1
1
1
1
1
1
1
1
1
1
1
1
1
1
1
1
1
1
1
1
1
1
1
1
1
1
1
1
1
1
1
1
1
1
1
1
1
1
1
1
1
1
1
1
1
1
1
1
1
1
1
1
1
1
1
1
1
1
1
1
1
1
1
1
1
1
1
1
1
1
1
1
1
1
1
1
1
1
1
1
1
1
1
1
1
1
1
1
1
1
1
1
1
1
1
1
1
1
1
1
1
1
1
1
1
1
1
1
1
1
1
1
1
1
1
1
1
1
1
1
1
1
1
1
1
1
1
1
1
1
1
1
1
1
1
1
1
1
1
1
1
1
1
1
1
1
1
1
1
1
1
1
1
1
1
1
1
1
1
1
1
1
1
1
1
1
1
1
1
1
1
1
1
1
1
1
1
1
1
1
1
1
1
1
1
1
1
1
1
1
1
1
1
1
1
1
1
1
1
1
1
1
1
1
1
1
1
1
1
1
1
1
1
1
1
1
1
1
1
1
1
1
1
1
1
1
1
1
1
1
1
1
1
1
1
1
1
1
1
1
1
1
1
1
1
1
1
1
1
1
1
1
1
1
1
1
1
1
1
1
1
1
1
1
1
1
1
1
1
1
1
1
1
1
1
1
1
1
1
1
1
1
1
1
1
1
1
1
1
1
1
1
1
1
1
1
1
1
1
1
1
1
1
1
1
1
1
1
1
1
1
1
1
1
1
1
1
1
1
1
1
1
1
1
1
1
1
1
1
1
1
1
1
1
1
1
1
1
1
1
1
1
1
1
1
1
1
1
1
1
1
1
1
1
1
1
1
1
1
1
1
1
1
1
1
1
1
1
1
1
1
1
1
1
1
1
1
1
1
1
1
1
1
1
1
1
1
1
1
1
1
1
1
1
1
1
1
1
1
1
1
1
1
1
1
1
1
1
1
1
1
1
1
1
1
1
1
1
1
1
1
1
1
1
1
1
1
1
1
1
1
1
1
1
1
1
1
1
1
1
1
1
1
1
1
1
1
1
1
1
1
1
1
1
1
1
1
1
1
1
1
1
1
1
1
1
1
1
1
1
1
)
;

boundaryField
{
    Wall
    {
        type            zeroGradient;
    }
    frontAndBack
    {
        type            empty;
    }
    atmosphere
    {
        type            zeroGradient;
    }
}


// ************************************************************************* //
