/*--------------------------------*- C++ -*----------------------------------*\
| =========                 |                                                 |
| \\      /  F ield         | OpenFOAM: The Open Source CFD Toolbox           |
|  \\    /   O peration     | Version:  3.0.1                                 |
|   \\  /    A nd           | Web:      www.OpenFOAM.org                      |
|    \\/     M anipulation  |                                                 |
\*---------------------------------------------------------------------------*/
FoamFile
{
    version     2.0;
    format      ascii;
    class       volScalarField;
    location    "12";
    object      M2;
}
// * * * * * * * * * * * * * * * * * * * * * * * * * * * * * * * * * * * * * //

dimensions      [0 0 0 0 0 0 0];

internalField   nonuniform List<scalar> 
800
(
1.8397506e-13
1.8396401e-13
1.8395925e-13
1.839568e-13
1.8395498e-13
1.8395354e-13
1.8395244e-13
1.8395164e-13
1.8395113e-13
1.8395087e-13
1.8395088e-13
1.8395113e-13
1.8395164e-13
1.8395244e-13
1.8395354e-13
1.8395498e-13
1.839568e-13
1.8395925e-13
1.8396401e-13
1.8397506e-13
1.3716424e-13
1.3794784e-13
1.3802793e-13
1.3806066e-13
1.3808827e-13
1.3811004e-13
1.3812654e-13
1.3813826e-13
1.381457e-13
1.3814932e-13
1.3814932e-13
1.381457e-13
1.3813826e-13
1.3812654e-13
1.3811004e-13
1.3808828e-13
1.3806066e-13
1.3802794e-13
1.3794784e-13
1.3716424e-13
9.9975103e-14
1.0064302e-13
1.0073547e-13
1.007797e-13
1.0081179e-13
1.0083582e-13
1.0085324e-13
1.0086527e-13
1.008728e-13
1.0087644e-13
1.0087644e-13
1.008728e-13
1.0086526e-13
1.0085324e-13
1.0083581e-13
1.0081178e-13
1.007797e-13
1.0073547e-13
1.0064302e-13
9.9975093e-14
6.7896407e-14
6.8646182e-14
6.8725224e-14
6.8763522e-14
6.8788851e-14
6.8806561e-14
6.881855e-14
6.8826374e-14
6.8831139e-14
6.8833398e-14
6.8833397e-14
6.8831137e-14
6.882637e-14
6.8818546e-14
6.8806557e-14
6.8788847e-14
6.8763518e-14
6.8725221e-14
6.8646178e-14
6.7896399e-14
3.1704787e-14
3.2499947e-14
3.2550663e-14
3.2576184e-14
3.2589571e-14
3.2597318e-14
3.2601459e-14
3.2603605e-14
3.2604803e-14
3.260531e-14
3.260531e-14
3.2604802e-14
3.2603604e-14
3.2601458e-14
3.2597318e-14
3.2589572e-14
3.2576185e-14
3.2550664e-14
3.2499949e-14
3.1704787e-14
1.1742952e-14
1.2149787e-14
1.2195993e-14
1.2207732e-14
1.2207738e-14
1.2203489e-14
1.2200355e-14
1.219632e-14
1.2194151e-14
1.2192909e-14
1.219291e-14
1.2194152e-14
1.2196323e-14
1.2200359e-14
1.2203494e-14
1.2207744e-14
1.2207738e-14
1.2196003e-14
1.2149796e-14
1.1742961e-14
3.2737725e-15
3.650156e-15
3.7247096e-15
3.7345135e-15
3.7301656e-15
3.7218152e-15
3.7160769e-15
3.712344e-15
3.7098435e-15
3.7080466e-15
3.7080474e-15
3.7098433e-15
3.7123437e-15
3.7160802e-15
3.7218174e-15
3.7301702e-15
3.7345239e-15
3.7247169e-15
3.6501625e-15
3.2737814e-15
6.1096352e-16
9.1363629e-16
9.9962489e-16
1.0192365e-15
1.0172658e-15
1.0110862e-15
1.0033164e-15
1.0005049e-15
9.9779312e-16
9.9602949e-16
9.9602826e-16
9.9779325e-16
1.0005022e-15
1.0033158e-15
1.0110876e-15
1.0172666e-15
1.0192428e-15
9.996256e-16
9.1363954e-16
6.1096802e-16
7.3978746e-17
1.9059215e-16
2.4378379e-16
2.6162173e-16
2.6351549e-16
2.6115175e-16
2.5731047e-16
2.5544287e-16
2.5378206e-16
2.5293383e-16
2.5293315e-16
2.5378206e-16
2.5544097e-16
2.5730966e-16
2.6115216e-16
2.635149e-16
2.6162313e-16
2.4378399e-16
1.9059235e-16
7.3980016e-17
6.2185715e-18
3.3873444e-17
5.4898993e-17
6.4137213e-17
6.6227153e-17
6.5721435e-17
6.4478992e-17
6.3673788e-17
6.3036346e-17
6.2719384e-17
6.2719181e-17
6.3036182e-17
6.3673138e-17
6.4478576e-17
6.5721435e-17
6.6226663e-17
6.4137339e-17
5.4898968e-17
3.3873373e-17
6.2187329e-18
3.9531403e-19
5.3254424e-18
1.1614967e-17
1.5126975e-17
1.6215817e-17
1.6201716e-17
1.5893674e-17
1.5632099e-17
1.5438111e-17
1.5343696e-17
1.5343658e-17
1.5438005e-17
1.5631915e-17
1.5893509e-17
1.6201684e-17
1.6215602e-17
1.5126888e-17
1.1614959e-17
5.3253994e-18
3.9532775e-19
2.0558134e-20
7.7203504e-19
2.3467473e-18
3.4503325e-18
3.8649458e-18
3.9061816e-18
3.8443752e-18
3.7739267e-18
3.7227603e-18
3.6986174e-18
3.6986076e-18
3.7227216e-18
3.7738763e-18
3.8443181e-18
3.9061515e-18
3.8648796e-18
3.4502878e-18
2.3467381e-18
7.7202588e-19
2.0558939e-20
9.3701893e-22
1.0713956e-19
4.5853546e-19
7.6294951e-19
8.9450092e-19
9.1756421e-19
9.0762213e-19
8.9112299e-19
8.7893001e-19
8.7324703e-19
8.7324401e-19
8.789184e-19
8.9110903e-19
9.0760456e-19
9.1754869e-19
8.9448471e-19
7.6293426e-19
4.5853117e-19
1.0713796e-19
9.3705542e-22
3.9967738e-23
1.4619772e-20
8.7265162e-20
1.6364439e-19
2.0051261e-19
2.0911792e-19
2.0805899e-19
2.0461338e-19
2.0192895e-19
2.0066702e-19
2.0066609e-19
2.0192584e-19
2.0460947e-19
2.0805391e-19
2.091123e-19
2.0050869e-19
1.6364017e-19
8.7263751e-20
1.4619502e-20
3.9968981e-23
1.7066599e-24
1.9888744e-21
1.6217189e-20
3.4021959e-20
4.3448988e-20
4.6083173e-20
4.6127028e-20
4.5478371e-20
4.4928193e-20
4.4661596e-20
4.4661335e-20
4.4927409e-20
4.5477305e-20
4.6125637e-20
4.6081507e-20
4.3447979e-20
3.4020903e-20
1.6216814e-20
1.9888269e-21
1.7066843e-24
7.7619005e-26
2.7049717e-22
2.9420448e-21
6.8492664e-21
9.0905911e-21
9.7985209e-21
9.8666978e-21
9.7567065e-21
9.6514435e-21
9.5980516e-21
9.5979852e-21
9.6512519e-21
9.7564289e-21
9.8663393e-21
9.7980876e-21
9.0903187e-21
6.8490168e-21
2.9419565e-21
2.7048881e-22
7.7618162e-26
3.8943782e-27
3.6648191e-23
5.2029722e-22
1.3343327e-21
1.8356567e-21
2.0083865e-21
2.0341302e-21
2.0176007e-21
1.9987702e-21
1.9886846e-21
1.9886688e-21
1.9987251e-21
2.0175325e-21
2.034043e-21
2.0082834e-21
1.8355867e-21
1.3342751e-21
5.2027793e-22
3.6646771e-23
3.8942295e-27
2.1463772e-28
4.918331e-24
8.9567499e-23
2.5148733e-22
3.5780529e-22
3.9682972e-22
4.0415276e-22
4.0205878e-22
3.9890626e-22
3.9711225e-22
3.9710866e-22
3.9889606e-22
4.0204304e-22
4.0413279e-22
3.968069e-22
3.5778729e-22
2.5147539e-22
8.9563452e-23
4.9180999e-24
2.1462455e-28
1.2622868e-29
6.5036668e-25
1.499246e-23
4.586247e-23
6.7360157e-23
7.5632682e-23
7.743178e-23
7.7244682e-23
7.6750884e-23
7.6449934e-23
7.6449165e-23
7.6748689e-23
7.7241252e-23
7.7427446e-23
7.5627854e-23
6.7355943e-23
4.5860049e-23
1.4991657e-23
6.5033085e-25
1.262188e-29
7.6801554e-31
8.439572e-26
2.4384978e-24
8.0965355e-24
1.2256867e-23
1.3918237e-23
1.4318739e-23
1.4320419e-23
1.4248242e-23
1.4200482e-23
1.4200325e-23
1.4247791e-23
1.4319712e-23
1.4317846e-23
1.3917259e-23
1.2255965e-23
8.0960385e-24
2.4383517e-24
8.4390259e-26
7.6794583e-31
4.7271293e-32
1.0716499e-26
3.8529166e-25
1.3845624e-24
2.1575414e-24
2.4757829e-24
2.5584764e-24
2.5646254e-24
2.5548488e-24
2.5476537e-24
2.5476232e-24
2.5547606e-24
2.5644867e-24
2.5583011e-24
2.4755922e-24
2.1573627e-24
1.384465e-24
3.8526584e-25
1.0715705e-26
4.7266529e-32
2.9020401e-33
1.3290557e-27
5.9140131e-26
2.2951294e-25
3.6774696e-25
4.2617751e-25
4.4223349e-25
4.4420018e-25
4.4299219e-25
4.4195997e-25
4.4195429e-25
4.4297568e-25
4.441742e-25
4.4220063e-25
4.2614179e-25
3.6771358e-25
2.2949455e-25
5.9135732e-26
1.3289456e-27
2.9017227e-33
1.7619344e-34
1.6080288e-28
8.8206211e-27
3.6906856e-26
6.0752473e-26
7.1072241e-26
7.4030789e-26
7.4494721e-26
7.43635e-26
7.4222181e-26
7.4221157e-26
7.4360536e-26
7.4490066e-26
7.4024884e-26
7.10658e-26
6.0746525e-26
3.6903537e-26
8.8198896e-27
1.6078814e-28
1.7617247e-34
1.0525217e-35
1.8968475e-29
1.2787892e-27
5.7615438e-27
9.7367575e-27
1.149474e-26
1.201548e-26
1.2110242e-26
1.2098988e-26
1.2080505e-26
1.2080329e-26
1.2098477e-26
1.2109438e-26
1.2014459e-26
1.1493621e-26
9.7357367e-27
5.7609708e-27
1.2786707e-27
1.8966551e-29
1.0523848e-35
6.1669732e-37
2.1809199e-30
1.8029323e-28
8.7383439e-28
1.5153022e-27
1.8047652e-27
1.8927409e-27
1.910406e-27
1.9100049e-27
1.9076969e-27
1.9076675e-27
1.9099197e-27
1.9102717e-27
1.8925698e-27
1.8045771e-27
1.5151323e-27
8.7373911e-28
1.8027456e-28
2.1806743e-30
6.1661013e-37
3.5374319e-38
2.4440012e-31
2.4732303e-29
1.2885547e-28
2.2919372e-28
2.7534276e-28
2.8966126e-28
2.9274101e-28
2.9286145e-28
2.9258698e-28
2.9258225e-28
2.9284768e-28
2.9271926e-28
2.8963345e-28
2.7531208e-28
2.291662e-28
1.2884011e-28
2.4729446e-29
2.4436945e-31
3.5368926e-38
1.9842558e-39
2.6697947e-32
3.302913e-30
1.8487677e-29
3.3720439e-29
4.0855049e-29
4.3106539e-29
4.3615585e-29
4.3656973e-29
4.362608e-29
4.3625339e-29
4.3654809e-29
4.3612157e-29
4.3102139e-29
4.0850176e-29
3.3716082e-29
1.8485266e-29
3.3024871e-30
2.6694215e-32
1.9839311e-39
1.0878336e-40
2.8437061e-33
4.2966784e-31
2.5827723e-30
4.8297455e-30
5.9007316e-30
6.2435579e-30
6.3240093e-30
6.3329653e-30
6.3297122e-30
6.3295986e-30
6.3326334e-30
6.3234818e-30
6.242878e-30
5.8999757e-30
4.829071e-30
2.5824029e-30
4.2960599e-31
2.8432624e-33
1.0876187e-40
6.0165663e-42
2.9544611e-34
5.4479861e-32
3.5158276e-31
6.7396161e-31
8.3024431e-31
8.8088775e-31
8.9311526e-31
8.9474561e-31
8.9443286e-31
8.9441578e-31
8.9469586e-31
8.9303592e-31
8.8078513e-31
8.3012984e-31
6.7385945e-31
3.5152747e-31
5.44711e-32
2.9539471e-34
5.8262164e-42
4.125876e-43
2.9953321e-35
6.7371382e-33
4.6667408e-32
9.1696375e-32
1.1388915e-31
1.211585e-31
1.2295304e-31
1.2322199e-31
1.2319612e-31
1.2319362e-31
1.2321469e-31
1.2294138e-31
1.2114336e-31
1.1387222e-31
9.1681258e-32
4.6659324e-32
6.7359288e-33
2.9947484e-35
3.0498818e-43
4.2234905e-44
2.9647767e-36
8.1305797e-34
6.0442712e-33
1.2172762e-32
1.5242537e-32
1.6257783e-32
1.6512885e-32
1.6554352e-32
1.6552852e-32
1.6552494e-32
1.6553305e-32
1.6511211e-32
1.6255605e-32
1.5240093e-32
1.2170578e-32
6.0431183e-33
8.1289528e-34
2.9641241e-36
1.5605172e-44
5.1439486e-45
2.8664217e-37
9.5817067e-35
7.643805e-34
1.5777857e-33
1.9917701e-33
2.1298905e-33
2.1650978e-33
2.1711697e-33
2.171197e-33
2.1711469e-33
2.1710233e-33
2.1648634e-33
2.1295847e-33
1.9914261e-33
1.5774782e-33
7.6422042e-34
9.5795761e-35
2.8657008e-37
7.8072208e-46
5.93511e-46
2.7084322e-38
1.1033281e-35
9.4448085e-35
1.9981096e-34
2.5428687e-34
2.726101e-34
2.7733656e-34
2.7818893e-34
2.7821752e-34
2.7821071e-34
2.7816897e-34
2.7730457e-34
2.7256828e-34
2.5423967e-34
1.9976883e-34
9.4426453e-35
1.1030566e-35
2.7076438e-38
3.8207872e-47
6.1422328e-47
2.5024068e-39
1.2421295e-36
1.1409535e-35
2.4739023e-35
3.1739119e-35
3.4111626e-35
3.4729766e-35
3.4845184e-35
3.4851548e-35
3.4850645e-35
3.4842536e-35
3.4725519e-35
3.4106058e-35
3.1732821e-35
2.4733404e-35
1.1406694e-35
1.2417935e-36
2.5015548e-39
1.8299692e-48
5.6960949e-48
2.2619986e-40
1.3679908e-37
1.3483357e-36
2.9964453e-36
3.8754661e-36
4.1755478e-36
4.2544048e-36
4.2695432e-36
4.2706296e-36
4.2705131e-36
4.2692011e-36
4.2538557e-36
4.1748265e-36
3.8746487e-36
2.9957169e-36
1.3479731e-36
1.367587e-37
2.2610939e-40
8.5819639e-50
4.7224448e-49
2.0014817e-41
1.4746889e-38
1.5596895e-37
3.5526218e-37
4.632036e-37
5.0030872e-37
5.1013239e-37
5.120614e-37
5.1222527e-37
5.1221067e-37
5.1201847e-37
5.1006335e-37
5.0021781e-37
4.6310042e-37
3.5517048e-37
1.5592403e-37
1.4742176e-38
2.0005431e-41
3.9427971e-51
3.4345457e-50
1.7344509e-42
1.5568898e-39
1.7669894e-38
4.1253305e-38
5.4223688e-38
5.8712179e-38
5.9908377e-38
6.0147726e-38
6.0170617e-38
6.0168835e-38
6.0142483e-38
5.9899936e-38
5.8701027e-38
5.4211021e-38
4.1242087e-38
1.7664485e-38
1.5563558e-39
1.7335063e-42
1.7755009e-52
2.1601689e-51
1.4728022e-43
1.6105981e-40
1.9616519e-39
4.6943396e-39
6.2203601e-39
6.7518902e-39
6.8943836e-39
6.9233506e-39
6.9263774e-39
6.9261656e-39
6.9227278e-39
6.8933782e-39
6.750559e-39
6.218847e-39
4.6930039e-39
1.9610192e-39
1.6100104e-40
1.4718848e-43
7.840757e-54
1.3160198e-52
1.2260652e-44
1.6334738e-41
2.1351587e-40
5.2375229e-40
6.996521e-40
7.6130954e-40
7.7792723e-40
7.8135149e-40
7.8173465e-40
7.8171011e-40
7.8127937e-40
7.7781062e-40
7.611547e-40
6.9947604e-40
5.2359743e-40
2.1344388e-40
1.6328453e-41
1.2252104e-44
2.188251e-54
7.9810451e-54
1.0011036e-45
1.6249861e-42
2.2797032e-41
5.7323655e-41
7.7198782e-41
8.4208909e-41
8.6107472e-41
8.6503289e-41
8.6550053e-41
8.6547293e-41
8.6495144e-41
8.6094288e-41
8.4191349e-41
7.7178806e-41
5.7306163e-41
2.2789053e-41
1.6243323e-42
1.0003409e-45
3.0121083e-55
)
;

boundaryField
{
    Wall
    {
        type            zeroGradient;
    }
    frontAndBack
    {
        type            empty;
    }
    atmosphere
    {
        type            zeroGradient;
    }
}


// ************************************************************************* //
