/*--------------------------------*- C++ -*----------------------------------*\
| =========                 |                                                 |
| \\      /  F ield         | OpenFOAM: The Open Source CFD Toolbox           |
|  \\    /   O peration     | Version:  3.0.1                                 |
|   \\  /    A nd           | Web:      www.OpenFOAM.org                      |
|    \\/     M anipulation  |                                                 |
\*---------------------------------------------------------------------------*/
FoamFile
{
    version     2.0;
    format      ascii;
    class       volScalarField;
    location    "12";
    object      mOne;
}
// * * * * * * * * * * * * * * * * * * * * * * * * * * * * * * * * * * * * * //

dimensions      [0 0 0 0 0 0 0];

internalField   nonuniform List<scalar> 
800
(
2.5639249
2.563805
2.5637533
2.5637266
2.5637069
2.5636911
2.5636792
2.5636706
2.563665
2.5636622
2.5636622
2.563665
2.5636705
2.5636792
2.5636912
2.5637069
2.5637266
2.5637533
2.563805
2.5639249
1.9929303
2.0026456
2.0036517
2.0040829
2.0044374
2.004714
2.0049226
2.0050704
2.0051642
2.0052097
2.0052098
2.0051642
2.0050704
2.0049226
2.004714
2.0044374
2.004083
2.0036517
2.0026456
1.9929303
1.4016776
1.4096879
1.4107725
1.411256
1.411587
1.4118289
1.4120007
1.4121174
1.4121898
1.4122246
1.4122246
1.4121898
1.4121173
1.4120006
1.4118289
1.4115869
1.4112559
1.4107724
1.4096878
1.4016775
0.868784
0.87797576
0.87869362
0.87896976
0.87912737
0.87922447
0.87928122
0.87931282
0.87933009
0.87933773
0.87933773
0.87933009
0.87931283
0.87928123
0.8792245
0.8791274
0.8789698
0.87869367
0.87797582
0.86878402
0.37770001
0.38667292
0.38709206
0.38721324
0.38722205
0.38719758
0.38716091
0.38712632
0.38710259
0.38709018
0.38709019
0.38710261
0.38712637
0.38716097
0.38719767
0.38722216
0.38721335
0.38709218
0.38667305
0.37770013
0.14062276
0.14672077
0.14752961
0.14764183
0.14756948
0.14745006
0.14736289
0.14727802
0.14722899
0.14720295
0.14720296
0.14722902
0.14727808
0.14736297
0.14745017
0.14756959
0.14764196
0.14752978
0.14672093
0.14062295
0.04196933
0.048152406
0.049701575
0.049989145
0.049958472
0.049840833
0.049751418
0.049694448
0.04965554
0.04962903
0.049629042
0.04965554
0.049694447
0.049751467
0.049840862
0.049958538
0.049989291
0.049701678
0.048152501
0.04196948
0.0086224134
0.013677495
0.01536318
0.015824646
0.015850233
0.01577555
0.01566226
0.01562211
0.01558177
0.015555473
0.015555454
0.015581772
0.015622068
0.015662245
0.015775566
0.015850236
0.01582473
0.015363178
0.013677541
0.0086224871
0.0011560953
0.0033011634
0.0043938984
0.0047916854
0.0048590483
0.0048315232
0.0047713253
0.0047412059
0.0047137859
0.0047000315
0.0047000196
0.0047137848
0.0047411712
0.0047713078
0.0048315254
0.004859031
0.0047916995
0.0043938951
0.0033011606
0.0011561166
0.00010752873
0.00068942301
0.0011721632
0.0013926944
0.001449671
0.0014453374
0.0014238143
0.0014086968
0.001396775
0.001390902
0.0013908979
0.0013967704
0.001408683
0.001423804
0.0014453345
0.0014496577
0.001392692
0.0011721595
0.00068941921
0.00010753155
7.6289265e-06
0.00012974784
0.0002959124
0.00038966284
0.00042030739
0.00042200394
0.0004160718
0.00041037659
0.00040621191
0.00040419426
0.00040419336
0.00040620879
0.0004103719
0.00041606705
0.00042200192
0.00042030101
0.00038965882
0.00029591106
0.00012974612
7.6291664e-06
4.5560492e-07
2.2979502e-05
7.1630954e-05
0.00010521311
0.00011801138
0.00011974582
0.00011843931
0.00011667117
0.00011539558
0.00011479908
0.00011479877
0.0001153943
0.00011666961
0.00011843739
0.00011974447
0.00011800913
0.00010521125
7.1630267e-05
2.2979082e-05
4.5561772e-07
2.5261568e-08
3.9574541e-06
1.6762755e-05
2.7412411e-05
3.1963787e-05
3.2858114e-05
3.2638499e-05
3.2163714e-05
3.1809703e-05
3.1645684e-05
3.1645565e-05
3.180927e-05
3.2163183e-05
3.2637811e-05
3.2857421e-05
3.1963139e-05
2.7411741e-05
1.6762475e-05
3.9573633e-06
2.5261942e-08
1.4294449e-09
6.734169e-07
3.8017178e-06
6.8812717e-06
8.324321e-06
8.6789425e-06
8.6614521e-06
8.5483638e-06
8.4579702e-06
8.4152989e-06
8.4152563e-06
8.4578364e-06
8.5481876e-06
8.6612216e-06
8.678673e-06
8.324132e-06
6.8810636e-06
3.8016249e-06
6.7339745e-07
1.4294309e-09
8.8297344e-11
1.1343795e-07
8.3472397e-07
1.6609779e-06
2.0797611e-06
2.1992082e-06
2.2054211e-06
2.181296e-06
2.1599784e-06
2.1494895e-06
2.1494759e-06
2.1599391e-06
2.1812402e-06
2.2053487e-06
2.1991202e-06
2.0797029e-06
1.6609184e-06
8.3469752e-07
1.1343381e-07
8.8293868e-11
6.0208454e-12
1.8812288e-08
1.7702356e-07
3.8491141e-07
4.9786039e-07
5.3358321e-07
5.3770033e-07
5.3310792e-07
5.2845481e-07
5.2603987e-07
5.2603598e-07
5.2844373e-07
5.3309141e-07
5.3767913e-07
5.3355771e-07
4.9784239e-07
3.8489532e-07
1.7701672e-07
1.8811448e-08
6.0204512e-12
4.3833437e-13
3.0499026e-09
3.6186345e-08
8.5570601e-08
1.1414493e-07
1.238763e-07
1.254329e-07
1.2467025e-07
1.2372809e-07
1.232098e-07
1.2320876e-07
1.2372512e-07
1.2466569e-07
1.2542709e-07
1.238695e-07
1.1413978e-07
8.5566385e-08
3.6184691e-08
3.0497417e-09
4.3829748e-13
3.2725907e-14
4.8065089e-10
7.1207477e-09
1.8248251e-08
2.5071816e-08
2.752553e-08
2.8001933e-08
2.7898832e-08
2.7721579e-08
2.761782e-08
2.7617554e-08
2.7720823e-08
2.7897657e-08
2.8000446e-08
2.7523846e-08
2.5070369e-08
1.8247266e-08
7.1203634e-09
4.8062162e-10
3.2722737e-14
2.4371963e-15
7.3360439e-11
1.3481977e-09
3.7345725e-09
5.2799886e-09
5.859089e-09
5.9871981e-09
5.978712e-09
5.9477239e-09
5.9282733e-09
5.9282101e-09
5.9475427e-09
5.9784284e-09
5.9868402e-09
5.8586917e-09
5.2796196e-09
3.7343498e-09
1.3481134e-09
7.3355396e-11
2.4369379e-15
1.7832357e-16
1.0822008e-11
2.4561595e-10
7.3412225e-10
1.0671793e-09
1.1961987e-09
1.2275314e-09
1.2283624e-09
1.2233417e-09
1.2199115e-09
1.2198973e-09
1.2233007e-09
1.228298e-09
1.2274501e-09
1.1961095e-09
1.0670936e-09
7.3407169e-10
2.4559908e-10
1.0821162e-11
1.7830333e-16
1.272174e-17
1.5415694e-12
4.307977e-11
1.3876212e-10
2.0726493e-10
2.3456322e-10
2.4166417e-10
2.422899e-10
2.4154173e-10
2.4097012e-10
2.4096709e-10
2.4153293e-10
2.4227609e-10
2.4164672e-10
2.3454412e-10
2.0724651e-10
1.3875124e-10
4.3076508e-11
1.5414352e-12
1.2720213e-17
8.8168696e-19
2.1201716e-13
7.2804243e-12
2.5250195e-11
3.8731672e-11
4.4241337e-11
4.5750315e-11
4.5948085e-11
4.584732e-11
4.5756991e-11
4.5756375e-11
4.5845529e-11
4.5945272e-11
4.5746751e-11
4.4237432e-11
3.8727949e-11
2.5247967e-11
7.2798181e-12
2.1199697e-13
8.8157548e-19
5.927116e-20
2.8163727e-14
1.1866798e-12
4.4287799e-12
6.973395e-12
8.037734e-12
8.3409153e-12
8.3900488e-12
8.3782875e-12
8.3647173e-12
8.3645972e-12
8.3779396e-12
8.3895027e-12
8.3402214e-12
8.0369706e-12
6.9726776e-12
4.4283464e-12
1.1865706e-12
2.8160806e-14
5.9263165e-20
3.8632747e-21
3.6158412e-15
1.8675304e-13
7.4966107e-13
1.2112797e-12
1.4085923e-12
1.4665404e-12
1.4772613e-12
1.4762163e-12
1.4742757e-12
1.4742533e-12
1.4761516e-12
1.4771596e-12
1.4664109e-12
1.4084492e-12
1.2111469e-12
7.4958081e-13
1.86734e-13
3.6154309e-15
3.8627141e-21
2.441886e-22
4.4904302e-16
2.8407731e-14
1.2261328e-13
2.0325332e-13
2.3843514e-13
2.4902134e-13
2.5116304e-13
2.5113796e-13
2.5087382e-13
2.5086983e-13
2.5112638e-13
2.5114479e-13
2.4899805e-13
2.3840931e-13
2.0322956e-13
1.2259901e-13
2.8404523e-14
4.4898701e-16
2.4415064e-22
1.497478e-23
5.3990926e-17
4.1813705e-15
1.9400853e-14
3.298938e-14
3.9034677e-14
4.088996e-14
4.1289858e-14
4.13077e-14
4.127355e-14
4.1272861e-14
4.1305696e-14
4.1286693e-14
4.0885906e-14
3.9030169e-14
3.2985256e-14
1.93984e-14
4.1808479e-15
5.3983499e-17
1.4972298e-23
8.9154856e-25
6.2909977e-18
5.9619275e-16
2.9731638e-15
5.1853821e-15
6.1881754e-15
6.5010285e-15
6.5716734e-15
6.5775816e-15
6.5734089e-15
6.5732937e-15
6.5772454e-15
6.5711411e-15
6.5003439e-15
6.1874117e-15
5.1846854e-15
2.9727545e-15
5.9611021e-16
6.2900425e-18
8.9139129e-25
5.1572599e-26
7.1105348e-19
8.2433364e-17
4.417919e-16
7.902415e-16
9.5107935e-16
1.0019651e-15
1.0138658e-15
1.0151952e-15
1.0147179e-15
1.0146991e-15
1.0151403e-15
1.0137787e-15
1.0018526e-15
9.5095343e-16
7.9012683e-16
4.4172543e-16
8.2420706e-17
7.1093404e-19
5.1561838e-26
2.9676837e-27
7.8034404e-20
1.1064116e-17
6.3721271e-17
1.1689323e-16
1.4187237e-16
1.498721e-16
1.5179436e-16
1.5204906e-16
1.5199896e-16
1.5199597e-16
1.5204034e-16
1.5178047e-16
1.498541e-16
1.4185217e-16
1.1687484e-16
6.3710759e-17
1.1062228e-17
7.801989e-20
2.9001917e-27
1.9737422e-28
8.3230485e-21
1.4429836e-18
8.9302872e-18
1.6800559e-17
2.0562029e-17
2.1779753e-17
2.2078678e-17
2.2122999e-17
2.211839e-17
2.2117926e-17
2.2121648e-17
2.207652e-17
2.1776948e-17
2.0558875e-17
1.6797687e-17
8.9286686e-18
1.4427101e-18
8.3213263e-21
1.5875743e-28
1.8198219e-29
8.6356067e-22
1.8304339e-19
1.2172695e-18
2.3485212e-18
2.8983945e-18
3.0781539e-18
3.1230462e-18
3.1302504e-18
3.129927e-18
3.1298572e-18
3.1300464e-18
3.1227201e-18
3.077729e-18
2.8979152e-18
2.3480849e-18
1.2170273e-18
1.830049e-19
8.633602e-22
8.4649246e-30
2.0681393e-30
8.7238191e-23
2.2604459e-20
1.6153039e-19
3.1960341e-19
3.9772785e-19
4.2349723e-19
4.3002415e-19
4.3113444e-19
4.3112958e-19
4.3111935e-19
4.3110451e-19
4.2997622e-19
4.2343465e-19
3.9765707e-19
3.1953903e-19
1.6149518e-19
2.25992e-20
8.7215227e-23
4.4000854e-31
2.3418923e-31
8.5881359e-24
2.7199654e-21
2.0885939e-20
4.2380242e-20
5.3179405e-20
5.6771306e-20
5.7691855e-20
5.785557e-20
5.7859644e-20
5.7858189e-20
5.7851301e-20
5.7685015e-20
5.6762356e-20
5.3169249e-20
4.2371022e-20
2.0880977e-20
2.7192683e-21
8.5855431e-24
2.2315471e-32
2.4373464e-32
8.2457367e-25
3.1917289e-22
2.6336212e-21
5.4804955e-21
6.9342814e-21
7.4216329e-21
7.5477911e-21
7.5710257e-21
7.5721147e-21
7.5719135e-21
7.5704352e-21
7.5468441e-21
7.42039e-21
6.9328686e-21
5.4792144e-21
2.6329431e-21
3.1908336e-22
8.2428566e-25
1.1051045e-33
2.2950377e-33
7.7275599e-26
3.6553514e-23
3.2411658e-22
6.9172127e-22
8.8249546e-22
9.4692779e-22
9.6375205e-22
9.6693907e-22
9.671429e-22
9.6711592e-22
9.6685975e-22
9.6362472e-22
9.4676034e-22
8.823048e-22
6.9154873e-22
3.2402679e-22
3.6542375e-23
7.7244273e-26
5.3479157e-35
1.9377618e-34
7.0740161e-27
4.0888717e-24
3.896097e-23
8.5276686e-23
1.097011e-22
1.1800956e-22
1.2019556e-22
1.2061935e-22
1.2065225e-22
1.2064874e-22
1.2060902e-22
1.2017895e-22
1.1798767e-22
1.0967614e-22
8.5254165e-23
3.8949449e-23
4.0875289e-24
7.0706967e-27
2.5308534e-36
1.4342212e-35
6.3301355e-28
4.4705806e-25
4.5777768e-24
1.0276232e-23
1.3329525e-23
1.4375382e-23
1.4652417e-23
1.4707177e-23
1.4712039e-23
1.4711596e-23
1.4705871e-23
1.4650314e-23
1.4372602e-23
1.3326353e-23
1.0273381e-23
4.5763434e-24
4.4690113e-25
6.3267293e-28
1.1720695e-37
9.1603562e-37
5.540902e-29
4.7809049e-26
5.2610954e-25
1.2112757e-24
1.5842563e-24
1.7128778e-24
1.7471559e-24
1.7540439e-24
1.7547197e-24
1.7546653e-24
1.7538837e-24
1.7468971e-24
1.7125349e-24
1.5838649e-24
1.2109253e-24
5.259366e-25
4.7791269e-26
5.5375328e-29
5.3153509e-39
5.6807761e-38
4.7473447e-30
5.0041166e-27
5.9180776e-26
1.3974761e-25
1.8430226e-25
1.997681e-25
2.0391262e-25
2.0475733e-25
2.0484683e-25
2.0484032e-25
2.0473819e-25
2.0388167e-25
1.9972697e-25
1.842553e-25
1.3970572e-25
5.9160509e-26
5.0021616e-27
4.7441483e-30
1.0664767e-39
3.5044985e-39
3.9837633e-31
5.1296564e-28
6.5198983e-27
1.579105e-26
2.0999249e-26
2.2818784e-26
2.330885e-26
2.3409965e-26
2.3421352e-26
2.3420597e-26
2.3407739e-26
2.3305246e-26
2.281398e-26
2.0993762e-26
1.578618e-26
6.5175878e-27
5.1275687e-28
3.9808594e-31
1.3909192e-40
)
;

boundaryField
{
    Wall
    {
        type            zeroGradient;
    }
    frontAndBack
    {
        type            empty;
    }
    atmosphere
    {
        type            zeroGradient;
    }
}


// ************************************************************************* //
