/*--------------------------------*- C++ -*----------------------------------*\
| =========                 |                                                 |
| \\      /  F ield         | OpenFOAM: The Open Source CFD Toolbox           |
|  \\    /   O peration     | Version:  3.0.1                                 |
|   \\  /    A nd           | Web:      www.OpenFOAM.org                      |
|    \\/     M anipulation  |                                                 |
\*---------------------------------------------------------------------------*/
FoamFile
{
    version     2.0;
    format      ascii;
    class       volScalarField;
    location    "12";
    object      mTwo;
}
// * * * * * * * * * * * * * * * * * * * * * * * * * * * * * * * * * * * * * //

dimensions      [0 0 0 0 0 0 0];

internalField   nonuniform List<scalar> 
800
(
6.5567331e-13
6.5561185e-13
6.5558539e-13
6.5557173e-13
6.5556163e-13
6.5555359e-13
6.5554746e-13
6.5554305e-13
6.5554019e-13
6.5553878e-13
6.5553879e-13
6.5554019e-13
6.5554304e-13
6.5554747e-13
6.555536e-13
6.5556164e-13
6.5557174e-13
6.555854e-13
6.5561185e-13
6.5567332e-13
4.1052302e-13
4.1420847e-13
4.1458783e-13
4.1474566e-13
4.1487758e-13
4.1498116e-13
4.1505958e-13
4.1511521e-13
4.1515052e-13
4.1516768e-13
4.1516769e-13
4.1515052e-13
4.151152e-13
4.1505957e-13
4.1498116e-13
4.1487758e-13
4.1474568e-13
4.1458785e-13
4.1420849e-13
4.1052302e-13
2.4010797e-13
2.4251827e-13
2.428503e-13
2.4300566e-13
2.4311639e-13
2.4319874e-13
2.4325809e-13
2.4329886e-13
2.4332435e-13
2.4333664e-13
2.4333664e-13
2.4332434e-13
2.4329884e-13
2.4325807e-13
2.4319872e-13
2.4311637e-13
2.4300564e-13
2.4285028e-13
2.4251825e-13
2.4010793e-13
1.2688372e-13
1.2891587e-13
1.2911364e-13
1.2920458e-13
1.2926301e-13
1.2930297e-13
1.2932941e-13
1.2934629e-13
1.2935643e-13
1.293612e-13
1.293612e-13
1.2935643e-13
1.2934628e-13
1.293294e-13
1.2930297e-13
1.2926301e-13
1.2920457e-13
1.2911364e-13
1.2891586e-13
1.268837e-13
4.3679686e-14
4.5066796e-14
4.5150766e-14
4.5190114e-14
4.5208971e-14
4.521892e-14
4.5223469e-14
4.5225318e-14
4.5226206e-14
4.5226506e-14
4.5226506e-14
4.5226206e-14
4.5225319e-14
4.522347e-14
4.5218924e-14
4.5208976e-14
4.5190119e-14
4.5150772e-14
4.5066803e-14
4.3679689e-14
1.3394278e-14
1.3932414e-14
1.3995263e-14
1.4010104e-14
1.4009228e-14
1.4002894e-14
1.3998235e-14
1.399257e-14
1.3989483e-14
1.3987742e-14
1.3987743e-14
1.3989485e-14
1.3992574e-14
1.399824e-14
1.4002901e-14
1.4009236e-14
1.4010112e-14
1.3995276e-14
1.3932425e-14
1.339429e-14
3.4111706e-15
3.8259198e-15
3.9098336e-15
3.9211987e-15
3.9165189e-15
3.9073136e-15
3.900957e-15
3.8968269e-15
3.8940577e-15
3.8920733e-15
3.8920742e-15
3.8940576e-15
3.8968266e-15
3.9009607e-15
3.907316e-15
3.916524e-15
3.9212101e-15
3.9098416e-15
3.8259269e-15
3.4111803e-15
6.162315e-16
9.2613255e-16
1.0149823e-15
1.0353656e-15
1.0333897e-15
1.0270367e-15
1.0190306e-15
1.0161349e-15
1.0133405e-15
1.0115232e-15
1.0115219e-15
1.0133406e-15
1.0161322e-15
1.0190299e-15
1.0270381e-15
1.0333905e-15
1.035372e-15
1.014983e-15
9.2613588e-16
6.1623609e-16
7.4064272e-17
1.9122133e-16
2.4485495e-16
2.6287534e-16
2.6479593e-16
2.6241351e-16
2.5853818e-16
2.5665398e-16
2.5497833e-16
2.5412263e-16
2.5412194e-16
2.5497833e-16
2.5665206e-16
2.5853736e-16
2.6241393e-16
2.6479532e-16
2.6287674e-16
2.4485515e-16
1.9122153e-16
7.4065545e-17
6.2192402e-18
3.3896798e-17
5.4963343e-17
6.4226537e-17
6.6323161e-17
6.5816424e-17
6.4570798e-17
6.3763486e-17
6.3124394e-17
6.280662e-17
6.2806417e-17
6.3124229e-17
6.3762834e-17
6.4570381e-17
6.5816424e-17
6.6322669e-17
6.4226663e-17
5.4963318e-17
3.3896726e-17
6.2194016e-18
3.9531705e-19
5.3261334e-18
1.1618404e-17
1.513287e-17
1.6222633e-17
1.6208554e-17
1.5900287e-17
1.5638515e-17
1.5444382e-17
1.5349898e-17
1.5349859e-17
1.5444276e-17
1.563833e-17
1.5900121e-17
1.6208521e-17
1.6222417e-17
1.5132783e-17
1.1618396e-17
5.3260903e-18
3.9533077e-19
2.0558143e-20
7.7205278e-19
2.3469154e-18
3.4506955e-18
3.8654019e-18
3.9066493e-18
3.8448305e-18
3.774367e-18
3.7231899e-18
3.699042e-18
3.6990322e-18
3.7231511e-18
3.7743166e-18
3.8447734e-18
3.9066193e-18
3.8653357e-18
3.4506508e-18
2.3469062e-18
7.7204362e-19
2.0558948e-20
9.3701896e-22
1.0713998e-19
4.5854314e-19
7.6297042e-19
8.9452951e-19
9.1759436e-19
9.0765175e-19
8.9115166e-19
8.7895797e-19
8.7327466e-19
8.7327164e-19
8.7894636e-19
8.9113769e-19
9.0763418e-19
9.1757883e-19
8.945133e-19
7.6295518e-19
4.5853885e-19
1.0713839e-19
9.3705544e-22
3.9967739e-23
1.4619782e-20
8.7265494e-20
1.6364552e-19
2.0051428e-19
2.0911973e-19
2.080608e-19
2.0461513e-19
2.0193066e-19
2.0066871e-19
2.0066778e-19
2.0192755e-19
2.0461122e-19
2.0805572e-19
2.0911412e-19
2.0051036e-19
1.636413e-19
8.7264083e-20
1.4619512e-20
3.9968981e-23
1.7066599e-24
1.9888746e-21
1.6217203e-20
3.4022015e-20
4.3449078e-20
4.6083274e-20
4.612713e-20
4.5478471e-20
4.4928291e-20
4.4661692e-20
4.4661431e-20
4.4927506e-20
4.5477404e-20
4.6125739e-20
4.6081608e-20
4.3448069e-20
3.4020959e-20
1.6216827e-20
1.9888271e-21
1.7066843e-24
7.7619005e-26
2.7049718e-22
2.9420454e-21
6.849269e-21
9.0905956e-21
9.7985261e-21
9.8667031e-21
9.7567117e-21
9.6514486e-21
9.5980566e-21
9.5979903e-21
9.651257e-21
9.7564341e-21
9.8663446e-21
9.7980928e-21
9.0903232e-21
6.8490194e-21
2.941957e-21
2.7048881e-22
7.7618162e-26
3.8943782e-27
3.6648191e-23
5.2029724e-22
1.3343329e-21
1.8356569e-21
2.0083868e-21
2.0341305e-21
2.0176009e-21
1.9987705e-21
1.9886848e-21
1.9886691e-21
1.9987254e-21
2.0175328e-21
2.0340432e-21
2.0082837e-21
1.8355869e-21
1.3342753e-21
5.2027794e-22
3.6646771e-23
3.8942295e-27
2.1463772e-28
4.918331e-24
8.9567499e-23
2.5148733e-22
3.5780529e-22
3.9682973e-22
4.0415277e-22
4.0205879e-22
3.9890627e-22
3.9711226e-22
3.9710867e-22
3.9889607e-22
4.0204305e-22
4.041328e-22
3.9680691e-22
3.577873e-22
2.5147539e-22
8.9563453e-23
4.9180999e-24
2.1462455e-28
1.2622868e-29
6.5036668e-25
1.499246e-23
4.5862471e-23
6.7360157e-23
7.5632683e-23
7.7431781e-23
7.7244683e-23
7.6750884e-23
7.6449934e-23
7.6449165e-23
7.6748689e-23
7.7241252e-23
7.7427446e-23
7.5627854e-23
6.7355943e-23
4.5860049e-23
1.4991657e-23
6.5033085e-25
1.262188e-29
7.6801554e-31
8.439572e-26
2.4384978e-24
8.0965355e-24
1.2256867e-23
1.3918237e-23
1.4318739e-23
1.4320419e-23
1.4248242e-23
1.4200482e-23
1.4200325e-23
1.4247791e-23
1.4319712e-23
1.4317846e-23
1.3917259e-23
1.2255965e-23
8.0960385e-24
2.4383517e-24
8.4390259e-26
7.6794583e-31
4.7271293e-32
1.0716499e-26
3.8529166e-25
1.3845624e-24
2.1575414e-24
2.4757829e-24
2.5584764e-24
2.5646254e-24
2.5548488e-24
2.5476537e-24
2.5476232e-24
2.5547606e-24
2.5644867e-24
2.5583011e-24
2.4755922e-24
2.1573627e-24
1.384465e-24
3.8526584e-25
1.0715705e-26
4.7266529e-32
2.9020401e-33
1.3290557e-27
5.9140131e-26
2.2951294e-25
3.6774696e-25
4.2617751e-25
4.4223349e-25
4.4420018e-25
4.4299219e-25
4.4195997e-25
4.4195429e-25
4.4297568e-25
4.441742e-25
4.4220063e-25
4.2614179e-25
3.6771358e-25
2.2949455e-25
5.9135732e-26
1.3289456e-27
2.9017227e-33
1.7619344e-34
1.6080288e-28
8.8206211e-27
3.6906856e-26
6.0752473e-26
7.1072241e-26
7.4030789e-26
7.4494721e-26
7.43635e-26
7.4222181e-26
7.4221157e-26
7.4360536e-26
7.4490066e-26
7.4024884e-26
7.10658e-26
6.0746525e-26
3.6903537e-26
8.8198896e-27
1.6078814e-28
1.7617247e-34
1.0525217e-35
1.8968475e-29
1.2787892e-27
5.7615438e-27
9.7367575e-27
1.149474e-26
1.201548e-26
1.2110242e-26
1.2098988e-26
1.2080505e-26
1.2080329e-26
1.2098477e-26
1.2109438e-26
1.2014459e-26
1.1493621e-26
9.7357367e-27
5.7609708e-27
1.2786707e-27
1.8966551e-29
1.0523848e-35
6.1669732e-37
2.1809199e-30
1.8029323e-28
8.7383439e-28
1.5153022e-27
1.8047652e-27
1.8927409e-27
1.910406e-27
1.9100049e-27
1.9076969e-27
1.9076675e-27
1.9099197e-27
1.9102717e-27
1.8925698e-27
1.8045771e-27
1.5151323e-27
8.7373911e-28
1.8027456e-28
2.1806743e-30
6.1661013e-37
3.5374319e-38
2.4440012e-31
2.4732303e-29
1.2885547e-28
2.2919372e-28
2.7534276e-28
2.8966126e-28
2.9274101e-28
2.9286145e-28
2.9258698e-28
2.9258225e-28
2.9284768e-28
2.9271926e-28
2.8963345e-28
2.7531208e-28
2.291662e-28
1.2884011e-28
2.4729446e-29
2.4436945e-31
3.5368926e-38
1.9842558e-39
2.6697947e-32
3.302913e-30
1.8487677e-29
3.3720439e-29
4.0855049e-29
4.3106539e-29
4.3615585e-29
4.3656973e-29
4.362608e-29
4.3625339e-29
4.3654809e-29
4.3612157e-29
4.3102139e-29
4.0850176e-29
3.3716082e-29
1.8485266e-29
3.3024871e-30
2.6694215e-32
1.9839311e-39
1.0878336e-40
2.8437061e-33
4.2966784e-31
2.5827723e-30
4.8297455e-30
5.9007316e-30
6.2435579e-30
6.3240093e-30
6.3329653e-30
6.3297122e-30
6.3295986e-30
6.3326334e-30
6.3234818e-30
6.242878e-30
5.8999757e-30
4.829071e-30
2.5824029e-30
4.2960599e-31
2.8432624e-33
1.0876187e-40
6.0165663e-42
2.9544611e-34
5.4479861e-32
3.5158276e-31
6.7396161e-31
8.3024431e-31
8.8088775e-31
8.9311526e-31
8.9474561e-31
8.9443286e-31
8.9441578e-31
8.9469586e-31
8.9303592e-31
8.8078513e-31
8.3012984e-31
6.7385945e-31
3.5152747e-31
5.44711e-32
2.9539471e-34
5.8262164e-42
4.125876e-43
2.9953321e-35
6.7371382e-33
4.6667408e-32
9.1696375e-32
1.1388915e-31
1.211585e-31
1.2295304e-31
1.2322199e-31
1.2319612e-31
1.2319362e-31
1.2321469e-31
1.2294138e-31
1.2114336e-31
1.1387222e-31
9.1681258e-32
4.6659324e-32
6.7359288e-33
2.9947484e-35
3.0498818e-43
4.2234905e-44
2.9647767e-36
8.1305797e-34
6.0442712e-33
1.2172762e-32
1.5242537e-32
1.6257783e-32
1.6512885e-32
1.6554352e-32
1.6552852e-32
1.6552494e-32
1.6553305e-32
1.6511211e-32
1.6255605e-32
1.5240093e-32
1.2170578e-32
6.0431183e-33
8.1289528e-34
2.9641241e-36
1.5605172e-44
5.1439486e-45
2.8664217e-37
9.5817067e-35
7.643805e-34
1.5777857e-33
1.9917701e-33
2.1298905e-33
2.1650978e-33
2.1711697e-33
2.171197e-33
2.1711469e-33
2.1710233e-33
2.1648634e-33
2.1295847e-33
1.9914261e-33
1.5774782e-33
7.6422042e-34
9.5795761e-35
2.8657008e-37
7.8072208e-46
5.93511e-46
2.7084322e-38
1.1033281e-35
9.4448085e-35
1.9981096e-34
2.5428687e-34
2.726101e-34
2.7733656e-34
2.7818893e-34
2.7821752e-34
2.7821071e-34
2.7816897e-34
2.7730457e-34
2.7256828e-34
2.5423967e-34
1.9976883e-34
9.4426453e-35
1.1030566e-35
2.7076438e-38
3.8207872e-47
6.1422328e-47
2.5024068e-39
1.2421295e-36
1.1409535e-35
2.4739023e-35
3.1739119e-35
3.4111626e-35
3.4729766e-35
3.4845184e-35
3.4851548e-35
3.4850645e-35
3.4842536e-35
3.4725519e-35
3.4106058e-35
3.1732821e-35
2.4733404e-35
1.1406694e-35
1.2417935e-36
2.5015548e-39
1.8299692e-48
5.6960949e-48
2.2619986e-40
1.3679908e-37
1.3483357e-36
2.9964453e-36
3.8754661e-36
4.1755478e-36
4.2544048e-36
4.2695432e-36
4.2706296e-36
4.2705131e-36
4.2692011e-36
4.2538557e-36
4.1748265e-36
3.8746487e-36
2.9957169e-36
1.3479731e-36
1.367587e-37
2.2610939e-40
8.5819639e-50
4.7224448e-49
2.0014817e-41
1.4746889e-38
1.5596895e-37
3.5526218e-37
4.632036e-37
5.0030872e-37
5.1013239e-37
5.120614e-37
5.1222527e-37
5.1221067e-37
5.1201847e-37
5.1006335e-37
5.0021781e-37
4.6310042e-37
3.5517048e-37
1.5592403e-37
1.4742176e-38
2.0005431e-41
3.9427971e-51
3.4345457e-50
1.7344509e-42
1.5568898e-39
1.7669894e-38
4.1253305e-38
5.4223688e-38
5.8712179e-38
5.9908377e-38
6.0147726e-38
6.0170617e-38
6.0168835e-38
6.0142483e-38
5.9899936e-38
5.8701027e-38
5.4211021e-38
4.1242087e-38
1.7664485e-38
1.5563558e-39
1.7335063e-42
1.7755009e-52
2.1601689e-51
1.4728022e-43
1.6105981e-40
1.9616519e-39
4.6943396e-39
6.2203601e-39
6.7518902e-39
6.8943836e-39
6.9233506e-39
6.9263774e-39
6.9261656e-39
6.9227278e-39
6.8933782e-39
6.750559e-39
6.218847e-39
4.6930039e-39
1.9610192e-39
1.6100104e-40
1.4718848e-43
7.840757e-54
1.3160198e-52
1.2260652e-44
1.6334738e-41
2.1351587e-40
5.2375229e-40
6.996521e-40
7.6130954e-40
7.7792723e-40
7.8135149e-40
7.8173465e-40
7.8171011e-40
7.8127937e-40
7.7781062e-40
7.611547e-40
6.9947604e-40
5.2359743e-40
2.1344388e-40
1.6328453e-41
1.2252104e-44
2.188251e-54
7.9810451e-54
1.0011036e-45
1.6249861e-42
2.2797032e-41
5.7323655e-41
7.7198782e-41
8.4208909e-41
8.6107472e-41
8.6503289e-41
8.6550053e-41
8.6547293e-41
8.6495144e-41
8.6094288e-41
8.4191349e-41
7.7178806e-41
5.7306163e-41
2.2789053e-41
1.6243323e-42
1.0003409e-45
3.0121083e-55
)
;

boundaryField
{
    Wall
    {
        type            zeroGradient;
    }
    frontAndBack
    {
        type            empty;
    }
    atmosphere
    {
        type            zeroGradient;
    }
}


// ************************************************************************* //
