/*--------------------------------*- C++ -*----------------------------------*\
| =========                 |                                                 |
| \\      /  F ield         | OpenFOAM: The Open Source CFD Toolbox           |
|  \\    /   O peration     | Version:  3.0.1                                 |
|   \\  /    A nd           | Web:      www.OpenFOAM.org                      |
|    \\/     M anipulation  |                                                 |
\*---------------------------------------------------------------------------*/
FoamFile
{
    version     2.0;
    format      ascii;
    class       volScalarField;
    location    "12";
    object      mZero;
}
// * * * * * * * * * * * * * * * * * * * * * * * * * * * * * * * * * * * * * //

dimensions      [0 0 0 0 0 0 0];

internalField   nonuniform List<scalar> 
800
(
1e+13
1e+13
1e+13
1e+13
1e+13
1e+13
1e+13
1e+13
1e+13
1e+13
1e+13
1e+13
1e+13
1e+13
1e+13
1e+13
1e+13
1e+13
1e+13
1e+13
1e+13
1e+13
1e+13
1e+13
1e+13
1e+13
1e+13
1e+13
1e+13
1e+13
1e+13
1e+13
1e+13
1e+13
1e+13
1e+13
1e+13
1e+13
1e+13
1e+13
8.60835e+12
8.6154675e+12
8.6164312e+12
8.6165497e+12
8.6165132e+12
8.6164526e+12
8.6163857e+12
8.6163268e+12
8.6162847e+12
8.6162633e+12
8.6162633e+12
8.6162847e+12
8.6163268e+12
8.6163857e+12
8.6164526e+12
8.6165132e+12
8.6165497e+12
8.6164311e+12
8.6154675e+12
8.60835e+12
6.5682732e+12
6.5867447e+12
6.5871856e+12
6.5866048e+12
6.5860003e+12
6.5854635e+12
6.5850196e+12
6.58468e+12
6.5844547e+12
6.5843428e+12
6.5843429e+12
6.584455e+12
6.5846804e+12
6.5850201e+12
6.5854643e+12
6.5860011e+12
6.5866058e+12
6.5871866e+12
6.5867458e+12
6.5682743e+12
4.3832873e+12
4.4446674e+12
4.4487689e+12
4.4478247e+12
4.446196e+12
4.4447191e+12
4.4435281e+12
4.4426467e+12
4.4420788e+12
4.4417981e+12
4.4417983e+12
4.4420794e+12
4.4426476e+12
4.4435293e+12
4.4447206e+12
4.4461977e+12
4.4478266e+12
4.4487708e+12
4.4446694e+12
4.3832897e+12
2.3267725e+12
2.4833968e+12
2.5129359e+12
2.5170806e+12
2.5157658e+12
2.5134348e+12
2.5116723e+12
2.5101317e+12
2.5092072e+12
2.5087339e+12
2.5087341e+12
2.5092077e+12
2.5101326e+12
2.5116734e+12
2.5134362e+12
2.5157673e+12
2.5170823e+12
2.5129379e+12
2.4833985e+12
2.3267754e+12
9.205497e+11
1.1375572e+12
1.2071003e+12
1.2241459e+12
1.2262837e+12
1.2244879e+12
1.2226773e+12
1.2215509e+12
1.220751e+12
1.2202195e+12
1.2202196e+12
1.2207507e+12
1.2215504e+12
1.2226778e+12
1.2244877e+12
1.2262841e+12
1.2241477e+12
1.207101e+12
1.1375578e+12
9.2055253e+11
2.3810885e+11
4.3694692e+11
5.1631968e+11
5.4155145e+11
5.4612452e+11
5.4529333e+11
5.4248368e+11
5.4154249e+11
5.4049162e+11
5.3979768e+11
5.3979701e+11
5.4049143e+11
5.4154087e+11
5.4248256e+11
5.4529296e+11
5.4612349e+11
5.4155233e+11
5.1631798e+11
4.3694702e+11
2.3811052e+11
3.9403579e+10
1.4242231e+11
2.0116054e+11
2.2381706e+11
2.2902028e+11
2.2890777e+11
2.2707867e+11
2.2607579e+11
2.2513018e+11
2.2467645e+11
2.2467595e+11
2.2512991e+11
2.2607418e+11
2.2707752e+11
2.2890721e+11
2.2901879e+11
2.2381645e+11
2.0115948e+11
1.4242125e+11
3.9404158e+10
4.5859064e+09
4.0622872e+10
7.2372292e+10
8.6920646e+10
9.1089582e+10
9.1329857e+10
9.0517883e+10
8.9836327e+10
8.9308627e+10
8.9051511e+10
8.9051287e+10
8.9308225e+10
8.9835488e+10
9.0517084e+10
9.132932e+10
9.1088464e+10
8.6919909e+10
7.237161e+10
4.0622294e+10
4.5859805e+09
4.2865985e+08
1.0529381e+10
2.429008e+10
3.1768649e+10
3.4280698e+10
3.4573985e+10
3.4297579e+10
3.3963772e+10
3.372578e+10
3.3610772e+10
3.3610702e+10
3.3725482e+10
3.3963384e+10
3.4297124e+10
3.4573661e+10
3.4280074e+10
3.1768099e+10
2.4289778e+10
1.0529129e+10
4.2866346e+08
36725474
2.5504847e+09
7.646537e+09
1.0925412e+10
1.2157343e+10
1.2363973e+10
1.2291752e+10
1.2160549e+10
1.2066208e+10
1.2022683e+10
1.2022647e+10
1.2066066e+10
1.2160375e+10
1.2291526e+10
1.236377e+10
1.2157074e+10
1.092515e+10
7.646391e+09
2.5504097e+09
36725026
3173582.1
5.853433e+08
2.2628245e+09
3.5293332e+09
4.0498162e+09
4.1612195e+09
4.1485342e+09
4.1049039e+09
4.0716835e+09
4.0563748e+09
4.0563574e+09
4.071626e+09
4.1048295e+09
4.1484365e+09
4.1611104e+09
4.0497199e+09
3.5292268e+09
2.2627637e+09
5.8532283e+08
3173459.4
285908.95
1.2774591e+08
6.2981986e+08
1.0699899e+09
1.2654125e+09
1.3151045e+09
1.3153465e+09
1.3027451e+09
1.2922829e+09
1.2872936e+09
1.2872864e+09
1.2922616e+09
1.3027154e+09
1.3153078e+09
1.3150577e+09
1.2653779e+09
1.0699517e+09
6.2979831e+08
1.2774056e+08
285890.66
26425.477
26495390
1.6495665e+08
3.0453145e+08
3.7100193e+08
3.9010076e+08
3.915761e+08
3.883857e+08
3.8542548e+08
3.8393768e+08
3.8393506e+08
3.8541807e+08
3.8837479e+08
3.9156205e+08
3.9008365e+08
3.7098938e+08
3.0451884e+08
1.6494994e+08
26494080
26423.294
2434.1973
5216676.2
40702466
81488816
1.0222241e+08
1.087252e+08
1.0955809e+08
1.0885343e+08
1.0809608e+08
1.0769293e+08
1.0769208e+08
1.0809367e+08
1.0884976e+08
1.0955341e+08
1.0871963e+08
1.0221804e+08
81484930
40700556
5216379.5
2433.9653
218.81116
974849.65
9479792.9
20548418
26530439
28531996
28865924
28733639
28557295
28457829
28457573
28556565
28732510
28864491
28530337
26529064
20547280
9479284.6
974787.23
218.78833
18.984602
173045.74
2089021.8
4896051.5
6503670.8
7068633.9
7180400.1
7161007.6
7123452.7
7100954.1
7100882
7123246.6
7160686.8
7179995.1
7068177.6
6503253.3
4895757.8
2088893.1
173033.39
18.982483
1.5826378
29222.353
436693.23
1105411.9
1510246.3
1658089.7
1691048.6
1689600
1682266.4
1677562.8
1677544
1682212.4
1689515.5
1690942
1657971.5
1510131.8
1105339.3
436662.7
29220.058
1.5824512
0.12660864
4703.5602
86818.423
237171.69
333142.28
369334.32
378136.66
378478.3
377166.22
376250.6
376246.01
377152.96
378457.55
378110.46
369305.48
333113.81
237153.87
86811.853
4703.1484
0.12659295
0.0097221935
723.01232
16457.162
48488.858
69997.58
78341.198
80506.326
80711.997
80498.236
80331.236
80330.187
80495.183
80707.215
80500.276
78334.545
69991.053
48484.75
16455.806
722.94306
0.0097209373
0.00071727665
106.35324
2981.5935
9470.2516
14044.912
15865.789
16362.012
16428.896
16397.703
16369.023
16368.795
16397.04
16427.856
16360.694
15864.335
14043.507
9469.3575
2981.3253
106.34224
0.00071717987
5.0909654e-05
15.000522
517.45176
1771.0688
2697.5861
3075.3137
3182.2
3199.714
3195.8034
3191.1493
3191.1021
3195.6667
3199.4996
3181.9273
3075.0119
2697.2989
1770.8852
517.40067
14.998846
5.0902369e-05
3.4813021e-06
2.0325516
86.2035
317.83082
497.06434
571.79982
593.58134
597.62371
597.25476
596.53946
596.53019
597.22789
597.5815
593.52755
571.74002
497.00814
317.79508
86.194135
2.0323049
3.4807692e-06
2.2969321e-07
0.26505447
13.811759
54.840644
88.047208
102.19198
106.41327
107.26639
107.2579
107.15369
107.15194
107.25284
107.25842
106.40308
102.18062
88.036615
54.833983
13.810108
0.26501933
2.2965574e-07
1.4643065e-08
0.033320647
2.1321298
9.1148293
15.020961
17.588439
18.369719
18.537555
18.544963
18.530583
18.530268
18.544044
18.536103
18.367858
17.586358
15.019032
9.1136316
2.1318494
0.033315805
1.464053e-08
9.0319049e-10
0.0040444032
0.31763868
1.4617319
2.4723372
2.9203166
3.0588847
3.0900277
3.0925805
3.0907078
3.0906526
3.0924191
3.0897722
3.0585557
2.9199479
2.4719963
1.4615234
0.31759265
0.0040437579
9.030246e-10
5.3971003e-11
0.00047467109
0.045737436
0.22653725
0.39322035
0.46851224
0.49213085
0.49762458
0.49822559
0.49799706
0.49798766
0.4981981
0.49758094
0.49207444
0.46844883
0.39316183
0.22650202
0.045730116
0.0004745877
5.3959429e-11
3.1837894e-12
5.3941555e-05
0.0063745059
0.033977751
0.060523053
0.072735061
0.076613337
0.077539845
0.077660159
0.077634421
0.077632864
0.077655614
0.077532604
0.076603947
0.072724478
0.060513295
0.033971968
0.0063733763
5.3931105e-05
3.1275068e-12
2.0847129e-13
5.9429933e-06
0.00086105964
0.0049387646
0.0090272152
0.010941953
0.011556746
0.011706768
0.011728592
0.011726005
0.011725755
0.01172786
0.011705601
0.011555228
0.010940239
0.0090256352
0.0049378427
0.00086089069
5.9417173e-06
1.7603761e-13
1.790954e-14
6.3556926e-07
0.00011286765
0.00069655545
0.001306425
0.0015970839
0.0016913435
0.0017147437
0.0017184325
0.0017182206
0.0017181815
0.0017183183
0.0017145612
0.0016911054
0.0015968144
0.0013061768
0.00069641295
0.00011284315
6.3541677e-07
9.6333185e-15
1.9171436e-15
6.6052495e-08
1.4373337e-05
9.5436581e-05
0.00018366426
0.00022644232
0.00024044272
0.00024396805
0.00024455785
0.00024454875
0.00024454285
0.00024454054
0.00024394035
0.00024040653
0.00022640124
0.00018362647
9.5415247e-05
1.4369895e-05
6.6034608e-08
5.1306211e-16
2.1213925e-16
6.6780114e-09
1.7801961e-06
1.2716585e-05
2.5110289e-05
3.1222289e-05
3.3239773e-05
3.375388e-05
3.3843906e-05
3.3845261e-05
3.3844396e-05
3.3841364e-05
3.3749807e-05
3.323444e-05
3.1216217e-05
2.5104718e-05
1.2713493e-05
1.7797279e-06
6.6759494e-09
2.6620864e-17
2.2045077e-17
6.5746323e-10
2.1465489e-07
1.6495546e-06
3.3420439e-06
4.1908082e-06
4.4732381e-06
4.5459463e-06
4.5591456e-06
4.5596477e-06
4.5595247e-06
4.5587841e-06
4.5453668e-06
4.4724767e-06
4.1899399e-06
3.3412485e-06
1.6491209e-06
2.1459327e-07
6.5723e-10
1.3469198e-18
2.0920696e-18
6.3091468e-11
2.5222607e-08
2.0850658e-07
4.3343507e-07
5.4812145e-07
5.8657751e-07
5.9656561e-07
5.9843249e-07
5.9853701e-07
5.9852008e-07
5.9838267e-07
5.9648564e-07
5.8647225e-07
5.4800123e-07
4.3332519e-07
2.0844772e-07
2.5214763e-08
6.3065697e-11
6.6514153e-20
1.7862629e-19
5.9064799e-12
2.8907069e-09
2.5705173e-08
5.4825142e-08
6.9919082e-08
7.5017688e-08
7.6352299e-08
7.6607834e-08
7.6625822e-08
7.6623564e-08
7.6601187e-08
7.6341611e-08
7.5003587e-08
6.9902959e-08
5.4810456e-08
2.5697446e-08
2.8897407e-09
5.9037104e-12
3.2085001e-21
1.3371601e-20
5.3989185e-13
3.234065e-10
3.0934041e-09
6.7693697e-09
8.7061217e-09
9.3650082e-09
9.5386824e-09
9.5726159e-09
9.5754055e-09
9.5751137e-09
9.5717564e-09
9.5372984e-09
9.3631766e-09
8.704026e-09
6.7674688e-09
3.0924217e-09
3.2329128e-10
5.3960394e-13
1.5130299e-22
8.6277182e-22
4.8221902e-14
3.5348294e-11
3.636758e-10
8.1653917e-10
1.0590399e-09
1.1421109e-09
1.1641454e-09
1.1685255e-09
1.1689288e-09
1.1688922e-09
1.1684177e-09
1.1639713e-09
1.1418801e-09
1.0587758e-09
8.1630046e-10
3.6355482e-10
3.5334986e-11
4.8193071e-14
6.9802729e-24
5.414733e-23
4.2117351e-15
3.7773583e-12
4.1800419e-11
9.6292852e-11
1.2594684e-10
1.3617376e-10
1.3890197e-10
1.3945243e-10
1.3950771e-10
1.3950324e-10
1.3943929e-10
1.3888072e-10
1.361455e-10
1.2591449e-10
9.6263749e-11
4.1785964e-11
3.775868e-12
4.2089661e-15
1.1274483e-24
3.3788245e-24
3.5996426e-16
3.9492571e-13
4.7005036e-12
1.1109873e-11
1.4654124e-11
1.5884526e-11
1.621448e-11
1.6281919e-11
1.628917e-11
1.6288642e-11
1.6280362e-11
1.6211959e-11
1.5881163e-11
1.4650273e-11
1.1106425e-11
4.698825e-12
3.9476377e-13
3.5970958e-16
1.3994326e-25
)
;

boundaryField
{
    Wall
    {
        type            zeroGradient;
    }
    frontAndBack
    {
        type            empty;
    }
    atmosphere
    {
        type            zeroGradient;
    }
}


// ************************************************************************* //
