/*--------------------------------*- C++ -*----------------------------------*\
| =========                 |                                                 |
| \\      /  F ield         | OpenFOAM: The Open Source CFD Toolbox           |
|  \\    /   O peration     | Version:  3.0.1                                 |
|   \\  /    A nd           | Web:      www.OpenFOAM.org                      |
|    \\/     M anipulation  |                                                 |
\*---------------------------------------------------------------------------*/
FoamFile
{
    version     2.0;
    format      ascii;
    class       surfaceScalarField;
    location    "12";
    object      phi;
}
// * * * * * * * * * * * * * * * * * * * * * * * * * * * * * * * * * * * * * //

dimensions      [0 3 -1 0 0 0 0];

internalField   nonuniform List<scalar> 
1540
(
1.9846209e-10
2.8557937e-08
2.0774101e-10
2.8783989e-08
1.809604e-10
2.8823117e-08
1.5677131e-10
2.8823447e-08
1.3259381e-10
2.8825615e-08
1.0761745e-10
2.8828049e-08
8.1581268e-11
2.8830304e-08
5.474546e-11
2.8831948e-08
2.7469807e-11
2.883293e-08
7.1121162e-15
2.8833383e-08
-2.7455759e-11
2.8833382e-08
-5.4731867e-11
2.8832928e-08
-8.1568243e-11
2.8831944e-08
-1.0760457e-10
2.88303e-08
-1.3258122e-10
2.8828045e-08
-1.5675979e-10
2.8825612e-08
-1.8095145e-10
2.8823443e-08
-2.0773833e-10
2.8823114e-08
-1.9846684e-10
2.8783985e-08
2.8557928e-08
4.8196497e-11
5.9834261e-08
9.0778751e-11
6.0049878e-08
1.0952291e-10
6.0105004e-08
1.0888922e-10
6.0114884e-08
9.8721179e-11
6.0119281e-08
8.2846802e-11
6.0122005e-08
6.3860755e-11
6.0123453e-08
4.3270215e-11
6.0123967e-08
2.1830052e-11
6.0124059e-08
5.4328099e-15
6.0124048e-08
-2.1819291e-11
6.0124047e-08
-4.3259635e-11
6.0124055e-08
-6.3850371e-11
6.0123962e-08
-8.2836569e-11
6.0123446e-08
-9.8711402e-11
6.0121998e-08
-1.0888071e-10
6.0119274e-08
-1.0951639e-10
6.0114876e-08
-9.0775669e-11
6.0104996e-08
-4.819724e-11
6.0049869e-08
5.9834247e-08
5.8726816e-11
8.5914598e-08
8.4461347e-11
8.6279539e-08
9.9631153e-11
8.6339581e-08
9.8441533e-11
8.6358304e-08
8.87019e-11
8.6367253e-08
7.3713567e-11
8.6372602e-08
5.6280455e-11
8.6374826e-08
3.7850552e-11
8.6375242e-08
1.8991955e-11
8.6375082e-08
4.7810571e-15
8.6374875e-08
-1.8982383e-11
8.6374874e-08
-3.7840737e-11
8.6375078e-08
-5.6270391e-11
8.6375236e-08
-7.3703206e-11
8.6374818e-08
-8.86922e-11
8.6372595e-08
-9.8433397e-11
8.6367247e-08
-9.9624598e-11
8.6358297e-08
-8.4457409e-11
8.6339574e-08
-5.8725769e-11
8.6279532e-08
8.5914589e-08
4.4972045e-11
1.107008e-07
8.5237697e-11
1.110301e-07
1.1990909e-10
1.110952e-07
1.2012293e-10
1.1114619e-07
1.053123e-10
1.1117078e-07
8.4477492e-11
1.1118407e-07
6.2546752e-11
1.1118902e-07
4.1282626e-11
1.1119032e-07
2.0488781e-11
1.1119063e-07
4.9227707e-15
1.1119061e-07
-2.0478683e-11
1.1119061e-07
-4.1271572e-11
1.1119063e-07
-6.253454e-11
1.1119031e-07
-8.4463535e-11
1.1118901e-07
-1.0529951e-10
1.1118406e-07
-1.2011212e-10
1.1117077e-07
-1.1989895e-10
1.1114618e-07
-8.523125e-11
1.1109519e-07
-4.4970614e-11
1.1103009e-07
1.1070079e-07
2.9886794e-10
1.1535768e-07
2.9796841e-10
1.1655803e-07
2.6301207e-10
1.1672863e-07
2.1326151e-10
1.16797e-07
1.6362232e-10
1.1681064e-07
1.2489982e-10
1.1680043e-07
8.6833401e-11
1.1679507e-07
5.7025913e-11
1.1678019e-07
2.7803756e-11
1.1677497e-07
5.8898029e-15
1.1677102e-07
-2.7791366e-11
1.1677101e-07
-5.7008973e-11
1.1677496e-07
-8.6814413e-11
1.1678018e-07
-1.2487704e-10
1.1679506e-07
-1.6360254e-10
1.1680044e-07
-2.1324468e-10
1.1681064e-07
-2.6299225e-10
1.16797e-07
-2.9796037e-10
1.1672864e-07
-2.9886945e-10
1.1655804e-07
1.1535768e-07
3.2275237e-09
1.1058651e-07
2.3942838e-09
1.1582622e-07
1.5991288e-09
1.1596375e-07
1.0859381e-09
1.1575074e-07
7.4743836e-10
1.1558968e-07
5.2822516e-10
1.1545995e-07
3.6543771e-10
1.1539811e-07
2.277653e-10
1.1535819e-07
1.0413337e-10
1.1533894e-07
-3.5810256e-15
1.1531548e-07
-1.0414089e-10
1.1531548e-07
-2.2775082e-10
1.153389e-07
-3.6537671e-10
1.1535814e-07
-5.2816481e-10
1.1539809e-07
-7.4736165e-10
1.1545994e-07
-1.0858698e-09
1.1558969e-07
-1.5991611e-09
1.1575084e-07
-2.3943028e-09
1.1596375e-07
-3.2275435e-09
1.1582624e-07
1.1058649e-07
1.9099166e-08
9.1366548e-08
1.8232172e-08
1.1655128e-07
1.4464604e-08
1.1958824e-07
1.0807798e-08
1.1926507e-07
7.8940564e-09
1.1836168e-07
5.5939164e-09
1.1761897e-07
3.8916819e-09
1.1695965e-07
2.433628e-09
1.1667587e-07
1.1703574e-09
1.1646205e-07
-1.8288282e-13
1.1634597e-07
-1.1706157e-09
1.1634585e-07
-2.4338723e-09
1.16462e-07
-3.8917505e-09
1.1667563e-07
-5.5938346e-09
1.1695946e-07
-7.8940413e-09
1.1761904e-07
-1.0807754e-08
1.1836165e-07
-1.4464668e-08
1.1926527e-07
-1.823216e-08
1.1958816e-07
-1.9099146e-08
1.1655128e-07
9.1366558e-08
2.1964304e-08
6.9401501e-08
2.8399267e-08
1.1011504e-07
2.6516082e-08
1.2147011e-07
2.1897724e-08
1.238821e-07
1.6995649e-08
1.2326243e-07
1.2643479e-08
1.2196986e-07
8.8643085e-09
1.2073748e-07
5.6406546e-09
1.1989826e-07
2.7575024e-09
1.1934391e-07
-3.1992192e-13
1.191025e-07
-2.7581671e-09
1.1910237e-07
-5.6412506e-09
1.1934377e-07
-8.8647102e-09
1.1989782e-07
-1.2643798e-08
1.2073726e-07
-1.6995927e-08
1.2196988e-07
-2.189791e-08
1.2326231e-07
-2.6516041e-08
1.2388206e-07
-2.8399438e-08
1.2147017e-07
-2.1964313e-08
1.1011488e-07
6.9401535e-08
1.4895949e-08
5.4505529e-08
2.3465365e-08
1.0154565e-07
2.4725045e-08
1.2021041e-07
2.2146669e-08
1.2646047e-07
1.8092443e-08
1.2731666e-07
1.3935973e-08
1.2612636e-07
1.0031051e-08
1.2464246e-07
6.4923513e-09
1.23437e-07
3.1771618e-09
1.2265906e-07
-2.3339038e-13
1.222799e-07
-3.1776545e-09
1.2227982e-07
-6.492688e-09
1.2265877e-07
-1.0031463e-08
1.2343664e-07
-1.3936337e-08
1.2464214e-07
-1.8092713e-08
1.2612627e-07
-2.2146866e-08
1.2731643e-07
-2.4725212e-08
1.2646043e-07
-2.346542e-08
1.2021038e-07
-1.4896109e-08
1.0154553e-07
5.4505407e-08
8.9738453e-09
4.5531696e-08
1.6349076e-08
9.417043e-08
1.8932047e-08
1.1762743e-07
1.810914e-08
1.2728341e-07
1.5574034e-08
1.2985178e-07
1.2441317e-08
1.2925909e-07
9.1920879e-09
1.2789168e-07
6.035931e-09
1.2659313e-07
2.9924553e-09
1.2570256e-07
-3.8078432e-14
1.252724e-07
-2.9926107e-09
1.2527236e-07
-6.0360835e-09
1.2570223e-07
-9.1922595e-09
1.265928e-07
-1.2441469e-08
1.2789133e-07
-1.5574186e-08
1.2925897e-07
-1.8109272e-08
1.2985153e-07
-1.8932019e-08
1.2728313e-07
-1.6349127e-08
1.176275e-07
-8.973837e-09
9.4170225e-08
4.5531579e-08
5.2859574e-09
4.0245714e-08
1.0772971e-08
8.8683434e-08
1.3452454e-08
1.1494794e-07
1.3604571e-08
1.2713127e-07
1.2253316e-08
1.3120308e-07
1.0133566e-08
1.3137884e-07
7.6853824e-09
1.3033988e-07
5.135925e-09
1.2914254e-07
2.5698276e-09
1.2826865e-07
8.0085985e-14
1.2784211e-07
-2.5695941e-09
1.2784206e-07
-5.1357948e-09
1.2826843e-07
-7.6852981e-09
1.2914229e-07
-1.0133496e-08
1.3033953e-07
-1.2253028e-08
1.3137852e-07
-1.3604426e-08
1.3120294e-07
-1.3452418e-08
1.2713113e-07
-1.0772813e-08
1.149479e-07
-5.2859818e-09
8.8683369e-08
4.0245587e-08
3.1595633e-09
3.7086135e-08
7.0025191e-09
8.4840492e-08
9.2708062e-09
1.1267966e-07
9.8558323e-09
1.2654626e-07
9.2461729e-09
1.3181269e-07
7.8800251e-09
1.3274501e-07
6.12517e-09
1.3209472e-07
4.1622066e-09
1.3110548e-07
2.0971277e-09
1.3033369e-07
1.7211712e-13
1.2993904e-07
-2.0967742e-09
1.2993899e-07
-4.1618906e-09
1.3033349e-07
-6.124876e-09
1.3110528e-07
-7.8798115e-09
1.3209445e-07
-9.2458828e-09
1.3274457e-07
-9.8556374e-09
1.3181271e-07
-9.270595e-09
1.2654611e-07
-7.0023789e-09
1.1267966e-07
-3.1595069e-09
8.4840499e-08
3.7086077e-08
1.9464949e-09
3.5139628e-08
4.5811196e-09
8.2205913e-08
6.3536805e-09
1.1090711e-07
7.0211101e-09
1.2587886e-07
6.8148327e-09
1.3201892e-07
5.971032e-09
1.335888e-07
4.7419679e-09
1.3332376e-07
3.26975e-09
1.3257769e-07
1.6633621e-09
1.3194004e-07
2.1867353e-13
1.3160217e-07
-1.662917e-09
1.3160212e-07
-3.2693291e-09
1.3193988e-07
-4.7415665e-09
1.325775e-07
-5.970657e-09
1.3332351e-07
-6.8145421e-09
1.3358848e-07
-7.020728e-09
1.3201891e-07
-6.3534189e-09
1.2587876e-07
-4.5809229e-09
1.1090718e-07
-1.9464375e-09
8.2206016e-08
3.5139654e-08
1.2347841e-09
3.3904832e-08
3.0301086e-09
8.0410568e-08
4.3520727e-09
1.0958514e-07
4.9670245e-09
1.2526389e-07
4.956903e-09
1.3202905e-07
4.4478031e-09
1.3409791e-07
3.597955e-09
1.3417357e-07
2.5129673e-09
1.3366264e-07
1.2877918e-09
1.3316518e-07
2.4628523e-13
1.328897e-07
-1.2873161e-09
1.3288967e-07
-2.512514e-09
1.3316507e-07
-3.5975192e-09
1.3366246e-07
-4.4473597e-09
1.3417335e-07
-4.9565433e-09
1.3409761e-07
-4.9666452e-09
1.3202903e-07
-4.3517884e-09
1.2526388e-07
-3.0299126e-09
1.0958528e-07
-1.2346787e-09
8.0410786e-08
3.3904934e-08
8.0236831e-10
3.3102501e-08
2.0275378e-09
7.9185404e-08
2.9902313e-09
1.0862244e-07
3.5026781e-09
1.2475145e-07
3.5758382e-09
1.3195587e-07
3.2740792e-09
1.3439966e-07
2.6898186e-09
1.3475782e-07
1.8995752e-09
1.3445286e-07
9.7996371e-10
1.3408477e-07
2.4430067e-13
1.3386944e-07
-9.7951856e-10
1.338694e-07
-1.8991348e-09
1.3408466e-07
-2.6893935e-09
1.3445269e-07
-3.2736786e-09
1.3475764e-07
-3.5754975e-09
1.343994e-07
-3.5023197e-09
1.319558e-07
-2.9899538e-09
1.2475147e-07
-2.0273394e-09
1.0862264e-07
-8.0226417e-10
7.9185701e-08
3.3102665e-08
5.3203648e-10
3.2570481e-08
1.3713831e-09
7.8346065e-08
2.0633269e-09
1.0793052e-07
2.4671137e-09
1.2434767e-07
2.5656569e-09
1.3185731e-07
2.3894969e-09
1.3457579e-07
1.9885482e-09
1.3515875e-07
1.4174877e-09
1.3502392e-07
7.3564119e-10
1.3476662e-07
2.0701749e-13
1.3460486e-07
-7.3523982e-10
1.3460481e-07
-1.417091e-09
1.3476651e-07
-1.9881814e-09
1.3502375e-07
-2.3891148e-09
1.3515858e-07
-2.565326e-09
1.345756e-07
-2.4668544e-09
1.3185731e-07
-2.0630643e-09
1.243477e-07
-1.371203e-09
1.0793074e-07
-5.3196417e-10
7.8346439e-08
3.2570691e-08
3.5793175e-10
3.2212569e-08
9.3597462e-10
7.7768047e-08
1.4296127e-09
1.0743689e-07
1.7386431e-09
1.2403862e-07
1.8332786e-09
1.3176268e-07
1.732847e-09
1.3467625e-07
1.4576926e-09
1.354339e-07
1.0471569e-09
1.3543444e-07
5.461364e-10
1.3526764e-07
1.5347251e-13
1.3515081e-07
-5.4580038e-10
1.3515078e-07
-1.046815e-09
1.3526754e-07
-1.4573421e-09
1.3543429e-07
-1.7325592e-09
1.3543376e-07
-1.8330457e-09
1.3467613e-07
-1.7382289e-09
1.3176243e-07
-1.429422e-09
1.2403889e-07
-9.3579351e-10
1.074371e-07
-3.5785615e-10
7.7768473e-08
3.2212853e-08
2.4345886e-10
3.1969157e-08
6.4418372e-10
7.7367333e-08
9.9621581e-10
1.070849e-07
1.2291346e-09
1.2380571e-07
1.3095542e-09
1.3168227e-07
1.2511799e-09
1.3473461e-07
1.0617104e-09
1.3562339e-07
7.6760748e-10
1.3572854e-07
4.0193738e-10
1.3563328e-07
1.4069569e-13
1.3555263e-07
-4.0168496e-10
1.3555261e-07
-7.6733982e-10
1.3563322e-07
-1.0614321e-09
1.357284e-07
-1.250922e-09
1.3562323e-07
-1.309273e-09
1.3473448e-07
-1.2289823e-09
1.3168213e-07
-9.9596411e-10
1.2380585e-07
-6.4402397e-10
1.0708517e-07
-2.4337662e-10
7.736782e-08
3.1969452e-08
1.6700007e-10
3.1802167e-08
4.4497841e-10
7.7089376e-08
6.9705911e-10
1.0683286e-07
8.6558156e-10
1.2363723e-07
9.3396516e-10
1.3161392e-07
9.0050659e-10
1.3476805e-07
7.6952175e-10
1.3575436e-07
5.5930744e-10
1.3593874e-07
2.9382268e-10
1.3589875e-07
1.0337919e-13
1.3584636e-07
-2.9361758e-10
1.3584633e-07
-5.5907162e-10
1.3589867e-07
-7.6930144e-10
1.3593863e-07
-9.0031717e-10
1.3575422e-07
-9.337775e-10
1.3476797e-07
-8.6547475e-10
1.3161384e-07
-6.9683718e-10
1.2363722e-07
-4.4490683e-10
1.0683325e-07
-1.6693613e-10
7.708984e-08
3.1802514e-08
1.1507841e-10
3.1687122e-08
3.1074444e-10
7.6893781e-08
4.8872406e-10
1.0665491e-07
6.1226716e-10
1.2351368e-07
6.6587412e-10
1.3156035e-07
6.4642528e-10
1.3478754e-07
5.5558288e-10
1.3584519e-07
4.0559541e-10
1.3608874e-07
2.1362948e-10
1.3609071e-07
7.1015523e-14
1.3605993e-07
-2.1349729e-10
1.3605988e-07
-4.0542288e-10
1.3609064e-07
-5.5542035e-10
1.3608863e-07
-6.4625652e-10
1.3584506e-07
-6.6570607e-10
1.3478743e-07
-6.1214803e-10
1.3156031e-07
-4.8870669e-10
1.235138e-07
-3.106478e-10
1.0665521e-07
-1.1505293e-10
7.6894245e-08
3.1687468e-08
7.9732849e-11
3.1607438e-08
2.1672284e-10
7.6756818e-08
3.4360186e-10
1.0652811e-07
4.3340522e-10
1.2342394e-07
4.7469577e-10
1.3151909e-07
4.6320479e-10
1.3479906e-07
3.999624e-10
1.3590841e-07
2.9302475e-10
1.3619573e-07
1.5465349e-10
1.3622904e-07
3.5163145e-14
1.3621455e-07
-1.5456273e-10
1.3621453e-07
-2.929006e-10
1.36229e-07
-3.9986264e-10
1.3619563e-07
-4.6307046e-10
1.3590831e-07
-4.7457967e-10
1.3479896e-07
-4.3328516e-10
1.3151906e-07
-3.4349325e-10
1.2342402e-07
-2.1665657e-10
1.065284e-07
-7.968191e-11
7.6757278e-08
3.1607804e-08
5.5389454e-11
3.155208e-08
1.5181549e-10
7.6660399e-08
2.4210574e-10
1.0643786e-07
3.0706025e-10
1.2335906e-07
3.3825008e-10
1.3148791e-07
3.3145473e-10
1.3480589e-07
2.8729444e-10
1.3595259e-07
2.110567e-10
1.3627196e-07
1.1159765e-10
1.3632849e-07
1.569953e-14
1.3632614e-07
-1.1152918e-10
1.363261e-07
-2.1095664e-10
1.3632844e-07
-2.8720321e-10
1.3627188e-07
-3.3137414e-10
1.3595248e-07
-3.3814389e-10
1.3480579e-07
-3.069617e-10
1.3148787e-07
-2.4203978e-10
1.2335911e-07
-1.5174998e-10
1.0643815e-07
-5.5329177e-11
7.6660923e-08
3.1552506e-08
3.8628089e-11
3.1513535e-08
1.066303e-10
7.6592432e-08
1.7086535e-10
1.0637368e-07
2.1775582e-10
1.2331219e-07
2.409253e-10
1.3146476e-07
2.3690137e-10
1.3480993e-07
2.0597107e-10
1.3598355e-07
1.5167203e-10
1.363263e-07
8.0326432e-11
1.3639988e-07
1.3039504e-14
1.3640646e-07
-8.0279345e-11
1.3640643e-07
-1.5161701e-10
1.3639978e-07
-2.059156e-10
1.363262e-07
-2.3684127e-10
1.3598343e-07
-2.4084653e-10
1.3480982e-07
-2.1767714e-10
1.314647e-07
-1.7078137e-10
1.2331223e-07
-1.0653219e-10
1.0637393e-07
-3.8560325e-11
7.6592953e-08
3.1513961e-08
2.7007992e-11
3.1486574e-08
7.50598e-11
7.654443e-08
1.2077491e-10
1.06328e-07
1.5452293e-10
1.2327847e-07
1.7155509e-10
1.3144777e-07
1.6922889e-10
1.3481232e-07
1.4742533e-10
1.3600532e-07
1.0876388e-10
1.3636497e-07
5.7661369e-11
1.3645099e-07
1.1548195e-14
1.3646412e-07
-5.767238e-11
1.3646409e-07
-1.0874272e-10
1.3645091e-07
-1.474086e-10
1.3636488e-07
-1.6916268e-10
1.3600518e-07
-1.7149281e-10
1.3481216e-07
-1.5445467e-10
1.3144765e-07
-1.2066242e-10
1.2327846e-07
-7.4947386e-11
1.0632823e-07
-2.6928117e-11
7.6544973e-08
3.1487034e-08
1.8907023e-11
3.1467662e-08
5.2914098e-11
7.6510472e-08
8.5474461e-11
1.0629547e-07
1.0968805e-10
1.2325425e-07
1.2214148e-10
1.3143535e-07
1.2076084e-10
1.3481369e-07
1.0541165e-10
1.3602066e-07
7.7880287e-11
1.3639251e-07
4.1318382e-11
1.3648757e-07
-3.0500852e-14
1.3650547e-07
-4.1367086e-11
1.3650544e-07
-7.7913337e-11
1.3648749e-07
-1.054312e-10
1.3639238e-07
-1.2074908e-10
1.3602048e-07
-1.221091e-10
1.3481352e-07
-1.0963255e-10
1.314352e-07
-8.5363463e-11
1.2325418e-07
-5.2800952e-11
1.0629567e-07
-1.8830207e-11
7.6511008e-08
3.1468191e-08
1.327795e-11
3.1454423e-08
3.7370821e-11
7.6486407e-08
6.0546196e-11
1.0627231e-07
7.7911235e-11
1.2323687e-07
8.6930255e-11
1.3142635e-07
8.6115934e-11
1.3481452e-07
7.5286599e-11
1.3603148e-07
5.567028e-11
1.3641214e-07
2.9539124e-11
1.3651369e-07
-5.4538256e-14
1.3653507e-07
-2.9645759e-11
1.3653505e-07
-5.5745729e-11
1.3651361e-07
-7.5363952e-11
1.3641199e-07
-8.6169024e-11
1.3603129e-07
-8.6953074e-11
1.3481431e-07
-7.7875845e-11
1.3142615e-07
-6.047502e-11
1.2323678e-07
-3.7283379e-11
1.0627247e-07
-1.320701e-11
7.6486949e-08
3.1454975e-08
9.3205576e-12
3.1445099e-08
2.6403386e-11
7.6469315e-08
4.2905296e-11
1.0625579e-07
5.5376588e-11
1.2322444e-07
6.1868318e-11
1.3141983e-07
6.1365347e-11
1.3481499e-07
5.3747998e-11
1.3603912e-07
3.9745129e-11
1.3642608e-07
2.1070864e-11
1.3653232e-07
-8.5257586e-14
1.3655621e-07
-2.1247597e-11
1.3655618e-07
-3.9922018e-11
1.3653225e-07
-5.3858399e-11
1.3642595e-07
-6.1487045e-11
1.3603891e-07
-6.1951478e-11
1.3481475e-07
-5.5392746e-11
1.314196e-07
-4.2906645e-11
1.232243e-07
-2.6365629e-11
1.0625593e-07
-9.2806352e-12
7.646988e-08
3.1445699e-08
6.531095e-12
3.143858e-08
1.8655144e-11
7.6457176e-08
3.0437047e-11
1.0624402e-07
3.9332122e-11
1.2321553e-07
4.4024393e-11
1.3141512e-07
4.3748836e-11
1.3481527e-07
3.8316746e-11
1.3604451e-07
2.8381403e-11
1.3643603e-07
1.5026206e-11
1.3654563e-07
-1.2282055e-13
1.3657129e-07
-1.5253313e-11
1.3657126e-07
-2.8578199e-11
1.3654557e-07
-3.8524645e-11
1.3643588e-07
-4.3896687e-11
1.3604431e-07
-4.417862e-11
1.3481499e-07
-3.9455928e-11
1.3141483e-07
-3.0513851e-11
1.2321535e-07
-1.8675725e-11
1.0624411e-07
-6.5302402e-12
7.6457746e-08
3.1439185e-08
4.5356412e-12
3.1433979e-08
1.316627e-11
7.6448572e-08
2.1569673e-11
1.062356e-07
2.7922825e-11
1.2320914e-07
3.1306936e-11
1.3141171e-07
3.1139576e-11
1.3481541e-07
2.7315428e-11
1.3604834e-07
2.0226651e-11
1.3644311e-07
1.0676908e-11
1.3655514e-07
-1.3980386e-13
1.3658209e-07
-1.098376e-11
1.3658205e-07
-2.0497243e-11
1.3655504e-07
-2.7566794e-11
1.3644293e-07
-3.1404138e-11
1.360481e-07
-3.1566143e-11
1.3481513e-07
-2.8139339e-11
1.3141141e-07
-2.1735238e-11
1.2320891e-07
-1.3274114e-11
1.0623564e-07
-4.6019162e-12
7.6449072e-08
3.1434561e-08
3.1798004e-12
3.1430767e-08
9.2709623e-12
7.6442437e-08
1.52858e-11
1.0622957e-07
1.9842208e-11
1.2320453e-07
2.227463e-11
1.3140922e-07
2.2195817e-11
1.3481548e-07
1.9449738e-11
1.3605101e-07
1.4387308e-11
1.3644813e-07
7.5701722e-12
1.3656192e-07
-1.5668547e-13
1.365898e-07
-7.9218843e-12
1.3658976e-07
-1.4741629e-11
1.3656183e-07
-1.9807284e-11
1.3644797e-07
-2.2525086e-11
1.3605078e-07
-2.2607568e-11
1.348152e-07
-2.0135178e-11
1.3140892e-07
-1.5537294e-11
1.2320428e-07
-9.4635396e-12
1.0622958e-07
-3.2724658e-12
7.6442858e-08
3.1431299e-08
2.1886241e-12
3.1428553e-08
6.5079855e-12
7.6438069e-08
1.0806906e-11
1.0622524e-07
1.4086507e-11
1.2320118e-07
1.586005e-11
1.3140741e-07
1.5823425e-11
1.3481549e-07
1.3853325e-11
1.360529e-07
1.0218311e-11
1.3645173e-07
5.3422605e-12
1.3656678e-07
-1.9849231e-13
1.3659531e-07
-5.7585181e-12
1.3659528e-07
-1.0651822e-11
1.3656667e-07
-1.4294377e-11
1.3645156e-07
-1.6232612e-11
1.3605269e-07
-1.6296205e-11
1.3481521e-07
-1.4510937e-11
1.3140708e-07
-1.1181111e-11
1.2320092e-07
-6.7870947e-12
1.0622517e-07
-2.3250052e-12
7.6438375e-08
3.1428962e-08
1.5128173e-12
3.1426988e-08
4.5828667e-12
7.6434964e-08
7.6498769e-12
1.0622212e-07
1.0041295e-11
1.2319876e-07
1.1324231e-11
1.3140608e-07
1.1308101e-11
1.3481549e-07
9.9097618e-12
1.3605428e-07
7.2710889e-12
1.364543e-07
3.763503e-12
1.3657025e-07
-2.2728433e-13
1.3659928e-07
-4.2544323e-12
1.3659924e-07
-7.7573434e-12
1.3657017e-07
-1.0401498e-11
1.3645414e-07
-1.1795556e-11
1.3605406e-07
-1.1832805e-11
1.348152e-07
-1.0544744e-11
1.3140575e-07
-8.1227062e-12
1.2319846e-07
-4.9052654e-12
1.0622195e-07
-1.6746616e-12
7.6435095e-08
3.1427267e-08
1.0376866e-12
3.1425916e-08
3.234744e-12
7.6432715e-08
5.4749049e-12
1.062198e-07
7.2181641e-12
1.2319697e-07
8.1528107e-12
1.3140511e-07
8.1486445e-12
1.3481547e-07
7.1031127e-12
1.3605524e-07
5.2016145e-12
1.3645617e-07
2.6371862e-12
1.3657279e-07
-2.5804577e-13
1.3660216e-07
-3.1695617e-12
1.3660211e-07
-5.7420086e-12
1.3657269e-07
-7.6856044e-12
1.3645602e-07
-8.7077839e-12
1.3605505e-07
-8.7543754e-12
1.3481519e-07
-7.8139441e-12
1.3140477e-07
-6.0133969e-12
1.2319661e-07
-3.6473436e-12
1.0621955e-07
-1.2221517e-12
7.6432666e-08
3.1426029e-08
7.3266792e-13
3.1425147e-08
2.368103e-12
7.643103e-08
4.0527448e-12
1.0621807e-07
5.3533642e-12
1.2319564e-07
6.0098555e-12
1.3140439e-07
5.9834949e-12
1.3481549e-07
5.1812871e-12
1.3605601e-07
3.7612058e-12
1.3645755e-07
1.852363e-12
1.3657464e-07
-2.8487587e-13
1.3660426e-07
-2.4428811e-12
1.3660424e-07
-4.3580469e-12
1.3657457e-07
-5.7929005e-12
1.3645743e-07
-6.5922849e-12
1.3605581e-07
-6.6474537e-12
1.3481522e-07
-5.9799696e-12
1.3140405e-07
-4.6270742e-12
1.2319525e-07
-2.8024817e-12
1.0621772e-07
-9.4974636e-13
7.6430778e-08
3.1425063e-08
5.5381792e-13
3.1424566e-08
1.8293723e-12
7.6429747e-08
3.1639997e-12
1.0621675e-07
4.1523043e-12
1.2319463e-07
4.6410051e-12
1.3140388e-07
4.5314018e-12
1.3481555e-07
3.8819293e-12
1.3605662e-07
2.7390479e-12
1.3645863e-07
1.3062918e-12
1.3657607e-07
-3.0858002e-13
1.3660587e-07
-1.9440678e-12
1.3660585e-07
-3.4168816e-12
1.3657598e-07
-4.5427822e-12
1.3645849e-07
-5.1854539e-12
1.3605643e-07
-5.2887408e-12
1.3481527e-07
-4.8051157e-12
1.3140352e-07
-3.7559732e-12
1.2319415e-07
-2.2945111e-12
1.0621623e-07
-7.7968081e-13
7.6429235e-08
3.142426e-08
4.6811139e-13
3.1424073e-08
1.6123659e-12
7.6428616e-08
2.7226397e-12
1.0621559e-07
3.50378e-12
1.2319382e-07
3.8329956e-12
1.3140354e-07
3.6418685e-12
1.348157e-07
3.0268598e-12
1.3605718e-07
2.1088263e-12
1.3645953e-07
9.4000507e-13
1.365772e-07
-3.2815839e-13
1.3660714e-07
-1.6327403e-12
1.366071e-07
-2.8114667e-12
1.3657713e-07
-3.7421998e-12
1.3645942e-07
-4.333895e-12
1.3605699e-07
-4.5005702e-12
1.348154e-07
-4.1718555e-12
1.3140316e-07
-3.3232323e-12
1.2319328e-07
-2.0410088e-12
1.0621491e-07
-6.909877e-13
7.6427856e-08
3.1423546e-08
4.6438275e-13
3.1423567e-08
1.5696282e-12
7.6427467e-08
2.6831646e-12
1.0621449e-07
3.3392853e-12
1.2319311e-07
3.4565519e-12
1.3140339e-07
3.1597656e-12
1.3481599e-07
2.5125218e-12
1.360578e-07
1.6745464e-12
1.3646039e-07
7.0243635e-13
1.3657819e-07
-3.5829593e-13
1.3660816e-07
-1.4272272e-12
1.3660814e-07
-2.4233535e-12
1.365781e-07
-3.255455e-12
1.3646023e-07
-3.8952786e-12
1.3605758e-07
-4.1658953e-12
1.3481567e-07
-3.9983456e-12
1.3140294e-07
-3.2787957e-12
1.231925e-07
-2.0249396e-12
1.0621364e-07
-6.8258733e-13
7.6426486e-08
3.1422872e-08
5.0848919e-13
3.1423052e-08
1.7687117e-12
7.6426198e-08
2.9225124e-12
1.0621328e-07
3.5008333e-12
1.2319254e-07
3.4347415e-12
1.3140343e-07
2.9188096e-12
1.3481648e-07
2.2040504e-12
1.3605851e-07
1.367906e-12
1.3646119e-07
4.8077819e-13
1.3657905e-07
-4.0400649e-13
1.3660906e-07
-1.302135e-12
1.3660901e-07
-2.1702298e-12
1.3657897e-07
-2.9969689e-12
1.3646106e-07
-3.7091899e-12
1.3605826e-07
-4.1827358e-12
1.3481611e-07
-4.1841559e-12
1.3140295e-07
-3.5214437e-12
1.2319181e-07
-2.1876103e-12
1.062123e-07
-7.2455648e-13
7.6424979e-08
3.1422159e-08
6.4663893e-13
3.1422372e-08
1.9784413e-12
7.6424849e-08
3.1759713e-12
1.0621208e-07
3.6494966e-12
1.2319202e-07
3.4313994e-12
1.3140365e-07
2.7293314e-12
1.3481714e-07
1.9114896e-12
1.3605934e-07
1.1007442e-12
1.3646203e-07
2.8709051e-13
1.3657984e-07
-4.4978151e-13
1.366098e-07
-1.2163942e-12
1.3660978e-07
-1.979654e-12
1.3657973e-07
-2.812825e-12
1.3646184e-07
-3.590492e-12
1.3605902e-07
-4.2155286e-12
1.3481671e-07
-4.3787944e-12
1.3140309e-07
-3.7530209e-12
1.2319121e-07
-2.4200936e-12
1.0621094e-07
-8.2746942e-13
7.6423402e-08
3.1421322e-08
7.5844781e-13
1.8684315e-12
2.8645704e-12
3.2204479e-12
2.9483131e-12
2.2719962e-12
1.5066721e-12
7.6760275e-13
1.1186406e-13
-4.9816027e-13
-1.1319254e-12
-1.7687153e-12
-2.5198916e-12
-3.2306495e-12
-3.8187307e-12
-4.0005154e-12
-3.4882874e-12
-2.329313e-12
-9.6807559e-13
)
;

boundaryField
{
    Wall
    {
        type            calculated;
        value           uniform 0;
    }
    frontAndBack
    {
        type            empty;
        value           nonuniform 0();
    }
    atmosphere
    {
        type            calculated;
        value           nonuniform List<scalar> 
20
(
3.1421626e-08
7.6423747e-08
1.062111e-07
1.2319166e-07
1.3140397e-07
1.3481783e-07
1.360601e-07
1.3646277e-07
1.3658049e-07
1.3661045e-07
1.3661041e-07
1.3658042e-07
1.3646259e-07
1.3605974e-07
1.3481731e-07
1.3140328e-07
1.2319067e-07
1.0620977e-07
7.6422046e-08
3.142035e-08
)
;
    }
}


// ************************************************************************* //
