/*--------------------------------*- C++ -*----------------------------------*\
| =========                 |                                                 |
| \\      /  F ield         | OpenFOAM: The Open Source CFD Toolbox           |
|  \\    /   O peration     | Version:  3.0.1                                 |
|   \\  /    A nd           | Web:      www.OpenFOAM.org                      |
|    \\/     M anipulation  |                                                 |
\*---------------------------------------------------------------------------*/
FoamFile
{
    version     2.0;
    format      ascii;
    class       volScalarField;
    location    "12";
    object      Psi2;
}
// * * * * * * * * * * * * * * * * * * * * * * * * * * * * * * * * * * * * * //

dimensions      [0 -2 2 0 0 0 0];

internalField   nonuniform List<scalar> 
800
(
0.0031132226
0.0031133282
0.0031133735
0.0031133968
0.0031134141
0.0031134278
0.0031134383
0.0031134458
0.0031134507
0.0031134531
0.0031134531
0.0031134507
0.0031134458
0.0031134382
0.0031134278
0.003113414
0.0031133968
0.0031133735
0.0031133282
0.0031132226
0.0037089528
0.0036970299
0.003695796
0.0036952605
0.0036948215
0.0036944793
0.0036942215
0.0036940389
0.003693923
0.0036938667
0.0036938667
0.003693923
0.0036940389
0.0036942215
0.0036944793
0.0036948214
0.0036952605
0.0036957959
0.0036970299
0.0037089528
0.0046175886
0.0046024404
0.0046003913
0.0045994718
0.0045988437
0.0045983852
0.00459806
0.0045978391
0.004597702
0.0045976361
0.0045976361
0.0045977021
0.0045978392
0.0045980601
0.0045983853
0.0045988438
0.0045994719
0.0046003915
0.0046024405
0.0046175889
0.0059343139
0.0059054766
0.0059032686
0.005902419
0.0059019365
0.0059016411
0.0059014699
0.0059013752
0.0059013238
0.0059013011
0.0059013011
0.0059013238
0.0059013752
0.0059014698
0.0059016411
0.0059019364
0.0059024189
0.0059032684
0.0059054764
0.0059343138
0.008024812
0.0079883976
0.00798609
0.0079854377
0.0079854115
0.0079855677
0.0079857873
0.007985991
0.0079861301
0.0079862027
0.0079862026
0.00798613
0.0079859907
0.0079857869
0.0079855671
0.0079854109
0.007985437
0.0079860893
0.0079883968
0.0080248113
0.0096592838
0.0096087687
0.0096020005
0.0096010903
0.009601718
0.0096027333
0.009603472
0.0096041877
0.0096046019
0.0096048214
0.0096048213
0.0096046016
0.0096041872
0.0096034714
0.0096027325
0.009601717
0.0096010892
0.0096019991
0.0096087674
0.0096592823
0.010544495
0.01048307
0.010467638
0.010464739
0.010465013
0.010466161
0.01046704
0.010467594
0.010467976
0.010468236
0.010468236
0.010467976
0.010467594
0.01046704
0.010466161
0.010465012
0.010464737
0.010467637
0.010483069
0.010544493
0.010876932
0.010824548
0.010806919
0.010802028
0.010801704
0.010802439
0.010803601
0.010804002
0.010804415
0.010804686
0.010804686
0.010804415
0.010804002
0.010803601
0.010802439
0.010801704
0.010802027
0.010806919
0.010824548
0.010876931
0.010952698
0.010930555
0.010919095
0.010914885
0.010914148
0.010914409
0.010915022
0.010915326
0.010915607
0.010915747
0.010915747
0.010915607
0.010915326
0.010915022
0.010914409
0.010914148
0.010914885
0.010919095
0.010930555
0.010952698
0.010963203
0.010957263
0.010952239
0.010949929
0.010949322
0.010949358
0.010949572
0.010949725
0.010949846
0.010949905
0.010949905
0.010949846
0.010949725
0.010949573
0.010949358
0.010949323
0.010949929
0.010952239
0.010957263
0.010963203
0.010964187
0.01096295
0.010961235
0.010960262
0.010959942
0.010959921
0.010959979
0.010960036
0.010960078
0.010960098
0.010960098
0.010960078
0.010960036
0.010959979
0.010959921
0.010959942
0.010960262
0.010961235
0.01096295
0.010964187
0.010964257
0.010964029
0.01096353
0.010963185
0.010963052
0.010963034
0.010963046
0.010963064
0.010963076
0.010963082
0.010963082
0.010963076
0.010963064
0.010963046
0.010963034
0.010963052
0.010963185
0.01096353
0.010964029
0.010964257
0.010964261
0.010964221
0.01096409
0.010963981
0.010963935
0.010963926
0.010963928
0.010963932
0.010963936
0.010963937
0.010963937
0.010963936
0.010963932
0.010963928
0.010963926
0.010963935
0.010963981
0.01096409
0.010964221
0.010964261
0.010964261
0.010964254
0.010964222
0.010964191
0.010964176
0.010964173
0.010964173
0.010964174
0.010964175
0.010964175
0.010964175
0.010964175
0.010964174
0.010964173
0.010964173
0.010964176
0.010964191
0.010964222
0.010964254
0.010964261
0.010964261
0.01096426
0.010964253
0.010964244
0.01096424
0.010964239
0.010964239
0.010964239
0.010964239
0.010964239
0.010964239
0.010964239
0.010964239
0.010964239
0.010964239
0.01096424
0.010964244
0.010964253
0.01096426
0.010964261
0.010964261
0.010964261
0.010964259
0.010964257
0.010964256
0.010964256
0.010964256
0.010964256
0.010964256
0.010964256
0.010964256
0.010964256
0.010964256
0.010964256
0.010964256
0.010964256
0.010964257
0.010964259
0.010964261
0.010964261
0.010964261
0.010964261
0.010964261
0.01096426
0.01096426
0.01096426
0.01096426
0.01096426
0.01096426
0.01096426
0.01096426
0.01096426
0.01096426
0.01096426
0.01096426
0.01096426
0.01096426
0.010964261
0.010964261
0.010964261
0.010964261
0.010964261
0.010964261
0.010964261
0.010964261
0.010964261
0.010964261
0.010964261
0.010964261
0.010964261
0.010964261
0.010964261
0.010964261
0.010964261
0.010964261
0.010964261
0.010964261
0.010964261
0.010964261
0.010964261
0.010964261
0.010964261
0.010964261
0.010964261
0.010964261
0.010964261
0.010964261
0.010964261
0.010964261
0.010964261
0.010964261
0.010964261
0.010964261
0.010964261
0.010964261
0.010964261
0.010964261
0.010964261
0.010964261
0.010964261
0.010964261
0.010964261
0.010964261
0.010964261
0.010964261
0.010964261
0.010964261
0.010964261
0.010964261
0.010964261
0.010964261
0.010964261
0.010964261
0.010964261
0.010964261
0.010964261
0.010964261
0.010964261
0.010964261
0.010964261
0.010964261
0.010964261
0.010964261
0.010964261
0.010964261
0.010964261
0.010964261
0.010964261
0.010964261
0.010964261
0.010964261
0.010964261
0.010964261
0.010964261
0.010964261
0.010964261
0.010964261
0.010964261
0.010964261
0.010964261
0.010964261
0.010964261
0.010964261
0.010964261
0.010964261
0.010964261
0.010964261
0.010964261
0.010964261
0.010964261
0.010964261
0.010964261
0.010964261
0.010964261
0.010964261
0.010964261
0.010964261
0.010964261
0.010964261
0.010964261
0.010964261
0.010964261
0.010964261
0.010964261
0.010964261
0.010964261
0.010964261
0.010964261
0.010964261
0.010964261
0.010964261
0.010964261
0.010964261
0.010964261
0.010964261
0.010964261
0.010964261
0.010964261
0.010964261
0.010964261
0.010964261
0.010964261
0.010964261
0.010964261
0.010964261
0.010964261
0.010964261
0.010964261
0.010964261
0.010964261
0.010964261
0.010964261
0.010964261
0.010964261
0.010964261
0.010964261
0.010964261
0.010964261
0.010964261
0.010964261
0.010964261
0.010964261
0.010964261
0.010964261
0.010964261
0.010964261
0.010964261
0.010964261
0.010964261
0.010964261
0.010964261
0.010964261
0.010964261
0.010964261
0.010964261
0.010964261
0.010964261
0.010964261
0.010964261
0.010964261
0.010964261
0.010964261
0.010964261
0.010964261
0.010964261
0.010964261
0.010964261
0.010964261
0.010964261
0.010964261
0.010964261
0.010964261
0.010964261
0.010964261
0.010964261
0.010964261
0.010964261
0.010964261
0.010964261
0.010964261
0.010964261
0.010964261
0.010964261
0.010964261
0.010964261
0.010964261
0.010964261
0.010964261
0.010964261
0.010964261
0.010964261
0.010964261
0.010964261
0.010964261
0.010964261
0.010964261
0.010964261
0.010964261
0.010964261
0.010964261
0.010964261
0.010964261
0.010964261
0.010964261
0.010964261
0.010964261
0.010964261
0.010964261
0.010964261
0.010964261
0.010964261
0.010964261
0.010964261
0.010964261
0.010964261
0.010964261
0.010964261
0.010964261
0.010964261
0.010964261
0.010964261
0.010964261
0.010964261
0.010964261
0.010964261
0.010964261
0.010964261
0.010964261
0.010964261
0.010964261
0.010964261
0.010964261
0.010964261
0.010964261
0.010964261
0.010964261
0.010964261
0.010964261
0.010964261
0.010964261
0.010964261
0.010964261
0.010964261
0.010964261
0.010964261
0.010964261
0.010964261
0.010964261
0.010964261
0.010964261
0.010964261
0.010964261
0.010964261
0.010964261
0.010964261
0.010964261
0.010964261
0.010964261
0.010964261
0.010964261
0.010964261
0.010964261
0.010964261
0.010964261
0.010964261
0.010964261
0.010964261
0.010964261
0.010964261
0.010964261
0.010964261
0.010964261
0.010964261
0.010964261
0.010964261
0.010964261
0.010964261
0.010964261
0.010964261
0.010964261
0.010964261
0.010964261
0.010964261
0.010964261
0.010964261
0.010964261
0.010964261
0.010964261
0.010964261
0.010964261
0.010964261
0.010964261
0.010964261
0.010964261
0.010964261
0.010964261
0.010964261
0.010964261
0.010964261
0.010964261
0.010964261
0.010964261
0.010964261
0.010964261
0.010964261
0.010964261
0.010964261
0.010964261
0.010964261
0.010964261
0.010964261
0.010964261
0.010964261
0.010964261
0.010964261
0.010964261
0.010964261
0.010964261
0.010964261
0.010964261
0.010964261
0.010964261
0.010964261
0.010964261
0.010964261
0.010964261
0.010964261
0.010964261
0.010964261
0.010964261
0.010964261
0.010964261
0.010964261
0.010964261
0.010964261
0.010964261
0.010964261
0.010964261
0.010964261
0.010964261
0.010964261
0.010964261
0.010964261
0.010964261
0.010964261
0.010964261
0.010964261
0.010964261
0.010964261
0.010964261
0.010964261
0.010964261
0.010964261
0.010964261
0.010964261
0.010964261
0.010964261
0.010964261
0.010964261
0.010964261
0.010964261
0.010964261
0.010964261
0.010964261
0.010964261
0.010964261
0.010964261
0.010964261
0.010964261
0.010964261
0.010964261
0.010964261
0.010964261
0.010964261
0.010964261
0.010964261
0.010964261
0.010964261
0.010964261
0.010964261
0.010964261
0.010964261
0.010964261
0.010964261
0.010964261
0.010964261
0.010964261
0.010964261
0.010964261
0.010964261
0.010964261
0.010964261
0.010964261
0.010964261
0.010964261
0.010964261
0.010964261
0.010964261
0.010964261
0.010964261
0.010964261
0.010964261
0.010964261
0.010964261
0.010964261
0.010964261
0.010964261
0.010964261
0.010964261
0.010964261
0.010964261
0.010964261
0.010964261
0.010964261
0.010964261
0.010964261
0.010964261
0.010964261
0.010964261
0.010964261
0.010964261
0.010964261
0.010964261
0.010964261
0.010964261
0.010964261
0.010964261
0.010964261
0.010964261
0.010964261
0.010964261
0.010964261
0.010964261
0.010964261
0.010964261
0.010964261
0.010964261
0.010964261
0.010964261
0.010964261
0.010964261
0.010964261
0.010964261
0.010964261
0.010964261
0.010964261
0.010964261
0.010964261
0.010964261
0.010964261
0.010964261
0.010964261
0.010964261
0.010964261
0.010964261
0.010964261
0.010964261
0.010964261
0.010964261
0.010964261
)
;

boundaryField
{
    Wall
    {
        type            calculated;
        value           nonuniform List<scalar> 
100
(
9.9999999e-21
9.9999999e-21
9.9999999e-21
9.9999999e-21
1e-20
1e-20
1e-20
1e-20
1e-20
1e-20
1e-20
1e-20
1e-20
1e-20
1e-20
1e-20
1e-20
1e-20
1e-20
1e-20
1e-20
1e-20
1e-20
1e-20
1e-20
1e-20
1e-20
1e-20
1e-20
1e-20
1e-20
1e-20
1e-20
1e-20
1e-20
1e-20
1e-20
1e-20
1e-20
1e-20
9.9999999e-21
9.9999999e-21
9.9999999e-21
9.9999999e-21
1e-20
1e-20
1e-20
1e-20
1e-20
1e-20
1e-20
1e-20
1e-20
1e-20
1e-20
1e-20
1e-20
1e-20
1e-20
1e-20
1e-20
1e-20
1e-20
1e-20
1e-20
1e-20
1e-20
1e-20
1e-20
1e-20
1e-20
1e-20
1e-20
1e-20
1e-20
1e-20
1e-20
1e-20
1e-20
1e-20
9.9999999e-21
9.9999999e-21
9.9999999e-21
9.9999999e-21
9.9999999e-21
9.9999999e-21
9.9999999e-21
9.9999999e-21
9.9999999e-21
9.9999999e-21
9.9999999e-21
9.9999999e-21
9.9999999e-21
9.9999999e-21
9.9999999e-21
9.9999999e-21
9.9999999e-21
9.9999999e-21
9.9999999e-21
9.9999999e-21
)
;
    }
    frontAndBack
    {
        type            empty;
    }
    atmosphere
    {
        type            calculated;
        value           uniform 1e-20;
    }
}


// ************************************************************************* //
