/*--------------------------------*- C++ -*----------------------------------*\
| =========                 |                                                 |
| \\      /  F ield         | OpenFOAM: The Open Source CFD Toolbox           |
|  \\    /   O peration     | Version:  3.0.1                                 |
|   \\  /    A nd           | Web:      www.OpenFOAM.org                      |
|    \\/     M anipulation  |                                                 |
\*---------------------------------------------------------------------------*/
FoamFile
{
    version     2.0;
    format      ascii;
    class       volScalarField;
    location    "12";
    object      rho;
}
// * * * * * * * * * * * * * * * * * * * * * * * * * * * * * * * * * * * * * //

dimensions      [1 -3 0 0 0 0 0];

internalField   nonuniform List<scalar> 
800
(
311.32226
311.33283
311.33735
311.33968
311.34141
311.34278
311.34383
311.34458
311.34507
311.34531
311.34531
311.34507
311.34458
311.34383
311.34278
311.34141
311.33968
311.33735
311.33283
311.32226
370.89529
369.703
369.5796
369.52605
369.48215
369.44793
369.42215
369.40389
369.3923
369.38667
369.38667
369.39231
369.40389
369.42215
369.44793
369.48215
369.52605
369.5796
369.70299
370.89529
460.50936
459.04537
458.84207
458.74869
458.68457
458.63762
458.60423
458.58148
458.56733
458.56052
458.56052
458.56734
458.58149
458.60424
458.63763
458.68458
458.74871
458.84209
459.04539
460.50939
564.99515
564.77693
564.76821
564.6571
564.5452
564.45503
564.38881
564.34283
564.31415
564.30024
564.30025
564.31417
564.34287
564.38886
564.45508
564.54526
564.65717
564.76828
564.777
564.99526
386.60843
404.01976
405.92572
405.781
405.26804
404.74263
404.34725
404.0365
403.84459
403.74763
403.74769
403.84475
404.03677
404.34761
404.74308
405.26855
405.78159
405.92634
404.02039
386.60922
54.028543
61.060283
62.001312
61.971831
61.778142
61.565955
61.412062
61.293278
61.219661
61.180154
61.180177
61.219712
61.293364
61.412194
61.566111
61.778324
61.972063
62.001546
61.060512
54.028808
2.2549708
2.6567942
2.7512509
2.7555078
2.7443437
2.7307708
2.7202595
2.7137599
2.7093136
2.7066841
2.7066847
2.7093152
2.7137617
2.7202649
2.730777
2.7443517
2.7555219
2.7512614
2.6568046
2.2549814
1.2017391
1.2041819
1.2051804
1.2053294
1.2052571
1.2051501
1.205047
1.2049988
1.2049604
1.2049375
1.2049375
1.2049604
1.2049988
1.205047
1.2051502
1.2052571
1.2053295
1.2051804
1.2041819
1.2017391
1.2000008
1.2000016
1.2000023
1.2000024
1.2000024
1.2000022
1.2000022
1.2000021
1.2000021
1.2000021
1.2000021
1.2000021
1.2000021
1.2000022
1.2000022
1.2000024
1.2000024
1.2000023
1.2000016
1.2000008
1.2000002
1.2000007
1.2000009
1.2000009
1.200001
1.2000009
1.2000009
1.2000009
1.2000009
1.2000009
1.2000009
1.2000009
1.2000009
1.2000009
1.2000009
1.200001
1.2000009
1.2000009
1.2000007
1.2000002
1.2
1.2000003
1.2000004
1.2000005
1.2000005
1.2000005
1.2000005
1.2000005
1.2000005
1.2000005
1.2000005
1.2000005
1.2000005
1.2000005
1.2000005
1.2000005
1.2000005
1.2000004
1.2000003
1.2
1.2
1.2000001
1.2000002
1.2000002
1.2000002
1.2000002
1.2000002
1.2000002
1.2000002
1.2000002
1.2000002
1.2000002
1.2000002
1.2000002
1.2000002
1.2000002
1.2000002
1.2000002
1.2000001
1.2
1.2
1.2
1.2000001
1.2000001
1.2000001
1.2000001
1.2000001
1.2000001
1.2000001
1.2000001
1.2000001
1.2000001
1.2000001
1.2000001
1.2000001
1.2000001
1.2000001
1.2000001
1.2
1.2
1.2
1.2
1.2
1.2
1.2
1.2
1.2
1.2
1.2
1.2
1.2
1.2
1.2
1.2
1.2
1.2
1.2
1.2
1.2
1.2
1.2
1.2
1.2
1.2
1.2
1.2
1.2
1.2
1.2
1.2
1.2
1.2
1.2
1.2
1.2
1.2
1.2
1.2
1.2
1.2
1.2
1.2
1.2
1.2
1.2
1.2
1.2
1.2
1.2
1.2
1.2
1.2
1.2
1.2
1.2
1.2
1.2
1.2
1.2
1.2
1.2
1.2
1.2
1.2
1.2
1.2
1.2
1.2
1.2
1.2
1.2
1.2
1.2
1.2
1.2
1.2
1.2
1.2
1.2
1.2
1.2
1.2
1.2
1.2
1.2
1.2
1.2
1.2
1.2
1.2
1.2
1.2
1.2
1.2
1.2
1.2
1.2
1.2
1.2
1.2
1.2
1.2
1.2
1.2
1.2
1.2
1.2
1.2
1.2
1.2
1.2
1.2
1.2
1.2
1.2
1.2
1.2
1.2
1.2
1.2
1.2
1.2
1.2
1.2
1.2
1.2
1.2
1.2
1.2
1.2
1.2
1.2
1.2
1.2
1.2
1.2
1.2
1.2
1.2
1.2
1.2
1.2
1.2
1.2
1.2
1.2
1.2
1.2
1.2
1.2
1.2
1.2
1.2
1.2
1.2
1.2
1.2
1.2
1.2
1.2
1.2
1.2
1.2
1.2
1.2
1.2
1.2
1.2
1.2
1.2
1.2
1.2
1.2
1.2
1.2
1.2
1.2
1.2
1.2
1.2
1.2
1.2
1.2
1.2
1.2
1.2
1.2
1.2
1.2
1.2
1.2
1.2
1.2
1.2
1.2
1.2
1.2
1.2
1.2
1.2
1.2
1.2
1.2
1.2
1.2
1.2
1.2
1.2
1.2
1.2
1.2
1.2
1.2
1.2
1.2
1.2
1.2
1.2
1.2
1.2
1.2
1.2
1.2
1.2
1.2
1.2
1.2
1.2
1.2
1.2
1.2
1.2
1.2
1.2
1.2
1.2
1.2
1.2
1.2
1.2
1.2
1.2
1.2
1.2
1.2
1.2
1.2
1.2
1.2
1.2
1.2
1.2
1.2
1.2
1.2
1.2
1.2
1.2
1.2
1.2
1.2
1.2
1.2
1.2
1.2
1.2
1.2
1.2
1.2
1.2
1.2
1.2
1.2
1.2
1.2
1.2
1.2
1.2
1.2
1.2
1.2
1.2
1.2
1.2
1.2
1.2
1.2
1.2
1.2
1.2
1.2
1.2
1.2
1.2
1.2
1.2
1.2
1.2
1.2
1.2
1.2
1.2
1.2
1.2
1.2
1.2
1.2
1.2
1.2
1.2
1.2
1.2
1.2
1.2
1.2
1.2
1.2
1.2
1.2
1.2
1.2
1.2
1.2
1.2
1.2
1.2
1.2
1.2
1.2
1.2
1.2
1.2
1.2
1.2
1.2
1.2
1.2
1.2
1.2
1.2
1.2
1.2
1.2
1.2
1.2
1.2
1.2
1.2
1.2
1.2
1.2
1.2
1.2
1.2
1.2
1.2
1.2
1.2
1.2
1.2
1.2
1.2
1.2
1.2
1.2
1.2
1.2
1.2
1.2
1.2
1.2
1.2
1.2
1.2
1.2
1.2
1.2
1.2
1.2
1.2
1.2
1.2
1.2
1.2
1.2
1.2
1.2
1.2
1.2
1.2
1.2
1.2
1.2
1.2
1.2
1.2
1.2
1.2
1.2
1.2
1.2
1.2
1.2
1.2
1.2
1.2
1.2
1.2
1.2
1.2
1.2
1.2
1.2
1.2
1.2
1.2
1.2
1.2
1.2
1.2
1.2
1.2
1.2
1.2
1.2
1.2
1.2
1.2
1.2
1.2
1.2
1.2
1.2
1.2
1.2
1.2
1.2
1.2
1.2
1.2
1.2
1.2
1.2
1.2
1.2
1.2
1.2
1.2
1.2
1.2
1.2
1.2
1.2
1.2
1.2
1.2
1.2
1.2
1.2
1.2
1.2
1.2
1.2
1.2
1.2
1.2
1.2
1.2
1.2
1.2
1.2
1.2
1.2
1.2
1.2
1.2
1.2
1.2
1.2
1.2
1.2
1.2
1.2
1.2
1.2
1.2
1.2
1.2
1.2
1.2
1.2
1.2
1.2
1.2
1.2
1.2
1.2
1.2
1.2
1.2
1.2
1.2
1.2
1.2
1.2
1.2
1.2
1.2
1.2
1.2
1.2
1.2
1.2
1.2
1.2
1.2
1.2
1.2
1.2
1.2
1.2
1.2
1.2
1.2
1.2
1.2
1.2
1.2
1.2
1.2
1.2
1.2
1.2
1.2
1.2
1.2
1.2
1.2
1.2
1.2
)
;

boundaryField
{
    Wall
    {
        type            calculated;
        value           nonuniform List<scalar> 
100
(
1e-15
8.3276232e-12
0.0032556234
0.057618515
0.62281172
1.134288
1.198798
1.1999981
1.2
1.2
1.2
1.2
1.2
1.2
1.2
1.2
1.2
1.2
1.2
1.2
1.2
1.2
1.2
1.2
1.2
1.2
1.2
1.2
1.2
1.2
1.2
1.2
1.2
1.2
1.2
1.2
1.2
1.2
1.2
1.2
1e-15
3.698584e-14
0.0032556171
0.057618275
0.62281048
1.1342876
1.198798
1.1999981
1.2
1.2
1.2
1.2
1.2
1.2
1.2
1.2
1.2
1.2
1.2
1.2
1.2
1.2
1.2
1.2
1.2
1.2
1.2
1.2
1.2
1.2
1.2
1.2
1.2
1.2
1.2
1.2
1.2
1.2
1.2
1.2
1e-15
1e-15
1.0000005e-15
1.000001e-15
1e-15
1.0000013e-15
1.0000011e-15
1.0000001e-15
1e-15
1e-15
1e-15
1e-15
1e-15
1.0000001e-15
1.0000001e-15
1e-15
1e-15
1e-15
1e-15
1e-15
)
;
    }
    frontAndBack
    {
        type            empty;
    }
    atmosphere
    {
        type            calculated;
        value           nonuniform List<scalar> 
20
(
1.2
1.2
1.2
1.2
1.2
1.2
1.2
1.2
1.2
1.2
1.2
1.2
1.2
1.2
1.2
1.2
1.2
1.2
1.2
1.2
)
;
    }
}


// ************************************************************************* //
