/*--------------------------------*- C++ -*----------------------------------*\
| =========                 |                                                 |
| \\      /  F ield         | OpenFOAM: The Open Source CFD Toolbox           |
|  \\    /   O peration     | Version:  3.0.1                                 |
|   \\  /    A nd           | Web:      www.OpenFOAM.org                      |
|    \\/     M anipulation  |                                                 |
\*---------------------------------------------------------------------------*/
FoamFile
{
    version     2.0;
    format      ascii;
    class       volScalarField;
    location    "12";
    object      rho_foam;
}
// * * * * * * * * * * * * * * * * * * * * * * * * * * * * * * * * * * * * * //

dimensions      [1 -3 0 0 0 0 0];

internalField   nonuniform List<scalar> 
800
(
311.32226
311.33283
311.33735
311.33968
311.34141
311.34278
311.34383
311.34458
311.34507
311.34531
311.34531
311.34507
311.34458
311.34383
311.34278
311.34141
311.33968
311.33735
311.33283
311.32226
370.89529
369.703
369.5796
369.52605
369.48215
369.44793
369.42215
369.40389
369.3923
369.38667
369.38667
369.39231
369.40389
369.42215
369.44793
369.48215
369.52605
369.5796
369.70299
370.89529
461.75887
460.24404
460.03914
459.94718
459.88437
459.83852
459.80601
459.78392
459.7702
459.76362
459.76362
459.77021
459.78393
459.80602
459.83853
459.88439
459.9472
460.03915
460.24406
461.75889
593.43139
590.54766
590.32686
590.24191
590.19365
590.16412
590.14699
590.13752
590.13238
590.13012
590.13012
590.13238
590.13752
590.14699
590.16411
590.19364
590.24189
590.32685
590.54764
593.43139
802.4812
798.83976
798.609
798.54377
798.54115
798.55677
798.57873
798.5991
798.61302
798.62027
798.62026
798.613
798.59908
798.57869
798.55672
798.54109
798.5437
798.60893
798.83968
802.48113
965.92839
960.87687
960.20005
960.10903
960.1718
960.27333
960.3472
960.41877
960.46019
960.48214
960.48213
960.46016
960.41872
960.34714
960.27325
960.1717
960.10892
960.19991
960.87674
965.92823
1054.4495
1048.307
1046.7638
1046.4739
1046.5013
1046.6161
1046.704
1046.7594
1046.7976
1046.8236
1046.8236
1046.7976
1046.7594
1046.704
1046.6161
1046.5012
1046.4737
1046.7637
1048.3069
1054.4493
1087.6932
1082.4548
1080.6919
1080.2028
1080.1704
1080.2439
1080.3601
1080.4002
1080.4415
1080.4686
1080.4686
1080.4415
1080.4002
1080.3601
1080.2439
1080.1704
1080.2027
1080.6919
1082.4548
1087.6931
1095.2698
1093.0555
1091.9095
1091.4885
1091.4148
1091.4409
1091.5022
1091.5326
1091.5607
1091.5747
1091.5747
1091.5607
1091.5326
1091.5022
1091.4409
1091.4148
1091.4885
1091.9095
1093.0555
1095.2698
1096.3203
1095.7263
1095.2239
1094.9929
1094.9322
1094.9358
1094.9572
1094.9725
1094.9846
1094.9905
1094.9905
1094.9846
1094.9725
1094.9573
1094.9358
1094.9323
1094.9929
1095.2239
1095.7263
1096.3203
1096.4187
1096.295
1096.1235
1096.0262
1095.9942
1095.9921
1095.9979
1096.0036
1096.0078
1096.0098
1096.0098
1096.0078
1096.0036
1095.9979
1095.9921
1095.9942
1096.0262
1096.1235
1096.295
1096.4187
1096.4257
1096.4029
1096.353
1096.3185
1096.3052
1096.3034
1096.3046
1096.3064
1096.3076
1096.3082
1096.3082
1096.3076
1096.3064
1096.3046
1096.3034
1096.3052
1096.3185
1096.353
1096.4029
1096.4257
1096.4261
1096.4221
1096.409
1096.3981
1096.3935
1096.3926
1096.3928
1096.3932
1096.3936
1096.3937
1096.3937
1096.3936
1096.3932
1096.3928
1096.3926
1096.3935
1096.3981
1096.409
1096.4221
1096.4261
1096.4261
1096.4254
1096.4222
1096.4191
1096.4176
1096.4173
1096.4173
1096.4174
1096.4175
1096.4175
1096.4175
1096.4175
1096.4174
1096.4173
1096.4173
1096.4176
1096.4191
1096.4222
1096.4254
1096.4261
1096.4261
1096.426
1096.4253
1096.4244
1096.424
1096.4239
1096.4239
1096.4239
1096.4239
1096.4239
1096.4239
1096.4239
1096.4239
1096.4239
1096.4239
1096.424
1096.4244
1096.4253
1096.426
1096.4261
1096.4261
1096.4261
1096.4259
1096.4257
1096.4256
1096.4256
1096.4256
1096.4256
1096.4256
1096.4256
1096.4256
1096.4256
1096.4256
1096.4256
1096.4256
1096.4256
1096.4257
1096.4259
1096.4261
1096.4261
1096.4261
1096.4261
1096.4261
1096.426
1096.426
1096.426
1096.426
1096.426
1096.426
1096.426
1096.426
1096.426
1096.426
1096.426
1096.426
1096.426
1096.426
1096.4261
1096.4261
1096.4261
1096.4261
1096.4261
1096.4261
1096.4261
1096.4261
1096.4261
1096.4261
1096.4261
1096.4261
1096.4261
1096.4261
1096.4261
1096.4261
1096.4261
1096.4261
1096.4261
1096.4261
1096.4261
1096.4261
1096.4261
1096.4261
1096.4261
1096.4261
1096.4261
1096.4261
1096.4261
1096.4261
1096.4261
1096.4261
1096.4261
1096.4261
1096.4261
1096.4261
1096.4261
1096.4261
1096.4261
1096.4261
1096.4261
1096.4261
1096.4261
1096.4261
1096.4261
1096.4261
1096.4261
1096.4261
1096.4261
1096.4261
1096.4261
1096.4261
1096.4261
1096.4261
1096.4261
1096.4261
1096.4261
1096.4261
1096.4261
1096.4261
1096.4261
1096.4261
1096.4261
1096.4261
1096.4261
1096.4261
1096.4261
1096.4261
1096.4261
1096.4261
1096.4261
1096.4261
1096.4261
1096.4261
1096.4261
1096.4261
1096.4261
1096.4261
1096.4261
1096.4261
1096.4261
1096.4261
1096.4261
1096.4261
1096.4261
1096.4261
1096.4261
1096.4261
1096.4261
1096.4261
1096.4261
1096.4261
1096.4261
1096.4261
1096.4261
1096.4261
1096.4261
1096.4261
1096.4261
1096.4261
1096.4261
1096.4261
1096.4261
1096.4261
1096.4261
1096.4261
1096.4261
1096.4261
1096.4261
1096.4261
1096.4261
1096.4261
1096.4261
1096.4261
1096.4261
1096.4261
1096.4261
1096.4261
1096.4261
1096.4261
1096.4261
1096.4261
1096.4261
1096.4261
1096.4261
1096.4261
1096.4261
1096.4261
1096.4261
1096.4261
1096.4261
1096.4261
1096.4261
1096.4261
1096.4261
1096.4261
1096.4261
1096.4261
1096.4261
1096.4261
1096.4261
1096.4261
1096.4261
1096.4261
1096.4261
1096.4261
1096.4261
1096.4261
1096.4261
1096.4261
1096.4261
1096.4261
1096.4261
1096.4261
1096.4261
1096.4261
1096.4261
1096.4261
1096.4261
1096.4261
1096.4261
1096.4261
1096.4261
1096.4261
1096.4261
1096.4261
1096.4261
1096.4261
1096.4261
1096.4261
1096.4261
1096.4261
1096.4261
1096.4261
1096.4261
1096.4261
1096.4261
1096.4261
1096.4261
1096.4261
1096.4261
1096.4261
1096.4261
1096.4261
1096.4261
1096.4261
1096.4261
1096.4261
1096.4261
1096.4261
1096.4261
1096.4261
1096.4261
1096.4261
1096.4261
1096.4261
1096.4261
1096.4261
1096.4261
1096.4261
1096.4261
1096.4261
1096.4261
1096.4261
1096.4261
1096.4261
1096.4261
1096.4261
1096.4261
1096.4261
1096.4261
1096.4261
1096.4261
1096.4261
1096.4261
1096.4261
1096.4261
1096.4261
1096.4261
1096.4261
1096.4261
1096.4261
1096.4261
1096.4261
1096.4261
1096.4261
1096.4261
1096.4261
1096.4261
1096.4261
1096.4261
1096.4261
1096.4261
1096.4261
1096.4261
1096.4261
1096.4261
1096.4261
1096.4261
1096.4261
1096.4261
1096.4261
1096.4261
1096.4261
1096.4261
1096.4261
1096.4261
1096.4261
1096.4261
1096.4261
1096.4261
1096.4261
1096.4261
1096.4261
1096.4261
1096.4261
1096.4261
1096.4261
1096.4261
1096.4261
1096.4261
1096.4261
1096.4261
1096.4261
1096.4261
1096.4261
1096.4261
1096.4261
1096.4261
1096.4261
1096.4261
1096.4261
1096.4261
1096.4261
1096.4261
1096.4261
1096.4261
1096.4261
1096.4261
1096.4261
1096.4261
1096.4261
1096.4261
1096.4261
1096.4261
1096.4261
1096.4261
1096.4261
1096.4261
1096.4261
1096.4261
1096.4261
1096.4261
1096.4261
1096.4261
1096.4261
1096.4261
1096.4261
1096.4261
1096.4261
1096.4261
1096.4261
1096.4261
1096.4261
1096.4261
1096.4261
1096.4261
1096.4261
1096.4261
1096.4261
1096.4261
1096.4261
1096.4261
1096.4261
1096.4261
1096.4261
1096.4261
1096.4261
1096.4261
1096.4261
1096.4261
1096.4261
1096.4261
1096.4261
1096.4261
1096.4261
1096.4261
1096.4261
1096.4261
1096.4261
1096.4261
1096.4261
1096.4261
1096.4261
1096.4261
1096.4261
1096.4261
1096.4261
1096.4261
1096.4261
1096.4261
1096.4261
1096.4261
1096.4261
1096.4261
1096.4261
1096.4261
1096.4261
1096.4261
1096.4261
1096.4261
1096.4261
1096.4261
1096.4261
1096.4261
1096.4261
1096.4261
1096.4261
1096.4261
1096.4261
1096.4261
1096.4261
1096.4261
1096.4261
1096.4261
1096.4261
1096.4261
1096.4261
1096.4261
1096.4261
1096.4261
1096.4261
1096.4261
1096.4261
1096.4261
1096.4261
1096.4261
1096.4261
1096.4261
1096.4261
1096.4261
1096.4261
1096.4261
1096.4261
1096.4261
1096.4261
1096.4261
1096.4261
1096.4261
1096.4261
1096.4261
1096.4261
1096.4261
1096.4261
1096.4261
1096.4261
1096.4261
1096.4261
1096.4261
1096.4261
1096.4261
1096.4261
1096.4261
1096.4261
1096.4261
1096.4261
1096.4261
1096.4261
1096.4261
1096.4261
1096.4261
1096.4261
1096.4261
1096.4261
1096.4261
1096.4261
1096.4261
1096.4261
1096.4261
1096.4261
1096.4261
1096.4261
1096.4261
1096.4261
1096.4261
1096.4261
1096.4261
1096.4261
1096.4261
1096.4261
1096.4261
1096.4261
1096.4261
1096.4261
1096.4261
1096.4261
1096.4261
1096.4261
1096.4261
1096.4261
1096.4261
1096.4261
1096.4261
1096.4261
1096.4261
1096.4261
1096.4261
1096.4261
1096.4261
1096.4261
1096.4261
1096.4261
1096.4261
1096.4261
1096.4261
1096.4261
1096.4261
1096.4261
1096.4261
1096.4261
1096.4261
1096.4261
1096.4261
)
;

boundaryField
{
    Wall
    {
        type            zeroGradient;
    }
    frontAndBack
    {
        type            empty;
    }
    atmosphere
    {
        type            zeroGradient;
    }
}


// ************************************************************************* //
