/*--------------------------------*- C++ -*----------------------------------*\
| =========                 |                                                 |
| \\      /  F ield         | OpenFOAM: The Open Source CFD Toolbox           |
|  \\    /   O peration     | Version:  3.0.1                                 |
|   \\  /    A nd           | Web:      www.OpenFOAM.org                      |
|    \\/     M anipulation  |                                                 |
\*---------------------------------------------------------------------------*/
FoamFile
{
    version     2.0;
    format      ascii;
    class       volScalarField;
    location    "12";
    object      thermalDiff_gas;
}
// * * * * * * * * * * * * * * * * * * * * * * * * * * * * * * * * * * * * * //

dimensions      [0 2 -1 0 0 0 0];

internalField   nonuniform List<scalar> 
800
(
0.00025346867
0.00025346957
0.00025346958
0.00025346957
0.00025346957
0.00025346956
0.00025346955
0.00025346954
0.00025346954
0.00025346953
0.00025346953
0.00025346954
0.00025346954
0.00025346955
0.00025346956
0.00025346957
0.00025346957
0.00025346958
0.00025346957
0.00025346867
0.00024492959
0.00024503612
0.00024505047
0.00024505412
0.00024505702
0.00024505933
0.00024506114
0.00024506246
0.0002450633
0.00024506371
0.00024506372
0.0002450633
0.00024506246
0.00024506115
0.00024505933
0.00024505702
0.00024505412
0.00024505047
0.00024503613
0.00024492959
0.00023883997
0.00023896988
0.00023899359
0.00023899857
0.00023900064
0.00023900215
0.00023900342
0.00023900441
0.00023900511
0.00023900546
0.00023900546
0.00023900511
0.00023900441
0.00023900342
0.00023900215
0.00023900064
0.00023899858
0.00023899359
0.00023896988
0.00023883997
0.00023463142
0.00023462923
0.00023463292
0.0002346372
0.00023464172
0.00023464602
0.00023464977
0.00023465272
0.00023465475
0.00023465578
0.00023465578
0.00023465475
0.00023465272
0.00023464977
0.00023464602
0.00023464171
0.0002346372
0.00023463291
0.00023462922
0.00023463142
0.00023345183
0.00023345191
0.00023345443
0.00023345817
0.00023346234
0.0002334664
0.00023346998
0.00023347283
0.0002334748
0.00023347581
0.00023347581
0.0002334748
0.00023347283
0.00023346998
0.0002334664
0.00023346234
0.00023345817
0.00023345443
0.00023345191
0.00023345182
0.00023283894
0.0002328407
0.00023284397
0.00023284809
0.00023285243
0.00023285656
0.00023286014
0.00023286297
0.00023286493
0.00023286592
0.00023286592
0.00023286493
0.00023286297
0.00023286014
0.00023285655
0.00023285243
0.00023284808
0.00023284397
0.0002328407
0.00023283893
0.00023225984
0.00023226333
0.00023226801
0.00023227305
0.00023227795
0.00023228238
0.0002322861
0.000232289
0.00023229097
0.00023229196
0.00023229196
0.00023229097
0.00023228899
0.0002322861
0.00023228237
0.00023227795
0.00023227305
0.00023226801
0.00023226333
0.00023225984
0.00023171734
0.00023172355
0.00023173043
0.00023173695
0.00023174272
0.00023174762
0.00023175158
0.00023175457
0.00023175658
0.00023175758
0.00023175758
0.00023175658
0.00023175457
0.00023175158
0.00023174762
0.00023174272
0.00023173695
0.00023173043
0.00023172355
0.00023171734
0.00023121524
0.00023122377
0.00023123316
0.00023124153
0.00023124848
0.00023125404
0.00023125833
0.00023126148
0.00023126355
0.00023126457
0.00023126457
0.00023126354
0.00023126148
0.00023125833
0.00023125404
0.00023124848
0.00023124153
0.00023123316
0.00023122377
0.00023121524
0.00023075614
0.00023076595
0.00023077729
0.00023078739
0.00023079557
0.00023080189
0.00023080662
0.00023080998
0.00023081215
0.00023081322
0.00023081322
0.00023081215
0.00023080998
0.00023080662
0.00023080189
0.00023079557
0.00023078739
0.00023077729
0.00023076595
0.00023075614
0.00023034035
0.00023035058
0.00023036301
0.00023037434
0.00023038353
0.00023039056
0.00023039574
0.00023039936
0.00023040167
0.00023040279
0.00023040279
0.00023040167
0.00023039936
0.00023039574
0.00023039056
0.00023038353
0.00023037433
0.00023036301
0.00023035057
0.00023034035
0.0002299666
0.00022997667
0.00022998944
0.00023000139
0.00023001122
0.00023001878
0.00023002433
0.0002300282
0.00023003065
0.00023003184
0.00023003184
0.00023003065
0.0002300282
0.00023002433
0.00023001878
0.00023001122
0.00023000139
0.00022998943
0.00022997666
0.0002299666
0.00022963265
0.00022964222
0.00022965477
0.00022966681
0.00022967689
0.00022968473
0.00022969052
0.00022969456
0.00022969712
0.00022969836
0.00022969836
0.00022969712
0.00022969456
0.00022969052
0.00022968473
0.00022967689
0.00022966681
0.00022965477
0.00022964222
0.00022963265
0.00022933572
0.00022934463
0.00022935659
0.00022936831
0.00022937829
0.00022938615
0.00022939202
0.00022939615
0.00022939877
0.00022940004
0.00022940004
0.00022939877
0.00022939615
0.00022939202
0.00022938615
0.00022937829
0.00022936831
0.00022935659
0.00022934463
0.00022933572
0.00022907279
0.00022908095
0.00022909211
0.00022910323
0.00022911284
0.00022912052
0.00022912631
0.00022913042
0.00022913303
0.00022913431
0.00022913431
0.00022913303
0.00022913042
0.00022912631
0.00022912052
0.00022911284
0.00022910323
0.00022909211
0.00022908095
0.00022907279
0.00022884077
0.00022884816
0.00022885841
0.00022886876
0.00022887782
0.00022888515
0.00022889073
0.00022889472
0.00022889728
0.00022889853
0.00022889853
0.00022889728
0.00022889472
0.00022889073
0.00022888515
0.00022887782
0.00022886876
0.00022885841
0.00022884816
0.00022884077
0.00022863663
0.00022864328
0.00022865258
0.00022866206
0.00022867046
0.00022867732
0.0002286826
0.0002286864
0.00022868885
0.00022869005
0.00022869005
0.00022868885
0.0002286864
0.0002286826
0.00022867732
0.00022867046
0.00022866206
0.00022865258
0.00022864328
0.00022863663
0.00022845752
0.00022846344
0.00022847181
0.0002284804
0.00022848808
0.00022849441
0.00022849931
0.00022850286
0.00022850516
0.00022850629
0.00022850629
0.00022850516
0.00022850286
0.00022849931
0.0002284944
0.00022848808
0.0002284804
0.00022847181
0.00022846344
0.00022845752
0.00022830074
0.000228306
0.00022831346
0.00022832117
0.00022832811
0.00022833387
0.00022833837
0.00022834164
0.00022834377
0.00022834482
0.00022834482
0.00022834377
0.00022834164
0.00022833837
0.00022833387
0.00022832811
0.00022832117
0.00022831346
0.000228306
0.00022830074
0.00022816385
0.00022816848
0.00022817509
0.00022818197
0.00022818819
0.00022819337
0.00022819745
0.00022820043
0.00022820237
0.00022820333
0.00022820333
0.00022820237
0.00022820043
0.00022819745
0.00022819337
0.00022818819
0.00022818197
0.00022817509
0.00022816848
0.00022816385
0.00022804459
0.00022804866
0.00022805449
0.00022806057
0.0002280661
0.00022807073
0.00022807438
0.00022807707
0.00022807882
0.00022807969
0.00022807969
0.00022807882
0.00022807707
0.00022807438
0.00022807073
0.0002280661
0.00022806057
0.00022805449
0.00022804866
0.00022804459
0.00022794095
0.00022794451
0.00022794962
0.00022795497
0.00022795986
0.00022796396
0.00022796721
0.0002279696
0.00022797117
0.00022797195
0.00022797195
0.00022797117
0.0002279696
0.00022796721
0.00022796396
0.00022795985
0.00022795497
0.00022794962
0.00022794451
0.00022794095
0.00022785109
0.0002278542
0.00022785866
0.00022786335
0.00022786763
0.00022787125
0.00022787412
0.00022787623
0.00022787763
0.00022787832
0.00022787832
0.00022787763
0.00022787623
0.00022787412
0.00022787125
0.00022786763
0.00022786335
0.00022785866
0.0002278542
0.00022785109
0.00022777339
0.00022777609
0.00022777997
0.00022778405
0.00022778779
0.00022779096
0.00022779347
0.00022779534
0.00022779656
0.00022779717
0.00022779717
0.00022779656
0.00022779534
0.00022779347
0.00022779096
0.00022778779
0.00022778405
0.00022777997
0.00022777609
0.00022777339
0.00022770636
0.0002277087
0.00022771206
0.0002277156
0.00022771886
0.00022772162
0.00022772381
0.00022772544
0.00022772651
0.00022772704
0.00022772704
0.00022772651
0.00022772544
0.00022772381
0.00022772162
0.00022771886
0.0002277156
0.00022771206
0.0002277087
0.00022770636
0.0002276487
0.00022765072
0.00022765362
0.00022765668
0.0002276595
0.00022766189
0.0002276638
0.00022766521
0.00022766615
0.00022766661
0.00022766661
0.00022766615
0.00022766521
0.0002276638
0.00022766189
0.0002276595
0.00022765668
0.00022765362
0.00022765072
0.0002276487
0.00022759924
0.00022760097
0.00022760347
0.00022760611
0.00022760854
0.0002276106
0.00022761225
0.00022761347
0.00022761428
0.00022761468
0.00022761468
0.00022761428
0.00022761347
0.00022761225
0.0002276106
0.00022760854
0.00022760611
0.00022760347
0.00022760097
0.00022759924
0.00022755693
0.00022755841
0.00022756056
0.00022756282
0.00022756491
0.00022756668
0.0002275681
0.00022756915
0.00022756985
0.0002275702
0.0002275702
0.00022756985
0.00022756915
0.0002275681
0.00022756668
0.00022756491
0.00022756282
0.00022756056
0.00022755841
0.00022755693
0.00022752086
0.00022752213
0.00022752396
0.00022752589
0.00022752768
0.0002275292
0.00022753041
0.00022753132
0.00022753192
0.00022753221
0.00022753221
0.00022753192
0.00022753132
0.00022753041
0.0002275292
0.00022752768
0.00022752589
0.00022752396
0.00022752213
0.00022752086
0.00022749021
0.00022749129
0.00022749285
0.0002274945
0.00022749602
0.00022749732
0.00022749836
0.00022749913
0.00022749964
0.0002274999
0.0002274999
0.00022749964
0.00022749913
0.00022749836
0.00022749732
0.00022749602
0.0002274945
0.00022749285
0.00022749129
0.00022749021
0.00022746429
0.0002274652
0.00022746653
0.00022746793
0.00022746922
0.00022747032
0.0002274712
0.00022747186
0.0002274723
0.00022747251
0.00022747251
0.0002274723
0.00022747186
0.0002274712
0.00022747032
0.00022746922
0.00022746793
0.00022746653
0.0002274652
0.00022746429
0.00022744247
0.00022744324
0.00022744436
0.00022744554
0.00022744664
0.00022744757
0.00022744832
0.00022744888
0.00022744925
0.00022744943
0.00022744943
0.00022744925
0.00022744888
0.00022744832
0.00022744757
0.00022744664
0.00022744554
0.00022744436
0.00022744324
0.00022744247
0.00022742423
0.00022742488
0.00022742582
0.00022742681
0.00022742773
0.00022742852
0.00022742915
0.00022742962
0.00022742994
0.00022743009
0.00022743009
0.00022742994
0.00022742962
0.00022742915
0.00022742852
0.00022742773
0.00022742681
0.00022742582
0.00022742488
0.00022742423
0.00022740913
0.00022740967
0.00022741045
0.00022741128
0.00022741205
0.00022741271
0.00022741325
0.00022741364
0.00022741391
0.00022741404
0.00022741404
0.00022741391
0.00022741364
0.00022741325
0.00022741271
0.00022741205
0.00022741128
0.00022741045
0.00022740967
0.00022740913
0.00022739678
0.00022739723
0.00022739788
0.00022739857
0.00022739921
0.00022739976
0.00022740021
0.00022740054
0.00022740077
0.00022740088
0.00022740088
0.00022740077
0.00022740054
0.00022740021
0.00022739976
0.00022739921
0.00022739857
0.00022739788
0.00022739723
0.00022739678
0.0002273869
0.00022738726
0.00022738779
0.00022738836
0.00022738889
0.00022738935
0.00022738973
0.00022739001
0.0002273902
0.00022739029
0.00022739029
0.0002273902
0.00022739001
0.00022738973
0.00022738935
0.00022738889
0.00022738836
0.00022738779
0.00022738726
0.0002273869
0.00022737922
0.00022737952
0.00022737995
0.00022738042
0.00022738086
0.00022738124
0.00022738156
0.0002273818
0.00022738196
0.00022738204
0.00022738204
0.00022738196
0.0002273818
0.00022738156
0.00022738124
0.00022738086
0.00022738042
0.00022737995
0.00022737952
0.00022737922
0.00022737359
0.00022737383
0.00022737418
0.00022737456
0.00022737493
0.00022737525
0.00022737552
0.00022737573
0.00022737587
0.00022737593
0.00022737593
0.00022737587
0.00022737573
0.00022737552
0.00022737525
0.00022737493
0.00022737456
0.00022737418
0.00022737383
0.00022737359
0.00022736989
0.00022737007
0.00022737036
0.00022737068
0.00022737099
0.00022737128
0.00022737151
0.00022737169
0.00022737182
0.00022737188
0.00022737188
0.00022737182
0.00022737169
0.00022737151
0.00022737128
0.00022737099
0.00022737068
0.00022737036
0.00022737007
0.00022736989
0.00022736804
0.00022736819
0.00022736844
0.00022736872
0.00022736901
0.00022736927
0.00022736949
0.00022736966
0.00022736977
0.00022736983
0.00022736983
0.00022736977
0.00022736966
0.00022736949
0.00022736927
0.00022736901
0.00022736872
0.00022736844
0.00022736819
0.00022736804
)
;

boundaryField
{
    Wall
    {
        type            calculated;
        value           uniform 0.1;
    }
    frontAndBack
    {
        type            empty;
    }
    atmosphere
    {
        type            calculated;
        value           uniform 0.1;
    }
}


// ************************************************************************* //
