/*--------------------------------*- C++ -*----------------------------------*\
| =========                 |                                                 |
| \\      /  F ield         | OpenFOAM: The Open Source CFD Toolbox           |
|  \\    /   O peration     | Version:  3.0.1                                 |
|   \\  /    A nd           | Web:      www.OpenFOAM.org                      |
|    \\/     M anipulation  |                                                 |
\*---------------------------------------------------------------------------*/
FoamFile
{
    version     2.0;
    format      ascii;
    class       volScalarField;
    location    "12";
    object      TS;
}
// * * * * * * * * * * * * * * * * * * * * * * * * * * * * * * * * * * * * * //

dimensions      [0 0 0 1 0 0 0];

internalField   nonuniform List<scalar> 
800
(
315.27408
315.27468
315.27469
315.27468
315.27468
315.27467
315.27467
315.27466
315.27466
315.27466
315.27466
315.27466
315.27466
315.27467
315.27467
315.27468
315.27468
315.27469
315.27468
315.27408
309.71387
309.78382
309.79325
309.79563
309.79751
309.79902
309.80021
309.80106
309.80161
309.80188
309.80188
309.80161
309.80106
309.80021
309.79902
309.79752
309.79563
309.79325
309.78382
309.71387
305.71178
305.79947
305.81529
305.81855
305.81988
305.82083
305.82164
305.82228
305.82272
305.82294
305.82294
305.82272
305.82228
305.82164
305.82084
305.81988
305.81856
305.81529
305.79947
305.71178
302.86206
302.9415
302.94742
302.9505
302.95342
302.95617
302.95856
302.96044
302.96174
302.9624
302.9624
302.96174
302.96044
302.95856
302.95617
302.95342
302.9505
302.94741
302.9415
302.86205
302.0966
302.1847
302.20241
302.20695
302.21004
302.21281
302.21521
302.21711
302.21842
302.21909
302.21909
302.21842
302.21711
302.21521
302.21281
302.21004
302.20695
302.20241
302.1847
302.0966
301.6768
301.6721
301.6754
301.67864
301.68169
301.68448
301.68688
301.68878
301.69008
301.69074
301.69074
301.69008
301.68878
301.68688
301.68448
301.68169
301.67864
301.6754
301.6721
301.6768
301.29144
301.29274
301.29586
301.29929
301.30256
301.30549
301.30795
301.30986
301.31116
301.31182
301.31182
301.31116
301.30986
301.30795
301.30549
301.30256
301.29928
301.29586
301.29274
301.29144
300.93198
300.9359
300.9404
300.9447
300.94852
300.95175
300.95435
300.95632
300.95764
300.9583
300.9583
300.95764
300.95632
300.95435
300.95175
300.94852
300.9447
300.9404
300.93589
300.93198
300.59912
300.60473
300.61091
300.61644
300.62102
300.62469
300.62752
300.62959
300.63095
300.63162
300.63162
300.63095
300.62959
300.62751
300.62469
300.62102
300.61644
300.61091
300.60473
300.59912
300.29434
300.30085
300.30835
300.31504
300.32045
300.32462
300.32774
300.32996
300.33139
300.33209
300.33209
300.33139
300.32996
300.32774
300.32462
300.32045
300.31503
300.30835
300.30085
300.29434
300.01792
300.02472
300.03298
300.04049
300.04659
300.05125
300.05467
300.05707
300.05859
300.05933
300.05933
300.05859
300.05707
300.05467
300.05125
300.04659
300.04049
300.03298
300.02472
300.01792
299.76911
299.77581
299.78432
299.79226
299.7988
299.80382
299.8075
299.81007
299.81169
299.81247
299.81247
299.81169
299.81007
299.8075
299.80382
299.7988
299.79226
299.78432
299.77581
299.76911
299.54651
299.5529
299.56127
299.56929
299.57601
299.58122
299.58507
299.58776
299.58946
299.59028
299.59028
299.58946
299.58776
299.58507
299.58122
299.57601
299.56929
299.56127
299.5529
299.54651
299.34837
299.35432
299.36231
299.37013
299.37679
299.38204
299.38595
299.38869
299.39044
299.39128
299.39128
299.39044
299.38869
299.38595
299.38204
299.37679
299.37013
299.36231
299.35432
299.34837
299.17275
299.17821
299.18567
299.1931
299.19952
299.20465
299.20852
299.21125
299.213
299.21385
299.21385
299.213
299.21125
299.20852
299.20465
299.19952
299.1931
299.18567
299.1782
299.17275
299.01764
299.02259
299.02945
299.03637
299.04244
299.04734
299.05107
299.05373
299.05544
299.05627
299.05627
299.05544
299.05373
299.05107
299.04734
299.04244
299.03637
299.02945
299.02259
299.01764
298.88107
298.88552
298.89175
298.89811
298.90373
298.90833
298.91186
298.9144
298.91604
298.91684
298.91684
298.91604
298.9144
298.91186
298.90833
298.90373
298.89811
298.89175
298.88552
298.88107
298.76117
298.76514
298.77075
298.77651
298.78166
298.7859
298.78919
298.79157
298.79311
298.79387
298.79387
298.79311
298.79157
298.78919
298.7859
298.78166
298.77651
298.77075
298.76514
298.76117
298.65616
298.65969
298.66469
298.66987
298.67453
298.67839
298.68141
298.68361
298.68504
298.68574
298.68574
298.68504
298.68361
298.68141
298.67839
298.67453
298.66987
298.66469
298.65969
298.65616
298.56443
298.56754
298.57198
298.57659
298.58077
298.58426
298.58699
298.58899
298.5903
298.59094
298.59094
298.5903
298.58899
298.58699
298.58426
298.58077
298.57659
298.57198
298.56754
298.56443
298.48448
298.48721
298.49112
298.49521
298.49893
298.50204
298.5045
298.5063
298.50748
298.50807
298.50807
298.50748
298.5063
298.5045
298.50204
298.49893
298.49521
298.49112
298.48721
298.48447
298.41496
298.41736
298.42079
298.42439
298.42767
298.43044
298.43262
298.43423
298.43529
298.43581
298.43581
298.43529
298.43423
298.43262
298.43044
298.42767
298.42439
298.42079
298.41736
298.41496
298.35467
298.35676
298.35976
298.36291
298.3658
298.36823
298.37016
298.37159
298.37253
298.37299
298.37299
298.37253
298.37159
298.37016
298.36823
298.3658
298.36291
298.35976
298.35676
298.35467
298.30251
298.30432
298.30694
298.30968
298.31221
298.31434
298.31603
298.31729
298.31811
298.31852
298.31852
298.31811
298.31729
298.31603
298.31434
298.3122
298.30968
298.30694
298.30432
298.30251
298.2575
298.25907
298.26133
298.26372
298.26591
298.26777
298.26925
298.27035
298.27107
298.27143
298.27143
298.27107
298.27035
298.26925
298.26777
298.26591
298.26372
298.26133
298.25907
298.2575
298.21876
298.22012
298.22207
298.22414
298.22604
298.22765
298.22893
298.22989
298.23052
298.23083
298.23083
298.23052
298.22989
298.22893
298.22765
298.22604
298.22414
298.22207
298.22011
298.21876
298.18551
298.18668
298.18836
298.19014
298.19178
298.19317
298.19429
298.19511
298.19566
298.19593
298.19593
298.19566
298.19511
298.19429
298.19317
298.19178
298.19014
298.18836
298.18668
298.18551
298.15707
298.15807
298.15951
298.16104
298.16245
298.16364
298.1646
298.16531
298.16579
298.16602
298.16602
298.16579
298.16531
298.1646
298.16364
298.16245
298.16104
298.15951
298.15806
298.15707
298.1328
298.13365
298.13489
298.1362
298.1374
298.13843
298.13925
298.13986
298.14027
298.14047
298.14047
298.14027
298.13986
298.13925
298.13843
298.1374
298.1362
298.13489
298.13365
298.1328
298.11218
298.11291
298.11396
298.11507
298.1161
298.11698
298.11768
298.1182
298.11855
298.11872
298.11872
298.11855
298.1182
298.11768
298.11698
298.1161
298.11507
298.11396
298.11291
298.11218
298.09473
298.09534
298.09624
298.09718
298.09806
298.0988
298.0994
298.09984
298.10014
298.10028
298.10028
298.10014
298.09984
298.0994
298.0988
298.09806
298.09718
298.09624
298.09534
298.09473
298.08003
298.08055
298.08131
298.08211
298.08285
298.08348
298.08398
298.08436
298.08461
298.08474
298.08474
298.08461
298.08436
298.08398
298.08348
298.08285
298.08211
298.08131
298.08055
298.08003
298.06775
298.06818
298.06882
298.06949
298.07011
298.07065
298.07107
298.07139
298.0716
298.07171
298.07171
298.0716
298.07139
298.07107
298.07065
298.07011
298.06949
298.06882
298.06818
298.06775
298.05757
298.05793
298.05846
298.05902
298.05955
298.05999
298.06035
298.06062
298.0608
298.06089
298.06089
298.0608
298.06062
298.06035
298.05999
298.05955
298.05902
298.05846
298.05793
298.05757
298.04925
298.04955
298.04999
298.05045
298.05089
298.05126
298.05156
298.05179
298.05194
298.05202
298.05202
298.05194
298.05179
298.05156
298.05126
298.05089
298.05045
298.04999
298.04955
298.04925
298.04258
298.04283
298.04319
298.04357
298.04393
298.04424
298.0445
298.04469
298.04482
298.04488
298.04488
298.04482
298.04469
298.0445
298.04424
298.04393
298.04357
298.04319
298.04283
298.04258
298.03741
298.03761
298.0379
298.03821
298.03851
298.03877
298.03899
298.03915
298.03926
298.03931
298.03931
298.03926
298.03915
298.03899
298.03877
298.03851
298.03821
298.0379
298.03761
298.03741
298.03361
298.03377
298.034
298.03426
298.03451
298.03473
298.03492
298.03505
298.03515
298.0352
298.03519
298.03515
298.03505
298.03492
298.03473
298.03451
298.03426
298.034
298.03377
298.03361
298.03111
298.03123
298.03143
298.03164
298.03186
298.03205
298.03221
298.03233
298.03242
298.03246
298.03246
298.03242
298.03233
298.03221
298.03205
298.03186
298.03164
298.03143
298.03123
298.03111
298.02986
298.02997
298.03013
298.03033
298.03052
298.0307
298.03084
298.03096
298.03104
298.03108
298.03108
298.03104
298.03096
298.03084
298.0307
298.03052
298.03033
298.03013
298.02997
298.02986
)
;

boundaryField
{
    Wall
    {
        type            zeroGradient;
    }
    frontAndBack
    {
        type            empty;
    }
    atmosphere
    {
        type            zeroGradient;
    }
}


// ************************************************************************* //
