/*--------------------------------*- C++ -*----------------------------------*\
| =========                 |                                                 |
| \\      /  F ield         | OpenFOAM: The Open Source CFD Toolbox           |
|  \\    /   O peration     | Version:  3.0.1                                 |
|   \\  /    A nd           | Web:      www.OpenFOAM.org                      |
|    \\/     M anipulation  |                                                 |
\*---------------------------------------------------------------------------*/
FoamFile
{
    version     2.0;
    format      ascii;
    class       volVectorField;
    location    "12";
    object      U;
}
// * * * * * * * * * * * * * * * * * * * * * * * * * * * * * * * * * * * * * //

dimensions      [0 1 -1 0 0 0 0];

internalField   nonuniform List<vector> 
800
(
(2.7079939e-06 0.00043065276 0)
(4.5189379e-06 0.00043311853 0)
(3.9595758e-06 0.00043397462 0)
(3.3546328e-06 0.00043408126 0)
(2.9077854e-06 0.00043425567 0)
(2.4138714e-06 0.00043442546 0)
(1.900162e-06 0.00043457185 0)
(1.3698741e-06 0.0004346821 0)
(8.2693767e-07 0.00043475359 0)
(2.7629643e-07 0.00043478915 0)
(-2.7601583e-07 0.00043478914 0)
(-8.2666268e-07 0.00043475356 0)
(-1.369605e-06 0.00043468207 0)
(-1.8999003e-06 0.00043457181 0)
(-2.413613e-06 0.00043442543 0)
(-2.907543e-06 0.00043425566 0)
(-3.3544265e-06 0.00043408127 0)
(-3.959446e-06 0.00043397466 0)
(-4.5189836e-06 0.00043311859 0)
(-2.7080829e-06 0.0004306527 0)
(7.2338086e-08 0.00081562402 0)
(1.5364638e-06 0.00081995111 0)
(2.2711048e-06 0.00082076928 0)
(2.1854457e-06 0.00082071258 0)
(2.1272542e-06 0.00082065585 0)
(1.8365475e-06 0.00082061302 0)
(1.477417e-06 0.00082058192 0)
(1.0768579e-06 0.00082055645 0)
(6.538058e-07 0.00082053725 0)
(2.1913881e-07 0.0008205271 0)
(-2.1892422e-07 0.00082052707 0)
(-6.5359369e-07 0.00082053718 0)
(-1.0766483e-06 0.00082055634 0)
(-1.4772097e-06 0.00082058178 0)
(-1.8363441e-06 0.00082061287 0)
(-2.1270718e-06 0.00082065569 0)
(-2.1852964e-06 0.0008207124 0)
(-2.2709988e-06 0.00082076909 0)
(-1.536457e-06 0.00081995089 0)
(-7.2350031e-08 0.00081562369 0)
(3.2936475e-07 0.0014854755 0)
(1.5473519e-06 0.0014929683 0)
(2.0801762e-06 0.0014941508 0)
(1.992479e-06 0.0014944707 0)
(1.9216508e-06 0.0014946287 0)
(1.6424267e-06 0.0014947311 0)
(1.3073332e-06 0.0014947852 0)
(9.4422683e-07 0.0014948066 0)
(5.6967467e-07 0.0014948129 0)
(1.9026055e-07 0.0014948135 0)
(-1.9007117e-07 0.0014948134 0)
(-5.6948165e-07 0.0014948128 0)
(-9.4402867e-07 0.0014948065 0)
(-1.3071271e-06 0.001494785 0)
(-1.6422198e-06 0.001494731 0)
(-1.9214769e-06 0.0014946286 0)
(-1.9923348e-06 0.0014944705 0)
(-2.0800591e-06 0.0014941507 0)
(-1.5473174e-06 0.0014929682 0)
(-3.2934871e-07 0.0014854753 0)
(9.7964628e-08 0.0019510003 0)
(1.3138537e-06 0.0019616921 0)
(2.3813955e-06 0.0019634248 0)
(2.4624142e-06 0.0019641187 0)
(2.3003961e-06 0.0019643954 0)
(1.9094747e-06 0.001964519 0)
(1.4711056e-06 0.0019645369 0)
(1.0371295e-06 0.0019645156 0)
(6.169814e-07 0.00196449 0)
(2.0455363e-07 0.0019644736 0)
(-2.043559e-07 0.0019644736 0)
(-6.1676716e-07 0.0019644899 0)
(-1.0368956e-06 0.0019645155 0)
(-1.4708388e-06 0.0019645368 0)
(-1.9091939e-06 0.001964519 0)
(-2.3001692e-06 0.0019643954 0)
(-2.4622125e-06 0.0019641186 0)
(-2.3811997e-06 0.0019634247 0)
(-1.313792e-06 0.0019616921 0)
(-9.7971273e-08 0.0019510003 0)
(4.0802497e-06 0.0022655993 0)
(6.9075093e-06 0.0022772745 0)
(5.5852595e-06 0.0022790353 0)
(4.6420596e-06 0.0022802549 0)
(3.7267465e-06 0.0022807482 0)
(2.8648148e-06 0.0022809457 0)
(2.0825165e-06 0.0022809882 0)
(1.4341979e-06 0.0022809558 0)
(8.4551637e-07 0.00228093 0)
(2.7798545e-07 0.0022809085 0)
(-2.7774758e-07 0.0022809085 0)
(-8.4522631e-07 0.0022809299 0)
(-1.4338489e-06 0.0022809557 0)
(-2.0820225e-06 0.0022809881 0)
(-2.8642898e-06 0.0022809456 0)
(-3.7264603e-06 0.0022807482 0)
(-4.641841e-06 0.0022802549 0)
(-5.5849367e-06 0.0022790353 0)
(-6.9074513e-06 0.0022772745 0)
(-4.080364e-06 0.0022655993 0)
(4.6805776e-05 0.0023928446 0)
(6.4906303e-05 0.0024314769 0)
(3.806329e-05 0.0024326071 0)
(2.5140048e-05 0.0024327572 0)
(1.7146959e-05 0.0024326095 0)
(1.2097011e-05 0.0024320763 0)
(8.3342227e-06 0.0024318032 0)
(5.5337191e-06 0.0024315316 0)
(3.281512e-06 0.0024313769 0)
(1.0500652e-06 0.0024312381 0)
(-1.0502034e-06 0.0024312382 0)
(-3.2814009e-06 0.0024313768 0)
(-5.5329281e-06 0.0024315313 0)
(-8.3328707e-06 0.0024318036 0)
(-1.2095435e-05 0.0024320758 0)
(-1.7146456e-05 0.0024326097 0)
(-2.5140114e-05 0.002432758 0)
(-3.806279e-05 0.0024326076 0)
(-6.490657e-05 0.0024314774 0)
(-4.6806333e-05 0.0023928453 0)
(0.00024916757 0.0020964624 0)
(0.00041362493 0.002393448 0)
(0.00033524049 0.0023989244 0)
(0.00025131201 0.0023847001 0)
(0.00018314283 0.0023737066 0)
(0.00013177866 0.0023668441 0)
(9.2673729e-05 0.0023623738 0)
(6.1838136e-05 0.0023607372 0)
(3.5565073e-05 0.0023596238 0)
(1.1459968e-05 0.0023588172 0)
(-1.1467302e-05 0.0023588163 0)
(-3.5571202e-05 0.0023596232 0)
(-6.1840551e-05 0.0023607352 0)
(-9.2674317e-05 0.0023623719 0)
(-0.00013177756 0.0023668445 0)
(-0.00018314107 0.0023737065 0)
(-0.00025131296 0.002384703 0)
(-0.00033524038 0.0023989238 0)
(-0.00041362405 0.0023934479 0)
(-0.00024916803 0.0020964613 0)
(0.00026892965 0.0015758776 0)
(0.00055521457 0.002267547 0)
(0.00056944503 0.0024096819 0)
(0.00048978532 0.0024221478 0)
(0.00038780149 0.0024015907 0)
(0.00029239948 0.0023784623 0)
(0.0002115148 0.0023588535 0)
(0.00014369097 0.0023474614 0)
(8.2740786e-05 0.0023399711 0)
(2.6813214e-05 0.0023363649 0)
(-2.6826058e-05 0.0023363625 0)
(-8.2753547e-05 0.0023399687 0)
(-0.0001437005 0.0023474545 0)
(-0.00021152178 0.0023588505 0)
(-0.00029240599 0.0023784627 0)
(-0.00038780327 0.0024015896 0)
(-0.00048978877 0.00242215 0)
(-0.00056944758 0.0024096813 0)
(-0.00055521445 0.0022675448 0)
(-0.00026893115 0.0015758755 0)
(0.00017030373 0.0012165308 0)
(0.00042016479 0.0021101877 0)
(0.00050493071 0.0024180188 0)
(0.00047847064 0.0025052107 0)
(0.00040414723 0.0025055965 0)
(0.00031832743 0.0024789932 0)
(0.00023700967 0.0024501643 0)
(0.0001641651 0.002429075 0)
(9.5243591e-05 0.0024152291 0)
(3.1057106e-05 0.0024087565 0)
(-3.1066086e-05 0.0024087542 0)
(-9.5254121e-05 0.0024152246 0)
(-0.00016417449 0.0024290661 0)
(-0.00023701613 0.0024501588 0)
(-0.00031833583 0.0024789933 0)
(-0.00040414909 0.0025055933 0)
(-0.00047847404 0.0025052105 0)
(-0.00050493388 0.002418019 0)
(-0.00042016313 0.0021101842 0)
(-0.00017030416 0.0012165286 0)
(9.4670602e-05 0.00098575886 0)
(0.000272504 0.0019514617 0)
(0.00037176109 0.0023815111 0)
(0.00038120378 0.0025440044 0)
(0.00034109508 0.0025781518 0)
(0.00028029284 0.0025595011 0)
(0.00021526981 0.0025298523 0)
(0.00015222051 0.002503976 0)
(8.9381118e-05 0.0024866608 0)
(2.9350213e-05 0.0024784187 0)
(-2.9351744e-05 0.0024784172 0)
(-8.9385371e-05 0.0024866548 0)
(-0.00015222464 0.0025039684 0)
(-0.00021526919 0.0025298452 0)
(-0.00028029864 0.0025594998 0)
(-0.00034109681 0.0025781464 0)
(-0.0003812026 0.0025440005 0)
(-0.0003717626 0.002381512 0)
(-0.0002725027 0.0019514587 0)
(-9.4670204e-05 0.00098575559 0)
(5.1983549e-05 0.00084889205 0)
(0.00016880424 0.0018225662 0)
(0.00025497272 0.0023260332 0)
(0.00027972326 0.0025479222 0)
(0.00026328959 0.0026156061 0)
(0.00022498748 0.002611148 0)
(0.00017844043 0.002586538 0)
(0.00012876447 0.0025609277 0)
(7.6697116e-05 0.0025429511 0)
(2.5364677e-05 0.0025341989 0)
(-2.5360843e-05 0.0025341981 0)
(-7.6695063e-05 0.0025429453 0)
(-0.00012876265 0.0025609219 0)
(-0.00017843346 0.0025865306 0)
(-0.00022498945 0.0026111429 0)
(-0.00026329039 0.0026156014 0)
(-0.00027971719 0.0025479176 0)
(-0.00025497109 0.0023260333 0)
(-0.00016880325 0.0018225637 0)
(-5.1983198e-05 0.00084888889 0)
(2.9330462e-05 0.00076815403 0)
(0.00010438548 0.0017300979 0)
(0.00017090327 0.0022747722 0)
(0.00019856953 0.0025380992 0)
(0.00019496643 0.0026329761 0)
(0.00017257448 0.002644221 0)
(0.00014117361 0.0026272315 0)
(0.00010372386 0.0026050441 0)
(6.2693973e-05 0.0025883735 0)
(2.0910992e-05 0.0025800585 0)
(-2.0903579e-05 0.0025800577 0)
(-6.2687987e-05 0.002588369 0)
(-0.00010371793 0.0026050398 0)
(-0.00014116349 0.002627225 0)
(-0.00017257207 0.0026442133 0)
(-0.00019496474 0.0026329747 0)
(-0.00019856166 0.0025380963 0)
(-0.00017090008 0.002274772 0)
(-0.00010438378 0.0017300971 0)
(-2.9329434e-05 0.00076815187 0)
(1.7317836e-05 0.00071917429 0)
(6.5785144e-05 0.0016666675 0)
(0.00011432184 0.0022340786 0)
(0.0001391057 0.0025245264 0)
(0.00014143292 0.0026397652 0)
(0.0001291569 0.0026652367 0)
(0.00010858088 0.0026562343 0)
(8.1014001e-05 0.0026388013 0)
(4.9626735e-05 0.0026245762 0)
(1.6697336e-05 0.0026172092 0)
(-1.6688297e-05 0.0026172081 0)
(-4.9618446e-05 0.0026245728 0)
(-8.1006146e-05 0.0026387974 0)
(-0.00010857071 0.002656229 0)
(-0.00012915032 0.0026652287 0)
(-0.00014142846 0.0026397658 0)
(-0.00013909879 0.0025245244 0)
(-0.00011431734 0.0022340789 0)
(-6.578273e-05 0.0016666686 0)
(-1.7317168e-05 0.00071917335 0)
(1.0659194e-05 0.00068859562 0)
(4.2343354e-05 0.001623554 0)
(7.6818405e-05 0.0022033906 0)
(9.6958102e-05 0.0025112216 0)
(0.00010151981 0.0026411659 0)
(9.5239215e-05 0.0026781124 0)
(8.1888109e-05 0.0026764286 0)
(6.1941798e-05 0.0026639211 0)
(3.8375954e-05 0.0026525616 0)
(1.2998734e-05 0.002646398 0)
(-1.2988905e-05 0.0026463972 0)
(-3.8366725e-05 0.0026525589 0)
(-6.1933267e-05 0.0026639173 0)
(-8.1878679e-05 0.0026764239 0)
(-9.5229718e-05 0.0026781057 0)
(-0.00010151346 0.0026411659 0)
(-9.695254e-05 0.0025112205 0)
(-7.6813169e-05 0.0022033926 0)
(-4.2340248e-05 0.001623557 0)
(-1.0658195e-05 0.00068859683 0)
(6.7760708e-06 0.00066891492 0)
(2.7779938e-05 0.001594165 0)
(5.2005719e-05 0.0021808776 0)
(6.750285e-05 0.002499796 0)
(7.2445646e-05 0.0026401352 0)
(6.9540294e-05 0.0026857574 0)
(6.0871305e-05 0.002690322 0)
(4.6624263e-05 0.0026822898 0)
(2.9166974e-05 0.0026736952 0)
(9.9293356e-06 0.0026687949 0)
(-9.9198937e-06 0.0026687942 0)
(-2.9158024e-05 0.002673693 0)
(-4.6615898e-05 0.0026822862 0)
(-6.0863496e-05 0.002690318 0)
(-6.9530534e-05 0.0026857517 0)
(-7.2438816e-05 0.0026401342 0)
(-6.749813e-05 0.0024997959 0)
(-5.2000044e-05 0.0021808811 0)
(-2.7776856e-05 0.0015941703 0)
(-6.7751836e-06 0.00066891757 0)
(4.4275514e-06 0.00065598045 0)
(1.8531537e-05 0.0015740969 0)
(3.5497043e-05 0.0021646342 0)
(4.7029588e-05 0.0024906216 0)
(5.1534045e-05 0.0026382267 0)
(5.0438988e-05 0.0026902234 0)
(4.4762845e-05 0.0026998584 0)
(3.4672349e-05 0.0026956036 0)
(2.1870908e-05 0.0026894306 0)
(7.4757713e-06 0.0026856907 0)
(-7.4675645e-06 0.0026856898 0)
(-2.1862823e-05 0.0026894284 0)
(-3.4664897e-05 0.0026956002 0)
(-4.4756254e-05 0.0026998549 0)
(-5.042897e-05 0.0026902192 0)
(-5.1527177e-05 0.0026382256 0)
(-4.7025592e-05 0.0024906224 0)
(-3.5491143e-05 0.0021646384 0)
(-1.8528955e-05 0.0015741037 0)
(-4.4270117e-06 0.0006559843 0)
(2.9447967e-06 0.00064733783 0)
(1.2521953e-05 0.0015603125 0)
(2.441261e-05 0.0021530155 0)
(3.281549e-05 0.002483534 0)
(3.6606104e-05 0.0026362042 0)
(3.6428059e-05 0.0026927994 0)
(3.2653372e-05 0.0027064017 0)
(2.5542145e-05 0.0027051952 0)
(1.6223938e-05 0.0027010357 0)
(5.5634716e-06 0.002698286 0)
(-5.5570213e-06 0.0026982852 0)
(-1.6217064e-05 0.0027010336 0)
(-2.5535416e-05 0.0027051921 0)
(-3.2647731e-05 0.0027063987 0)
(-3.6419354e-05 0.0026927964 0)
(-3.6600634e-05 0.0026362021 0)
(-3.2813226e-05 0.0024835367 0)
(-2.4407465e-05 0.00215302 0)
(-1.2518995e-05 0.0015603206 0)
(-2.9442424e-06 0.00064734288 0)
(1.9800911e-06 0.00064148509 0)
(8.5533315e-06 0.0015507831 0)
(1.6898552e-05 0.0021447333 0)
(2.2943091e-05 0.0024781824 0)
(2.5989786e-05 0.0026344055 0)
(2.6226712e-05 0.002694275 0)
(2.3684332e-05 0.0027108985 0)
(1.8681048e-05 0.0027120746 0)
(1.1933306e-05 0.0027095286 0)
(4.1028869e-06 0.0027075886 0)
(-4.0975321e-06 0.002707588 0)
(-1.1928044e-05 0.002709527 0)
(-1.8675683e-05 0.0027120718 0)
(-2.3679654e-05 0.0027108954 0)
(-2.621986e-05 0.0026942723 0)
(-2.5984162e-05 0.0026344018 0)
(-2.2941142e-05 0.0024781861 0)
(-1.6895464e-05 0.0021447386 0)
(-8.5504281e-06 0.0015507922 0)
(-1.9795939e-06 0.00064149088 0)
(1.3431095e-06 0.00063748728 0)
(5.8915766e-06 0.0015441676 0)
(1.1748617e-05 0.0021388316 0)
(1.6092024e-05 0.002474223 0)
(1.8465086e-05 0.0026329163 0)
(1.8824847e-05 0.0026951265 0)
(1.7107063e-05 0.0027140023 0)
(1.3587158e-05 0.0027169952 0)
(8.7191201e-06 0.0027157058 0)
(3.0041429e-06 0.0027144063 0)
(-3.0000043e-06 0.0027144058 0)
(-8.7147053e-06 0.0027157045 0)
(-1.3582659e-05 0.0027169927 0)
(-1.7103287e-05 0.0027139993 0)
(-1.8820454e-05 0.0026951242 0)
(-1.8459942e-05 0.0026329132 0)
(-1.6089781e-05 0.0024742249 0)
(-1.1746735e-05 0.0021388379 0)
(-5.8889307e-06 0.0015441773 0)
(-1.3428021e-06 0.00063749375 0)
(9.1953953e-07 0.0006347376 0)
(4.0751737e-06 0.0015395528 0)
(8.1931544e-06 0.0021346294 0)
(1.1327404e-05 0.0024713443 0)
(1.3128982e-05 0.0026317071 0)
(1.3479058e-05 0.0026956166 0)
(1.2319202e-05 0.0027161518 0)
(9.8384591e-06 0.0027205077 0)
(6.3367841e-06 0.0027201785 0)
(2.1871478e-06 0.0027193724 0)
(-2.1844262e-06 0.0027193717 0)
(-6.3337511e-06 0.0027201771 0)
(-9.8351278e-06 0.0027205056 0)
(-1.2315875e-05 0.0027161491 0)
(-1.3475761e-05 0.0026956147 0)
(-1.312541e-05 0.0026317058 0)
(-1.1325018e-05 0.0024713452 0)
(-8.1912753e-06 0.0021346363 0)
(-4.0736161e-06 0.0015395622 0)
(-9.1933957e-07 0.00063474453 0)
(6.3348035e-07 0.00063283681 0)
(2.8285762e-06 0.0015363126 0)
(5.7323102e-06 0.0021316496 0)
(7.9926894e-06 0.0024692596 0)
(9.333825e-06 0.0026307567 0)
(9.637474e-06 0.0026959015 0)
(8.8528208e-06 0.0027176449 0)
(7.0993008e-06 0.0027230122 0)
(4.5858521e-06 0.0027234052 0)
(1.5849159e-06 0.0027229729 0)
(-1.58334e-06 0.0027229723 0)
(-4.5837134e-06 0.0027234042 0)
(-7.0971044e-06 0.0027230101 0)
(-8.8503312e-06 0.0027176426 0)
(-9.634994e-06 0.0026958996 0)
(-9.3313403e-06 0.0026307564 0)
(-7.9903924e-06 0.0024692612 0)
(-5.7307355e-06 0.0021316559 0)
(-2.8272144e-06 0.0015363217 0)
(-6.3282075e-07 0.00063284393 0)
(4.3669016e-07 0.0006315194 0)
(1.9707739e-06 0.0015340337 0)
(4.0243956e-06 0.0021295318 0)
(5.6481181e-06 0.0024677456 0)
(6.6340079e-06 0.002630036 0)
(6.8843788e-06 0.0026960709 0)
(6.3511214e-06 0.0027186855 0)
(5.1088892e-06 0.0027247968 0)
(3.3077775e-06 0.0027257267 0)
(1.1443667e-06 0.0027255742 0)
(-1.1434169e-06 0.0027255737 0)
(-3.3061124e-06 0.0027257259 0)
(-5.1069512e-06 0.002724795 0)
(-6.3492717e-06 0.0027186834 0)
(-6.8825371e-06 0.002696069 0)
(-6.6319857e-06 0.0026300357 0)
(-5.6464042e-06 0.0024677473 0)
(-4.0231384e-06 0.0021295375 0)
(-1.9693573e-06 0.0015340436 0)
(-4.3594826e-07 0.00063152725 0)
(3.023386e-07 0.00063060291 0)
(1.3779691e-06 0.0015324305 0)
(2.8325749e-06 0.0021280241 0)
(3.9964974e-06 0.0024666493 0)
(4.7155921e-06 0.0026294999 0)
(4.9132511e-06 0.002696172 0)
(4.5493479e-06 0.0027194137 0)
(3.66928e-06 0.0027260689 0)
(2.3797964e-06 0.0027273936 0)
(8.2407544e-07 0.0027274481 0)
(-8.232889e-07 0.0027274475 0)
(-2.3788056e-06 0.0027273921 0)
(-3.6681309e-06 0.0027260671 0)
(-4.5481153e-06 0.0027194114 0)
(-4.9118877e-06 0.00269617 0)
(-4.7140447e-06 0.0026294991 0)
(-3.9948359e-06 0.0024666505 0)
(-2.8307285e-06 0.0021280294 0)
(-1.3760849e-06 0.0015324409 0)
(-3.0151258e-07 0.00063061141 0)
(2.0993872e-07 0.00062996359 0)
(9.6610299e-07 0.0015312995 0)
(1.997698e-06 0.002126951 0)
(2.8309776e-06 0.0024658598 0)
(3.352788e-06 0.0026291049 0)
(3.5043179e-06 0.0026962315 0)
(3.2549913e-06 0.0027199257 0)
(2.6307341e-06 0.0027269742 0)
(1.7078852e-06 0.002728588 0)
(5.9194596e-07 0.0027287944 0)
(-5.9177936e-07 0.0027287938 0)
(-1.7078276e-06 0.0027285862 0)
(-2.630327e-06 0.0027269723 0)
(-3.254135e-06 0.0027199231 0)
(-3.5030785e-06 0.002696229 0)
(-3.3514869e-06 0.0026291031 0)
(-2.8291482e-06 0.0024658603 0)
(-1.9953678e-06 0.0021269558 0)
(-9.6388348e-07 0.0015313101 0)
(-2.0895672e-07 0.00062997244 0)
(1.4591692e-07 0.00062951586 0)
(6.7843954e-07 0.0015304998 0)
(1.4110201e-06 0.0021261874 0)
(2.0069413e-06 0.0024652931 0)
(2.3842516e-06 0.0026288158 0)
(2.4980437e-06 0.0026962659 0)
(2.3256878e-06 0.0027202862 0)
(1.8837531e-06 0.0027276182 0)
(1.2241267e-06 0.0027294422 0)
(4.2386429e-07 0.0027297594 0)
(-4.2496203e-07 0.0027297589 0)
(-1.2249767e-06 0.0027294406 0)
(-1.8843022e-06 0.0027276159 0)
(-2.3257931e-06 0.0027202831 0)
(-2.4976192e-06 0.0026962627 0)
(-2.383398e-06 0.002628813 0)
(-2.0052376e-06 0.0024652924 0)
(-1.4086391e-06 0.0021261917 0)
(-6.761674e-07 0.0015305106 0)
(-1.4490659e-07 0.00062952576 0)
(1.0172265e-07 0.00062920205 0)
(4.7754048e-07 0.0015299337 0)
(9.9807285e-07 0.0021256439 0)
(1.4238702e-06 0.0024648865 0)
(1.6957186e-06 0.0026286055 0)
(1.7800827e-06 0.0026962858 0)
(1.6600277e-06 0.0027205404 0)
(1.3465674e-06 0.002728078 0)
(8.7580912e-07 0.0027300532 0)
(3.0296361e-07 0.0027304509 0)
(-3.0503384e-07 0.0027304504 0)
(-8.7766515e-07 0.0027300515 0)
(-1.3481521e-06 0.0027280752 0)
(-1.6613611e-06 0.0027205367 0)
(-1.7808681e-06 0.002696282 0)
(-1.6956286e-06 0.0026286019 0)
(-1.4227601e-06 0.0024648849 0)
(-9.9633785e-07 0.0021256476 0)
(-4.7561227e-07 0.0015299445 0)
(-1.0081983e-07 0.0006292129 0)
(7.0798133e-08 0.00062898186 0)
(3.3617127e-07 0.0015295323 0)
(7.0636105e-07 0.0021252567 0)
(1.010803e-06 0.0024645953 0)
(1.2063494e-06 0.0026284533 0)
(1.268044e-06 0.0026962976 0)
(1.1843265e-06 0.0027207195 0)
(9.6167128e-07 0.0027284054 0)
(6.2540959e-07 0.00273049 0)
(2.1578369e-07 0.0027309461 0)
(-2.192896e-07 0.0027309456 0)
(-6.2898789e-07 0.0027304884 0)
(-9.6458079e-07 0.0027284026 0)
(-1.1867013e-06 0.0027207156 0)
(-1.270144e-06 0.002696293 0)
(-1.2073577e-06 0.0026284489 0)
(-1.0109335e-06 0.0024645929 0)
(-7.0587888e-07 0.0021252598 0)
(-3.3511866e-07 0.0015295434 0)
(-7.026233e-08 0.00062899345 0)
(4.9065177e-08 0.00062882726 0)
(2.3646979e-07 0.0015292471 0)
(5.0027895e-07 0.0021249809 0)
(7.1767022e-07 0.0024643869 0)
(8.5786713e-07 0.0026283434 0)
(9.0340299e-07 0.0026963044 0)
(8.4461777e-07 0.002720846 0)
(6.8632953e-07 0.0027286379 0)
(4.4657098e-07 0.0027308013 0)
(1.5330554e-07 0.0027312994 0)
(-1.5811669e-07 0.0027312989 0)
(-4.5084111e-07 0.0027308 0)
(-6.904072e-07 0.002728635 0)
(-8.4821105e-07 0.0027208419 0)
(-9.0647407e-07 0.002696299 0)
(-8.6067625e-07 0.0026283381 0)
(-7.1965969e-07 0.0024643837 0)
(-5.0119337e-07 0.0021249831 0)
(-2.3647564e-07 0.0015292585 0)
(-4.8977583e-08 0.00062883941 0)
(3.3538507e-08 0.00062871876 0)
(1.6571672e-07 0.0015290448 0)
(3.5396082e-07 0.0021247839 0)
(5.0921091e-07 0.0024642376 0)
(6.0972885e-07 0.002628264 0)
(6.4292905e-07 0.0026963081 0)
(6.0184512e-07 0.0027209354 0)
(4.8942207e-07 0.0027288034 0)
(3.1809882e-07 0.0027310233 0)
(1.0847818e-07 0.0027315515 0)
(-1.1438747e-07 0.0027315507 0)
(-3.2389293e-07 0.0027310218 0)
(-4.9466192e-07 0.0027288001 0)
(-6.0702361e-07 0.002720931 0)
(-6.4820814e-07 0.0026963024 0)
(-6.1452944e-07 0.002628258 0)
(-5.1307348e-07 0.0024642335 0)
(-3.5671569e-07 0.0021247852 0)
(-1.673957e-07 0.0015290555 0)
(-3.420092e-08 0.00062873076 0)
(2.3136683e-08 0.00062864257 0)
(1.1611963e-07 0.001528901 0)
(2.5019877e-07 0.0021246429 0)
(3.6151026e-07 0.0024641302 0)
(4.3370706e-07 0.0026282062 0)
(4.5801033e-07 0.0026963098 0)
(4.289296e-07 0.0027209985 0)
(3.4850798e-07 0.002728921 0)
(2.2614622e-07 0.0027311818 0)
(7.6401747e-08 0.0027317316 0)
(-8.3058121e-08 0.0027317307 0)
(-2.3322149e-07 0.00273118 0)
(-3.5562498e-07 0.0027289176 0)
(-4.3581459e-07 0.0027209937 0)
(-4.6468396e-07 0.0026963041 0)
(-4.4003343e-07 0.0026282001 0)
(-3.67029e-07 0.0024641254 0)
(-2.5476397e-07 0.0021246434 0)
(-1.1907738e-07 0.0015289103 0)
(-2.4146852e-08 0.00062865383 0)
(1.5482866e-08 0.0006285897 0)
(8.0654155e-08 0.0015287986 0)
(1.7635117e-07 0.0021245418 0)
(2.5628141e-07 0.0024640525 0)
(3.0851774e-07 0.0026281641 0)
(3.2645604e-07 0.0026963103 0)
(3.0580246e-07 0.0027210426 0)
(2.4804557e-07 0.0027290047 0)
(1.6035785e-07 0.0027312951 0)
(5.3085756e-08 0.0027318602 0)
(-6.1211143e-08 0.0027318594 0)
(-1.6887339e-07 0.002731293 0)
(-2.5680436e-07 0.0027290014 0)
(-3.1431842e-07 0.0027210382 0)
(-3.349512e-07 0.0026963046 0)
(-3.1719619e-07 0.0026281577 0)
(-2.6440361e-07 0.0024640474 0)
(-1.8312792e-07 0.0021245412 0)
(-8.4991026e-08 0.0015288059 0)
(-1.6941165e-08 0.00062859923 0)
(1.0364163e-08 0.00062855293 0)
(5.6153785e-08 0.0015287257 0)
(1.2453207e-07 0.0021244691 0)
(1.8220661e-07 0.0024639962 0)
(2.2023468e-07 0.0026281333 0)
(2.3332438e-07 0.0026963101 0)
(2.1873482e-07 0.0027210742 0)
(1.7714359e-07 0.0027290646 0)
(1.1379672e-07 0.0027313761 0)
(3.6541785e-08 0.0027319524 0)
(-4.5996885e-08 0.0027319516 0)
(-1.2355963e-07 0.0027313741 0)
(-1.8692295e-07 0.0027290613 0)
(-2.2854154e-07 0.0027210699 0)
(-2.4332207e-07 0.0026963044 0)
(-2.3045936e-07 0.0026281267 0)
(-1.9215982e-07 0.0024639905 0)
(-1.3281579e-07 0.0021244668 0)
(-6.1243629e-08 0.0015287302 0)
(-1.2075295e-08 0.00062855992 0)
(6.7315978e-09 0.00062852735 0)
(3.8964017e-08 0.0015286736 0)
(8.8613353e-08 0.0021244161 0)
(1.3079808e-07 0.002463955 0)
(1.5855513e-07 0.0026281107 0)
(1.6814474e-07 0.0026963098 0)
(1.5731627e-07 0.0027210969 0)
(1.2693266e-07 0.0027291077 0)
(8.0904351e-08 0.0027314345 0)
(2.4670013e-08 0.0027320189 0)
(-3.513567e-08 0.0027320181 0)
(-9.1616514e-08 0.0027314326 0)
(-1.3814556e-07 0.0027291046 0)
(-1.6875197e-07 0.0027210927 0)
(-1.7980487e-07 0.0026963041 0)
(-1.706339e-07 0.002628104 0)
(-1.4240408e-07 0.0024639484 0)
(-9.853613e-08 0.0021244119 0)
(-4.5257291e-08 0.0015286745 0)
(-8.7132226e-09 0.00062853133 0)
(4.5011589e-09 0.00062850952 0)
(2.8022378e-08 0.0015286353 0)
(6.5325625e-08 0.0021243766 0)
(9.7002117e-08 0.0024639244 0)
(1.1728293e-07 0.0026280941 0)
(1.2375469e-07 0.0026963096 0)
(1.1518338e-07 0.0027211135 0)
(9.22616e-08 0.0027291393 0)
(5.795975e-08 0.0027314771 0)
(1.6310399e-08 0.0027320673 0)
(-2.7877212e-08 0.0027320667 0)
(-6.9802578e-08 0.0027314753 0)
(-1.04339e-07 0.0027291365 0)
(-1.2740012e-07 0.0027211096 0)
(-1.3627837e-07 0.0026963041 0)
(-1.3008213e-07 0.0026280873 0)
(-1.0928478e-07 0.002463917 0)
(-7.5839555e-08 0.0021243706 0)
(-3.4917486e-08 0.0015286324 0)
(-6.8158202e-09 0.00062850984 0)
(3.2666658e-09 0.00062849646 0)
(2.1428303e-08 0.0015286065 0)
(5.088498e-08 0.0021243468 0)
(7.557448e-08 0.0024639015 0)
(9.0834472e-08 0.0026280818 0)
(9.4656123e-08 0.0026963102 0)
(8.6733878e-08 0.0027211268 0)
(6.8258796e-08 0.002729163 0)
(4.1763739e-08 0.0027315089 0)
(1.0433622e-08 0.0027321033 0)
(-2.2952823e-08 0.002732103 0)
(-5.4903177e-08 0.0027315073 0)
(-8.1643165e-08 0.0027291605 0)
(-9.9919372e-08 0.0027211229 0)
(-1.0773471e-07 0.0026963046 0)
(-1.0399414e-07 0.0026280748 0)
(-8.831608e-08 0.0024638928 0)
(-6.1902569e-08 0.0021243382 0)
(-2.8680551e-08 0.0015285989 0)
(-5.6263113e-09 0.00062849257 0)
(2.602139e-09 0.00062848619 0)
(1.8706622e-08 0.0015285832 0)
(4.4389618e-08 0.0021243228 0)
(6.4542448e-08 0.0024638838 0)
(7.5873521e-08 0.0026280735 0)
(7.7055782e-08 0.0026963121 0)
(6.8614156e-08 0.0027211382 0)
(5.2779024e-08 0.0027291824 0)
(3.1379791e-08 0.0027315339 0)
(6.4439209e-09 0.0027321315 0)
(-1.989579e-08 0.0027321309 0)
(-4.5335938e-08 0.0027315323 0)
(-6.6985256e-08 0.0027291798 0)
(-8.2714922e-08 0.0027211344 0)
(-9.0722075e-08 0.0026963063 0)
(-8.9380353e-08 0.0026280661 0)
(-7.7528211e-08 0.0024638736 0)
(-5.5105583e-08 0.0021243108 0)
(-2.5484486e-08 0.0015285705 0)
(-4.8667871e-09 0.00062847784 0)
(2.3080617e-09 0.00062847748 0)
(1.8175184e-08 0.0015285626 0)
(4.3968762e-08 0.0021243024 0)
(6.2777333e-08 0.0024638705 0)
(7.0370011e-08 0.0026280703 0)
(6.8048669e-08 0.0026963182 0)
(5.8056636e-08 0.0027211516 0)
(4.2773338e-08 0.0027292016 0)
(2.430073e-08 0.0027315568 0)
(3.6261749e-09 0.0027321561 0)
(-1.8024175e-08 0.0027321555 0)
(-3.9034413e-08 0.0027315551 0)
(-5.77253e-08 0.0027291989 0)
(-7.2907494e-08 0.0027211476 0)
(-8.2566932e-08 0.0026963121 0)
(-8.4213366e-08 0.0026280622 0)
(-7.5599849e-08 0.002463859 0)
(-5.4826128e-08 0.0021242871 0)
(-2.5192917e-08 0.0015285452 0)
(-4.584405e-09 0.00062846524 0)
(2.4314634e-09 0.000628467 0)
(2.045382e-08 0.001528539 0)
(4.893185e-08 0.0021242795 0)
(6.7415905e-08 0.0024638567 0)
(7.1915609e-08 0.002628067 0)
(6.5067314e-08 0.002696323 0)
(5.20283e-08 0.0027211617 0)
(3.6112781e-08 0.0027292149 0)
(1.8659351e-08 0.002731572 0)
(8.259431e-10 0.002732172 0)
(-1.7111744e-08 0.0027321713 0)
(-3.4922291e-08 0.0027315701 0)
(-5.2113945e-08 0.002729212 0)
(-6.7937404e-08 0.0027211571 0)
(-8.0566722e-08 0.0026963163 0)
(-8.6375871e-08 0.0026280579 0)
(-8.0470747e-08 0.0024638434 0)
(-5.9404016e-08 0.0021242614 0)
(-2.7015168e-08 0.0015285171 0)
(-4.6674416e-09 0.00062845119 0)
(4.0524806e-09 0.00062837188 0)
(2.4064255e-08 0.0015284246 0)
(5.3974987e-08 0.0021241668 0)
(7.1899786e-08 0.0024637564 0)
(7.349424e-08 0.0026279783 0)
(6.2872314e-08 0.0026962412 0)
(4.672233e-08 0.0027210823 0)
(3.0045012e-08 0.0027291355 0)
(1.373232e-08 0.0027314921 0)
(-1.6915915e-09 0.0027320919 0)
(-1.6604218e-08 0.0027320912 0)
(-3.1850274e-08 0.0027314902 0)
(-4.7946772e-08 0.0027291323 0)
(-6.4472909e-08 0.0027210766 0)
(-7.9448265e-08 0.0026962333 0)
(-8.8791876e-08 0.0026279679 0)
(-8.5172991e-08 0.002463741 0)
(-6.440003e-08 0.0021241456 0)
(-3.0448956e-08 0.0015283978 0)
(-5.8751036e-09 0.00062835225 0)
(5.7757767e-09 0.0006284575 0)
(2.4566857e-08 0.0015285002 0)
(4.9633444e-08 0.002124247 0)
(6.4438421e-08 0.002463858 0)
(6.4222983e-08 0.0026281038 0)
(5.3164221e-08 0.0026963813 0)
(3.7777497e-08 0.002721227 0)
(2.239443e-08 0.0027292805 0)
(8.4851974e-09 0.0027316349 0)
(-3.9465423e-09 0.002732234 0)
(-1.6169929e-08 0.0027322335 0)
(-2.8756504e-08 0.0027316333 0)
(-4.2667651e-08 0.0027292766 0)
(-5.7656341e-08 0.0027212198 0)
(-7.1612993e-08 0.002696371 0)
(-8.0900535e-08 0.0026280903 0)
(-7.8686148e-08 0.0024638384 0)
(-6.0696644e-08 0.0021242206 0)
(-3.1371577e-08 0.0015284662 0)
(-7.8447792e-09 0.00062843255 0)
)
;

boundaryField
{
    Wall
    {
        type            fixedValue;
        value           uniform (0 0 0);
    }
    frontAndBack
    {
        type            empty;
    }
    atmosphere
    {
        type            pressureInletOutletVelocity;
        value           nonuniform List<vector> 
20
(
(5.7757767e-09 0.0006284575 0)
(2.4566857e-08 0.0015285002 0)
(4.9633444e-08 0.002124247 0)
(6.4438421e-08 0.002463858 0)
(6.4222983e-08 0.0026281038 0)
(5.3164221e-08 0.0026963813 0)
(3.7777497e-08 0.002721227 0)
(2.239443e-08 0.0027292805 0)
(8.4851974e-09 0.0027316349 0)
(-3.9465423e-09 0.002732234 0)
(-1.6169929e-08 0.0027322335 0)
(-2.8756504e-08 0.0027316333 0)
(-4.2667651e-08 0.0027292766 0)
(-5.7656341e-08 0.0027212198 0)
(-7.1612993e-08 0.002696371 0)
(-8.0900535e-08 0.0026280903 0)
(-7.8686148e-08 0.0024638384 0)
(-6.0696644e-08 0.0021242206 0)
(-3.1371577e-08 0.0015284662 0)
(-7.8447792e-09 0.00062843255 0)
)
;
    }
}


// ************************************************************************* //
