/*--------------------------------*- C++ -*----------------------------------*\
| =========                 |                                                 |
| \\      /  F ield         | OpenFOAM: The Open Source CFD Toolbox           |
|  \\    /   O peration     | Version:  3.0.1                                 |
|   \\  /    A nd           | Web:      www.OpenFOAM.org                      |
|    \\/     M anipulation  |                                                 |
\*---------------------------------------------------------------------------*/
FoamFile
{
    version     2.0;
    format      ascii;
    class       volScalarField;
    location    "12";
    object      wBA_g;
}
// * * * * * * * * * * * * * * * * * * * * * * * * * * * * * * * * * * * * * //

dimensions      [0 0 0 0 0 0 0];

internalField   nonuniform List<scalar> 
800
(
0.01558184
0.015583373
0.015583543
0.01558361
0.015583658
0.015583692
0.015583716
0.015583733
0.015583743
0.015583748
0.015583748
0.015583743
0.015583733
0.015583716
0.015583692
0.015583658
0.01558361
0.015583543
0.015583373
0.01558184
0.010310919
0.010450337
0.010460048
0.010462288
0.010464466
0.01046627
0.010467687
0.0104687
0.01046934
0.010469651
0.010469651
0.01046934
0.0104687
0.010467687
0.010466271
0.010464466
0.010462289
0.010460049
0.010450338
0.010310919
0.0032687459
0.0033319766
0.0033376015
0.0033397494
0.0033413522
0.0033425779
0.0033434709
0.0033440818
0.0033444606
0.0033446425
0.0033446424
0.0033444605
0.0033440816
0.0033434706
0.0033425777
0.0033413521
0.0033397493
0.0033376015
0.0033319766
0.0032687454
0.0012217488
0.0012452662
0.0012477528
0.0012489047
0.0012496906
0.0012502565
0.001250645
0.0012508999
0.001251055
0.0012511285
0.0012511285
0.0012510549
0.0012508997
0.0012506449
0.0012502563
0.0012496904
0.0012489046
0.0012477528
0.0012452661
0.0012217486
0.00049776669
0.00050761975
0.00050877094
0.00050927395
0.00050952533
0.00050966842
0.00050974529
0.00050978448
0.00050980607
0.00050981516
0.00050981516
0.00050980606
0.00050978447
0.00050974529
0.00050966845
0.00050952537
0.00050927399
0.000508771
0.00050761981
0.00049776672
0.00018180019
0.00018955568
0.00019088419
0.00019119014
0.0001911911
0.00019109902
0.00019102595
0.00019094556
0.00019089993
0.00019087459
0.00019087461
0.00019089995
0.00019094561
0.00019102601
0.00019109911
0.0001911912
0.00019119025
0.00019088436
0.00018955582
0.00018180038
5.3411785e-05
6.1200526e-05
6.3286891e-05
6.3731201e-05
6.3730942e-05
6.3603132e-05
6.3501496e-05
6.3436782e-05
6.3391297e-05
6.3359806e-05
6.3359818e-05
6.339129e-05
6.3436769e-05
6.3501544e-05
6.3603154e-05
6.3731004e-05
6.3731362e-05
6.3287e-05
6.1200628e-05
5.3411964e-05
1.0617761e-05
1.6906005e-05
1.9040319e-05
1.9642961e-05
1.968825e-05
1.9599975e-05
1.9462785e-05
1.9413885e-05
1.9364531e-05
1.9332638e-05
1.9332614e-05
1.9364529e-05
1.9413829e-05
1.9462761e-05
1.9599988e-05
1.9688247e-05
1.9643058e-05
1.9040312e-05
1.6906054e-05
1.061785e-05
1.3313671e-06
3.8887729e-06
5.2129356e-06
5.701979e-06
5.7876098e-06
5.7553941e-06
5.6826914e-06
5.646339e-06
5.6132731e-06
5.5966842e-06
5.5966692e-06
5.61327e-06
5.6462955e-06
5.6826678e-06
5.7553941e-06
5.7875861e-06
5.7019937e-06
5.2129281e-06
3.8887692e-06
1.3313915e-06
1.1156551e-07
7.5585475e-07
1.3071991e-06
1.5630499e-06
1.6297218e-06
1.6251038e-06
1.6002011e-06
1.5827034e-06
1.5688728e-06
1.5621233e-06
1.5621185e-06
1.5688672e-06
1.5826869e-06
1.6001884e-06
1.6250996e-06
1.6297055e-06
1.5630461e-06
1.3071941e-06
7.558501e-07
1.1156849e-07
6.9008572e-09
1.2959775e-07
3.0503869e-07
4.0618264e-07
4.3950955e-07
4.4144897e-07
4.3505593e-07
4.2886113e-07
4.2433425e-07
4.2215801e-07
4.2215699e-07
4.2433077e-07
4.288559e-07
4.3505056e-07
4.4144646e-07
4.3950236e-07
4.0617797e-07
3.0503699e-07
1.2959591e-07
6.901083e-09
3.5122378e-10
2.0594248e-08
6.7300565e-08
1.0048884e-07
1.1329126e-07
1.1504633e-07
1.1376289e-07
1.1198884e-07
1.107158e-07
1.101214e-07
1.1012109e-07
1.1071449e-07
1.1198726e-07
1.1376092e-07
1.1504492e-07
1.1328892e-07
1.0048688e-07
6.7299843e-08
2.0593837e-08
3.5123408e-10
1.6481639e-11
3.1516405e-09
1.4188871e-08
2.3707547e-08
2.7839067e-08
2.8656878e-08
2.8465176e-08
2.8033002e-08
2.7712645e-08
2.7564466e-08
2.7564359e-08
2.7712242e-08
2.8032518e-08
2.8464538e-08
2.8656235e-08
2.783845e-08
2.3706913e-08
1.4188611e-08
3.1515622e-09
1.6481866e-11
7.9637885e-13
4.7335957e-10
2.8705327e-09
5.3318732e-09
6.5059134e-09
6.7969421e-09
6.7847251e-09
6.6927153e-09
6.6193031e-09
6.5847337e-09
6.5846989e-09
6.6191925e-09
6.6925708e-09
6.7845343e-09
6.7967172e-09
6.5057545e-09
5.3316983e-09
2.8704555e-09
4.7334499e-10
7.9636783e-13
4.2487533e-14
6.9952717e-11
5.5719546e-10
1.14162e-09
1.4436146e-09
1.5306948e-09
1.5356603e-09
1.518355e-09
1.5029889e-09
1.4954296e-09
1.4954197e-09
1.5029604e-09
1.5183143e-09
1.5356072e-09
1.5306295e-09
1.4435718e-09
1.1415759e-09
5.57176e-10
6.9950012e-11
4.2485643e-14
2.5018544e-15
1.011401e-11
1.0358181e-10
2.3245233e-10
3.0391352e-10
3.2679445e-10
3.2951649e-10
3.2665231e-10
3.2371174e-10
3.2217895e-10
3.2217645e-10
3.2370467e-10
3.266417e-10
3.2950282e-10
3.2677783e-10
3.0390189e-10
2.3244188e-10
1.0357742e-10
1.011353e-11
2.5016817e-15
1.5584143e-16
1.4205476e-12
1.8408404e-11
4.4992344e-11
6.0701144e-11
6.6118455e-11
6.7002427e-11
6.6595739e-11
6.6080238e-11
6.579414e-11
6.5793556e-11
6.607858e-11
6.6593179e-11
6.6999162e-11
6.6114616e-11
6.069822e-11
4.4989968e-11
1.8407485e-11
1.420468e-12
1.5582813e-16
9.8548579e-18
1.9273435e-13
3.1242822e-12
8.2801486e-12
1.1509311e-11
1.268454e-11
1.2916401e-11
1.2870723e-11
1.2787769e-11
1.2738605e-11
1.2738477e-11
1.2787404e-11
1.2870153e-11
1.2915679e-11
1.268372e-11
1.1508604e-11
8.2796645e-12
3.124099e-12
1.9272194e-13
9.853912e-18
6.1656365e-19
2.5168311e-14
5.0623603e-13
1.4498923e-12
2.0737343e-12
2.3101211e-12
2.3631716e-12
2.3604148e-12
2.3481558e-12
2.3403407e-12
2.3403145e-12
2.3480807e-12
2.3602968e-12
2.3630227e-12
2.3099558e-12
2.0735797e-12
1.4497984e-12
5.0620171e-13
2.5166486e-14
6.1649962e-19
3.7637213e-20
3.1569564e-15
7.8328327e-14
2.4182347e-13
3.5550118e-13
3.9998003e-13
4.1092655e-13
4.1133862e-13
4.0967962e-13
4.0852348e-13
4.0851847e-13
4.0966513e-13
4.1131588e-13
4.1089783e-13
3.9994856e-13
3.554706e-13
2.4180556e-13
7.8322459e-14
3.1566973e-15
3.7633057e-20
2.2252666e-21
3.7998773e-16
1.1580323e-14
3.8464323e-14
5.8064535e-14
6.5943787e-14
6.8018591e-14
6.8219935e-14
6.801614e-14
6.785608e-14
6.785518e-14
6.8013525e-14
6.8215827e-14
6.8013394e-14
6.5938107e-14
5.8059001e-14
3.8461084e-14
1.1579368e-14
3.7995292e-16
2.2250069e-21
1.2693088e-22
4.3876572e-17
1.637281e-15
5.8422115e-15
9.0486098e-15
1.0368887e-14
1.0734461e-14
1.0785033e-14
1.0762783e-14
1.0741954e-14
1.0741802e-14
1.0762339e-14
1.0784335e-14
1.0733576e-14
1.0367917e-14
9.0476785e-15
5.8416549e-15
1.6371331e-15
4.3872169e-17
1.2691535e-22
6.9711595e-24
4.8610418e-18
2.2158906e-16
8.4843047e-16
1.3473297e-15
1.5573265e-15
1.6177148e-15
1.6278619e-15
1.625815e-15
1.6232597e-15
1.6232352e-15
1.6257437e-15
1.6277499e-15
1.6175723e-15
1.5571696e-15
1.3471817e-15
8.4834051e-16
2.2156701e-16
4.8605127e-18
6.9702576e-24
3.6832062e-25
5.1696025e-19
2.8736956e-17
1.1795542e-16
1.9195166e-16
2.2374264e-16
2.3315378e-16
2.3494108e-16
2.3480933e-16
2.3451332e-16
2.3450957e-16
2.3479845e-16
2.3492398e-16
2.33132e-16
2.2371852e-16
1.9192924e-16
1.1794173e-16
2.873379e-17
5.1689891e-19
3.6826946e-25
1.871743e-26
5.2806111e-20
3.5747605e-18
1.5718256e-17
2.6200744e-17
3.0791743e-17
3.2182123e-17
3.2468985e-17
3.2470265e-17
3.2437888e-17
3.2437344e-17
3.2468686e-17
3.2466497e-17
3.2178942e-17
3.0788205e-17
2.6197486e-17
1.571628e-17
3.5743243e-18
5.2799233e-20
1.871464e-26
9.1503835e-28
5.1845889e-21
4.2697709e-19
2.0099098e-18
3.4307108e-18
4.064379e-18
4.2598359e-18
4.3025998e-18
4.3049957e-18
4.3016589e-18
4.3015833e-18
4.3047759e-18
4.3022523e-18
4.2593903e-18
4.0638819e-18
3.4302552e-18
2.0096361e-18
4.2691949e-19
5.183844e-21
9.1489315e-28
4.3050052e-29
4.896326e-22
4.9016178e-20
2.4689557e-19
4.3143425e-19
5.1517096e-19
5.4139401e-19
5.47383e-19
5.4793272e-19
5.4761029e-19
5.4760023e-19
5.4790328e-19
5.4733633e-19
5.4133395e-19
5.1510377e-19
4.3137271e-19
2.4685908e-19
4.9008871e-20
4.89555e-22
4.3042803e-29
1.9502244e-30
4.4512966e-23
5.4133289e-21
2.9165587e-20
5.2165606e-20
6.2776275e-20
6.6141987e-20
6.6935831e-20
6.7029108e-20
6.7000189e-20
6.6998889e-20
6.7025304e-20
6.6929784e-20
6.6134169e-20
6.2767501e-20
5.2157575e-20
2.9160887e-20
5.4124369e-21
4.4505177e-23
1.9498646e-30
8.6336842e-32
3.8985569e-24
5.7567699e-22
3.316515e-21
6.0707525e-21
7.3618265e-21
7.775922e-21
7.8760371e-21
7.8897031e-21
7.8873432e-21
7.8871805e-21
7.8892281e-21
7.875279e-21
7.7749388e-21
7.3607196e-21
6.069739e-21
3.31593e-21
5.7557192e-22
3.8978032e-24
8.5105833e-32
4.189467e-33
3.2920422e-25
5.9002144e-23
3.6337711e-22
6.8063128e-22
8.3167165e-22
8.8059201e-22
8.9265125e-22
8.9447064e-22
8.9430355e-22
8.9428386e-22
8.9441315e-22
8.9255938e-22
8.8047245e-22
8.3153684e-22
6.8050775e-22
3.6330672e-22
5.8990207e-23
3.2913359e-25
3.5815409e-33
2.7704115e-34
2.6823265e-26
5.8331253e-24
3.8396023e-23
7.3585147e-23
9.0593864e-23
9.6151368e-23
9.7542841e-23
9.7768203e-23
9.7759324e-23
9.7757027e-23
9.7761485e-23
9.7532092e-23
9.6137344e-23
9.0578005e-23
7.3570618e-23
3.8387855e-23
5.8318177e-24
2.6816842e-26
1.4543029e-34
2.4034335e-35
2.1104609e-27
5.5671655e-25
3.915943e-24
7.678077e-24
9.5237174e-24
1.0131617e-23
1.0285774e-23
1.0312087e-23
1.0312006e-23
1.0311748e-23
1.031133e-23
1.0284561e-23
1.0130032e-23
9.521919e-24
7.67643e-24
3.9150303e-24
5.5657853e-25
2.1098931e-27
5.702119e-36
2.1430214e-36
1.6046811e-28
5.1334084e-26
3.8579559e-25
7.7384359e-25
9.6701552e-25
1.0311138e-24
1.0475421e-24
1.0504613e-24
1.0505296e-24
1.0505016e-24
1.0503791e-24
1.0474103e-24
1.0309411e-24
9.6681907e-25
7.7366395e-25
3.8569746e-25
5.1320067e-26
1.6041926e-28
2.160398e-37
1.7451277e-37
1.1799461e-29
4.5765795e-27
3.6743495e-26
7.5392426e-26
9.4911307e-26
1.0143317e-25
1.0311988e-25
1.0342927e-25
1.034427e-25
1.0343978e-25
1.0342069e-25
1.0310611e-25
1.0141508e-25
9.4890681e-26
7.5373588e-26
3.6733357e-26
4.5752119e-27
1.1795375e-29
7.9151655e-39
1.2698265e-38
8.3965834e-31
3.9477545e-28
3.3854871e-27
7.1054878e-27
9.0111513e-27
9.652094e-27
9.819153e-27
9.8505939e-27
9.852452e-27
9.8521599e-27
9.8497332e-27
9.8177699e-27
9.6502723e-27
9.0090709e-27
7.1035905e-27
3.3844814e-27
3.9464733e-28
8.3932713e-31
2.8061973e-40
8.2341653e-40
5.7863346e-32
3.2970841e-29
3.0198071e-28
6.4826645e-28
8.2817867e-28
8.8907111e-28
9.0505113e-28
9.0812323e-28
9.0834364e-28
9.0831551e-28
9.0804029e-28
9.049176e-28
8.8889485e-28
8.2797706e-28
6.4808302e-28
3.0188493e-28
3.2959315e-29
5.7837414e-32
9.6338779e-42
4.7074062e-41
3.8640802e-33
2.6678676e-30
2.609398e-29
5.7291971e-29
7.372889e-29
7.9325835e-29
8.0803574e-29
8.1092793e-29
8.1116564e-29
8.1113957e-29
8.1085118e-29
8.0791197e-29
7.930944e-29
7.3710116e-29
5.7274946e-29
2.6085223e-29
2.6668718e-30
3.8621287e-33
3.20472e-43
2.3387377e-42
2.5020701e-34
2.0927821e-31
2.1856319e-30
4.9078152e-30
6.3620314e-30
6.8601173e-30
6.9923441e-30
7.0186209e-30
7.0210103e-30
7.0207785e-30
7.0179376e-30
6.9912396e-30
6.8586508e-30
6.360351e-30
4.9062955e-30
2.1848628e-30
2.0919559e-31
2.5006634e-34
1.033605e-44
1.0620843e-43
1.5718843e-35
1.5924594e-32
1.7756185e-31
4.0775373e-31
5.3242711e-31
5.7537314e-31
5.868305e-31
5.8913756e-31
5.8936449e-31
5.893446e-31
5.8907902e-31
5.8673572e-31
5.7524689e-31
5.3228236e-31
4.0762325e-31
1.774969e-31
1.5918006e-32
1.5709165e-35
1.1082051e-45
4.7034747e-45
9.5864038e-37
1.1761041e-33
1.3999326e-32
3.2875494e-32
4.3239485e-32
4.6829436e-32
4.7791511e-32
4.798746e-32
4.8007975e-32
4.8006339e-32
4.7982625e-32
4.7783669e-32
4.6818961e-32
4.3227471e-32
3.2864704e-32
1.3994045e-32
1.1755988e-33
9.5800636e-37
1.3285525e-46
)
;

boundaryField
{
    Wall
    {
        type            zeroGradient;
    }
    frontAndBack
    {
        type            empty;
    }
    atmosphere
    {
        type            zeroGradient;
    }
}


// ************************************************************************* //
