/*--------------------------------*- C++ -*----------------------------------*\
| =========                 |                                                 |
| \\      /  F ield         | OpenFOAM: The Open Source CFD Toolbox           |
|  \\    /   O peration     | Version:  3.0.1                                 |
|   \\  /    A nd           | Web:      www.OpenFOAM.org                      |
|    \\/     M anipulation  |                                                 |
\*---------------------------------------------------------------------------*/
FoamFile
{
    version     2.0;
    format      ascii;
    class       volScalarField;
    location    "12";
    object      wBA_l_0;
}
// * * * * * * * * * * * * * * * * * * * * * * * * * * * * * * * * * * * * * //

dimensions      [0 0 0 0 0 0 0];

internalField   nonuniform List<scalar> 
800
(
0.056430406
0.056430097
0.056430096
0.056430078
0.056430064
0.056430055
0.056430048
0.056430043
0.05643004
0.056430039
0.056430039
0.05643004
0.056430043
0.056430048
0.056430055
0.056430064
0.056430078
0.056430096
0.056430097
0.056430406
0.056390568
0.056388382
0.056387204
0.05638654
0.056386082
0.056385744
0.056385496
0.056385321
0.056385209
0.056385154
0.056385154
0.056385209
0.056385321
0.056385496
0.056385744
0.056386082
0.05638654
0.056387205
0.056388382
0.056390568
0.048552337
0.048593191
0.048597682
0.048597763
0.048597192
0.0485966
0.048596042
0.048595583
0.048595265
0.048595105
0.048595105
0.048595265
0.048595583
0.048596042
0.0485966
0.048597192
0.048597763
0.048597682
0.048593191
0.048552337
0.036855086
0.036977298
0.036981649
0.036978093
0.036974235
0.036970842
0.036968058
0.036965942
0.036964542
0.036963847
0.036963848
0.036964544
0.036965944
0.036968062
0.036970847
0.03697424
0.036978099
0.036981655
0.036977304
0.036855092
0.024340225
0.024711234
0.024744281
0.024741429
0.024732628
0.024724154
0.024717263
0.024712103
0.024708775
0.024707129
0.02470713
0.024708778
0.024712108
0.02471727
0.024724162
0.024732637
0.02474144
0.024744291
0.024711246
0.024340238
0.012678188
0.013550856
0.013726774
0.013755335
0.013749801
0.013737311
0.013727455
0.013718967
0.013713843
0.013711191
0.013711192
0.013713845
0.013718972
0.013727461
0.013737318
0.013749809
0.013755344
0.013726784
0.013550865
0.012678204
0.0048506348
0.0060036519
0.0063807143
0.0064763149
0.0064893311
0.0064801182
0.0064704127
0.0064643833
0.006459951
0.006457048
0.0064570485
0.0064599492
0.0064643804
0.0064704145
0.0064801167
0.0064893325
0.0064763243
0.0063807175
0.0060036553
0.0048506506
0.0011851528
0.0021976718
0.0026067811
0.0027388697
0.0027631757
0.0027588319
0.0027441268
0.0027391736
0.0027336175
0.0027299992
0.0027299955
0.0027336161
0.0027391647
0.0027441205
0.0027588295
0.0027631697
0.0027388742
0.0026067721
0.0021976721
0.0011851616
0.0001792695
0.00067046583
0.00095770609
0.0010700627
0.0010960177
0.0010954167
0.0010861763
0.0010811338
0.0010763833
0.0010741076
0.001074105
0.0010763817
0.0010811255
0.0010861703
0.0010954137
0.00109601
0.0010700596
0.00095770061
0.0006704608
0.00017927231
1.8446054e-05
0.00017570428
0.00032083314
0.00038861685
0.0004081384
0.00040925605
0.00040541162
0.00040218427
0.00039968747
0.00039848212
0.00039848104
0.00039968551
0.00040218021
0.00040540775
0.00040925343
0.00040813303
0.00038861327
0.00032082996
0.00017570166
1.8446392e-05
1.4834698e-06
4.1209123e-05
9.9091224e-05
0.00013140705
0.00014236105
0.00014364027
0.00014243757
0.00014097005
0.00013992714
0.00013942637
0.00013942606
0.00013992581
0.00014096832
0.00014243554
0.00014363881
0.00014235828
0.0001314046
9.9089907e-05
4.1208099e-05
1.4834871e-06
1.0748589e-07
8.9288586e-06
2.8388462e-05
4.1364512e-05
4.6306399e-05
4.713822e-05
4.6854315e-05
4.632624e-05
4.5948571e-05
4.5774694e-05
4.5774552e-05
4.5947988e-05
4.6325537e-05
4.6853399e-05
4.7137395e-05
4.6305302e-05
4.1363441e-05
2.8387885e-05
8.9285822e-06
1.0748488e-07
7.7876343e-09
1.8147475e-06
7.561538e-06
1.2097529e-05
1.3993287e-05
1.4401795e-05
1.4358335e-05
1.4199672e-05
1.4079226e-05
1.402394e-05
1.4023877e-05
1.4079014e-05
1.4199399e-05
1.4357976e-05
1.4401392e-05
1.399293e-05
1.2097137e-05
7.5613203e-06
1.8146811e-06
7.7873474e-09
5.8347956e-10
3.4710285e-07
1.8730185e-06
3.282533e-06
3.9207653e-06
4.0846331e-06
4.0863631e-06
4.0455012e-06
4.0115012e-06
3.9953395e-06
3.9953157e-06
4.0114312e-06
4.0454037e-06
4.0862357e-06
4.0844774e-06
3.9206518e-06
3.2824073e-06
1.8729492e-06
3.4708767e-07
5.8344305e-10
4.4314476e-11
6.2384113e-08
4.3146519e-07
8.2616804e-07
1.018418e-06
1.0743111e-06
1.0788663e-06
1.069769e-06
1.0612567e-06
1.0569755e-06
1.0569678e-06
1.0612353e-06
1.0697373e-06
1.0788254e-06
1.0742608e-06
1.0183817e-06
8.2613142e-07
4.3144615e-07
6.2380875e-08
4.4310872e-11
3.3068547e-12
1.0516184e-08
9.2499013e-08
1.930847e-07
2.4552704e-07
2.6218755e-07
2.6437923e-07
2.6264e-07
2.6074015e-07
2.5972364e-07
2.5972148e-07
2.6073404e-07
2.6263067e-07
2.6436731e-07
2.6217327e-07
2.4551591e-07
1.9307485e-07
9.2494309e-08
1.0515554e-08
3.3065445e-12
2.3730007e-13
1.6615573e-09
1.8484275e-08
4.1988446e-08
5.505203e-08
5.9481062e-08
6.023407e-08
5.99572e-08
5.9576833e-08
5.9360482e-08
5.9359921e-08
5.957523e-08
5.9954714e-08
6.0230911e-08
5.9477399e-08
5.5048987e-08
4.198596e-08
1.8483203e-08
1.6614454e-09
2.3727583e-13
1.6197147e-14
2.4619148e-10
3.4505419e-09
8.5174557e-09
1.1509373e-08
1.257485e-08
1.2788947e-08
1.2755805e-08
1.2687158e-08
1.2645588e-08
1.2645452e-08
1.2686772e-08
1.2755202e-08
1.2788185e-08
1.2573992e-08
1.1508587e-08
8.5169058e-09
3.4503125e-09
2.4617307e-10
1.6195392e-14
1.0467648e-15
3.4253362e-11
6.0319135e-10
1.6160711e-09
2.2497732e-09
2.4843046e-09
2.537317e-09
2.5357026e-09
2.5245099e-09
2.5172345e-09
2.5172048e-09
2.5244244e-09
2.5355688e-09
2.5371482e-09
2.4841177e-09
2.2495915e-09
1.6159571e-09
6.0314589e-10
3.4250553e-11
1.0466463e-15
6.396331e-17
4.4831043e-12
9.8987212e-11
2.876031e-10
4.1230699e-10
4.5996912e-10
4.7170814e-10
4.7228429e-10
4.7063814e-10
4.6946897e-10
4.6946294e-10
4.7062069e-10
4.7225695e-10
4.7167361e-10
4.5993119e-10
4.1226934e-10
2.8758008e-10
9.8979112e-11
4.4826967e-12
6.3955787e-17
3.6960506e-18
5.5298745e-13
1.5287319e-11
4.8135644e-11
7.1031884e-11
8.0034815e-11
8.2398116e-11
8.2641679e-11
8.2425011e-11
8.2251342e-11
8.2250208e-11
8.2421711e-11
8.2636506e-11
8.239157e-11
8.002763e-11
7.1024804e-11
4.8131296e-11
1.5285961e-11
5.5293239e-13
3.6956001e-18
2.0211869e-19
6.4410166e-14
2.2270442e-12
7.5956724e-12
1.1532697e-11
1.3121601e-11
1.3559162e-11
1.3620972e-11
1.3595969e-11
1.3572003e-11
1.3571804e-11
1.3595388e-11
1.3620061e-11
1.3558006e-11
1.3120328e-11
1.1531468e-11
7.5949048e-12
2.2268298e-12
6.4403254e-14
2.0209332e-19
1.047202e-20
7.097879e-15
3.0671145e-13
1.1326421e-12
1.7687994e-12
2.0318781e-12
2.1070277e-12
2.1197374e-12
2.1173402e-12
2.1142569e-12
2.1142239e-12
2.1172445e-12
2.1195874e-12
2.1068368e-12
2.0316669e-12
1.7685993e-12
1.1325161e-12
3.0667916e-13
7.0970627e-15
1.0470652e-20
5.1474352e-22
7.4138438e-16
4.0015179e-14
1.5994246e-13
2.5683104e-13
2.9783239e-13
3.0988411e-13
3.1217291e-13
3.1201533e-13
3.1164472e-13
3.1163961e-13
3.1200051e-13
3.1214964e-13
3.0985444e-13
2.9779941e-13
2.5680025e-13
1.5992318e-13
4.0010551e-14
7.4129248e-16
5.1467249e-22
2.4037628e-23
7.3529156e-17
4.9548806e-15
2.1430067e-14
3.5376369e-14
4.1408601e-14
4.3222726e-14
4.3595851e-14
4.3597991e-14
4.3556351e-14
4.3555604e-14
4.3595822e-14
4.3592435e-14
4.3218361e-14
4.1403733e-14
3.5371866e-14
2.1427285e-14
4.954251e-15
7.3519247e-17
2.4034117e-23
1.0678701e-24
6.9356145e-18
5.8332457e-16
2.7292978e-15
4.6310478e-15
5.4709437e-15
5.7283287e-15
5.7843838e-15
5.7875026e-15
5.7831358e-15
5.7830322e-15
5.7872011e-15
5.7839074e-15
5.7277178e-15
5.470261e-15
4.6304197e-15
2.7289162e-15
5.8324321e-16
6.9345929e-18
1.0677059e-24
4.5188461e-26
6.2312789e-19
6.5396357e-17
3.3095282e-16
5.7714242e-16
6.880665e-16
7.2260208e-16
7.3044884e-16
7.3116018e-16
7.3073461e-16
7.3072091e-16
7.3112014e-16
7.3038545e-16
7.2252047e-16
6.8797512e-16
5.7705855e-16
3.3090281e-16
6.5386347e-17
6.2302752e-19
4.5181184e-26
1.8236896e-27
5.3401105e-20
6.9921396e-18
3.8267982e-17
6.8580844e-17
8.2504916e-17
8.6899718e-17
8.7930887e-17
8.8050589e-17
8.8012395e-17
8.8010656e-17
8.8045502e-17
8.7922809e-17
8.6889279e-17
8.2493196e-17
6.8570113e-17
3.8261702e-17
6.9909637e-18
5.339168e-20
1.823379e-27
7.1135213e-29
4.3709867e-21
7.1397303e-19
4.2254878e-18
7.7815207e-18
9.4458764e-18
9.9775401e-18
1.0105442e-17
1.0122717e-17
1.011962e-17
1.0119407e-17
1.0122097e-17
1.0104455e-17
9.9762596e-18
9.4444362e-18
7.7802036e-18
4.2247314e-18
7.1384078e-19
4.3701407e-21
7.0261933e-29
2.9908186e-30
3.4214125e-22
6.9715518e-20
4.4613112e-19
8.4420263e-19
1.0339556e-18
1.0952259e-18
1.1102612e-18
1.1125097e-18
1.1122926e-18
1.1122678e-18
1.1124371e-18
1.1101455e-18
1.0950754e-18
1.033786e-18
8.4404769e-19
4.4604375e-19
6.9701281e-20
3.4206829e-22
2.5880792e-30
1.7175581e-31
2.5641042e-23
6.5174251e-21
4.5094568e-20
8.7677071e-20
1.0834275e-19
1.150812e-19
1.1676163e-19
1.1703187e-19
1.1702036e-19
1.1701758e-19
1.1702373e-19
1.1674861e-19
1.1506424e-19
1.0832359e-19
8.7659612e-20
4.5084902e-20
6.5159571e-21
2.5634975e-23
9.12259e-32
1.3324902e-32
1.8418168e-24
5.8399542e-22
4.3687428e-21
8.7273203e-21
1.0880235e-20
1.1588603e-20
1.1767625e-20
1.1798018e-20
1.1797867e-20
1.1797568e-20
1.1797143e-20
1.1766224e-20
1.1586774e-20
1.0878165e-20
8.7254371e-21
4.3677202e-21
5.8385054e-22
1.8413296e-24
3.0802592e-33
1.0722614e-33
1.2693589e-25
5.0209419e-23
4.0608782e-22
8.334798e-22
1.0482963e-21
1.1195758e-21
1.1377935e-21
1.1410184e-21
1.141091e-21
1.1410603e-21
1.1409283e-21
1.1376492e-21
1.1193871e-21
1.0480821e-21
8.3328564e-22
4.0598438e-22
5.0195745e-23
1.2689803e-25
9.9725639e-35
7.8225012e-35
8.4017263e-27
4.1459978e-24
3.6253041e-23
7.6447086e-23
9.7000025e-23
1.0387445e-22
1.0564842e-22
1.0597306e-22
1.0598716e-22
1.0598415e-22
1.059642e-22
1.0563423e-22
1.0385583e-22
9.6978869e-23
7.642795e-23
3.6243046e-23
4.1447648e-24
8.3988788e-27
3.0986677e-36
5.052193e-36
5.3455375e-28
3.2910871e-25
3.1112257e-24
6.7403438e-24
8.6279444e-24
9.2641224e-24
9.4296738e-24
9.4607991e-24
9.462663e-24
9.4623804e-24
9.4599669e-24
9.4283384e-24
9.2623672e-24
8.6259473e-24
6.738543e-24
3.1103034e-24
3.2900255e-25
5.3434695e-28
9.248412e-38
2.8904503e-37
3.2720596e-29
2.51356e-26
2.568957e-25
5.7178902e-25
7.3836236e-25
7.9491512e-25
8.0974113e-25
8.1259181e-25
8.1280046e-25
8.1277512e-25
8.1251718e-25
8.0962112e-25
7.9475699e-25
7.3818227e-25
5.7162727e-25
2.5681447e-25
2.5126871e-26
3.2706136e-29
2.6536115e-39
1.4578357e-38
1.9284263e-30
1.8485386e-27
2.0425491e-26
4.6706327e-26
6.0843372e-26
6.5677125e-26
6.6952778e-26
6.7202753e-26
6.7223798e-26
6.7221626e-26
6.7196353e-26
6.6942472e-26
6.56635e-26
6.0827848e-26
4.6692451e-26
2.0418656e-26
1.8478527e-27
1.9274573e-30
7.3251944e-41
6.420645e-40
1.095117e-31
1.3100421e-28
1.5649798e-27
3.6764902e-27
4.8313791e-27
5.2289914e-27
5.3345548e-27
5.3555791e-27
5.3575436e-27
5.3573654e-27
5.3550543e-27
5.3337075e-27
5.2278686e-27
4.8300995e-27
3.6753513e-27
1.5644303e-27
1.3095272e-28
1.0944967e-31
1.9468272e-42
2.5633881e-41
5.9964889e-33
8.9529817e-30
1.1563143e-28
2.7907466e-28
3.6996056e-28
4.0146261e-28
4.098721e-28
4.1157066e-28
4.117427e-28
4.1172869e-28
4.1152941e-28
4.0980541e-28
4.0137399e-28
3.6985955e-28
2.7898518e-28
1.1558915e-28
8.9492842e-30
5.9927111e-33
1.8926478e-43
9.869115e-43
3.1680952e-34
5.9042701e-31
8.24453e-30
2.044229e-29
2.7337553e-29
2.9743322e-29
3.0388781e-29
3.0520756e-29
3.0535008e-29
3.0533956e-29
3.0517648e-29
3.0383749e-29
2.9736617e-29
2.7329909e-29
2.0435554e-29
8.2414143e-30
5.9017291e-31
3.1659124e-34
2.2348654e-44
)
;

boundaryField
{
    Wall
    {
        type            zeroGradient;
    }
    frontAndBack
    {
        type            empty;
    }
    atmosphere
    {
        type            zeroGradient;
    }
}


// ************************************************************************* //
