/*--------------------------------*- C++ -*----------------------------------*\
| =========                 |                                                 |
| \\      /  F ield         | OpenFOAM: The Open Source CFD Toolbox           |
|  \\    /   O peration     | Version:  3.0.1                                 |
|   \\  /    A nd           | Web:      www.OpenFOAM.org                      |
|    \\/     M anipulation  |                                                 |
\*---------------------------------------------------------------------------*/
FoamFile
{
    version     2.0;
    format      ascii;
    class       volScalarField;
    location    "12";
    object      wBA_l;
}
// * * * * * * * * * * * * * * * * * * * * * * * * * * * * * * * * * * * * * //

dimensions      [0 0 0 0 0 0 0];

internalField   nonuniform List<scalar> 
800
(
0.056426745
0.05642644
0.056426439
0.056426422
0.056426409
0.056426399
0.056426393
0.056426388
0.056426385
0.056426384
0.056426384
0.056426385
0.056426388
0.056426393
0.056426399
0.056426409
0.056426422
0.056426439
0.05642644
0.056426745
0.056390335
0.056388191
0.056387015
0.05638635
0.056385892
0.056385555
0.056385307
0.056385131
0.056385019
0.056384965
0.056384965
0.056385019
0.056385132
0.056385307
0.056385555
0.056385892
0.05638635
0.056387015
0.056388191
0.056390335
0.048641198
0.048681921
0.048686426
0.048686512
0.04868595
0.048685366
0.048684815
0.048684361
0.048684045
0.048683887
0.048683887
0.048684046
0.048684361
0.048684815
0.048685366
0.048685951
0.048686513
0.048686426
0.048681921
0.048641198
0.037046579
0.03716836
0.037172855
0.0371694
0.037165615
0.037162279
0.037159535
0.037157446
0.037156063
0.037155376
0.037155377
0.037156065
0.037157449
0.037159539
0.037162283
0.03716562
0.037169406
0.037172861
0.037168367
0.037046586
0.024601994
0.024968456
0.02500106
0.024998314
0.024989675
0.02498134
0.024974549
0.024969456
0.024966169
0.024964544
0.024964545
0.024966172
0.024969461
0.024974555
0.024981349
0.024989684
0.024998324
0.02500107
0.024968467
0.024602008
0.012934039
0.013797712
0.013971277
0.013999355
0.013993787
0.013981366
0.013971564
0.013963119
0.013958023
0.013955385
0.013955386
0.013958025
0.013963123
0.01397157
0.013981373
0.013993795
0.013999364
0.013971287
0.013797721
0.012934056
0.0050152084
0.0061656669
0.006541373
0.0066362449
0.0066488667
0.0066394433
0.0066296456
0.0066235014
0.0066190249
0.0066160937
0.0066160942
0.0066190231
0.0066234985
0.0066296475
0.0066394419
0.0066488682
0.0066362544
0.0065413764
0.0061656704
0.0050152242
0.0012488212
0.0022777753
0.0026903725
0.0028229449
0.0028469197
0.0028420561
0.002827017
0.0028218119
0.0028161269
0.0028124381
0.0028124345
0.0028161255
0.002821803
0.0028270108
0.0028420537
0.0028469139
0.0028229496
0.0026903638
0.0022777757
0.0012488302
0.00019254106
0.00070104535
0.00099450632
0.0011088371
0.0011349756
0.0011339895
0.0011242564
0.0011189366
0.0011139893
0.0011116027
0.0011116
0.0011139877
0.0011189281
0.0011242504
0.0011339865
0.001134968
0.0011088341
0.00099450078
0.00070104039
0.00019254396
2.0112516e-05
0.0001849873
0.00033493666
0.00040475581
0.00042472076
0.00042570543
0.00042155198
0.00041812257
0.00041547003
0.00041418884
0.00041418772
0.00041546803
0.00041811837
0.00042154802
0.00042570279
0.0004247153
0.00040475224
0.00033493343
0.00018498462
2.0112876e-05
1.6302987e-06
4.3577037e-05
0.00010393131
0.00013754833
0.00014889374
0.00015016439
0.00014883371
0.00014725874
0.00014613574
0.00014559618
0.00014559585
0.00014613437
0.00014725695
0.00014883162
0.0001501629
0.00014889089
0.00013754585
0.00010392996
4.357598e-05
1.6303183e-06
1.1801371e-07
9.4677932e-06
2.9907608e-05
4.3517876e-05
4.8693036e-05
4.9547038e-05
4.9223193e-05
4.8650485e-05
4.8240554e-05
4.8050883e-05
4.8050735e-05
4.823995e-05
4.8649752e-05
4.9222242e-05
4.9546191e-05
4.8691893e-05
4.351677e-05
2.9907016e-05
9.4675039e-06
1.1801281e-07
8.4905523e-09
1.9288227e-06
8.0026781e-06
1.2796147e-05
1.4800489e-05
1.5227408e-05
1.5174442e-05
1.5000553e-05
1.4868952e-05
1.4808289e-05
1.4808223e-05
1.4868729e-05
1.5000269e-05
1.5174066e-05
1.5226991e-05
1.4800114e-05
1.2795739e-05
8.002453e-06
1.9287529e-06
8.490259e-09
6.3160622e-10
3.6995813e-07
1.9920795e-06
3.4923172e-06
4.1729642e-06
4.3464994e-06
4.3467172e-06
4.3014587e-06
4.2640477e-06
4.2462482e-06
4.2462234e-06
4.2639738e-06
4.3013564e-06
4.3465834e-06
4.3463369e-06
4.1728446e-06
3.4921851e-06
1.9920073e-06
3.6994219e-07
6.3156807e-10
4.7789749e-11
6.6727062e-08
4.6135518e-07
8.8443941e-07
1.0911392e-06
1.1510164e-06
1.155578e-06
1.1453889e-06
1.1359483e-06
1.1312102e-06
1.1312021e-06
1.1359256e-06
1.1453554e-06
1.1555347e-06
1.1509632e-06
1.0911008e-06
8.8440068e-07
4.6133515e-07
6.6723655e-08
4.7785943e-11
3.5649207e-12
1.1295938e-08
9.9477371e-08
2.0805978e-07
2.6489131e-07
2.8292979e-07
2.8524445e-07
2.8327157e-07
2.8114654e-07
2.8001381e-07
2.800115e-07
2.8114002e-07
2.8326164e-07
2.8523175e-07
2.8291455e-07
2.6487954e-07
2.0804931e-07
9.9472387e-08
1.1295272e-08
3.5645911e-12
2.5630669e-13
1.7933285e-09
1.9999968e-08
4.5553938e-08
5.9822429e-08
6.4665608e-08
6.5479345e-08
6.5160029e-08
6.4730816e-08
6.4487751e-08
6.4487146e-08
6.4729094e-08
6.515736e-08
6.5475954e-08
6.4661667e-08
5.9819186e-08
4.5551279e-08
1.9998825e-08
1.7932096e-09
2.5628081e-13
1.7551167e-14
2.6710557e-10
3.7572112e-09
9.3057759e-09
1.2599393e-08
1.377554e-08
1.4010483e-08
1.3971128e-08
1.3892972e-08
1.3845862e-08
1.3845716e-08
1.3892554e-08
1.3970475e-08
1.4009658e-08
1.3774609e-08
1.2598548e-08
9.3051823e-09
3.7569653e-09
2.6708589e-10
1.7549287e-14
1.1388437e-15
3.7369529e-11
6.611094e-10
1.778373e-09
2.4814752e-09
2.7427266e-09
2.8016298e-09
2.7994161e-09
2.7865577e-09
2.778242e-09
2.7782095e-09
2.7864644e-09
2.7992699e-09
2.8014453e-09
2.7425221e-09
2.4812781e-09
1.7782489e-09
6.6106035e-10
3.736651e-11
1.1387162e-15
6.9905246e-17
4.9193036e-12
1.0922203e-10
3.1881083e-10
4.58268e-10
5.1182815e-10
5.2501654e-10
5.2560986e-10
5.2370157e-10
5.2235416e-10
5.2234752e-10
5.2368233e-10
5.2557972e-10
5.2497849e-10
5.1178637e-10
4.5822671e-10
3.1878566e-10
1.0921321e-10
4.9188635e-12
6.9897118e-17
4.0591034e-18
6.1043068e-13
1.6983827e-11
5.3756485e-11
7.9565618e-11
8.9769626e-11
9.2452058e-11
9.272244e-11
9.2468966e-11
9.2267267e-11
9.2266004e-11
9.2465295e-11
9.2716686e-11
9.2444779e-11
8.9761645e-11
7.9557771e-11
5.3751705e-11
1.6982337e-11
6.1037081e-13
4.0586142e-18
2.2311337e-19
7.1538934e-14
2.4914796e-12
8.5466614e-12
1.3020133e-11
1.4836262e-11
1.5337766e-11
1.5408067e-11
1.5378541e-11
1.5350509e-11
1.5350285e-11
1.5377889e-11
1.5407044e-11
1.533647e-11
1.4834836e-11
1.3018757e-11
8.5458105e-12
2.4912427e-12
7.1531361e-14
2.2308569e-19
1.1621588e-20
7.9330919e-15
3.4556317e-13
1.2841851e-12
2.0128432e-12
2.3160733e-12
2.4030159e-12
2.4176959e-12
2.4148369e-12
2.4112073e-12
2.4111699e-12
2.4147286e-12
2.417526e-12
2.4027998e-12
2.3158346e-12
2.0126173e-12
1.2840441e-12
3.4552731e-13
7.9321926e-15
1.1620092e-20
5.7439801e-22
8.3393752e-16
4.5407944e-14
1.8274262e-13
2.9461651e-13
3.4227247e-13
3.5634324e-13
3.5901955e-13
3.5882923e-13
3.5839054e-13
3.583847e-13
3.5881229e-13
3.5899295e-13
3.5630936e-13
3.4223489e-13
2.9458148e-13
1.8272084e-13
4.540277e-14
8.3383571e-16
5.7432002e-22
2.6974954e-23
8.324744e-17
5.6635418e-15
2.4676045e-14
4.0910135e-14
4.7980398e-14
5.0117482e-14
5.0558536e-14
5.0560932e-14
5.0511429e-14
5.0510567e-14
5.0558431e-14
5.0554601e-14
5.0112456e-14
4.7974802e-14
4.0904969e-14
2.4672877e-14
5.662833e-15
8.3236408e-17
2.6971082e-23
1.2052827e-24
7.9042283e-18
6.7166026e-16
3.1674675e-15
5.3992593e-15
6.3919926e-15
6.6978891e-15
6.7648196e-15
6.7685972e-15
6.7633918e-15
6.7632713e-15
6.7682466e-15
6.7642661e-15
6.6971798e-15
6.3912015e-15
5.3985334e-15
3.1670295e-15
6.71568e-16
7.9030843e-18
1.2051007e-24
5.1303901e-26
7.1491571e-19
7.5859971e-17
3.8714049e-16
6.7842866e-16
8.1064852e-16
8.5205465e-16
8.615142e-16
8.6238567e-16
8.6187834e-16
8.618623e-16
8.6233876e-16
8.6143994e-16
8.5195918e-16
8.1054179e-16
6.7833103e-16
3.8708267e-16
7.5848536e-17
7.1480258e-19
5.1295792e-26
2.0829258e-27
6.1683499e-20
8.1718985e-18
4.5124303e-17
8.1286649e-17
9.8025168e-17
1.0334049e-16
1.0459522e-16
1.0474326e-16
1.0469794e-16
1.0469588e-16
1.0473726e-16
1.0458569e-16
1.0332818e-16
9.8011377e-17
8.1274068e-17
4.5116989e-17
8.1705456e-18
6.1672812e-20
2.0825784e-27
8.1609873e-29
5.08365e-21
8.4077813e-19
5.022903e-18
9.3004732e-18
1.1318352e-17
1.196701e-17
1.2124069e-17
1.2145625e-17
1.2141996e-17
1.2141744e-17
1.2144888e-17
1.2122895e-17
1.196549e-17
1.1316645e-17
9.2989174e-18
5.0220159e-18
8.406249e-19
5.0826846e-21
8.0740157e-29
3.3980441e-30
4.006949e-22
8.2727127e-20
5.3465511e-19
1.0175141e-18
1.2495505e-18
1.3249595e-18
1.3435893e-18
1.3464194e-18
1.3461737e-18
1.346144e-18
1.3463325e-18
1.3434506e-18
1.3247793e-18
1.2493479e-18
1.0173297e-18
5.3455188e-19
8.2710508e-20
4.0061108e-22
2.9925002e-30
1.8860059e-31
3.0240568e-23
7.7937234e-21
5.4487744e-20
1.0657666e-19
1.3206596e-19
1.4043232e-19
1.4253318e-19
1.4287628e-19
1.4286471e-19
1.4286135e-19
1.4286645e-19
1.4251748e-19
1.4041186e-19
1.320429e-19
1.0655572e-19
5.4476236e-20
7.7919972e-21
3.0233553e-23
1.0614563e-31
1.4271509e-32
2.1876585e-24
7.0381759e-22
5.3226097e-21
1.0699626e-20
1.3378175e-20
1.4265442e-20
1.449126e-20
1.4530177e-20
1.4530302e-20
1.4529938e-20
1.4529111e-20
1.4489555e-20
1.4263218e-20
1.3375662e-20
1.0697349e-20
5.3213822e-21
7.0364588e-22
2.1870915e-24
3.6069265e-33
1.1454659e-33
1.5185491e-25
6.0988616e-23
4.9889817e-22
1.0306803e-21
1.3002866e-21
1.3903603e-21
1.4135457e-21
1.4177103e-21
1.417836e-21
1.4177983e-21
1.4175997e-21
1.4133685e-21
1.3901287e-21
1.3000243e-21
1.0304434e-21
4.9877292e-22
6.0972271e-23
1.5181056e-25
1.1753327e-34
8.4163772e-35
1.0124103e-26
5.0761763e-24
4.4914919e-23
9.5358825e-23
1.2138153e-22
1.3014606e-22
1.3242403e-22
1.3284685e-22
1.3286825e-22
1.3286451e-22
1.3283587e-22
1.3240644e-22
1.30123e-22
1.2135538e-22
9.5335263e-23
4.4902706e-23
5.0746895e-24
1.0120745e-26
3.6759568e-36
5.4893451e-36
6.4886623e-28
4.0618357e-25
3.8874302e-24
8.4817073e-24
1.0892902e-23
1.1711278e-23
1.1925778e-23
1.1966666e-23
1.1969391e-23
1.1969038e-23
1.1965624e-23
1.1924107e-23
1.1709083e-23
1.0890409e-23
8.4794685e-24
3.8862927e-24
4.0605438e-25
6.4862067e-28
1.1044374e-37
3.1750071e-37
4.0012267e-29
3.1273689e-26
3.2374559e-25
7.2588685e-25
9.4057078e-25
1.0139775e-24
1.033361e-24
1.0371383e-24
1.0374389e-24
1.0374068e-24
1.0370438e-24
1.0332092e-24
1.0137778e-24
9.4034366e-25
7.2568369e-25
3.2364437e-25
3.126296e-26
3.9994963e-29
3.1902656e-39
1.6218032e-38
2.3758321e-30
2.318766e-27
2.596371e-26
5.9823484e-26
7.8208068e-26
8.4539492e-26
8.6222455e-26
8.6556572e-26
8.6586734e-26
8.6583954e-26
8.6548392e-26
8.6209287e-26
8.4522102e-26
7.8188286e-26
5.9805873e-26
2.5955106e-26
2.3179145e-27
2.3746626e-30
8.8666851e-41
7.253191e-40
1.3593988e-31
1.6568541e-28
2.0066973e-27
4.7514226e-27
6.2669601e-27
6.7925413e-27
6.9330865e-27
6.9614355e-27
6.9642479e-27
6.9640177e-27
6.960757e-27
6.9319919e-27
6.7910926e-27
6.2653118e-27
4.7499617e-27
2.0059982e-27
1.6562082e-28
1.3586432e-31
2.3727904e-42
2.9316341e-41
7.5005024e-33
1.1417465e-29
1.4957534e-28
3.6394585e-28
4.8430662e-28
5.26332e-28
5.376315e-28
5.3994221e-28
5.4018901e-28
5.4017068e-28
5.3988833e-28
5.3754444e-28
5.262164e-28
4.8417507e-28
3.6382982e-28
1.4952097e-28
1.1412779e-29
7.4958539e-33
1.9976388e-43
1.1341454e-42
3.9933036e-34
7.5928353e-31
1.0759534e-29
2.6903224e-29
3.6119017e-29
3.9358314e-29
4.0233651e-29
4.0414802e-29
4.0435322e-29
4.0433933e-29
4.0410696e-29
4.0227006e-29
3.9349466e-29
3.6108951e-29
2.6894391e-29
1.0755483e-29
7.5895805e-31
3.9905879e-34
2.334573e-44
)
;

boundaryField
{
    Wall
    {
        type            zeroGradient;
    }
    frontAndBack
    {
        type            empty;
    }
    atmosphere
    {
        type            zeroGradient;
    }
}


// ************************************************************************* //
