/*--------------------------------*- C++ -*----------------------------------*\
| =========                 |                                                 |
| \\      /  F ield         | OpenFOAM: The Open Source CFD Toolbox           |
|  \\    /   O peration     | Version:  3.0.1                                 |
|   \\  /    A nd           | Web:      www.OpenFOAM.org                      |
|    \\/     M anipulation  |                                                 |
\*---------------------------------------------------------------------------*/
FoamFile
{
    version     2.0;
    format      ascii;
    class       volScalarField;
    location    "12";
    object      wCO2_l;
}
// * * * * * * * * * * * * * * * * * * * * * * * * * * * * * * * * * * * * * //

dimensions      [0 0 0 0 0 0 0];

internalField   nonuniform List<scalar> 
800
(
0.0030077303
0.003007723
0.0030077366
0.0030077438
0.0030077493
0.0030077538
0.0030077574
0.0030077599
0.0030077616
0.0030077625
0.0030077624
0.0030077616
0.0030077599
0.0030077574
0.0030077538
0.0030077493
0.0030077438
0.0030077366
0.003007723
0.0030077303
0.0034944004
0.0034846232
0.0034840451
0.0034837655
0.0034835387
0.0034833638
0.0034832335
0.0034831417
0.0034830837
0.0034830555
0.0034830555
0.0034830837
0.0034831418
0.0034832335
0.0034833638
0.0034835388
0.0034837655
0.0034840451
0.0034846232
0.0034944005
0.0046989739
0.0046851564
0.0046848104
0.0046845968
0.0046844502
0.0046843487
0.004684283
0.0046842419
0.0046842181
0.0046842071
0.0046842071
0.0046842182
0.004684242
0.0046842831
0.0046843488
0.0046844504
0.004684597
0.0046848106
0.0046851566
0.0046989741
0.0054500729
0.0054642751
0.0054646056
0.0054644298
0.0054642422
0.0054640826
0.0054639539
0.0054638561
0.005463792
0.0054637602
0.0054637602
0.0054637921
0.0054638563
0.0054639541
0.0054640829
0.0054642426
0.0054644303
0.005464606
0.0054642756
0.0054500734
0.0031712747
0.0033163203
0.0033189564
0.0033189549
0.0033182817
0.0033175621
0.0033169336
0.0033164416
0.003316122
0.0033159621
0.0033159622
0.0033161223
0.0033164421
0.0033169343
0.003317563
0.0033182828
0.003318956
0.0033189576
0.0033163216
0.0031712762
0.0014281412
0.0015108197
0.0015236133
0.0015255079
0.001524744
0.0015233961
0.0015223736
0.0015214549
0.0015209118
0.0015206265
0.0015206267
0.0015209122
0.0015214555
0.0015223744
0.0015233971
0.0015247452
0.0015255091
0.0015236149
0.0015108211
0.0014281433
0.0004869811
0.00058001052
0.00060666826
0.00061273468
0.00061309288
0.00061191227
0.00061089655
0.00061024903
0.00060979341
0.00060949164
0.00060949174
0.00060979335
0.00061024891
0.00061089697
0.00061191242
0.00061309339
0.00061273606
0.0006066691
0.00058001132
0.00048698277
0.00011038862
0.00018873989
0.00021765221
0.0002264032
0.00022759505
0.00022687036
0.00022546951
0.00022496944
0.00022445382
0.00022411959
0.00022411931
0.00022445378
0.00022496879
0.00022546916
0.00022687037
0.00022759484
0.00022640397
0.00021765185
0.00018874021
0.00011038949
1.5896363e-05
5.2084161e-05
7.1899707e-05
7.943098e-05
8.0986937e-05
8.0746889e-05
7.9914254e-05
7.9480315e-05
7.9081456e-05
7.8884017e-05
7.8883822e-05
7.9081382e-05
7.9479722e-05
7.9913881e-05
8.0746781e-05
8.0986502e-05
7.9430964e-05
7.1899452e-05
5.2083943e-05
1.5896632e-05
1.5697467e-06
1.2506845e-05
2.2109726e-05
2.6554143e-05
2.7778637e-05
2.7785862e-05
2.7456864e-05
2.7206806e-05
2.7010987e-05
2.6915423e-05
2.6915347e-05
2.7010875e-05
2.7206534e-05
2.7456629e-05
2.7785733e-05
2.7778318e-05
2.6553982e-05
2.2109568e-05
1.2506707e-05
1.5697825e-06
1.1990195e-07
2.7247275e-06
6.3959712e-06
8.4492575e-06
9.1336808e-06
9.1967663e-06
9.0978587e-06
8.9915363e-06
8.9147739e-06
8.8777461e-06
8.8777257e-06
8.9146962e-06
8.9914284e-06
9.0977389e-06
9.1966909e-06
9.1335175e-06
8.4491272e-06
6.3959061e-06
2.7246714e-06
1.199046e-07
8.0793433e-09
5.5846624e-07
1.7513788e-06
2.5530761e-06
2.8577387e-06
2.904772e-06
2.8815988e-06
2.8449824e-06
2.8187269e-06
2.8065246e-06
2.8065163e-06
2.8186928e-06
2.8449409e-06
2.8815459e-06
2.904728e-06
2.8576751e-06
2.553017e-06
1.7513496e-06
5.5845109e-07
8.0794035e-09
5.4039887e-10
1.0974061e-07
4.5459653e-07
7.297822e-07
8.4541094e-07
8.693037e-07
8.6542922e-07
8.547107e-07
8.4666785e-07
8.4296067e-07
8.429571e-07
8.4665542e-07
8.546951e-07
8.6540871e-07
8.6928163e-07
8.4539061e-07
7.2976029e-07
4.5458519e-07
1.09737e-07
5.4038865e-10
3.8297016e-11
2.0734085e-08
1.116496e-07
1.9662387e-07
2.3543175e-07
2.4517442e-07
2.4503366e-07
2.4230123e-07
2.4007624e-07
2.390242e-07
2.3902285e-07
2.4007216e-07
2.4229568e-07
2.4502639e-07
2.4516569e-07
2.3542538e-07
1.9661679e-07
1.1164588e-07
2.0733258e-08
3.8295144e-11
2.8636266e-12
3.748497e-09
2.587813e-08
4.9806182e-08
6.1570913e-08
6.4952317e-08
6.5183867e-08
6.4572294e-08
6.4016217e-08
6.3739918e-08
6.3739476e-08
6.4014962e-08
6.4570467e-08
6.5181502e-08
6.4949415e-08
6.1568875e-08
4.9804094e-08
2.5877076e-08
3.748317e-09
2.8634176e-12
2.1744291e-13
6.4467388e-10
5.6498157e-09
1.1848661e-08
1.5110151e-08
1.6141595e-08
1.6269228e-08
1.6149757e-08
1.6023988e-08
1.5957691e-08
1.5957562e-08
1.6023625e-08
1.6149208e-08
1.6268524e-08
1.6140748e-08
1.5109514e-08
1.1848087e-08
5.6495465e-09
6.4463766e-10
2.1742354e-13
1.6207863e-14
1.0504595e-10
1.1611487e-09
2.6478274e-09
3.4811633e-09
3.7636321e-09
3.8101784e-09
3.7903477e-09
3.7645229e-09
3.7500542e-09
3.7500198e-09
3.7644251e-09
3.7901965e-09
3.8099862e-09
3.7634079e-09
3.4809831e-09
2.6476785e-09
1.1610851e-09
1.0503924e-10
1.6206252e-14
1.1632078e-15
1.6186556e-11
2.2474936e-10
5.5644161e-10
7.5384031e-10
8.2430857e-10
8.3820499e-10
8.3563103e-10
8.3080301e-10
8.2792238e-10
8.2791382e-10
8.3077856e-10
8.3559291e-10
8.3815683e-10
8.242541e-10
7.5379162e-10
5.5640736e-10
2.2473518e-10
1.61854e-11
1.1630841e-15
7.9666021e-17
2.357964e-12
4.1019263e-11
1.1014343e-10
1.5370717e-10
1.6989477e-10
1.7351007e-10
1.7333497e-10
1.7251228e-10
1.719858e-10
1.7198383e-10
1.7250664e-10
1.7332612e-10
1.7349891e-10
1.6988239e-10
1.5369533e-10
1.1013601e-10
4.1016319e-11
2.3577785e-12
7.9657133e-17
5.1890198e-18
3.2497229e-13
7.070401e-12
2.0576087e-11
2.9567657e-11
3.302107e-11
3.3865187e-11
3.3896971e-11
3.3769466e-11
3.3680542e-11
3.3680123e-11
3.3768251e-11
3.3895068e-11
3.3862785e-11
3.3018434e-11
2.9565061e-11
2.0574516e-11
7.069848e-12
3.249439e-13
5.1884184e-18
3.2116571e-19
4.2423729e-14
1.1530999e-12
3.6352031e-12
5.377104e-12
6.0656895e-12
6.2456444e-12
6.2628275e-12
6.2449885e-12
6.2310291e-12
6.2309454e-12
6.2447456e-12
6.2624467e-12
6.245163e-12
6.0651621e-12
5.3765856e-12
3.6348899e-12
1.1530019e-12
4.2419663e-14
3.2112719e-19
1.8894671e-20
5.2539033e-15
1.7827235e-13
6.0862968e-13
9.2638893e-13
1.0553458e-12
1.0907858e-12
1.0956104e-12
1.0933988e-12
1.0913528e-12
1.0913372e-12
1.0933534e-12
1.0955391e-12
1.0906954e-12
1.0552466e-12
9.2629305e-13
6.085709e-13
1.7825591e-13
5.2533598e-15
1.8892341e-20
1.0575681e-21
6.1827362e-16
2.6177144e-14
9.676136e-14
1.5150872e-13
1.7427934e-13
1.8078226e-13
1.8185948e-13
1.8162763e-13
1.8134673e-13
1.8134397e-13
1.8161963e-13
1.8184694e-13
1.8076632e-13
1.7426176e-13
1.5149205e-13
9.6751043e-14
2.6174509e-14
6.1820513e-16
1.0574327e-21
5.6385175e-23
6.9252632e-17
3.6574865e-15
1.4635163e-14
2.3568499e-14
2.737136e-14
2.8490401e-14
2.8700345e-14
2.8682718e-14
2.8646529e-14
2.864607e-14
2.8681388e-14
2.8698257e-14
2.8487743e-14
2.7368415e-14
2.3565752e-14
1.4633466e-14
3.6570822e-15
6.9244369e-17
5.6377561e-23
2.8673939e-24
7.3954556e-18
4.8710956e-16
2.1096833e-15
3.4936634e-15
4.0959752e-15
4.2775004e-15
4.3145732e-15
4.3144463e-15
4.3100702e-15
4.3099979e-15
4.3142366e-15
4.3142431e-15
4.2770791e-15
4.0955066e-15
3.4932309e-15
2.1094193e-15
4.8705037e-16
7.3944974e-18
2.8669845e-24
1.3926825e-25
7.5413695e-19
6.1940042e-17
2.9033135e-16
4.9435601e-16
5.8504389e-16
6.1291572e-16
6.1896341e-16
6.1926557e-16
6.1876971e-16
6.1875886e-16
6.1923402e-16
6.1891361e-16
6.1285196e-16
5.8497282e-16
4.9429084e-16
2.9029215e-16
6.1931772e-17
7.5403017e-19
1.3924733e-25
6.468674e-27
7.3542476e-20
7.5316793e-18
3.8204715e-17
6.688265e-17
7.9891414e-17
8.3955736e-17
8.4877908e-17
8.4958308e-17
8.4905909e-17
8.4904353e-17
8.4953762e-17
8.4870713e-17
8.3946491e-17
7.9881086e-17
6.6873212e-17
3.8199139e-17
7.5305739e-18
7.3531078e-20
6.4676552e-27
2.8768217e-28
6.8681394e-21
8.7704464e-19
4.8143074e-18
8.6648327e-18
1.044614e-17
1.1010584e-17
1.1143056e-17
1.1158171e-17
1.1153057e-17
1.1152842e-17
1.1157542e-17
1.1142058e-17
1.1009295e-17
1.0444697e-17
8.6635178e-18
4.8135446e-18
8.7690306e-19
6.8669723e-21
2.8763385e-28
1.2404539e-29
6.1507679e-22
9.7939385e-20
5.817705e-19
1.0764513e-18
1.3097105e-18
1.3845442e-18
1.4025731e-18
1.404991e-18
1.404539e-18
1.4045103e-18
1.4049072e-18
1.4024397e-18
1.3843714e-18
1.3095165e-18
1.0762748e-18
5.8167005e-19
9.7921959e-20
6.1496206e-22
1.2262594e-29
5.7272239e-31
5.288764e-23
1.0501694e-20
6.7505566e-20
1.2840742e-19
1.5766575e-19
1.6715676e-19
1.6949118e-19
1.6983979e-19
1.6980529e-19
1.698016e-19
1.6982901e-19
1.69474e-19
1.6713443e-19
1.5764067e-19
1.2838462e-19
6.7492824e-20
1.0499632e-20
5.287676e-23
5.0173153e-31
3.5143352e-32
4.371482e-24
1.0825663e-21
7.5306167e-21
1.4725983e-20
1.824665e-20
1.9400234e-20
1.9688762e-20
1.9735257e-20
1.9733292e-20
1.9732836e-20
1.9733923e-20
1.9686632e-20
1.9397461e-20
1.8243526e-20
1.4723149e-20
7.529062e-21
1.0823319e-21
4.3704835e-24
1.9723523e-32
2.8943676e-33
3.4772739e-25
1.0740831e-22
8.0858223e-22
1.6254719e-21
2.0324443e-21
2.1670335e-21
2.2011634e-21
2.2069821e-21
2.206964e-21
2.2069097e-21
2.2068233e-21
2.2009093e-21
2.1667022e-21
2.0320703e-21
1.6251333e-21
8.0839999e-22
1.0738268e-22
3.476385e-25
7.4572197e-34
2.5249789e-34
2.6646676e-26
1.0267732e-23
8.3654472e-23
1.7288074e-22
2.1813117e-22
2.3322578e-22
2.370981e-22
2.3778742e-22
2.3780486e-22
2.3779866e-22
2.3776923e-22
2.3706897e-22
2.3318772e-22
2.1808809e-22
1.7284187e-22
8.363395e-23
1.0265041e-23
2.6638982e-26
2.7144494e-35
2.0339054e-35
1.9691227e-27
9.4667653e-25
8.347669e-24
1.7734846e-23
2.2580019e-23
2.4209518e-23
2.4631694e-23
2.4709452e-23
2.4713088e-23
2.4712407e-23
2.470745e-23
2.4628488e-23
2.4205318e-23
2.2575257e-23
1.7730561e-23
8.3454508e-24
9.4640518e-25
1.9684753e-27
9.5215843e-37
1.4669111e-36
1.4045414e-28
8.4261683e-26
8.0420287e-25
1.7564535e-24
2.2566026e-24
2.4261242e-24
2.4704222e-24
2.4788093e-24
2.4793419e-24
2.4792701e-24
2.4785979e-24
2.4700831e-24
2.425679e-24
2.2560973e-24
1.7560001e-24
8.0397286e-25
8.4235443e-26
1.404013e-28
3.221421e-38
9.4335776e-38
9.6785719e-30
7.2468125e-27
7.4865017e-26
1.6809862e-25
2.1792221e-25
2.3493637e-25
2.3941598e-25
2.4028367e-25
2.4035045e-25
2.4034318e-25
2.4026223e-25
2.3938154e-25
2.3489105e-25
2.1787072e-25
1.6805261e-25
7.484213e-26
7.244377e-27
9.6743982e-30
1.0521167e-39
5.3649716e-39
6.4485678e-31
6.0272135e-28
6.7401733e-27
1.555883e-26
2.0353159e-26
2.2002261e-26
2.2439375e-26
2.2525679e-26
2.2533277e-26
2.2532568e-26
2.2523592e-26
2.2436017e-26
2.1997827e-26
2.0348119e-26
1.5554348e-26
6.7379876e-27
6.0250436e-28
6.4453926e-31
3.319756e-41
2.6707131e-40
4.1574774e-32
4.8515685e-29
5.8733634e-28
1.3938661e-27
1.839895e-27
1.9943995e-27
2.0356018e-27
2.0438705e-27
2.0446748e-27
2.0446084e-27
2.043675e-27
2.0352866e-27
1.9939825e-27
1.8394209e-27
1.3934464e-27
5.8713594e-28
4.8497124e-29
4.1551589e-32
1.0127525e-42
1.2303419e-41
2.5955584e-33
3.7824026e-30
4.9573782e-29
1.2095479e-28
1.6110629e-28
1.7511075e-28
1.7886602e-28
1.7963031e-28
1.7971063e-28
1.7970463e-28
1.7961269e-28
1.7883757e-28
1.75073e-28
1.6106337e-28
1.2091698e-28
4.9556113e-29
3.7808774e-30
2.5939399e-33
1.2024286e-43
5.6165697e-43
1.5702483e-34
2.8581169e-31
4.0557797e-30
1.0173994e-29
1.3674116e-29
1.4903174e-29
1.5234412e-29
1.5302653e-29
1.5310278e-29
1.5309759e-29
1.5301123e-29
1.5231937e-29
1.4899881e-29
1.3670372e-29
1.0170714e-29
4.0542803e-30
2.8569115e-31
1.5691711e-34
1.5531232e-44
)
;

boundaryField
{
    Wall
    {
        type            zeroGradient;
    }
    frontAndBack
    {
        type            empty;
    }
    atmosphere
    {
        type            zeroGradient;
    }
}


// ************************************************************************* //
