/*--------------------------------*- C++ -*----------------------------------*\
| =========                 |                                                 |
| \\      /  F ield         | OpenFOAM: The Open Source CFD Toolbox           |
|  \\    /   O peration     | Version:  3.0.1                                 |
|   \\  /    A nd           | Web:      www.OpenFOAM.org                      |
|    \\/     M anipulation  |                                                 |
\*---------------------------------------------------------------------------*/
FoamFile
{
    version     2.0;
    format      ascii;
    class       volScalarField;
    location    "12";
    object      wCO2_g;
}
// * * * * * * * * * * * * * * * * * * * * * * * * * * * * * * * * * * * * * //

dimensions      [0 0 0 0 0 0 0];

internalField   nonuniform List<scalar> 
800
(
0.0038219115
0.0038220164
0.003822034
0.0038220436
0.0038220506
0.0038220557
0.0038220595
0.0038220621
0.0038220637
0.0038220645
0.0038220645
0.0038220637
0.0038220621
0.0038220595
0.0038220558
0.0038220506
0.0038220436
0.003822034
0.0038220164
0.0038219115
0.0030647356
0.0030791232
0.0030805086
0.0030811021
0.0030815936
0.0030819779
0.0030822677
0.0030824728
0.0030826029
0.003082666
0.003082666
0.0030826028
0.0030824728
0.0030822677
0.0030819779
0.0030815936
0.0030811021
0.0030805087
0.0030791233
0.0030647355
0.0021851934
0.0021973281
0.0021989097
0.0021996104
0.0022000894
0.0022004391
0.0022006864
0.0022008539
0.0022009575
0.0022010073
0.0022010073
0.0022009575
0.0022008538
0.0022006863
0.002200439
0.0022000893
0.0021996103
0.0021989096
0.002197328
0.0021851932
0.0013549257
0.0013695078
0.001370589
0.0013709758
0.001371185
0.001371308
0.0013713747
0.0013714082
0.001371425
0.0013714319
0.0013714319
0.001371425
0.0013714083
0.0013713747
0.0013713081
0.0013711851
0.0013709759
0.0013705891
0.0013695079
0.0013549258
0.00057628276
0.00059055811
0.00059125657
0.00059145044
0.00059145688
0.0005914091
0.00059134436
0.00059128392
0.00059124262
0.00059122118
0.0005912212
0.00059124266
0.00059128399
0.00059134446
0.00059140924
0.00059145705
0.00059145062
0.00059125677
0.00059055833
0.00057628296
0.00020829982
0.00021729086
0.00021853941
0.00021874356
0.00021865113
0.00021847966
0.00021834966
0.00021822542
0.00021815326
0.00021811459
0.00021811461
0.00021815331
0.00021822551
0.00021834977
0.00021847981
0.0002186513
0.00021874374
0.00021853966
0.00021729109
0.00020830011
5.9703466e-05
6.8380768e-05
7.0544645e-05
7.0959671e-05
7.0920631e-05
7.0756281e-05
7.0629962e-05
7.0548472e-05
7.0492249e-05
7.0454392e-05
7.0454407e-05
7.0492248e-05
7.0548469e-05
7.0630029e-05
7.0756323e-05
7.0920719e-05
7.0959872e-05
7.0544787e-05
6.8380904e-05
5.9703678e-05
1.1606352e-05
1.8437587e-05
2.0689246e-05
2.1304968e-05
2.1336176e-05
2.1231196e-05
2.1077832e-05
2.1021672e-05
2.0966412e-05
2.0930988e-05
2.0930962e-05
2.0966412e-05
2.1021614e-05
2.1077811e-05
2.1231215e-05
2.1336179e-05
2.130508e-05
2.0689246e-05
1.8437647e-05
1.1606449e-05
1.432224e-06
4.171539e-06
5.5699539e-06
6.0803084e-06
6.165933e-06
6.1286975e-06
6.0497182e-06
6.0101306e-06
5.9744211e-06
5.9564892e-06
5.9564734e-06
5.9744182e-06
6.0100851e-06
6.0496943e-06
6.1286989e-06
6.1659096e-06
6.0803262e-06
5.5699476e-06
4.1715362e-06
1.43225e-06
1.1893598e-07
8.0595355e-07
1.3887928e-06
1.6574812e-06
1.7267776e-06
1.7212928e-06
1.6946548e-06
1.676013e-06
1.6613113e-06
1.6541306e-06
1.6541256e-06
1.6613055e-06
1.6759956e-06
1.6946416e-06
1.7212885e-06
1.7267607e-06
1.6574775e-06
1.3887877e-06
8.0594872e-07
1.1893913e-07
7.3548614e-09
1.3915786e-07
3.2608308e-07
4.3315307e-07
4.6827731e-07
4.7025696e-07
4.6346668e-07
4.5690801e-07
4.5211935e-07
4.4981627e-07
4.4981518e-07
4.5211566e-07
4.5690248e-07
4.6346099e-07
4.7025427e-07
4.6826969e-07
4.3314808e-07
3.2608121e-07
1.3915585e-07
7.3550953e-09
3.799471e-10
2.260217e-08
7.3218738e-08
1.0884897e-07
1.2253386e-07
1.244122e-07
1.2304946e-07
1.2116315e-07
1.1980954e-07
1.1917769e-07
1.1917736e-07
1.1980812e-07
1.2116143e-07
1.2304733e-07
1.2441065e-07
1.2253133e-07
1.0884682e-07
7.3217904e-08
2.2601701e-08
3.7995721e-10
1.8597974e-11
3.5858832e-09
1.5863294e-08
2.6298719e-08
3.0799333e-08
3.1692897e-08
3.1488921e-08
3.102361e-08
3.0678144e-08
3.0518357e-08
3.0518238e-08
3.0677698e-08
3.1023069e-08
3.1488211e-08
3.1692172e-08
3.0798643e-08
2.6298004e-08
1.5862985e-08
3.5857887e-09
1.8598114e-11
9.7189916e-13
5.6413154e-10
3.3214967e-09
6.0941971e-09
7.4045921e-09
7.7299298e-09
7.7175449e-09
7.6165613e-09
7.5357001e-09
7.4975653e-09
7.4975251e-09
7.5355739e-09
7.6163947e-09
7.7173254e-09
7.7296698e-09
7.4044069e-09
6.0939931e-09
3.3214024e-09
5.6411283e-10
9.7187612e-13
5.7461566e-14
8.7763768e-11
6.7016229e-10
1.3499248e-09
1.6969162e-09
1.7969022e-09
1.8028415e-09
1.7833812e-09
1.7660043e-09
1.7574272e-09
1.7574154e-09
1.7659705e-09
1.7833327e-09
1.8027783e-09
1.7968245e-09
1.6968641e-09
1.3498714e-09
6.7013773e-10
8.7760107e-11
5.7458389e-14
3.7476488e-15
1.336753e-11
1.2974794e-10
2.8501656e-10
3.6983732e-10
3.9691319e-10
4.0017404e-10
3.9686298e-10
3.9343647e-10
3.9164248e-10
3.916394e-10
3.9342776e-10
3.9684986e-10
4.001572e-10
3.9689277e-10
3.6982264e-10
2.850034e-10
1.297422e-10
1.3366852e-11
3.7473556e-15
2.5493218e-16
1.9739842e-12
2.401947e-11
5.7254535e-11
7.6557596e-11
8.3180574e-11
8.4267242e-11
8.3783461e-11
8.316297e-11
8.2817005e-11
8.281626e-11
8.3160852e-11
8.3780188e-11
8.4263072e-11
8.3175688e-11
7.6553784e-11
5.7251427e-11
2.4018222e-11
1.9738669e-12
2.5490855e-16
1.7349063e-17
2.8067525e-13
4.2423948e-12
1.0933929e-11
1.5045956e-11
1.6532543e-11
1.6826568e-11
1.6770872e-11
1.6667576e-11
1.6606084e-11
1.6605915e-11
1.6667092e-11
1.6770117e-11
1.6825614e-11
1.6531461e-11
1.5045006e-11
1.0933273e-11
4.2421369e-12
2.8065622e-13
1.734729e-17
1.1551977e-18
3.8271345e-14
7.1417546e-13
1.9849688e-12
2.8082573e-12
3.1178037e-12
3.1873233e-12
3.1840029e-12
3.1682002e-12
3.1580836e-12
3.1580478e-12
3.1680974e-12
3.1838415e-12
3.1871196e-12
3.1175776e-12
2.8080434e-12
1.9848369e-12
7.1412544e-13
3.826844e-14
1.1550712e-18
7.4465087e-20
4.9945219e-15
1.1457065e-13
3.4276959e-13
4.981458e-13
5.584301e-13
5.7325866e-13
5.7385198e-13
5.7163815e-13
5.7008884e-13
5.7008177e-13
5.7161767e-13
5.7381985e-13
5.7321808e-13
5.5838558e-13
4.9810222e-13
3.4274356e-13
1.1456181e-13
4.994095e-15
7.4456464e-20
4.6240579e-21
6.2335862e-16
1.7523473e-14
5.6354986e-14
8.4069611e-14
9.5114149e-14
9.8018223e-14
9.8303752e-14
9.8022377e-14
9.7800385e-14
9.7799072e-14
9.8018563e-14
9.8297766e-14
9.8010648e-14
9.5105854e-14
8.4061492e-14
5.6350124e-14
1.752199e-14
6.2329946e-16
4.6234945e-21
2.7599302e-22
7.4409742e-17
2.5574343e-15
8.8317481e-15
1.3515339e-14
1.5427058e-14
1.5955269e-14
1.6028656e-14
1.5996895e-14
1.5967015e-14
1.5966786e-14
1.5996228e-14
1.6027608e-14
1.5953941e-14
1.5425598e-14
1.3513933e-14
8.8308886e-15
2.5571975e-15
7.440204e-17
2.7595785e-22
1.5820949e-23
8.499681e-18
3.5651837e-16
1.3209601e-15
2.0725651e-15
2.3862097e-15
2.4761704e-15
2.4913009e-15
2.4882821e-15
2.4844938e-15
2.4844558e-15
2.488172e-15
2.491128e-15
2.4759504e-15
2.3859668e-15
2.0723353e-15
1.3208175e-15
3.5648207e-16
8.4987295e-18
1.5818817e-23
8.7102956e-25
9.2984998e-19
4.7528536e-17
1.8880745e-16
3.0358976e-16
3.524893e-16
3.6692374e-16
3.6966321e-16
3.694622e-16
3.690091e-16
3.6900316e-16
3.6944495e-16
3.696361e-16
3.6688919e-16
3.5245096e-16
3.0355399e-16
1.8878521e-16
4.7523185e-17
9.2973673e-19
8.7090363e-25
4.6077057e-26
9.7516136e-20
6.0664999e-18
2.5822162e-17
4.2536588e-17
4.9797256e-17
5.1989569e-17
5.2441207e-17
5.2442997e-17
5.2391876e-17
5.2390991e-17
5.2440427e-17
5.2437159e-17
5.1984394e-17
4.9791488e-17
4.2531251e-17
2.5818872e-17
6.0657452e-18
9.7503122e-20
4.606992e-26
2.343459e-27
9.8136665e-21
7.4224393e-19
3.3834448e-18
5.7084123e-18
6.7371504e-18
7.0535089e-18
7.1225894e-18
7.1263978e-18
7.1209666e-18
7.1208406e-18
7.1260313e-18
7.1220104e-18
7.052766e-18
6.7363205e-18
5.7076476e-18
3.3829785e-18
7.4214204e-19
9.8122248e-21
2.3430728e-27
1.1467364e-28
9.4868034e-22
8.7153086e-20
4.2525798e-19
7.3468518e-19
8.7402265e-19
9.1752709e-19
9.2744114e-19
9.2834033e-19
9.2779947e-19
9.277823e-19
9.2829011e-19
9.2736155e-19
9.1742461e-19
8.7390783e-19
7.3457952e-19
4.2519442e-19
8.713989e-20
9.4852689e-22
1.146536e-28
5.4031453e-30
8.8182532e-23
9.8318426e-21
5.1331856e-20
9.0792447e-20
1.0886339e-19
1.1457873e-19
1.1592367e-19
1.1608012e-19
1.1603009e-19
1.1602782e-19
1.1607349e-19
1.1591313e-19
1.1456509e-19
1.0884806e-19
9.0778358e-20
5.1323496e-20
9.8301992e-21
8.816681e-23
5.4021126e-30
2.4811094e-31
7.8895618e-24
1.0667787e-21
5.9573656e-21
1.0786056e-20
1.3033556e-20
1.3752365e-20
1.3925748e-20
1.3949208e-20
1.3944984e-20
1.3944695e-20
1.3948363e-20
1.3924399e-20
1.3750614e-20
1.3031583e-20
1.0784241e-20
5.9563039e-21
1.0665814e-21
7.8880095e-24
2.4528543e-31
1.2145298e-32
6.80071e-25
1.1144309e-22
6.6546018e-22
1.2331487e-21
1.5015767e-21
1.5882786e-21
1.6096026e-21
1.6127945e-21
1.6124823e-21
1.6124465e-21
1.6126901e-21
1.6094358e-21
1.5880615e-21
1.5013316e-21
1.2329232e-21
6.6533002e-22
1.1142026e-22
6.7992268e-25
1.0741802e-32
7.6109747e-34
5.6532295e-26
1.122027e-23
7.1619965e-23
1.3581807e-22
1.6664425e-22
1.7668977e-22
1.7919936e-22
1.7960292e-22
1.7958499e-22
1.7958074e-22
1.7959049e-22
1.7917948e-22
1.7666382e-22
1.6661488e-22
1.3579106e-22
7.1604588e-23
1.1217725e-23
5.651855e-26
4.5409137e-34
6.1828347e-35
4.5360131e-27
1.089773e-24
7.4337941e-24
1.4424934e-23
1.7832836e-23
1.8952415e-23
1.923572e-23
1.9283762e-23
1.9283405e-23
1.9282918e-23
1.9282336e-23
1.9233436e-23
1.894943e-23
1.7829446e-23
1.4421818e-23
7.4320466e-24
1.0895e-24
4.534776e-27
1.854494e-35
5.3443814e-36
3.5161299e-28
1.0219795e-25
7.4481623e-25
1.4787189e-24
1.8418002e-24
1.9619779e-24
1.9927157e-24
1.998145e-24
1.9982511e-24
1.9981975e-24
1.9979877e-24
1.9924635e-24
1.9616473e-24
1.8414237e-24
1.4783734e-24
7.4462529e-25
1.0216977e-25
3.515047e-28
7.3226434e-37
4.3273295e-37
2.6352913e-29
9.2617384e-27
7.2098505e-26
1.464375e-25
1.8375474e-25
1.9619348e-25
1.9940404e-25
1.9998969e-25
2.0001309e-25
2.0000741e-25
1.99973e-25
1.9937726e-25
1.961583e-25
1.8371459e-25
1.4640069e-25
7.207847e-26
9.2589465e-27
2.6343707e-29
2.7977015e-38
3.1687539e-38
1.9112093e-30
8.1178126e-28
6.7483605e-27
1.4020791e-26
1.7724313e-26
1.896701e-26
1.9290294e-26
1.9350824e-26
1.9354212e-26
1.9353635e-26
1.9349125e-26
1.9287563e-26
1.8963412e-26
1.77202e-26
1.4017028e-26
6.7463433e-27
8.1151576e-28
1.9104515e-30
1.0350046e-39
2.0786291e-39
1.3422385e-31
6.8867715e-29
6.1122717e-28
1.2989297e-27
1.6541548e-27
1.7741068e-27
1.8055277e-27
1.8115393e-27
1.8119535e-27
1.8118971e-27
1.8113731e-27
1.8052602e-27
1.7737535e-27
1.6537504e-27
1.2985605e-27
6.1103224e-28
6.8843478e-29
1.3416365e-31
3.7101607e-41
1.2041009e-40
9.1348625e-33
5.6589945e-30
5.3611668e-29
1.1652342e-28
1.4947954e-28
1.6067616e-28
1.6362708e-28
1.6420203e-28
1.6424778e-28
1.6424248e-28
1.6418643e-28
1.6360193e-28
1.6064283e-28
1.4944134e-28
1.1648866e-28
5.3593591e-29
5.6568703e-30
9.1302676e-33
1.2895569e-42
6.0604708e-42
6.0286269e-34
4.5072384e-31
4.5569237e-30
1.0128854e-29
1.3088571e-29
1.410006e-29
1.4368115e-29
1.4421158e-29
1.4425853e-29
1.4425375e-29
1.441975e-29
1.4365838e-29
1.4097037e-29
1.3085104e-29
1.0125708e-29
4.5553141e-30
4.5054505e-31
6.025268e-34
4.3487004e-44
2.7933711e-43
3.8606172e-35
3.4818888e-32
3.7560241e-31
8.5372205e-31
1.1112151e-30
1.1997187e-30
1.2232905e-30
1.2280178e-30
1.2284721e-30
1.2284305e-30
1.2278955e-30
1.2230924e-30
1.1994549e-30
1.1109123e-30
8.5344821e-31
3.754646e-31
3.4804431e-32
3.8582732e-35
3.5831035e-45
1.2579759e-44
2.4003874e-36
2.6105035e-33
3.004023e-32
6.9816324e-32
9.1532474e-32
9.9038289e-32
1.0104648e-31
1.0145393e-31
1.0149572e-31
1.0149226e-31
1.0144369e-31
1.0102987e-31
9.9016101e-32
9.1507003e-32
6.9793373e-32
3.0028873e-32
2.6093789e-33
2.398829e-36
3.8409237e-46
)
;

boundaryField
{
    Wall
    {
        type            zeroGradient;
    }
    frontAndBack
    {
        type            empty;
    }
    atmosphere
    {
        type            zeroGradient;
    }
}


// ************************************************************************* //
