/*--------------------------------*- C++ -*----------------------------------*\
| =========                 |                                                 |
| \\      /  F ield         | OpenFOAM: The Open Source CFD Toolbox           |
|  \\    /   O peration     | Version:  3.0.1                                 |
|   \\  /    A nd           | Web:      www.OpenFOAM.org                      |
|    \\/     M anipulation  |                                                 |
\*---------------------------------------------------------------------------*/
FoamFile
{
    version     2.0;
    format      ascii;
    class       volScalarField;
    location    "9";
    object      mOne;
}
// * * * * * * * * * * * * * * * * * * * * * * * * * * * * * * * * * * * * * //

dimensions      [0 0 0 0 0 0 0];

internalField   nonuniform List<scalar> 
800
(
1.3154494
1.3153332
1.3152932
1.3152754
1.3152624
1.3152522
1.3152445
1.315239
1.3152354
1.3152337
1.3152337
1.3152354
1.315239
1.3152445
1.3152522
1.3152625
1.3152754
1.3152932
1.3153332
1.3154494
0.83633816
0.83781034
0.83827695
0.83857819
0.83879035
0.83894368
0.8390533
0.83912908
0.83917688
0.83919999
0.83919999
0.83917684
0.83912903
0.83905324
0.8389436
0.83879026
0.8385781
0.83827686
0.83781022
0.83633804
0.42887526
0.43156564
0.43181171
0.43192178
0.43198
0.4320142
0.43203484
0.4320477
0.43205536
0.432059
0.432059
0.43205535
0.43204767
0.43203481
0.43201416
0.43197996
0.43192172
0.43181165
0.43156557
0.42887518
0.13221741
0.13350691
0.13343388
0.13335255
0.13328456
0.13322905
0.13318702
0.13315699
0.13313772
0.13312833
0.13312834
0.13313774
0.13315703
0.13318708
0.13322912
0.13328463
0.13335263
0.13343397
0.133507
0.1322175
0.030972296
0.033022986
0.033191825
0.033178362
0.033143782
0.033112693
0.033089242
0.033072684
0.033062136
0.033057002
0.033057004
0.033062143
0.033072695
0.033089258
0.033112712
0.033143802
0.033178387
0.033191848
0.033023008
0.030972324
0.0049467715
0.0071266709
0.0076560664
0.0077782099
0.0077969943
0.0077929368
0.0077861728
0.0077807385
0.0077771845
0.0077754462
0.0077754457
0.0077771827
0.0077807357
0.0077861691
0.0077929318
0.0077969867
0.0077782007
0.0076560537
0.0071266574
0.0049467633
0.00046834809
0.0013636335
0.001710857
0.0018096883
0.0018317632
0.0018343793
0.0018331928
0.0018317691
0.0018307736
0.0018302798
0.001830279
0.0018307711
0.0018317651
0.0018331875
0.0018343725
0.0018317546
0.0018096779
0.0017108449
0.0013636221
0.00046834294
3.7109457e-05
0.00025182255
0.00038241029
0.00042557358
0.00043620337
0.00043798336
0.00043786699
0.00043750861
0.00043723712
0.0004371002
0.00043709972
0.00043723571
0.0004375064
0.00043786408
0.00043797974
0.00043619891
0.00042556835
0.00038240463
0.00025181795
3.7108456e-05
2.9968118e-06
4.601998e-05
8.4378488e-05
9.8793527e-05
0.00010254615
0.00010323824
0.00010324858
0.00010315759
0.00010308386
0.00010304613
0.00010304593
0.00010308327
0.00010315667
0.00010324738
0.00010323678
0.00010254441
9.8791544e-05
8.4376475e-05
4.6018604e-05
2.9966764e-06
2.5188236e-07
8.211804e-06
1.7980507e-05
2.2089438e-05
2.3203814e-05
2.3418639e-05
2.3428341e-05
2.3405536e-05
2.3386126e-05
2.3376078e-05
2.3376006e-05
2.3385918e-05
2.3405213e-05
2.3427925e-05
2.3418144e-05
2.3203242e-05
2.208881e-05
1.7979911e-05
8.2114636e-06
2.5186674e-07
2.1499288e-08
1.4074133e-06
3.6422388e-06
4.681875e-06
4.9735126e-06
5.0312605e-06
5.034753e-06
5.0293192e-06
5.0245219e-06
5.0220134e-06
5.0219912e-06
5.0244578e-06
5.0292202e-06
5.034627e-06
5.0311133e-06
4.9733479e-06
4.6817015e-06
3.642086e-06
1.4073406e-06
2.149766e-08
1.8158532e-09
2.2935589e-07
6.959283e-07
9.3386389e-07
1.0026202e-06
1.0165119e-06
1.0174959e-06
1.0162964e-06
1.0152037e-06
1.014627e-06
1.014621e-06
1.0151862e-06
1.0162694e-06
1.0174619e-06
1.0164728e-06
1.0025777e-06
9.33821e-07
6.9589334e-07
2.2934201e-07
1.815696e-09
1.4911772e-10
3.5386831e-08
1.2516383e-07
1.7502981e-07
1.8983834e-07
1.9288328e-07
1.9312592e-07
1.9288307e-07
1.9265489e-07
1.9253337e-07
1.925319e-07
1.9265064e-07
1.9287652e-07
1.9311767e-07
1.9287389e-07
1.8982834e-07
1.7502011e-07
1.251565e-07
3.5384396e-08
1.4910331e-10
1.1788642e-11
5.1651097e-09
2.1208686e-08
3.0869023e-08
3.381308e-08
3.4428523e-08
3.4482791e-08
3.4437702e-08
3.4393898e-08
3.4370356e-08
3.4370034e-08
3.4392965e-08
3.4436262e-08
3.4480977e-08
3.4426468e-08
3.3810919e-08
3.086699e-08
2.120725e-08
5.1647072e-09
1.178737e-11
8.9290085e-13
7.1394994e-10
3.3935358e-09
5.1364975e-09
5.6811592e-09
5.7968536e-09
5.8080243e-09
5.8003124e-09
5.7925356e-09
5.7883175e-09
5.7882535e-09
5.7923503e-09
5.8000254e-09
5.8076618e-09
5.7964422e-09
5.6807289e-09
5.1361001e-09
3.3932703e-09
7.1388659e-10
8.927924e-13
6.4683463e-14
9.3630524e-11
5.1414411e-10
8.0882837e-10
9.0320335e-10
9.2356386e-10
9.2569659e-10
9.2447432e-10
9.2318885e-10
9.2248514e-10
9.2247357e-10
9.2315529e-10
9.2442215e-10
9.2563035e-10
9.2348833e-10
9.0312423e-10
8.0875601e-10
5.1409783e-10
9.3621038e-11
6.4674595e-14
4.4815961e-15
1.1676051e-11
7.396727e-11
1.2089382e-10
1.3629048e-10
1.3966246e-10
1.4004222e-10
1.3986169e-10
1.3966258e-10
1.3955256e-10
1.3955064e-10
1.3965701e-10
1.3985298e-10
1.400311e-10
1.3964969e-10
1.3627704e-10
1.2088157e-10
7.3959697e-11
1.1674709e-11
4.4809078e-15
2.9725803e-16
1.3877814e-12
1.0132412e-11
1.7201418e-11
1.957693e-11
2.0104761e-11
2.0168133e-11
2.0143157e-11
2.0114091e-11
2.0097878e-11
2.0097584e-11
2.0113234e-11
2.0141813e-11
2.0166406e-11
2.0102763e-11
1.9574811e-11
1.7199486e-11
1.0131253e-11
1.3876031e-12
2.9720767e-16
1.8902696e-17
1.5758207e-13
1.325075e-12
2.3362078e-12
2.6841447e-12
2.7625331e-12
2.7724883e-12
2.7692382e-12
2.7652188e-12
2.7629552e-12
2.7629129e-12
2.7650954e-12
2.7690439e-12
2.7722374e-12
2.7622409e-12
2.6838327e-12
2.3359228e-12
1.3249085e-12
1.5755981e-13
1.8899227e-17
1.1543382e-18
1.7133085e-14
1.6583944e-13
3.0362486e-13
3.5216498e-13
3.6324641e-13
3.6472478e-13
3.6432565e-13
3.6379685e-13
3.6349609e-13
3.6349034e-13
3.6378002e-13
3.6429907e-13
3.646903e-13
3.6320603e-13
3.5212162e-13
3.0358524e-13
1.6581691e-13
1.7130463e-14
1.1541119e-18
6.7815294e-20
1.7874922e-15
1.9908958e-14
3.7848855e-14
4.4317899e-14
4.5813498e-14
4.6021832e-14
4.5975468e-14
4.5909028e-14
4.5870853e-14
4.58701e-14
4.5906825e-14
4.5971981e-14
4.601729e-14
4.5808156e-14
4.431214e-14
3.7843599e-14
1.9906052e-14
1.787198e-15
6.7801195e-20
3.8394783e-21
1.7931519e-16
2.2974495e-15
4.5351595e-15
5.3609453e-15
5.5541748e-15
5.5821332e-15
5.577032e-15
5.5690338e-15
5.564389e-15
5.5642935e-15
5.5687537e-15
5.5765877e-15
5.581553e-15
5.5534902e-15
5.3602057e-15
4.5344868e-15
2.2970886e-15
1.7928341e-16
3.8386303e-21
2.0984989e-22
1.7329435e-17
2.5535065e-16
5.2338473e-16
6.2459403e-16
6.4855068e-16
6.5213513e-16
6.516034e-16
6.5067829e-16
6.5013504e-16
6.5012318e-16
6.5064348e-16
6.5154806e-16
6.5206266e-16
6.4846496e-16
6.2450133e-16
5.2330084e-16
2.5530708e-16
1.7326102e-17
2.0980022e-22
1.1090341e-23
1.6162993e-18
2.7385184e-17
5.8282357e-17
7.0217884e-17
7.3074389e-17
7.3514676e-17
7.3462243e-17
7.3359181e-17
7.329795e-17
7.3296507e-17
7.3354941e-17
7.3455488e-17
7.3505805e-17
7.306387e-17
7.0206503e-17
5.827212e-17
2.7380045e-17
1.6159583e-18
1.1087494e-23
5.6760784e-25
1.4573109e-19
2.8386893e-18
6.273061e-18
7.6300933e-18
7.9583239e-18
8.0102729e-18
8.0053994e-18
7.9943174e-18
7.9876529e-18
7.9874814e-18
7.9938129e-18
8.0045937e-18
8.0092115e-18
7.9570619e-18
7.6287267e-18
6.2718395e-18
2.8380973e-18
1.4569703e-19
5.6744814e-25
2.817378e-26
1.2721798e-20
2.8485603e-19
6.5362976e-19
8.0265243e-19
8.3906601e-19
8.4496747e-19
8.4454371e-19
8.4339146e-19
8.4268974e-19
8.4266994e-19
8.4333314e-19
8.4445031e-19
8.4484399e-19
8.389187e-19
8.0249269e-19
6.5348784e-19
2.8478963e-19
1.2718486e-20
2.8165045e-26
1.3580623e-27
1.076803e-21
2.7712163e-20
6.6027837e-20
8.1860332e-20
8.5767184e-20
8.6414023e-20
8.6380063e-20
8.6264032e-20
8.6192444e-20
8.6190236e-20
8.6257518e-20
8.6369601e-20
8.6400139e-20
8.5750556e-20
8.1842262e-20
6.6011867e-20
2.7704948e-20
1.0764912e-21
1.3575996e-27
6.5082362e-29
8.8490686e-23
2.6172156e-21
6.4751858e-21
8.105026e-21
8.5110478e-21
8.5795831e-21
8.5771537e-21
8.5658211e-21
8.5587358e-21
8.558499e-21
8.5651214e-21
8.5760265e-21
8.5780812e-21
8.5092415e-21
8.1030576e-21
6.4734541e-21
2.6164598e-21
8.846235e-23
6.3629245e-29
3.7504508e-30
7.0692969e-24
2.4025797e-22
6.1723769e-22
7.8003669e-22
8.2096818e-22
8.2799991e-22
8.278573e-22
8.2678239e-22
8.261012e-22
8.2607683e-22
8.2671029e-22
8.2774079e-22
8.2784404e-22
8.2077992e-22
7.7983091e-22
6.1705742e-22
2.401819e-22
7.0667871e-24
2.9031923e-30
2.525883e-31
5.4963834e-25
2.1463121e-23
5.7257841e-23
7.3057071e-23
7.7065099e-23
7.7764812e-23
7.7760119e-23
7.7660988e-23
7.7597299e-23
7.7594895e-23
7.7653865e-23
7.7748577e-23
7.7749311e-23
7.7046297e-23
7.3036457e-23
5.7239853e-23
2.1455777e-23
5.4942302e-25
1.2909325e-31
1.8381909e-32
4.1636184e-26
1.8679192e-24
5.1745533e-24
6.6660531e-24
7.0477384e-24
7.1153636e-24
7.115736e-24
7.1068372e-24
7.1010402e-24
7.1008127e-24
7.1061623e-24
7.1146395e-24
7.1138857e-24
7.0459385e-24
6.6640739e-24
5.1728333e-24
1.8672396e-24
4.1618377e-26
5.5999078e-33
1.3472002e-33
3.0760849e-27
1.5853162e-25
4.5604545e-25
5.9316595e-25
6.2855592e-25
6.3491215e-25
6.3501734e-25
6.3423896e-25
6.3372473e-25
6.3370404e-25
6.3417751e-25
6.3491726e-25
6.3477683e-25
6.2839054e-25
5.9298363e-25
4.5588767e-25
1.5847128e-25
3.0746678e-27
2.3720154e-34
9.4999452e-35
2.2185616e-28
1.3133499e-26
3.9233267e-26
5.1522626e-26
5.472093e-26
5.5302652e-26
5.5318115e-26
5.525171e-26
5.5207209e-26
5.5205396e-26
5.5246321e-26
5.5309323e-26
5.5290732e-26
5.4706318e-26
5.1506485e-26
3.9219363e-26
1.3128354e-26
2.2174774e-28
9.819622e-36
6.2339105e-36
1.563424e-29
1.0630166e-27
3.2976137e-27
4.3724181e-27
4.6544236e-27
4.7063207e-27
4.7081751e-27
4.7026445e-27
4.698884e-27
4.6987307e-27
4.7021883e-27
4.7074298e-27
4.7053082e-27
4.6531797e-27
4.3710422e-27
3.2964345e-27
1.0625946e-27
1.5626268e-29
3.9762057e-37
3.6452893e-37
1.0773982e-30
8.4131603e-29
2.7102423e-28
3.6283665e-28
3.8711945e-28
3.9163729e-28
3.9183658e-28
3.9138651e-28
3.9107592e-28
3.9106337e-28
3.9134915e-28
3.9177548e-28
3.9155418e-28
3.870172e-28
3.6272349e-28
2.7092782e-28
8.409825e-29
1.0768361e-30
1.5760622e-38
1.7047976e-38
7.26623e-32
6.5159863e-30
2.1798247e-29
2.9465124e-29
3.150885e-29
3.1892996e-29
3.1912899e-29
3.1877084e-29
3.1851989e-29
3.1850992e-29
3.1874117e-29
3.1908044e-29
3.188639e-29
3.1500719e-29
2.9456128e-29
2.1790632e-29
6.5134415e-30
7.2624473e-32
6.1195743e-40
4.4869475e-40
4.7994604e-33
4.9422481e-31
1.716966e-30
2.3433358e-30
2.5115977e-30
2.5435298e-30
2.5454109e-30
2.5426217e-30
2.5406366e-30
2.5405596e-30
2.5423926e-30
2.5450362e-30
2.5430203e-30
2.510971e-30
2.3426435e-30
1.7163841e-30
4.9403713e-31
4.7970581e-33
2.3291911e-41
1.1746662e-41
3.1069078e-34
3.6736128e-32
1.3253496e-31
1.8263849e-31
1.9620048e-31
1.9879757e-31
1.989676e-31
1.9875488e-31
1.9860102e-31
1.9859523e-31
1.9873766e-31
1.9893946e-31
1.9875938e-31
1.9615359e-31
1.8258681e-31
1.3249187e-31
3.6722732e-32
3.1054403e-34
8.6955163e-43
3.0678392e-43
1.972382e-35
2.6777226e-33
1.0032522e-32
1.3959363e-32
1.5030285e-32
1.5237123e-32
1.5251922e-32
1.5236023e-32
1.5224329e-32
1.5223904e-32
1.5234759e-32
1.5249862e-32
1.5234333e-32
1.5026872e-32
1.3955618e-32
1.0029428e-32
2.6767957e-33
1.9715094e-35
3.1858933e-44
8.019055e-45
1.228642e-36
1.9151233e-34
7.4518353e-34
1.0469377e-33
1.1298468e-33
1.1459905e-33
1.1472371e-33
1.1460719e-33
1.1451998e-33
1.1451693e-33
1.1459813e-33
1.1470898e-33
1.1457918e-33
1.1296048e-33
1.0466737e-33
7.4496776e-34
1.9145007e-34
1.2281369e-36
1.1460965e-45
)
;

boundaryField
{
    Wall
    {
        type            zeroGradient;
    }
    frontAndBack
    {
        type            empty;
    }
    atmosphere
    {
        type            zeroGradient;
    }
}


// ************************************************************************* //
