/*--------------------------------*- C++ -*----------------------------------*\
| =========                 |                                                 |
| \\      /  F ield         | OpenFOAM: The Open Source CFD Toolbox           |
|  \\    /   O peration     | Version:  3.0.1                                 |
|   \\  /    A nd           | Web:      www.OpenFOAM.org                      |
|    \\/     M anipulation  |                                                 |
\*---------------------------------------------------------------------------*/
FoamFile
{
    version     2.0;
    format      ascii;
    class       volScalarField;
    location    "9";
    object      mTwo;
}
// * * * * * * * * * * * * * * * * * * * * * * * * * * * * * * * * * * * * * //

dimensions      [0 0 0 0 0 0 0];

internalField   nonuniform List<scalar> 
800
(
1.7228426e-13
1.7225383e-13
1.7224337e-13
1.722387e-13
1.7223532e-13
1.7223265e-13
1.7223062e-13
1.7222918e-13
1.7222825e-13
1.7222779e-13
1.7222779e-13
1.7222825e-13
1.7222918e-13
1.7223063e-13
1.7223265e-13
1.7223532e-13
1.722387e-13
1.7224337e-13
1.7225383e-13
1.7228426e-13
7.5802568e-14
7.6047909e-14
7.6125699e-14
7.6176219e-14
7.6212118e-14
7.6238218e-14
7.625695e-14
7.6269932e-14
7.6278131e-14
7.62821e-14
7.6282099e-14
7.6278126e-14
7.6269923e-14
7.625694e-14
7.6238207e-14
7.6212104e-14
7.6176204e-14
7.6125684e-14
7.6047892e-14
7.5802549e-14
2.9913991e-14
3.0182156e-14
3.0213979e-14
3.0230368e-14
3.0240158e-14
3.0246488e-14
3.0250642e-14
3.0253369e-14
3.0255041e-14
3.0255841e-14
3.0255841e-14
3.0255038e-14
3.0253364e-14
3.0250636e-14
3.0246482e-14
3.024015e-14
3.0230358e-14
3.021397e-14
3.0182145e-14
2.9913979e-14
6.9621236e-15
7.0444356e-15
7.0438836e-15
7.0416228e-15
7.0392706e-15
7.0371499e-15
7.0354642e-15
7.0342281e-15
7.0334243e-15
7.0330307e-15
7.0330311e-15
7.0334251e-15
7.0342294e-15
7.035466e-15
7.0371522e-15
7.0392731e-15
7.0416258e-15
7.0438868e-15
7.0444387e-15
6.9621266e-15
1.2843066e-15
1.3632327e-15
1.3690894e-15
1.3685446e-15
1.367213e-15
1.3659959e-15
1.3650665e-15
1.3644049e-15
1.3639816e-15
1.3637751e-15
1.3637752e-15
1.3639818e-15
1.3644053e-15
1.365067e-15
1.3659965e-15
1.3672137e-15
1.3685454e-15
1.3690901e-15
1.3632334e-15
1.2843076e-15
1.6460128e-16
2.3337935e-16
2.504533e-16
2.5454886e-16
2.5521023e-16
2.55081e-16
2.5485096e-16
2.5466376e-16
2.5454069e-16
2.5448038e-16
2.5448037e-16
2.5454064e-16
2.5466368e-16
2.5485085e-16
2.5508085e-16
2.5521e-16
2.5454859e-16
2.5045294e-16
2.3337896e-16
1.6460108e-16
1.232558e-17
3.5222987e-17
4.4441919e-17
4.7171957e-17
4.7800931e-17
4.7878307e-17
4.7844836e-17
4.78037e-17
4.7774735e-17
4.7760338e-17
4.7760318e-17
4.7774674e-17
4.7803602e-17
4.7844707e-17
4.7878143e-17
4.780072e-17
4.7171709e-17
4.4441635e-17
3.5222723e-17
1.232547e-17
7.4631557e-19
5.0984233e-18
7.9100397e-18
8.8860173e-18
9.1344311e-18
9.1771784e-18
9.1746982e-18
9.1662228e-18
9.15974e-18
9.1564617e-18
9.1564521e-18
9.1597119e-18
9.1661785e-18
9.1746398e-18
9.1771059e-18
9.1343421e-18
8.885915e-18
7.9099314e-18
5.0983388e-18
7.4629875e-19
4.4713858e-20
7.3288124e-19
1.4028072e-18
1.6702422e-18
1.7424751e-18
1.7561963e-18
1.7565327e-18
1.7548089e-18
1.7533885e-18
1.752659e-18
1.7526557e-18
1.7533788e-18
1.7547937e-18
1.7565129e-18
1.7561723e-18
1.7424466e-18
1.6702105e-18
1.402776e-18
7.3286124e-19
4.4712149e-20
2.7667285e-21
1.0428499e-19
2.4393885e-19
3.0701707e-19
3.2482592e-19
3.2837134e-19
3.2857552e-19
3.2823091e-19
3.2792945e-19
3.2777259e-19
3.2777161e-19
3.2792661e-19
3.2822648e-19
3.2856982e-19
3.2836455e-19
3.2481814e-19
3.0700871e-19
2.4393124e-19
1.0428102e-19
2.7665807e-21
1.7678862e-22
1.4538885e-20
4.1063638e-20
5.4432901e-20
5.8345916e-20
5.9147171e-20
5.9207185e-20
5.9140809e-20
5.9079912e-20
5.904786e-20
5.9047605e-20
5.9079175e-20
5.9139666e-20
5.9205728e-20
5.9145471e-20
5.8344026e-20
5.4430958e-20
4.1062005e-20
1.4538189e-20
1.7677681e-22
1.1545072e-23
1.969901e-21
6.6427164e-21
9.2419056e-21
1.0026509e-20
1.0190422e-20
1.0204538e-20
1.0192431e-20
1.0180863e-20
1.017471e-20
1.0174651e-20
1.0180691e-20
1.0192166e-20
1.0204202e-20
1.0190036e-20
1.0026091e-20
9.2414941e-21
6.6423979e-21
1.9697897e-21
1.1544167e-23
7.6079844e-25
2.5811346e-22
1.0293561e-21
1.4987111e-21
1.6443562e-21
1.6752837e-21
1.6782173e-21
1.6761456e-21
1.6740883e-21
1.6729833e-21
1.6729707e-21
1.6740519e-21
1.6760894e-21
1.6781465e-21
1.6752031e-21
1.6442709e-21
1.4986302e-21
1.0292982e-21
2.5809671e-22
7.6073029e-25
4.9989565e-26
3.2618326e-23
1.5267875e-22
2.3209147e-22
2.5737095e-22
2.6281769e-22
2.633763e-22
2.6304456e-22
2.6270184e-22
2.6251596e-22
2.6251353e-22
2.6269481e-22
2.6303369e-22
2.6336259e-22
2.6280216e-22
2.5735471e-22
2.3207652e-22
1.5266875e-22
3.2615906e-23
4.9984469e-26
3.2432599e-27
3.9705003e-24
2.1685666e-23
3.4356891e-23
3.8489443e-23
3.9392101e-23
3.9491183e-23
3.9441415e-23
3.9387753e-23
3.9358367e-23
3.9357937e-23
3.9386509e-23
3.9439485e-23
3.9488742e-23
3.9389331e-23
3.8486559e-23
3.4354283e-23
2.1684017e-23
3.970162e-24
3.2428824e-27
2.06269e-28
4.6536314e-25
2.9524872e-24
4.8687461e-24
5.508513e-24
5.6501027e-24
5.6666177e-24
5.6596025e-24
5.6516716e-24
5.6472864e-24
5.6472165e-24
5.6514686e-24
5.6592864e-24
5.6662158e-24
5.6496445e-24
5.5080352e-24
4.8683177e-24
2.9522278e-24
4.6531757e-25
2.0624163e-28
1.2796371e-29
5.2526334e-26
3.8581692e-25
6.6157246e-25
7.5576801e-25
7.7688176e-25
7.7948276e-25
7.7855071e-25
7.7743945e-25
7.7681907e-25
7.7680852e-25
7.7740877e-25
7.7850273e-25
7.794214e-25
7.7681131e-25
7.5569413e-25
6.6150639e-25
3.8577826e-25
5.252047e-26
1.2794456e-29
7.7194075e-31
5.7126155e-27
4.8457443e-26
8.6341175e-26
9.9576745e-26
1.0258029e-25
1.0296892e-25
1.0285184e-25
1.0270362e-25
1.0262007e-25
1.0261858e-25
1.0269929e-25
1.0284504e-25
1.0296017e-25
1.0257017e-25
9.9566057e-26
8.6331606e-26
4.8452003e-26
5.7118996e-27
7.7181274e-31
4.5202051e-32
5.9910676e-28
5.8580133e-27
1.084053e-26
1.2620502e-26
1.3029285e-26
1.3084555e-26
1.3070619e-26
1.305173e-26
1.3040977e-26
1.304078e-26
1.3051154e-26
1.306971e-26
1.308338e-26
1.3027916e-26
1.2619046e-26
1.0839224e-26
5.8572902e-27
5.9902399e-28
4.5193901e-32
2.5672054e-33
6.0644336e-29
6.8261114e-28
1.311485e-27
1.5411639e-27
1.5945239e-27
1.6020281e-27
1.6004532e-27
1.598146e-27
1.5968192e-27
1.5967942e-27
1.5980727e-27
1.6003374e-27
1.6018777e-27
1.5943478e-27
1.5409755e-27
1.3113158e-27
6.8251987e-28
6.0635236e-29
2.5667097e-33
1.4139369e-34
5.9311624e-30
7.6778468e-29
1.5311422e-28
1.8161224e-28
1.8830729e-28
1.8928255e-28
1.8911345e-28
1.8884256e-28
1.8868515e-28
1.8868209e-28
1.8883358e-28
1.8909921e-28
1.8926398e-28
1.8828546e-28
1.8158879e-28
1.5309318e-28
7.6767425e-29
5.9302033e-30
1.4136468e-34
7.5543369e-36
5.6107738e-31
8.347178e-30
1.7275669e-29
2.0682426e-29
2.1491446e-29
2.1613063e-29
2.1595818e-29
2.1565171e-29
2.1547168e-29
2.1546801e-29
2.1564094e-29
2.159411e-29
2.161083e-29
2.1488811e-29
2.0679589e-29
1.727313e-29
8.3458841e-30
5.6097951e-31
7.5526868e-36
3.9175298e-37
5.1394758e-32
8.7830018e-31
1.8863287e-30
2.2793956e-30
2.3737162e-30
2.388301e-30
2.3866333e-30
2.3832851e-30
2.3812958e-30
2.3812527e-30
2.3831584e-30
2.3864318e-30
2.3880369e-30
2.3734039e-30
2.279059e-30
1.8860289e-30
8.7815209e-31
5.1385014e-32
3.9166112e-37
1.9733573e-38
4.5636054e-33
8.955588e-32
1.9958483e-31
2.434268e-31
2.5405362e-31
2.5573909e-31
2.5558678e-31
2.552329e-31
2.5502014e-31
2.5501515e-31
2.5521824e-31
2.5556341e-31
2.5570836e-31
2.5401719e-31
2.4338751e-31
1.9955002e-31
8.953925e-32
4.5626545e-33
1.9728547e-38
9.6637695e-40
3.9324563e-34
8.8595742e-33
2.0487983e-32
2.5222268e-32
2.6381055e-32
2.6569102e-32
2.655607e-32
2.6519827e-32
2.6497766e-32
2.64972e-32
2.6518162e-32
2.655341e-32
2.6565595e-32
2.6376885e-32
2.5217767e-32
2.0484018e-32
8.8577431e-33
3.9315471e-34
9.6610689e-40
4.6049494e-41
3.2919116e-35
8.5132188e-34
2.0428521e-33
2.5384769e-33
2.6609418e-33
2.6812319e-33
2.6802032e-33
2.6766015e-33
2.6743808e-33
2.6743182e-33
2.6764172e-33
2.679908e-33
2.6808414e-33
2.6604759e-33
2.5379733e-33
2.0424108e-33
8.5112496e-34
3.2910626e-35
4.6035299e-41
2.1371565e-42
2.6798341e-36
7.9543864e-35
1.9806929e-34
2.4843521e-34
2.6099519e-34
2.631158e-34
2.6304331e-34
2.6269558e-34
2.6247833e-34
2.6247164e-34
2.6267583e-34
2.6301157e-34
2.6307365e-34
2.6094472e-34
2.4838052e-34
1.980216e-34
7.9523293e-35
2.6790642e-36
2.1364321e-42
9.9905773e-44
2.1236043e-37
7.2343116e-36
1.8693469e-35
2.3667616e-35
2.4919196e-35
2.5134186e-35
2.5130011e-35
2.5097359e-35
2.5076681e-35
2.507599e-35
2.5095317e-35
2.5126719e-35
2.5129798e-35
2.4913919e-35
2.3661881e-35
1.8688489e-35
7.2322348e-36
2.122929e-37
9.6652641e-44
6.1568977e-45
1.6396843e-38
6.4104437e-37
1.719018e-36
2.1969629e-36
2.3182764e-36
2.3394474e-36
2.339317e-36
2.3363321e-36
2.3344155e-36
2.3343469e-36
2.336129e-36
2.3389887e-36
2.3390081e-36
2.3177459e-36
2.1963845e-36
1.7185176e-36
6.4084246e-37
1.6391049e-38
4.2662889e-45
4.5202883e-46
1.2347028e-39
5.5396236e-38
1.5416682e-37
1.9889318e-37
2.1034301e-37
2.123705e-37
2.1238228e-37
2.1211638e-37
2.1194324e-37
2.119367e-37
2.1209698e-37
2.1235084e-37
2.1232826e-37
2.1029178e-37
1.9883716e-37
1.5411854e-37
5.537737e-38
1.2342197e-39
1.8389525e-46
3.474738e-47
9.0752077e-41
4.6725519e-39
1.3495913e-38
1.7576265e-38
1.8629576e-38
1.8818622e-38
1.8821773e-38
1.8798671e-38
1.8783414e-38
1.8782814e-38
1.8796891e-38
1.881888e-38
1.8814722e-38
1.8624827e-38
1.7571055e-38
1.3491439e-38
4.6708589e-39
9.0713156e-41
7.7469248e-48
2.6026351e-48
6.5163087e-42
3.8500902e-40
1.154185e-39
1.5174116e-39
1.6119454e-39
1.6291255e-39
1.6295817e-39
1.6276224e-39
1.6263097e-39
1.6262567e-39
1.6274651e-39
1.6293255e-39
1.628779e-39
1.6115219e-39
1.5169459e-39
1.1537867e-39
3.8486304e-40
6.5132867e-42
3.1920042e-49
1.8371429e-49
4.5744577e-43
3.1015127e-41
9.6505659e-41
1.2808321e-40
1.3636781e-40
1.3789103e-40
1.3794525e-40
1.3778291e-40
1.3767254e-40
1.3766804e-40
1.3776951e-40
1.3792338e-40
1.3786136e-40
1.3633145e-40
1.2804314e-40
9.6471538e-41
3.100302e-41
4.5721984e-43
1.2873351e-50
1.1934e-50
3.1419241e-44
2.444488e-42
7.8951292e-42
1.0578339e-41
1.1287867e-41
1.1419747e-41
1.1425536e-41
1.1412385e-41
1.1403311e-41
1.140294e-41
1.1411281e-41
1.1423731e-41
1.1417295e-41
1.1284854e-41
1.0575015e-41
7.8923124e-42
2.4435208e-42
3.1402995e-44
5.0852934e-52
6.8685027e-52
2.1128989e-45
1.8863547e-43
6.3241656e-43
8.554353e-43
9.1486741e-43
9.2602715e-43
9.2660222e-43
9.2555992e-43
9.2482971e-43
9.2480011e-43
9.2547179e-43
9.2645804e-43
9.2583099e-43
9.1462612e-43
8.5516886e-43
6.3219207e-43
1.8856093e-43
2.1117779e-45
1.9688988e-53
3.1503515e-53
1.3921345e-46
1.4261778e-44
4.9633798e-44
6.7778748e-44
7.2651217e-44
7.3574927e-44
7.362904e-44
7.354816e-44
7.3490607e-44
7.3488313e-44
7.354133e-44
7.3617863e-44
7.3559715e-44
7.2632496e-44
6.7758081e-44
4.9616495e-44
1.4256226e-44
1.3913965e-46
7.4762871e-55
8.066e-55
8.9924691e-48
1.057103e-45
3.8190889e-45
5.2651895e-45
5.6564429e-45
5.7312869e-45
5.73616e-45
5.7300112e-45
5.7255649e-45
5.7253919e-45
5.7294962e-45
5.7353175e-45
5.7301409e-45
5.6550334e-45
5.2636358e-45
3.8177972e-45
1.0567028e-45
8.9878897e-48
2.7858709e-56
2.0511411e-56
5.6982143e-49
7.6862962e-47
2.8827897e-46
4.0124684e-46
4.3203886e-46
4.3797951e-46
4.3840229e-46
4.3794403e-46
4.3760711e-46
4.3759438e-46
4.3790616e-46
4.3834043e-46
4.378955e-46
4.3193574e-46
4.0113345e-46
2.8818544e-46
7.6835021e-47
5.6954805e-49
1.0192664e-57
5.1922247e-58
3.5440763e-50
5.485522e-48
2.1359178e-47
3.001479e-47
3.2391469e-47
3.2853713e-47
3.2889216e-47
3.2855713e-47
3.2830656e-47
3.2829742e-47
3.2852995e-47
3.2884784e-47
3.2847709e-47
3.2384124e-47
3.0006747e-47
2.1352604e-47
5.4836291e-48
3.5424861e-50
3.6633466e-59
1.3117919e-59
2.1646539e-51
3.8445454e-49
1.5541961e-48
2.205058e-48
2.3850826e-48
2.4203668e-48
2.4232629e-48
2.4208591e-48
2.419029e-48
2.4189646e-48
2.4206682e-48
2.4229524e-48
2.4199478e-48
2.3845725e-48
2.2045027e-48
1.553747e-48
3.8432994e-49
2.1637523e-51
1.293946e-60
)
;

boundaryField
{
    Wall
    {
        type            zeroGradient;
    }
    frontAndBack
    {
        type            empty;
    }
    atmosphere
    {
        type            zeroGradient;
    }
}


// ************************************************************************* //
