/*--------------------------------*- C++ -*----------------------------------*\
| =========                 |                                                 |
| \\      /  F ield         | OpenFOAM: The Open Source CFD Toolbox           |
|  \\    /   O peration     | Version:  3.0.1                                 |
|   \\  /    A nd           | Web:      www.OpenFOAM.org                      |
|    \\/     M anipulation  |                                                 |
\*---------------------------------------------------------------------------*/
FoamFile
{
    version     2.0;
    format      ascii;
    class       volScalarField;
    location    "9";
    object      mZero;
}
// * * * * * * * * * * * * * * * * * * * * * * * * * * * * * * * * * * * * * //

dimensions      [0 0 0 0 0 0 0];

internalField   nonuniform List<scalar> 
800
(
1e+13
1e+13
1e+13
1e+13
1e+13
1e+13
1e+13
1e+13
1e+13
1e+13
1e+13
1e+13
1e+13
1e+13
1e+13
1e+13
1e+13
1e+13
1e+13
1e+13
1e+13
1e+13
1e+13
1e+13
1e+13
1e+13
1e+13
1e+13
1e+13
1e+13
1e+13
1e+13
1e+13
1e+13
1e+13
1e+13
1e+13
1e+13
1e+13
1e+13
7.1169679e+12
7.1231804e+12
7.1236006e+12
7.123388e+12
7.1230876e+12
7.1228159e+12
7.1225976e+12
7.1224386e+12
7.1223363e+12
7.1222866e+12
7.1222867e+12
7.1223364e+12
7.1224388e+12
7.1225978e+12
7.1228162e+12
7.1230879e+12
7.1233883e+12
7.1236009e+12
7.1231808e+12
7.1169682e+12
3.8625481e+12
3.8862959e+12
3.8840264e+12
3.8814546e+12
3.8794994e+12
3.8779872e+12
3.8768772e+12
3.8760981e+12
3.8756027e+12
3.8753622e+12
3.8753624e+12
3.8756034e+12
3.8760992e+12
3.8768787e+12
3.877989e+12
3.8795015e+12
3.8814571e+12
3.8840289e+12
3.8862986e+12
3.862551e+12
1.4433079e+12
1.5613512e+12
1.5744235e+12
1.5749312e+12
1.5738212e+12
1.5727285e+12
1.5719003e+12
1.5713188e+12
1.5709501e+12
1.5707707e+12
1.5707707e+12
1.5709502e+12
1.5713191e+12
1.5719007e+12
1.5727289e+12
1.5738216e+12
1.5749316e+12
1.5744236e+12
1.5613513e+12
1.4433081e+12
3.4825302e+11
5.1832354e+11
5.571649e+11
5.6555813e+11
5.668673e+11
5.6670671e+11
5.6636423e+11
5.6608633e+11
5.6590511e+11
5.6581648e+11
5.6581638e+11
5.6590482e+11
5.6608591e+11
5.6636367e+11
5.6670599e+11
5.6686631e+11
5.6555686e+11
5.5716322e+11
5.1832174e+11
3.4825156e+11
5.0123604e+10
1.4752296e+11
1.8197907e+11
1.9108591e+11
1.9303402e+11
1.93272e+11
1.9318588e+11
1.9307807e+11
1.9300283e+11
1.9296553e+11
1.9296542e+11
1.9300249e+11
1.9307756e+11
1.931852e+11
1.9327114e+11
1.9303292e+11
1.9108454e+11
1.8197743e+11
1.4752135e+11
5.0122772e+10
6.0663924e+09
3.8674551e+10
5.6247095e+10
6.1604921e+10
6.2862086e+10
6.3066254e+10
6.3052566e+10
6.3012211e+10
6.2981953e+10
6.2966732e+10
6.2966654e+10
6.2981728e+10
6.3011862e+10
6.3052107e+10
6.3065683e+10
6.2861382e+10
6.1604064e+10
5.6246133e+10
3.8673711e+10
6.0661771e+09
7.1924719e+08
9.473089e+09
1.6231672e+10
1.8562407e+10
1.9140282e+10
1.9242453e+10
1.9242186e+10
1.9227507e+10
1.9215917e+10
1.9210017e+10
1.9209977e+10
1.92158e+10
1.9227327e+10
1.9241951e+10
1.9242168e+10
1.9139939e+10
1.8562004e+10
1.6231244e+10
9.4727674e+09
7.192077e+08
82849684
2.1445703e+09
4.3075887e+09
5.140381e+09
5.3558429e+09
5.3955968e+09
5.3964961e+09
5.3915681e+09
5.3875346e+09
5.3854618e+09
5.3854446e+09
5.3874849e+09
5.3914914e+09
5.3963977e+09
5.3954793e+09
5.3557063e+09
5.1402266e+09
4.3074349e+09
2.1444722e+09
82843785
9040153.9
4.4549733e+08
1.0444569e+09
1.2994579e+09
1.3678742e+09
1.3808712e+09
1.3813558e+09
1.3798826e+09
1.3786416e+09
1.3779981e+09
1.3779919e+09
1.3786236e+09
1.3798549e+09
1.3813206e+09
1.38083e+09
1.3678279e+09
1.2994078e+09
1.0444104e+09
4.4547243e+08
9039399.9
922736.18
84914361
2.3160335e+08
3.0016424e+08
3.1916852e+08
3.2286702e+08
3.230485e+08
3.2266041e+08
3.2232436e+08
3.2214856e+08
3.2214661e+08
3.2231872e+08
3.2265173e+08
3.2303756e+08
3.2285442e+08
3.1915474e+08
3.0015003e+08
2.3159116e+08
84908891
922650.62
87857.07
14911830
47198018
63674485
68381579
69318025
69374444
69283918
69203211
69160609
69160073
69201661
69281535
69371448
69314614
68377930
63670873
47195150
14910750
87848.157
7817.0543
2426206.8
8894657.2
12483965
13539146
13753475
13768755
13749861
13732464
13723197
13723067
13732087
13749280
13768024
13752646
13538272
12483127
8894036.6
2426010
7816.181
652.21757
367840.4
1559748.4
2276558
2493168.3
2538045.1
2541729.5
2538160.3
2534753.4
2532921.7
2532893.5
2534671.4
2538033.6
2541569.6
2537863.6
2492977.8
2276379.1
1559623.3
367806.68
652.13628
51.231876
52244.444
255955.89
388383.81
429486.78
438163.84
438966.01
438349.37
437736.51
437403.96
437398.43
437720.45
438324.43
438934.38
438127.77
429448.87
388348.6
255932.37
52239.009
51.224711
3.8034961
6984.7907
39504.969
62305.704
69570.021
71131.009
71290.471
71192.168
71089.957
71033.976
71032.993
71087.095
71187.706
71284.775
71124.468
69563.112
62299.314
39500.854
6983.97
3.8029026
0.26786547
882.78939
5760.3282
9441.418
10644.661
10907.573
10936.788
10922.222
10906.292
10897.485
10897.325
10905.824
10921.488
10935.846
10906.483
10643.501
9440.3462
5759.6588
882.67377
0.26781949
0.017956084
105.87822
796.63534
1356.7958
1544.5668
1586.2439
1591.2167
1589.1987
1586.8633
1585.5598
1585.5354
1586.792
1589.0865
1591.0719
1586.0752
1544.3862
1356.6288
796.53389
105.86301
0.017952751
0.0011492362
12.091515
104.85876
185.5612
213.29247
219.53897
220.33077
220.06815
219.7443
219.56179
219.5583
219.73407
220.052
220.30983
219.51445
213.26607
185.53678
104.84433
12.089636
0.0011490087
7.0425411e-05
1.3188797
13.177566
24.227885
28.118952
29.007645
29.126279
29.09406
29.051384
29.02709
29.026611
29.049981
29.091841
29.123392
29.004248
28.115282
24.224494
13.175621
1.3186596
7.0410647e-05
4.1426615e-06
0.13777584
1.5854908
3.028428
3.5489137
3.6693512
3.6861619
3.6824262
3.6770605
3.6739739
3.6739106
3.6768746
3.6821315
3.6857772
3.6688972
3.5484221
3.0279757
1.5852391
0.13775112
4.14174e-06
2.3445811e-07
0.013818525
0.18309745
0.36331888
0.42989246
0.44548857
0.44775134
0.4473414
0.44669554
0.44631994
0.44631176
0.44667152
0.44730326
0.4477014
0.44542948
0.42982843
0.36326029
0.18306592
0.013815839
2.3440227e-07
1.2793838e-08
0.0013336659
0.020341271
0.041929256
0.050093534
0.052028698
0.052319115
0.052276533
0.05220189
0.052157984
0.052156954
0.05219886
0.05227171
0.052312782
0.052021186
0.05008539
0.041921852
0.020337423
0.0013333818
1.2790537e-08
6.7440055e-10
0.00012411255
0.002178445
0.0046644658
0.0056267523
0.0058573983
0.0058930573
0.0058888763
0.0058805731
0.0058756308
0.0058755043
0.0058802006
0.0058882818
0.0058922744
0.0058564671
0.0056257419
0.0046635534
0.0021779875
0.0001240833
6.7420996e-10
3.4401254e-11
1.1157717e-05
0.00022532152
0.00050113897
0.00061038507
0.00063685013
0.00064105106
0.00064066451
0.00063977357
0.00063923669
0.00063922164
0.00063972919
0.00064059347
0.00064095716
0.00063673808
0.00061026333
0.00050102973
0.00022526867
1.1154792e-05
3.4390548e-11
1.7008347e-12
9.7065249e-07
2.2547064e-05
5.2087124e-05
6.4056646e-05
6.698604e-05
6.7462104e-05
6.7428716e-05
6.7336329e-05
6.7279948e-05
6.7278221e-05
6.733123e-05
6.742053e-05
6.7451242e-05
6.6973028e-05
6.4042478e-05
5.2074483e-05
2.2541161e-05
9.7036957e-07
1.7002533e-12
8.3007849e-14
8.1838349e-08
2.1861975e-06
5.2456565e-06
6.51358e-06
6.8269508e-06
6.8789646e-06
6.8763122e-06
6.8670384e-06
6.8613054e-06
6.8611153e-06
6.8664761e-06
6.8754067e-06
6.8777582e-06
6.8254993e-06
6.5119952e-06
5.2442492e-06
2.1855631e-06
8.1811996e-08
8.1593241e-14
4.6309872e-15
6.6969569e-09
2.056961e-07
5.1261582e-07
6.4268151e-07
6.7513358e-07
6.8062379e-07
6.8043646e-07
6.7953399e-07
6.7896873e-07
6.7894868e-07
6.794746e-07
6.8034053e-07
6.8049544e-07
6.749785e-07
6.4251169e-07
5.1246569e-07
2.0563069e-07
6.6945701e-09
3.8057879e-15
2.9535484e-16
5.3259583e-10
1.8805111e-08
4.8672418e-08
6.161241e-08
6.4870729e-08
6.5431606e-08
6.5420875e-08
6.5335619e-08
6.5281507e-08
6.5279482e-08
6.5329614e-08
6.5411148e-08
6.5418543e-08
6.4854877e-08
6.1594998e-08
4.8657088e-08
1.8798651e-08
5.3238687e-10
1.7275132e-16
2.0576875e-17
4.1214128e-11
1.672519e-09
4.4957774e-09
5.7460438e-09
6.0636741e-09
6.1192222e-09
6.1189034e-09
6.1110749e-09
6.1060392e-09
6.1058434e-09
6.1104934e-09
6.117959e-09
6.1179493e-09
6.0621233e-09
5.7443353e-09
4.4942794e-09
1.6719082e-09
4.1196521e-11
7.6397326e-18
1.4740953e-18
3.1067938e-12
1.4487873e-10
4.0443693e-10
5.2190443e-10
5.52006e-10
5.5734722e-10
5.5738086e-10
5.5668134e-10
5.5622525e-10
5.5620707e-10
5.566273e-10
5.5729289e-10
5.5722826e-10
5.5186055e-10
5.2174379e-10
4.0429668e-10
1.448234e-10
3.1053681e-12
3.2951091e-19
1.0328372e-19
2.2837669e-13
1.2235868e-11
3.5471463e-11
4.6216e-11
4.8992603e-11
4.9491918e-11
4.9500494e-11
4.9439601e-11
4.9399352e-11
4.9397729e-11
4.9434771e-11
4.9492615e-11
4.9481235e-11
4.8979502e-11
4.6201501e-11
3.5458865e-11
1.223106e-11
2.282658e-13
1.3874487e-20
6.8014377e-21
1.6386556e-14
1.0085287e-12
3.0361021e-12
3.9939218e-12
4.243483e-12
4.2889203e-12
4.2901493e-12
4.2849802e-12
4.2815158e-12
4.281376e-12
4.2845639e-12
4.2894692e-12
4.2879963e-12
4.2423473e-12
3.9926633e-12
3.0350142e-12
1.0081271e-12
1.6378275e-14
5.7083432e-22
4.0133277e-22
1.1487216e-15
8.1201304e-14
2.5384036e-13
3.3714021e-13
3.590191e-13
3.6304861e-13
3.6319387e-13
3.6276557e-13
3.6247442e-13
3.6246278e-13
3.6273089e-13
3.6313716e-13
3.6297146e-13
3.5892414e-13
3.3703493e-13
2.5374987e-13
8.1169019e-14
1.1481289e-15
2.2967453e-23
1.9008215e-23
7.8741009e-17
6.3919148e-15
2.0748371e-14
2.7822572e-14
2.9695297e-14
3.0043917e-14
3.0059357e-14
3.0024686e-14
3.0000774e-14
2.9999835e-14
3.0021887e-14
3.0054778e-14
3.0037686e-14
2.9687623e-14
2.7814068e-14
2.0741108e-14
6.3894116e-15
7.8700519e-17
9.0440811e-25
5.1055708e-25
5.2818802e-18
4.9231125e-16
1.659336e-15
2.2465069e-15
2.4031498e-15
2.4326036e-15
2.4341309e-15
2.4313867e-15
2.4294657e-15
2.4293921e-15
2.4311673e-15
2.4337722e-15
2.4321157e-15
2.4025494e-15
2.2458423e-15
1.6587725e-15
4.9212378e-16
5.2792673e-18
3.4880351e-26
1.3658454e-26
3.469778e-19
3.7129024e-17
1.2993827e-16
1.7761018e-16
1.9042464e-16
1.9285691e-16
1.9299999e-16
1.9278744e-16
1.9263637e-16
1.9263075e-16
1.9277071e-16
1.9297266e-16
1.9281981e-16
1.9037907e-16
1.7755987e-16
1.2989595e-16
3.7115448e-17
3.4681564e-19
1.3184172e-27
3.651635e-28
2.233747e-20
2.7437958e-18
9.9700055e-18
1.3758864e-17
1.4784963e-17
1.4981455e-17
1.499428e-17
1.4978158e-17
1.4966518e-17
1.49661e-17
1.4976915e-17
1.4992253e-17
1.497871e-17
1.4781601e-17
1.3755169e-17
9.9669252e-18
2.7428434e-18
2.2327684e-20
4.8869515e-29
9.7924312e-30
1.4100939e-21
1.9880554e-19
7.5005046e-19
1.04505e-18
1.1255346e-18
1.1410771e-18
1.1421846e-18
1.1409865e-18
1.1401071e-18
1.1400767e-18
1.1408962e-18
1.1420378e-18
1.140879e-18
1.1252932e-18
1.0447862e-18
7.498329e-19
1.9874073e-19
1.4095194e-21
1.777302e-30
)
;

boundaryField
{
    Wall
    {
        type            zeroGradient;
    }
    frontAndBack
    {
        type            empty;
    }
    atmosphere
    {
        type            zeroGradient;
    }
}


// ************************************************************************* //
