/*--------------------------------*- C++ -*----------------------------------*\
| =========                 |                                                 |
| \\      /  F ield         | OpenFOAM: The Open Source CFD Toolbox           |
|  \\    /   O peration     | Version:  3.0.1                                 |
|   \\  /    A nd           | Web:      www.OpenFOAM.org                      |
|    \\/     M anipulation  |                                                 |
\*---------------------------------------------------------------------------*/
FoamFile
{
    version     2.0;
    format      ascii;
    class       surfaceScalarField;
    location    "9";
    object      phi;
}
// * * * * * * * * * * * * * * * * * * * * * * * * * * * * * * * * * * * * * //

dimensions      [0 3 -1 0 0 0 0];

internalField   nonuniform List<scalar> 
1540
(
-2.5438694e-11
4.1265082e-08
-1.5390058e-11
4.1615514e-08
-1.7598e-12
4.1741442e-08
4.4800544e-12
4.1823848e-08
6.0020695e-12
4.1885742e-08
5.4538338e-12
4.1932636e-08
4.2019986e-12
4.1967283e-08
2.7892161e-12
4.1991751e-08
1.3832513e-12
4.2007388e-08
4.0025641e-15
4.2015009e-08
-1.3753288e-12
4.2015008e-08
-2.781637e-12
4.2007386e-08
-4.1948923e-12
4.1991748e-08
-5.4472793e-12
4.1967279e-08
-5.996021e-12
4.1932632e-08
-4.473092e-12
4.188574e-08
1.7650389e-12
4.1823847e-08
1.5394247e-11
4.1741444e-08
2.5441269e-11
4.1615517e-08
4.1265081e-08
5.492082e-11
6.4075716e-08
9.3752856e-11
6.4332274e-08
9.4526259e-11
6.4367391e-08
8.1628265e-11
6.4373843e-08
6.5669806e-11
6.4374215e-08
5.0171276e-11
6.4372788e-08
3.6035115e-11
6.4370803e-08
2.322577e-11
6.4369005e-08
1.1376413e-11
6.4367716e-08
4.0357886e-15
6.4367064e-08
-1.1368391e-11
6.4367062e-08
-2.3217739e-11
6.4367709e-08
-3.602711e-11
6.4368995e-08
-5.0162964e-11
6.4370788e-08
-6.5661229e-11
6.4372769e-08
-8.1619794e-11
6.4374193e-08
-9.4517841e-11
6.4373817e-08
-9.3745449e-11
6.4367361e-08
-5.4915389e-11
6.433224e-08
6.4075677e-08
1.1820618e-10
8.8684956e-08
1.1784204e-10
8.882697e-08
1.0558085e-10
8.8751823e-08
8.6195871e-11
8.8689042e-08
6.6535946e-11
8.8639242e-08
4.9496434e-11
8.8599969e-08
3.4963834e-11
8.8570435e-08
2.2315292e-11
8.8549369e-08
1.0871963e-11
8.8535852e-08
3.3954719e-15
8.8529272e-08
-1.0865255e-11
8.8529277e-08
-2.2308813e-11
8.8535865e-08
-3.4957505e-11
8.854939e-08
-4.9489985e-11
8.8570463e-08
-6.6529043e-11
8.8600003e-08
-8.6187542e-11
8.863928e-08
-1.0557393e-10
8.8689085e-08
-1.1783635e-10
8.875187e-08
-1.1820281e-10
8.882702e-08
8.8685007e-08
6.6911338e-11
8.2899912e-08
8.7297228e-11
8.5613151e-08
7.9046838e-11
8.5845647e-08
6.3250623e-11
8.5833788e-08
4.8172002e-11
8.5785651e-08
3.5507837e-11
8.5740164e-08
2.4863858e-11
8.5705123e-08
1.5795434e-11
8.5680158e-08
7.6823359e-12
8.5664176e-08
1.7173632e-14
8.5656359e-08
-7.6504233e-12
8.5656359e-08
-1.5765255e-11
8.5664176e-08
-2.4836034e-11
8.5680158e-08
-3.5482035e-11
8.5705122e-08
-4.81487e-11
8.5740161e-08
-6.3228851e-11
8.5785645e-08
-7.9025372e-11
8.5833783e-08
-8.7280181e-11
8.5845635e-08
-6.6902677e-11
8.5613135e-08
8.2899901e-08
6.2919098e-11
6.5801864e-08
8.7934253e-11
8.5052086e-08
8.3052486e-11
9.0677276e-08
6.7667254e-11
9.2307901e-08
5.2067938e-11
9.2705479e-08
3.8690353e-11
9.276437e-08
2.7292376e-11
9.2748949e-08
1.7440413e-11
9.2725807e-08
8.5399483e-12
9.2708959e-08
8.5791112e-14
9.2700509e-08
-8.371572e-12
9.2700496e-08
-1.7282229e-11
9.2708923e-08
-2.7148518e-11
9.2725749e-08
-3.8561927e-11
9.2748869e-08
-5.1955338e-11
9.2764268e-08
-6.7569715e-11
9.2705351e-08
-8.2970028e-11
9.2307752e-08
-8.7876094e-11
9.0677104e-08
-6.2891581e-11
8.5051914e-08
6.5801758e-08
1.1933024e-10
4.0512613e-08
1.8644488e-10
7.902609e-08
2.024767e-10
9.4162544e-08
1.8711247e-10
9.9246463e-08
1.5775705e-10
1.0068527e-07
1.2442667e-10
1.0101343e-07
9.1382857e-11
1.0105864e-07
5.9926387e-11
1.0104746e-07
2.9918091e-11
1.0103264e-07
6.9379951e-13
1.0102446e-07
-2.8556077e-11
1.0102442e-07
-5.8636839e-11
1.0103254e-07
-9.020166e-11
1.0104729e-07
-1.2337668e-10
1.0105841e-07
-1.5685216e-10
1.0101314e-07
-1.8636329e-10
1.0068493e-07
-2.0189523e-10
9.9246069e-08
-1.8604443e-10
9.4162117e-08
-1.1912122e-10
7.9025691e-08
4.0512396e-08
1.7908144e-10
3.2298507e-08
2.9513213e-10
7.7666058e-08
3.3729464e-10
9.9317832e-08
3.2496047e-10
1.0732409e-07
2.8249193e-10
1.0973734e-07
2.2754231e-10
1.1033109e-07
1.6952475e-10
1.1043646e-07
1.1221233e-10
1.1043556e-07
5.6372261e-11
1.1042108e-07
1.4590092e-12
1.104122e-07
-5.3506533e-11
1.1041213e-07
-1.0949563e-10
1.1042089e-07
-1.6703439e-10
1.1043525e-07
-2.2533294e-10
1.1043605e-07
-2.8060138e-10
1.103306e-07
-3.234191e-10
1.0973677e-07
-3.3612873e-10
1.0732345e-07
-2.9435656e-10
9.9317166e-08
-1.7869461e-10
7.7665465e-08
3.2298209e-08
1.9057521e-10
3.1086351e-08
3.2662689e-10
7.8782172e-08
3.8589245e-10
1.0343178e-07
3.8136511e-10
1.1303743e-07
3.3803397e-10
1.1603916e-07
2.7631838e-10
1.1680326e-07
2.0810967e-10
1.1694844e-07
1.3879508e-10
1.169539e-07
7.0078817e-11
1.1693898e-07
1.9356686e-12
1.1692918e-07
-6.6274453e-11
1.1692909e-07
-1.3518315e-10
1.1693869e-07
-2.0479496e-10
1.1695346e-07
-2.7338198e-10
1.1694786e-07
-3.3553837e-10
1.1680259e-07
-3.7936148e-10
1.160384e-07
-3.8441771e-10
1.1303662e-07
-3.2568638e-10
1.0343098e-07
-1.9013081e-10
7.8781499e-08
3.1086038e-08
1.6872124e-10
3.1088197e-08
2.9995866e-10
7.983656e-08
3.6605725e-10
1.0588415e-07
3.7106484e-10
1.1632435e-07
3.3557371e-10
1.1965961e-07
2.7869792e-10
1.2052738e-07
2.1246197e-10
1.2069894e-07
1.42931e-10
1.2070941e-07
7.2596942e-11
1.2069458e-07
2.1649916e-12
1.206843e-07
-6.8337036e-11
1.2068417e-07
-1.3887474e-10
1.2069421e-07
-2.0872765e-10
1.2070883e-07
-2.7538669e-10
1.206982e-07
-3.3277214e-10
1.2052654e-07
-3.6884551e-10
1.1965872e-07
-3.644653e-10
1.1632345e-07
-2.9898334e-10
1.0588332e-07
-1.6828187e-10
7.983591e-08
3.1087917e-08
1.3376472e-10
3.1171571e-08
2.4564829e-10
8.0393242e-08
3.092516e-10
1.0707114e-07
3.2172687e-10
1.1791922e-07
2.9726076e-10
1.214309e-07
2.5122614e-10
1.2235926e-07
1.941386e-10
1.225492e-07
1.3189945e-10
1.2256487e-07
6.746276e-11
1.2255138e-07
2.2120943e-12
1.2254136e-07
-6.3101805e-11
1.225412e-07
-1.2772542e-10
1.2255092e-07
-1.9026979e-10
1.2256417e-07
-2.4777582e-10
1.2254831e-07
-2.9433632e-10
1.2235828e-07
-3.1942157e-10
1.2142989e-07
-3.0761951e-10
1.1791827e-07
-2.4466745e-10
1.0707034e-07
-1.333299e-10
8.0392669e-08
3.1171337e-08
9.9211884e-11
3.1206932e-08
1.8717431e-10
8.0612876e-08
2.4241057e-10
1.0755139e-07
2.5868771e-10
1.1858248e-07
2.443233e-10
1.2218154e-07
2.1030068e-10
1.2314493e-07
1.6487558e-10
1.2334863e-07
1.1321427e-10
1.2337007e-07
5.8358332e-11
1.233591e-07
2.1393572e-12
1.2335005e-07
-5.4128544e-11
1.2334986e-07
-1.0913308e-10
1.2335857e-07
-1.6104934e-10
1.2336925e-07
-2.0684567e-10
1.2334761e-07
-2.4136188e-10
1.2314381e-07
-2.5633212e-10
1.2218042e-07
-2.4072839e-10
1.1858148e-07
-1.8614843e-10
1.0755061e-07
-9.8744575e-11
8.0612364e-08
3.1206722e-08
7.0936103e-11
3.1213648e-08
1.3668151e-10
8.0678338e-08
1.8140349e-10
1.0771311e-07
1.9821923e-10
1.1881979e-07
1.9123933e-10
1.2246072e-07
1.6761282e-10
1.2344513e-07
1.3331747e-10
1.2365978e-07
9.2534481e-11
1.2368725e-07
4.8092918e-11
1.2367954e-07
1.9948071e-12
1.2367192e-07
-4.4133447e-11
1.2367173e-07
-8.867186e-11
1.2367897e-07
-1.2963715e-10
1.2368636e-07
-1.6422539e-10
1.2365867e-07
-1.8827512e-10
1.2344389e-07
-1.9580695e-10
1.2245949e-07
-1.7963084e-10
1.1881871e-07
-1.3555615e-10
1.0771229e-07
-7.0397974e-11
8.0677816e-08
3.1213421e-08
4.9915612e-11
3.1211024e-08
9.768564e-11
8.0688948e-08
1.3227815e-10
1.0775505e-07
1.4758561e-10
1.1889141e-07
1.4518727e-10
1.2255305e-07
1.2941103e-10
1.2355107e-07
1.0433988e-10
1.237747e-07
7.3170676e-11
1.2380798e-07
3.8346878e-11
1.2380375e-07
1.8120044e-12
1.2379775e-07
-3.4733066e-11
1.2379755e-07
-6.9597922e-11
1.2380316e-07
-1.0086813e-10
1.2380706e-07
-1.261388e-10
1.2377353e-07
-1.4224644e-10
1.2354975e-07
-1.4511837e-10
1.2255172e-07
-1.3039714e-10
1.1889022e-07
-9.6437823e-11
1.0775412e-07
-4.9294025e-11
8.0688334e-08
3.1210744e-08
3.5016922e-11
3.1206814e-08
6.92775e-11
8.0684495e-08
9.5295178e-11
1.0775934e-07
1.0819427e-10
1.1890758e-07
1.082452e-10
1.2258051e-07
9.7926161e-11
1.2358803e-07
7.9919186e-11
1.2381901e-07
5.6574604e-11
1.2385752e-07
2.9892948e-11
1.238566e-07
1.6153173e-12
1.2385221e-07
-2.6654646e-11
1.2385202e-07
-5.3326715e-11
1.2385604e-07
-7.6696514e-11
1.2385663e-07
-9.4812528e-11
1.2381785e-07
-1.0536952e-10
1.2358669e-07
-1.0570865e-10
1.2257911e-07
-9.3337392e-11
1.1890628e-07
-6.7936478e-11
1.0775828e-07
-3.4334397e-11
8.0683746e-08
3.1206466e-08
2.4652004e-11
3.1203073e-08
4.9129857e-11
8.0677573e-08
6.838396e-11
1.0775421e-07
7.8731392e-11
1.1890775e-07
7.9872976e-11
1.2258762e-07
7.316836e-11
1.2360208e-07
6.0339643e-11
1.2383898e-07
4.3072098e-11
1.2388194e-07
2.2942418e-11
1.2388395e-07
1.4244132e-12
1.2388102e-07
-2.007259e-11
1.2388085e-07
-4.0154471e-11
1.2388346e-07
-5.7388729e-11
1.2388114e-07
-7.0254404e-11
1.2383791e-07
-7.7119966e-11
1.2360081e-07
-7.6297425e-11
1.2258624e-07
-6.6426509e-11
1.189064e-07
-4.7769736e-11
1.0775304e-07
-2.3958513e-11
8.0676705e-08
3.1202674e-08
1.7451267e-11
3.1200026e-08
3.495119e-11
8.0671171e-08
4.9073691e-11
1.0774764e-07
5.711343e-11
1.1890396e-07
5.8589613e-11
1.2258848e-07
5.4223123e-11
1.2360811e-07
4.5108998e-11
1.2384965e-07
3.2438551e-11
1.2389627e-07
1.7421541e-11
1.2390074e-07
1.2553863e-12
1.2389906e-07
-1.4882239e-11
1.2389892e-07
-2.9829455e-11
1.2390034e-07
-4.2431977e-11
1.238956e-07
-5.1538872e-11
1.2384874e-07
-5.6017463e-11
1.2360698e-07
-5.4813619e-11
1.2258721e-07
-4.7213731e-11
1.1890265e-07
-3.3664785e-11
1.0774645e-07
-1.6806102e-11
8.067025e-08
3.1199612e-08
1.2410644e-11
3.1197517e-08
2.4945424e-11
8.0665625e-08
3.5253514e-11
1.077414e-07
4.1371748e-11
1.1889932e-07
4.2815035e-11
1.225871e-07
3.9953602e-11
1.2361057e-07
3.348371e-11
1.238557e-07
2.4241914e-11
1.2390521e-07
1.3139136e-11
1.2391168e-07
1.1190008e-12
1.2391102e-07
-1.087066e-11
1.2391092e-07
-2.1897617e-11
1.2391137e-07
-3.1060981e-11
1.2390469e-07
-3.7508864e-11
1.2385498e-07
-4.0464634e-11
1.2360964e-07
-3.9274725e-11
1.2258601e-07
-3.3576345e-11
1.1889814e-07
-2.3813413e-11
1.0774027e-07
-1.1862787e-11
8.066473e-08
3.1197125e-08
8.8432219e-12
3.119541e-08
1.7831116e-11
8.0660809e-08
2.5331739e-11
1.0773572e-07
2.9925064e-11
1.188946e-07
3.1188164e-11
1.2258468e-07
2.9303659e-11
1.2361098e-07
2.471693e-11
1.2385884e-07
1.8014305e-11
1.2391058e-07
9.8726016e-12
1.2391862e-07
1.0181987e-12
1.2391878e-07
-7.808016e-12
1.239187e-07
-1.5880043e-11
1.2391839e-07
-2.251253e-11
1.2391019e-07
-2.7085984e-11
1.2385827e-07
-2.9072466e-11
1.2361023e-07
-2.806665e-11
1.2258377e-07
-2.3886586e-11
1.1889359e-07
-1.6899034e-11
1.0773471e-07
-8.4176866e-12
8.0659991e-08
3.1195062e-08
6.2911449e-12
3.1193649e-08
1.2729189e-11
8.0656659e-08
1.8171212e-11
1.0773065e-07
2.1588446e-11
1.1889008e-07
2.2634982e-11
1.2258178e-07
2.1394485e-11
1.2361016e-07
1.8154402e-11
1.2386006e-07
1.3326004e-11
1.239135e-07
7.4071463e-12
1.2392274e-07
9.4660489e-13
1.2392352e-07
-5.4902106e-12
1.2392346e-07
-1.1351831e-11
1.2392255e-07
-1.6128321e-11
1.2391317e-07
-1.9376499e-11
1.2385958e-07
-2.074033e-11
1.2360952e-07
-1.9967031e-11
1.2258099e-07
-1.6962678e-11
1.1888919e-07
-1.1999354e-11
1.0772974e-07
-5.9851066e-12
8.0655912e-08
3.1193338e-08
4.4500847e-12
3.1192228e-08
9.043419e-12
8.0653207e-08
1.2976154e-11
1.0772631e-07
1.5500579e-11
1.1888603e-07
1.6342009e-11
1.2257886e-07
1.553247e-11
1.2360876e-07
1.32592e-11
1.2386017e-07
9.8112513e-12
1.2391489e-07
5.5519265e-12
1.2392503e-07
8.8926543e-13
1.2392628e-07
-3.754092e-12
1.2392621e-07
-7.9686455e-12
1.2392483e-07
-1.1383045e-11
1.2391454e-07
-1.3685979e-11
1.2385967e-07
-1.464006e-11
1.2360811e-07
-1.4086532e-11
1.2257807e-07
-1.1971877e-11
1.1888515e-07
-8.4819546e-12
1.0772541e-07
-4.2383493e-12
8.0652465e-08
3.1191921e-08
3.1155286e-12
3.1191156e-08
6.3676102e-12
8.0650518e-08
9.1915409e-12
1.0772285e-07
1.1042478e-11
1.188827e-07
1.1705395e-11
1.2257633e-07
1.1185946e-11
1.2360733e-07
9.6071829e-12
1.2385986e-07
7.1727597e-12
1.2391551e-07
4.1459798e-12
1.2392633e-07
8.2600259e-13
1.239279e-07
-2.477315e-12
1.2392781e-07
-5.4666204e-12
1.2392605e-07
-7.8778305e-12
1.2391505e-07
-9.4973169e-12
1.2385921e-07
-1.0170003e-11
1.2360651e-07
-9.7962349e-12
1.2257537e-07
-8.3407143e-12
1.1888166e-07
-5.9216176e-12
1.0772181e-07
-2.9618865e-12
8.0649672e-08
3.1190802e-08
2.1471599e-12
3.1190421e-08
4.4211455e-12
8.0648613e-08
6.427772e-12
1.0772033e-07
7.7701095e-12
1.1888024e-07
8.2814853e-12
1.2257444e-07
7.955014e-12
1.2360624e-07
6.8723859e-12
1.2385959e-07
5.1775028e-12
1.2391594e-07
3.0600602e-12
1.2392724e-07
7.365037e-13
1.2392905e-07
-1.5703124e-12
1.2392892e-07
-3.6495933e-12
1.2392684e-07
-5.3188153e-12
1.2391529e-07
-6.436176e-12
1.238587e-07
-6.9040992e-12
1.2360514e-07
-6.661505e-12
1.2257318e-07
-5.6828223e-12
1.1887889e-07
-4.038949e-12
1.0771902e-07
-2.0171657e-12
8.0647547e-08
3.1189973e-08
1.4461695e-12
3.1189985e-08
3.0062972e-12
8.0647437e-08
4.4081828e-12
1.0771874e-07
5.3640133e-12
1.1887869e-07
5.7462169e-12
1.225733e-07
5.5432839e-12
1.2360569e-07
4.8103038e-12
1.2385964e-07
3.6493222e-12
1.239165e-07
2.1962147e-12
1.2392816e-07
6.0554432e-13
1.2393013e-07
-9.6560491e-13
1.2392995e-07
-2.3718225e-12
1.2392762e-07
-3.491409e-12
1.2391563e-07
-4.2347598e-12
1.2385846e-07
-4.5446681e-12
1.2360423e-07
-4.3865078e-12
1.2257164e-07
-3.7424997e-12
1.1887692e-07
-2.6543317e-12
1.0771703e-07
-1.3174393e-12
8.0646065e-08
3.1189409e-08
9.4106001e-13
3.1189781e-08
1.9806893e-12
8.0646856e-08
2.9335833e-12
1.0771792e-07
3.593198e-12
1.1887793e-07
3.8638581e-12
1.2257285e-07
3.7340902e-12
1.2360568e-07
3.2419941e-12
1.2386008e-07
2.460227e-12
1.2391731e-07
1.4855435e-12
1.2392923e-07
4.2670071e-13
1.2393132e-07
-6.079978e-13
1.239311e-07
-1.5213765e-12
1.2392857e-07
-2.2359655e-12
1.2391623e-07
-2.6993169e-12
1.238586e-07
-2.8823459e-12
1.2360386e-07
-2.7693709e-12
1.2257077e-07
-2.3508084e-12
1.1887571e-07
-1.6528803e-12
1.0771578e-07
-8.0879439e-13
8.0645144e-08
3.1189068e-08
5.7880631e-13
3.1189727e-08
1.2396941e-12
8.0646683e-08
1.8585996e-12
1.0771766e-07
2.2897123e-12
1.1887775e-07
2.4635054e-12
1.225729e-07
2.3710698e-12
1.2360606e-07
2.0396978e-12
1.2386079e-07
1.5213287e-12
1.2391832e-07
8.8423121e-13
1.2393044e-07
2.0365276e-13
1.2393262e-07
-4.4762659e-13
1.2393237e-07
-1.0070392e-12
1.2392969e-07
-1.4282079e-12
1.2391709e-07
-1.6840517e-12
1.238591e-07
-1.7645238e-12
1.2360396e-07
-1.6675867e-12
1.2257047e-07
-1.3921303e-12
1.1887513e-07
-9.5805866e-13
1.0771512e-07
-4.557351e-13
8.0644663e-08
3.1188895e-08
3.1960557e-13
3.1189741e-08
7.0548628e-13
8.0646715e-08
1.0761286e-12
1.077177e-07
1.3309118e-12
1.1887787e-07
1.4215058e-12
1.2257322e-07
1.3425209e-12
1.2360663e-07
1.1142177e-12
1.2386162e-07
7.7365797e-13
1.2391936e-07
3.6834481e-13
1.2393164e-07
-5.0803611e-14
1.239339e-07
-4.3639822e-13
1.2393364e-07
-7.499054e-13
1.2393086e-07
-9.6561433e-13
1.2391806e-07
-1.0726431e-12
1.2385982e-07
-1.0727404e-12
1.2360437e-07
-9.7308391e-13
1.2257058e-07
-7.8031909e-13
1.18875e-07
-5.1302464e-13
1.0771488e-07
-2.3144508e-13
8.0644477e-08
3.1188832e-08
1.3365466e-13
3.1189756e-08
3.2015729e-13
8.0646772e-08
5.0713639e-13
1.077178e-07
6.2712669e-13
1.1887806e-07
6.4840625e-13
1.2257356e-07
5.6894755e-13
1.2360716e-07
4.0398897e-13
1.2386234e-07
1.7958759e-13
1.2392027e-07
-7.2044665e-14
1.2393268e-07
-3.1763605e-13
1.2393502e-07
-5.2761032e-13
1.2393477e-07
-6.7932342e-13
1.2393192e-07
-7.5975093e-13
1.23919e-07
-7.6687575e-13
1.2386057e-07
-7.083117e-13
1.236049e-07
-5.9631489e-13
1.2257088e-07
-4.4343423e-13
1.188751e-07
-2.6888356e-13
1.0771488e-07
-1.1165835e-13
8.0644452e-08
3.1188826e-08
-8.6450009e-16
3.1189732e-08
4.1188139e-14
8.0646732e-08
9.3690604e-14
1.0771778e-07
1.1286448e-13
1.1887811e-07
7.9321375e-14
1.2257373e-07
-6.6024588e-15
1.2360748e-07
-1.3377603e-13
1.2386283e-07
-2.8473326e-13
1.239209e-07
-4.3880679e-13
1.2393343e-07
-5.755774e-13
1.2393584e-07
-6.7767408e-13
1.2393562e-07
-7.3234841e-13
1.2393275e-07
-7.330938e-13
1.2391975e-07
-6.8106557e-13
1.2386121e-07
-5.8477891e-13
1.2360539e-07
-4.5767295e-13
1.225712e-07
-3.1563414e-13
1.1887528e-07
-1.7883728e-13
1.0771495e-07
-7.1947924e-14
8.0644479e-08
3.1188837e-08
-9.9199626e-14
3.1189647e-08
-1.6162308e-13
8.0646532e-08
-2.0589826e-13
1.0771756e-07
-2.5936586e-13
1.1887793e-07
-3.3304291e-13
1.2257364e-07
-4.2560034e-13
1.2360751e-07
-5.298518e-13
1.2386298e-07
-6.354661e-13
1.2392118e-07
-7.3083446e-13
1.2393381e-07
-8.0499853e-13
1.239363e-07
-8.4876688e-13
1.2393612e-07
-8.5483786e-13
1.2393326e-07
-8.1871073e-13
1.2392023e-07
-7.4033268e-13
1.2386162e-07
-6.2517589e-13
1.2360571e-07
-4.8442934e-13
1.2257143e-07
-3.3471213e-13
1.1887541e-07
-1.9692235e-13
1.07715e-07
-8.7574292e-14
8.0644494e-08
3.1188843e-08
-1.7112638e-13
3.1189501e-08
-3.0847698e-13
8.0646176e-08
-4.2046527e-13
1.0771712e-07
-5.2332736e-13
1.188775e-07
-6.2310044e-13
1.2257328e-07
-7.1893793e-13
1.2360724e-07
-8.0766611e-13
1.2386282e-07
-8.8531005e-13
1.2392112e-07
-9.4764538e-13
1.2393384e-07
-9.9082752e-13
1.239364e-07
-1.0108983e-12
1.2393627e-07
-1.0028458e-12
1.2393344e-07
-9.6100063e-13
1.2392042e-07
-8.8098962e-13
1.2386179e-07
-7.6234151e-13
1.2360585e-07
-6.1138426e-13
1.2257152e-07
-4.4331745e-13
1.1887545e-07
-2.7978683e-13
1.07715e-07
-1.3500406e-13
8.0644476e-08
3.118884e-08
-2.2187859e-13
3.1189315e-08
-4.1127172e-13
8.0645708e-08
-5.6839879e-13
1.0771653e-07
-7.0191023e-13
1.1887689e-07
-8.1550044e-13
1.2257272e-07
-9.0990297e-13
1.2360676e-07
-9.8611552e-13
1.2386242e-07
-1.0459035e-12
1.239208e-07
-1.0913238e-12
1.239336e-07
-1.1238879e-12
1.2393624e-07
-1.1428672e-12
1.2393616e-07
-1.143383e-12
1.2393337e-07
-1.1165227e-12
1.2392037e-07
-1.0516505e-12
1.2386176e-07
-9.4065007e-13
1.2360582e-07
-7.8330467e-13
1.2257149e-07
-5.9207752e-13
1.188754e-07
-3.8999963e-13
1.0771495e-07
-1.9416328e-13
8.0644439e-08
3.1188832e-08
-2.5303052e-13
3.1189117e-08
-4.7518809e-13
8.0645198e-08
-6.59562e-13
1.0771586e-07
-8.0925429e-13
1.188762e-07
-9.2707097e-13
1.2257206e-07
-1.0159506e-12
1.2360617e-07
-1.0808519e-12
1.238619e-07
-1.1286847e-12
1.2392035e-07
-1.1668279e-12
1.2393322e-07
-1.2009346e-12
1.2393592e-07
-1.2320869e-12
1.2393589e-07
-1.254274e-12
1.2393315e-07
-1.2541832e-12
1.2392019e-07
-1.2141226e-12
1.2386161e-07
-1.117676e-12
1.2360571e-07
-9.5755069e-13
1.225714e-07
-7.4304145e-13
1.1887533e-07
-4.9944144e-13
1.077149e-07
-2.5062774e-13
8.0644412e-08
3.1188832e-08
-2.633317e-13
3.1188929e-08
-5.0013638e-13
8.0644708e-08
-6.9720018e-13
1.0771522e-07
-8.5255739e-13
1.1887553e-07
-9.6845575e-13
1.2257143e-07
-1.0497911e-12
1.2360558e-07
-1.1048203e-12
1.2386138e-07
-1.1448005e-12
1.2391989e-07
-1.1814473e-12
1.2393282e-07
-1.2236299e-12
1.2393556e-07
-1.2734029e-12
1.2393559e-07
-1.3229845e-12
1.2393289e-07
-1.3544522e-12
1.2391998e-07
-1.343208e-12
1.2386145e-07
-1.2650096e-12
1.2360558e-07
-1.1058826e-12
1.2257132e-07
-8.7211916e-13
1.1887529e-07
-5.9178405e-13
1.0771488e-07
-2.9707295e-13
8.064442e-08
3.1188847e-08
-2.492916e-13
3.1188758e-08
-4.8212149e-13
8.0644277e-08
-6.7966077e-13
1.0771467e-07
-8.3401988e-13
1.1887496e-07
-9.4578622e-13
1.2257089e-07
-1.0205594e-12
1.2360511e-07
-1.0687823e-12
1.2386096e-07
-1.1048376e-12
1.2391952e-07
-1.1438657e-12
1.2393249e-07
-1.1971366e-12
1.2393528e-07
-1.2672589e-12
1.2393535e-07
-1.3447235e-12
1.2393269e-07
-1.4075746e-12
1.2391983e-07
-1.4254867e-12
1.2386134e-07
-1.36773e-12
1.2360553e-07
-1.2147362e-12
1.225713e-07
-9.6994646e-13
1.1887531e-07
-6.6334836e-13
1.0771492e-07
-3.3373246e-13
8.0644467e-08
3.1188872e-08
-2.0498027e-13
3.1188582e-08
-4.1357535e-13
8.0643879e-08
-6.0177495e-13
1.0771421e-07
-7.5275555e-13
1.1887453e-07
-8.6256675e-13
1.2257051e-07
-9.3536558e-13
1.2360478e-07
-9.8205303e-13
1.2386069e-07
-1.0189021e-12
1.2391929e-07
-1.0634266e-12
1.239323e-07
-1.1286827e-12
1.2393512e-07
-1.2178065e-12
1.2393522e-07
-1.3201583e-12
1.2393259e-07
-1.4112586e-12
1.2391977e-07
-1.4569941e-12
1.2386134e-07
-1.4223943e-12
1.2360557e-07
-1.2836565e-12
1.2257139e-07
-1.0408382e-12
1.1887541e-07
-7.2246298e-13
1.0771501e-07
-3.6814134e-13
8.0644507e-08
3.1188877e-08
-1.2103812e-13
3.1188288e-08
-2.8302116e-13
8.0643337e-08
-4.5586471e-13
1.0771372e-07
-6.0687909e-13
1.1887417e-07
-7.2213192e-13
1.2257027e-07
-8.0121298e-13
1.2360461e-07
-8.5383915e-13
1.2386056e-07
-8.9702102e-13
1.239192e-07
-9.4972372e-13
1.2393223e-07
-1.0264686e-12
1.2393507e-07
-1.1311755e-12
1.239352e-07
-1.253318e-12
1.2393261e-07
-1.3679594e-12
1.2391983e-07
-1.4401259e-12
1.2386143e-07
-1.433533e-12
1.236057e-07
-1.3217806e-12
1.2257154e-07
-1.0998232e-12
1.1887552e-07
-7.8770484e-13
1.07715e-07
-4.1441327e-13
8.0644351e-08
3.1188745e-08
1.4558044e-14
3.1187515e-08
-7.6784609e-14
8.0642042e-08
-2.3477399e-13
1.0771276e-07
-3.9721939e-13
1.1887366e-07
-5.3103472e-13
1.2257004e-07
-6.2771753e-13
1.2360452e-07
-6.9491606e-13
1.2386053e-07
-7.4989241e-13
1.239192e-07
-8.1268934e-13
1.2393225e-07
-8.9909726e-13
1.239351e-07
-1.0144822e-12
1.2393525e-07
-1.1499548e-12
1.2393268e-07
-1.282659e-12
1.2391993e-07
-1.3803101e-12
1.2386157e-07
-1.4090973e-12
1.2360586e-07
-1.3423258e-12
1.2257163e-07
-1.1670246e-12
1.188754e-07
-8.8323836e-13
1.0771444e-07
-4.9064774e-13
8.0643391e-08
3.1188106e-08
2.0706311e-13
3.1185213e-08
2.0881419e-13
8.0638231e-08
5.7500949e-14
1.0770998e-07
-1.3522272e-13
1.1887228e-07
-3.045202e-13
1.2256951e-07
-4.306501e-13
1.2360436e-07
-5.1987339e-13
1.238605e-07
-5.9046514e-13
1.2391921e-07
-6.6363825e-13
1.2393226e-07
-7.5656343e-13
1.2393513e-07
-8.7667015e-13
1.2393528e-07
-1.0181727e-12
1.2393273e-07
-1.1628124e-12
1.2392001e-07
-1.2846216e-12
1.2386166e-07
-1.3567413e-12
1.2360588e-07
-1.3554446e-12
1.2257135e-07
-1.2569868e-12
1.1887433e-07
-1.0262458e-12
1.0771201e-07
-6.0909418e-13
8.0639861e-08
3.1185913e-08
4.3123416e-13
3.1180339e-08
5.3777397e-13
8.0629964e-08
3.830451e-13
1.0770351e-07
1.4307477e-13
1.188689e-07
-7.4448595e-14
1.2256817e-07
-2.3687021e-13
1.2360393e-07
-3.5096824e-13
1.2386038e-07
-4.3750072e-13
1.2391916e-07
-5.1921874e-13
1.2393223e-07
-6.1472396e-13
1.2393509e-07
-7.3373246e-13
1.2393526e-07
-8.7437119e-13
1.2393273e-07
-1.0244932e-12
1.2392001e-07
-1.1669847e-12
1.238616e-07
-1.2856088e-12
1.2360556e-07
-1.36297e-12
1.2257019e-07
-1.3629894e-12
1.1887119e-07
-1.2025778e-12
1.077058e-07
-7.5568332e-13
8.0631808e-08
3.1181117e-08
6.0775803e-13
8.0098868e-13
6.4165079e-13
3.586519e-13
9.9036902e-14
-9.3385027e-14
-2.2682863e-13
-3.2484552e-13
-4.1162957e-13
-5.0681592e-13
-6.2192257e-13
-7.5826985e-13
-9.0906939e-13
-1.0650661e-12
-1.2199923e-12
-1.3631511e-12
-1.4478644e-12
-1.3469808e-12
-8.7348327e-13
)
;

boundaryField
{
    Wall
    {
        type            calculated;
        value           uniform 0;
    }
    frontAndBack
    {
        type            empty;
        value           nonuniform 0();
    }
    atmosphere
    {
        type            calculated;
        value           nonuniform List<scalar> 
20
(
3.1177174e-08
8.0624588e-08
1.0769911e-07
1.1886655e-07
1.2256721e-07
1.2360366e-07
1.2386033e-07
1.2391914e-07
1.239322e-07
1.2393506e-07
1.2393522e-07
1.2393268e-07
1.2392003e-07
1.2386152e-07
1.2360528e-07
1.225693e-07
1.1886893e-07
1.0770152e-07
8.0626516e-08
3.1178038e-08
)
;
    }
}


// ************************************************************************* //
