/*--------------------------------*- C++ -*----------------------------------*\
| =========                 |                                                 |
| \\      /  F ield         | OpenFOAM: The Open Source CFD Toolbox           |
|  \\    /   O peration     | Version:  3.0.1                                 |
|   \\  /    A nd           | Web:      www.OpenFOAM.org                      |
|    \\/     M anipulation  |                                                 |
\*---------------------------------------------------------------------------*/
FoamFile
{
    version     2.0;
    format      ascii;
    class       volScalarField;
    location    "9";
    object      thermalDiff_foam;
}
// * * * * * * * * * * * * * * * * * * * * * * * * * * * * * * * * * * * * * //

dimensions      [0 2 -1 0 0 0 0];

internalField   nonuniform List<scalar> 
800
(
8.3720107e-08
8.3720594e-08
8.3720761e-08
8.3720834e-08
8.3720887e-08
8.3720928e-08
8.372096e-08
8.3720983e-08
8.3720997e-08
8.3721004e-08
8.3721004e-08
8.3720997e-08
8.3720983e-08
8.372096e-08
8.3720928e-08
8.3720887e-08
8.3720834e-08
8.3720761e-08
8.3720594e-08
8.3720107e-08
8.7016431e-08
8.7002037e-08
8.6997504e-08
8.6994581e-08
8.6992534e-08
8.6991059e-08
8.6990008e-08
8.6989283e-08
8.6988826e-08
8.6988605e-08
8.6988605e-08
8.6988826e-08
8.6989283e-08
8.6990009e-08
8.699106e-08
8.6992535e-08
8.6994582e-08
8.6997505e-08
8.7002039e-08
8.7016432e-08
9.3023864e-08
9.2969069e-08
9.2964335e-08
9.2962235e-08
9.2961144e-08
9.2960514e-08
9.296014e-08
9.2959909e-08
9.2959773e-08
9.2959708e-08
9.2959708e-08
9.2959773e-08
9.295991e-08
9.2960141e-08
9.2960515e-08
9.2961144e-08
9.2962236e-08
9.2964337e-08
9.296907e-08
9.3023866e-08
0.00023155164
0.00023155255
0.00023155532
0.00023155887
0.00023156245
0.00023156565
0.00023156829
0.00023157028
0.0002315716
0.00023157225
0.00023157225
0.0002315716
0.00023157028
0.00023156829
0.00023156565
0.00023156245
0.00023155887
0.00023155532
0.00023155255
0.00023155164
0.00023104999
0.00023105251
0.0002310563
0.00023106047
0.00023106442
0.00023106786
0.00023107064
0.00023107272
0.00023107409
0.00023107477
0.00023107477
0.00023107409
0.00023107271
0.00023107064
0.00023106786
0.00023106442
0.00023106046
0.0002310563
0.00023105251
0.00023104999
0.00023058363
0.00023058843
0.00023059419
0.00023059966
0.00023060441
0.0002306083
0.00023061135
0.00023061357
0.00023061503
0.00023061574
0.00023061574
0.00023061503
0.00023061357
0.00023061135
0.0002306083
0.00023060441
0.00023059966
0.00023059419
0.00023058843
0.00023058363
0.00023015682
0.0002301638
0.00023017174
0.00023017874
0.00023018443
0.00023018888
0.00023019224
0.00023019464
0.00023019619
0.00023019695
0.00023019695
0.00023019619
0.00023019464
0.00023019224
0.00023018888
0.00023018443
0.00023017874
0.00023017174
0.0002301638
0.00023015681
0.000229773
0.00022978102
0.00022979037
0.00022979852
0.00022980497
0.0002298099
0.00022981353
0.00022981609
0.00022981772
0.00022981851
0.00022981851
0.00022981772
0.00022981609
0.00022981353
0.00022980989
0.00022980497
0.00022979851
0.00022979036
0.00022978102
0.000229773
0.00022943153
0.00022943973
0.00022944957
0.00022945825
0.00022946512
0.00022947032
0.00022947412
0.00022947677
0.00022947845
0.00022947927
0.00022947927
0.00022947845
0.00022947677
0.00022947412
0.00022947032
0.00022946512
0.00022945825
0.00022944957
0.00022943973
0.00022943153
0.00022913021
0.00022913809
0.00022914777
0.00022915644
0.00022916336
0.0002291686
0.00022917244
0.00022917511
0.0002291768
0.00022917762
0.00022917762
0.0002291768
0.00022917511
0.00022917244
0.0002291686
0.00022916336
0.00022915644
0.00022914777
0.00022913809
0.00022913021
0.00022886632
0.00022887361
0.00022888271
0.00022889099
0.00022889766
0.00022890276
0.00022890651
0.00022890912
0.00022891077
0.00022891157
0.00022891157
0.00022891077
0.00022890912
0.0002289065
0.00022890276
0.00022889766
0.00022889098
0.00022888271
0.0002288736
0.00022886632
0.00022863679
0.00022864336
0.00022865168
0.00022865933
0.00022866557
0.00022867038
0.00022867393
0.00022867642
0.000228678
0.00022867876
0.00022867876
0.000228678
0.00022867642
0.00022867393
0.00022867038
0.00022866557
0.00022865933
0.00022865168
0.00022864336
0.00022863679
0.0002284384
0.00022844422
0.00022845166
0.00022845857
0.00022846426
0.00022846869
0.00022847198
0.0002284743
0.00022847577
0.00022847649
0.00022847649
0.00022847577
0.0002284743
0.00022847198
0.00022846869
0.00022846426
0.00022845857
0.00022845165
0.00022844422
0.00022843839
0.00022826783
0.00022827293
0.00022827948
0.00022828562
0.00022829072
0.00022829472
0.00022829771
0.00022829983
0.00022830118
0.00022830184
0.00022830184
0.00022830118
0.00022829983
0.00022829771
0.00022829472
0.00022829072
0.00022828562
0.00022827948
0.00022827293
0.00022826783
0.00022812186
0.00022812628
0.00022813199
0.00022813737
0.00022814188
0.00022814544
0.00022814811
0.00022815002
0.00022815124
0.00022815183
0.00022815183
0.00022815124
0.00022815002
0.00022814811
0.00022814544
0.00022814188
0.00022813737
0.00022813199
0.00022812628
0.00022812186
0.00022799738
0.00022800118
0.00022800612
0.0002280108
0.00022801474
0.00022801787
0.00022802023
0.00022802193
0.00022802301
0.00022802354
0.00022802354
0.00022802301
0.00022802193
0.00022802023
0.00022801787
0.00022801474
0.0002280108
0.00022800612
0.00022800118
0.00022799738
0.00022789153
0.00022789479
0.00022789904
0.00022790308
0.00022790649
0.00022790922
0.00022791129
0.00022791277
0.00022791373
0.0002279142
0.0002279142
0.00022791373
0.00022791277
0.00022791129
0.00022790921
0.00022790649
0.00022790308
0.00022789904
0.00022789479
0.00022789153
0.00022780172
0.00022780451
0.00022780814
0.0002278116
0.00022781455
0.0002278169
0.0002278187
0.00022781999
0.00022782083
0.00022782124
0.00022782124
0.00022782083
0.00022781999
0.0002278187
0.0002278169
0.00022781455
0.0002278116
0.00022780814
0.0002278045
0.00022780172
0.00022772564
0.00022772801
0.0002277311
0.00022773407
0.00022773659
0.00022773862
0.00022774017
0.00022774129
0.00022774201
0.00022774237
0.00022774237
0.00022774201
0.00022774129
0.00022774017
0.00022773862
0.00022773659
0.00022773407
0.0002277311
0.00022772801
0.00022772564
0.00022766126
0.00022766327
0.0002276659
0.00022766843
0.00022767059
0.00022767232
0.00022767365
0.00022767462
0.00022767524
0.00022767555
0.00022767555
0.00022767524
0.00022767462
0.00022767365
0.00022767232
0.00022767059
0.00022766843
0.0002276659
0.00022766327
0.00022766126
0.00022760683
0.00022760853
0.00022761077
0.00022761292
0.00022761475
0.00022761623
0.00022761737
0.0002276182
0.00022761874
0.000227619
0.000227619
0.00022761874
0.0002276182
0.00022761737
0.00022761623
0.00022761475
0.00022761292
0.00022761077
0.00022760853
0.00022760683
0.00022756083
0.00022756228
0.00022756417
0.000227566
0.00022756756
0.00022756882
0.00022756979
0.0002275705
0.00022757096
0.00022757118
0.00022757118
0.00022757096
0.0002275705
0.00022756979
0.00022756882
0.00022756756
0.000227566
0.00022756417
0.00022756228
0.00022756083
0.000227522
0.00022752322
0.00022752483
0.00022752637
0.0002275277
0.00022752877
0.00022752959
0.0002275302
0.00022753059
0.00022753078
0.00022753078
0.00022753059
0.00022753019
0.00022752959
0.00022752877
0.0002275277
0.00022752637
0.00022752483
0.00022752322
0.000227522
0.00022748923
0.00022749027
0.00022749162
0.00022749293
0.00022749405
0.00022749496
0.00022749566
0.00022749617
0.0002274965
0.00022749667
0.00022749667
0.0002274965
0.00022749617
0.00022749566
0.00022749496
0.00022749405
0.00022749293
0.00022749162
0.00022749027
0.00022748923
0.00022746161
0.00022746248
0.00022746363
0.00022746473
0.00022746568
0.00022746645
0.00022746704
0.00022746748
0.00022746776
0.0002274679
0.0002274679
0.00022746776
0.00022746748
0.00022746704
0.00022746645
0.00022746568
0.00022746473
0.00022746363
0.00022746248
0.00022746161
0.00022743835
0.00022743908
0.00022744005
0.00022744098
0.00022744178
0.00022744243
0.00022744293
0.0002274433
0.00022744354
0.00022744365
0.00022744365
0.00022744354
0.0002274433
0.00022744293
0.00022744243
0.00022744178
0.00022744098
0.00022744005
0.00022743908
0.00022743835
0.00022741879
0.00022741941
0.00022742022
0.00022742101
0.00022742168
0.00022742223
0.00022742265
0.00022742296
0.00022742316
0.00022742326
0.00022742326
0.00022742316
0.00022742296
0.00022742265
0.00022742223
0.00022742168
0.00022742101
0.00022742022
0.00022741941
0.00022741879
0.00022740238
0.00022740289
0.00022740358
0.00022740424
0.0002274048
0.00022740526
0.00022740562
0.00022740588
0.00022740605
0.00022740613
0.00022740613
0.00022740605
0.00022740588
0.00022740562
0.00022740526
0.0002274048
0.00022740424
0.00022740358
0.00022740289
0.00022740238
0.00022738863
0.00022738907
0.00022738964
0.00022739019
0.00022739067
0.00022739105
0.00022739135
0.00022739157
0.00022739171
0.00022739178
0.00022739178
0.00022739171
0.00022739157
0.00022739135
0.00022739105
0.00022739067
0.00022739019
0.00022738964
0.00022738907
0.00022738863
0.00022737716
0.00022737752
0.000227378
0.00022737846
0.00022737886
0.00022737918
0.00022737943
0.00022737962
0.00022737973
0.00022737979
0.00022737979
0.00022737973
0.00022737962
0.00022737943
0.00022737918
0.00022737886
0.00022737846
0.000227378
0.00022737752
0.00022737716
0.00022736761
0.00022736792
0.00022736832
0.0002273687
0.00022736903
0.0002273693
0.00022736951
0.00022736966
0.00022736976
0.00022736981
0.00022736981
0.00022736976
0.00022736966
0.00022736951
0.0002273693
0.00022736903
0.0002273687
0.00022736832
0.00022736792
0.00022736761
0.00022735972
0.00022735997
0.0002273603
0.00022736062
0.00022736089
0.00022736111
0.00022736129
0.00022736142
0.0002273615
0.00022736154
0.00022736154
0.0002273615
0.00022736142
0.00022736129
0.00022736111
0.00022736089
0.00022736062
0.0002273603
0.00022735997
0.00022735972
0.00022735322
0.00022735342
0.0002273537
0.00022735396
0.00022735419
0.00022735437
0.00022735452
0.00022735462
0.00022735469
0.00022735472
0.00022735472
0.00022735469
0.00022735462
0.00022735452
0.00022735437
0.00022735419
0.00022735396
0.0002273537
0.00022735342
0.00022735322
0.00022734792
0.00022734809
0.00022734831
0.00022734853
0.00022734872
0.00022734887
0.00022734899
0.00022734907
0.00022734913
0.00022734916
0.00022734916
0.00022734913
0.00022734907
0.00022734899
0.00022734887
0.00022734872
0.00022734853
0.00022734831
0.00022734809
0.00022734792
0.00022734365
0.00022734379
0.00022734397
0.00022734415
0.0002273443
0.00022734443
0.00022734452
0.0002273446
0.00022734464
0.00022734467
0.00022734467
0.00022734464
0.0002273446
0.00022734452
0.00022734443
0.0002273443
0.00022734415
0.00022734397
0.00022734379
0.00022734365
0.00022734028
0.00022734039
0.00022734054
0.00022734068
0.00022734081
0.00022734091
0.00022734099
0.00022734105
0.00022734109
0.0002273411
0.0002273411
0.00022734109
0.00022734105
0.00022734099
0.00022734091
0.00022734081
0.00022734068
0.00022734054
0.00022734039
0.00022734028
0.0002273377
0.00022733779
0.0002273379
0.00022733802
0.00022733812
0.0002273382
0.00022733827
0.00022733832
0.00022733835
0.00022733836
0.00022733836
0.00022733835
0.00022733832
0.00022733827
0.0002273382
0.00022733812
0.00022733802
0.0002273379
0.00022733779
0.0002273377
0.00022733582
0.00022733589
0.00022733598
0.00022733607
0.00022733615
0.00022733622
0.00022733628
0.00022733632
0.00022733635
0.00022733636
0.00022733636
0.00022733635
0.00022733632
0.00022733628
0.00022733622
0.00022733615
0.00022733607
0.00022733598
0.00022733589
0.00022733582
0.00022733459
0.00022733464
0.00022733472
0.00022733479
0.00022733486
0.00022733492
0.00022733497
0.00022733501
0.00022733503
0.00022733504
0.00022733504
0.00022733503
0.00022733501
0.00022733497
0.00022733492
0.00022733486
0.00022733479
0.00022733472
0.00022733464
0.00022733459
0.00022733398
0.00022733403
0.00022733409
0.00022733415
0.00022733422
0.00022733427
0.00022733431
0.00022733435
0.00022733437
0.00022733438
0.00022733438
0.00022733437
0.00022733435
0.00022733431
0.00022733427
0.00022733422
0.00022733415
0.00022733409
0.00022733403
0.00022733398
)
;

boundaryField
{
    Wall
    {
        type            calculated;
        value           uniform 4e-05;
    }
    frontAndBack
    {
        type            empty;
    }
    atmosphere
    {
        type            calculated;
        value           uniform 4e-05;
    }
}


// ************************************************************************* //
