/*--------------------------------*- C++ -*----------------------------------*\
| =========                 |                                                 |
| \\      /  F ield         | OpenFOAM: The Open Source CFD Toolbox           |
|  \\    /   O peration     | Version:  3.0.1                                 |
|   \\  /    A nd           | Web:      www.OpenFOAM.org                      |
|    \\/     M anipulation  |                                                 |
\*---------------------------------------------------------------------------*/
FoamFile
{
    version     2.0;
    format      ascii;
    class       volScalarField;
    location    "9";
    object      TS;
}
// * * * * * * * * * * * * * * * * * * * * * * * * * * * * * * * * * * * * * //

dimensions      [0 0 0 1 0 0 0];

internalField   nonuniform List<scalar> 
800
(
310.88953
310.88959
310.88956
310.88955
310.88954
310.88953
310.88953
310.88952
310.88952
310.88952
310.88952
310.88952
310.88952
310.88953
310.88953
310.88954
310.88955
310.88956
310.88959
310.88953
303.95401
303.99856
304.00455
304.00716
304.00909
304.01055
304.01165
304.01242
304.01292
304.01315
304.01315
304.01292
304.01242
304.01165
304.01055
304.00909
304.00716
304.00455
303.99856
303.95401
301.45356
301.45268
301.45473
301.45725
301.4597
301.46184
301.46358
301.46487
301.46572
301.46615
301.46614
301.46572
301.46487
301.46358
301.46184
301.4597
301.45725
301.45473
301.45268
301.45356
300.8175
300.81812
300.81997
300.82233
300.82472
300.82686
300.82862
300.82995
300.83084
300.83128
300.83128
300.83084
300.82995
300.82862
300.82686
300.82472
300.82233
300.81997
300.81812
300.81749
300.48644
300.48811
300.49062
300.4934
300.49604
300.49833
300.50019
300.50158
300.5025
300.50295
300.50295
300.5025
300.50158
300.50019
300.49833
300.49603
300.4934
300.49062
300.48811
300.48644
300.17809
300.18126
300.18508
300.18871
300.19188
300.19448
300.19652
300.19801
300.19898
300.19946
300.19946
300.19898
300.19801
300.19652
300.19448
300.19188
300.18871
300.18508
300.18126
300.17809
299.89532
299.89994
299.9052
299.90986
299.91366
299.91664
299.91889
299.9205
299.92154
299.92205
299.92205
299.92154
299.9205
299.91889
299.91664
299.91366
299.90986
299.9052
299.89994
299.89532
299.64052
299.64584
299.65206
299.65749
299.66181
299.66511
299.66755
299.66927
299.67036
299.67089
299.67089
299.67036
299.66927
299.66755
299.66511
299.66181
299.65749
299.65206
299.64584
299.64051
299.41339
299.41885
299.42542
299.43122
299.43583
299.43931
299.44187
299.44365
299.44478
299.44533
299.44533
299.44478
299.44365
299.44187
299.43931
299.43582
299.43122
299.42542
299.41885
299.41339
299.21261
299.21786
299.22433
299.23014
299.23479
299.23832
299.2409
299.2427
299.24384
299.24439
299.24439
299.24384
299.2427
299.2409
299.23832
299.23479
299.23014
299.22433
299.21786
299.21261
299.03644
299.04131
299.04741
299.05297
299.05746
299.0609
299.06342
299.06519
299.06631
299.06685
299.06685
299.0663
299.06519
299.06342
299.0609
299.05746
299.05297
299.04741
299.04131
299.03644
298.88295
298.88736
298.89294
298.89809
298.90229
298.90554
298.90794
298.90962
298.91069
298.91121
298.91121
298.91069
298.90962
298.90794
298.90554
298.90229
298.89809
298.89294
298.88735
298.88295
298.75008
298.75399
298.75899
298.76365
298.76749
298.77048
298.77271
298.77428
298.77528
298.77577
298.77577
298.77528
298.77428
298.77271
298.77048
298.76749
298.76365
298.75899
298.75399
298.75008
298.63568
298.63911
298.64352
298.64767
298.65112
298.65382
298.65585
298.65728
298.6582
298.65865
298.65865
298.6582
298.65728
298.65585
298.65382
298.65112
298.64767
298.64352
298.63911
298.63568
298.53765
298.54063
298.54448
298.54812
298.55117
298.55358
298.5554
298.55669
298.55752
298.55792
298.55792
298.55752
298.55669
298.5554
298.55358
298.55117
298.54812
298.54448
298.54063
298.53765
298.45397
298.45654
298.45987
298.46304
298.46571
298.46783
298.46944
298.47059
298.47132
298.47169
298.47169
298.47132
298.47059
298.46944
298.46783
298.46571
298.46304
298.45987
298.45653
298.45397
298.38275
298.38495
298.38782
298.39056
298.39288
298.39473
298.39613
298.39714
298.39779
298.39811
298.39811
298.39779
298.39714
298.39613
298.39473
298.39288
298.39056
298.38782
298.38495
298.38275
298.32229
298.32416
298.32662
298.32897
298.33097
298.33257
298.33379
298.33467
298.33524
298.33552
298.33552
298.33524
298.33467
298.33379
298.33257
298.33097
298.32897
298.32662
298.32416
298.32228
298.27103
298.27263
298.27473
298.27674
298.27845
298.27983
298.28089
298.28165
298.28214
298.28238
298.28238
298.28214
298.28165
298.28089
298.27983
298.27845
298.27674
298.27473
298.27263
298.27103
298.22764
298.229
298.23078
298.2325
298.23397
298.23515
298.23605
298.23671
298.23714
298.23734
298.23734
298.23714
298.23671
298.23605
298.23515
298.23397
298.2325
298.23078
298.229
298.22764
298.19095
298.1921
298.19362
298.19507
298.19632
298.19733
298.19811
298.19867
298.19904
298.19922
298.19922
298.19904
298.19867
298.19811
298.19733
298.19632
298.19507
298.19361
298.1921
298.19095
298.15994
298.16091
298.1622
298.16344
298.1645
298.16536
298.16602
298.1665
298.16681
298.16697
298.16697
298.16681
298.1665
298.16602
298.16536
298.1645
298.16344
298.1622
298.16091
298.15994
298.13375
298.13458
298.13566
298.13671
298.13761
298.13834
298.13891
298.13932
298.13958
298.13971
298.13971
298.13958
298.13932
298.13891
298.13834
298.13761
298.13671
298.13566
298.13458
298.13375
298.11165
298.11235
298.11327
298.11416
298.11492
298.11554
298.11602
298.11637
298.11659
298.1167
298.1167
298.11659
298.11637
298.11602
298.11554
298.11492
298.11416
298.11327
298.11235
298.11165
298.09302
298.09361
298.09439
298.09514
298.09578
298.09631
298.09671
298.09701
298.0972
298.09729
298.09729
298.0972
298.09701
298.09671
298.09631
298.09578
298.09514
298.09439
298.09361
298.09302
298.07733
298.07783
298.07848
298.07912
298.07966
298.0801
298.08045
298.08069
298.08086
298.08094
298.08094
298.08086
298.08069
298.08045
298.0801
298.07966
298.07912
298.07848
298.07783
298.07733
298.06414
298.06455
298.06511
298.06564
298.0661
298.06647
298.06676
298.06697
298.06711
298.06718
298.06718
298.06711
298.06697
298.06676
298.06647
298.0661
298.06564
298.0651
298.06455
298.06414
298.05306
298.05341
298.05387
298.05432
298.05471
298.05502
298.05527
298.05544
298.05556
298.05562
298.05562
298.05556
298.05544
298.05527
298.05502
298.05471
298.05432
298.05387
298.05341
298.05306
298.04379
298.04408
298.04447
298.04484
298.04517
298.04543
298.04563
298.04578
298.04588
298.04593
298.04593
298.04588
298.04578
298.04563
298.04543
298.04517
298.04484
298.04447
298.04408
298.04379
298.03604
298.03629
298.03661
298.03692
298.0372
298.03742
298.03759
298.03771
298.03779
298.03783
298.03783
298.03779
298.03771
298.03759
298.03742
298.0372
298.03692
298.03661
298.03629
298.03604
298.0296
298.0298
298.03007
298.03033
298.03056
298.03074
298.03088
298.03099
298.03106
298.03109
298.03109
298.03106
298.03099
298.03088
298.03074
298.03056
298.03033
298.03007
298.0298
298.0296
298.02426
298.02443
298.02465
298.02487
298.02506
298.02521
298.02533
298.02542
298.02547
298.0255
298.0255
298.02547
298.02542
298.02533
298.02521
298.02506
298.02487
298.02465
298.02443
298.02426
298.01987
298.02001
298.02019
298.02037
298.02053
298.02066
298.02075
298.02083
298.02087
298.0209
298.0209
298.02087
298.02083
298.02075
298.02066
298.02053
298.02037
298.02019
298.02001
298.01987
298.01629
298.0164
298.01655
298.0167
298.01683
298.01693
298.01701
298.01707
298.01711
298.01713
298.01713
298.01711
298.01707
298.01701
298.01693
298.01683
298.0167
298.01655
298.0164
298.01629
298.0134
298.0135
298.01362
298.01374
298.01384
298.01393
298.014
298.01404
298.01408
298.01409
298.01409
298.01408
298.01404
298.014
298.01393
298.01384
298.01374
298.01362
298.0135
298.0134
298.01112
298.0112
298.0113
298.01139
298.01148
298.01155
298.0116
298.01164
298.01167
298.01168
298.01168
298.01167
298.01164
298.0116
298.01155
298.01148
298.01139
298.0113
298.0112
298.01112
298.00937
298.00943
298.00951
298.00959
298.00966
298.00972
298.00976
298.00979
298.00982
298.00983
298.00983
298.00982
298.00979
298.00976
298.00972
298.00966
298.00959
298.00951
298.00943
298.00937
298.0081
298.00815
298.00821
298.00827
298.00833
298.00838
298.00841
298.00844
298.00846
298.00847
298.00847
298.00846
298.00844
298.00841
298.00838
298.00833
298.00827
298.00821
298.00815
298.0081
298.00727
298.00731
298.00736
298.00741
298.00745
298.0075
298.00753
298.00755
298.00757
298.00758
298.00758
298.00757
298.00755
298.00753
298.0075
298.00745
298.00741
298.00736
298.00731
298.00727
298.00686
298.00689
298.00693
298.00697
298.00702
298.00705
298.00708
298.00711
298.00712
298.00713
298.00713
298.00712
298.00711
298.00708
298.00705
298.00702
298.00697
298.00693
298.00689
298.00686
)
;

boundaryField
{
    Wall
    {
        type            zeroGradient;
    }
    frontAndBack
    {
        type            empty;
    }
    atmosphere
    {
        type            zeroGradient;
    }
}


// ************************************************************************* //
