/*--------------------------------*- C++ -*----------------------------------*\
| =========                 |                                                 |
| \\      /  F ield         | OpenFOAM: The Open Source CFD Toolbox           |
|  \\    /   O peration     | Version:  3.0.1                                 |
|   \\  /    A nd           | Web:      www.OpenFOAM.org                      |
|    \\/     M anipulation  |                                                 |
\*---------------------------------------------------------------------------*/
FoamFile
{
    version     2.0;
    format      ascii;
    class       volVectorField;
    location    "9";
    object      U;
}
// * * * * * * * * * * * * * * * * * * * * * * * * * * * * * * * * * * * * * //

dimensions      [0 1 -1 0 0 0 0];

internalField   nonuniform List<vector> 
800
(
(-5.2163536e-07 0.00077314366 0)
(-4.8888827e-07 0.00077892317 0)
(-1.3117272e-07 0.00078173702 0)
(5.909874e-08 0.00078362134 0)
(1.1994518e-07 0.00078504448 0)
(1.201376e-07 0.00078612379 0)
(9.8015749e-08 0.00078692231 0)
(6.9984497e-08 0.00078748628 0)
(4.1523618e-08 0.00078784666 0)
(1.3779081e-08 0.00078802246 0)
(-1.3618792e-08 0.00078802244 0)
(-4.1367805e-08 0.00078784662 0)
(-6.983791e-08 0.00078748622 0)
(-9.7879234e-08 0.00078692224 0)
(-1.2001194e-07 0.00078612373 0)
(-1.198289e-07 0.00078504445 0)
(-5.8986637e-08 0.00078362132 0)
(1.3127106e-07 0.00078173707 0)
(4.8895793e-07 0.00077892325 0)
(5.216684e-07 0.00077314363 0)
(4.7040352e-07 0.0010075913 0)
(1.5476608e-06 0.0010135675 0)
(2.0400054e-06 0.0010154512 0)
(1.7885588e-06 0.0010165593 0)
(1.475923e-06 0.0010173515 0)
(1.1563231e-06 0.0010179372 0)
(8.5842946e-07 0.0010183611 0)
(5.8956539e-07 0.0010186568 0)
(3.4415539e-07 0.0010188443 0)
(1.1319477e-07 0.0010189355 0)
(-1.1303351e-07 0.0010189355 0)
(-3.4399383e-07 0.0010188442 0)
(-5.8940556e-07 0.0010186566 0)
(-8.5826661e-07 0.0010183609 0)
(-1.1561537e-06 0.0010179369 0)
(-1.4757573e-06 0.0010173512 0)
(-1.788382e-06 0.001016559 0)
(-2.0398365e-06 0.0010154508 0)
(-1.5475345e-06 0.0010135671 0)
(-4.7033293e-07 0.0010075908 0)
(1.48537e-06 0.0015102953 0)
(2.6414363e-06 0.0015156771 0)
(2.3340228e-06 0.0015155108 0)
(1.9246663e-06 0.0015149679 0)
(1.5151923e-06 0.0015144655 0)
(1.1535377e-06 0.0015140505 0)
(8.3805193e-07 0.0015137288 0)
(5.6817264e-07 0.0015134958 0)
(3.2925155e-07 0.001513345 0)
(1.0792047e-07 0.0015132709 0)
(-1.0778413e-07 0.0015132709 0)
(-3.2911563e-07 0.0015133451 0)
(-5.6804334e-07 0.001513496 0)
(-8.3792318e-07 0.001513729 0)
(-1.1533986e-06 0.0015140507 0)
(-1.5150826e-06 0.0015144657 0)
(-1.924539e-06 0.0015149681 0)
(-2.3338744e-06 0.0015155111 0)
(-2.6413427e-06 0.0015156774 0)
(-1.485327e-06 0.0015102956 0)
(8.9118857e-07 0.0018187802 0)
(1.7689722e-06 0.0018256447 0)
(1.7436893e-06 0.0018237088 0)
(1.4384974e-06 0.0018221135 0)
(1.1075805e-06 0.001820868 0)
(8.3126542e-07 0.0018198934 0)
(5.9772478e-07 0.001819167 0)
(4.0284479e-07 0.0018186512 0)
(2.3276753e-07 0.0018183208 0)
(7.6369528e-08 0.0018181595 0)
(-7.5700099e-08 0.0018181596 0)
(-2.3211987e-07 0.0018183211 0)
(-4.0224344e-07 0.0018186517 0)
(-5.9717107e-07 0.0018191676 0)
(-8.3074804e-07 0.0018198941 0)
(-1.1071291e-06 0.0018208688 0)
(-1.4380458e-06 0.0018221144 0)
(-1.7432542e-06 0.0018237097 0)
(-1.7687154e-06 0.0018256457 0)
(-8.9111449e-07 0.0018187812 0)
(7.9785071e-07 0.0016807269 0)
(1.7015259e-06 0.0017852969 0)
(1.7894357e-06 0.0017970486 0)
(1.5213979e-06 0.0017981661 0)
(1.1883997e-06 0.0017973395 0)
(8.997072e-07 0.0017963414 0)
(6.5238342e-07 0.0017955429 0)
(4.4245892e-07 0.0017949706 0)
(2.5709962e-07 0.0017946046 0)
(8.5404309e-08 0.0017944263 0)
(-8.1991587e-08 0.0017944263 0)
(-2.5382102e-07 0.0017946044 0)
(-4.3942774e-07 0.0017949703 0)
(-6.496517e-07 0.0017955424 0)
(-8.9728119e-07 0.0017963408 0)
(-1.1863014e-06 0.0017973387 0)
(-1.5195878e-06 0.0017981652 0)
(-1.7879935e-06 0.0017970474 0)
(-1.7006877e-06 0.0017852956 0)
(-7.9760816e-07 0.0016807258 0)
(1.4139809e-06 0.00095135723 0)
(3.3584704e-06 0.0016167723 0)
(4.0980898e-06 0.0018300258 0)
(4.0002665e-06 0.0018941366 0)
(3.4839799e-06 0.0019108691 0)
(2.8262925e-06 0.0019142244 0)
(2.1508409e-06 0.001914407 0)
(1.504543e-06 0.0019140542 0)
(8.9256288e-07 0.0019137465 0)
(3.04186e-07 0.0019135869 0)
(-2.7643546e-07 0.0019135864 0)
(-8.6583492e-07 0.0019137452 0)
(-1.4796906e-06 0.0019140521 0)
(-2.1284456e-06 0.0019144043 0)
(-2.8066883e-06 0.001914221 0)
(-3.4673881e-06 0.0019108648 0)
(-3.9868914e-06 0.0018941315 0)
(-4.0882082e-06 0.0018300202 0)
(-3.3523369e-06 0.0016167668 0)
(-1.4117536e-06 0.00095135408 0)
(2.0207148e-06 0.00066914653 0)
(5.1421708e-06 0.0015442683 0)
(6.6625378e-06 0.0019364728 0)
(6.8288555e-06 0.0020757188 0)
(6.169346e-06 0.0021165388 0)
(5.1302347e-06 0.0021263097 0)
(3.9714275e-06 0.0021279358 0)
(2.8095612e-06 0.0021278417 0)
(1.6789384e-06 0.0021275566 0)
(5.7595666e-07 0.0021273888 0)
(-5.1759719e-07 0.0021273878 0)
(-1.62267e-06 0.0021275535 0)
(-2.757163e-06 0.0021278369 0)
(-3.9242116e-06 0.0021279293 0)
(-5.0890761e-06 0.0021263018 0)
(-6.134883e-06 0.0021165293 0)
(-6.8016644e-06 0.0020757081 0)
(-6.6430936e-06 0.0019364613 0)
(-5.1305935e-06 0.0015442578 0)
(-2.0168169e-06 0.00066914098 0)
(2.064754e-06 0.00062279439 0)
(5.5580581e-06 0.0015623747 0)
(7.5066854e-06 0.0020362408 0)
(7.9287536e-06 0.0022172448 0)
(7.3256737e-06 0.0022729552 0)
(6.1955779e-06 0.002286934 0)
(4.8570992e-06 0.0022895227 0)
(3.4672589e-06 0.0022895808 0)
(2.0845319e-06 0.002289287 0)
(7.1861618e-07 0.0022890995 0)
(-6.4119009e-07 0.0022890979 0)
(-2.0097845e-06 0.0022892822 0)
(-3.3975299e-06 0.0022895733 0)
(-4.7942411e-06 0.0022895129 0)
(-6.1409808e-06 0.0022869222 0)
(-7.2804476e-06 0.0022729416 0)
(-7.8938356e-06 0.0022172299 0)
(-7.4826148e-06 0.0020362256 0)
(-5.5445084e-06 0.0015623615 0)
(-2.0605239e-06 0.00062278798 0)
(1.7626184e-06 0.00062065998 0)
(4.9861291e-06 0.0015889126 0)
(7.0120214e-06 0.0021010305 0)
(7.6300982e-06 0.0023042524 0)
(7.2123623e-06 0.0023686111 0)
(6.2104917e-06 0.0023851965 0)
(4.9373635e-06 0.0023884147 0)
(3.5610784e-06 0.0023885753 0)
(2.1561411e-06 0.0023882721 0)
(7.4772775e-07 0.0023880679 0)
(-6.611286e-07 0.0023880656 0)
(-2.0723446e-06 0.0023882655 0)
(-3.4826254e-06 0.002388565 0)
(-4.8664449e-06 0.0023884015 0)
(-6.1489621e-06 0.0023851812 0)
(-7.1618302e-06 0.0023685943 0)
(-7.5918582e-06 0.002304235 0)
(-6.9865844e-06 0.0021010138 0)
(-4.9725532e-06 0.0015888989 0)
(-1.7586148e-06 0.0006206539 0)
(1.3564801e-06 0.00062286809 0)
(3.9940551e-06 0.0016045501 0)
(5.8317574e-06 0.0021343358 0)
(6.5381936e-06 0.0023487218 0)
(6.330784e-06 0.0024177735 0)
(5.5595702e-06 0.0024358986 0)
(4.4894202e-06 0.0024395428 0)
(3.2760868e-06 0.0024398012 0)
(1.9998692e-06 0.002439511 0)
(6.9863095e-07 0.0024393039 0)
(-6.1014726e-07 0.002439301 0)
(-1.9139151e-06 0.0024395026 0)
(-3.1950802e-06 0.0024397882 0)
(-4.4156755e-06 0.0024395265 0)
(-5.4953034e-06 0.0024358802 0)
(-6.278074e-06 0.0024177543 0)
(-6.4986929e-06 0.0023487032 0)
(-5.8059755e-06 0.0021343193 0)
(-3.9806033e-06 0.0016045378 0)
(-1.3525358e-06 0.00062286297 0)
(9.8387527e-07 0.00062399489 0)
(2.9845714e-06 0.0016111798 0)
(4.5023266e-06 0.0021485099 0)
(5.1940203e-06 0.0023680469 0)
(5.1534181e-06 0.0024394626 0)
(4.6194546e-06 0.0024584719 0)
(3.7925267e-06 0.0024624251 0)
(2.8024639e-06 0.0024627938 0)
(1.7260865e-06 0.0024625441 0)
(6.0823702e-07 0.0024623502 0)
(-5.2266273e-07 0.0024623468 0)
(-1.6424692e-06 0.0024625341 0)
(-2.7228338e-06 0.0024627784 0)
(-3.7191082e-06 0.002462406 0)
(-4.554674e-06 0.0024584508 0)
(-5.0997433e-06 0.0024394414 0)
(-5.1534726e-06 0.0023680275 0)
(-4.475588e-06 0.0021484942 0)
(-2.9702749e-06 0.0016111692 0)
(-9.7947794e-07 0.00062399062 0)
(6.9276867e-07 0.00062428248 0)
(2.1446595e-06 0.0016133354 0)
(3.3225528e-06 0.0021535458 0)
(3.933535e-06 0.0023752524 0)
(3.995184e-06 0.002447799 0)
(3.6543447e-06 0.0024673253 0)
(3.0501318e-06 0.0024715199 0)
(2.2825398e-06 0.0024720089 0)
(1.418822e-06 0.0024718198 0)
(5.0488632e-07 0.0024716515 0)
(-4.2509391e-07 0.0024716477 0)
(-1.340235e-06 0.0024718087 0)
(-2.2066222e-06 0.0024719917 0)
(-2.9788375e-06 0.0024714983 0)
(-3.5901428e-06 0.0024673016 0)
(-3.9408186e-06 0.0024477756 0)
(-3.8914107e-06 0.0023752318 0)
(-3.2937721e-06 0.0021535301 0)
(-2.1284266e-06 0.0016133255 0)
(-6.8747732e-07 0.00062427833 0)
(4.8284815e-07 0.00062426351 0)
(1.5137669e-06 0.0016137982 0)
(2.3936266e-06 0.0021549785 0)
(2.8974636e-06 0.0023775391 0)
(3.0059249e-06 0.0024506299 0)
(2.8015326e-06 0.0024704799 0)
(2.3748806e-06 0.0024748715 0)
(1.7986934e-06 0.0024754812 0)
(1.1281192e-06 0.0024753619 0)
(4.0574895e-07 0.0024752254 0)
(-3.3326834e-07 0.0024752213 0)
(-1.0560469e-06 0.00247535 0)
(-1.7278558e-06 0.0024754628 0)
(-2.3068482e-06 0.0024748482 0)
(-2.7386765e-06 0.0024704541 0)
(-2.9511491e-06 0.0024506041 0)
(-2.8535512e-06 0.0023775164 0)
(-2.3623002e-06 0.0021549614 0)
(-1.4951823e-06 0.0016137872 0)
(-4.765715e-07 0.00062425858 0)
(3.3691425e-07 0.00062417749 0)
(1.0637569e-06 0.0016137597 0)
(1.7073211e-06 0.0021552235 0)
(2.1044613e-06 0.0023781175 0)
(2.2232837e-06 0.0024514922 0)
(2.1065e-06 0.0024715627 0)
(1.8105254e-06 0.0024761165 0)
(1.3862254e-06 0.0024768381 0)
(8.7674752e-07 0.0024767881 0)
(3.1896489e-07 0.0024766847 0)
(-2.5435178e-07 0.0024766807 0)
(-8.1182807e-07 0.0024767763 0)
(-1.3212293e-06 0.0024768196 0)
(-1.7466151e-06 0.0024760928 0)
(-2.0458656e-06 0.0024715357 0)
(-2.1688921e-06 0.0024514645 0)
(-2.0594292e-06 0.0023780923 0)
(-1.6740431e-06 0.0021552036 0)
(-1.0433962e-06 0.0016137462 0)
(-3.2997559e-07 0.00062417119 0)
(2.3653586e-07 0.00062409508 0)
(7.4954086e-07 0.0016136201 0)
(1.2156382e-06 0.0021551503 0)
(1.5197029e-06 0.0023781858 0)
(1.6295342e-06 0.0024517283 0)
(1.565367e-06 0.0024719583 0)
(1.3613518e-06 0.0024766438 0)
(1.0522211e-06 0.0024774627 0)
(6.7065441e-07 0.0024774759 0)
(2.4703788e-07 0.0024774036 0)
(-1.9006087e-07 0.0024773999 0)
(-6.128381e-07 0.0024774651 0)
(-9.9333217e-07 0.0024774455 0)
(-1.3022046e-06 0.0024766212 0)
(-1.5079567e-06 0.0024719317 0)
(-1.5768252e-06 0.0024517 0)
(-1.4750544e-06 0.0023781588 0)
(-1.1819902e-06 0.0021551276 0)
(-7.2878637e-07 0.0016136037 0)
(-2.2954993e-07 0.00062408746 0)
(1.6720706e-07 0.00062402787 0)
(5.308421e-07 0.0016134829 0)
(8.6719495e-07 0.0021550181 0)
(1.0957404e-06 0.0023781241 0)
(1.1887835e-06 0.0024517765 0)
(1.154788e-06 0.002472125 0)
(1.0141254e-06 0.0024769152 0)
(7.9022493e-07 0.002477815 0)
(5.0731065e-07 0.0024778823 0)
(1.8954778e-07 0.0024778372 0)
(-1.3933205e-07 0.0024778341 0)
(-4.5595398e-07 0.0024778731 0)
(-7.3721782e-07 0.0024778001 0)
(-9.6005195e-07 0.0024768951 0)
(-1.1014922e-06 0.0024721006 0)
(-1.1391944e-06 0.0024517496 0)
(-1.0533382e-06 0.002378097 0)
(-8.3520038e-07 0.0021549939 0)
(-5.1138273e-07 0.0016134646 0)
(-1.6085609e-07 0.00062401952 0)
(1.1878682e-07 0.00062397319 0)
(3.7763937e-07 0.001613364 0)
(6.2017034e-07 0.0021548877 0)
(7.8996146e-07 0.0023780341 0)
(8.6489919e-07 0.0024517628 0)
(8.4769267e-07 0.0024721993 0)
(7.5044281e-07 0.002477071 0)
(5.8889868e-07 0.0024780357 0)
(3.8077294e-07 0.0024781474 0)
(1.4479015e-07 0.0024781251 0)
(-1.0002985e-07 0.0024781227 0)
(-3.3479412e-07 0.0024781403 0)
(-5.4110572e-07 0.0024780238 0)
(-7.0132689e-07 0.0024770545 0)
(-7.9902002e-07 0.0024721787 0)
(-8.1955688e-07 0.0024517388 0)
(-7.5142378e-07 0.0023780088 0)
(-5.9162293e-07 0.0021548641 0)
(-3.6090812e-07 0.0016133455 0)
(-1.1359775e-07 0.00062396497 0)
(8.4526255e-08 0.00062392749 0)
(2.6920446e-07 0.001613261 0)
(4.4403524e-07 0.0021547683 0)
(5.6922823e-07 0.0023779389 0)
(6.2776756e-07 0.0024517214 0)
(6.1975225e-07 0.0024722234 0)
(5.5238789e-07 0.0024771572 0)
(4.3628417e-07 0.0024781726 0)
(2.8428455e-07 0.0024783197 0)
(1.1061768e-07 0.0024783157 0)
(-6.9889498e-08 0.002478314 0)
(-2.4242935e-07 0.0024783145 0)
(-3.9276902e-07 0.0024781637 0)
(-5.0772748e-07 0.0024771445 0)
(-5.7570655e-07 0.0024722068 0)
(-5.8718632e-07 0.0024517015 0)
(-5.3547407e-07 0.002377917 0)
(-4.199848e-07 0.0021547468 0)
(-2.5597291e-07 0.0016132438 0)
(-8.0729373e-08 0.00062392005 0)
(6.0000692e-08 0.00062388891 0)
(1.9164738e-07 0.0016131714 0)
(3.1751715e-07 0.0021546604 0)
(4.0932704e-07 0.0023778452 0)
(4.5420594e-07 0.0024516658 0)
(4.5118847e-07 0.0024722158 0)
(4.0458653e-07 0.0024771964 0)
(3.2158586e-07 0.0024782505 0)
(2.1145176e-07 0.002478425 0)
(8.4832914e-08 0.0024784353 0)
(-4.6968674e-08 0.0024784341 0)
(-1.7263849e-07 0.0024784212 0)
(-2.8143245e-07 0.0024782438 0)
(-3.6369712e-07 0.0024771865 0)
(-4.1135914e-07 0.0024722025 0)
(-4.1825043e-07 0.0024516493 0)
(-3.8042714e-07 0.0023778265 0)
(-2.98077e-07 0.0021546415 0)
(-1.8189495e-07 0.0016131559 0)
(-5.7504973e-08 0.00062388243 0)
(4.229725e-08 0.00062385705 0)
(1.3570839e-07 0.001613095 0)
(2.2602639e-07 0.0021545656 0)
(2.930169e-07 0.0023777582 0)
(3.2700275e-07 0.0024516054 0)
(3.2667421e-07 0.0024721905 0)
(2.9462141e-07 0.002477206 0)
(2.3574405e-07 0.0024782894 0)
(1.5670425e-07 0.0024784846 0)
(6.537194e-08 0.0024785056 0)
(-2.9801195e-08 0.0024785044 0)
(-1.2036175e-07 0.002478481 0)
(-1.9838229e-07 0.0024782831 0)
(-2.5693755e-07 0.0024771968 0)
(-2.9049926e-07 0.0024721783 0)
(-2.9510076e-07 0.0024515904 0)
(-2.6835838e-07 0.0023777411 0)
(-2.1051488e-07 0.0021545482 0)
(-1.2876179e-07 0.0016130806 0)
(-4.0769028e-08 0.00062385108 0)
(2.9466615e-08 0.0006238321 0)
(9.5156277e-08 0.0016130333 0)
(1.5954714e-07 0.002154487 0)
(2.081125e-07 0.0023776832 0)
(2.3358411e-07 0.0024515492 0)
(2.3462949e-07 0.0024721599 0)
(2.1280611e-07 0.002477201 0)
(1.7147958e-07 0.0024783061 0)
(1.154295e-07 0.0024785167 0)
(5.0409279e-08 0.0024785455 0)
(-1.7368944e-08 0.002478544 0)
(-8.172322e-08 0.0024785122 0)
(-1.3694046e-07 0.0024782984 0)
(-1.7817147e-07 0.0024771901 0)
(-2.0171983e-07 0.0024721459 0)
(-2.0507893e-07 0.0024515325 0)
(-1.8676932e-07 0.0023776648 0)
(-1.4685828e-07 0.0021544684 0)
(-9.0005618e-08 0.001613018 0)
(-2.8467823e-08 0.00062382575 0)
(2.0170466e-08 0.00062381414 0)
(6.5717122e-08 0.0016129874 0)
(1.1112839e-07 0.002154427 0)
(1.4598103e-07 0.0023776248 0)
(1.6482172e-07 0.002451504 0)
(1.6643628e-07 0.0024721333 0)
(1.5176265e-07 0.0024771933 0)
(1.2313182e-07 0.0024783144 0)
(8.3967497e-08 0.0024785363 0)
(3.8434823e-08 0.0024785706 0)
(-8.974485e-09 0.0024785684 0)
(-5.3837687e-08 0.0024785297 0)
(-9.2145398e-08 0.0024783035 0)
(-1.2060644e-07 0.0024771783 0)
(-1.3683982e-07 0.0024721146 0)
(-1.3932348e-07 0.0024514825 0)
(-1.2713619e-07 0.0023776016 0)
(-1.0017643e-07 0.0021544042 0)
(-6.1381335e-08 0.0016129689 0)
(-1.9304462e-08 0.00062380635 0)
(1.3461538e-08 0.0006238027 0)
(4.4385883e-08 0.0016129571 0)
(7.5865897e-08 0.0021543863 0)
(1.0046041e-07 0.0023775849 0)
(1.1409911e-07 0.0024514736 0)
(1.1574859e-07 0.0024721165 0)
(1.0598183e-07 0.0024771904 0)
(8.6429879e-08 0.0024783232 0)
(5.9542455e-08 0.0024785533 0)
(2.83063e-08 0.0024785915 0)
(-4.0843626e-09 0.0024785883 0)
(-3.453958e-08 0.002478544 0)
(-6.0332914e-08 0.002478308 0)
(-7.9322944e-08 0.0024771697 0)
(-9.0067172e-08 0.002472091 0)
(-9.1719346e-08 0.0024514446 0)
(-8.3740756e-08 0.0023775542 0)
(-6.5959521e-08 0.0021543565 0)
(-4.0213843e-08 0.001612933 0)
(-1.2484305e-08 0.00062379258 0)
(8.6489738e-09 0.00062379669 0)
(2.8993427e-08 0.0016129404 0)
(5.0233829e-08 0.0021543632 0)
(6.7108924e-08 0.0023775627 0)
(7.6618361e-08 0.0024514584 0)
(7.793543e-08 0.0024721112 0)
(7.1427736e-08 0.0024771954 0)
(5.8251691e-08 0.0024783369 0)
(4.0157387e-08 0.002478573 0)
(1.9264462e-08 0.0024786138 0)
(-2.1964332e-09 0.0024786098 0)
(-2.2123275e-08 0.0024785609 0)
(-3.8731404e-08 0.0024783172 0)
(-5.0707025e-08 0.0024771685 0)
(-5.7265495e-08 0.0024720783 0)
(-5.8028299e-08 0.0024514208 0)
(-5.2746747e-08 0.0023775228 0)
(-4.1285792e-08 0.0021543246 0)
(-2.4829476e-08 0.0016129095 0)
(-7.5222992e-09 0.00062378377 0)
(5.2159105e-09 0.00062379454 0)
(1.7936342e-08 0.0016129339 0)
(3.1651287e-08 0.0021543537 0)
(4.2692443e-08 0.0023775545 0)
(4.8895668e-08 0.0024514556 0)
(4.964432e-08 0.0024721159 0)
(4.5198362e-08 0.0024772076 0)
(3.638955e-08 0.0024783557 0)
(2.4463616e-08 0.0024785963 0)
(1.0905651e-08 0.0024786391 0)
(-2.7594643e-09 0.0024786343 0)
(-1.5145226e-08 0.002478582 0)
(-2.5136259e-08 0.0024783322 0)
(-3.1991752e-08 0.0024771755 0)
(-3.537036e-08 0.0024720761 0)
(-3.5210728e-08 0.0024514099 0)
(-3.1492764e-08 0.0023775057 0)
(-2.4192446e-08 0.0021543064 0)
(-1.4130014e-08 0.0016128962 0)
(-4.0994699e-09 0.00062377893 0)
(2.7712078e-09 0.00062379453 0)
(1.0013042e-08 0.0016129334 0)
(1.8206436e-08 0.0021543528 0)
(2.4838645e-08 0.0023775553 0)
(2.8397768e-08 0.0024514606 0)
(2.8462377e-08 0.0024721265 0)
(2.5238547e-08 0.0024772241 0)
(1.9330236e-08 0.0024783771 0)
(1.1616124e-08 0.0024786212 0)
(3.1179632e-09 0.0024786657 0)
(-5.1498521e-09 0.0024786605 0)
(-1.2305849e-08 0.0024786056 0)
(-1.7690141e-08 0.0024783513 0)
(-2.0934243e-08 0.0024771885 0)
(-2.1971526e-08 0.0024720822 0)
(-2.0938194e-08 0.002451409 0)
(-1.7985162e-08 0.0023774996 0)
(-1.3227668e-08 0.0021542985 0)
(-7.2934746e-09 0.0016128903 0)
(-1.9645344e-09 0.00062377687 0)
(1.0214135e-09 0.0006237951 0)
(4.3249431e-09 0.0016129351 0)
(8.4812854e-09 0.0021543553 0)
(1.180409e-08 0.0023775596 0)
(1.3280899e-08 0.0024514682 0)
(1.26555e-08 0.0024721385 0)
(1.0102446e-08 0.0024772405 0)
(6.0572728e-09 0.0024783975 0)
(1.1264951e-09 0.0024786445 0)
(-4.0079476e-09 0.0024786905 0)
(-8.6974944e-09 0.0024786853 0)
(-1.2406583e-08 0.0024786287 0)
(-1.4766267e-08 0.0024783713 0)
(-1.5623572e-08 0.0024772041 0)
(-1.5051414e-08 0.0024720925 0)
(-1.3281136e-08 0.0024514141 0)
(-1.0571627e-08 0.0023775003 0)
(-7.1656723e-09 0.0021542969 0)
(-3.5898108e-09 0.0016128888 0)
(-8.7671073e-10 0.00062377642 0)
(-2.4706309e-10 0.00062379515 0)
(2.1281124e-10 0.0016129358 0)
(1.4348792e-09 0.0021543568 0)
(2.3126563e-09 0.0023775627 0)
(2.2019678e-09 0.002451474 0)
(9.7112081e-10 0.0024721477 0)
(-1.235053e-09 0.0024772533 0)
(-4.1157828e-09 0.0024784134 0)
(-7.2733037e-09 0.0024786629 0)
(-1.0278723e-08 0.0024787104 0)
(-1.2744328e-08 0.0024787056 0)
(-1.4362506e-08 0.0024786482 0)
(-1.4931262e-08 0.0024783888 0)
(-1.4392445e-08 0.0024772187 0)
(-1.2850013e-08 0.0024721035 0)
(-1.0540982e-08 0.0024514211 0)
(-7.765936e-09 0.0023775039 0)
(-4.859346e-09 0.0021542982 0)
(-2.294272e-09 0.0016128893 0)
(-5.836711e-10 0.00062377662 0)
(-1.1804962e-09 0.00062379413 0)
(-2.7870539e-09 0.0016129335 0)
(-3.6777407e-09 0.0021543546 0)
(-4.5581896e-09 0.0023775617 0)
(-5.8162768e-09 0.0024514751 0)
(-7.5050359e-09 0.0024721514 0)
(-9.5189327e-09 0.0024772598 0)
(-1.1674893e-08 0.0024784226 0)
(-1.3743581e-08 0.0024786742 0)
(-1.5489588e-08 0.0024787233 0)
(-1.6710442e-08 0.0024787192 0)
(-1.7240279e-08 0.0024786618 0)
(-1.6953065e-08 0.0024784014 0)
(-1.5795319e-08 0.0024772295 0)
(-1.3817819e-08 0.002472112 0)
(-1.1188758e-08 0.0024514271 0)
(-8.1882492e-09 0.0023775073 0)
(-5.2000013e-09 0.0021542998 0)
(-2.6768718e-09 0.0016128899 0)
(-8.2609981e-10 0.00062377686 0)
(-1.8685385e-09 0.00062379174 0)
(-4.9760038e-09 0.0016129278 0)
(-7.3628182e-09 0.0021543478 0)
(-9.4556179e-09 0.0023775554 0)
(-1.1477197e-08 0.0024514704 0)
(-1.3446575e-08 0.0024721489 0)
(-1.5310659e-08 0.0024772595 0)
(-1.6995856e-08 0.0024784245 0)
(-1.8416375e-08 0.0024786781 0)
(-1.948957e-08 0.0024787287 0)
(-2.0143619e-08 0.0024787255 0)
(-2.0292359e-08 0.0024786685 0)
(-1.9821475e-08 0.0024784079 0)
(-1.8618462e-08 0.0024772353 0)
(-1.6620765e-08 0.0024721166 0)
(-1.3872382e-08 0.0024514303 0)
(-1.058267e-08 0.0023775091 0)
(-7.1494418e-09 0.0021543004 0)
(-4.0418284e-09 0.0016128899 0)
(-1.3583338e-09 0.00062377687 0)
(-2.3540849e-09 0.00062378829 0)
(-6.5204944e-09 0.0016129192 0)
(-9.9301551e-09 0.002154337 0)
(-1.2805324e-08 0.0023775446 0)
(-1.527104e-08 0.0024514607 0)
(-1.7348561e-08 0.0024721408 0)
(-1.904731e-08 0.0024772534 0)
(-2.0397181e-08 0.0024784202 0)
(-2.1439005e-08 0.0024786755 0)
(-2.2213992e-08 0.0024787275 0)
(-2.274181e-08 0.0024787255 0)
(-2.2973009e-08 0.0024786691 0)
(-2.2762483e-08 0.0024784089 0)
(-2.1898137e-08 0.0024772364 0)
(-2.016767e-08 0.0024721174 0)
(-1.7457601e-08 0.0024514306 0)
(-1.3873893e-08 0.0023775088 0)
(-9.8086052e-09 0.0021542997 0)
(-5.7908686e-09 0.0016128892 0)
(-1.9756627e-09 0.00062377671 0)
(-2.6428521e-09 0.00062378432 0)
(-7.4777943e-09 0.0016129091 0)
(-1.1529202e-08 0.002154324 0)
(-1.4852989e-08 0.0023775311 0)
(-1.7516973e-08 0.002451448 0)
(-1.9565482e-08 0.0024721295 0)
(-2.1072257e-08 0.0024772435 0)
(-2.216169e-08 0.0024784119 0)
(-2.2985868e-08 0.0024786687 0)
(-2.3687457e-08 0.002478722 0)
(-2.4350174e-08 0.002478721 0)
(-2.4933661e-08 0.0024786656 0)
(-2.5237388e-08 0.0024784061 0)
(-2.4929688e-08 0.0024772341 0)
(-2.3634815e-08 0.0024721155 0)
(-2.1071451e-08 0.002451429 0)
(-1.7229711e-08 0.0023775074 0)
(-1.2491129e-08 0.0021542984 0)
(-7.4861597e-09 0.0016128884 0)
(-2.5389499e-09 0.00062377658 0)
(-2.7119654e-09 0.00062378036 0)
(-7.8207395e-09 0.0016128988 0)
(-1.2184496e-08 0.0021543105 0)
(-1.5703128e-08 0.002377517 0)
(-1.8398821e-08 0.0024514345 0)
(-2.0339165e-08 0.0024721172 0)
(-2.1652066e-08 0.0024772325 0)
(-2.2540916e-08 0.0024784022 0)
(-2.3251059e-08 0.0024786602 0)
(-2.4007181e-08 0.0024787147 0)
(-2.4938367e-08 0.0024787147 0)
(-2.5998105e-08 0.0024786603 0)
(-2.6921405e-08 0.0024784016 0)
(-2.7256394e-08 0.0024772305 0)
(-2.6471417e-08 0.0024721127 0)
(-2.4128182e-08 0.0024514269 0)
(-2.0106174e-08 0.0023775059 0)
(-1.4777615e-08 0.0021542975 0)
(-8.893582e-09 0.0016128881 0)
(-2.989336e-09 0.00062377671 0)
(-2.5146671e-09 0.00062377678 0)
(-7.4565352e-09 0.0016128895 0)
(-1.1828107e-08 0.0021542984 0)
(-1.5358045e-08 0.0023775043 0)
(-1.8002509e-08 0.0024514225 0)
(-1.9828485e-08 0.0024721062 0)
(-2.0993763e-08 0.0024772227 0)
(-2.17574e-08 0.0024783935 0)
(-2.2436233e-08 0.0024786525 0)
(-2.3318768e-08 0.0024787079 0)
(-2.4567071e-08 0.0024787089 0)
(-2.61237e-08 0.0024786553 0)
(-2.7665195e-08 0.0024783976 0)
(-2.8637787e-08 0.0024772274 0)
(-2.8380959e-08 0.0024721106 0)
(-2.6327459e-08 0.0024514257 0)
(-2.2261016e-08 0.0023775055 0)
(-1.6535919e-08 0.0021542977 0)
(-9.9975406e-09 0.0016128887 0)
(-3.3517578e-09 0.00062377716 0)
(-1.9736681e-09 0.00062377355 0)
(-6.2252516e-09 0.0016128815 0)
(-1.0317876e-08 0.0021542884 0)
(-1.3752956e-08 0.0023774942 0)
(-1.6356975e-08 0.0024514133 0)
(-1.814543e-08 0.0024720981 0)
(-1.9268838e-08 0.0024772156 0)
(-2.0013197e-08 0.0024783873 0)
(-2.0743183e-08 0.0024786471 0)
(-2.1794082e-08 0.0024787033 0)
(-2.3353699e-08 0.002478705 0)
(-2.5358729e-08 0.0024786522 0)
(-2.7447955e-08 0.0024783954 0)
(-2.9002099e-08 0.0024772262 0)
(-2.9277065e-08 0.0024721104 0)
(-2.7617929e-08 0.0024514264 0)
(-2.372743e-08 0.0023775069 0)
(-1.7905091e-08 0.0021542993 0)
(-1.0992983e-08 0.00161289 0)
(-3.7326702e-09 0.00062377771 0)
(-9.6372307e-10 0.00062376973 0)
(-3.8778125e-09 0.0016128736 0)
(-7.4430338e-09 0.00215428 0)
(-1.0791511e-08 0.0023774869 0)
(-1.3483537e-08 0.0024514073 0)
(-1.5401409e-08 0.0024720933 0)
(-1.6646741e-08 0.0024772118 0)
(-1.7506948e-08 0.0024783842 0)
(-1.8373849e-08 0.0024786447 0)
(-1.9615464e-08 0.0024787014 0)
(-2.1443631e-08 0.0024787037 0)
(-2.3803557e-08 0.0024786516 0)
(-2.6329509e-08 0.0024783956 0)
(-2.8388583e-08 0.0024772273 0)
(-2.9216127e-08 0.0024721124 0)
(-2.8124398e-08 0.002451429 0)
(-2.4746107e-08 0.0023775095 0)
(-1.9245762e-08 0.0021543011 0)
(-1.2261703e-08 0.0016128903 0)
(-4.3154538e-09 0.00062377735 0)
(6.8025101e-10 0.00062376182 0)
(-9.838943e-11 0.0016128599 0)
(-2.9735389e-09 0.002154269 0)
(-6.417581e-09 0.0023774801 0)
(-9.4711624e-09 0.0024514034 0)
(-1.1770011e-08 0.0024720911 0)
(-1.3338462e-08 0.0024772107 0)
(-1.4458033e-08 0.0024783837 0)
(-1.5537707e-08 0.0024786445 0)
(-1.6969987e-08 0.0024787016 0)
(-1.8994297e-08 0.0024787043 0)
(-2.1585254e-08 0.0024786528 0)
(-2.4413104e-08 0.0024783975 0)
(-2.6893125e-08 0.00247723 0)
(-2.8319107e-08 0.0024721158 0)
(-2.8044387e-08 0.0024514324 0)
(-2.5647929e-08 0.0023775112 0)
(-2.1032183e-08 0.0021542988 0)
(-1.4296081e-08 0.0016128838 0)
(-5.3298758e-09 0.00062377246 0)
(3.0318567e-09 0.00062373875 0)
(5.2490026e-09 0.0016128218 0)
(3.1018316e-09 0.0021542414 0)
(-8.0141962e-10 0.0023774663 0)
(-4.6070818e-09 0.0024513981 0)
(-7.5736184e-09 0.0024720896 0)
(-9.6523857e-09 0.0024772106 0)
(-1.1142394e-08 0.0024783842 0)
(-1.2476253e-08 0.0024786453 0)
(-1.4069277e-08 0.0024787025 0)
(-1.6193557e-08 0.0024787056 0)
(-1.8873439e-08 0.0024786545 0)
(-2.1853732e-08 0.0024783998 0)
(-2.465872e-08 0.0024772328 0)
(-2.6726099e-08 0.0024721185 0)
(-2.7543762e-08 0.0024514328 0)
(-2.6674154e-08 0.0023775046 0)
(-2.3605271e-08 0.0021542789 0)
(-1.7442252e-08 0.0016128519 0)
(-6.9195656e-09 0.00062375175 0)
(5.7505605e-09 0.00062366988 0)
(1.1493439e-08 0.0016127076 0)
(1.002184e-08 0.002154158 0)
(5.301925e-09 0.0023774248 0)
(4.2194189e-10 0.0024513822 0)
(-3.3995089e-09 0.0024720849 0)
(-6.0751822e-09 0.0024772096 0)
(-7.9635475e-09 0.0024783841 0)
(-9.5364156e-09 0.0024786452 0)
(-1.1232408e-08 0.0024787025 0)
(-1.3356686e-08 0.0024787057 0)
(-1.5992785e-08 0.002478655 0)
(-1.8982302e-08 0.0024784008 0)
(-2.199738e-08 0.0024772335 0)
(-2.4682242e-08 0.0024721166 0)
(-2.6742646e-08 0.0024514214 0)
(-2.7777262e-08 0.0023774688 0)
(-2.6744688e-08 0.0021542017 0)
(-2.1363262e-08 0.0016127427 0)
(-8.8582611e-09 0.00062368488 0)
(7.8170014e-09 0.00062354348 0)
(1.6476459e-08 0.0016124918 0)
(1.5576874e-08 0.0021539823 0)
(1.009478e-08 0.0023773309 0)
(4.2537809e-09 0.0024513443 0)
(-2.9169619e-10 0.002472073 0)
(-3.4431088e-09 0.0024772064 0)
(-5.6299351e-09 0.0024783827 0)
(-7.3638213e-09 0.0024786439 0)
(-9.1013616e-09 0.0024787012 0)
(-1.1171536e-08 0.0024787045 0)
(-1.3705224e-08 0.0024786537 0)
(-1.6626236e-08 0.0024784004 0)
(-1.9736138e-08 0.0024772304 0)
(-2.2866662e-08 0.0024721057 0)
(-2.5934296e-08 0.002451386 0)
(-2.8594407e-08 0.0023773785 0)
(-2.9326226e-08 0.0021540303 0)
(-2.4567528e-08 0.0016125303 0)
(-1.0354271e-08 0.00062356061 0)
)
;

boundaryField
{
    Wall
    {
        type            fixedValue;
        value           uniform (0 0 0);
    }
    frontAndBack
    {
        type            empty;
    }
    atmosphere
    {
        type            pressureInletOutletVelocity;
        value           nonuniform List<vector> 
20
(
(7.8170014e-09 0.00062354348 0)
(1.6476459e-08 0.0016124918 0)
(1.5576874e-08 0.0021539823 0)
(1.009478e-08 0.0023773309 0)
(4.2537809e-09 0.0024513443 0)
(-2.9169619e-10 0.002472073 0)
(-3.4431088e-09 0.0024772064 0)
(-5.6299351e-09 0.0024783827 0)
(-7.3638213e-09 0.0024786439 0)
(-9.1013616e-09 0.0024787012 0)
(-1.1171536e-08 0.0024787045 0)
(-1.3705224e-08 0.0024786537 0)
(-1.6626236e-08 0.0024784004 0)
(-1.9736138e-08 0.0024772304 0)
(-2.2866662e-08 0.0024721057 0)
(-2.5934296e-08 0.002451386 0)
(-2.8594407e-08 0.0023773785 0)
(-2.9326226e-08 0.0021540303 0)
(-2.4567528e-08 0.0016125303 0)
(-1.0354271e-08 0.00062356061 0)
)
;
    }
}


// ************************************************************************* //
