/*--------------------------------*- C++ -*----------------------------------*\
| =========                 |                                                 |
| \\      /  F ield         | OpenFOAM: The Open Source CFD Toolbox           |
|  \\    /   O peration     | Version:  3.0.1                                 |
|   \\  /    A nd           | Web:      www.OpenFOAM.org                      |
|    \\/     M anipulation  |                                                 |
\*---------------------------------------------------------------------------*/
FoamFile
{
    version     2.0;
    format      ascii;
    class       volScalarField;
    location    "9";
    object      wBA_l;
}
// * * * * * * * * * * * * * * * * * * * * * * * * * * * * * * * * * * * * * //

dimensions      [0 0 0 0 0 0 0];

internalField   nonuniform List<scalar> 
800
(
0.056489933
0.056485878
0.056484517
0.056483723
0.056483117
0.056482642
0.056482283
0.056482026
0.05648186
0.056481779
0.056481779
0.05648186
0.056482026
0.056482283
0.056482643
0.056483117
0.056483723
0.056484517
0.056485878
0.056489933
0.056485199
0.056484268
0.056484441
0.056484676
0.056484874
0.05648503
0.05648515
0.056485237
0.056485294
0.056485322
0.056485322
0.056485295
0.056485238
0.05648515
0.05648503
0.056484875
0.056484677
0.056484442
0.056484269
0.056485199
0.040185586
0.040229003
0.040231351
0.040229989
0.040228248
0.040226695
0.040225448
0.040224541
0.040223956
0.040223672
0.040223673
0.040223957
0.040224542
0.040225449
0.040226696
0.040228249
0.04022999
0.040231352
0.040229005
0.040185587
0.021696675
0.021854668
0.021847576
0.021834009
0.021823135
0.021814645
0.021808399
0.021804012
0.021801222
0.021799867
0.021799869
0.021801226
0.021804018
0.021808407
0.021814655
0.021823146
0.021834022
0.021847589
0.021854682
0.02169669
0.0079160639
0.0085642544
0.0086436739
0.0086480574
0.0086420582
0.0086359115
0.0086312244
0.0086279297
0.0086258402
0.0086248235
0.0086248236
0.0086258407
0.0086279308
0.0086312261
0.0086359134
0.0086420598
0.0086480592
0.0086436738
0.0085642539
0.0079160651
0.0018116289
0.0027017977
0.0029122547
0.0029585945
0.0029659376
0.002965118
0.0029632678
0.0029617595
0.0029607749
0.0029602932
0.0029602926
0.0029607732
0.002961757
0.0029632644
0.0029651138
0.002965932
0.0029585874
0.0029122454
0.0027017878
0.0018116217
0.00023542198
0.00071040665
0.00088526567
0.0009323592
0.00094257885
0.00094388031
0.00094346684
0.0009429257
0.00094254555
0.0009423568
0.00094235617
0.00094254377
0.00094292295
0.00094346323
0.00094387579
0.00094257317
0.00093235216
0.00088525733
0.00071039858
0.00023541822
2.4616185e-05
0.0001683651
0.00025031251
0.00027593265
0.00028204525
0.00028306924
0.00028302421
0.00028284126
0.00028270193
0.00028263159
0.00028263121
0.00028270084
0.00028283957
0.00028302199
0.00028306651
0.0002820419
0.00027592861
0.00025030802
0.0001683613
2.4615333e-05
2.4649792e-06
3.6676762e-05
6.5065986e-05
7.5170589e-05
7.7722503e-05
7.8186588e-05
7.8194089e-05
7.8134575e-05
7.8086503e-05
7.8061917e-05
7.8061741e-05
7.8085995e-05
7.8133789e-05
7.8193071e-05
7.8185352e-05
7.7721028e-05
7.5168867e-05
6.5064183e-05
3.6675467e-05
2.4648457e-06
2.3567584e-07
7.2619342e-06
1.5294152e-05
1.8505623e-05
1.9353227e-05
1.9513798e-05
1.95201e-05
1.9502394e-05
1.9487514e-05
1.9479825e-05
1.9479759e-05
1.9487322e-05
1.9502098e-05
1.9519721e-05
1.9513346e-05
1.9352703e-05
1.8505035e-05
1.5293576e-05
7.2615879e-06
2.3565915e-07
2.0948218e-08
1.2951104e-06
3.2234431e-06
4.0808492e-06
4.3158309e-06
4.361593e-06
4.3639823e-06
4.3593594e-06
4.3553541e-06
4.3532655e-06
4.3532446e-06
4.3552938e-06
4.3592664e-06
4.3638642e-06
4.361455e-06
4.3156757e-06
4.0806823e-06
3.2232912e-06
1.2950346e-06
2.0946467e-08
1.7057338e-09
2.0770825e-07
6.088248e-07
8.0565596e-07
8.6145432e-07
8.725705e-07
8.7326464e-07
8.7222118e-07
8.7129094e-07
8.708015e-07
8.7079592e-07
8.7127482e-07
8.721964e-07
8.7323336e-07
8.7253448e-07
8.6141491e-07
8.0561542e-07
6.0879068e-07
2.0769417e-07
1.705574e-09
1.266804e-10
3.0050314e-08
1.0345863e-07
1.4298229e-07
1.5454309e-07
1.5689437e-07
1.5706413e-07
1.5686007e-07
1.5667255e-07
1.5657299e-07
1.5657171e-07
1.5666885e-07
1.5685438e-07
1.5705698e-07
1.5688622e-07
1.5453436e-07
1.4297366e-07
1.0345191e-07
3.0048015e-08
1.2666733e-10
8.587922e-12
3.9416384e-09
1.5908247e-08
2.2945902e-08
2.5066505e-08
2.5506357e-08
2.5542413e-08
2.5507512e-08
2.5474336e-08
2.5456559e-08
2.5456305e-08
2.5473602e-08
2.550638e-08
2.5540988e-08
2.5504738e-08
2.5064795e-08
2.2944263e-08
1.5907057e-08
3.9412994e-09
8.5869431e-12
5.3296067e-13
4.712733e-10
2.2265227e-09
3.3501348e-09
3.6985339e-09
3.7721731e-09
3.7789247e-09
3.7736468e-09
3.7684338e-09
3.7656142e-09
3.7655701e-09
3.7683061e-09
3.7734492e-09
3.7786751e-09
3.7718894e-09
3.6982356e-09
3.349855e-09
2.2263312e-09
4.7122746e-10
5.3289284e-13
3.0385331e-14
5.1623535e-11
2.8521117e-10
4.4750852e-10
4.9925329e-10
5.103895e-10
5.1151539e-10
5.1080241e-10
5.1006698e-10
5.0966539e-10
5.0965864e-10
5.1004738e-10
5.1077195e-10
5.1147672e-10
5.1034536e-10
4.9920685e-10
4.4746546e-10
2.8518309e-10
5.1617841e-11
3.0380996e-14
1.5971927e-15
5.2048106e-12
3.3602442e-11
5.4966555e-11
6.1966233e-11
6.3498785e-11
6.3667407e-11
6.358062e-11
6.3486594e-11
6.3434752e-11
6.3433831e-11
6.3483916e-11
6.357644e-11
6.366207e-11
6.3492652e-11
6.1959751e-11
5.4960577e-11
3.3598693e-11
5.2041632e-12
1.5969388e-15
7.7672395e-17
4.8499194e-13
3.6569635e-12
6.2354357e-12
7.1031628e-12
7.29627e-12
7.3191221e-12
7.3095347e-12
7.2985547e-12
7.2924411e-12
7.2923283e-12
7.2982258e-12
7.3090194e-12
7.3184601e-12
7.2955038e-12
7.102348e-12
6.2346856e-12
3.656509e-12
4.849248e-13
7.7658835e-17
3.5057154e-18
4.1920974e-14
3.6904147e-13
6.5582446e-13
7.5491202e-13
7.7730573e-13
7.8012704e-13
7.7916041e-13
7.7798155e-13
7.7731858e-13
7.7730602e-13
7.7794483e-13
7.7910266e-13
7.8005247e-13
7.7721884e-13
7.5481905e-13
6.557389e-13
3.6899126e-13
4.1914619e-14
3.5050541e-18
1.4728418e-19
3.3722368e-15
3.4650007e-14
6.4171907e-14
7.4640583e-14
7.7041181e-14
7.7360385e-14
7.7271051e-14
7.7154045e-14
7.7087566e-14
7.7086277e-14
7.7150271e-14
7.7265095e-14
7.7352659e-14
7.7032129e-14
7.4630847e-14
6.4162957e-14
3.4644919e-14
3.3716843e-15
1.4725456e-19
5.7751203e-21
2.5320179e-16
3.0360643e-15
5.8594265e-15
6.8866066e-15
7.1254147e-15
7.1586843e-15
7.1510934e-15
7.1403077e-15
7.1341144e-15
7.1339909e-15
7.1399456e-15
7.1505204e-15
7.1579384e-15
7.1245371e-15
6.8856592e-15
5.858558e-15
3.0355865e-15
2.5315729e-16
5.7738898e-21
2.1185651e-22
1.7791736e-17
2.4892239e-16
5.0060041e-16
5.9451217e-16
6.1663196e-16
6.1984095e-16
6.1924683e-16
6.1831985e-16
6.1778164e-16
6.1777046e-16
6.1828703e-16
6.1919479e-16
6.19773e-16
6.1655177e-16
5.9442543e-16
5.0052126e-16
2.4888033e-16
1.7788378e-17
2.1180859e-22
7.2870455e-24
1.1727305e-18
1.9142861e-17
4.0114635e-17
4.8138365e-17
5.0051786e-17
5.0339369e-17
5.0296523e-17
5.0221994e-17
5.0178219e-17
5.0177256e-17
5.0219162e-17
5.0292024e-17
5.0333479e-17
5.0044817e-17
4.8130822e-17
4.0107796e-17
1.9139359e-17
1.1724911e-18
7.2852808e-24
2.3548024e-25
7.266585e-20
1.3838157e-18
3.0215676e-18
3.6638642e-18
3.8188485e-18
3.8428781e-18
3.8400353e-18
3.8344141e-18
3.8310724e-18
3.8309931e-18
3.834181e-18
3.839664e-18
3.8423907e-18
3.8182704e-18
3.6632384e-18
3.0210045e-18
1.3835381e-18
7.2649623e-20
2.3541847e-25
7.162006e-27
4.2408049e-21
9.4215743e-20
2.1435205e-19
2.6263517e-19
2.7441768e-19
2.7629546e-19
2.7612266e-19
2.7572399e-19
2.7548398e-19
2.7547777e-19
2.7570572e-19
2.7609348e-19
2.7625703e-19
2.7437199e-19
2.6258569e-19
2.1430787e-19
9.4194809e-20
4.2397589e-21
7.1599501e-27
2.0535399e-28
2.335099e-22
6.0520897e-21
1.4346753e-20
1.7762197e-20
1.8604712e-20
1.8742313e-20
1.8732776e-20
1.8706134e-20
1.8689883e-20
1.8689423e-20
1.8704777e-20
1.8730603e-20
1.8739442e-20
1.8601286e-20
1.7758483e-20
1.4343463e-20
6.0505911e-21
2.3344594e-22
2.0528914e-28
5.559108e-30
1.2150184e-23
3.673781e-22
9.0740511e-22
1.1351718e-21
1.1919433e-21
1.201421e-21
1.2009517e-21
1.1992712e-21
1.1982321e-21
1.1982e-21
1.1991763e-21
1.2007994e-21
1.2012188e-21
1.1917012e-21
1.1349089e-21
9.0717376e-22
3.6727679e-22
1.2146491e-23
5.5571779e-30
1.4556055e-31
5.9827152e-25
2.1104311e-23
5.4311973e-23
6.8655097e-23
7.2266153e-23
7.2881039e-23
7.2861291e-23
7.2761071e-23
7.2698247e-23
7.2696143e-23
7.2754848e-23
7.2851266e-23
7.2867685e-23
7.2250095e-23
6.8637619e-23
5.4296688e-23
2.1097872e-23
5.9807098e-25
1.4222035e-31
5.2029284e-33
2.7913418e-26
1.1488004e-24
3.0803715e-24
3.9345637e-24
4.1517114e-24
4.1893558e-24
4.1887264e-24
4.1830687e-24
4.1794718e-24
4.1793429e-24
4.1826868e-24
4.1881094e-24
4.1885305e-24
4.1507149e-24
3.9334763e-24
3.0794259e-24
1.148417e-24
2.7903117e-26
3.4452583e-33
2.2564973e-34
1.2354782e-27
5.9326209e-26
1.6574392e-25
2.1391772e-25
2.2627987e-25
2.2845824e-25
2.2845171e-25
2.2814899e-25
2.2795377e-25
2.2794638e-25
2.2812708e-25
2.2841622e-25
2.2841058e-25
2.2622208e-25
2.1385449e-25
1.6568924e-25
5.9304853e-26
1.23498e-27
7.9089686e-35
9.997276e-36
5.1930909e-29
2.9096662e-27
8.4696543e-27
1.1045614e-26
1.1712717e-26
1.1832041e-26
1.1833151e-26
1.1817783e-26
1.1807727e-26
1.1807331e-26
1.1816607e-26
1.1831242e-26
1.1829468e-26
1.1709584e-26
1.1042178e-26
8.4666993e-27
2.9085542e-27
5.1908293e-29
1.7222563e-36
4.1557062e-37
2.0749364e-30
1.3566183e-28
4.1144446e-28
5.4218781e-28
5.763498e-28
5.82545e-28
5.8267133e-28
5.8193026e-28
5.814382e-28
5.8141832e-28
5.8187115e-28
5.8257509e-28
5.8241489e-28
5.7619088e-28
5.4201316e-28
4.112951e-28
1.3560767e-28
2.0739745e-30
3.5608838e-38
1.5696027e-38
7.8877385e-32
6.0183112e-30
1.9017754e-29
2.5322781e-29
2.6984622e-29
2.7289849e-29
2.729914e-29
2.7265169e-29
2.7242274e-29
2.7241336e-29
2.7262379e-29
2.7294589e-29
2.7283681e-29
2.6977066e-29
2.5314464e-29
1.9010685e-29
6.0158417e-30
7.8839056e-32
6.9962535e-40
5.2771737e-40
2.8550547e-33
2.5423952e-31
8.3706481e-31
1.1262225e-30
1.2030885e-30
1.2173738e-30
1.2179393e-30
1.2164577e-30
1.2154438e-30
1.2154022e-30
1.2163338e-30
1.2177369e-30
1.217099e-30
1.2027511e-30
1.1258508e-30
8.3675095e-31
2.5413393e-31
2.8536239e-33
1.307232e-41
1.5242733e-41
9.8469762e-35
1.023479e-32
3.5109708e-32
4.7731445e-32
5.1114756e-32
5.1750481e-32
5.1780954e-32
5.1719426e-32
5.1676661e-32
5.1674922e-32
5.1714241e-32
5.1772475e-32
5.1738951e-32
5.1100582e-32
4.771583e-32
3.5096616e-32
1.0230549e-32
9.8419774e-35
2.3244437e-43
3.4099429e-43
3.2381657e-36
3.9288678e-34
1.4042659e-33
1.9290272e-33
2.0708482e-33
2.0977714e-33
2.0992682e-33
2.0968337e-33
2.0951143e-33
2.0950455e-33
2.0966286e-33
2.0989327e-33
2.0973149e-33
2.070287e-33
1.9284093e-33
1.4037518e-33
3.9272653e-34
3.2365355e-36
3.9358106e-45
3.9932369e-45
1.0159073e-37
1.4390124e-35
5.3589804e-35
7.4384497e-35
8.0049847e-35
8.1135749e-35
8.1203776e-35
8.1111937e-35
8.1046e-35
8.1043423e-35
8.1104255e-35
8.1191214e-35
8.111867e-35
8.002886e-35
7.4361435e-35
5.3570775e-35
1.4384418e-35
1.0154143e-37
6.3494836e-47
4.4971845e-47
3.0422399e-39
5.0315009e-37
1.9523364e-36
2.7382078e-36
2.9540157e-36
2.9957566e-36
2.998643e-36
2.9953381e-36
2.9929247e-36
2.9928331e-36
2.9950652e-36
2.9981972e-36
2.9951514e-36
2.9532735e-36
2.7373947e-36
1.9516716e-36
5.0295847e-37
3.0408401e-39
9.7642946e-49
4.8743454e-49
8.6997571e-41
1.6802089e-38
6.7930977e-38
9.6270535e-38
1.0411397e-37
1.0564405e-37
1.0575908e-37
1.0564558e-37
1.0556122e-37
1.0555812e-37
1.0563636e-37
1.0574406e-37
1.0562371e-37
1.0408911e-37
9.624342e-38
6.7909033e-38
1.6796013e-38
8.6959935e-41
1.4318975e-50
5.0882994e-51
2.37656e-42
5.3607675e-40
2.2583686e-39
3.234005e-39
3.5061322e-39
3.5596521e-39
3.5639759e-39
3.560254e-39
3.5574368e-39
3.5573372e-39
3.5599581e-39
3.5634946e-39
3.5590026e-39
3.5053423e-39
3.2331488e-39
2.2576836e-39
5.3589458e-40
2.3756014e-42
2.0030148e-52
)
;

boundaryField
{
    Wall
    {
        type            zeroGradient;
    }
    frontAndBack
    {
        type            empty;
    }
    atmosphere
    {
        type            zeroGradient;
    }
}


// ************************************************************************* //
