/*--------------------------------*- C++ -*----------------------------------*\
| =========                 |                                                 |
| \\      /  F ield         | OpenFOAM: The Open Source CFD Toolbox           |
|  \\    /   O peration     | Version:  3.0.1                                 |
|   \\  /    A nd           | Web:      www.OpenFOAM.org                      |
|    \\/     M anipulation  |                                                 |
\*---------------------------------------------------------------------------*/
FoamFile
{
    version     2.0;
    format      ascii;
    class       volScalarField;
    location    "9";
    object      wBA_g;
}
// * * * * * * * * * * * * * * * * * * * * * * * * * * * * * * * * * * * * * //

dimensions      [0 0 0 0 0 0 0];

internalField   nonuniform List<scalar> 
800
(
0.0076251112
0.0076249485
0.0076247901
0.0076247096
0.0076246464
0.007624594
0.0076245531
0.0076245231
0.0076245035
0.0076244937
0.0076244938
0.0076245035
0.007624523
0.0076245531
0.0076245941
0.0076246464
0.0076247097
0.0076247902
0.0076249485
0.0076251113
0.0021144241
0.0021234032
0.002126326
0.0021282293
0.0021296068
0.0021306226
0.0021313583
0.0021318713
0.0021321965
0.0021323543
0.0021323543
0.0021321964
0.002131871
0.002131358
0.0021306222
0.0021296064
0.0021282288
0.0021263256
0.0021234026
0.0021144235
0.0006427085
0.00064616015
0.00064697648
0.00064742893
0.00064771784
0.0006479136
0.00064804643
0.00064813535
0.00064819045
0.00064821693
0.00064821691
0.00064819038
0.00064813523
0.00064804627
0.00064791342
0.00064771762
0.00064742867
0.00064697622
0.00064615984
0.00064270817
0.00019475403
0.00019607456
0.00019610083
0.00019605931
0.00019601036
0.00019596417
0.0001959269
0.00019589934
0.00019588134
0.00019587251
0.00019587252
0.00019588136
0.00019589937
0.00019592694
0.00019596423
0.00019601042
0.00019605938
0.0001961009
0.00019607463
0.00019475411
4.4265055e-05
4.6950193e-05
4.7254244e-05
4.726162e-05
4.7224237e-05
4.7186556e-05
4.7157344e-05
4.7136508e-05
4.7123176e-05
4.7116671e-05
4.7116674e-05
4.7123183e-05
4.7136519e-05
4.7157359e-05
4.7186575e-05
4.7224253e-05
4.7261642e-05
4.7254263e-05
4.695021e-05
4.4265083e-05
6.66698e-06
9.5519615e-06
1.0288023e-05
1.0463745e-05
1.049286e-05
1.0488816e-05
1.0480377e-05
1.0473441e-05
1.0468879e-05
1.0466644e-05
1.0466643e-05
1.0468876e-05
1.0473436e-05
1.048037e-05
1.0488807e-05
1.0492847e-05
1.0463729e-05
1.0288003e-05
9.5519406e-06
6.6669684e-06
5.68815e-07
1.6697809e-06
2.1126996e-06
2.241371e-06
2.2707055e-06
2.2744965e-06
2.2731806e-06
2.271469e-06
2.2702581e-06
2.2696557e-06
2.2696546e-06
2.2702546e-06
2.2714635e-06
2.2731734e-06
2.2744874e-06
2.2706939e-06
2.2413572e-06
2.1126838e-06
1.6697663e-06
5.6880892e-07
3.8918357e-08
2.7497246e-07
4.2533815e-07
4.7620728e-07
4.8894647e-07
4.9115794e-07
4.9107711e-07
4.9068583e-07
4.9038363e-07
4.9023057e-07
4.9022999e-07
4.9038193e-07
4.9068316e-07
4.9107361e-07
4.9115361e-07
4.8894116e-07
4.7620109e-07
4.2533153e-07
2.7496726e-07
3.8917333e-08
2.6620514e-09
4.4196608e-08
8.3382761e-08
9.8512354e-08
1.0251453e-07
1.0327165e-07
1.03296e-07
1.0320731e-07
1.0313365e-07
1.0309577e-07
1.0309555e-07
1.0313302e-07
1.0320633e-07
1.0329473e-07
1.0327011e-07
1.025127e-07
9.8510273e-08
8.3380679e-08
4.4195243e-08
2.6619333e-09
1.883024e-10
6.8795436e-09
1.5627127e-08
1.941622e-08
2.0459633e-08
2.0664857e-08
2.0676668e-08
2.0656972e-08
2.0639772e-08
2.0630824e-08
2.0630757e-08
2.0639579e-08
2.0656672e-08
2.0676282e-08
2.0664397e-08
2.0459102e-08
1.9415639e-08
1.5626584e-08
6.8792491e-09
1.8829087e-10
1.3513734e-11
1.0225179e-09
2.7602837e-09
3.593051e-09
3.8299237e-09
3.8775797e-09
3.8808958e-09
3.8767627e-09
3.8730282e-09
3.8710669e-09
3.871049e-09
3.8729764e-09
3.8766827e-09
3.8807939e-09
3.8774606e-09
3.8297904e-09
3.5929108e-09
2.7601621e-09
1.0224632e-09
1.351272e-11
9.5934544e-13
1.4375976e-10
4.5625096e-10
6.2013842e-10
6.680622e-10
6.7786271e-10
6.7861918e-10
6.7782185e-10
6.7708178e-10
6.7668983e-10
6.7668562e-10
6.7706962e-10
6.7780308e-10
6.7859547e-10
6.7783541e-10
6.6803245e-10
6.2010843e-10
4.5622681e-10
1.4375074e-10
9.5926276e-13
6.6083736e-14
1.9035479e-11
7.043897e-11
9.9702331e-11
1.0847351e-10
1.1029258e-10
1.1044475e-10
1.1030495e-10
1.1017182e-10
1.1010074e-10
1.1009986e-10
1.1016929e-10
1.1030104e-10
1.1043983e-10
1.1028697e-10
1.0846752e-10
9.9696514e-11
7.0434616e-11
1.9034117e-11
6.6077367e-14
4.3639044e-15
2.3709228e-12
1.0166768e-11
1.4955116e-11
1.6423545e-11
1.6732174e-11
1.6759994e-11
1.6737728e-11
1.671593e-11
1.6704196e-11
1.6704033e-11
1.6715458e-11
1.6736999e-11
1.6759076e-11
1.6731133e-11
1.6422447e-11
1.4954079e-11
1.0166041e-11
2.3707305e-12
4.3634343e-15
2.7437866e-16
2.7788215e-13
1.374737e-12
2.0983737e-12
2.3251701e-12
2.3734701e-12
2.3781502e-12
2.3749142e-12
2.3716458e-12
2.3698719e-12
2.3698447e-12
2.371567e-12
2.374792e-12
2.3779958e-12
2.3732947e-12
2.3249861e-12
2.098203e-12
1.3746233e-12
2.778565e-13
2.7434537e-16
1.6369126e-17
3.0681825e-14
1.7457115e-13
2.7619697e-13
3.0872583e-13
3.157448e-13
3.1647358e-13
3.160418e-13
3.1558994e-13
3.1534266e-13
3.1533856e-13
3.1557803e-13
3.1602327e-13
3.1645004e-13
3.1571792e-13
3.0869759e-13
2.7617101e-13
1.7455456e-13
3.0678594e-14
1.6366883e-17
9.2535393e-19
3.1960542e-15
2.0868202e-14
3.4196342e-14
3.8551379e-14
3.9503326e-14
3.9608753e-14
3.9555542e-14
3.9497571e-14
3.946558e-14
3.9465018e-14
3.9495934e-14
3.9552984e-14
3.9605484e-14
3.9499568e-14
3.854741e-14
3.4192701e-14
2.0865947e-14
3.1956728e-15
9.2521175e-19
4.9561835e-20
3.1460082e-16
2.353669e-15
3.9925679e-15
4.5390795e-15
4.6600565e-15
4.6742684e-15
4.66818e-15
4.6612391e-15
4.6573765e-15
4.6573057e-15
4.6610327e-15
4.667856e-15
4.673852e-15
4.6595744e-15
4.5385667e-15
3.9920969e-15
2.3533848e-15
3.1455886e-16
4.9553426e-20
2.5166104e-21
2.9311914e-17
2.5100162e-16
4.4058402e-16
5.050854e-16
5.1953897e-16
5.2132956e-16
5.2067988e-16
5.1990057e-16
5.1946317e-16
5.1945492e-16
5.1987646e-16
5.206419e-16
5.2128048e-16
5.1948175e-16
5.0502411e-16
4.4052759e-16
2.5096837e-16
2.9307615e-17
2.5161472e-21
1.2127496e-22
2.5893868e-18
2.535946e-17
4.6048639e-17
5.3229099e-17
5.4857098e-17
5.506858e-17
5.5003695e-17
5.4921304e-17
5.4874657e-17
5.4873756e-17
5.4918665e-17
5.4999525e-17
5.5063167e-17
5.485075e-17
5.3222258e-17
4.6042328e-17
2.5355827e-17
2.5889752e-18
1.2125109e-22
5.5535465e-24
2.1723945e-19
2.4318804e-18
4.5672322e-18
5.3230858e-18
5.4963924e-18
5.5198747e-18
5.5137926e-18
5.5055619e-18
5.5008601e-18
5.5007666e-18
5.5052877e-18
5.5133584e-18
5.5193089e-18
5.4957259e-18
5.3223644e-18
4.5665666e-18
2.4315064e-18
2.172023e-19
5.5523858e-24
2.4200148e-25
1.7336914e-20
2.2173804e-19
4.306393e-19
5.0604287e-19
5.2351815e-19
5.2597624e-19
5.2544003e-19
5.2466076e-19
5.2421147e-19
5.2420216e-19
5.2463344e-19
5.2539666e-19
5.2591956e-19
5.2345117e-19
5.0597016e-19
4.3057233e-19
2.2170138e-19
1.7333723e-20
2.4194771e-25
1.0049193e-26
1.3181772e-21
1.9255101e-20
3.8665339e-20
4.5808457e-20
4.7480941e-20
4.7724143e-20
4.767962e-20
4.7609518e-20
4.756871e-20
4.7567814e-20
4.7606886e-20
4.7675432e-20
4.7718656e-20
4.7474439e-20
4.580139e-20
3.8658853e-20
1.9251649e-20
1.3179142e-21
1.0046799e-26
3.9821669e-28
9.5629757e-23
1.5948821e-21
3.3109589e-21
3.9547169e-21
4.1069248e-21
4.1297226e-21
4.1262386e-21
4.1202337e-21
4.116703e-21
4.1166194e-21
4.1199881e-21
4.125847e-21
4.129208e-21
4.1063134e-21
3.9540518e-21
3.3103516e-21
1.5945683e-21
9.5608851e-23
3.9811379e-28
1.5078986e-29
6.628965e-24
1.2618797e-22
2.7079625e-22
3.2608411e-22
3.3927877e-22
3.4130804e-22
3.410512e-22
3.4056047e-22
3.4026893e-22
3.402614e-22
3.4053833e-22
3.4101581e-22
3.4126139e-22
3.392232e-22
3.260236e-22
2.7074128e-22
1.2616042e-22
6.6273614e-24
1.5074716e-29
5.4632539e-31
4.3965735e-25
9.5500321e-24
2.1182697e-23
2.5714678e-23
2.6805964e-23
2.6977829e-23
2.6960018e-23
2.6921697e-23
2.6898685e-23
2.6898035e-23
2.691978e-23
2.6956946e-23
2.6973765e-23
2.6801107e-23
2.5709381e-23
2.1177909e-23
9.5477061e-24
4.3953905e-25
5.4615492e-31
1.8962211e-32
2.793492e-26
6.9221904e-25
1.5868099e-24
1.9418905e-24
2.0281293e-24
2.0420047e-24
2.0408465e-24
2.0379828e-24
2.0362443e-24
2.0361907e-24
2.0378244e-24
2.0405919e-24
2.0416665e-24
2.0277236e-24
1.941447e-24
1.5864108e-24
6.9203104e-25
2.7926564e-26
1.8955702e-32
6.4586687e-34
1.7023942e-27
4.811201e-26
1.1397078e-25
1.4059834e-25
1.4711898e-25
1.4818866e-25
1.4811847e-25
1.4791342e-25
1.4778757e-25
1.4778336e-25
1.4790099e-25
1.4809842e-25
1.4816192e-25
1.4708676e-25
1.4056302e-25
1.1393912e-25
4.8097537e-26
1.7018318e-27
6.3099105e-34
2.8422041e-35
9.961776e-29
3.2101202e-27
7.8573123e-27
9.7708899e-27
1.0243235e-26
1.0322101e-26
1.031818e-26
1.0304097e-26
1.0295355e-26
1.0295043e-26
1.0303171e-26
1.0316684e-26
1.0320097e-26
1.0240811e-26
9.7682236e-27
7.8549294e-27
3.2090626e-27
9.9581487e-29
2.0166869e-35
1.4943574e-36
5.6031159e-30
2.0582714e-28
5.2050206e-28
6.5244283e-28
6.8526217e-28
6.9083102e-28
6.9063363e-28
6.8970466e-28
6.8912167e-28
6.8909968e-28
6.8963948e-28
6.9052794e-28
6.9068895e-28
6.850895e-28
6.5225232e-28
5.203323e-28
2.0575393e-28
5.6008847e-30
6.1948365e-37
8.2442315e-38
3.0322276e-31
1.2694759e-29
3.3163947e-29
4.1901785e-29
4.4091491e-29
4.4468593e-29
4.4460074e-29
4.4401172e-29
4.4363798e-29
4.4362332e-29
4.4396824e-29
4.4453004e-29
4.4459055e-29
4.4079851e-29
4.1888903e-29
3.3152503e-29
1.2689962e-29
3.0309238e-31
1.8306815e-38
4.4038923e-39
1.5802638e-32
7.5385322e-31
2.0342578e-30
2.5906275e-30
2.731064e-30
2.7555823e-30
2.7553138e-30
2.7517204e-30
2.7494151e-30
2.7493225e-30
2.7514452e-30
2.7548654e-30
2.7549753e-30
2.7303206e-30
2.5898025e-30
2.0335271e-30
7.5355549e-31
1.5795411e-32
5.2092256e-40
2.1919963e-40
7.9378685e-34
4.3138454e-32
1.2023127e-31
1.5432476e-31
1.6299107e-31
1.6452336e-31
1.6452283e-31
1.6431171e-31
1.6417477e-31
1.6416921e-31
1.6429516e-31
1.644958e-31
1.6448669e-31
1.6294602e-31
1.5427465e-31
1.2018704e-31
4.3120936e-32
7.9340692e-34
1.428457e-41
9.9073913e-42
3.8461993e-35
2.3807246e-33
6.8525604e-33
8.8649624e-33
9.3800067e-33
9.4721489e-33
9.473009e-33
9.461054e-33
9.4532139e-33
9.4528955e-33
9.4601061e-33
9.4714587e-33
9.4700405e-33
9.3774103e-33
8.8620703e-33
6.8500174e-33
2.3797459e-33
3.8443048e-35
3.7776626e-43
3.9123092e-43
1.7990268e-36
1.2680889e-34
3.7691425e-34
4.9142743e-34
5.2093129e-34
5.2626778e-34
5.2636501e-34
5.25712e-34
5.25279e-34
5.2526159e-34
5.2566017e-34
5.2628016e-34
5.2615222e-34
5.2078877e-34
4.9126855e-34
3.7677517e-34
1.2675688e-34
1.7981313e-36
9.6415127e-45
1.2144615e-44
8.1287581e-38
6.5237045e-36
2.0021468e-35
2.6308304e-35
2.7938661e-35
2.8236591e-35
2.8244457e-35
2.8210024e-35
2.8186937e-35
2.8186026e-35
2.8207313e-35
2.8240016e-35
2.823054e-35
2.7931195e-35
2.6299982e-35
2.0014219e-35
6.5210719e-36
8.1247546e-38
2.3763837e-46
2.0268129e-46
3.5503646e-39
3.2436261e-37
1.0277856e-36
1.361029e-36
1.4480008e-36
1.4640476e-36
1.4645925e-36
1.4628387e-36
1.4616493e-36
1.4616037e-36
1.4627027e-36
1.4643699e-36
1.4637444e-36
1.4476268e-36
1.3606126e-36
1.0274249e-36
3.2423546e-37
3.5486813e-39
5.6598134e-48
3.3106543e-48
1.499849e-40
1.5596488e-38
5.1019083e-38
6.8085429e-38
7.2567406e-38
7.3401883e-38
7.3436062e-38
7.3349707e-38
7.3290469e-38
7.3288269e-38
7.3343156e-38
7.3425348e-38
7.3387315e-38
7.2549469e-38
6.8065501e-38
5.1001929e-38
1.5590623e-38
1.4991755e-40
1.303306e-49
5.3024307e-50
6.1317427e-42
7.2565054e-40
2.4503984e-39
3.2953844e-39
3.5186631e-39
3.5605917e-39
3.5625819e-39
3.5584692e-39
3.5556148e-39
3.5555127e-39
3.5581656e-39
3.5620862e-39
3.5599194e-39
3.5178379e-39
3.2944711e-39
2.4496181e-39
7.2539182e-40
6.1291579e-42
2.9031181e-51
8.3432758e-52
2.4271104e-43
3.2685435e-41
1.139318e-40
1.5440377e-40
1.6516335e-40
1.6720042e-40
1.673095e-40
1.6711995e-40
1.6698681e-40
1.6698224e-40
1.6710639e-40
1.6728742e-40
1.6717056e-40
1.6512688e-40
1.5436363e-40
1.1389781e-40
3.2674509e-41
2.4261584e-43
6.2580975e-53
)
;

boundaryField
{
    Wall
    {
        type            zeroGradient;
    }
    frontAndBack
    {
        type            empty;
    }
    atmosphere
    {
        type            zeroGradient;
    }
}


// ************************************************************************* //
