/*--------------------------------*- C++ -*----------------------------------*\
| =========                 |                                                 |
| \\      /  F ield         | OpenFOAM: The Open Source CFD Toolbox           |
|  \\    /   O peration     | Version:  3.0.1                                 |
|   \\  /    A nd           | Web:      www.OpenFOAM.org                      |
|    \\/     M anipulation  |                                                 |
\*---------------------------------------------------------------------------*/
FoamFile
{
    version     2.0;
    format      ascii;
    class       volScalarField;
    location    "9";
    object      wBA_l_0;
}
// * * * * * * * * * * * * * * * * * * * * * * * * * * * * * * * * * * * * * //

dimensions      [0 0 0 0 0 0 0];

internalField   nonuniform List<scalar> 
800
(
0.056488498
0.056484484
0.056483142
0.056482362
0.056481767
0.0564813
0.056480947
0.056480694
0.056480531
0.056480451
0.056480451
0.056480531
0.056480694
0.056480947
0.0564813
0.056481767
0.056482362
0.056483142
0.056484484
0.056488498
0.056485734
0.056484804
0.056484973
0.056485202
0.056485395
0.056485548
0.056485665
0.056485751
0.056485806
0.056485834
0.056485834
0.056485806
0.056485751
0.056485665
0.056485548
0.056485396
0.056485203
0.056484974
0.056484805
0.056485734
0.039986303
0.040029416
0.040031694
0.040030302
0.040028543
0.040026979
0.040025725
0.040024814
0.040024228
0.040023943
0.040023943
0.040024228
0.040024815
0.040025727
0.04002698
0.040028545
0.040030304
0.040031696
0.040029418
0.039986304
0.021385517
0.021544552
0.021537486
0.021523919
0.021513063
0.021504594
0.021498367
0.021493995
0.021491215
0.021489865
0.021489866
0.021491219
0.021494001
0.021498375
0.021504603
0.021513074
0.021523933
0.0215375
0.021544566
0.021385532
0.0077014712
0.0083503282
0.0084304141
0.0084350747
0.0084292674
0.0084232726
0.0084186993
0.0084154855
0.0084134476
0.0084124561
0.0084124562
0.0084134481
0.0084154865
0.0084187009
0.0084232744
0.0084292689
0.0084350763
0.0084304139
0.0083503274
0.0077014721
0.0017372282
0.002609237
0.0028157264
0.0028610433
0.0028681986
0.0028674109
0.0028656267
0.0028641741
0.0028632263
0.0028627628
0.0028627622
0.0028632246
0.0028641715
0.0028656234
0.0028674067
0.0028681931
0.0028610362
0.0028157171
0.0026092272
0.001737221
0.00022379507
0.00068153673
0.00085019888
0.00089540082
0.00090513633
0.00090635526
0.00090595181
0.00090543281
0.00090506937
0.00090488908
0.00090488847
0.00090506762
0.00090543012
0.00090594828
0.00090635085
0.00090513077
0.00089539392
0.0008501907
0.0006815288
0.0002237914
2.3389839e-05
0.00016070609
0.00023881522
0.00026308141
0.00026882155
0.00026976829
0.00026971797
0.00026954233
0.00026940958
0.00026934268
0.00026934232
0.00026940852
0.00026954069
0.00026971583
0.00026976565
0.00026881832
0.00026307751
0.00023881086
0.00016070239
2.3389015e-05
2.3410365e-06
3.4798964e-05
6.1595876e-05
7.1060633e-05
7.3428958e-05
7.3853128e-05
7.3856421e-05
7.3799331e-05
7.3753745e-05
7.3730488e-05
7.3730321e-05
7.375326e-05
7.3798581e-05
7.385545e-05
7.385195e-05
7.3427551e-05
7.1058987e-05
6.1594146e-05
3.4797719e-05
2.3409084e-06
2.2320509e-07
6.8393107e-06
1.4346968e-05
1.73219e-05
1.8099403e-05
1.8244479e-05
1.8248997e-05
1.8232098e-05
1.8218097e-05
1.8210883e-05
1.821082e-05
1.8217916e-05
1.8231819e-05
1.8248639e-05
1.8244053e-05
1.8098909e-05
1.7321345e-05
1.4346422e-05
6.8389812e-06
2.2318917e-07
1.9746952e-08
1.2094056e-06
2.9932569e-06
3.7784051e-06
3.9913719e-06
4.0322304e-06
4.0340441e-06
4.0296695e-06
4.0259391e-06
4.0239999e-06
4.0239804e-06
4.0258828e-06
4.029583e-06
4.0339342e-06
4.032102e-06
3.9912273e-06
3.7782493e-06
2.9931145e-06
1.2093342e-06
1.9745293e-08
1.5984586e-09
1.9217884e-07
5.5925071e-07
7.3735886e-07
7.8730756e-07
7.9711333e-07
7.9765256e-07
7.9667531e-07
7.9581894e-07
7.9536987e-07
7.9536474e-07
7.9580412e-07
7.9665251e-07
7.976238e-07
7.9708022e-07
7.8727131e-07
7.373215e-07
5.5921913e-07
1.9216574e-07
1.5983085e-09
1.1792712e-10
2.7534571e-08
9.3967104e-08
1.292983e-07
1.3951764e-07
1.4156654e-07
1.4170009e-07
1.4151108e-07
1.4134058e-07
1.4125037e-07
1.4124921e-07
1.4133722e-07
1.4150592e-07
1.416936e-07
1.4155914e-07
1.3950971e-07
1.2929045e-07
9.3960957e-08
2.7532454e-08
1.1791493e-10
7.9376906e-12
3.5754835e-09
1.4282004e-08
2.0495838e-08
2.2346648e-08
2.2725231e-08
2.2753785e-08
2.2721815e-08
2.2692034e-08
2.2676135e-08
2.2675908e-08
2.2691376e-08
2.2720801e-08
2.2752508e-08
2.2723781e-08
2.2345115e-08
2.0494366e-08
1.4280929e-08
3.5751744e-09
7.9367842e-12
4.889313e-13
4.2309842e-10
1.9753462e-09
2.9550841e-09
3.255269e-09
3.3178644e-09
3.323222e-09
3.31844e-09
3.3138208e-09
3.3113319e-09
3.3112929e-09
3.3137079e-09
3.3182654e-09
3.3230015e-09
3.3176137e-09
3.2550052e-09
2.9548359e-09
1.9751752e-09
4.2305706e-10
4.8886894e-13
2.7659092e-14
4.5858954e-11
2.4999814e-10
3.8973129e-10
4.337388e-10
4.4308583e-10
4.4397788e-10
4.4333866e-10
4.4269544e-10
4.4234564e-10
4.4233975e-10
4.4267835e-10
4.4331211e-10
4.4394418e-10
4.4304734e-10
4.3369825e-10
3.8969358e-10
2.4997336e-10
4.5853871e-11
2.7655137e-14
1.4422595e-15
4.5739807e-12
2.9094177e-11
4.7253414e-11
5.3128575e-11
5.4398474e-11
5.4531498e-11
5.4454464e-11
5.4373299e-11
5.4328745e-11
5.4327954e-11
5.4370998e-11
5.4450872e-11
5.4526911e-11
5.4393201e-11
5.3122995e-11
4.7248248e-11
2.9090912e-11
4.573409e-12
1.4420297e-15
6.9560832e-17
4.2154719e-13
3.1270458e-12
5.2903947e-12
6.0090723e-12
6.167007e-12
6.1849183e-12
6.1764876e-12
6.1671338e-12
6.1619503e-12
6.1618548e-12
6.1668552e-12
6.176051e-12
6.1843575e-12
6.1663576e-12
6.0083806e-12
5.2897552e-12
3.126655e-12
4.2148857e-13
6.954866e-17
3.1130883e-18
3.6031028e-14
3.1158844e-13
5.4904942e-13
6.3001544e-13
6.4808859e-13
6.5028198e-13
6.4943919e-13
6.484482e-13
6.4789373e-13
6.4788324e-13
6.4841754e-13
6.4939096e-13
6.502197e-13
6.4801598e-13
6.2993763e-13
5.489775e-13
3.1154583e-13
3.6025542e-14
3.1124999e-18
1.2965664e-19
2.8655569e-15
2.8881251e-14
5.3001307e-14
6.1439083e-14
6.335051e-14
6.359634e-14
6.3519033e-14
6.3421984e-14
6.3367147e-14
6.3366086e-14
6.3418877e-14
6.351413e-14
6.3589979e-14
6.3343054e-14
6.143105e-14
5.2993889e-14
2.8876992e-14
2.8650856e-15
1.2963052e-19
5.0388525e-21
2.1267449e-16
2.4977178e-15
4.7734087e-15
5.5899015e-15
5.7774523e-15
5.8028073e-15
5.7962786e-15
5.7874529e-15
5.782415e-15
5.7823147e-15
5.787159e-15
5.7958137e-15
5.8022019e-15
5.7767397e-15
5.589131e-15
4.7726989e-15
2.4973232e-15
2.1263699e-16
5.0377773e-21
1.8316911e-22
1.4768482e-17
2.020822e-16
4.0216949e-16
4.7577489e-16
4.9290589e-16
4.9532397e-16
4.9481519e-16
4.9406695e-16
4.9363529e-16
4.9362634e-16
4.9404069e-16
4.9477355e-16
4.952696e-16
4.9284169e-16
4.7570534e-16
4.0210572e-16
2.0204793e-16
1.4765686e-17
1.8312762e-22
6.2417826e-24
9.6182191e-19
1.5332501e-17
3.1774296e-17
3.797387e-17
3.9434848e-17
3.9648962e-17
3.9612335e-17
3.9553002e-17
3.9518392e-17
3.9517632e-17
3.9550769e-17
3.9608786e-17
3.9644316e-17
3.9429348e-17
3.7967907e-17
3.1768864e-17
1.5329686e-17
9.6162494e-19
6.2402691e-24
1.9978543e-25
5.8872717e-20
1.093289e-18
2.3592247e-18
2.8483571e-18
2.9649981e-18
2.9826646e-18
2.9802294e-18
2.9758166e-18
2.9732124e-18
2.9731508e-18
2.9756353e-18
2.9799407e-18
2.9822855e-18
2.9645483e-18
2.8478694e-18
2.3587838e-18
1.093069e-18
5.8859531e-20
1.9973295e-25
6.0172732e-27
3.3933271e-21
7.3406948e-20
1.6494344e-19
2.0117593e-19
2.0991428e-19
2.112768e-19
2.1112761e-19
2.1081904e-19
2.1063473e-19
2.1062997e-19
2.1080503e-19
2.1110525e-19
2.1124735e-19
2.0987925e-19
2.0113792e-19
1.6490933e-19
7.339058e-20
3.3924877e-21
6.0155433e-27
1.7081467e-28
1.8449331e-22
4.649219e-21
1.087766e-20
1.3402688e-20
1.4018283e-20
1.4116777e-20
1.4108396e-20
1.4088068e-20
1.4075774e-20
1.4075426e-20
1.4087044e-20
1.4106756e-20
1.4114609e-20
1.4015695e-20
1.3399878e-20
1.0875157e-20
4.6480637e-21
1.8444263e-22
1.7076064e-28
4.5770197e-30
9.4767143e-24
2.7819563e-22
6.7773347e-22
8.4358797e-22
8.8444498e-22
8.9113452e-22
8.9070726e-22
8.8944346e-22
8.886692e-22
8.8864531e-22
8.8937292e-22
8.9059397e-22
8.9098419e-22
8.8426486e-22
8.4339203e-22
6.7756012e-22
2.7811865e-22
9.4738253e-24
4.575428e-30
1.1914919e-31
4.6054473e-25
1.5749589e-23
3.9951007e-23
5.0235838e-23
5.2794913e-23
5.3222693e-23
5.3203325e-23
5.312906e-23
5.3082959e-23
5.3081418e-23
5.3124505e-23
5.3195988e-23
5.3212918e-23
5.2783152e-23
5.0223015e-23
3.9939729e-23
1.5744769e-23
4.6038992e-25
1.1587526e-31
4.1250135e-33
2.1202205e-26
8.4469385e-25
2.2310293e-24
2.8340343e-24
2.9855322e-24
3.0113367e-24
3.0105922e-24
3.0064618e-24
3.0038632e-24
3.0037703e-24
3.0061867e-24
3.0101478e-24
3.0107423e-24
2.984814e-24
2.8332491e-24
2.2303425e-24
8.4441111e-25
2.1194363e-26
2.7771237e-33
1.7229157e-34
9.2574293e-28
4.2968532e-26
1.1816862e-25
1.5164053e-25
1.6012914e-25
1.6159989e-25
1.6157893e-25
1.6136125e-25
1.6122242e-25
1.6121719e-25
1.6134573e-25
1.6155379e-25
1.6156612e-25
1.6008816e-25
1.5159562e-25
1.1812955e-25
4.2953024e-26
9.2536905e-28
6.3056151e-35
7.410401e-36
3.8375846e-29
2.0753215e-27
5.9426709e-27
7.7038432e-27
8.1545675e-27
8.2338898e-27
8.2337963e-27
8.2229127e-27
8.2158761e-27
8.2156003e-27
8.2220936e-27
8.2324656e-27
8.2320964e-27
8.152383e-27
7.7014426e-27
5.9405934e-27
2.0745266e-27
3.8359131e-29
1.3577691e-36
3.0111418e-37
1.5118177e-30
9.5262884e-29
2.8402991e-28
3.7196473e-28
3.946696e-28
3.9872312e-28
3.9876603e-28
3.9824931e-28
3.9791058e-28
3.9789696e-28
3.9820883e-28
3.987001e-28
3.9863399e-28
3.9456065e-28
3.7184475e-28
2.8392665e-28
9.5224791e-29
1.5111178e-30
2.7751674e-38
1.1157515e-38
5.6648952e-32
4.1595501e-30
1.2913104e-29
1.7083605e-29
1.8169785e-29
1.8366285e-29
1.8370456e-29
1.834714e-29
1.8331638e-29
1.8331007e-29
1.8345262e-29
1.8367392e-29
1.8362131e-29
1.8164693e-29
1.7077989e-29
1.2908298e-29
4.1578412e-30
5.6621504e-32
5.3886391e-40
3.6857084e-40
2.020583e-33
1.729013e-31
5.5889052e-31
7.4694067e-31
7.9633283e-31
8.0537858e-31
8.0565805e-31
8.0465727e-31
8.0398232e-31
8.0395481e-31
8.0457535e-31
8.0552418e-31
8.0519673e-31
7.9610945e-31
7.4669405e-31
5.5868082e-31
1.7282943e-31
2.0195748e-33
9.9477121e-42
1.0461657e-41
6.8653389e-35
6.8468556e-33
2.3044358e-32
3.1112419e-32
3.3249141e-32
3.3644951e-32
3.3660673e-32
3.3619781e-32
3.3591797e-32
3.3590666e-32
3.3616412e-32
3.3655162e-32
3.3637456e-32
3.3239922e-32
3.110224e-32
2.3035763e-32
6.8440177e-33
6.8618737e-35
1.7470965e-43
2.2957323e-43
2.2234354e-36
2.5846745e-34
9.0578576e-34
1.2353893e-33
1.323392e-33
1.3398682e-33
1.3406559e-33
1.3390643e-33
1.3379587e-33
1.3379148e-33
1.3389334e-33
1.3404417e-33
1.3395768e-33
1.3230335e-33
1.2349937e-33
9.0545423e-34
2.5836204e-34
2.2223236e-36
2.9209563e-45
2.6527127e-45
6.8676916e-38
9.3066544e-36
3.3959508e-35
4.6789512e-35
5.0242491e-35
5.0895445e-35
5.0931514e-35
5.0872467e-35
5.0830813e-35
5.0829198e-35
5.0867652e-35
5.092364e-35
5.0884739e-35
5.0229327e-35
4.6775015e-35
3.3947457e-35
9.3029663e-36
6.8643819e-38
4.6513929e-47
2.9475556e-47
2.024143e-39
3.1979867e-37
1.215056e-36
1.69119e-36
1.8203428e-36
1.8449951e-36
1.8465259e-36
1.8444367e-36
1.8429394e-36
1.842883e-36
1.8442688e-36
1.8462516e-36
1.8446228e-36
1.8198859e-36
1.6906883e-36
1.2146426e-36
3.19677e-37
2.0232178e-39
7.058214e-49
3.1518777e-49
5.695085e-41
1.0491717e-38
4.1507439e-38
5.8362424e-38
6.296992e-38
6.3857191e-38
6.3917911e-38
6.3847382e-38
6.3796001e-38
6.3794132e-38
6.384182e-38
6.3908843e-38
6.384491e-38
6.2954902e-38
5.8346009e-38
4.149405e-38
1.0487928e-38
5.6926368e-41
1.0209991e-50
3.2459849e-51
1.530156e-42
3.287479e-40
1.3543093e-39
1.9237252e-39
2.0805808e-39
2.1110415e-39
2.1133057e-39
2.1110331e-39
2.1093491e-39
2.1092901e-39
2.1108578e-39
2.1130207e-39
2.1106568e-39
2.0801127e-39
1.9232168e-39
1.3538993e-39
3.2863639e-40
1.5295426e-42
1.4083199e-52
)
;

boundaryField
{
    Wall
    {
        type            zeroGradient;
    }
    frontAndBack
    {
        type            empty;
    }
    atmosphere
    {
        type            zeroGradient;
    }
}


// ************************************************************************* //
