/*--------------------------------*- C++ -*----------------------------------*\
| =========                 |                                                 |
| \\      /  F ield         | OpenFOAM: The Open Source CFD Toolbox           |
|  \\    /   O peration     | Version:  3.0.1                                 |
|   \\  /    A nd           | Web:      www.OpenFOAM.org                      |
|    \\/     M anipulation  |                                                 |
\*---------------------------------------------------------------------------*/
FoamFile
{
    version     2.0;
    format      ascii;
    class       volScalarField;
    location    "9";
    object      wCO2_l;
}
// * * * * * * * * * * * * * * * * * * * * * * * * * * * * * * * * * * * * * //

dimensions      [0 0 0 0 0 0 0];

internalField   nonuniform List<scalar> 
800
(
0.0029422473
0.002942092
0.0029420428
0.0029420118
0.0029419879
0.0029419693
0.0029419553
0.0029419453
0.0029419389
0.0029419357
0.0029419357
0.0029419389
0.0029419453
0.0029419553
0.0029419693
0.0029419879
0.0029420118
0.0029420428
0.002942092
0.0029422473
0.0034188275
0.0034187203
0.0034185895
0.0034184933
0.0034184273
0.0034183804
0.0034183474
0.0034183247
0.0034183103
0.0034183034
0.0034183034
0.0034183103
0.0034183247
0.0034183474
0.0034183804
0.0034184274
0.0034184934
0.0034185896
0.0034187204
0.0034188276
0.0039637237
0.0039727247
0.0039729287
0.0039729078
0.0039728611
0.0039728157
0.0039727776
0.0039727492
0.0039727307
0.0039727217
0.0039727218
0.0039727308
0.0039727493
0.0039727776
0.0039728158
0.0039728612
0.0039729079
0.0039729287
0.0039727247
0.0039637238
0.0018308152
0.0018546128
0.0018535383
0.0018522276
0.0018512025
0.0018504045
0.0018498178
0.0018494052
0.0018491426
0.001849015
0.0018490151
0.0018491429
0.0018494058
0.0018498186
0.0018504055
0.0018512035
0.0018522289
0.0018535396
0.0018546141
0.0018308167
0.00057101198
0.00061854398
0.00062307915
0.00062309962
0.0006225439
0.0006220219
0.00062162877
0.00062135266
0.0006211774
0.00062109215
0.00062109218
0.00062117749
0.00062135282
0.00062162899
0.00062202216
0.00062254415
0.00062309992
0.00062307936
0.00061854418
0.00057101229
0.00011455986
0.00016959023
0.00018243867
0.00018530827
0.00018575181
0.00018567803
0.00018554206
0.00018543249
0.00018536099
0.00018532602
0.00018532599
0.00018536091
0.00018543237
0.0001855419
0.00018567783
0.00018575153
0.00018530792
0.0001824382
0.00016958973
0.00011455951
1.3402568e-05
4.0019391e-05
4.9906933e-05
5.2621608e-05
5.3217682e-05
5.3291586e-05
5.3264296e-05
5.3229948e-05
5.3205866e-05
5.3193913e-05
5.3193882e-05
5.3205775e-05
5.3229806e-05
5.3264109e-05
5.3291351e-05
5.3217385e-05
5.2621243e-05
4.9906503e-05
4.0018976e-05
1.3402375e-05
1.3068993e-06
8.8627842e-06
1.3217661e-05
1.4602779e-05
1.4937628e-05
1.4994019e-05
1.4991287e-05
1.4980892e-05
1.4972974e-05
1.4968975e-05
1.4968956e-05
1.4972919e-05
1.4980807e-05
1.4991175e-05
1.499388e-05
1.4937458e-05
1.4602575e-05
1.3217435e-05
8.8625941e-06
1.3068564e-06
1.2728718e-07
1.8736721e-06
3.334093e-06
3.8613501e-06
3.9961345e-06
4.0208991e-06
4.0213574e-06
4.0182048e-06
4.0156461e-06
4.0143361e-06
4.0143273e-06
4.0156208e-06
4.0181656e-06
4.0213066e-06
4.0208374e-06
3.9960609e-06
3.8612645e-06
3.3340038e-06
1.8736081e-06
1.2728046e-07
1.2261369e-08
3.7053293e-07
7.8134528e-07
9.4750342e-07
9.9184714e-07
1.0003437e-06
1.0007138e-06
9.9980227e-07
9.990298e-07
9.9863e-07
9.9862668e-07
9.9902022e-07
9.9978747e-07
1.0006948e-06
1.0003211e-06
9.9182095e-07
9.474741e-07
7.8131663e-07
3.7051569e-07
1.226051e-08
1.1240273e-09
6.7337877e-08
1.67431e-07
2.1237075e-07
2.2481888e-07
2.272718e-07
2.2741219e-07
2.2717368e-07
2.2696477e-07
2.2685561e-07
2.2685454e-07
2.2696169e-07
2.2716893e-07
2.2740616e-07
2.2726475e-07
2.2481097e-07
2.1236226e-07
1.6742329e-07
6.7334016e-08
1.1239338e-09
9.5793087e-11
1.1160738e-08
3.2616933e-08
4.3240181e-08
4.6284569e-08
4.6898519e-08
4.6940145e-08
4.688507e-08
4.683532e-08
4.6809085e-08
4.6808791e-08
4.6834471e-08
4.6883763e-08
4.6938495e-08
4.6896621e-08
4.6282494e-08
4.3238053e-08
3.2615146e-08
1.1159995e-08
9.5784145e-11
7.5213808e-12
1.6863265e-09
5.7805596e-09
8.0050144e-09
8.6632678e-09
8.7988724e-09
8.8094161e-09
8.798241e-09
8.7878092e-09
8.7822563e-09
8.7821859e-09
8.7876057e-09
8.7979278e-09
8.8090221e-09
8.7984234e-09
8.6627875e-09
8.0045413e-09
5.7801921e-09
1.6861996e-09
7.5206076e-12
5.4334458e-13
2.3299202e-10
9.3553268e-10
1.3528219e-09
1.4801725e-09
1.5069476e-09
1.5092947e-09
1.5072908e-09
1.5053497e-09
1.5043065e-09
1.5042917e-09
1.505307e-09
1.507225e-09
1.5092119e-09
1.5068536e-09
1.4800734e-09
1.3527272e-09
9.3546421e-10
2.329723e-10
5.4328288e-13
3.6183455e-14
2.9565322e-11
1.3893338e-10
2.0974037e-10
2.3200832e-10
2.3678294e-10
2.3724821e-10
2.3692782e-10
2.3660409e-10
2.3642837e-10
2.3642565e-10
2.365962e-10
2.3691561e-10
2.372328e-10
2.3676543e-10
2.3198995e-10
2.097232e-10
1.3892169e-10
2.9562493e-11
3.6178871e-14
2.2282967e-15
3.4614436e-12
1.9025878e-11
2.998229e-11
3.3530895e-11
3.4306265e-11
3.4389153e-11
3.4343067e-11
3.4294194e-11
3.4267397e-11
3.426695e-11
3.4292896e-11
3.434105e-11
3.4386594e-11
3.4303346e-11
3.352783e-11
2.9979463e-11
1.9024045e-11
3.461068e-12
2.2279805e-15
1.2734252e-16
3.7555205e-13
2.4136675e-12
3.9703223e-12
4.4893209e-12
4.6047841e-12
4.6181588e-12
4.6121479e-12
4.6054105e-12
4.6016781e-12
4.6016123e-12
4.6052191e-12
4.6118492e-12
4.6177776e-12
4.6043464e-12
4.4888594e-12
3.9698991e-12
2.4134041e-12
3.7550613e-13
1.2732241e-16
6.7763804e-18
3.7912126e-14
2.8486052e-13
4.8911925e-13
5.5919538e-13
5.750549e-13
5.7702369e-13
5.763082e-13
5.7545365e-13
5.7497522e-13
5.7496645e-13
5.7542809e-13
5.7626814e-13
5.7697227e-13
5.7499545e-13
5.5913233e-13
4.8906158e-13
2.8482589e-13
3.7906968e-14
6.7752049e-18
3.3685876e-19
3.5741889e-15
3.1394735e-14
5.6272298e-14
6.5051683e-14
6.7071189e-14
6.7337302e-14
6.7259187e-14
6.7158818e-14
6.7102012e-14
6.7100942e-14
6.7155692e-14
6.7254269e-14
6.7330955e-14
6.7063803e-14
6.5043803e-14
5.6265101e-14
3.1390557e-14
3.5736564e-15
3.3679562e-19
1.5689927e-20
3.1572641e-16
3.242141e-15
6.0667573e-15
7.0918141e-15
7.33127e-15
7.3644912e-15
7.3566413e-15
7.3456654e-15
7.3393831e-15
7.3392619e-15
7.3453105e-15
7.3560814e-15
7.3637652e-15
7.3304207e-15
7.0909036e-15
6.0659273e-15
3.2416752e-15
3.1567558e-16
1.5686791e-20
6.8660584e-22
2.6210847e-17
3.1469426e-16
6.148074e-16
7.2677242e-16
7.5331346e-16
7.5716369e-16
7.5643621e-16
7.5531346e-16
7.5466326e-16
7.5465033e-16
7.5527558e-16
7.5637628e-16
7.5708573e-16
7.5322187e-16
7.2667392e-16
6.1471793e-16
3.1464577e-16
2.6206319e-17
6.8646035e-22
2.8300625e-23
2.0505264e-18
2.8789018e-17
5.8728119e-17
7.0207832e-17
7.2967239e-17
7.3383395e-17
7.3321213e-17
7.3213358e-17
7.3150125e-17
7.3148814e-17
7.3209511e-17
7.3315114e-17
7.3375437e-17
7.2957861e-17
7.019773e-17
5.8718994e-17
2.8784251e-17
2.0501457e-18
2.8294255e-23
1.1012364e-24
1.5154089e-19
2.4884494e-18
5.3010714e-18
6.4092065e-18
6.6791352e-18
6.7212526e-18
6.7163623e-18
6.7065993e-18
6.700801e-18
6.7006734e-18
6.7062248e-18
6.7157671e-18
6.720474e-18
6.6782154e-18
6.4082153e-18
5.3001826e-18
2.4880028e-18
1.5151043e-19
1.1009709e-24
4.0538611e-26
1.0603314e-20
2.0369242e-19
4.5318342e-19
5.5416134e-19
5.7907322e-19
5.8307849e-19
5.8272689e-19
5.8189174e-19
5.8138894e-19
5.8137701e-19
5.8185669e-19
5.8267107e-19
5.8300525e-19
5.7898649e-19
5.5406786e-19
4.5310029e-19
2.0365231e-19
1.0600981e-20
4.0528015e-26
1.4144586e-27
7.0384945e-22
1.5821743e-20
3.6767806e-20
4.5474866e-20
4.7649344e-20
4.8008362e-20
4.7985573e-20
4.7917891e-20
4.7876557e-20
4.7875488e-20
4.7914745e-20
4.7980551e-20
4.8001752e-20
4.7641495e-20
4.5466403e-20
3.6760344e-20
1.5818289e-20
7.0367832e-22
1.4140539e-27
4.6860103e-29
4.440636e-23
1.1683582e-21
2.8363133e-21
3.5482866e-21
3.7281969e-21
3.7586132e-21
3.7573224e-21
3.7521148e-21
3.7488868e-21
3.7487954e-21
3.7518454e-21
3.7568911e-21
3.7580435e-21
3.7275183e-21
3.5475543e-21
2.8356728e-21
1.1680738e-21
4.4394366e-23
4.684535e-29
1.4763953e-30
2.6672816e-24
8.2163155e-23
2.0838714e-22
2.6370288e-22
2.7784053e-22
2.8028205e-22
2.8022326e-22
2.7984214e-22
2.7960221e-22
2.795948e-22
2.7982025e-22
2.801881e-22
2.8023543e-22
2.7778479e-22
2.6364262e-22
2.0833483e-22
8.214088e-23
2.6664819e-24
1.4758843e-30
4.5352611e-32
1.5276356e-25
5.5110113e-24
1.4604655e-23
1.8695316e-23
1.9752391e-23
1.9938482e-23
1.9937004e-23
1.991043e-23
1.9893431e-23
1.9892862e-23
1.9908747e-23
1.9934294e-23
1.9934874e-23
1.9748059e-23
1.8690623e-23
1.460061e-23
5.5093583e-24
1.5271304e-25
4.4285528e-32
1.8935979e-33
8.3543589e-27
3.5306579e-25
9.7775927e-25
1.2661596e-24
1.3414877e-24
1.3549818e-24
1.3550675e-24
1.3532995e-24
1.3521498e-24
1.3521086e-24
1.3531775e-24
1.3548705e-24
1.3547184e-24
1.3411701e-24
1.2658148e-24
9.7746391e-25
3.5294992e-25
8.3513102e-27
1.2673083e-33
9.668742e-35
4.3683053e-28
2.1632999e-26
6.2612159e-26
8.2025161e-26
8.7148839e-26
8.8081402e-26
8.8099202e-26
8.7986817e-26
8.7912503e-26
8.7909691e-26
8.7978482e-26
8.8085697e-26
8.806328e-26
8.7126899e-26
8.200128e-26
6.2591837e-26
2.162534e-26
4.366556e-28
3.4630203e-35
5.1119882e-36
2.1864461e-29
1.2692177e-27
3.839655e-27
5.0889567e-27
5.4220588e-27
5.4835778e-27
5.4854543e-27
5.4786209e-27
5.4740238e-27
5.4738427e-27
5.4780834e-27
5.4845813e-27
5.4824021e-27
5.4206299e-27
5.087398e-27
3.8383371e-27
1.2687404e-27
2.1854955e-29
9.0464893e-37
2.565851e-37
1.048746e-30
7.138302e-29
2.2574214e-28
3.0270038e-28
3.2342516e-28
3.2730451e-28
3.2746275e-28
3.2706484e-28
3.2679239e-28
3.2678137e-28
3.2703209e-28
3.2740943e-28
3.2723248e-28
3.2333732e-28
3.0260438e-28
2.2566152e-28
7.1354967e-29
1.0482575e-30
2.2616216e-38
1.1818893e-38
4.8256002e-32
3.8524576e-30
1.2736895e-29
1.7279958e-29
1.8515399e-29
1.8749549e-29
1.876128e-29
1.8739068e-29
1.8723581e-29
1.8722946e-29
1.8737179e-29
1.8758196e-29
1.8745373e-29
1.8510293e-29
1.727437e-29
1.2732235e-29
3.8509003e-30
4.8232272e-32
5.4163042e-40
4.8907927e-40
2.1320277e-33
1.9969931e-31
6.9032785e-31
9.4760587e-31
1.0182436e-30
1.0317869e-30
1.0325801e-30
1.0313904e-30
1.0305452e-30
1.0305104e-30
1.0312869e-30
1.0324109e-30
1.0315573e-30
1.0179623e-30
9.4729786e-31
6.9007297e-31
1.9961752e-31
2.1309382e-33
1.2437308e-41
1.7544468e-41
9.0526439e-35
9.9515865e-33
3.5972301e-32
4.9962901e-32
5.3840485e-32
5.4591983e-32
5.4641802e-32
5.4580603e-32
5.4536275e-32
5.4534463e-32
5.4575204e-32
5.4632974e-32
5.4579987e-32
5.3825768e-32
4.9946791e-32
3.595908e-32
9.9475154e-33
9.0479232e-35
2.7406784e-43
4.918787e-43
3.6970166e-36
4.7713201e-34
1.8036582e-33
2.5348605e-33
2.7394059e-33
2.7794496e-33
2.7823877e-33
2.7793617e-33
2.7771256e-33
2.7770355e-33
2.7790932e-33
2.7819485e-33
2.7788527e-33
2.7386733e-33
2.5340595e-33
1.8030067e-33
4.769396e-34
3.6950941e-36
5.8001492e-45
7.3309133e-45
1.4532684e-37
2.2026349e-35
8.7084281e-35
1.2384341e-34
1.3422077e-34
1.3627166e-34
1.3643548e-34
1.3629156e-34
1.3618296e-34
1.3617868e-34
1.3627879e-34
1.3641461e-34
1.3624331e-34
1.3418601e-34
1.2380547e-34
8.7053722e-35
2.2017701e-35
1.4525393e-37
1.1797361e-46
1.0618381e-46
5.5025389e-39
9.7972919e-37
4.0515998e-36
5.8305012e-36
6.3372496e-36
6.4382951e-36
6.4469722e-36
6.4403832e-36
6.4353024e-36
6.4351073e-36
6.4398022e-36
6.4460232e-36
6.4370079e-36
6.3356742e-36
5.8287876e-36
4.0502338e-36
9.793591e-37
5.4999238e-39
2.3077192e-48
1.4928348e-48
2.0080551e-40
4.2014975e-38
1.8175733e-37
2.6468652e-37
2.8852204e-37
2.9331506e-37
2.9375323e-37
2.9346268e-37
2.9323349e-37
2.9322496e-37
2.934373e-37
2.9371186e-37
2.9325908e-37
2.8845375e-37
2.646126e-37
1.8169907e-37
4.1999872e-38
2.0071577e-40
4.3439625e-50
2.0367134e-50
7.0667949e-42
1.7381363e-39
7.8666361e-39
1.1593311e-38
1.2673969e-38
1.2893027e-38
1.2914182e-38
1.2901834e-38
1.289186e-38
1.2891501e-38
1.2900769e-38
1.2912449e-38
1.2890691e-38
1.2671132e-38
1.159026e-38
7.8642628e-39
1.7375478e-39
7.063848e-42
7.8725034e-52
)
;

boundaryField
{
    Wall
    {
        type            zeroGradient;
    }
    frontAndBack
    {
        type            empty;
    }
    atmosphere
    {
        type            zeroGradient;
    }
}


// ************************************************************************* //
