/*--------------------------------*- C++ -*----------------------------------*\
| =========                 |                                                 |
| \\      /  F ield         | OpenFOAM: The Open Source CFD Toolbox           |
|  \\    /   O peration     | Version:  3.0.1                                 |
|   \\  /    A nd           | Web:      www.OpenFOAM.org                      |
|    \\/     M anipulation  |                                                 |
\*---------------------------------------------------------------------------*/
FoamFile
{
    version     2.0;
    format      ascii;
    class       volScalarField;
    location    "9";
    object      wCO2_g;
}
// * * * * * * * * * * * * * * * * * * * * * * * * * * * * * * * * * * * * * //

dimensions      [0 0 0 0 0 0 0];

internalField   nonuniform List<scalar> 
800
(
0.0020170229
0.0020168912
0.0020168391
0.0020168115
0.0020167904
0.0020167736
0.0020167608
0.0020167516
0.0020167456
0.0020167427
0.0020167427
0.0020167456
0.0020167516
0.0020167608
0.0020167736
0.0020167904
0.0020168115
0.0020168391
0.0020168911
0.0020170229
0.0013082943
0.0013105136
0.0013112234
0.0013116835
0.0013120086
0.001312244
0.0013124126
0.0013125293
0.0013126029
0.0013126386
0.0013126386
0.0013126029
0.0013125292
0.0013124125
0.0013122439
0.0013120084
0.0013116834
0.0013112233
0.0013105135
0.0013082941
0.00067063471
0.0006749252
0.00067528669
0.00067544029
0.00067551842
0.00067556252
0.00067558799
0.00067560331
0.00067561225
0.00067561645
0.00067561645
0.00067561222
0.00067560327
0.00067558794
0.00067556247
0.00067551835
0.00067544021
0.0006752866
0.0006749251
0.0006706346
0.00020092023
0.00020304695
0.00020295946
0.00020283809
0.00020273336
0.00020264746
0.0002025823
0.00020253573
0.00020250583
0.00020249127
0.00020249129
0.00020250587
0.00020253578
0.00020258238
0.00020264755
0.00020273346
0.00020283822
0.00020295959
0.00020304708
0.00020092038
4.5192389e-05
4.8185041e-05
4.8474863e-05
4.8466797e-05
4.8418011e-05
4.8372194e-05
4.8337297e-05
4.8312603e-05
4.8296866e-05
4.8289204e-05
4.8289208e-05
4.8296876e-05
4.8312619e-05
4.833732e-05
4.8372221e-05
4.8418038e-05
4.8466832e-05
4.8474893e-05
4.8185072e-05
4.5192429e-05
6.8269139e-06
9.8454855e-06
1.0598544e-05
1.0775665e-05
1.0803552e-05
1.0798172e-05
1.0788712e-05
1.078107e-05
1.0776067e-05
1.0773619e-05
1.0773618e-05
1.0776064e-05
1.0781065e-05
1.0788706e-05
1.0798164e-05
1.080354e-05
1.0775651e-05
1.0598524e-05
9.8454657e-06
6.8269027e-06
5.9841738e-07
1.7664852e-06
2.2297455e-06
2.3630168e-06
2.3930627e-06
2.3967655e-06
2.3952651e-06
2.3934061e-06
2.3921005e-06
2.3914522e-06
2.391451e-06
2.3920969e-06
2.3934005e-06
2.3952576e-06
2.396756e-06
2.3930506e-06
2.3630024e-06
2.2297287e-06
1.7664697e-06
5.9841077e-07
4.3492408e-08
3.0552835e-07
4.6894642e-07
5.235013e-07
5.3703648e-07
5.3934766e-07
5.3923421e-07
5.3880114e-07
5.3846985e-07
5.3830241e-07
5.3830177e-07
5.3846797e-07
5.3879821e-07
5.3923037e-07
5.393429e-07
5.3703065e-07
5.2349445e-07
4.6893903e-07
3.0552245e-07
4.3491208e-08
3.2552591e-09
5.2405975e-08
9.7308867e-08
1.1432992e-07
1.1878485e-07
1.196169e-07
1.1963715e-07
1.195344e-07
1.1945011e-07
1.1940688e-07
1.1940663e-07
1.1944938e-07
1.1953326e-07
1.1963568e-07
1.196151e-07
1.1878271e-07
1.1432748e-07
9.7306399e-08
5.2404318e-08
3.2551073e-09
2.5521176e-10
8.7575652e-09
1.940893e-08
2.391722e-08
2.5143835e-08
2.5382137e-08
2.5394166e-08
2.5369911e-08
2.5349056e-08
2.5338237e-08
2.5338155e-08
2.5348817e-08
2.5369541e-08
2.539369e-08
2.538157e-08
2.514318e-08
2.3916497e-08
1.9408245e-08
8.7571813e-09
2.5519541e-10
2.022852e-11
1.3952599e-09
3.6470471e-09
4.6977668e-09
4.9928123e-09
5.0514612e-09
5.0551363e-09
5.0497085e-09
5.0448911e-09
5.0423691e-09
5.0423456e-09
5.0448234e-09
5.0496039e-09
5.0550031e-09
5.0513056e-09
4.9926378e-09
4.697582e-09
3.646884e-09
1.3951837e-09
2.0226944e-11
1.5684509e-12
2.0912844e-10
6.3891581e-10
8.5792059e-10
9.211296e-10
9.3390997e-10
9.3481171e-10
9.3369905e-10
9.3268597e-10
9.3215116e-10
9.3214534e-10
9.3266915e-10
9.3367313e-10
9.3477895e-10
9.3387225e-10
9.2108844e-10
8.5787879e-10
6.3888157e-10
2.0911506e-10
1.5683118e-12
1.1661459e-13
2.9322819e-11
1.0401306e-10
1.4528555e-10
1.5749901e-10
1.60006e-10
1.6020041e-10
1.5999432e-10
1.5980189e-10
1.5969947e-10
1.596982e-10
1.597982e-10
1.5998863e-10
1.6019325e-10
1.5999784e-10
1.5749029e-10
1.4527702e-10
1.0400656e-10
2.9320687e-11
1.166031e-13
8.2315814e-15
3.8419915e-12
1.5745511e-11
2.2841326e-11
2.4991019e-11
2.5438752e-11
2.5476674e-11
2.5442201e-11
2.5409115e-11
2.5391362e-11
2.5391113e-11
2.5408396e-11
2.5441091e-11
2.5475276e-11
2.5437165e-11
2.4989344e-11
2.2839734e-11
1.5744373e-11
3.8416757e-12
8.2306798e-15
5.4934514e-16
4.7092452e-13
2.2216978e-12
3.3431249e-12
3.6906022e-12
3.7640262e-12
3.7707927e-12
3.7655586e-12
3.7603762e-12
3.7575723e-12
3.7575291e-12
3.7602508e-12
3.7653644e-12
3.7705473e-12
3.7637473e-12
3.6903094e-12
3.3428517e-12
2.2215127e-12
4.7088055e-13
5.4927761e-16
3.4621046e-17
5.4111166e-14
2.9306346e-13
4.5702107e-13
5.0894757e-13
5.2007756e-13
5.2118776e-13
5.2046145e-13
5.1971647e-13
5.1931002e-13
5.1930324e-13
5.1969679e-13
5.2043085e-13
5.211489e-13
5.200332e-13
5.0890092e-13
4.5697794e-13
2.9303541e-13
5.4105414e-14
3.4616251e-17
2.0612999e-18
5.8425947e-15
3.6249994e-14
5.8544784e-14
6.5758457e-14
6.7326351e-14
6.7494497e-14
6.740176e-14
6.7302777e-14
6.7248317e-14
6.7247356e-14
6.7299978e-14
6.7397389e-14
6.7488913e-14
6.7319934e-14
6.5751673e-14
5.8538528e-14
3.6246053e-14
5.8418917e-15
2.0609803e-18
1.1608019e-19
5.9426112e-16
4.2168623e-15
7.0492271e-15
7.9851266e-15
8.1913044e-15
8.2149021e-15
8.2039419e-15
8.1917099e-15
8.1849229e-15
8.1847981e-15
8.1913459e-15
8.2033711e-15
8.2141687e-15
8.1904553e-15
7.9842227e-15
7.0483926e-15
4.2163504e-15
5.9418127e-16
1.1606034e-19
6.1924406e-21
5.7074911e-17
4.6258082e-16
8.0006378e-16
9.1390779e-16
9.3931345e-16
9.423941e-16
9.4118898e-16
9.3977546e-16
9.3898447e-16
9.389695e-16
9.3973173e-16
9.4112016e-16
9.4230518e-16
9.3920981e-16
9.1379667e-16
7.9996097e-16
4.6251922e-16
5.7066486e-17
6.1912925e-21
3.1346574e-22
5.1880602e-18
4.7972778e-17
8.5814845e-17
9.8842721e-17
1.0178604e-16
1.0216159e-16
1.020378e-16
1.0188434e-16
1.0179773e-16
1.0179605e-16
1.0187943e-16
1.0203004e-16
1.0215152e-16
1.0177423e-16
9.8829993e-17
8.5803049e-17
4.7965873e-17
5.1872304e-18
3.1340362e-22
1.5083275e-23
4.47296e-19
4.7143102e-18
8.7193548e-18
1.01261e-17
1.0447653e-17
1.0490562e-17
1.0478643e-17
1.046293e-17
1.0453983e-17
1.0453804e-17
1.0462408e-17
1.0477816e-17
1.0489485e-17
1.0446384e-17
1.0124725e-17
8.7180804e-18
4.7135819e-18
4.4721908e-19
1.5080103e-23
6.9106338e-25
3.6651694e-20
4.3993198e-19
8.4107354e-19
9.8478408e-19
1.0179993e-18
1.0226102e-18
1.0215315e-18
1.020009e-18
1.019134e-18
1.0191159e-18
1.0199557e-18
1.021447e-18
1.0224997e-18
1.0178689e-18
9.8464235e-19
8.4094239e-19
4.3985895e-19
3.6644913e-20
6.9090895e-25
3.019723e-26
2.8597078e-21
3.9061857e-20
7.7175236e-20
9.1098112e-20
9.4350059e-20
9.4817477e-20
9.4725571e-20
9.4585545e-20
9.4504311e-20
9.4502525e-20
9.4580302e-20
9.4717233e-20
9.4806554e-20
9.4337118e-20
9.1084035e-20
7.716226e-20
3.9054827e-20
2.8591344e-21
3.0189999e-26
1.2604233e-27
2.1283348e-22
3.3060546e-21
6.748604e-21
8.030561e-21
8.3329908e-21
8.3778217e-21
8.3704396e-21
8.3581872e-21
8.3510087e-21
8.3508388e-21
8.3576876e-21
8.3696434e-21
8.3767757e-21
8.3317484e-21
8.0292085e-21
6.7473634e-21
3.3054017e-21
2.1278674e-22
1.2600961e-27
5.0326678e-29
1.5134087e-23
2.6716911e-22
5.6334836e-22
6.7575052e-22
7.0252079e-22
7.0659947e-22
7.0604032e-22
7.050181e-22
7.0441308e-22
7.0439747e-22
7.0497216e-22
7.0596691e-22
7.0650273e-22
7.0240556e-22
6.7562495e-22
5.6323378e-22
2.6711061e-22
1.5130411e-23
5.0312368e-29
1.9248795e-30
1.0297366e-24
2.0646928e-23
4.4962006e-23
5.436381e-23
5.662338e-23
5.6976191e-23
5.6936282e-23
5.6854817e-23
5.6806094e-23
5.6804717e-23
5.6850761e-23
5.6929784e-23
5.6967596e-23
5.6613107e-23
5.4352597e-23
4.4951825e-23
2.0641884e-23
1.0294584e-24
1.9242766e-30
7.0612699e-32
6.713625e-26
1.5280608e-24
3.435949e-24
4.1873928e-24
4.3695623e-24
4.3986402e-24
4.3959616e-24
4.38975e-24
4.3859951e-24
4.3858793e-24
4.3894082e-24
4.3954124e-24
4.3979109e-24
4.3686872e-24
4.1864356e-24
3.4350835e-24
1.5276446e-24
6.7116097e-26
7.0588373e-32
2.5253779e-33
4.1996368e-27
1.0844722e-25
2.5174454e-25
3.0922048e-25
3.2327041e-25
3.2555817e-25
3.2538981e-25
3.2493601e-25
3.2465873e-25
3.2464947e-25
3.2490865e-25
3.2534571e-25
3.2549936e-25
3.2319955e-25
3.0914274e-25
2.5167449e-25
1.0841451e-25
4.1982448e-27
2.4864828e-33
1.0578308e-34
2.5235567e-28
7.3896362e-27
1.7706102e-26
2.1919027e-26
2.2957132e-26
2.3129251e-26
2.3119418e-26
2.3087612e-26
2.3067968e-26
2.3067266e-26
2.3085536e-26
2.3116061e-26
2.3124757e-26
2.2951693e-26
2.1913042e-26
1.7700725e-26
7.3871961e-27
2.5226357e-28
8.4198331e-35
5.0908196e-36
1.4582941e-29
4.8400549e-28
1.1968342e-27
1.4931446e-27
1.5667223e-27
1.5791246e-27
1.5785987e-27
1.5764576e-27
1.5751208e-27
1.5750705e-27
1.5763084e-27
1.5783568e-27
1.5787996e-27
1.5663272e-27
1.4927083e-27
1.1964434e-27
4.8383298e-28
1.4577128e-29
2.7436825e-36
2.6298977e-37
8.1125483e-31
3.0504282e-29
7.7831701e-29
9.7852947e-29
1.0286158e-28
1.0371871e-28
1.036937e-28
1.0355511e-28
1.0346766e-28
1.0346424e-28
1.0354496e-28
1.036772e-28
1.0369644e-28
1.0283441e-28
9.7822846e-29
7.7804812e-29
3.0492732e-29
8.1090633e-31
8.611757e-38
1.3624433e-38
4.3487846e-32
1.8517544e-30
4.8744094e-30
6.1754613e-30
6.5032909e-30
6.560179e-30
6.5592005e-30
6.5505659e-30
6.5450593e-30
6.5448385e-30
6.54991e-30
6.5581317e-30
6.5587327e-30
6.5015194e-30
6.1734936e-30
4.8726568e-30
1.8510216e-30
4.3468016e-32
2.6059242e-39
6.7489157e-40
2.2483632e-33
1.0837212e-31
2.9426091e-31
3.7565665e-31
3.963098e-31
3.9994017e-31
3.9991721e-31
3.9939892e-31
3.9906488e-31
3.9905134e-31
3.9935865e-31
3.9985145e-31
3.9985094e-31
3.9620017e-31
3.755346e-31
2.9415255e-31
1.0832803e-31
2.2472925e-33
7.6085029e-41
3.0844755e-41
1.12206e-34
6.1197848e-33
1.7138133e-32
2.2045238e-32
2.3298829e-32
2.3521832e-32
2.3522635e-32
2.3492636e-32
2.3473096e-32
2.3472304e-32
2.3490279e-32
2.3518782e-32
2.3516592e-32
2.3292376e-32
2.2038042e-32
1.7131767e-32
6.1172644e-33
1.1215113e-34
2.1450284e-42
1.2436959e-42
5.409475e-36
3.3372362e-34
9.6375178e-34
1.2490839e-33
1.322459e-33
1.3356579e-33
1.3358255e-33
1.3341497e-33
1.3330465e-33
1.3330023e-33
1.334018e-33
1.3356099e-33
1.3353643e-33
1.322097e-33
1.2486798e-33
9.633958e-34
3.3358651e-34
5.4068065e-36
5.843449e-44
3.9709789e-44
2.5211502e-37
1.7587118e-35
5.2367872e-35
6.8383202e-35
7.252827e-35
7.3281686e-35
7.3297558e-35
7.3207135e-35
7.3146978e-35
7.3144613e-35
7.3200089e-35
7.3286021e-35
7.3265968e-35
7.2508873e-35
6.8361556e-35
5.2348891e-35
1.7580008e-35
2.5199211e-37
1.5391957e-45
6.9219051e-46
1.1366837e-38
8.9631801e-37
2.7514921e-36
3.6198841e-36
3.846059e-36
3.8875716e-36
3.8887666e-36
3.8840508e-36
3.8808795e-36
3.8807581e-36
3.8836892e-36
3.8881748e-36
3.8867657e-36
3.8450648e-36
3.6187759e-36
2.7505254e-36
8.9596597e-37
1.1361501e-38
3.9225993e-47
1.1876408e-47
4.9607958e-40
4.4204901e-38
1.3988142e-37
1.8540153e-37
1.9733061e-37
1.9954026e-37
1.9961966e-37
1.9938175e-37
1.9922002e-37
1.9921403e-37
1.9936392e-37
1.995905e-37
1.9950061e-37
1.9728178e-37
1.8534722e-37
1.3983434e-37
4.4188244e-38
4.9585882e-40
9.6773325e-49
2.0126066e-49
2.0969068e-41
2.1109466e-39
6.8850008e-39
9.1933063e-39
9.801897e-39
9.915608e-39
9.9204489e-39
9.9088326e-39
9.9008475e-39
9.9005627e-39
9.9079857e-39
9.9190668e-39
9.9137333e-39
9.7995959e-39
9.1907561e-39
6.8828056e-39
2.1101923e-39
2.0960301e-41
2.3123571e-50
3.3810185e-51
8.5889351e-43
9.7659752e-41
3.282788e-40
4.415881e-40
4.7164181e-40
4.7730366e-40
4.7757983e-40
4.7703053e-40
4.7664862e-40
4.7663556e-40
4.7699174e-40
4.7751668e-40
4.7721831e-40
4.7153753e-40
4.4147318e-40
3.2818072e-40
9.762703e-41
8.5855919e-43
5.3537384e-52
)
;

boundaryField
{
    Wall
    {
        type            zeroGradient;
    }
    frontAndBack
    {
        type            empty;
    }
    atmosphere
    {
        type            zeroGradient;
    }
}


// ************************************************************************* //
