/*--------------------------------*- C++ -*----------------------------------*\
| =========                 |                                                 |
| \\      /  F ield         | OpenFOAM: The Open Source CFD Toolbox           |
|  \\    /   O peration     | Version:  3.0.1                                 |
|   \\  /    A nd           | Web:      www.OpenFOAM.org                      |
|    \\/     M anipulation  |                                                 |
\*---------------------------------------------------------------------------*/
FoamFile
{
    version     2.0;
    format      ascii;
    class       volScalarField;
    location    "8";
    object      M2;
}
// * * * * * * * * * * * * * * * * * * * * * * * * * * * * * * * * * * * * * //

dimensions      [0 0 0 0 0 0 0];

internalField   nonuniform List<scalar> 
800
(
4.5661252e-14
4.5655693e-14
4.5653867e-14
4.5653177e-14
4.5652708e-14
4.5652341e-14
4.5652066e-14
4.5651872e-14
4.5651747e-14
4.5651686e-14
4.5651686e-14
4.5651747e-14
4.5651871e-14
4.5652067e-14
4.5652342e-14
4.5652708e-14
4.5653178e-14
4.5653868e-14
4.5655693e-14
4.5661253e-14
2.1659296e-14
2.1705408e-14
2.1719412e-14
2.1728456e-14
2.1734521e-14
2.1738736e-14
2.1741664e-14
2.1743649e-14
2.1744885e-14
2.1745479e-14
2.1745479e-14
2.1744884e-14
2.1743646e-14
2.1741661e-14
2.1738733e-14
2.1734517e-14
2.1728451e-14
2.1719408e-14
2.1705402e-14
2.1659291e-14
7.865344e-15
7.9474668e-15
7.9535598e-15
7.9566104e-15
7.9582233e-15
7.9591647e-15
7.9597369e-15
7.9600962e-15
7.9603114e-15
7.9604135e-15
7.9604135e-15
7.960311e-15
7.9600953e-15
7.9597359e-15
7.9591635e-15
7.9582218e-15
7.9566086e-15
7.953558e-15
7.9474647e-15
7.8653418e-15
1.5636941e-15
1.5871116e-15
1.58554e-15
1.5840026e-15
1.5828009e-15
1.5818406e-15
1.5811295e-15
1.5806272e-15
1.5803066e-15
1.5801507e-15
1.5801509e-15
1.5803071e-15
1.5806279e-15
1.5811305e-15
1.5818419e-15
1.5828023e-15
1.5840044e-15
1.5855418e-15
1.5871135e-15
1.5636961e-15
2.1234786e-16
2.3933664e-16
2.4263099e-16
2.4284814e-16
2.4261392e-16
2.4236443e-16
2.4217318e-16
2.4203847e-16
2.4195298e-16
2.4191142e-16
2.4191144e-16
2.4195303e-16
2.4203856e-16
2.421733e-16
2.4236458e-16
2.4261406e-16
2.4284832e-16
2.4263113e-16
2.3933677e-16
2.1234807e-16
1.9577385e-17
3.34078e-17
3.6901521e-17
3.7639556e-17
3.7736895e-17
3.7713261e-17
3.767918e-17
3.7652888e-17
3.7635976e-17
3.7627753e-17
3.7627747e-17
3.7635956e-17
3.7652857e-17
3.7679139e-17
3.7713207e-17
3.7736818e-17
3.7639458e-17
3.6901389e-17
3.340766e-17
1.9577298e-17
1.2785087e-18
4.557005e-18
5.8656615e-18
6.1973564e-18
6.2584195e-18
6.2619206e-18
6.256679e-18
6.2517996e-18
6.248569e-18
6.2469922e-18
6.246988e-18
6.2485564e-18
6.2517799e-18
6.2566529e-18
6.2618875e-18
6.2583764e-18
6.1973022e-18
5.8655962e-18
4.5569431e-18
1.2784853e-18
8.0722526e-20
6.2715761e-19
9.5183191e-19
1.0450752e-18
1.0637862e-18
1.0657474e-18
1.0648947e-18
1.0639303e-18
1.0632738e-18
1.0629517e-18
1.0629501e-18
1.0632694e-18
1.0639234e-18
1.0648856e-18
1.0657361e-18
1.063772e-18
1.0450578e-18
9.5181215e-19
6.2714139e-19
8.0719586e-20
5.2600295e-21
8.5440532e-20
1.5183928e-19
1.7298073e-19
1.774169e-19
1.77952e-19
1.7780421e-19
1.776114e-19
1.7747731e-19
1.7741109e-19
1.7741066e-19
1.7747606e-19
1.7760946e-19
1.778017e-19
1.7794895e-19
1.7741321e-19
1.7297634e-19
1.5183456e-19
8.5437223e-20
5.259745e-21
3.5057844e-22
1.1300157e-20
2.3271889e-20
2.7436882e-20
2.8338055e-20
2.8453545e-20
2.8428072e-20
2.8391454e-20
2.8365546e-20
2.8352663e-20
2.8352559e-20
2.8365243e-20
2.8390987e-20
2.8427475e-20
2.8452837e-20
2.8337229e-20
2.7435939e-20
2.3270938e-20
1.1299589e-20
3.5055439e-22
2.3498821e-23
1.4359089e-21
3.393955e-21
4.1305087e-21
4.2938423e-21
4.3156069e-21
4.31149e-21
4.3050841e-21
4.3004804e-21
4.2981745e-21
4.2981522e-21
4.3004159e-21
4.3049848e-21
4.3113647e-21
4.3154614e-21
4.2936785e-21
4.13033e-21
3.3937867e-21
1.4358234e-21
2.3496957e-23
1.5620719e-24
1.745841e-22
4.6988867e-22
5.8909948e-22
6.1611376e-22
6.1983493e-22
6.1922761e-22
6.1820159e-22
6.1745281e-22
6.1707504e-22
6.1707079e-22
6.1744052e-22
6.1818269e-22
6.192039e-22
6.1980782e-22
6.160841e-22
5.8906855e-22
4.6986154e-22
1.7457235e-22
1.5619345e-24
1.0191728e-25
2.0288528e-23
6.1806864e-23
7.9698202e-23
8.3835196e-23
8.4423444e-23
8.4342289e-23
8.4191113e-23
8.4079057e-23
8.402212e-23
8.4021387e-23
8.407694e-23
8.4187857e-23
8.4338208e-23
8.4418813e-23
8.3830225e-23
7.9693201e-23
6.180276e-23
2.0287003e-23
1.0190738e-25
6.4795363e-27
2.2540888e-24
7.7379873e-24
1.025111e-23
1.0843588e-23
1.0930488e-23
1.0920679e-23
1.0900027e-23
1.0884474e-23
1.0876517e-23
1.0876402e-23
1.0884142e-23
1.0899516e-23
1.0920037e-23
1.092976e-23
1.0842812e-23
1.0250347e-23
7.7373944e-24
2.2538975e-24
6.4788302e-27
3.9953938e-28
2.3962762e-25
9.2401871e-25
1.2566553e-24
1.3365706e-24
1.3486487e-24
1.3475796e-24
1.3449432e-24
1.3429251e-24
1.3418861e-24
1.3418697e-24
1.3428777e-24
1.3448697e-24
1.3474868e-24
1.348543e-24
1.3364581e-24
1.2565457e-24
9.2393676e-25
2.3960436e-25
3.9948979e-28
2.3829995e-29
2.4403927e-26
1.0546562e-25
1.4716674e-25
1.573727e-25
1.5895973e-25
1.5885578e-25
1.5853912e-25
1.5829264e-25
1.5816498e-25
1.5816284e-25
1.5828641e-25
1.5852941e-25
1.5884344e-25
1.5894556e-25
1.5735752e-25
1.4715198e-25
1.0545486e-25
2.4401212e-26
2.3826621e-29
1.3730592e-30
2.3841547e-27
1.1529403e-26
1.6501298e-26
1.7740505e-26
1.793841e-26
1.7929658e-26
1.7893663e-26
1.7865162e-26
1.7850317e-26
1.7850057e-26
1.7864403e-26
1.7892476e-26
1.7928138e-26
1.793665e-26
1.7738603e-26
1.6499439e-26
1.1528072e-26
2.3838538e-27
1.3728403e-30
7.6407501e-32
2.2377161e-28
1.2095427e-27
1.7752076e-27
1.9187502e-27
1.9422483e-27
1.9416646e-27
1.9377738e-27
1.9346379e-27
1.932996e-27
1.9329665e-27
1.9345516e-27
1.9376383e-27
1.9414899e-27
1.9420443e-27
1.9185278e-27
1.7749889e-27
1.2093881e-27
2.2374018e-28
7.6394078e-32
4.1079481e-33
2.0208791e-29
1.220027e-28
1.8359302e-28
1.9950133e-28
2.0216561e-28
2.0214601e-28
2.0174445e-28
2.0141479e-28
2.0124132e-28
2.0123815e-28
2.0140552e-28
2.0172982e-28
2.0212705e-28
2.0214332e-28
1.9947683e-28
1.8356879e-28
1.2198579e-28
2.0205698e-29
4.10717e-33
2.1354618e-34
1.7588007e-30
1.1853019e-29
1.8286995e-29
1.9978126e-29
2.0267355e-29
2.0269765e-29
2.0230057e-29
2.0196831e-29
2.017926e-29
2.0178934e-29
2.0195875e-29
2.0228546e-29
2.0267798e-29
2.0265029e-29
1.9975555e-29
1.8284443e-29
1.1851264e-29
1.7585117e-30
2.1350327e-34
1.0744212e-35
1.4774195e-31
1.1110643e-30
1.7573737e-30
1.9302065e-30
1.9603409e-30
1.9610153e-30
1.9572425e-30
1.954022e-30
1.9523104e-30
1.9522777e-30
1.9539263e-30
1.9570908e-30
1.9608172e-30
1.9601059e-30
1.9299459e-30
1.7571149e-30
1.1108894e-30
1.4771605e-31
1.0741935e-35
5.2379918e-37
1.1996535e-32
1.0064707e-31
1.6320507e-31
1.8022127e-31
1.8324124e-31
1.833468e-31
1.8300149e-31
1.8270053e-31
1.8253975e-31
1.8253654e-31
1.8269112e-31
1.8298655e-31
1.8332722e-31
1.8321797e-31
1.8019542e-31
1.6317946e-31
1.006301e-31
1.1994284e-32
5.2368159e-37
2.4772829e-38
9.4298208e-34
8.8242401e-33
1.4669674e-32
1.6286641e-32
1.6578349e-32
1.659183e-32
1.6561322e-32
1.6534146e-32
1.6519548e-32
1.6519237e-32
1.6533232e-32
1.6559868e-32
1.6589922e-32
1.6576075e-32
1.6284114e-32
1.4667181e-32
8.8226272e-33
9.4279047e-34
2.4766867e-38
1.1379444e-39
7.1853794e-35
7.4988069e-34
1.2780655e-33
1.4266216e-33
1.4538305e-33
1.4553632e-33
1.4527563e-33
1.4503806e-33
1.4490972e-33
1.4490675e-33
1.4502933e-33
1.452617e-33
1.4551799e-33
1.4536116e-33
1.4263782e-33
1.2778265e-33
7.4972978e-34
7.1837773e-35
1.1376466e-39
5.0828046e-41
5.3145601e-36
6.1848982e-35
1.0807389e-34
1.2129052e-34
1.2374547e-34
1.2390612e-34
1.2369034e-34
1.2348894e-34
1.2337951e-34
1.2337673e-34
1.2348078e-34
1.2367727e-34
1.2388887e-34
1.237248e-34
1.2126751e-34
1.0805139e-34
6.1835125e-35
5.3132458e-36
5.0813414e-41
2.2100684e-42
3.8202997e-37
4.957344e-36
8.8812713e-36
1.00216e-35
1.0236202e-35
1.0252014e-35
1.0234686e-35
1.0218107e-35
1.0209044e-35
1.0208792e-35
1.0217364e-35
1.0233495e-35
1.0250434e-35
1.0234302e-35
1.001948e-35
8.8792056e-36
4.9561019e-36
3.819247e-37
2.209366e-42
9.3647077e-44
2.6720818e-38
3.865962e-37
7.1012101e-37
8.056662e-37
8.2386858e-37
8.2534571e-37
8.2399431e-37
8.2266714e-37
8.2193722e-37
8.2191512e-37
8.226019e-37
8.2388931e-37
8.2520591e-37
8.2369973e-37
8.0547726e-37
7.0993722e-37
3.8648821e-37
2.6712633e-38
9.3616037e-44
3.9678873e-45
1.8205551e-39
2.9365766e-38
5.5306403e-38
6.3090461e-38
6.4590533e-38
6.4722476e-38
6.4619988e-38
6.4516564e-38
6.445934e-38
6.4457476e-38
6.4511052e-38
6.461109e-38
6.4710577e-38
6.4576094e-38
6.3074242e-38
5.5290642e-38
2.9356706e-38
1.8199388e-39
3.8696282e-45
1.7282775e-46
1.209512e-40
2.1749688e-39
4.2000693e-39
4.8174193e-39
4.9376831e-39
4.9490097e-39
4.9414444e-39
4.9335897e-39
4.9292181e-39
4.9290672e-39
4.9331427e-39
4.9407205e-39
4.9480376e-39
4.9364978e-39
4.8160826e-39
4.1987709e-39
2.174238e-39
1.2090634e-40
1.5618053e-46
7.8464418e-48
7.8431671e-42
1.572234e-40
3.1131446e-40
3.5903004e-40
3.6842084e-40
3.693589e-40
3.6881483e-40
3.6823289e-40
3.6790716e-40
3.6789542e-40
3.6819809e-40
3.6875831e-40
3.6928269e-40
3.6832748e-40
3.5892432e-40
3.1121179e-40
1.5716679e-40
7.8400219e-42
6.1602025e-48
3.7426928e-49
4.968725e-43
1.1102793e-41
2.2542475e-41
2.6140267e-41
2.6855235e-41
2.6930412e-41
2.689226e-41
2.6850159e-41
2.6826463e-41
2.6825586e-41
2.6847554e-41
2.6888018e-41
2.6924671e-41
2.6848172e-41
2.6132238e-41
2.253468e-41
1.1098582e-41
4.9666033e-43
2.3764359e-49
1.8625522e-50
3.0778275e-44
7.6660687e-43
1.5960152e-42
1.8609101e-42
1.9140386e-42
1.9198828e-42
1.9172722e-42
1.9142952e-42
1.9126107e-42
1.9125475e-42
1.9141073e-42
1.9169655e-42
1.9194664e-42
1.9135244e-42
1.8603237e-42
1.5954462e-42
7.663058e-43
3.0764502e-44
8.9734134e-51
9.4346637e-52
1.865696e-45
5.1795342e-44
1.1057499e-43
1.2963671e-43
1.3349358e-43
1.3393518e-43
1.3376075e-43
1.3355483e-43
1.3343771e-43
1.3343331e-43
1.3354174e-43
1.3373934e-43
1.3390604e-43
1.3345749e-43
1.2959545e-43
1.10535e-43
5.1774622e-44
1.8648351e-45
3.3190322e-52
4.6776483e-53
1.1075556e-46
3.4270282e-45
7.5022575e-45
8.8439904e-45
9.1177642e-45
9.1502542e-45
9.1388659e-45
9.1249223e-45
9.1169508e-45
9.1166542e-45
9.1240391e-45
9.1374198e-45
9.1482823e-45
9.1153169e-45
8.8411874e-45
7.499546e-45
3.4256532e-45
1.107037e-46
1.2033496e-53
2.1394772e-54
6.4436132e-48
2.2221106e-46
4.9883116e-46
5.912856e-46
6.1030329e-46
6.1263422e-46
6.1190736e-46
6.1098228e-46
6.1045076e-46
6.1043135e-46
6.1092445e-46
6.118126e-46
6.1250489e-46
6.101426e-46
5.9110141e-46
4.9865346e-46
2.2212291e-46
6.4406023e-48
4.2794185e-55
7.8720152e-56
3.6764216e-49
1.4129556e-47
3.2526326e-47
3.8767537e-47
4.0061342e-47
4.0224622e-47
4.0179247e-47
4.0119074e-47
4.0084327e-47
4.008309e-47
4.011539e-47
4.0173211e-47
4.0216384e-47
4.0051107e-47
3.8755809e-47
3.2515049e-47
1.4124086e-47
3.6747387e-49
1.4936817e-56
2.0077316e-57
2.058391e-50
8.8162274e-49
2.0811939e-48
2.4942336e-48
2.5804996e-48
2.5916801e-48
2.5889085e-48
2.5850683e-48
2.5828397e-48
2.5827628e-48
2.5848396e-48
2.588534e-48
2.5911695e-48
2.5798661e-48
2.4935088e-48
2.0804999e-48
8.8129384e-49
2.0574887e-50
5.1198973e-58
5.2032753e-59
1.1316101e-51
5.401171e-50
1.3075132e-49
1.5756662e-49
1.6320777e-49
1.6395689e-49
1.6379119e-49
1.6355058e-49
1.6341024e-49
1.6340557e-49
1.6353671e-49
1.6376851e-49
1.6392605e-49
1.6316961e-49
1.5752308e-49
1.3070986e-49
5.3992522e-50
1.1311397e-51
1.724341e-59
1.37374e-60
6.1117411e-53
3.250755e-51
8.0701037e-51
9.7789936e-51
1.0141021e-50
1.0190184e-50
1.0180484e-50
1.0165675e-50
1.0156992e-50
1.0156715e-50
1.0164852e-50
1.0179142e-50
1.0188365e-50
1.013878e-50
9.77645e-51
8.067697e-51
3.2496681e-51
6.1093567e-53
5.7087468e-61
3.6975693e-62
3.2444317e-54
1.9230496e-52
4.8959623e-52
5.9656392e-52
6.1938047e-52
6.2254371e-52
6.2198781e-52
6.2109185e-52
6.205638e-52
6.2054768e-52
6.2104401e-52
6.2191001e-52
6.2243875e-52
6.1925202e-52
5.9641913e-52
4.8946039e-52
1.9224512e-52
3.2432558e-54
1.8585744e-62
)
;

boundaryField
{
    Wall
    {
        type            zeroGradient;
    }
    frontAndBack
    {
        type            empty;
    }
    atmosphere
    {
        type            zeroGradient;
    }
}


// ************************************************************************* //
