/*--------------------------------*- C++ -*----------------------------------*\
| =========                 |                                                 |
| \\      /  F ield         | OpenFOAM: The Open Source CFD Toolbox           |
|  \\    /   O peration     | Version:  3.0.1                                 |
|   \\  /    A nd           | Web:      www.OpenFOAM.org                      |
|    \\/     M anipulation  |                                                 |
\*---------------------------------------------------------------------------*/
FoamFile
{
    version     2.0;
    format      ascii;
    class       volScalarField;
    location    "8";
    object      mOne;
}
// * * * * * * * * * * * * * * * * * * * * * * * * * * * * * * * * * * * * * //

dimensions      [0 0 0 0 0 0 0];

internalField   nonuniform List<scalar> 
800
(
0.94514922
0.94507318
0.94504821
0.94503876
0.94503233
0.94502731
0.94502355
0.94502088
0.94501918
0.94501834
0.94501834
0.94501918
0.94502088
0.94502355
0.94502732
0.94503234
0.94503878
0.94504823
0.94507318
0.94514923
0.55000313
0.5507933
0.55103927
0.55119648
0.55130055
0.55137223
0.55142176
0.55145524
0.55147605
0.55148604
0.55148603
0.55147603
0.55145519
0.55142171
0.55137217
0.55130047
0.5511964
0.55103919
0.5507932
0.55000303
0.21501386
0.21699244
0.2170841
0.21711785
0.21712934
0.21713283
0.21713326
0.21713286
0.21713241
0.21713217
0.21713217
0.21713241
0.21713285
0.21713325
0.21713283
0.21712934
0.21711784
0.21708409
0.21699243
0.21501385
0.049235603
0.049918295
0.049855273
0.049797519
0.049754783
0.04972176
0.049697665
0.049680792
0.049670077
0.049664876
0.049664882
0.049670094
0.04968082
0.049697702
0.049721805
0.049754833
0.049797581
0.049855336
0.049918361
0.049235674
0.0083822915
0.0095196338
0.0096652073
0.0096766093
0.0096685491
0.0096596308
0.0096527922
0.0096479925
0.0096449545
0.0096434786
0.0096434791
0.009644956
0.0096479952
0.009652796
0.0096596353
0.0096685531
0.0096766142
0.00966521
0.0095196363
0.0083822962
0.00099940119
0.0017276997
0.0019061782
0.0019427168
0.0019475668
0.0019466074
0.0019451275
0.0019439845
0.0019432512
0.0019428948
0.0019428944
0.0019432499
0.0019439825
0.0019451249
0.001946604
0.0019475621
0.0019427106
0.00190617
0.0017276911
0.00099939518
8.735071e-05
0.00030737856
0.00039038676
0.00041056802
0.00041419148
0.00041440447
0.00041410848
0.00041383332
0.0004136519
0.00041356346
0.00041356315
0.00041365099
0.00041383192
0.00041410663
0.00041440212
0.00041418844
0.00041056413
0.00039038203
0.00030737396
8.7348818e-05
7.4943313e-06
5.4333389e-05
7.9949378e-05
8.6940407e-05
8.8298245e-05
8.8432883e-05
8.836725e-05
8.8295533e-05
8.8247107e-05
8.822339e-05
8.8223257e-05
8.8246722e-05
8.8294935e-05
8.8366468e-05
8.8431911e-05
8.8297029e-05
8.6938888e-05
7.9947618e-05
5.4331877e-05
7.4940208e-06
6.5563647e-07
9.2747332e-06
1.5694746e-05
1.7621802e-05
1.8011907e-05
1.8055657e-05
1.804042e-05
1.8022049e-05
1.8009423e-05
1.8003203e-05
1.8003158e-05
1.8009292e-05
1.8021847e-05
1.804016e-05
1.8055341e-05
1.8011524e-05
1.7621338e-05
1.5694235e-05
9.2743507e-06
6.5559706e-07
5.6883588e-08
1.496083e-06
2.8876842e-06
3.3413424e-06
3.4359582e-06
3.4471913e-06
3.4438506e-06
3.4395558e-06
3.4365595e-06
3.4350738e-06
3.4350608e-06
3.4365221e-06
3.4394982e-06
3.4437772e-06
3.4471043e-06
3.4358565e-06
3.3412246e-06
2.8875615e-06
1.4960036e-06
5.6879339e-08
4.7800799e-09
2.2601185e-07
4.9434515e-07
5.8854907e-07
6.0869774e-07
6.1119386e-07
6.1053755e-07
6.0964338e-07
6.0901035e-07
6.0869422e-07
6.0869101e-07
6.0900108e-07
6.0962915e-07
6.1051961e-07
6.1117303e-07
6.0867423e-07
5.8852308e-07
4.9431982e-07
2.2599773e-07
4.7796739e-09
3.841451e-10
3.1932913e-08
7.8775023e-08
9.6384425e-08
1.0023893e-07
1.0073615e-07
1.0062203e-07
1.0045592e-07
1.0033654e-07
1.002765e-07
1.002758e-07
1.0033452e-07
1.0045282e-07
1.0061814e-07
1.0073171e-07
1.0023406e-07
9.637928e-08
7.8770349e-08
3.1930674e-08
3.8410947e-10
2.9362185e-11
4.2280082e-09
1.1725053e-08
1.4731515e-08
1.5404304e-08
1.5494662e-08
1.5477034e-08
1.5449208e-08
1.5428901e-08
1.5418614e-08
1.5418478e-08
1.5428508e-08
1.5448605e-08
1.5476279e-08
1.5493806e-08
1.5403384e-08
1.4730578e-08
1.1724256e-08
4.2276791e-09
2.9359216e-11
2.1313835e-12
5.2625891e-10
1.6369777e-09
2.1108742e-09
2.2192245e-09
2.2343624e-09
2.2319272e-09
2.2276741e-09
2.2245207e-09
2.2229126e-09
2.222889e-09
2.2244524e-09
2.2275687e-09
2.2317949e-09
2.2342125e-09
2.2190648e-09
2.1107154e-09
1.6368498e-09
5.2621296e-10
2.1311441e-12
1.4701804e-13
6.1793525e-11
2.1527664e-10
2.8481412e-10
3.0104975e-10
3.0340497e-10
3.0310275e-10
3.0250325e-10
3.0205152e-10
3.0181968e-10
3.0181597e-10
3.0204076e-10
3.024866e-10
3.0308174e-10
3.0338105e-10
3.0102425e-10
2.8478904e-10
2.1525724e-10
6.1787386e-11
1.4699936e-13
9.6523178e-15
6.8686213e-12
2.6772311e-11
3.6333631e-11
3.861222e-11
3.8954535e-11
3.8920863e-11
3.8842228e-11
3.8781987e-11
3.8750887e-11
3.8750357e-11
3.8780447e-11
3.8839833e-11
3.8917821e-11
3.8951044e-11
3.8608477e-11
3.6329955e-11
2.6769542e-11
6.867842e-12
9.650926e-15
6.0447074e-16
7.2512752e-13
3.1599413e-12
4.3985397e-12
4.6996842e-12
4.7464008e-12
4.7430658e-12
4.7333952e-12
4.7258601e-12
4.7219485e-12
4.7218791e-12
4.7256579e-12
4.7330792e-12
4.7426614e-12
4.7459328e-12
4.699178e-12
4.3980405e-12
3.1595721e-12
7.2503446e-13
6.0437292e-16
3.6191942e-17
7.293264e-14
3.551476e-13
5.0700825e-13
5.4466031e-13
5.5067421e-13
5.5038913e-13
5.4926713e-13
5.4837747e-13
5.4791325e-13
5.4790481e-13
5.4835285e-13
5.4922847e-13
5.5033934e-13
5.5061611e-13
5.4459689e-13
5.0694533e-13
3.5510171e-13
7.2922248e-14
3.6185503e-17
2.0766249e-18
7.0087316e-15
3.8122454e-14
5.5814525e-14
6.0285805e-14
6.1019093e-14
6.0999865e-14
6.087641e-14
6.0776736e-14
6.0724467e-14
6.0723504e-14
6.0773919e-14
6.0871971e-14
6.0994116e-14
6.1012337e-14
6.0278373e-14
5.5807113e-14
3.8117118e-14
7.0076446e-15
2.0762273e-18
1.144454e-19
6.4523446e-16
3.9190839e-15
5.8844117e-15
6.3904912e-15
6.4754966e-15
6.4748536e-15
6.4619147e-15
6.4512703e-15
6.4456612e-15
6.4455563e-15
6.4509632e-15
6.4614292e-15
6.4742223e-15
6.4747507e-15
6.3896659e-15
5.8835859e-15
3.9184984e-15
6.4512715e-16
1.1442218e-19
6.0710802e-21
5.7044647e-17
3.8681657e-16
5.9562434e-16
6.5038821e-16
6.5978834e-16
6.5987173e-16
6.5857521e-16
6.5748758e-16
6.569116e-16
6.5690056e-16
6.574552e-16
6.5852391e-16
6.598048e-16
6.5970897e-16
6.503001e-16
5.9553616e-16
3.8675514e-16
5.7034537e-17
6.0697827e-21
3.1062355e-22
4.854045e-18
3.6739476e-17
5.8016152e-17
6.3697619e-17
6.4692232e-17
6.4715482e-17
6.459088e-17
6.4484201e-17
6.4427417e-17
6.4426279e-17
6.4480863e-17
6.458558e-17
6.4708549e-17
6.4683991e-17
6.3688458e-17
5.8007007e-17
3.6733237e-17
4.8531248e-18
3.105533e-22
1.5357294e-23
3.9836081e-19
3.364911e-18
5.4492847e-18
6.0157839e-18
6.116755e-18
6.1204117e-18
6.1088951e-18
6.0988231e-18
6.093433e-18
6.0933178e-18
6.0984847e-18
6.1083568e-18
6.1197057e-18
6.115914e-18
6.0148487e-18
5.4483552e-18
3.3642918e-18
3.9827914e-19
1.5353575e-23
7.349479e-25
3.1590181e-20
2.9775235e-19
4.9450796e-19
5.4891905e-19
5.5877808e-19
5.5924761e-19
5.5822151e-19
5.5730394e-19
5.5681013e-19
5.5679868e-19
5.5727027e-19
5.5816782e-19
5.59177e-19
5.5869376e-19
5.4882522e-19
4.9441518e-19
2.9769208e-19
3.1583083e-20
7.3475452e-25
3.4099715e-26
2.4248327e-21
2.5499777e-20
4.3431943e-20
4.8476347e-20
4.9404323e-20
4.9457967e-20
4.9369658e-20
4.9288835e-20
4.9245084e-20
4.9243972e-20
4.9285563e-20
4.9364428e-20
4.9451064e-20
4.9396056e-20
4.8467137e-20
4.3422877e-20
2.5494035e-20
2.4242289e-21
3.4089854e-26
1.5361478e-27
1.8044949e-22
2.1169609e-21
3.6977984e-21
4.1500408e-21
4.2344096e-21
4.2400571e-21
4.2327029e-21
4.225807e-21
4.2220518e-21
4.2219473e-21
4.2254989e-21
4.2322088e-21
4.2394023e-21
4.2336224e-21
4.1491619e-21
3.6969363e-21
2.1164281e-21
1.8039948e-22
1.5356577e-27
6.7281221e-29
1.3037921e-23
1.7061751e-22
3.0564282e-22
3.449168e-22
3.5233959e-22
3.528975e-22
3.5230397e-22
3.5173316e-22
3.5142045e-22
3.5141098e-22
3.5170519e-22
3.5225897e-22
3.5283762e-22
3.5226728e-22
3.4483582e-22
3.0556355e-22
1.7056966e-22
1.3033907e-23
6.7258608e-29
2.9190873e-30
9.1585061e-25
1.3367703e-23
2.4558969e-23
2.7867853e-23
2.8500872e-23
2.8553163e-23
2.8506675e-23
2.846077e-23
2.8435473e-23
2.8434649e-23
2.8458333e-23
2.8502741e-23
2.8547906e-23
2.8494493e-23
2.7860682e-23
2.4551958e-23
1.3363565e-23
9.1553923e-25
2.8676777e-30
1.2805674e-31
6.2624506e-26
1.0194243e-24
1.9207612e-24
2.1916033e-24
2.2440106e-24
2.2486943e-24
2.2451564e-24
2.2415652e-24
2.2395746e-24
2.2395058e-24
2.2413616e-24
2.2448268e-24
2.248252e-24
2.2434713e-24
2.1909946e-24
1.9201665e-24
1.0190807e-24
6.2601203e-26
1.1916042e-31
5.7539273e-33
4.1731719e-27
7.5756507e-26
1.4638801e-25
1.6795423e-25
1.7217214e-25
1.7257515e-25
1.7231323e-25
1.720396e-25
1.7188707e-25
1.7188158e-25
1.7202331e-25
1.7228678e-25
1.725395e-25
1.7212846e-25
1.6790473e-25
1.4633966e-25
7.5729155e-26
4.1714948e-27
4.8306017e-33
2.6785506e-34
2.7130217e-28
5.4918281e-27
1.0883573e-26
1.2556116e-26
1.2886554e-26
1.2919997e-26
1.2901116e-26
1.2880787e-26
1.2869392e-26
1.2868971e-26
1.2879535e-26
1.2899077e-26
1.2917239e-26
1.2883161e-26
1.2552257e-26
1.0879805e-26
5.4897399e-27
2.711862e-28
1.9123004e-34
1.2939112e-35
1.7224054e-29
3.8875712e-28
7.9013924e-28
9.1661541e-28
9.4184325e-28
9.4452779e-28
9.4320127e-28
9.4172704e-28
9.4089637e-28
9.4086523e-28
9.4163444e-28
9.4305015e-28
9.4432267e-28
9.4158999e-28
9.1632635e-28
7.898572e-28
3.8860408e-28
1.7216348e-29
7.3992812e-36
6.3895415e-37
1.0688412e-30
2.6897192e-29
5.606662e-29
6.5401665e-29
6.7280733e-29
6.7489711e-29
6.7398804e-29
6.7294352e-29
6.7235195e-29
6.7232974e-29
6.7287745e-29
6.7388001e-29
6.747501e-29
6.7262527e-29
6.5380833e-29
5.604632e-29
2.6886408e-29
1.0683486e-30
2.8007231e-37
3.1205385e-38
6.4887376e-32
1.8204485e-30
3.8917893e-30
4.564947e-30
4.7016302e-30
4.7174389e-30
4.7113577e-30
4.7041204e-30
4.7000008e-30
4.6998477e-30
4.7036644e-30
4.7106111e-30
4.7164211e-30
4.7003671e-30
4.5634991e-30
3.8903811e-30
1.8197165e-30
6.4857066e-32
1.0378692e-38
1.4239678e-39
3.8567831e-33
1.2062677e-31
2.6447787e-31
3.1194552e-31
3.2166415e-31
3.2282834e-31
3.2243098e-31
3.2194017e-31
3.2165941e-31
3.2164916e-31
3.2190965e-31
3.2238097e-31
3.2276011e-31
3.2157939e-31
3.1184828e-31
2.6438355e-31
1.2057882e-31
3.8549867e-33
3.7681491e-40
5.321012e-41
2.2461253e-34
7.8312504e-33
1.7609728e-32
2.0885555e-32
2.1561624e-32
2.1645209e-32
2.1619833e-32
2.1587229e-32
2.1568486e-32
2.1567819e-32
2.1585244e-32
2.161658e-32
2.1640771e-32
2.155611e-32
2.0879232e-32
1.7603616e-32
7.8282125e-33
2.2451008e-34
1.3412982e-41
1.4201689e-42
1.2825981e-35
4.9847993e-34
1.1495993e-33
1.3710232e-33
1.4170726e-33
1.4229313e-33
1.4213466e-33
1.4192235e-33
1.4179969e-33
1.4179546e-33
1.4190977e-33
1.4211407e-33
1.4226506e-33
1.4167244e-33
1.3706245e-33
1.1492156e-33
4.9829358e-34
1.2820376e-35
4.6839442e-43
3.8622582e-44
7.185889e-37
3.1130064e-35
7.3630617e-35
8.8300461e-35
9.1373982e-35
9.1775337e-35
9.1678531e-35
9.1542901e-35
9.1464149e-35
9.1461536e-35
9.1535123e-35
9.1665818e-35
9.1758053e-35
9.1352597e-35
8.8276049e-35
7.3607242e-35
3.1118982e-35
7.1829099e-37
1.6056138e-44
1.0712134e-45
3.9523892e-38
1.9085023e-36
4.6297397e-36
5.5830309e-36
5.784192e-36
5.8110948e-36
5.8053074e-36
5.796802e-36
5.7918384e-36
5.7916803e-36
5.7963319e-36
5.8045408e-36
5.8100561e-36
5.7829127e-36
5.5815777e-36
4.6283575e-36
1.9078628e-36
3.9508508e-38
5.4054671e-46
3.0261355e-47
2.1352823e-39
1.1492809e-37
2.8594961e-37
3.4675138e-37
3.5967141e-37
3.6143773e-37
3.6109911e-37
3.6057519e-37
3.6026786e-37
3.6025849e-37
3.6054737e-37
3.6105387e-37
3.6137672e-37
3.5959675e-37
3.4666716e-37
2.8587018e-37
1.1489225e-37
2.13451e-39
1.7880288e-47
)
;

boundaryField
{
    Wall
    {
        type            zeroGradient;
    }
    frontAndBack
    {
        type            empty;
    }
    atmosphere
    {
        type            zeroGradient;
    }
}


// ************************************************************************* //
