/*--------------------------------*- C++ -*----------------------------------*\
| =========                 |                                                 |
| \\      /  F ield         | OpenFOAM: The Open Source CFD Toolbox           |
|  \\    /   O peration     | Version:  3.0.1                                 |
|   \\  /    A nd           | Web:      www.OpenFOAM.org                      |
|    \\/     M anipulation  |                                                 |
\*---------------------------------------------------------------------------*/
FoamFile
{
    version     2.0;
    format      ascii;
    class       volScalarField;
    location    "8";
    object      mTwo;
}
// * * * * * * * * * * * * * * * * * * * * * * * * * * * * * * * * * * * * * //

dimensions      [0 0 0 0 0 0 0];

internalField   nonuniform List<scalar> 
800
(
8.8817948e-14
8.8803663e-14
8.8798973e-14
8.8797199e-14
8.8795993e-14
8.8795049e-14
8.8794343e-14
8.8793844e-14
8.8793524e-14
8.8793366e-14
8.8793367e-14
8.8793524e-14
8.8793843e-14
8.8794345e-14
8.8795052e-14
8.8795994e-14
8.8797202e-14
8.8798976e-14
8.8803664e-14
8.881795e-14
3.3571977e-14
3.36606e-14
3.3687662e-14
3.3705104e-14
3.3716774e-14
3.3724871e-14
3.373049e-14
3.3734297e-14
3.3736668e-14
3.3737807e-14
3.3737807e-14
3.3736666e-14
3.3734293e-14
3.3730484e-14
3.3724865e-14
3.3716766e-14
3.3705096e-14
3.3687653e-14
3.366059e-14
3.3571966e-14
9.556502e-15
9.6720071e-15
9.6801512e-15
9.6841325e-15
9.6861871e-15
9.6873606e-15
9.6880605e-15
9.6884946e-15
9.688753e-15
9.6888754e-15
9.6888753e-15
9.6887525e-15
9.6884935e-15
9.6880593e-15
9.6873592e-15
9.6861852e-15
9.6841302e-15
9.6801489e-15
9.6720044e-15
9.5564992e-15
1.6406835e-15
1.6663375e-15
1.6645875e-15
1.662882e-15
1.6615528e-15
1.6604925e-15
1.6597079e-15
1.659154e-15
1.6588006e-15
1.6586287e-15
1.6586289e-15
1.6588011e-15
1.6591548e-15
1.6597091e-15
1.660494e-15
1.6615543e-15
1.6628839e-15
1.6645895e-15
1.6663396e-15
1.6406857e-15
2.1412782e-16
2.4161504e-16
2.4497607e-16
2.4519809e-16
2.4495965e-16
2.4470558e-16
2.4451082e-16
2.4437365e-16
2.4428661e-16
2.4424429e-16
2.4424431e-16
2.4428666e-16
2.4437374e-16
2.4451095e-16
2.4470573e-16
2.4495979e-16
2.4519827e-16
2.4497621e-16
2.4161517e-16
2.1412803e-16
1.9596951e-17
3.3465519e-17
3.6971862e-17
3.7712679e-17
3.781039e-17
3.7786674e-17
3.7752471e-17
3.7726085e-17
3.7709112e-17
3.770086e-17
3.7700854e-17
3.7709092e-17
3.7726053e-17
3.775243e-17
3.778662e-17
3.7810313e-17
3.7712581e-17
3.697173e-17
3.3465378e-17
1.9596863e-17
1.2786204e-18
4.5584057e-18
5.8679514e-18
6.1999009e-18
6.2610117e-18
6.2645156e-18
6.2592699e-18
6.2543868e-18
6.2511537e-18
6.2495758e-18
6.2495715e-18
6.2511411e-18
6.254367e-18
6.2592439e-18
6.2644824e-18
6.2609686e-18
6.1998466e-18
5.867886e-18
4.5583438e-18
1.2785969e-18
8.0723131e-20
6.2719168e-19
9.5190801e-19
1.045166e-18
1.0638801e-18
1.0658417e-18
1.0649888e-18
1.0640242e-18
1.0633676e-18
1.0630454e-18
1.0630439e-18
1.0633632e-18
1.0640173e-18
1.0649797e-18
1.0658304e-18
1.063866e-18
1.0451486e-18
9.5188824e-19
6.2717547e-19
8.072019e-20
5.260033e-21
8.5441324e-20
1.5184166e-19
1.7298378e-19
1.774201e-19
1.7795521e-19
1.7780742e-19
1.776146e-19
1.774805e-19
1.7741428e-19
1.7741385e-19
1.7747925e-19
1.7761266e-19
1.7780491e-19
1.7795216e-19
1.7741641e-19
1.7297938e-19
1.5183694e-19
8.5438015e-20
5.2597484e-21
3.5057846e-22
1.1300174e-20
2.3271957e-20
2.7436974e-20
2.8338152e-20
2.8453643e-20
2.842817e-20
2.8391552e-20
2.8365644e-20
2.8352761e-20
2.8352656e-20
2.8365341e-20
2.8391084e-20
2.8427573e-20
2.8452935e-20
2.8337327e-20
2.7436031e-20
2.3271005e-20
1.1299606e-20
3.5055441e-22
2.3498821e-23
1.4359092e-21
3.3939567e-21
4.1305111e-21
4.2938449e-21
4.3156095e-21
4.3114926e-21
4.3050867e-21
4.300483e-21
4.2981772e-21
4.2981549e-21
4.3004185e-21
4.3049875e-21
4.3113673e-21
4.315464e-21
4.2936811e-21
4.1303324e-21
3.3937884e-21
1.4358237e-21
2.3496957e-23
1.5620719e-24
1.745841e-22
4.6988871e-22
5.8909954e-22
6.1611382e-22
6.19835e-22
6.1922767e-22
6.1820165e-22
6.1745287e-22
6.170751e-22
6.1707085e-22
6.1744058e-22
6.1818276e-22
6.1920396e-22
6.1980788e-22
6.1608416e-22
5.8906861e-22
4.6986158e-22
1.7457236e-22
1.5619345e-24
1.0191728e-25
2.0288528e-23
6.1806865e-23
7.9698204e-23
8.3835197e-23
8.4423445e-23
8.4342291e-23
8.4191114e-23
8.4079058e-23
8.4022121e-23
8.4021389e-23
8.4076941e-23
8.4187858e-23
8.433821e-23
8.4418814e-23
8.3830227e-23
7.9693202e-23
6.1802761e-23
2.0287003e-23
1.0190738e-25
6.4795363e-27
2.2540888e-24
7.7379873e-24
1.025111e-23
1.0843588e-23
1.0930488e-23
1.092068e-23
1.0900027e-23
1.0884474e-23
1.0876517e-23
1.0876402e-23
1.0884142e-23
1.0899516e-23
1.0920037e-23
1.092976e-23
1.0842812e-23
1.0250347e-23
7.7373945e-24
2.2538975e-24
6.4788302e-27
3.9953938e-28
2.3962762e-25
9.2401871e-25
1.2566553e-24
1.3365706e-24
1.3486487e-24
1.3475796e-24
1.3449432e-24
1.3429251e-24
1.3418861e-24
1.3418697e-24
1.3428777e-24
1.3448697e-24
1.3474868e-24
1.348543e-24
1.3364581e-24
1.2565457e-24
9.2393676e-25
2.3960436e-25
3.9948979e-28
2.3829995e-29
2.4403927e-26
1.0546562e-25
1.4716674e-25
1.573727e-25
1.5895973e-25
1.5885578e-25
1.5853912e-25
1.5829264e-25
1.5816498e-25
1.5816284e-25
1.5828641e-25
1.5852941e-25
1.5884344e-25
1.5894556e-25
1.5735752e-25
1.4715198e-25
1.0545486e-25
2.4401212e-26
2.3826621e-29
1.3730592e-30
2.3841547e-27
1.1529403e-26
1.6501298e-26
1.7740505e-26
1.793841e-26
1.7929658e-26
1.7893663e-26
1.7865162e-26
1.7850317e-26
1.7850057e-26
1.7864403e-26
1.7892476e-26
1.7928138e-26
1.793665e-26
1.7738603e-26
1.6499439e-26
1.1528072e-26
2.3838538e-27
1.3728403e-30
7.6407501e-32
2.2377161e-28
1.2095427e-27
1.7752076e-27
1.9187502e-27
1.9422483e-27
1.9416646e-27
1.9377738e-27
1.9346379e-27
1.932996e-27
1.9329665e-27
1.9345516e-27
1.9376383e-27
1.9414899e-27
1.9420443e-27
1.9185278e-27
1.7749889e-27
1.2093881e-27
2.2374018e-28
7.6394078e-32
4.1079481e-33
2.0208791e-29
1.220027e-28
1.8359302e-28
1.9950133e-28
2.0216561e-28
2.0214601e-28
2.0174445e-28
2.0141479e-28
2.0124132e-28
2.0123815e-28
2.0140552e-28
2.0172982e-28
2.0212705e-28
2.0214332e-28
1.9947683e-28
1.8356879e-28
1.2198579e-28
2.0205698e-29
4.10717e-33
2.1354618e-34
1.7588007e-30
1.1853019e-29
1.8286995e-29
1.9978126e-29
2.0267355e-29
2.0269765e-29
2.0230057e-29
2.0196831e-29
2.017926e-29
2.0178934e-29
2.0195875e-29
2.0228546e-29
2.0267798e-29
2.0265029e-29
1.9975555e-29
1.8284443e-29
1.1851264e-29
1.7585117e-30
2.1350327e-34
1.0744212e-35
1.4774195e-31
1.1110643e-30
1.7573737e-30
1.9302065e-30
1.9603409e-30
1.9610153e-30
1.9572425e-30
1.954022e-30
1.9523104e-30
1.9522777e-30
1.9539263e-30
1.9570908e-30
1.9608172e-30
1.9601059e-30
1.9299459e-30
1.7571149e-30
1.1108894e-30
1.4771605e-31
1.0741935e-35
5.2379918e-37
1.1996535e-32
1.0064707e-31
1.6320507e-31
1.8022127e-31
1.8324124e-31
1.833468e-31
1.8300149e-31
1.8270053e-31
1.8253975e-31
1.8253654e-31
1.8269112e-31
1.8298655e-31
1.8332722e-31
1.8321797e-31
1.8019542e-31
1.6317946e-31
1.006301e-31
1.1994284e-32
5.2368159e-37
2.4772829e-38
9.4298208e-34
8.8242401e-33
1.4669674e-32
1.6286641e-32
1.6578349e-32
1.659183e-32
1.6561322e-32
1.6534146e-32
1.6519548e-32
1.6519237e-32
1.6533232e-32
1.6559868e-32
1.6589922e-32
1.6576075e-32
1.6284114e-32
1.4667181e-32
8.8226272e-33
9.4279047e-34
2.4766867e-38
1.1379444e-39
7.1853794e-35
7.4988069e-34
1.2780655e-33
1.4266216e-33
1.4538305e-33
1.4553632e-33
1.4527563e-33
1.4503806e-33
1.4490972e-33
1.4490675e-33
1.4502933e-33
1.452617e-33
1.4551799e-33
1.4536116e-33
1.4263782e-33
1.2778265e-33
7.4972978e-34
7.1837773e-35
1.1376466e-39
5.0828046e-41
5.3145601e-36
6.1848982e-35
1.0807389e-34
1.2129052e-34
1.2374547e-34
1.2390612e-34
1.2369034e-34
1.2348894e-34
1.2337951e-34
1.2337673e-34
1.2348078e-34
1.2367727e-34
1.2388887e-34
1.237248e-34
1.2126751e-34
1.0805139e-34
6.1835125e-35
5.3132458e-36
5.0813414e-41
2.2100684e-42
3.8202997e-37
4.957344e-36
8.8812713e-36
1.00216e-35
1.0236202e-35
1.0252014e-35
1.0234686e-35
1.0218107e-35
1.0209044e-35
1.0208792e-35
1.0217364e-35
1.0233495e-35
1.0250434e-35
1.0234302e-35
1.001948e-35
8.8792056e-36
4.9561019e-36
3.819247e-37
2.209366e-42
9.3647077e-44
2.6720818e-38
3.865962e-37
7.1012101e-37
8.056662e-37
8.2386858e-37
8.2534571e-37
8.2399431e-37
8.2266714e-37
8.2193722e-37
8.2191512e-37
8.226019e-37
8.2388931e-37
8.2520591e-37
8.2369973e-37
8.0547726e-37
7.0993722e-37
3.8648821e-37
2.6712633e-38
9.3616037e-44
3.9678873e-45
1.8205551e-39
2.9365766e-38
5.5306403e-38
6.3090461e-38
6.4590533e-38
6.4722476e-38
6.4619988e-38
6.4516564e-38
6.445934e-38
6.4457476e-38
6.4511052e-38
6.461109e-38
6.4710577e-38
6.4576094e-38
6.3074242e-38
5.5290642e-38
2.9356706e-38
1.8199388e-39
3.8696282e-45
1.7282775e-46
1.209512e-40
2.1749688e-39
4.2000693e-39
4.8174193e-39
4.9376831e-39
4.9490097e-39
4.9414444e-39
4.9335897e-39
4.9292181e-39
4.9290672e-39
4.9331427e-39
4.9407205e-39
4.9480376e-39
4.9364978e-39
4.8160826e-39
4.1987709e-39
2.174238e-39
1.2090634e-40
1.5618053e-46
7.8464418e-48
7.8431671e-42
1.572234e-40
3.1131446e-40
3.5903004e-40
3.6842084e-40
3.693589e-40
3.6881483e-40
3.6823289e-40
3.6790716e-40
3.6789542e-40
3.6819809e-40
3.6875831e-40
3.6928269e-40
3.6832748e-40
3.5892432e-40
3.1121179e-40
1.5716679e-40
7.8400219e-42
6.1602025e-48
3.7426928e-49
4.968725e-43
1.1102793e-41
2.2542475e-41
2.6140267e-41
2.6855235e-41
2.6930412e-41
2.689226e-41
2.6850159e-41
2.6826463e-41
2.6825586e-41
2.6847554e-41
2.6888018e-41
2.6924671e-41
2.6848172e-41
2.6132238e-41
2.253468e-41
1.1098582e-41
4.9666033e-43
2.3764359e-49
1.8625522e-50
3.0778275e-44
7.6660687e-43
1.5960152e-42
1.8609101e-42
1.9140386e-42
1.9198828e-42
1.9172722e-42
1.9142952e-42
1.9126107e-42
1.9125475e-42
1.9141073e-42
1.9169655e-42
1.9194664e-42
1.9135244e-42
1.8603237e-42
1.5954462e-42
7.663058e-43
3.0764502e-44
8.9734134e-51
9.4346637e-52
1.865696e-45
5.1795342e-44
1.1057499e-43
1.2963671e-43
1.3349358e-43
1.3393518e-43
1.3376075e-43
1.3355483e-43
1.3343771e-43
1.3343331e-43
1.3354174e-43
1.3373934e-43
1.3390604e-43
1.3345749e-43
1.2959545e-43
1.10535e-43
5.1774622e-44
1.8648351e-45
3.3190322e-52
4.6776483e-53
1.1075556e-46
3.4270282e-45
7.5022575e-45
8.8439904e-45
9.1177642e-45
9.1502542e-45
9.1388659e-45
9.1249223e-45
9.1169508e-45
9.1166542e-45
9.1240391e-45
9.1374198e-45
9.1482823e-45
9.1153169e-45
8.8411874e-45
7.499546e-45
3.4256532e-45
1.107037e-46
1.2033496e-53
2.1394772e-54
6.4436132e-48
2.2221106e-46
4.9883116e-46
5.912856e-46
6.1030329e-46
6.1263422e-46
6.1190736e-46
6.1098228e-46
6.1045076e-46
6.1043135e-46
6.1092445e-46
6.118126e-46
6.1250489e-46
6.101426e-46
5.9110141e-46
4.9865346e-46
2.2212291e-46
6.4406023e-48
4.2794185e-55
7.8720152e-56
3.6764216e-49
1.4129556e-47
3.2526326e-47
3.8767537e-47
4.0061342e-47
4.0224622e-47
4.0179247e-47
4.0119074e-47
4.0084327e-47
4.008309e-47
4.011539e-47
4.0173211e-47
4.0216384e-47
4.0051107e-47
3.8755809e-47
3.2515049e-47
1.4124086e-47
3.6747387e-49
1.4936817e-56
2.0077316e-57
2.058391e-50
8.8162274e-49
2.0811939e-48
2.4942336e-48
2.5804996e-48
2.5916801e-48
2.5889085e-48
2.5850683e-48
2.5828397e-48
2.5827628e-48
2.5848396e-48
2.588534e-48
2.5911695e-48
2.5798661e-48
2.4935088e-48
2.0804999e-48
8.8129384e-49
2.0574887e-50
5.1198973e-58
5.2032753e-59
1.1316101e-51
5.401171e-50
1.3075132e-49
1.5756662e-49
1.6320777e-49
1.6395689e-49
1.6379119e-49
1.6355058e-49
1.6341024e-49
1.6340557e-49
1.6353671e-49
1.6376851e-49
1.6392605e-49
1.6316961e-49
1.5752308e-49
1.3070986e-49
5.3992522e-50
1.1311397e-51
1.724341e-59
1.37374e-60
6.1117411e-53
3.250755e-51
8.0701037e-51
9.7789936e-51
1.0141021e-50
1.0190184e-50
1.0180484e-50
1.0165675e-50
1.0156992e-50
1.0156715e-50
1.0164852e-50
1.0179142e-50
1.0188365e-50
1.013878e-50
9.77645e-51
8.067697e-51
3.2496681e-51
6.1093567e-53
5.7087468e-61
3.6975693e-62
3.2444317e-54
1.9230496e-52
4.8959623e-52
5.9656392e-52
6.1938047e-52
6.2254371e-52
6.2198781e-52
6.2109185e-52
6.205638e-52
6.2054768e-52
6.2104401e-52
6.2191001e-52
6.2243875e-52
6.1925202e-52
5.9641913e-52
4.8946039e-52
1.9224512e-52
3.2432558e-54
1.8585744e-62
)
;

boundaryField
{
    Wall
    {
        type            zeroGradient;
    }
    frontAndBack
    {
        type            empty;
    }
    atmosphere
    {
        type            zeroGradient;
    }
}


// ************************************************************************* //
