/*--------------------------------*- C++ -*----------------------------------*\
| =========                 |                                                 |
| \\      /  F ield         | OpenFOAM: The Open Source CFD Toolbox           |
|  \\    /   O peration     | Version:  3.0.1                                 |
|   \\  /    A nd           | Web:      www.OpenFOAM.org                      |
|    \\/     M anipulation  |                                                 |
\*---------------------------------------------------------------------------*/
FoamFile
{
    version     2.0;
    format      ascii;
    class       volScalarField;
    location    "8";
    object      mZero;
}
// * * * * * * * * * * * * * * * * * * * * * * * * * * * * * * * * * * * * * //

dimensions      [0 0 0 0 0 0 0];

internalField   nonuniform List<scalar> 
800
(
1e+13
1e+13
1e+13
1e+13
1e+13
1e+13
1e+13
1e+13
1e+13
1e+13
1e+13
1e+13
1e+13
1e+13
1e+13
1e+13
1e+13
1e+13
1e+13
1e+13
1e+13
1e+13
1e+13
1e+13
1e+13
1e+13
1e+13
1e+13
1e+13
1e+13
1e+13
1e+13
1e+13
1e+13
1e+13
1e+13
1e+13
1e+13
1e+13
1e+13
6.2384068e+12
6.2433565e+12
6.24347e+12
6.2430837e+12
6.2426674e+12
6.2423183e+12
6.2420505e+12
6.2418605e+12
6.2417399e+12
6.2416817e+12
6.2416818e+12
6.2417401e+12
6.2418609e+12
6.2420509e+12
6.2423188e+12
6.242668e+12
6.2430844e+12
6.2434707e+12
6.2433573e+12
6.2384077e+12
2.6417439e+12
2.671126e+12
2.6694429e+12
2.6672096e+12
2.6655835e+12
2.6643486e+12
2.6634557e+12
2.6628344e+12
2.6624412e+12
2.6622504e+12
2.6622506e+12
2.6624418e+12
2.6628354e+12
2.663457e+12
2.6643502e+12
2.6655853e+12
2.6672118e+12
2.6694451e+12
2.6711283e+12
2.6417465e+12
7.3939095e+11
8.5127778e+11
8.6649907e+11
8.6816822e+11
8.6785216e+11
8.6736597e+11
8.6698184e+11
8.6671222e+11
8.665421e+11
8.664593e+11
8.6645926e+11
8.6654202e+11
8.6671215e+11
8.6698175e+11
8.6736584e+11
8.6785192e+11
8.6816785e+11
8.6649836e+11
8.5127693e+11
7.3939017e+11
1.3598492e+11
2.3712557e+11
2.6010826e+11
2.6457007e+11
2.6517847e+11
2.651082e+11
2.6497083e+11
2.6486374e+11
2.6479533e+11
2.6476209e+11
2.64762e+11
2.6479508e+11
2.6486336e+11
2.6497033e+11
2.6510756e+11
2.6517762e+11
2.6456893e+11
2.6010677e+11
2.3712393e+11
1.3598363e+11
1.7977714e+10
6.0219135e+10
7.4598236e+10
7.7880629e+10
7.8448425e+10
7.8480734e+10
7.8435402e+10
7.8393784e+10
7.8366578e+10
7.8353339e+10
7.8353272e+10
7.8366386e+10
7.8393489e+10
7.8435013e+10
7.8480241e+10
7.8447792e+10
7.7879803e+10
7.4597211e+10
6.0218091e+10
1.7977229e+10
2.2061694e+09
1.4137974e+10
1.9914459e+10
2.139036e+10
2.1665067e+10
2.1689194e+10
2.1673783e+10
2.1657968e+10
2.1647431e+10
2.1642285e+10
2.1642251e+10
2.1647331e+10
2.1657814e+10
2.1673583e+10
2.1688945e+10
2.1664755e+10
2.1389964e+10
1.9913987e+10
1.4137542e+10
2.2060643e+09
2.563813e+08
3.0178845e+09
4.82078e+09
5.3271016e+09
5.4255131e+09
5.4352746e+09
5.4304398e+09
5.4251396e+09
5.4215525e+09
5.4197913e+09
5.4197773e+09
5.421512e+09
5.4250773e+09
5.4303594e+09
5.435177e+09
5.4253946e+09
5.3269563e+09
4.8206149e+09
3.0177511e+09
2.5636433e+08
27669534
5.8134869e+08
1.0494844e+09
1.1924091e+09
1.2211374e+09
1.224195e+09
1.2228904e+09
1.221384e+09
1.220349e+09
1.2198375e+09
1.2198328e+09
1.2203355e+09
1.2213632e+09
1.222864e+09
1.2241636e+09
1.2211007e+09
1.192366e+09
1.049438e+09
5.8131612e+08
27667320
2751985.7
1.0134992e+08
2.0615654e+08
2.4068398e+08
2.4783026e+08
2.4863791e+08
2.4833896e+08
2.4797449e+08
2.4772023e+08
2.4759367e+08
2.4759234e+08
2.4771641e+08
2.4796864e+08
2.4833159e+08
2.4862935e+08
2.4782058e+08
2.4067315e+08
2.0614565e+08
1.0134331e+08
2751740
252566.01
16108917
36836217
44166708
45725366
45911950
45853131
45776724
45722579
45695431
45695109
45721647
45775298
45851346
45909910
45723127
44164316
36833977
16107746
252541.71
21489.417
2353648.5
6040187.8
7434858.5
7739048.2
7777525.6
7767431.5
7753278.8
7743088.4
7737942.4
7737873.7
7742889.5
7752974.1
7767050.4
7777093.4
7738583
7434380.2
6039769.3
2353459.8
21487.185
1704.4514
318547.8
916332.94
1157617.6
1211539.6
1218720.9
1217188.9
1214832.5
1213108.2
1212231.5
1212218.6
1213070.6
1214774.7
1217116.4
1218638.7
1211451.9
1157529.7
916260.22
318519.32
1704.2561
126.7034
40206.098
129525.13
167912.07
176693.39
177919.24
177711.59
177353.91
177087.85
176951.72
176949.53
177081.5
177344.1
177699.21
177905.15
176678.36
167897.17
129513.3
40202.027
126.68706
8.8712576
4760.3151
17162.955
22829.05
24154.666
24347.72
24322.464
24272.397
24234.53
24215.041
24214.708
24233.561
24270.893
24320.554
24345.529
24152.315
22826.725
17161.16
4759.7663
8.8699629
0.58764219
531.3932
2143.1032
2924.6537
3111.5052
3139.7638
3137.0127
3130.4897
3125.4719
3122.8753
3122.8292
3125.3374
3130.2797
3136.7442
3139.4531
3111.1689
2924.3198
2142.8504
531.32408
0.58754616
0.036974637
56.177678
253.32786
354.67253
379.41404
383.28349
383.0186
382.22158
381.59777
381.27329
381.2674
381.58055
382.19457
382.98382
383.24291
379.36972
354.62828
253.29484
56.169578
0.036968004
0.0022177044
5.6464602
28.460366
40.877307
43.970707
44.469143
44.447446
44.355547
44.282325
44.244052
44.243348
44.280264
44.352301
44.443243
44.464204
43.96527
40.871851
28.45635
5.6455751
0.0022172766
0.00012720152
0.54144472
3.0495745
4.4933083
4.8601212
4.9208169
4.9194825
4.9094314
4.9012738
4.8969892
4.8969093
4.9010395
4.9090614
4.9190013
4.9202485
4.8594919
4.4926749
3.0491155
0.54135379
0.00012717554
6.9968832e-06
0.049685726
0.31262998
0.47253431
0.51394583
0.52096299
0.52093983
0.51989252
0.51902608
0.51856877
0.51856003
0.51900043
0.51985191
0.52088685
0.52090016
0.51387605
0.47246407
0.31257999
0.049676841
6.9953795e-06
3.7003953e-07
0.0043752315
0.030748214
0.047675005
0.052141135
0.052914271
0.052924307
0.052819959
0.052731892
0.052685174
0.052684242
0.052729153
0.052815614
0.052918625
0.052907516
0.052133622
0.047667463
0.03074296
0.0043743953
3.6995544e-07
1.8858989e-08
0.00037062271
0.0029086215
0.0046261508
0.0050876504
0.0051691
0.0051713186
0.0051613459
0.0051527525
0.0051481697
0.0051480722
0.0051524658
0.0051608902
0.005170721
0.005168388
0.0050868582
0.0046253593
0.0029080833
0.00037054618
1.8854403e-08
9.2813838e-10
3.02683e-05
0.00026521892
0.00043270637
0.00047851993
0.00048674881
0.00048707627
0.00048615958
0.00048535237
0.00048491949
0.00048490951
0.00048532297
0.00048611275
0.00048701467
0.00048667525
0.00047843802
0.00043262497
0.00026516497
3.0261455e-05
9.278933e-10
4.419179e-11
2.3880288e-06
2.3358742e-05
3.9092158e-05
4.3471717e-05
4.4271095e-05
4.4311793e-05
4.4230564e-05
4.4157399e-05
4.4117939e-05
4.4116943e-05
4.4154463e-05
4.4225871e-05
4.43056e-05
4.4263676e-05
4.3463448e-05
3.9083979e-05
2.335346e-05
2.3874309e-06
4.4178972e-11
2.039102e-12
1.8233739e-07
1.9907531e-06
3.4174698e-06
3.8214934e-06
3.8963345e-06
3.900886e-06
3.8939332e-06
3.8875215e-06
3.8840431e-06
3.8839469e-06
3.8872376e-06
3.8934781e-06
3.9002829e-06
3.8956093e-06
3.8206833e-06
3.4166715e-06
1.9902502e-06
1.8228661e-07
2.0384498e-12
9.1322192e-14
1.349628e-08
1.6444901e-07
2.8957551e-07
3.2561334e-07
3.3238067e-07
3.3285225e-07
3.3227637e-07
3.3173213e-07
3.3143513e-07
3.3142619e-07
3.3170572e-07
3.3223389e-07
3.3279571e-07
3.3231238e-07
3.2553682e-07
2.8950027e-07
1.6440275e-07
1.3492107e-08
9.1291251e-14
4.0300127e-15
9.6986115e-10
1.3187135e-08
2.3818849e-08
2.6932308e-08
2.7524422e-08
2.7570412e-08
2.7524186e-08
2.7479369e-08
2.7454769e-08
2.7453973e-08
2.7477014e-08
2.7520385e-08
2.7565331e-08
2.7518255e-08
2.6925372e-08
2.3812038e-08
1.3183041e-08
9.695302e-10
3.9738837e-15
1.7820661e-16
6.775816e-11
1.027965e-09
1.9045186e-09
2.1654634e-09
2.2156801e-09
2.2199433e-09
2.2163423e-09
2.2127568e-09
2.2107774e-09
2.2107095e-09
2.2125557e-09
2.2160168e-09
2.2195063e-09
2.2151471e-09
2.1648615e-09
1.903928e-09
1.0276176e-09
6.7732873e-11
1.6834752e-16
7.990498e-18
4.6080832e-12
7.7995408e-11
1.4822094e-10
1.6946824e-10
1.7360269e-10
1.7398085e-10
1.7370827e-10
1.7342922e-10
1.732743e-10
1.7326877e-10
1.7341278e-10
1.7368159e-10
1.7394487e-10
1.7355861e-10
1.6941825e-10
1.4817192e-10
7.7967181e-11
4.6062274e-12
6.9486965e-18
3.6775815e-19
3.0541655e-13
5.7667761e-12
1.1240989e-11
1.292399e-11
1.3254916e-11
1.3287169e-11
1.3267098e-11
1.3245944e-11
1.3234137e-11
1.3233704e-11
1.3244655e-11
1.3265e-11
1.3284331e-11
1.3251423e-11
1.2920014e-11
1.1237092e-11
5.7645785e-12
3.0528584e-13
2.7974807e-19
1.7469167e-20
1.9749077e-14
4.1595109e-13
8.3165292e-13
9.6149643e-13
9.8728044e-13
9.8993516e-13
9.8849594e-13
9.8693223e-13
9.8605495e-13
9.8602231e-13
9.8683511e-13
9.8833749e-13
9.8972006e-13
9.8701476e-13
9.6119301e-13
8.313557e-13
4.15787e-13
1.9740237e-14
1.099584e-20
8.487008e-22
1.2471451e-15
2.9297712e-14
6.0084115e-14
6.9851997e-14
7.1809911e-14
7.2021401e-14
7.1920814e-14
7.1807979e-14
7.1744357e-14
7.1741989e-14
7.1800924e-14
7.1909282e-14
7.2005704e-14
7.1790466e-14
6.9829733e-14
6.0062334e-14
2.9285941e-14
1.2465705e-15
4.2236533e-22
4.1003459e-23
7.698497e-17
2.0170345e-15
4.2429052e-15
4.9601659e-15
5.1052223e-15
5.1215685e-15
5.1147109e-15
5.1067553e-15
5.1022473e-15
5.1020811e-15
5.1062599e-15
5.1139001e-15
5.1204629e-15
5.1038499e-15
4.9585917e-15
4.2413683e-15
2.0162219e-15
7.6949041e-17
1.5867891e-23
1.8666279e-24
4.6493079e-18
1.3584974e-16
2.9311024e-16
3.4457018e-16
3.5506611e-16
3.562943e-16
3.5583791e-16
3.5528931e-16
3.5497694e-16
3.5496564e-16
3.5525561e-16
3.5578271e-16
3.5621897e-16
3.5497248e-16
3.444627e-16
2.9300559e-16
1.3579563e-16
4.6471453e-18
5.8353532e-25
7.0497719e-26
2.7492403e-19
8.9582268e-18
1.9825073e-17
2.3435567e-17
2.4177994e-17
2.4267855e-17
2.4238184e-17
2.4201154e-17
2.4179968e-17
2.4179221e-17
2.4198928e-17
2.4234537e-17
2.4262877e-17
2.4171807e-17
2.3428468e-17
1.9818184e-17
8.9547451e-18
2.7479883e-19
2.1020981e-26
1.942869e-27
1.5929552e-20
5.7880346e-19
1.3138424e-18
1.5617739e-18
1.6131562e-18
1.6195679e-18
1.6176824e-18
1.6152339e-18
1.6138261e-18
1.6137781e-18
1.6150907e-18
1.617448e-18
1.6192483e-18
1.6127596e-18
1.5613195e-18
1.3134034e-18
5.7858666e-19
1.5922599e-20
7.4229041e-28
5.4581905e-29
9.0503277e-22
3.6668353e-20
8.5373491e-20
1.0204994e-19
1.0553213e-19
1.0597884e-19
1.0586168e-19
1.0570294e-19
1.0561124e-19
1.0560822e-19
1.0569396e-19
1.05847e-19
1.0595888e-19
1.0550742e-19
1.0202171e-19
8.5346358e-20
3.6655273e-20
9.0465796e-22
2.5709978e-29
1.5623382e-30
5.0450698e-23
2.2792098e-21
5.4430112e-21
6.5425316e-21
6.7737975e-21
6.8042232e-21
6.7971002e-21
6.7870043e-21
6.7811426e-21
6.7809577e-21
6.7864538e-21
6.7962027e-21
6.8030068e-21
6.7722984e-21
6.5408275e-21
5.4413843e-21
2.2784445e-21
5.0431077e-23
8.7392198e-31
4.5447571e-32
2.7609202e-24
1.3908025e-22
3.4068718e-22
4.1179873e-22
4.2686214e-22
4.2889043e-22
4.2846667e-22
4.2783627e-22
4.2746841e-22
4.2745731e-22
4.2780326e-22
4.28413e-22
4.2881802e-22
4.2677347e-22
4.1169865e-22
3.4059243e-22
1.3903679e-22
2.7599222e-24
2.9166756e-32
)
;

boundaryField
{
    Wall
    {
        type            zeroGradient;
    }
    frontAndBack
    {
        type            empty;
    }
    atmosphere
    {
        type            zeroGradient;
    }
}


// ************************************************************************* //
