/*--------------------------------*- C++ -*----------------------------------*\
| =========                 |                                                 |
| \\      /  F ield         | OpenFOAM: The Open Source CFD Toolbox           |
|  \\    /   O peration     | Version:  3.0.1                                 |
|   \\  /    A nd           | Web:      www.OpenFOAM.org                      |
|    \\/     M anipulation  |                                                 |
\*---------------------------------------------------------------------------*/
FoamFile
{
    version     2.0;
    format      ascii;
    class       surfaceScalarField;
    location    "8";
    object      phi;
}
// * * * * * * * * * * * * * * * * * * * * * * * * * * * * * * * * * * * * * //

dimensions      [0 3 -1 0 0 0 0];

internalField   nonuniform List<scalar> 
1540
(
-3.1114249e-11
4.779183e-08
-2.2593242e-11
4.8059404e-08
-7.5547861e-12
4.8142885e-08
-1.3272113e-13
4.8196063e-08
2.3228421e-12
4.8234696e-08
2.6476295e-12
4.8263263e-08
2.1896131e-12
4.8283946e-08
1.4934037e-12
4.8298356e-08
7.4900267e-13
4.8307487e-08
3.5776667e-15
4.8311916e-08
-7.4191402e-13
4.8311915e-08
-1.4866624e-12
4.8307485e-08
-2.1833421e-12
4.8298352e-08
-2.64194e-12
4.828394e-08
-2.317682e-12
4.8263256e-08
1.3742274e-13
4.8234687e-08
7.55898e-12
4.8196052e-08
2.2596189e-11
4.8142873e-08
3.1115712e-11
4.805939e-08
4.7791813e-08
1.8820452e-11
7.0193511e-08
5.5966178e-11
7.0368309e-08
6.081304e-11
7.0388576e-08
5.2927116e-11
7.0393892e-08
4.213081e-11
7.0394526e-08
3.1718846e-11
7.0393556e-08
2.2487993e-11
7.0392058e-08
1.435874e-11
7.0390715e-08
6.9955824e-12
7.0389773e-08
2.4595898e-15
7.0389305e-08
-6.9907055e-12
7.0389304e-08
-1.4354103e-11
7.0389769e-08
-2.2483727e-11
7.039071e-08
-3.171471e-11
7.0392051e-08
-4.2126863e-11
7.0393547e-08
-5.2923526e-11
7.0394516e-08
-6.0810468e-11
7.039388e-08
-5.5964396e-11
7.0388564e-08
-1.8820285e-11
7.0368297e-08
7.0193498e-08
5.7626112e-11
8.7437859e-08
8.3458175e-11
8.7562743e-08
7.9259207e-11
8.7423316e-08
6.4114275e-11
8.7316985e-08
4.7939946e-11
8.7237769e-08
3.4960608e-11
8.7176904e-08
2.439402e-11
8.7132535e-08
1.5456837e-11
8.7101424e-08
7.5009154e-12
8.7081635e-08
3.9168274e-15
8.7072022e-08
-7.4932562e-12
8.7072031e-08
-1.5449781e-11
8.7081661e-08
-2.4387526e-11
8.7101467e-08
-3.4954436e-11
8.7132592e-08
-4.7933691e-11
8.7176974e-08
-6.4104496e-11
8.7237848e-08
-7.9253749e-11
8.7317081e-08
-8.3455154e-11
8.7423417e-08
-5.7625494e-11
8.7562849e-08
8.7437968e-08
4.9218723e-11
7.6070347e-08
6.5910531e-11
8.2239515e-08
6.0186628e-11
8.3129028e-08
4.7102003e-11
8.3234983e-08
3.4958599e-11
8.3204012e-08
2.5382607e-11
8.3159326e-08
1.761962e-11
8.3123647e-08
1.1143256e-11
8.3098334e-08
5.4132756e-12
8.3082247e-08
2.6998754e-14
8.3074413e-08
-5.3639274e-12
8.3074411e-08
-1.1096993e-11
8.3082241e-08
-1.7577548e-11
8.3098327e-08
-2.5344488e-11
8.3123637e-08
-3.4924698e-11
8.3159313e-08
-4.7071266e-11
8.3203991e-08
-6.0158825e-11
8.3234961e-08
-6.5891656e-11
8.3128994e-08
-4.9211775e-11
8.2239481e-08
7.607035e-08
7.3693128e-11
5.7902573e-08
1.0692784e-10
8.3698009e-08
1.0502049e-10
9.1401281e-08
8.8401419e-11
9.3415057e-08
6.9509155e-11
9.3829594e-08
5.2408975e-11
9.3871551e-08
3.7402735e-11
9.3848103e-08
2.4104503e-11
9.3822465e-08
1.1905286e-11
9.3804968e-08
2.2878817e-13
9.3796379e-08
-1.1456678e-11
9.3796358e-08
-2.368259e-11
9.3804906e-08
-3.7018802e-11
9.3822365e-08
-5.2067234e-11
9.3847969e-08
-6.9209892e-11
9.387138e-08
-8.8144025e-11
9.3829375e-08
-1.0480834e-10
9.3414788e-08
-1.067759e-10
9.140096e-08
-7.3614651e-11
8.3697683e-08
5.7902385e-08
1.8971238e-10
3.9915743e-08
2.9899622e-10
8.367722e-08
3.2604503e-10
1.0022394e-07
3.0116291e-10
1.0508133e-07
2.5317231e-10
1.0622201e-07
1.9907595e-10
1.0642038e-07
1.459495e-10
1.0642584e-07
9.5642293e-11
1.0640461e-07
4.7773544e-11
1.0638751e-07
1.1948227e-12
1.0637886e-07
-4.5429708e-11
1.0637881e-07
-9.3427356e-11
1.0638736e-07
-1.4392507e-10
1.0640437e-07
-1.972779e-10
1.0642552e-07
-2.5161909e-10
1.0641998e-07
-2.9987039e-10
1.0622152e-07
-3.2503802e-10
1.0508073e-07
-2.983047e-10
1.0022326e-07
-1.8935746e-10
8.3676544e-08
3.9915361e-08
2.3831179e-10
3.6757019e-08
3.919961e-10
8.6223289e-08
4.431779e-10
1.0719103e-07
4.2129308e-10
1.1375964e-07
3.6212132e-10
1.1537933e-07
2.8944663e-10
1.1568334e-07
2.1468311e-10
1.1570519e-07
1.4178267e-10
1.1568306e-07
7.117457e-11
1.1566322e-07
1.8874952e-12
1.1565294e-07
-6.7470075e-11
1.1565285e-07
-1.3827794e-10
1.1566297e-07
-2.1147876e-10
1.1568267e-07
-2.866093e-10
1.1570469e-07
-3.5969396e-10
1.1568273e-07
-4.1931335e-10
1.153786e-07
-4.416871e-10
1.1375879e-07
-3.9102269e-10
1.0719009e-07
-2.3784411e-10
8.6222399e-08
3.6756559e-08
2.2080918e-10
3.6540831e-08
3.7872534e-10
8.801234e-08
4.4352121e-10
1.1089425e-07
4.3357302e-10
1.183148e-07
3.8115941e-10
1.2019642e-07
3.1010056e-10
1.2056304e-07
2.3305887e-10
1.2059535e-07
1.5533757e-10
1.2057241e-07
7.8450662e-11
1.2055033e-07
2.2291343e-12
1.2053865e-07
-7.4071701e-11
1.2053854e-07
-1.5118594e-10
1.2054999e-07
-2.2925686e-10
1.2057188e-07
-3.0674099e-10
1.2059467e-07
-3.7831363e-10
1.2056224e-07
-4.3130398e-10
1.2019552e-07
-4.4188128e-10
1.183138e-07
-3.777226e-10
1.1089321e-07
-2.2036781e-10
8.8011418e-08
3.6540399e-08
1.7523562e-10
3.6595523e-08
3.1217593e-10
8.8786461e-08
3.7871107e-10
1.1244299e-07
3.8140817e-10
1.2025061e-07
3.4376408e-10
1.2226569e-07
2.8537101e-10
1.2267033e-07
2.1779517e-10
1.2271217e-07
1.4675344e-10
1.2269095e-07
7.4664407e-11
1.2266865e-07
2.3227347e-12
1.2265658e-07
-7.0094036e-11
1.2265643e-07
-1.4240156e-10
1.2266821e-07
-2.1379015e-10
1.2269027e-07
-2.8182511e-10
1.2271133e-07
-3.4077703e-10
1.2266937e-07
-3.7906981e-10
1.2226467e-07
-3.7708246e-10
1.2024957e-07
-3.1123939e-10
1.1244199e-07
-1.7485482e-10
8.8785655e-08
3.6595181e-08
1.2787179e-10
3.6611522e-08
2.351375e-10
8.9025406e-08
2.9483697e-10
1.1296252e-07
3.0599076e-10
1.2093009e-07
2.8308054e-10
1.2301075e-07
2.4010481e-10
1.2344026e-07
1.8632048e-10
1.2349204e-07
1.2705491e-10
1.2347502e-07
6.51872e-11
1.2345448e-07
2.2643041e-12
1.2344303e-07
-6.0719506e-11
1.2344285e-07
-1.2276887e-10
1.2345396e-07
-1.8233622e-10
1.2347422e-07
-2.365444e-10
1.2349105e-07
-2.8006739e-10
1.2343916e-07
-3.0363992e-10
1.2300963e-07
-2.9322116e-10
1.2092904e-07
-2.3422653e-10
1.1296162e-07
-1.2750525e-10
8.9024757e-08
3.6611266e-08
8.9573652e-11
3.6603803e-08
1.6884849e-10
8.9068819e-08
2.1795341e-10
1.1309486e-07
2.3269364e-10
1.2112461e-07
2.2080962e-10
1.2323871e-07
1.9131382e-10
1.2368609e-07
1.509484e-10
1.2374787e-07
1.0419e-10
1.237365e-07
5.3932931e-11
1.2371899e-07
2.1201166e-12
1.2370885e-07
-4.9733086e-11
1.2370864e-07
-1.0011584e-10
1.237184e-07
-1.470999e-10
1.2373559e-07
-1.8781205e-10
1.2374674e-07
-2.1779279e-10
1.2368485e-07
-2.3029849e-10
1.2323748e-07
-2.1627085e-10
1.211235e-07
-1.6786149e-10
1.1309399e-07
-8.9146579e-11
8.9068256e-08
3.6603576e-08
6.1884486e-11
3.6592531e-08
1.1880529e-10
8.9060517e-08
1.570824e-10
1.1311105e-07
1.7194358e-10
1.2116564e-07
1.6696596e-10
1.2329881e-07
1.4752403e-10
1.2375986e-07
1.1821597e-10
1.2383097e-07
8.2539837e-11
1.2382562e-07
4.3105984e-11
1.2381167e-07
1.9296141e-12
1.2380316e-07
-3.9263782e-11
1.2380294e-07
-7.8758334e-11
1.2381104e-07
-1.1456732e-10
1.2382465e-07
-1.4411858e-10
1.2382974e-07
-1.6394717e-10
1.2375849e-07
-1.6946479e-10
1.2329745e-07
-1.5525948e-10
1.2116441e-07
-1.1765949e-10
1.1311009e-07
-6.1343394e-11
8.90599e-08
3.6592255e-08
4.2813391e-11
3.6583451e-08
8.3250817e-11
8.9044969e-08
1.1216012e-10
1.1310129e-07
1.2533733e-10
1.2116732e-07
1.241225e-10
1.2331278e-07
1.1154608e-10
1.2378446e-07
9.0611748e-11
1.2386371e-07
6.3922101e-11
1.2386404e-07
3.3667121e-11
1.2385362e-07
1.7178584e-12
1.238468e-07
-3.0225932e-11
1.2384659e-07
-6.0478607e-11
1.23853e-07
-8.7208008e-11
1.2386306e-07
-1.0827572e-10
1.2386245e-07
-1.2112659e-10
1.2378303e-07
-1.2278053e-10
1.2331129e-07
-1.1018584e-10
1.2116593e-07
-8.1932148e-11
1.1310015e-07
-4.215401e-11
8.9044178e-08
3.6583071e-08
2.9858683e-11
3.6576851e-08
5.8561789e-11
8.9031842e-08
8.0012034e-11
1.1308917e-07
9.0879832e-11
1.2116155e-07
9.1441049e-11
1.2331554e-07
8.3335245e-11
1.2379544e-07
6.8475748e-11
1.2388142e-07
4.8739391e-11
1.238867e-07
2.5876793e-11
1.2387948e-07
1.5052798e-12
1.2387424e-07
-2.2842772e-11
1.2387405e-07
-4.5651804e-11
1.2387891e-07
-6.5350016e-11
1.2388578e-07
-8.0247534e-11
1.2388022e-07
-8.8525559e-11
1.2379402e-07
-8.8307585e-11
1.2331401e-07
-7.7950745e-11
1.2116003e-07
-5.7132853e-11
1.1308784e-07
-2.9127008e-11
8.9030839e-08
3.657636e-08
2.1018546e-11
3.6571974e-08
4.1458466e-11
8.9021714e-08
5.722123e-11
1.1307889e-07
6.5800237e-11
1.2115526e-07
6.7033082e-11
1.2331533e-07
6.1778657e-11
1.2380148e-07
5.1242095e-11
1.2389283e-07
3.6752683e-11
1.2390221e-07
1.9665151e-11
1.2389773e-07
1.3108088e-12
1.2389386e-07
-1.7008642e-11
1.238937e-07
-3.4009745e-11
1.2389725e-07
-4.8409483e-11
1.2390143e-07
-5.8918424e-11
1.2389178e-07
-6.4272023e-11
1.2380019e-07
-6.3311421e-11
1.2331387e-07
-5.5188138e-11
1.2115373e-07
-4.0032724e-11
1.1307744e-07
-2.0291245e-11
8.9020558e-08
3.6571414e-08
1.4907491e-11
3.6568175e-08
2.9519702e-11
8.9013658e-08
4.1041999e-11
1.1307032e-07
4.7631867e-11
1.2114932e-07
4.8988962e-11
1.2331375e-07
4.5549926e-11
1.2380458e-07
3.8072947e-11
1.239001e-07
2.7491481e-11
1.2391275e-07
1.4830966e-11
1.2391051e-07
1.1501707e-12
1.2390779e-07
-1.2491583e-11
1.2390768e-07
-2.505281e-11
1.2391015e-07
-3.5523111e-11
1.2391216e-07
-4.2942972e-11
1.2389926e-07
-4.6446418e-11
1.2380351e-07
-4.5325888e-11
1.2331247e-07
-3.9160606e-11
1.211479e-07
-2.8219015e-11
1.130689e-07
-1.4263398e-11
8.901247e-08
3.6567613e-08
1.0617469e-11
3.6565067e-08
2.1090865e-11
8.9006932e-08
2.9486603e-11
1.130629e-07
3.4462727e-11
1.2114364e-07
3.5709254e-11
1.2331118e-07
3.3439543e-11
1.2380548e-07
2.8133175e-11
1.2390417e-07
2.0444048e-11
1.2391937e-07
1.1136738e-11
1.239189e-07
1.0318363e-12
1.2391711e-07
-9.0357049e-12
1.2391703e-07
-1.8247965e-11
1.2391866e-07
-2.5830501e-11
1.2391895e-07
-3.1082952e-11
1.2390355e-07
-3.3418417e-11
1.2380465e-07
-3.2407237e-11
1.2331014e-07
-2.7848236e-11
1.2114243e-07
-2.0005682e-11
1.1306163e-07
-1.0112163e-11
8.9005831e-08
3.6564561e-08
7.5623788e-12
3.6562468e-08
1.5071113e-11
8.9001176e-08
2.1172728e-11
1.1305634e-07
2.4890489e-11
1.211382e-07
2.5950007e-11
1.2330796e-07
2.4448252e-11
1.2380481e-07
2.0691198e-11
1.2390588e-07
1.5137161e-11
1.2392303e-07
8.3504459e-12
1.2392393e-07
9.5418606e-13
1.2392285e-07
-6.4100721e-12
1.2392279e-07
-1.3116591e-11
1.2392376e-07
-1.8585376e-11
1.2392274e-07
-2.2313482e-11
1.2390543e-07
-2.3906865e-11
1.2380418e-07
-2.3105165e-11
1.2330714e-07
-1.9813274e-11
1.2113721e-07
-1.4237005e-11
1.1305527e-07
-7.2142767e-12
8.9000223e-08
3.6562046e-08
5.3622434e-12
3.6560329e-08
1.0730222e-11
8.899631e-08
1.5150371e-11
1.1305065e-07
1.7908509e-11
1.211332e-07
1.877575e-11
1.2330454e-07
1.7788552e-11
1.2380326e-07
1.5144138e-11
1.239061e-07
1.1164583e-11
1.2392471e-07
6.2629003e-12
1.2392664e-07
9.0463575e-13
1.239261e-07
-4.428084e-12
1.2392605e-07
-9.2674266e-12
1.2392649e-07
-1.3188241e-11
1.2392445e-07
-1.5835658e-11
1.239057e-07
-1.694834e-11
1.2380271e-07
-1.6368973e-11
1.2330384e-07
-1.4049612e-11
1.2113235e-07
-1.0126401e-11
1.1304971e-07
-5.1529605e-12
8.8995475e-08
3.6559969e-08
3.7669234e-12
3.6558651e-08
7.57954e-12
8.8992386e-08
1.0765323e-11
1.1304595e-07
1.2799116e-11
1.2112894e-07
1.3494129e-11
1.233014e-07
1.2855973e-11
1.2380148e-07
1.101301e-11
1.2390563e-07
8.192421e-12
1.2392532e-07
4.6944453e-12
1.2392802e-07
8.6171892e-13
1.2392786e-07
-2.9503976e-12
1.2392779e-07
-6.4000782e-12
1.2392782e-07
-9.1825077e-12
1.2392498e-07
-1.1053115e-11
1.2390514e-07
-1.1842244e-11
1.2380084e-07
-1.1455714e-11
1.2330063e-07
-9.8648803e-12
1.2112804e-07
-7.1453195e-12
1.13045e-07
-3.6529148e-12
8.8991558e-08
3.6558297e-08
2.60803e-12
3.6557438e-08
5.2862532e-12
8.8989462e-08
7.5629338e-12
1.1304238e-07
9.0501359e-12
1.2112564e-07
9.5971385e-12
1.2329892e-07
9.1947145e-12
1.2379998e-07
7.927312e-12
1.2390509e-07
5.9558642e-12
1.2392558e-07
3.4972675e-12
1.2392883e-07
8.005392e-13
1.2392894e-07
-1.8774877e-12
1.2392884e-07
-4.2929247e-12
1.2392852e-07
-6.2333254e-12
1.2392507e-07
-7.5353707e-12
1.2390438e-07
-8.0933115e-12
1.2379909e-07
-7.8528029e-12
1.2329788e-07
-6.7932405e-12
1.2112451e-07
-4.9467458e-12
1.1304123e-07
-2.5375477e-12
8.8988483e-08
3.6557015e-08
1.7684617e-12
3.6556662e-08
3.61845e-12
8.898752e-08
5.222552e-12
1.1303996e-07
6.2943301e-12
1.2112342e-07
6.7138034e-12
1.2329728e-07
6.4659326e-12
1.2379908e-07
5.6071475e-12
1.2390489e-07
4.2520243e-12
1.2392596e-07
2.5565412e-12
1.2392962e-07
6.9942289e-13
1.2392991e-07
-1.1373949e-12
1.2392976e-07
-2.7845613e-12
1.2392916e-07
-4.0993019e-12
1.2392521e-07
-4.9777488e-12
1.2390386e-07
-5.35874e-12
1.2379781e-07
-5.214232e-12
1.2329583e-07
-4.5290624e-12
1.2112187e-07
-3.3101163e-12
1.1303843e-07
-1.6979508e-12
8.8986241e-08
3.6556101e-08
1.1640428e-12
3.6556252e-08
2.4101492e-12
8.8986439e-08
3.5142946e-12
1.130386e-07
4.26676e-12
1.2112221e-07
4.5741381e-12
1.232965e-07
4.4210004e-12
1.2379883e-07
3.8462383e-12
1.2390516e-07
2.9318467e-12
1.2392667e-07
1.7893773e-12
1.2393062e-07
5.4552966e-13
1.2393104e-07
-6.7361322e-13
1.2393083e-07
-1.7541973e-12
1.2393e-07
-2.6047132e-12
1.2392566e-07
-3.1639933e-12
1.2390379e-07
-3.4019444e-12
1.2379715e-07
-3.3086941e-12
1.2329458e-07
-2.875425e-12
1.2112015e-07
-2.0991186e-12
1.1303657e-07
-1.0695402e-12
8.8984762e-08
3.6555514e-08
7.3243453e-13
3.6556106e-08
1.5395239e-12
8.8986012e-08
2.2706309e-12
1.1303805e-07
2.7749638e-12
1.211218e-07
2.98233e-12
1.2329642e-07
2.8802702e-12
1.2379915e-07
2.4967834e-12
1.2390587e-07
1.890734e-12
1.239277e-07
1.1416295e-12
1.2393186e-07
3.3764778e-13
1.2393238e-07
-4.3593694e-13
1.2393213e-07
-1.1054183e-12
1.2393112e-07
-1.6156803e-12
1.2392648e-07
-1.9353183e-12
1.239042e-07
-2.0551863e-12
1.2379709e-07
-1.9783662e-12
1.2329404e-07
-1.7038873e-12
1.2111923e-07
-1.2290203e-12
1.1303552e-07
-6.1426134e-13
8.8983919e-08
3.6555188e-08
4.2608989e-13
3.6556111e-08
9.1502671e-13
8.8985982e-08
1.3675321e-12
1.1303801e-07
1.6781248e-12
1.2112189e-07
1.7968177e-12
1.2329676e-07
1.7155973e-12
1.2379979e-07
1.4556161e-12
1.239068e-07
1.0593556e-12
1.2392888e-07
5.8266003e-13
1.2393322e-07
8.577539e-14
1.2393382e-07
-3.7534531e-13
1.2393355e-07
-7.5506049e-13
1.2393241e-07
-1.0231091e-12
1.2392753e-07
-1.167153e-12
1.2390495e-07
-1.1915527e-12
1.2379747e-07
-1.1082316e-12
1.2329406e-07
-9.23957e-13
1.2111894e-07
-6.420437e-13
1.1303506e-07
-3.0602195e-13
8.8983541e-08
3.655505e-08
2.087932e-13
3.6556163e-08
4.6763344e-13
8.8986102e-08
7.1264626e-13
1.1303818e-07
8.7285133e-13
1.2112217e-07
9.152636e-13
1.2329723e-07
8.3623945e-13
1.2380049e-07
6.5231402e-13
1.2390773e-07
3.938384e-13
1.2393e-07
9.9307072e-14
1.2393449e-07
-1.9117414e-13
1.2393517e-07
-4.4238748e-13
1.2393489e-07
-6.277203e-13
1.2393367e-07
-7.3222069e-13
1.2392864e-07
-7.5478619e-13
1.2390583e-07
-7.0675747e-13
1.2379809e-07
-6.0502511e-13
1.2329439e-07
-4.6279353e-13
1.2111901e-07
-2.9097193e-13
1.1303498e-07
-1.2275878e-13
8.8983447e-08
3.6555022e-08
5.3287895e-14
3.6556186e-08
1.4585062e-13
8.8986169e-08
2.3770912e-13
1.1303829e-07
2.8350535e-13
1.2112238e-07
2.6352675e-13
1.2329758e-07
1.7769492e-13
1.2380102e-07
3.8578113e-14
1.2390844e-07
-1.3269179e-13
1.2393087e-07
-3.1048314e-13
1.2393549e-07
-4.6947161e-13
1.2393624e-07
-5.8894372e-13
1.2393599e-07
-6.540938e-13
1.2393473e-07
-6.5857766e-13
1.239296e-07
-6.0585898e-13
1.2390665e-07
-5.0893662e-13
1.2379871e-07
-3.8579343e-13
1.2329481e-07
-2.5367478e-13
1.2111924e-07
-1.2988769e-13
1.1303508e-07
-4.1145951e-14
8.8983481e-08
3.6555041e-08
-6.0109194e-14
3.6556135e-08
-8.7895443e-14
8.8986063e-08
-1.0712359e-13
1.1303819e-07
-1.4526219e-13
1.2112234e-07
-2.1244059e-13
1.2329766e-07
-3.0685276e-13
1.2380123e-07
-4.1964067e-13
1.2390879e-07
-5.3727192e-13
1.2393136e-07
-6.4409708e-13
1.2393609e-07
-7.2576199e-13
1.2393692e-07
-7.7130772e-13
1.2393671e-07
-7.7297683e-13
1.2393545e-07
-7.2749751e-13
1.2393028e-07
-6.3808481e-13
1.2390724e-07
-5.1477161e-13
1.2379919e-07
-3.7296733e-13
1.2329515e-07
-2.3104966e-13
1.2111946e-07
-1.10844e-13
1.1303518e-07
-3.5310598e-14
8.8983531e-08
3.6555063e-08
-1.4455903e-13
3.6555997e-08
-2.5946094e-13
8.8985745e-08
-3.5723305e-13
1.1303782e-07
-4.5344942e-13
1.2112201e-07
-5.5245493e-13
1.2329741e-07
-6.5218922e-13
1.2380109e-07
-7.4791214e-13
1.2390877e-07
-8.3267625e-13
1.2393145e-07
-8.9904988e-13
1.2393627e-07
-9.4090307e-13
1.2393719e-07
-9.5381287e-13
1.2393703e-07
-9.3330867e-13
1.2393579e-07
-8.7552857e-13
1.2393061e-07
-7.7959987e-13
1.2390753e-07
-6.4921165e-13
1.2379943e-07
-4.9406523e-13
1.2329533e-07
-3.3118622e-13
1.2111956e-07
-1.8509866e-13
1.1303522e-07
-7.8148162e-14
8.898354e-08
3.6555072e-08
-2.077273e-13
3.6555787e-08
-3.8516544e-13
8.8985249e-08
-5.3619215e-13
1.1303722e-07
-6.6904076e-13
1.2112141e-07
-7.8551042e-13
1.2329688e-07
-8.8502758e-13
1.2380064e-07
-9.6692319e-13
1.2390841e-07
-1.0306611e-12
1.2393119e-07
-1.075715e-12
1.239361e-07
-1.102452e-12
1.2393709e-07
-1.1103394e-12
1.2393699e-07
-1.0956447e-12
1.2393579e-07
-1.0515291e-12
1.2393063e-07
-9.704777e-13
1.2390756e-07
-8.4748731e-13
1.2379945e-07
-6.8463346e-13
1.2329533e-07
-4.9563048e-13
1.2111954e-07
-3.0688468e-13
1.1303518e-07
-1.4412008e-13
8.8983506e-08
3.6555068e-08
-2.5269653e-13
3.6555542e-08
-4.7305395e-13
8.8984652e-08
-6.5763022e-13
1.1303648e-07
-8.1004833e-13
1.2112066e-07
-9.3221714e-13
1.2329618e-07
-1.0257472e-12
1.2380001e-07
-1.0943828e-12
1.2390786e-07
-1.1433565e-12
1.2393071e-07
-1.1784695e-12
1.239357e-07
-1.2048373e-12
1.2393675e-07
-1.2243944e-12
1.2393671e-07
-1.2324013e-12
1.2393556e-07
-1.217535e-12
1.2393044e-07
-1.164207e-12
1.239074e-07
-1.0579259e-12
1.2379932e-07
-8.9192944e-13
1.2329522e-07
-6.757087e-13
1.2111944e-07
-4.382048e-13
1.1303511e-07
-2.1242381e-13
8.8983459e-08
3.6555064e-08
-2.7896524e-13
3.6555297e-08
-5.2468466e-13
8.8984045e-08
-7.2688256e-13
1.1303572e-07
-8.8637538e-13
1.2111989e-07
-1.0058198e-12
1.2329544e-07
-1.089558e-12
1.2379934e-07
-1.1451783e-12
1.2390725e-07
-1.1831367e-12
1.2393017e-07
-1.2146433e-12
1.2393522e-07
-1.2486821e-12
1.2393633e-07
-1.2883431e-12
1.2393634e-07
-1.3272046e-12
1.2393524e-07
-1.3485317e-12
1.2393017e-07
-1.3286561e-12
1.2390718e-07
-1.2434342e-12
1.2379914e-07
-1.0776691e-12
1.2329508e-07
-8.3673366e-13
1.2111934e-07
-5.5289746e-13
1.1303505e-07
-2.6973301e-13
8.8983442e-08
3.6555075e-08
-2.8340744e-13
3.6555079e-08
-5.3656077e-13
8.8983501e-08
-7.4334409e-13
1.1303504e-07
-9.0138416e-13
1.211192e-07
-1.0138469e-12
1.2329479e-07
-1.0870492e-12
1.2379875e-07
-1.1313896e-12
1.2390672e-07
-1.161777e-12
1.239297e-07
-1.1935505e-12
1.2393479e-07
-1.2389004e-12
1.2393595e-07
-1.3015316e-12
1.23936e-07
-1.3728324e-12
1.2393495e-07
-1.4309871e-12
1.2392993e-07
-1.4448437e-12
1.2390699e-07
-1.38189e-12
1.2379901e-07
-1.2196718e-12
1.23295e-07
-9.6016488e-13
1.2111931e-07
-6.3930125e-13
1.1303506e-07
-3.1157958e-13
8.8983482e-08
3.6555109e-08
-2.6104599e-13
3.6554898e-08
-5.0222024e-13
8.8983059e-08
-7.0225665e-13
1.130345e-07
-8.5428046e-13
1.2111866e-07
-9.5999139e-13
1.2329431e-07
-1.0255358e-12
1.2379832e-07
-1.0630443e-12
1.2390635e-07
-1.0899752e-12
1.2392937e-07
-1.1251858e-12
1.239345e-07
-1.1830797e-12
1.239357e-07
-1.2677674e-12
1.2393579e-07
-1.3687999e-12
1.2393478e-07
-1.4601685e-12
1.239298e-07
-1.5052361e-12
1.2390691e-07
-1.4649555e-12
1.2379898e-07
-1.311517e-12
1.2329503e-07
-1.0439279e-12
1.2111939e-07
-7.0028374e-13
1.1303515e-07
-3.4224795e-13
8.8983578e-08
3.6555159e-08
-2.0431696e-13
3.6554729e-08
-4.1168609e-13
8.8982697e-08
-5.9613639e-13
1.1303411e-07
-7.4217892e-13
1.2111831e-07
-8.4602473e-13
1.2329402e-07
-9.1106907e-13
1.2379809e-07
-9.4871279e-13
1.2390617e-07
-9.7788783e-13
1.2392922e-07
-1.019645e-12
1.2393439e-07
-1.0899328e-12
1.2393561e-07
-1.1934737e-12
1.2393573e-07
-1.3186499e-12
1.2393475e-07
-1.4377126e-12
1.2392981e-07
-1.5106529e-12
1.2390697e-07
-1.4952107e-12
1.2379909e-07
-1.3599438e-12
1.2329519e-07
-1.1003272e-12
1.2111956e-07
-7.5156318e-13
1.1303532e-07
-3.7412967e-13
8.8983689e-08
3.6555196e-08
-9.9950824e-14
3.6554455e-08
-2.4930899e-13
8.8982246e-08
-4.1463722e-13
1.1303376e-07
-5.6193528e-13
1.211181e-07
-6.7486849e-13
1.232939e-07
-7.5033541e-13
1.2379803e-07
-7.9754134e-13
1.2390614e-07
-8.3571613e-13
1.2392923e-07
-8.8681708e-13
1.2393441e-07
-9.6835415e-13
1.2393565e-07
-1.0857937e-12
1.2393579e-07
-1.2281761e-12
1.2393483e-07
-1.3682957e-12
1.2392993e-07
-1.4666907e-12
1.2390714e-07
-1.4815695e-12
1.237993e-07
-1.3800825e-12
1.2329543e-07
-1.1521654e-12
1.2111979e-07
-8.2050082e-13
1.1303544e-07
-4.2778102e-13
8.8983642e-08
3.6555099e-08
7.3732929e-14
3.6553646e-08
8.16801e-15
8.8981088e-08
-1.4634286e-13
1.1303305e-07
-3.1418726e-13
1.2111781e-07
-4.5418816e-13
1.2329383e-07
-5.5401855e-13
1.2379805e-07
-6.2095843e-13
1.239062e-07
-6.7418218e-13
1.239293e-07
-7.3654995e-13
1.2393449e-07
-8.2659429e-13
1.2393574e-07
-9.5165871e-13
1.2393589e-07
-1.1031936e-12
1.2393496e-07
-1.2573094e-12
1.2393009e-07
-1.3794887e-12
1.2390733e-07
-1.4332634e-12
1.2379953e-07
-1.388394e-12
1.2329565e-07
-1.2266101e-12
1.2111987e-07
-9.4265169e-13
1.1303513e-07
-5.3191414e-13
8.8982826e-08
3.6554432e-08
3.3567636e-13
3.6550824e-08
3.7668744e-13
8.8977138e-08
2.0809331e-13
1.1303067e-07
-1.2862317e-14
1.2111686e-07
-2.0287228e-13
1.2329355e-07
-3.404037e-13
1.23798e-07
-4.3445269e-13
1.2390622e-07
-5.0608472e-13
1.2392933e-07
-5.7916689e-13
1.2393451e-07
-6.7344267e-13
1.2393576e-07
-7.9870586e-13
1.2393592e-07
-9.5034879e-13
1.23935e-07
-1.1105819e-12
1.2393017e-07
-1.2538329e-12
1.2390744e-07
-1.3550983e-12
1.2379963e-07
-1.3931941e-12
1.2329559e-07
-1.341633e-12
1.2111921e-07
-1.1464993e-12
1.1303309e-07
-7.1110755e-13
8.8979162e-08
3.6551727e-08
6.563725e-13
3.6544517e-08
8.1246147e-13
8.8967694e-08
6.0147358e-13
1.1302442e-07
2.9740301e-13
1.2111417e-07
4.1291035e-14
1.2329265e-07
-1.3930013e-13
1.2379772e-07
-2.6087546e-13
1.2390611e-07
-3.492839e-13
1.2392924e-07
-4.2970586e-13
1.2393442e-07
-5.2304939e-13
1.2393566e-07
-6.4137868e-13
1.2393582e-07
-7.8469266e-13
1.2393492e-07
-9.4254652e-13
1.239301e-07
-1.1008524e-12
1.2390737e-07
-1.2510885e-12
1.2379944e-07
-1.3881403e-12
1.2329485e-07
-1.48047e-12
1.2111674e-07
-1.4081907e-12
1.1302709e-07
-9.4517708e-13
8.8969939e-08
3.6545504e-08
9.0858671e-13
1.1576456e-12
9.0512472e-13
5.2689224e-13
2.1630047e-13
3.3774617e-15
-1.3702667e-13
-2.3574748e-13
-3.1914498e-13
-4.0854302e-13
-5.1763294e-13
-6.496772e-13
-8.0049218e-13
-9.6544582e-13
-1.1507798e-12
-1.3676545e-12
-1.5825948e-12
-1.6166213e-12
-1.1304325e-12
)
;

boundaryField
{
    Wall
    {
        type            calculated;
        value           uniform 0;
    }
    frontAndBack
    {
        type            empty;
        value           nonuniform 0();
    }
    atmosphere
    {
        type            calculated;
        value           nonuniform List<scalar> 
20
(
3.6540362e-08
8.8961331e-08
1.1302002e-07
1.2111219e-07
1.2329197e-07
1.2379753e-07
1.2390604e-07
1.2392919e-07
1.2393434e-07
1.2393557e-07
1.2393572e-07
1.239348e-07
1.2393006e-07
1.2390728e-07
1.2379925e-07
1.2329422e-07
1.2111486e-07
1.1302279e-07
8.8963692e-08
3.6541442e-08
)
;
    }
}


// ************************************************************************* //
