/*--------------------------------*- C++ -*----------------------------------*\
| =========                 |                                                 |
| \\      /  F ield         | OpenFOAM: The Open Source CFD Toolbox           |
|  \\    /   O peration     | Version:  3.0.1                                 |
|   \\  /    A nd           | Web:      www.OpenFOAM.org                      |
|    \\/     M anipulation  |                                                 |
\*---------------------------------------------------------------------------*/
FoamFile
{
    version     2.0;
    format      ascii;
    class       volScalarField;
    location    "8";
    object      thermalDiff_gas;
}
// * * * * * * * * * * * * * * * * * * * * * * * * * * * * * * * * * * * * * //

dimensions      [0 2 -1 0 0 0 0];

internalField   nonuniform List<scalar> 
800
(
0.00024469948
0.00024469951
0.00024469948
0.00024469948
0.00024469947
0.00024469947
0.00024469947
0.00024469946
0.00024469946
0.00024469946
0.00024469946
0.00024469946
0.00024469946
0.00024469947
0.00024469947
0.00024469947
0.00024469948
0.00024469948
0.00024469951
0.00024469948
0.00023390356
0.00023394493
0.00023395209
0.00023395595
0.00023395865
0.00023396055
0.00023396188
0.00023396276
0.0002339633
0.00023396355
0.00023396355
0.0002339633
0.00023396276
0.00023396188
0.00023396055
0.00023395865
0.00023395595
0.00023395208
0.00023394493
0.00023390356
0.00023189844
0.00023189837
0.00023190135
0.00023190476
0.00023190786
0.00023191039
0.00023191232
0.00023191369
0.00023191455
0.00023191497
0.00023191497
0.00023191455
0.00023191369
0.00023191232
0.00023191039
0.00023190785
0.00023190476
0.00023190135
0.00023189836
0.00023189844
0.00023095503
0.00023095588
0.00023095855
0.00023096181
0.00023096491
0.00023096753
0.00023096959
0.00023097107
0.00023097202
0.00023097249
0.00023097249
0.00023097202
0.00023097107
0.00023096959
0.00023096753
0.00023096491
0.0002309618
0.00023095855
0.00023095588
0.00023095503
0.00023043124
0.00023043405
0.0002304378
0.00023044162
0.00023044503
0.00023044784
0.00023045
0.00023045155
0.00023045255
0.00023045303
0.00023045303
0.00023045255
0.00023045155
0.00023045
0.00023044783
0.00023044503
0.00023044162
0.0002304378
0.00023043405
0.00023043123
0.00022996714
0.00022997227
0.00022997787
0.00022998277
0.00022998676
0.00022998986
0.00022999219
0.00022999382
0.00022999486
0.00022999537
0.00022999537
0.00022999486
0.00022999382
0.00022999218
0.00022998986
0.00022998676
0.00022998277
0.00022997786
0.00022997227
0.00022996714
0.00022956281
0.00022956964
0.00022957688
0.00022958284
0.00022958741
0.00022959082
0.0002295933
0.00022959502
0.0002295961
0.00022959662
0.00022959662
0.0002295961
0.00022959502
0.0002295933
0.00022959082
0.00022958741
0.00022958284
0.00022957688
0.00022956964
0.00022956281
0.00022921552
0.0002292228
0.00022923075
0.00022923727
0.00022924218
0.00022924578
0.00022924835
0.00022925012
0.00022925122
0.00022925174
0.00022925174
0.00022925122
0.00022925012
0.00022924835
0.00022924578
0.00022924218
0.00022923727
0.00022923075
0.0002292228
0.00022921551
0.00022891937
0.00022892639
0.00022893426
0.00022894081
0.00022894577
0.0002289494
0.00022895197
0.00022895373
0.00022895483
0.00022895535
0.00022895535
0.00022895483
0.00022895373
0.00022895197
0.0002289494
0.00022894577
0.00022894081
0.00022893426
0.00022892638
0.00022891937
0.00022866813
0.00022867453
0.00022868187
0.00022868808
0.00022869285
0.00022869635
0.00022869885
0.00022870055
0.00022870161
0.00022870212
0.00022870212
0.00022870161
0.00022870055
0.00022869885
0.00022869635
0.00022869285
0.00022868808
0.00022868186
0.00022867452
0.00022866813
0.00022845578
0.00022846143
0.00022846803
0.00022847371
0.00022847812
0.00022848139
0.00022848374
0.00022848535
0.00022848635
0.00022848683
0.00022848683
0.00022848635
0.00022848535
0.00022848374
0.00022848139
0.00022847812
0.00022847371
0.00022846802
0.00022846143
0.00022845578
0.00022827672
0.00022828162
0.00022828742
0.00022829248
0.00022829645
0.00022829943
0.00022830159
0.00022830307
0.000228304
0.00022830445
0.00022830445
0.000228304
0.00022830307
0.00022830159
0.00022829943
0.00022829645
0.00022829247
0.00022828742
0.00022828162
0.00022827672
0.00022812589
0.0002281301
0.00022813513
0.00022813956
0.00022814308
0.00022814574
0.00022814769
0.00022814903
0.00022814988
0.00022815028
0.00022815028
0.00022814988
0.00022814903
0.00022814769
0.00022814574
0.00022814308
0.00022813956
0.00022813513
0.0002281301
0.00022812589
0.00022799887
0.00022800247
0.00022800679
0.00022801063
0.00022801371
0.00022801606
0.00022801778
0.00022801898
0.00022801974
0.0002280201
0.0002280201
0.00022801974
0.00022801898
0.00022801778
0.00022801605
0.00022801371
0.00022801063
0.00022800679
0.00022800247
0.00022799887
0.00022789185
0.00022789491
0.0002278986
0.00022790191
0.00022790458
0.00022790662
0.00022790814
0.0002279092
0.00022790987
0.00022791019
0.00022791019
0.00022790987
0.0002279092
0.00022790814
0.00022790662
0.00022790457
0.00022790191
0.0002278986
0.00022789491
0.00022789185
0.00022780159
0.00022780419
0.00022780734
0.00022781017
0.00022781247
0.00022781424
0.00022781556
0.00022781649
0.00022781708
0.00022781736
0.00022781736
0.00022781708
0.00022781649
0.00022781556
0.00022781424
0.00022781247
0.00022781017
0.00022780734
0.00022780419
0.00022780159
0.0002277254
0.0002277276
0.00022773028
0.0002277327
0.00022773467
0.0002277362
0.00022773735
0.00022773815
0.00022773866
0.00022773891
0.00022773891
0.00022773866
0.00022773815
0.00022773734
0.0002277362
0.00022773467
0.0002277327
0.00022773028
0.0002277276
0.0002277254
0.00022766102
0.00022766289
0.00022766517
0.00022766723
0.00022766892
0.00022767023
0.00022767121
0.00022767191
0.00022767235
0.00022767257
0.00022767257
0.00022767235
0.00022767191
0.00022767121
0.00022767023
0.00022766892
0.00022766723
0.00022766517
0.00022766289
0.00022766102
0.00022760658
0.00022760817
0.00022761011
0.00022761186
0.0002276133
0.00022761442
0.00022761527
0.00022761586
0.00022761625
0.00022761643
0.00022761643
0.00022761625
0.00022761586
0.00022761527
0.00022761442
0.0002276133
0.00022761186
0.0002276101
0.00022760817
0.00022760658
0.00022756054
0.00022756189
0.00022756353
0.00022756502
0.00022756625
0.00022756721
0.00022756793
0.00022756844
0.00022756877
0.00022756893
0.00022756893
0.00022756877
0.00022756844
0.00022756793
0.0002275672
0.00022756625
0.00022756502
0.00022756353
0.00022756188
0.00022756054
0.0002275216
0.00022752274
0.00022752413
0.0002275254
0.00022752644
0.00022752725
0.00022752787
0.00022752831
0.00022752859
0.00022752873
0.00022752873
0.00022752859
0.00022752831
0.00022752787
0.00022752725
0.00022752644
0.00022752539
0.00022752413
0.00022752273
0.00022752159
0.00022748867
0.00022748964
0.00022749082
0.00022749189
0.00022749277
0.00022749347
0.00022749399
0.00022749437
0.00022749461
0.00022749472
0.00022749472
0.00022749461
0.00022749437
0.00022749399
0.00022749347
0.00022749277
0.00022749189
0.00022749081
0.00022748963
0.00022748867
0.00022746086
0.00022746168
0.00022746267
0.00022746358
0.00022746433
0.00022746492
0.00022746537
0.00022746568
0.00022746589
0.00022746599
0.00022746599
0.00022746589
0.00022746568
0.00022746537
0.00022746492
0.00022746433
0.00022746358
0.00022746267
0.00022746168
0.00022746086
0.0002274374
0.00022743809
0.00022743893
0.0002274397
0.00022744034
0.00022744084
0.00022744121
0.00022744148
0.00022744165
0.00022744174
0.00022744174
0.00022744165
0.00022744148
0.00022744121
0.00022744084
0.00022744034
0.0002274397
0.00022743893
0.00022743809
0.0002274374
0.00022741765
0.00022741823
0.00022741895
0.00022741959
0.00022742013
0.00022742055
0.00022742087
0.00022742109
0.00022742124
0.00022742131
0.00022742131
0.00022742124
0.00022742109
0.00022742087
0.00022742055
0.00022742013
0.00022741959
0.00022741894
0.00022741823
0.00022741765
0.00022740107
0.00022740156
0.00022740215
0.0002274027
0.00022740315
0.0002274035
0.00022740377
0.00022740396
0.00022740408
0.00022740414
0.00022740414
0.00022740408
0.00022740396
0.00022740377
0.0002274035
0.00022740315
0.0002274027
0.00022740215
0.00022740156
0.00022740107
0.00022738718
0.00022738759
0.00022738809
0.00022738854
0.00022738892
0.00022738922
0.00022738944
0.0002273896
0.00022738971
0.00022738976
0.00022738976
0.00022738971
0.0002273896
0.00022738944
0.00022738922
0.00022738892
0.00022738854
0.00022738809
0.00022738759
0.00022738718
0.00022737558
0.00022737592
0.00022737634
0.00022737672
0.00022737704
0.00022737729
0.00022737747
0.00022737761
0.0002273777
0.00022737774
0.00022737774
0.0002273777
0.00022737761
0.00022737747
0.00022737729
0.00022737704
0.00022737672
0.00022737634
0.00022737592
0.00022737558
0.00022736594
0.00022736623
0.00022736657
0.00022736689
0.00022736715
0.00022736736
0.00022736752
0.00022736763
0.0002273677
0.00022736774
0.00022736774
0.0002273677
0.00022736763
0.00022736752
0.00022736736
0.00022736715
0.00022736689
0.00022736657
0.00022736623
0.00022736594
0.00022735796
0.0002273582
0.00022735848
0.00022735875
0.00022735896
0.00022735914
0.00022735927
0.00022735936
0.00022735942
0.00022735945
0.00022735945
0.00022735942
0.00022735936
0.00022735927
0.00022735914
0.00022735896
0.00022735875
0.00022735848
0.0002273582
0.00022735796
0.00022735139
0.00022735158
0.00022735182
0.00022735204
0.00022735222
0.00022735236
0.00022735246
0.00022735254
0.00022735259
0.00022735262
0.00022735262
0.00022735259
0.00022735254
0.00022735246
0.00022735236
0.00022735222
0.00022735204
0.00022735182
0.00022735158
0.00022735139
0.00022734601
0.00022734617
0.00022734636
0.00022734654
0.00022734669
0.0002273468
0.00022734689
0.00022734695
0.00022734699
0.00022734701
0.00022734701
0.00022734699
0.00022734695
0.00022734689
0.0002273468
0.00022734669
0.00022734654
0.00022734636
0.00022734617
0.00022734601
0.00022734163
0.00022734176
0.00022734192
0.00022734207
0.00022734219
0.00022734228
0.00022734235
0.0002273424
0.00022734244
0.00022734245
0.00022734245
0.00022734244
0.0002273424
0.00022734235
0.00022734228
0.00022734219
0.00022734207
0.00022734192
0.00022734176
0.00022734163
0.00022733811
0.00022733822
0.00022733834
0.00022733846
0.00022733856
0.00022733864
0.00022733869
0.00022733874
0.00022733876
0.00022733878
0.00022733878
0.00022733876
0.00022733874
0.00022733869
0.00022733864
0.00022733856
0.00022733846
0.00022733834
0.00022733822
0.00022733811
0.00022733531
0.00022733539
0.0002273355
0.00022733559
0.00022733567
0.00022733573
0.00022733578
0.00022733581
0.00022733583
0.00022733584
0.00022733584
0.00022733583
0.00022733581
0.00022733578
0.00022733573
0.00022733567
0.00022733559
0.0002273355
0.00022733539
0.00022733531
0.00022733312
0.00022733319
0.00022733327
0.00022733334
0.00022733341
0.00022733346
0.0002273335
0.00022733352
0.00022733354
0.00022733355
0.00022733355
0.00022733354
0.00022733352
0.0002273335
0.00022733346
0.00022733341
0.00022733334
0.00022733327
0.00022733319
0.00022733312
0.00022733146
0.00022733151
0.00022733158
0.00022733164
0.00022733169
0.00022733173
0.00022733176
0.00022733178
0.0002273318
0.0002273318
0.0002273318
0.0002273318
0.00022733178
0.00022733176
0.00022733173
0.00022733169
0.00022733164
0.00022733158
0.00022733151
0.00022733146
0.00022733027
0.00022733031
0.00022733036
0.0002273304
0.00022733044
0.00022733048
0.0002273305
0.00022733052
0.00022733053
0.00022733054
0.00022733054
0.00022733053
0.00022733052
0.0002273305
0.00022733048
0.00022733044
0.0002273304
0.00022733036
0.00022733031
0.00022733027
0.00022732949
0.00022732952
0.00022732956
0.0002273296
0.00022732963
0.00022732966
0.00022732968
0.0002273297
0.00022732971
0.00022732971
0.00022732971
0.00022732971
0.0002273297
0.00022732968
0.00022732966
0.00022732963
0.0002273296
0.00022732956
0.00022732952
0.00022732949
0.00022732911
0.00022732913
0.00022732916
0.0002273292
0.00022732923
0.00022732925
0.00022732927
0.00022732929
0.0002273293
0.0002273293
0.0002273293
0.0002273293
0.00022732929
0.00022732927
0.00022732925
0.00022732923
0.0002273292
0.00022732916
0.00022732913
0.00022732911
)
;

boundaryField
{
    Wall
    {
        type            calculated;
        value           uniform 0.1;
    }
    frontAndBack
    {
        type            empty;
    }
    atmosphere
    {
        type            calculated;
        value           uniform 0.1;
    }
}


// ************************************************************************* //
