/*--------------------------------*- C++ -*----------------------------------*\
| =========                 |                                                 |
| \\      /  F ield         | OpenFOAM: The Open Source CFD Toolbox           |
|  \\    /   O peration     | Version:  3.0.1                                 |
|   \\  /    A nd           | Web:      www.OpenFOAM.org                      |
|    \\/     M anipulation  |                                                 |
\*---------------------------------------------------------------------------*/
FoamFile
{
    version     2.0;
    format      ascii;
    class       volScalarField;
    location    "8";
    object      TS;
}
// * * * * * * * * * * * * * * * * * * * * * * * * * * * * * * * * * * * * * //

dimensions      [0 0 0 1 0 0 0];

internalField   nonuniform List<scalar> 
800
(
309.52907
309.5291
309.52907
309.52907
309.52907
309.52907
309.52906
309.52906
309.52906
309.52906
309.52906
309.52906
309.52906
309.52906
309.52907
309.52907
309.52907
309.52907
309.5291
309.52907
302.42447
302.45237
302.45712
302.45965
302.46143
302.4627
302.46358
302.46417
302.46453
302.4647
302.4647
302.46453
302.46417
302.46358
302.4627
302.46143
302.45965
302.45712
302.45237
302.42447
301.05695
301.05678
301.05872
301.06097
301.06303
301.06473
301.06602
301.06695
301.06754
301.06782
301.06782
301.06754
301.06695
301.06602
301.06472
301.06303
301.06097
301.05872
301.05678
301.05695
300.43028
300.43081
300.43256
300.43471
300.43677
300.43853
300.43991
300.44091
300.44155
300.44186
300.44186
300.44155
300.44091
300.43991
300.43853
300.43677
300.43471
300.43256
300.43081
300.43028
300.08344
300.08528
300.08775
300.09029
300.09256
300.09444
300.09589
300.09694
300.09761
300.09794
300.09794
300.09761
300.09694
300.09589
300.09444
300.09256
300.09029
300.08775
300.08528
300.08344
299.77509
299.77848
299.7822
299.78547
299.78813
299.79022
299.79178
299.79289
299.79359
299.79393
299.79393
299.79359
299.79289
299.79178
299.79022
299.78813
299.78546
299.7822
299.77848
299.77509
299.50559
299.51013
299.51496
299.51896
299.52203
299.52432
299.526
299.52716
299.52789
299.52824
299.52824
299.52789
299.52716
299.526
299.52432
299.52203
299.51896
299.51496
299.51013
299.50559
299.27343
299.27831
299.28364
299.28802
299.29134
299.29377
299.29551
299.29671
299.29745
299.29781
299.29781
299.29745
299.29671
299.29551
299.29377
299.29134
299.28802
299.28364
299.27831
299.27343
299.07498
299.07969
299.08499
299.08942
299.09277
299.09523
299.09698
299.09818
299.09892
299.09928
299.09928
299.09892
299.09818
299.09698
299.09523
299.09277
299.08942
299.08499
299.07969
299.07498
298.90627
298.91057
298.91553
298.91974
298.92297
298.92535
298.92705
298.92821
298.92894
298.92928
298.92928
298.92894
298.92821
298.92705
298.92535
298.92297
298.91974
298.91553
298.91057
298.90627
298.76342
298.76723
298.77169
298.77555
298.77855
298.78078
298.78238
298.78348
298.78416
298.78449
298.78449
298.78416
298.78348
298.78238
298.78078
298.77855
298.77555
298.77169
298.76723
298.76342
298.64281
298.64612
298.65005
298.65349
298.6562
298.65823
298.65971
298.66072
298.66136
298.66166
298.66166
298.66136
298.66072
298.65971
298.65823
298.6562
298.65349
298.65005
298.64612
298.64281
298.54112
298.54397
298.54739
298.5504
298.55281
298.55463
298.55595
298.55688
298.55745
298.55773
298.55773
298.55745
298.55688
298.55595
298.55463
298.5528
298.5504
298.54738
298.54397
298.54112
298.45545
298.45788
298.46082
298.46343
298.46554
298.46714
298.46832
298.46914
298.46966
298.46991
298.46991
298.46966
298.46914
298.46832
298.46714
298.46553
298.46343
298.46082
298.45788
298.45545
298.38324
298.38531
298.38782
298.39007
298.3919
298.3933
298.39434
298.39506
298.39552
298.39575
298.39575
298.39552
298.39506
298.39434
298.3933
298.3919
298.39007
298.38782
298.38531
298.38324
298.32234
298.3241
298.32624
298.32817
298.32974
298.33096
298.33186
298.33249
298.3329
298.33309
298.33309
298.3329
298.33249
298.33186
298.33096
298.32974
298.32817
298.32624
298.3241
298.32233
298.27093
298.27242
298.27425
298.2759
298.27724
298.27829
298.27907
298.27963
298.27998
298.28015
298.28015
298.27998
298.27963
298.27907
298.27829
298.27724
298.2759
298.27425
298.27242
298.27093
298.2275
298.22877
298.23032
298.23172
298.23288
298.23377
298.23445
298.23493
298.23523
298.23538
298.23538
298.23523
298.23493
298.23445
298.23377
298.23288
298.23172
298.23032
298.22877
298.2275
298.19078
298.19186
298.19317
298.19437
298.19536
298.19613
298.1967
298.19711
298.19738
298.1975
298.1975
298.19738
298.19711
298.1967
298.19613
298.19536
298.19437
298.19317
298.19186
298.19078
298.15973
298.16064
298.16176
298.16278
298.16362
298.16428
298.16477
298.16512
298.16535
298.16546
298.16546
298.16535
298.16512
298.16477
298.16428
298.16362
298.16278
298.16176
298.16064
298.15973
298.13347
298.13425
298.13519
298.13606
298.13677
298.13733
298.13775
298.13805
298.13825
298.13834
298.13834
298.13825
298.13805
298.13775
298.13733
298.13677
298.13606
298.13519
298.13425
298.13347
298.11128
298.11193
298.11273
298.11346
298.11407
298.11455
298.1149
298.11516
298.11532
298.11541
298.11541
298.11532
298.11516
298.1149
298.11454
298.11407
298.11346
298.11273
298.11193
298.11128
298.09252
298.09308
298.09376
298.09438
298.09489
298.09529
298.0956
298.09582
298.09596
298.09602
298.09602
298.09596
298.09582
298.0956
298.09529
298.09489
298.09438
298.09376
298.09308
298.09252
298.07671
298.07717
298.07775
298.07827
298.07871
298.07905
298.07931
298.07949
298.07961
298.07967
298.07967
298.07961
298.07949
298.07931
298.07905
298.07871
298.07827
298.07775
298.07717
298.07671
298.06339
298.06378
298.06427
298.06471
298.06508
298.06536
298.06558
298.06574
298.06584
298.06589
298.06589
298.06584
298.06574
298.06558
298.06536
298.06507
298.06471
298.06427
298.06378
298.06339
298.0522
298.05253
298.05294
298.05331
298.05362
298.05386
298.05405
298.05418
298.05426
298.0543
298.0543
298.05426
298.05418
298.05405
298.05386
298.05362
298.05331
298.05294
298.05253
298.0522
298.04283
298.04311
298.04345
298.04376
298.04402
298.04422
298.04438
298.04449
298.04456
298.04459
298.04459
298.04456
298.04449
298.04438
298.04422
298.04402
298.04376
298.04345
298.04311
298.04283
298.035
298.03523
298.03552
298.03578
298.036
298.03617
298.03629
298.03639
298.03645
298.03648
298.03648
298.03645
298.03639
298.03629
298.03617
298.036
298.03578
298.03552
298.03523
298.035
298.02849
298.02868
298.02892
298.02914
298.02932
298.02946
298.02957
298.02964
298.02969
298.02972
298.02972
298.02969
298.02964
298.02957
298.02946
298.02932
298.02914
298.02892
298.02868
298.02849
298.0231
298.02326
298.02345
298.02363
298.02378
298.0239
298.02399
298.02405
298.0241
298.02412
298.02412
298.0241
298.02405
298.02399
298.0239
298.02378
298.02363
298.02345
298.02326
298.0231
298.01865
298.01879
298.01895
298.0191
298.01922
298.01932
298.01939
298.01944
298.01948
298.01949
298.01949
298.01948
298.01944
298.01939
298.01932
298.01922
298.0191
298.01895
298.01879
298.01865
298.01501
298.01512
298.01525
298.01537
298.01548
298.01556
298.01562
298.01566
298.01569
298.0157
298.0157
298.01569
298.01566
298.01562
298.01556
298.01548
298.01537
298.01525
298.01512
298.01501
298.01205
298.01214
298.01225
298.01235
298.01243
298.01249
298.01254
298.01258
298.0126
298.01261
298.01261
298.0126
298.01258
298.01254
298.01249
298.01243
298.01235
298.01225
298.01214
298.01205
298.00966
298.00973
298.00982
298.0099
298.00997
298.01002
298.01006
298.01009
298.01011
298.01012
298.01012
298.01011
298.01009
298.01006
298.01002
298.00997
298.0099
298.00982
298.00973
298.00966
298.00776
298.00782
298.00789
298.00795
298.00801
298.00805
298.00808
298.00811
298.00812
298.00813
298.00813
298.00812
298.00811
298.00808
298.00805
298.00801
298.00795
298.00789
298.00782
298.00776
298.00628
298.00632
298.00638
298.00643
298.00647
298.00651
298.00653
298.00655
298.00657
298.00657
298.00657
298.00657
298.00655
298.00653
298.00651
298.00647
298.00643
298.00638
298.00632
298.00628
298.00515
298.00519
298.00523
298.00527
298.0053
298.00533
298.00535
298.00537
298.00538
298.00538
298.00538
298.00538
298.00537
298.00535
298.00533
298.0053
298.00527
298.00523
298.00519
298.00515
298.00434
298.00437
298.0044
298.00443
298.00446
298.00448
298.0045
298.00451
298.00452
298.00453
298.00453
298.00452
298.00451
298.0045
298.00448
298.00446
298.00443
298.0044
298.00437
298.00434
298.00381
298.00383
298.00386
298.00388
298.00391
298.00393
298.00394
298.00395
298.00396
298.00396
298.00396
298.00396
298.00395
298.00394
298.00393
298.00391
298.00388
298.00386
298.00383
298.00381
298.00355
298.00357
298.00359
298.00361
298.00363
298.00365
298.00366
298.00367
298.00368
298.00368
298.00368
298.00368
298.00367
298.00366
298.00365
298.00363
298.00361
298.00359
298.00357
298.00355
)
;

boundaryField
{
    Wall
    {
        type            zeroGradient;
    }
    frontAndBack
    {
        type            empty;
    }
    atmosphere
    {
        type            zeroGradient;
    }
}


// ************************************************************************* //
