/*--------------------------------*- C++ -*----------------------------------*\
| =========                 |                                                 |
| \\      /  F ield         | OpenFOAM: The Open Source CFD Toolbox           |
|  \\    /   O peration     | Version:  3.0.1                                 |
|   \\  /    A nd           | Web:      www.OpenFOAM.org                      |
|    \\/     M anipulation  |                                                 |
\*---------------------------------------------------------------------------*/
FoamFile
{
    version     2.0;
    format      ascii;
    class       volVectorField;
    location    "8";
    object      U;
}
// * * * * * * * * * * * * * * * * * * * * * * * * * * * * * * * * * * * * * //

dimensions      [0 1 -1 0 0 0 0];

internalField   nonuniform List<vector> 
800
(
(-5.8307572e-07 0.0009002993 0)
(-6.4945462e-07 0.00090461669 0)
(-2.621411e-07 0.00090652332 0)
(-4.3370534e-08 0.00090777748 0)
(3.7248557e-08 0.00090869351 0)
(5.5665126e-08 0.00090936701 0)
(5.0240055e-08 0.00090985269 0)
(3.722289e-08 0.00091018945 0)
(2.2420707e-08 0.00091040207 0)
(7.4976559e-09 0.00091050511 0)
(-7.3542634e-09 0.00091050507 0)
(-2.2281788e-08 0.00091040197 0)
(-3.7093337e-08 0.00091018928 0)
(-5.0120552e-08 0.00090985246 0)
(-5.5557047e-08 0.00090936674 0)
(-3.7150234e-08 0.0009086932 0)
(4.346331e-08 0.00090777712 0)
(2.622171e-07 0.00090652296 0)
(6.4949712e-07 0.00090461628 0)
(5.830913e-07 0.0009002988 0)
(5.5173714e-08 0.0011497148 0)
(7.4569575e-07 0.0011540362 0)
(1.3077653e-06 0.0011552785 0)
(1.1601949e-06 0.0011560252 0)
(9.507405e-07 0.0011565322 0)
(7.3553386e-07 0.0011568934 0)
(5.386182e-07 0.0011571464 0)
(3.6588595e-07 0.0011573195 0)
(2.1204892e-07 0.0011574282 0)
(6.9504268e-08 0.0011574807 0)
(-6.9406556e-08 0.0011574807 0)
(-2.1195295e-07 0.0011574281 0)
(-3.6579769e-07 0.0011573193 0)
(-5.3853441e-07 0.0011571462 0)
(-7.3545253e-07 0.0011568931 0)
(-9.5067077e-07 0.0011565319 0)
(-1.1601171e-06 0.0011560248 0)
(-1.3077089e-06 0.0011552781 0)
(-7.4568686e-07 0.0011540358 0)
(-5.5170065e-08 0.0011497144 0)
(7.0848941e-07 0.00154978 0)
(1.5691052e-06 0.0015545784 0)
(1.7152404e-06 0.0015542416 0)
(1.4341249e-06 0.0015537054 0)
(1.1005974e-06 0.0015532362 0)
(8.2284405e-07 0.0015528585 0)
(5.8842669e-07 0.0015525724 0)
(3.9515549e-07 0.0015523689 0)
(2.2775344e-07 0.0015522387 0)
(7.4479266e-08 0.0015521752 0)
(-7.4322891e-08 0.0015521752 0)
(-2.2760014e-07 0.0015522388 0)
(-3.950168e-07 0.001552369 0)
(-5.8829678e-07 0.0015525726 0)
(-8.2271007e-07 0.0015528587 0)
(-1.1005147e-06 0.0015532366 0)
(-1.4340267e-06 0.0015537058 0)
(-1.7151202e-06 0.001554242 0)
(-1.5690735e-06 0.0015545789 0)
(-7.0849358e-07 0.0015497804 0)
(6.2356378e-07 0.001769898 0)
(1.3215097e-06 0.0017821941 0)
(1.34453e-06 0.0017797716 0)
(1.0922275e-06 0.0017776041 0)
(8.1498078e-07 0.0017759864 0)
(6.0057093e-07 0.0017747466 0)
(4.271888e-07 0.0017738444 0)
(2.8622147e-07 0.0017732128 0)
(1.6494548e-07 0.0017728113 0)
(5.422642e-08 0.0017726163 0)
(-5.3185877e-08 0.0017726164 0)
(-1.6394569e-07 0.0017728118 0)
(-2.853018e-07 0.0017732135 0)
(-4.2635593e-07 0.0017738454 0)
(-5.9981434e-07 0.0017747478 0)
(-8.1432022e-07 0.0017759877 0)
(-1.0916049e-06 0.0017776057 0)
(-1.3439935e-06 0.0017797734 0)
(-1.3212755e-06 0.0017821959 0)
(-6.2354694e-07 0.0017698999 0)
(9.0448848e-07 0.0014597088 0)
(2.0190653e-06 0.0017010773 0)
(2.2233312e-06 0.0017396716 0)
(1.9642645e-06 0.0017457067 0)
(1.5752563e-06 0.0017456124 0)
(1.2112896e-06 0.0017446539 0)
(8.9023225e-07 0.0017438202 0)
(6.0950519e-07 0.0017432207 0)
(3.5690854e-07 0.0017428396 0)
(1.2034188e-07 0.0017426549 0)
(-1.1121261e-07 0.0017426547 0)
(-3.4814833e-07 0.0017428392 0)
(-6.0141203e-07 0.00174322 0)
(-8.8295926e-07 0.0017438193 0)
(-1.2048692e-06 0.0017446527 0)
(-1.5696826e-06 0.0017456108 0)
(-1.9595346e-06 0.0017457048 0)
(-2.2196315e-06 0.0017396692 0)
(-2.0167525e-06 0.0017010747 0)
(-9.0369174e-07 0.0014597076 0)
(2.2238715e-06 0.0008564189 0)
(5.3609346e-06 0.0016468127 0)
(6.5937761e-06 0.0019163446 0)
(6.4450881e-06 0.0019908677 0)
(5.6003905e-06 0.0020075492 0)
(4.5264629e-06 0.0020101895 0)
(3.4368499e-06 0.0020100872 0)
(2.4014164e-06 0.0020096621 0)
(1.4244823e-06 0.0020093439 0)
(4.8656321e-07 0.0020091853 0)
(-4.3877624e-07 0.0020091846 0)
(-1.3785243e-06 0.0020093419 0)
(-2.3587836e-06 0.0020096588 0)
(-3.3985062e-06 0.0020100827 0)
(-4.4928838e-06 0.0020101838 0)
(-5.5718392e-06 0.002007542 0)
(-6.4219395e-06 0.0019908588 0)
(-6.5766527e-06 0.0019163343 0)
(-5.3504084e-06 0.0016468023 0)
(-2.220201e-06 0.00085641265 0)
(2.6703078e-06 0.00074020636 0)
(6.8601777e-06 0.0017002624 0)
(8.8167307e-06 0.0020925983 0)
(8.9083094e-06 0.0022123708 0)
(7.9422504e-06 0.0022413172 0)
(6.5420854e-06 0.0022466122 0)
(5.0356173e-06 0.0022469333 0)
(3.5516992e-06 0.0022465095 0)
(2.1196414e-06 0.0022461441 0)
(7.2736627e-07 0.0022459568 0)
(-6.5187131e-07 0.0022459554 0)
(-2.0469632e-06 0.0022461401 0)
(-3.4841965e-06 0.0022465032 0)
(-4.9749496e-06 0.0022469251 0)
(-6.4892611e-06 0.0022466019 0)
(-7.8979819e-06 0.0022413047 0)
(-8.8733926e-06 0.0022123558 0)
(-8.7920214e-06 0.0020925812 0)
(-6.8459572e-06 0.0017002459 0)
(-2.6658109e-06 0.00074019734 0)
(2.3652744e-06 0.00073007796 0)
(6.4660551e-06 0.0017486726 0)
(8.6812452e-06 0.0021950444 0)
(9.0581947e-06 0.0023380156 0)
(8.2837464e-06 0.0023738568 0)
(6.9620353e-06 0.0023807225 0)
(5.4416644e-06 0.0023812754 0)
(3.880532e-06 0.002380814 0)
(2.3329011e-06 0.002380386 0)
(8.0509985e-07 0.0023801621 0)
(-7.1593806e-07 0.0023801601 0)
(-2.2469104e-06 0.0023803801 0)
(-3.8004631e-06 0.0023808048 0)
(-5.3696588e-06 0.0023812635 0)
(-6.8996619e-06 0.0023807082 0)
(-8.2322914e-06 0.0023738401 0)
(-9.0188936e-06 0.0023379965 0)
(-8.6549541e-06 0.0021950237 0)
(-6.4522392e-06 0.0017486536 0)
(-2.3614154e-06 0.00073006858 0)
(1.8080281e-06 0.00073155727 0)
(5.2008556e-06 0.001771823 0)
(7.2851621e-06 0.0022407263 0)
(7.8623386e-06 0.0023945766 0)
(7.3932365e-06 0.0024340001 0)
(6.3567905e-06 0.0024417991 0)
(5.057701e-06 0.0024425388 0)
(3.6538957e-06 0.0024420825 0)
(2.2161259e-06 0.0024416274 0)
(7.7040022e-07 0.0024413843 0)
(-6.774937e-07 0.0024413815 0)
(-2.1262211e-06 0.0024416195 0)
(-3.5697293e-06 0.0024420704 0)
(-4.9816731e-06 0.0024425234 0)
(-6.290987e-06 0.0024417814 0)
(-7.3395641e-06 0.0024339806 0)
(-7.8224824e-06 0.0023945559 0)
(-7.2598792e-06 0.0022407054 0)
(-5.1886752e-06 0.0017718052 0)
(-1.8049531e-06 0.00073154935 0)
(1.2833408e-06 0.00073226485 0)
(3.8312466e-06 0.0017796368 0)
(5.5736312e-06 0.0022569938 0)
(6.2192176e-06 0.002415448 0)
(6.0198583e-06 0.0024566275 0)
(5.3029258e-06 0.0024650139 0)
(4.30095e-06 0.002465948 0)
(3.1516579e-06 0.0024655552 0)
(1.9304127e-06 0.0024651184 0)
(6.7701661e-07 0.0024648788 0)
(-5.8644496e-07 0.0024648754 0)
(-1.842279e-06 0.0024651087 0)
(-3.0683525e-06 0.0024655404 0)
(-4.2248902e-06 0.0024659295 0)
(-5.2365762e-06 0.0024649934 0)
(-5.9656876e-06 0.0024566061 0)
(-6.1793615e-06 0.0024154271 0)
(-5.5488603e-06 0.0022569748 0)
(-3.8195767e-06 0.0017796223 0)
(-1.2803303e-06 0.00073225904 0)
(8.8261559e-07 0.00073219678 0)
(2.7001779e-06 0.0017813804 0)
(4.0533712e-06 0.0022615076 0)
(4.6643403e-06 0.0024217558 0)
(4.6430048e-06 0.0024638023 0)
(4.1890394e-06 0.0024725963 0)
(3.4632496e-06 0.0024737335 0)
(2.574499e-06 0.0024734454 0)
(1.592983e-06 0.0024730605 0)
(5.6427799e-07 0.0024728421 0)
(-4.7947333e-07 0.0024728382 0)
(-1.5097936e-06 0.0024730493 0)
(-2.4947234e-06 0.0024734281 0)
(-3.3890901e-06 0.0024737121 0)
(-4.1231342e-06 0.0024725729 0)
(-4.5882439e-06 0.0024637789 0)
(-4.6233021e-06 0.0024217345 0)
(-4.0271128e-06 0.0022614903 0)
(-2.686957e-06 0.0017813689 0)
(-8.7874619e-07 0.00073219233 0)
(6.0312186e-07 0.0007319558 0)
(1.8721731e-06 0.001781373 0)
(2.8797854e-06 0.0022622871 0)
(3.4032213e-06 0.0024232287 0)
(3.4742342e-06 0.0024657461 0)
(3.2041472e-06 0.0024748473 0)
(2.6966046e-06 0.0024761812 0)
(2.031878e-06 0.0024760145 0)
(1.2696143e-06 0.0024756988 0)
(4.5457625e-07 0.0024755115 0)
(-3.7739092e-07 0.0024755072 0)
(-1.1931086e-06 0.0024756865 0)
(-1.9571253e-06 0.0024759954 0)
(-2.6254154e-06 0.0024761574 0)
(-3.1391234e-06 0.0024748211 0)
(-3.4185132e-06 0.0024657201 0)
(-3.3597992e-06 0.0024232057 0)
(-2.8502965e-06 0.0022622694 0)
(-1.8558355e-06 0.0017813619 0)
(-5.9782059e-07 0.00073195115 0)
(4.1480095e-07 0.00073174572 0)
(1.2976848e-06 0.001781048 0)
(2.0321799e-06 0.0022621551 0)
(2.4540251e-06 0.0024233969 0)
(2.5592624e-06 0.0024662064 0)
(2.4054463e-06 0.0024755469 0)
(2.0562354e-06 0.0024770573 0)
(1.5681113e-06 0.0024770102 0)
(9.8868947e-07 0.0024767676 0)
(3.5795516e-07 0.0024766146 0)
(-2.8923836e-07 0.0024766102 0)
(-9.197563e-07 0.0024767549 0)
(-1.4993058e-06 0.0024769903 0)
(-1.988893e-06 0.002477032 0)
(-2.3419798e-06 0.0024755186 0)
(-2.5028993e-06 0.0024661776 0)
(-2.408124e-06 0.0024233706 0)
(-1.9991172e-06 0.0022621345 0)
(-1.2780091e-06 0.0017810344 0)
(-4.0811322e-07 0.00073173933 0)
(2.8846803e-07 0.00073159249 0)
(9.0584893e-07 0.0017807509 0)
(1.4365072e-06 0.0022618966 0)
(1.7638358e-06 0.0024232959 0)
(1.8712103e-06 0.0024663048 0)
(1.7862907e-06 0.0024758314 0)
(1.5469971e-06 0.0024774908 0)
(1.1919365e-06 0.0024775511 0)
(7.5757422e-07 0.0024773769 0)
(2.7746569e-07 0.0024772572 0)
(-2.1725211e-07 0.002477253 0)
(-6.9642426e-07 0.0024773647 0)
(-1.1295829e-06 0.0024775318 0)
(-1.4843242e-06 0.0024774657 0)
(-1.7254593e-06 0.0024758024 0)
(-1.8154293e-06 0.0024662741 0)
(-1.7167339e-06 0.0024232664 0)
(-1.4011654e-06 0.0022618717 0)
(-8.8404482e-07 0.0017807329 0)
(-2.8101364e-07 0.00073158368 0)
(2.0280623e-07 0.00073148162 0)
(6.3791742e-07 0.0017805229 0)
(1.0203413e-06 0.0022616703 0)
(1.268411e-06 0.0024231662 0)
(1.3634925e-06 0.0024663167 0)
(1.3177279e-06 0.002475986 0)
(1.1533283e-06 0.0024777657 0)
(8.9628135e-07 0.0024779166 0)
(5.7377717e-07 0.0024778022 0)
(2.1280323e-07 0.0024777122 0)
(-1.6036809e-07 0.0024777086 0)
(-5.1995091e-07 0.0024777915 0)
(-8.403894e-07 0.0024778994 0)
(-1.0959181e-06 0.0024777428 0)
(-1.2607329e-06 0.0024759584 0)
(-1.3100516e-06 0.0024662861 0)
(-1.2223057e-06 0.002423135 0)
(-9.8513177e-07 0.002261642 0)
(-6.1610962e-07 0.0017805008 0)
(-1.9551766e-07 0.00073147081 0)
(1.4373682e-07 0.00073139741 0)
(4.5255475e-07 0.0017803458 0)
(7.2817803e-07 0.0022614852 0)
(9.1343319e-07 0.0024230443 0)
(9.9176577e-07 0.0024662965 0)
(9.6771775e-07 0.0024760731 0)
(8.5421265e-07 0.0024779473 0)
(6.686498e-07 0.0024781715 0)
(4.3097203e-07 0.0024781067 0)
(1.6224806e-07 0.0024780421 0)
(-1.1623967e-07 0.0024780393 0)
(-3.8340317e-07 0.0024780984 0)
(-6.1867235e-07 0.0024781577 0)
(-8.0219839e-07 0.0024779282 0)
(-9.1545832e-07 0.0024760492 0)
(-9.4232963e-07 0.0024662685 0)
(-8.7063645e-07 0.0024230141 0)
(-6.9572804e-07 0.0022614558 0)
(-4.329892e-07 0.0017803216 0)
(-1.3751873e-07 0.00073138583 0)
(1.02276e-07 0.00073132965 0)
(3.2242501e-07 0.0017802006 0)
(5.2117153e-07 0.0022613276 0)
(6.5824354e-07 0.0024229287 0)
(7.2021243e-07 0.0024662535 0)
(7.0810276e-07 0.0024761101 0)
(6.2942928e-07 0.0024780566 0)
(4.9585784e-07 0.0024783385 0)
(3.2187555e-07 0.0024783136 0)
(1.2358044e-07 0.0024782696 0)
(-8.2305427e-08 0.0024782676 0)
(-2.7910862e-07 0.0024783077 0)
(-4.5078199e-07 0.0024783285 0)
(-5.8239965e-07 0.0024780422 0)
(-6.6087435e-07 0.0024760911 0)
(-6.7581357e-07 0.0024662302 0)
(-6.2042824e-07 0.002422902 0)
(-4.9346148e-07 0.0022613002 0)
(-3.0673714e-07 0.0017801772 0)
(-9.7719681e-08 0.00073131873 0)
(7.2718943e-08 0.00073127306 0)
(2.2978599e-07 0.0017800767 0)
(3.7303259e-07 0.0022611884 0)
(4.7384238e-07 0.0024228168 0)
(5.217383e-07 0.0024661936 0)
(5.1622305e-07 0.002476109 0)
(4.6167104e-07 0.0024781101 0)
(3.6594719e-07 0.0024784363 0)
(2.395191e-07 0.0024784425 0)
(9.4488167e-08 0.0024784147 0)
(-5.6319355e-08 0.0024784135 0)
(-2.0007315e-07 0.0024784386 0)
(-3.2457102e-07 0.0024784296 0)
(-4.1881676e-07 0.0024780999 0)
(-4.7369167e-07 0.0024760949 0)
(-4.8254961e-07 0.0024661754 0)
(-4.4162473e-07 0.002422795 0)
(-3.5088058e-07 0.0022611649 0)
(-2.1858044e-07 0.0017800561 0)
(-6.9963101e-08 0.00073126376 0)
(5.1405676e-08 0.00073122572 0)
(1.6309614e-07 0.0017799704 0)
(2.6609685e-07 0.0022610654 0)
(3.3989402e-07 0.0024227111 0)
(3.7641855e-07 0.0024661248 0)
(3.7458345e-07 0.0024760833 0)
(3.3693309e-07 0.0024781251 0)
(2.6881097e-07 0.0024784849 0)
(1.7775762e-07 0.0024785147 0)
(7.2751591e-08 0.0024784992 0)
(-3.6565904e-08 0.0024784983 0)
(-1.4055017e-07 0.0024785119 0)
(-2.3013371e-07 0.0024784798 0)
(-2.9737712e-07 0.0024781174 0)
(-3.3602778e-07 0.0024760723 0)
(-3.4188475e-07 0.0024661103 0)
(-3.128531e-07 0.0024226934 0)
(-2.4911463e-07 0.0022610458 0)
(-1.5592984e-07 0.0017799529 0)
(-5.0165495e-08 0.0007312181 0)
(3.5942509e-08 0.00073118748 0)
(1.1474636e-07 0.0017798821 0)
(1.8842482e-07 0.0022609606 0)
(2.4217205e-07 0.002422617 0)
(2.6977248e-07 0.002466057 0)
(2.699732e-07 0.002476047 0)
(2.442474e-07 0.0024781189 0)
(1.9625841e-07 0.0024785036 0)
(1.3142835e-07 0.0024785511 0)
(5.6344461e-08 0.0024785446 0)
(-2.187497e-08 0.0024785436 0)
(-9.6136721e-08 0.0024785479 0)
(-1.5985616e-07 0.0024784982 0)
(-2.0743277e-07 0.0024781108 0)
(-2.3467827e-07 0.0024760361 0)
(-2.3899771e-07 0.0024660432 0)
(-2.1921847e-07 0.0024226006 0)
(-1.7536659e-07 0.0022609427 0)
(-1.1043822e-07 0.0017798662 0)
(-3.5661604e-08 0.00073118069 0)
(2.4719844e-08 0.00073115861 0)
(7.9610644e-08 0.0017798134 0)
(1.3183427e-07 0.0022608774 0)
(1.7067187e-07 0.0024225405 0)
(1.913192e-07 0.0024659992 0)
(1.9255361e-07 0.0024760122 0)
(1.75222e-07 0.0024781062 0)
(1.4186108e-07 0.0024785093 0)
(9.6365912e-08 0.0024785697 0)
(4.3522393e-08 0.0024785696 0)
(-1.1499485e-08 0.002478568 0)
(-6.3597507e-08 0.0024785648 0)
(-1.081129e-07 0.0024785012 0)
(-1.4121266e-07 0.0024780949 0)
(-1.6019423e-07 0.0024759977 0)
(-1.6353034e-07 0.002465982 0)
(-1.5057518e-07 0.0024225212 0)
(-1.2114899e-07 0.0022608575 0)
(-7.6716644e-08 0.0017797962 0)
(-2.4774525e-08 0.00073115121 0)
(1.6613345e-08 0.00073113897 0)
(5.4131448e-08 0.0017797651 0)
(9.0604968e-08 0.0022608177 0)
(1.1828895e-07 0.0024224852 0)
(1.3347492e-07 0.0024659575 0)
(1.3506909e-07 0.0024759872 0)
(1.2355883e-07 0.0024780975 0)
(1.0072149e-07 0.0024785141 0)
(6.935486e-08 0.0024785837 0)
(3.2906274e-08 0.0024785881 0)
(-4.9282622e-09 0.0024785855 0)
(-4.0565663e-08 0.0024785761 0)
(-7.0813045e-08 0.0024785015 0)
(-9.3154543e-08 0.0024780804 0)
(-1.059509e-07 0.0024759661 0)
(-1.0839487e-07 0.0024659332 0)
(-1.0017137e-07 0.0024224591 0)
(-8.0989599e-08 0.0022607917 0)
(-5.1414031e-08 0.0017797432 0)
(-1.6499589e-08 0.00073112941 0)
(1.0806733e-08 0.00073112754 0)
(3.5758372e-08 0.0017797357 0)
(6.0647026e-08 0.0022607808 0)
(7.9919112e-08 0.0024224516 0)
(9.074544e-08 0.0024659338 0)
(9.2214478e-08 0.0024759759 0)
(8.4620138e-08 0.0024780981 0)
(6.922683e-08 0.0024785245 0)
(4.8043843e-08 0.002478601 0)
(2.3532205e-08 0.0024786083 0)
(-1.7100702e-09 0.0024786047 0)
(-2.5232995e-08 0.0024785901 0)
(-4.4932553e-08 0.0024785068 0)
(-5.9253085e-08 0.002478074 0)
(-6.730504e-08 0.0024759464 0)
(-6.877154e-08 0.0024659002 0)
(-6.3575029e-08 0.0024224157 0)
(-5.1443588e-08 0.0022607456 0)
(-3.2521666e-08 0.0017797065 0)
(-1.0263003e-08 0.00073111467 0)
(6.6890994e-09 0.00073112254 0)
(2.2608282e-08 0.0017797219 0)
(3.8971011e-08 0.0022607631 0)
(5.1850988e-08 0.0024224367 0)
(5.9143919e-08 0.0024659263 0)
(6.0146199e-08 0.0024759775 0)
(5.5062063e-08 0.0024781085 0)
(4.4807337e-08 0.0024785424 0)
(3.0822024e-08 0.0024786238 0)
(1.4843785e-08 0.0024786333 0)
(-1.3378743e-09 0.0024786287 0)
(-1.6098427e-08 0.00247861 0)
(-2.8116114e-08 0.0024785198 0)
(-3.6510006e-08 0.0024780778 0)
(-4.0901826e-08 0.0024759396 0)
(-4.1305377e-08 0.0024658829 0)
(-3.7830478e-08 0.0024223902 0)
(-3.0326144e-08 0.0022607173 0)
(-1.8834957e-08 0.001779684 0)
(-5.7354966e-09 0.0007311059 0)
(3.7900091e-09 0.0007311217 0)
(1.3253587e-08 0.0017797186 0)
(2.3346774e-08 0.0022607588 0)
(3.1353103e-08 0.0024224351 0)
(3.576972e-08 0.0024659304 0)
(3.6101674e-08 0.0024759884 0)
(3.2521584e-08 0.0024781261 0)
(2.5703058e-08 0.0024785654 0)
(1.6671266e-08 0.0024786507 0)
(6.635245e-09 0.002478662 0)
(-3.2037858e-09 0.0024786566 0)
(-1.1807869e-08 0.0024786349 0)
(-1.8394068e-08 0.0024785393 0)
(-2.2528542e-08 0.0024780902 0)
(-2.4157824e-08 0.0024759439 0)
(-2.3505055e-08 0.0024658788 0)
(-2.0824342e-08 0.0024223792 0)
(-1.6133938e-08 0.0022607033 0)
(-9.5484085e-09 0.0017796727 0)
(-2.6928943e-09 0.00073110165 0)
(1.7464992e-09 0.00073112273 0)
(6.6053714e-09 0.0017797207 0)
(1.2100106e-08 0.0022607616 0)
(1.6405389e-08 0.0024224403 0)
(1.8508331e-08 0.0024659399 0)
(1.8101716e-08 0.0024760031 0)
(1.5348383e-08 0.0024781459 0)
(1.0744607e-08 0.0024785896 0)
(5.0091684e-09 0.0024786781 0)
(-1.0351791e-09 0.0024786908 0)
(-6.6103062e-09 0.0024786853 0)
(-1.1083876e-08 0.0024786614 0)
(-1.4023631e-08 0.002478562 0)
(-1.5264106e-08 0.0024781077 0)
(-1.4927591e-08 0.002475955 0)
(-1.3343301e-08 0.0024658835 0)
(-1.0857703e-08 0.0024223782 0)
(-7.6544081e-09 0.0022606991 0)
(-3.9852904e-09 0.0017796689 0)
(-9.2615459e-10 0.00073110034 0)
(2.8558375e-10 0.00073112376 0)
(1.8468372e-09 0.0017797234 0)
(3.9868564e-09 0.0022607655 0)
(5.5210593e-09 0.0024224464 0)
(5.8187034e-09 0.0024659493 0)
(4.7232237e-09 0.0024760164 0)
(2.3848259e-09 0.0024781632 0)
(-8.4077529e-10 0.0024786104 0)
(-4.4653487e-09 0.0024787016 0)
(-7.9520426e-09 0.0024787158 0)
(-1.0826822e-08 0.0024787105 0)
(-1.2728987e-08 0.0024786855 0)
(-1.3434264e-08 0.0024785836 0)
(-1.29077e-08 0.0024781256 0)
(-1.1326405e-08 0.0024759684 0)
(-9.0315339e-09 0.002465892 0)
(-6.4011631e-09 0.0024223823 0)
(-3.7454354e-09 0.0022607002 0)
(-1.4508106e-09 0.001779669 0)
(-1.9602805e-10 0.00073110053 0)
(-7.8778985e-10 0.00073112365 0)
(-1.614809e-09 0.0017797234 0)
(-1.9001362e-09 0.0022607661 0)
(-2.3853056e-09 0.0024224487 0)
(-3.4249248e-09 0.0024659541 0)
(-5.071344e-09 0.0024760243 0)
(-7.2018051e-09 0.0024781743 0)
(-9.5826337e-09 0.0024786245 0)
(-1.1906834e-08 0.0024787179 0)
(-1.3855635e-08 0.0024787338 0)
(-1.5174586e-08 0.0024787291 0)
(-1.5676976e-08 0.0024787038 0)
(-1.5241124e-08 0.0024786005 0)
(-1.3858518e-08 0.0024781402 0)
(-1.1663921e-08 0.0024759801 0)
(-8.9260109e-09 0.0024659004 0)
(-5.9926827e-09 0.0024223874 0)
(-3.2488341e-09 0.0022607028 0)
(-1.1855914e-09 0.0017796703 0)
(-2.2697147e-10 0.00073110109 0)
(-1.5991012e-09 0.00073112175 0)
(-4.180941e-09 0.0017797191 0)
(-6.1968214e-09 0.0022607615 0)
(-8.0924997e-09 0.002422445 0)
(-1.0044516e-08 0.0024659524 0)
(-1.2051352e-08 0.002476025 0)
(-1.4035958e-08 0.0024781775 0)
(-1.5879106e-08 0.0024786301 0)
(-1.742696e-08 0.0024787257 0)
(-1.8533824e-08 0.0024787431 0)
(-1.9102809e-08 0.0024787394 0)
(-1.9049965e-08 0.0024787143 0)
(-1.8281397e-08 0.0024786106 0)
(-1.6739486e-08 0.0024781492 0)
(-1.4443531e-08 0.0024759875 0)
(-1.1522287e-08 0.0024659058 0)
(-8.2393672e-09 0.0024223908 0)
(-5.0067668e-09 0.0022607045 0)
(-2.3970695e-09 0.001779671 0)
(-7.2885703e-10 0.00073110144 0)
(-2.21527e-09 0.00073111812 0)
(-6.091089e-09 0.0017797107 0)
(-9.3141798e-09 0.0022607514 0)
(-1.2132528e-08 0.0024224353 0)
(-1.46275e-08 0.0024659441 0)
(-1.6791501e-08 0.0024760186 0)
(-1.8607967e-08 0.0024781731 0)
(-2.0068209e-08 0.0024786278 0)
(-2.1157247e-08 0.0024787252 0)
(-2.1872108e-08 0.0024787443 0)
(-2.2226482e-08 0.0024787417 0)
(-2.2187355e-08 0.0024787172 0)
(-2.1638433e-08 0.0024786138 0)
(-2.0422219e-08 0.0024781522 0)
(-1.839482e-08 0.0024759899 0)
(-1.550171e-08 0.0024659074 0)
(-1.1881805e-08 0.0024223915 0)
(-7.9401287e-09 0.0022607044 0)
(-4.3341925e-09 0.0017796706 0)
(-1.4306109e-09 0.00073110143 0)
(-2.6558158e-09 0.00073111337 0)
(-7.4490415e-09 0.0017796993 0)
(-1.1471966e-08 0.0022607374 0)
(-1.4830593e-08 0.0024224212 0)
(-1.7571079e-08 0.002465931 0)
(-1.9715208e-08 0.0024760071 0)
(-2.1313252e-08 0.0024781633 0)
(-2.2461309e-08 0.0024786197 0)
(-2.3273211e-08 0.0024787187 0)
(-2.386583e-08 0.0024787392 0)
(-2.4329314e-08 0.0024787378 0)
(-2.4647216e-08 0.0024787143 0)
(-2.4649831e-08 0.0024786114 0)
(-2.4049893e-08 0.0024781503 0)
(-2.2517158e-08 0.0024759883 0)
(-1.9795661e-08 0.0024659059 0)
(-1.5877548e-08 0.00242239 0)
(-1.1147426e-08 0.0022607029 0)
(-6.3780813e-09 0.0017796696 0)
(-2.118871e-09 0.00073110127 0)
(-2.9043084e-09 0.0007311083 0)
(-8.2512438e-09 0.0017796868 0)
(-1.2733375e-08 0.0022607219 0)
(-1.634031e-08 0.0024224053 0)
(-1.9113505e-08 0.002465916 0)
(-2.1117076e-08 0.0024759933 0)
(-2.2463609e-08 0.002478151 0)
(-2.3342773e-08 0.0024786088 0)
(-2.3983678e-08 0.0024787092 0)
(-2.4603263e-08 0.0024787309 0)
(-2.5345454e-08 0.0024787306 0)
(-2.6190337e-08 0.0024787081 0)
(-2.6898361e-08 0.0024786062 0)
(-2.7041445e-08 0.0024781459 0)
(-2.610247e-08 0.0024759846 0)
(-2.3630425e-08 0.0024659029 0)
(-1.947138e-08 0.0024223877 0)
(-1.3993382e-08 0.0022607013 0)
(-8.1205781e-09 0.0017796688 0)
(-2.6687423e-09 0.00073110128 0)
(-2.9179568e-09 0.00073110358 0)
(-8.4153436e-09 0.001779675 0)
(-1.3045935e-08 0.002260707 0)
(-1.6685682e-08 0.0024223901 0)
(-1.9367697e-08 0.0024659016 0)
(-2.1184767e-08 0.0024759801 0)
(-2.229482e-08 0.0024781391 0)
(-2.2961741e-08 0.0024785981 0)
(-2.3509082e-08 0.0024786996 0)
(-2.4234949e-08 0.0024787223 0)
(-2.5323095e-08 0.002478723 0)
(-2.6740223e-08 0.0024787015 0)
(-2.8173831e-08 0.0024786005 0)
(-2.9063967e-08 0.0024781413 0)
(-2.8726849e-08 0.002475981 0)
(-2.6544234e-08 0.0024659004 0)
(-2.22372e-08 0.0024223861 0)
(-1.6163915e-08 0.0022607006 0)
(-9.4072697e-09 0.0017796689 0)
(-3.0559137e-09 0.00073110172 0)
(-2.6340595e-09 0.0007310996 0)
(-7.8053233e-09 0.0017796651 0)
(-1.2282343e-08 0.0022606946 0)
(-1.5806361e-08 0.0024223777 0)
(-1.8363478e-08 0.0024658901 0)
(-2.0033552e-08 0.0024759697 0)
(-2.0987137e-08 0.0024781298 0)
(-2.1533893e-08 0.0024785897 0)
(-2.2065856e-08 0.0024786921 0)
(-2.2943723e-08 0.0024787157 0)
(-2.4381639e-08 0.0024787172 0)
(-2.6331457e-08 0.0024786965 0)
(-2.8420279e-08 0.0024785966 0)
(-2.998646e-08 0.0024781383 0)
(-3.0218808e-08 0.0024759793 0)
(-2.8374894e-08 0.0024658997 0)
(-2.4080203e-08 0.0024223864 0)
(-1.7671741e-08 0.0022607017 0)
(-1.0337115e-08 0.0017796703 0)
(-3.3528027e-09 0.00073110262 0)
(-1.9545543e-09 0.00073109632 0)
(-6.216577e-09 0.0017796573 0)
(-1.0251465e-08 0.0022606854 0)
(-1.3593065e-08 0.0024223689 0)
(-1.609243e-08 0.0024658824 0)
(-1.7747033e-08 0.0024759631 0)
(-1.8693674e-08 0.0024781242 0)
(-1.9254338e-08 0.002478585 0)
(-1.9862895e-08 0.002478688 0)
(-2.0924066e-08 0.0024787122 0)
(-2.2675981e-08 0.0024787144 0)
(-2.5063939e-08 0.0024786945 0)
(-2.7684099e-08 0.0024785953 0)
(-2.9822739e-08 0.0024781381 0)
(-3.059992e-08 0.0024759801 0)
(-2.9204021e-08 0.0024659016 0)
(-2.518857e-08 0.002422389 0)
(-1.8818877e-08 0.0022607045 0)
(-1.1241318e-08 0.0017796728 0)
(-3.7238691e-09 0.00073110373 0)
(-6.9642687e-10 0.00073109284 0)
(-3.301664e-09 0.0017796506 0)
(-6.6706955e-09 0.0022606789 0)
(-9.9145494e-09 0.0024223637 0)
(-1.2562196e-08 0.0024658786 0)
(-1.4430631e-08 0.0024759605 0)
(-1.558065e-08 0.0024781224 0)
(-1.6321714e-08 0.0024785839 0)
(-1.7106677e-08 0.0024786874 0)
(-1.8368112e-08 0.002478712 0)
(-2.0368085e-08 0.0024787147 0)
(-2.3064622e-08 0.0024786953 0)
(-2.6064428e-08 0.002478597 0)
(-2.866575e-08 0.0024781407 0)
(-2.9999992e-08 0.0024759836 0)
(-2.9258205e-08 0.0024659059 0)
(-2.5940985e-08 0.0024223935 0)
(-2.0139684e-08 0.0022607083 0)
(-1.267652e-08 0.0017796748 0)
(-4.4380486e-09 0.00073110411 0)
(1.4535275e-09 0.00073108546 0)
(1.493313e-09 0.0017796394 0)
(-1.169702e-09 0.0022606715 0)
(-4.684911e-09 0.0024223603 0)
(-7.8823941e-09 0.0024658775 0)
(-1.0283892e-08 0.0024759608 0)
(-1.1875533e-08 0.0024781234 0)
(-1.2961949e-08 0.0024785853 0)
(-1.400559e-08 0.0024786891 0)
(-1.5457107e-08 0.002478714 0)
(-1.7608942e-08 0.0024787169 0)
(-2.0458927e-08 0.0024786981 0)
(-2.3669778e-08 0.0024786004 0)
(-2.6621851e-08 0.0024781449 0)
(-2.8556709e-08 0.0024759887 0)
(-2.8771533e-08 0.0024659113 0)
(-2.6760124e-08 0.0024223981 0)
(-2.2299396e-08 0.0022607095 0)
(-1.5399996e-08 0.001779671 0)
(-5.8768206e-09 0.00073109993 0)
(4.7788006e-09 0.00073106026 0)
(8.6393444e-09 0.0017796041 0)
(6.4189945e-09 0.0022606505 0)
(1.9068386e-09 0.0024223522 0)
(-2.4189611e-09 0.0024658756 0)
(-5.6953082e-09 0.0024759612 0)
(-7.9208398e-09 0.0024781247 0)
(-9.4563689e-09 0.0024785868 0)
(-1.0787263e-08 0.0024786906 0)
(-1.2379413e-08 0.0024787155 0)
(-1.4560009e-08 0.0024787187 0)
(-1.7389322e-08 0.0024787003 0)
(-2.0626145e-08 0.0024786032 0)
(-2.3796872e-08 0.0024781484 0)
(-2.6356186e-08 0.0024759927 0)
(-2.7848964e-08 0.0024659146 0)
(-2.7879563e-08 0.0024223966 0)
(-2.5785485e-08 0.0022606959 0)
(-2.006234e-08 0.001779642 0)
(-8.3715741e-09 0.00073107724 0)
(8.864865e-09 0.00073097329 0)
(1.7361171e-08 0.0017794818 0)
(1.5160134e-08 0.0022605766 0)
(8.9098426e-09 0.0024223223 0)
(2.9913209e-09 0.0024658664 0)
(-1.337421e-09 0.002475959 0)
(-4.2339068e-09 0.0024781242 0)
(-6.2011117e-09 0.0024785865 0)
(-7.7698648e-09 0.0024786901 0)
(-9.4187948e-09 0.0024787149 0)
(-1.1503961e-08 0.0024787182 0)
(-1.4152184e-08 0.0024787001 0)
(-1.7236908e-08 0.0024786037 0)
(-2.0464698e-08 0.0024781492 0)
(-2.3570752e-08 0.0024759928 0)
(-2.647589e-08 0.0024659092 0)
(-2.9056065e-08 0.002422372 0)
(-3.0176053e-08 0.0022606279 0)
(-2.6177073e-08 0.0017795249 0)
(-1.1598891e-08 0.00073099241 0)
(1.1959311e-08 0.00073080725 0)
(2.4316865e-08 0.0017792266 0)
(2.2042788e-08 0.0022604003 0)
(1.4185485e-08 0.002422244 0)
(6.9007182e-09 0.0024658394 0)
(1.7538876e-09 0.0024759506 0)
(-1.616068e-09 0.0024781208 0)
(-3.8645692e-09 0.0024785837 0)
(-5.5650567e-09 0.0024786869 0)
(-7.2007426e-09 0.0024787114 0)
(-9.142086e-09 0.0024787144 0)
(-1.1562629e-08 0.0024786962 0)
(-1.4427289e-08 0.0024786012 0)
(-1.7590693e-08 0.0024781455 0)
(-2.1027805e-08 0.002475985 0)
(-2.5008743e-08 0.0024658845 0)
(-2.9708631e-08 0.0024222972 0)
(-3.3620146e-08 0.0022604558 0)
(-3.110114e-08 0.0017792737 0)
(-1.4046559e-08 0.0007308287 0)
)
;

boundaryField
{
    Wall
    {
        type            fixedValue;
        value           uniform (0 0 0);
    }
    frontAndBack
    {
        type            empty;
    }
    atmosphere
    {
        type            pressureInletOutletVelocity;
        value           nonuniform List<vector> 
20
(
(1.1959311e-08 0.00073080725 0)
(2.4316865e-08 0.0017792266 0)
(2.2042788e-08 0.0022604003 0)
(1.4185485e-08 0.002422244 0)
(6.9007182e-09 0.0024658394 0)
(1.7538876e-09 0.0024759506 0)
(-1.616068e-09 0.0024781208 0)
(-3.8645692e-09 0.0024785837 0)
(-5.5650567e-09 0.0024786869 0)
(-7.2007426e-09 0.0024787114 0)
(-9.142086e-09 0.0024787144 0)
(-1.1562629e-08 0.0024786962 0)
(-1.4427289e-08 0.0024786012 0)
(-1.7590693e-08 0.0024781455 0)
(-2.1027805e-08 0.002475985 0)
(-2.5008743e-08 0.0024658845 0)
(-2.9708631e-08 0.0024222972 0)
(-3.3620146e-08 0.0022604558 0)
(-3.110114e-08 0.0017792737 0)
(-1.4046559e-08 0.0007308287 0)
)
;
    }
}


// ************************************************************************* //
