/*--------------------------------*- C++ -*----------------------------------*\
| =========                 |                                                 |
| \\      /  F ield         | OpenFOAM: The Open Source CFD Toolbox           |
|  \\    /   O peration     | Version:  3.0.1                                 |
|   \\  /    A nd           | Web:      www.OpenFOAM.org                      |
|    \\/     M anipulation  |                                                 |
\*---------------------------------------------------------------------------*/
FoamFile
{
    version     2.0;
    format      ascii;
    class       volScalarField;
    location    "8";
    object      wBA_l;
}
// * * * * * * * * * * * * * * * * * * * * * * * * * * * * * * * * * * * * * //

dimensions      [0 0 0 0 0 0 0];

internalField   nonuniform List<scalar> 
800
(
0.056453428
0.056450201
0.056449256
0.056448775
0.056448418
0.056448138
0.056447928
0.056447778
0.056447682
0.056447635
0.056447635
0.056447682
0.056447778
0.056447928
0.056448139
0.056448418
0.056448775
0.056449257
0.056450201
0.056453429
0.056493415
0.05649261
0.056492659
0.056492729
0.056492788
0.056492833
0.056492869
0.056492895
0.056492913
0.056492921
0.056492921
0.056492913
0.056492895
0.056492869
0.056492834
0.056492788
0.05649273
0.056492659
0.056492611
0.056493415
0.035243258
0.035280666
0.035281836
0.035279849
0.035277706
0.035275898
0.035274503
0.035273512
0.035272882
0.035272578
0.035272578
0.035272883
0.035273513
0.035274505
0.0352759
0.035277709
0.035279852
0.035281839
0.03528067
0.035243262
0.014789807
0.014972631
0.014968215
0.014956259
0.014947065
0.014940023
0.014934925
0.014931377
0.014929131
0.014928042
0.014928043
0.014929134
0.014931382
0.014934933
0.014940032
0.014947075
0.014956272
0.014968227
0.014972644
0.01478982
0.0039641808
0.0045666648
0.0046523424
0.0046617634
0.0046599397
0.0046571758
0.0046550008
0.0046534758
0.0046525137
0.0046520455
0.0046520452
0.004652513
0.0046534751
0.0046550001
0.0046571749
0.0046599382
0.0046617612
0.0046523382
0.0045666597
0.0039641767
0.00066915918
0.0011785674
0.0012987115
0.0013224155
0.0013257115
0.0013253724
0.0013246625
0.0013241059
0.0013237497
0.0013235765
0.001323576
0.0013237483
0.0013241037
0.0013246597
0.0013253689
0.0013257069
0.0013224095
0.0012987037
0.0011785589
0.00066915304
7.6629008e-05
0.00026941649
0.00033832676
0.00035441398
0.00035725849
0.00035744921
0.0003572446
0.00035705117
0.00035692404
0.00035686208
0.00035686175
0.00035692308
0.0003570497
0.00035724268
0.00035744681
0.00035725543
0.00035441002
0.00033832188
0.00026941162
7.6626975e-05
7.8963758e-06
5.5747047e-05
8.0475271e-05
8.6974116e-05
8.8211703e-05
8.8332077e-05
8.8271692e-05
8.8206516e-05
8.8162753e-05
8.8141337e-05
8.8141185e-05
8.8162313e-05
8.820584e-05
8.8270815e-05
8.8330993e-05
8.8210356e-05
8.6972419e-05
8.0473271e-05
5.5745274e-05
7.8960022e-06
7.538414e-07
1.0263459e-05
1.6986007e-05
1.8937925e-05
1.9326178e-05
1.9368085e-05
1.9351646e-05
1.9332522e-05
1.9319468e-05
1.9313045e-05
1.9312992e-05
1.9319314e-05
1.9332284e-05
1.935134e-05
1.9367714e-05
1.932573e-05
1.893738e-05
1.6985396e-05
1.0262987e-05
7.5379153e-07
6.5222246e-08
1.6640737e-06
3.1453429e-06
3.6150278e-06
3.7116369e-06
3.722692e-06
3.7189059e-06
3.7142511e-06
3.7110257e-06
3.7094281e-06
3.7094129e-06
3.7109819e-06
3.7141839e-06
3.7188204e-06
3.7225908e-06
3.7115186e-06
3.6148896e-06
3.1451964e-06
1.6639763e-06
6.5216996e-08
5.0600482e-09
2.3777475e-07
5.1159382e-07
6.0565955e-07
6.2557921e-07
6.2797495e-07
6.2725379e-07
6.2631522e-07
6.2565487e-07
6.2532545e-07
6.2532192e-07
6.2564465e-07
6.2629957e-07
6.2723408e-07
6.2795207e-07
6.2555334e-07
6.0563067e-07
5.1156518e-07
2.3775847e-07
5.0595905e-09
3.5182682e-10
3.0125979e-08
7.3595678e-08
8.9685959e-08
9.3185811e-08
9.3627716e-08
9.3513341e-08
9.3354052e-08
9.3240205e-08
9.3183e-08
9.3182307e-08
9.3238204e-08
9.3350987e-08
9.3509502e-08
9.3623324e-08
9.3180983e-08
8.9680806e-08
7.3590916e-08
3.012367e-08
3.5179228e-10
2.2003952e-11
3.4101513e-09
9.4411381e-09
1.1837253e-08
1.2371844e-08
1.2442643e-08
1.2427326e-08
1.2404139e-08
1.2387297e-08
1.2378774e-08
1.2378658e-08
1.2386963e-08
1.2403627e-08
1.2426685e-08
1.2441915e-08
1.2371059e-08
1.1836446e-08
9.44044e-09
3.4098617e-09
2.2001607e-11
1.2438535e-12
3.4737504e-10
1.0884651e-09
1.4036187e-09
1.4756674e-09
1.4856538e-09
1.4839002e-09
1.4809556e-09
1.4787811e-09
1.4776731e-09
1.4776566e-09
1.4787331e-09
1.4808817e-09
1.4838075e-09
1.4855487e-09
1.475555e-09
1.4035059e-09
1.0883728e-09
3.4734206e-10
1.243707e-12
6.3864557e-14
3.2048093e-11
1.1354793e-10
1.5056533e-10
1.5922961e-10
1.6048243e-10
1.6030939e-10
1.5997853e-10
1.5973006e-10
1.5960263e-10
1.5960056e-10
1.5972406e-10
1.5996927e-10
1.602977e-10
1.6046911e-10
1.5921538e-10
1.5055121e-10
1.1353686e-10
3.2044646e-11
6.3856092e-14
2.9919786e-15
2.6928317e-12
1.0781025e-11
1.4697808e-11
1.5635681e-11
1.5776626e-11
1.5761888e-11
1.572862e-11
1.5703201e-11
1.5690087e-11
1.5689861e-11
1.5702545e-11
1.57276e-11
1.5760592e-11
1.5775139e-11
1.5634083e-11
1.4696228e-11
1.0779822e-11
2.6925024e-12
2.9915307e-15
1.2842955e-16
2.0707327e-13
9.3635572e-13
1.3123098e-12
1.404339e-12
1.4186587e-12
1.4175845e-12
1.4145635e-12
1.4122142e-12
1.4109952e-12
1.4109734e-12
1.4121506e-12
1.4144641e-12
1.4174574e-12
1.4185116e-12
1.4041797e-12
1.3121519e-12
9.3623804e-13
2.0704475e-13
1.2840807e-16
5.0697963e-18
1.4634499e-14
7.4714995e-14
1.0764046e-13
1.1587443e-13
1.171962e-13
1.1713118e-13
1.1688157e-13
1.1668391e-13
1.1658081e-13
1.1657892e-13
1.1667839e-13
1.1687291e-13
1.1712003e-13
1.1718319e-13
1.1586021e-13
1.076263e-13
7.4704632e-14
1.4632268e-14
5.0688667e-18
1.8465869e-19
9.5404856e-16
5.4979331e-15
8.1417369e-15
8.816772e-15
8.9282014e-15
8.9252252e-15
8.9063468e-15
8.8911137e-15
8.8831276e-15
8.8829793e-15
8.8906794e-15
8.9056627e-15
8.9243396e-15
8.9271606e-15
8.8156264e-15
8.1405906e-15
5.4971083e-15
9.5389063e-16
1.8462231e-19
6.2241182e-21
5.7557919e-17
3.7432378e-16
5.6976771e-16
6.2068872e-16
6.2930747e-16
6.2924598e-16
6.2793241e-16
6.2685164e-16
6.262822e-16
6.2627147e-16
6.2682019e-16
6.2788272e-16
6.2918138e-16
6.2923113e-16
6.2060422e-16
5.6968295e-16
3.7426389e-16
5.7547722e-17
6.2228202e-21
1.9464694e-22
3.2226754e-18
2.3648728e-17
3.6997945e-17
4.0545172e-17
4.1159242e-17
4.1165351e-17
4.1080915e-17
4.101002e-17
4.0972476e-17
4.0971752e-17
4.1007893e-17
4.1077546e-17
4.1160956e-17
4.115403e-17
4.0539383e-17
3.6992141e-17
2.3644711e-17
3.222068e-18
1.9460419e-22
5.6608924e-24
1.678782e-19
1.389909e-18
2.234934e-18
2.463843e-18
2.5042848e-18
2.505292e-18
2.5002605e-18
2.4959456e-18
2.4936486e-18
2.4936023e-18
2.4958097e-18
2.5000448e-18
2.5050099e-18
2.5039493e-18
2.4634699e-18
2.2345611e-18
1.389657e-18
1.6784442e-19
5.6595777e-24
1.534202e-25
8.154562e-21
7.6165545e-20
1.258741e-19
1.3959574e-19
1.4206517e-19
1.4215916e-19
1.4188041e-19
1.4163601e-19
1.4150519e-19
1.4150238e-19
1.4162775e-19
1.4186728e-19
1.4214195e-19
1.4204467e-19
1.3957292e-19
1.2585141e-19
7.6150616e-20
8.1527914e-21
1.5338206e-25
3.8817869e-27
3.7007168e-22
3.899289e-21
6.6230044e-21
7.3888784e-21
7.529054e-21
7.5360188e-21
7.5216254e-21
7.5087108e-21
7.5017584e-21
7.5015968e-21
7.508235e-21
7.520867e-21
7.5350214e-21
7.5278627e-21
7.3875525e-21
6.6216936e-21
3.8984504e-21
3.699838e-22
3.8807397e-27
9.1840089e-29
1.5718123e-23
1.8682147e-22
3.2612317e-22
3.660098e-22
3.7342395e-22
3.7386891e-22
3.7317483e-22
3.7253684e-22
3.7219134e-22
3.7218255e-22
3.7251094e-22
3.7313343e-22
3.7381428e-22
3.7335849e-22
3.6593688e-22
3.2605147e-22
1.8677689e-22
1.5713998e-23
9.1812898e-29
2.0347073e-30
6.2575866e-25
8.3898113e-24
1.5051739e-23
1.6993584e-23
1.7359722e-23
1.7385073e-23
1.7353762e-23
1.7324245e-23
1.7308163e-23
1.7307716e-23
1.7322923e-23
1.7351643e-23
1.7382265e-23
1.7356345e-23
1.6989814e-23
1.5048048e-23
8.3875787e-24
6.2557624e-25
2.034043e-30
4.2265302e-32
2.3382239e-26
3.5363087e-25
6.5201779e-25
7.405331e-25
7.574451e-25
7.5875612e-25
7.5743276e-25
7.5615197e-25
7.5544987e-25
7.554286e-25
7.5608911e-25
7.5733164e-25
7.5862154e-25
7.5728253e-25
7.4035111e-25
6.518402e-25
3.5352624e-25
2.3374685e-26
4.2250167e-32
8.4398975e-34
8.210092e-28
1.4006713e-26
2.6540934e-26
3.032406e-26
3.1055839e-26
3.1118035e-26
3.1065573e-26
3.1013381e-26
3.0984597e-26
3.0983659e-26
3.1010605e-26
3.1061093e-26
3.1112047e-26
3.1048572e-26
3.0315896e-26
2.6532985e-26
1.4002147e-26
8.2071721e-28
8.237351e-34
1.6793297e-35
2.7116689e-29
5.2186682e-28
1.0162648e-27
1.1680555e-27
1.1977574e-27
1.200483e-27
1.1985303e-27
1.1965308e-27
1.1954216e-27
1.1953833e-27
1.1964173e-27
1.1983464e-27
1.2002362e-27
1.1974564e-27
1.1677161e-27
1.0159348e-27
5.2168186e-28
2.7106182e-29
1.508885e-35
3.4043715e-37
8.4321013e-31
1.8306673e-29
3.6637092e-29
4.2360626e-29
4.3492795e-29
4.3603675e-29
4.3535368e-29
4.346329e-29
4.3423069e-29
4.3421619e-29
4.3458985e-29
4.3528378e-29
4.3594252e-29
4.3481252e-29
4.2347561e-29
3.6624407e-29
1.829973e-29
8.4285916e-31
2.5989305e-37
7.1292327e-39
2.4704389e-32
6.0508831e-31
1.2444929e-30
1.4474976e-30
1.4880669e-30
1.4922689e-30
1.490022e-30
1.487575e-30
1.4862018e-30
1.4861509e-30
1.4874236e-30
1.4897756e-30
1.4919355e-30
1.4876567e-30
1.4470317e-30
1.2440412e-30
6.0484685e-31
2.4693517e-32
4.2121849e-39
1.5288857e-40
6.8238405e-34
1.885686e-32
3.9856892e-32
4.6635027e-32
4.800279e-32
4.8151544e-32
4.8082001e-32
4.8003704e-32
4.7959529e-32
4.7957868e-32
4.799876e-32
4.8073932e-32
4.8140592e-32
4.7989267e-32
4.6619621e-32
3.9841977e-32
1.8849076e-32
6.8207171e-34
6.4275671e-41
3.2487354e-42
1.7779892e-35
5.5436324e-34
1.2041697e-33
1.417357e-33
1.4607744e-33
1.4657036e-33
1.4636775e-33
1.4613152e-33
1.4599753e-33
1.4599248e-33
1.4611648e-33
1.4634316e-33
1.465369e-33
1.46036e-33
1.4168838e-33
1.2037126e-33
5.5413031e-34
1.7771564e-35
9.2388518e-43
6.5181709e-44
4.3717757e-37
1.5380868e-35
3.4334659e-35
4.0654302e-35
4.1952716e-35
4.2105857e-35
4.2050278e-35
4.1983032e-35
4.1944693e-35
4.1943262e-35
4.1978764e-35
4.204329e-35
4.2096328e-35
4.1940893e-35
4.0640781e-35
3.4321635e-35
1.5374391e-35
4.3697129e-37
1.2513698e-44
1.1558323e-45
1.0147378e-38
4.0287585e-37
9.2423358e-37
1.1008731e-36
1.1374715e-36
1.1419379e-36
1.1405022e-36
1.1386956e-36
1.1376603e-36
1.1376223e-36
1.1385823e-36
1.1403166e-36
1.1416846e-36
1.1371569e-36
1.1005132e-36
9.2388808e-37
4.0270821e-37
1.0142628e-38
1.5976232e-46
1.5642257e-47
2.2238855e-40
9.9647155e-39
2.3492794e-38
2.8149561e-38
2.9122226e-38
2.9244636e-38
2.9209709e-38
2.9163888e-38
2.9137496e-38
2.9136553e-38
2.9161073e-38
2.9205096e-38
2.9238341e-38
2.9114407e-38
2.814062e-38
2.3484249e-38
9.9606714e-39
2.2228687e-40
1.9229562e-48
1.3265508e-49
4.6024192e-42
2.3276546e-40
5.6396097e-40
6.7977826e-40
7.0415777e-40
7.073126e-40
7.0651252e-40
7.054152e-40
7.0477991e-40
7.0475791e-40
7.0534955e-40
7.0640504e-40
7.0716608e-40
7.0397602e-40
6.7957081e-40
5.6376369e-40
2.3267443e-40
4.6003971e-42
2.182303e-50
1.0854737e-51
8.9946553e-44
5.1350608e-42
1.2786155e-41
1.5503859e-41
1.6080237e-41
1.6156739e-41
1.6139486e-41
1.611467e-41
1.6100229e-41
1.6099747e-41
1.6113232e-41
1.6137135e-41
1.6153542e-41
1.6076282e-41
1.5499359e-41
1.2781901e-41
5.1331483e-42
8.9908977e-44
2.3351261e-52
8.5842756e-54
1.659833e-45
1.0698259e-43
2.7376557e-43
3.3393528e-43
3.4678916e-43
3.4853535e-43
3.4818523e-43
3.4765527e-43
3.4734526e-43
3.4733532e-43
3.4762566e-43
3.4813693e-43
3.4846988e-43
3.4670853e-43
3.3384401e-43
2.7367992e-43
1.0694508e-43
1.6591807e-45
2.3555722e-54
6.5680397e-56
2.8915317e-47
2.1044473e-45
5.5346676e-45
6.7914836e-45
7.0618809e-45
7.0994098e-45
7.0927287e-45
7.0820425e-45
7.0757581e-45
7.0755652e-45
7.0814687e-45
7.0917953e-45
7.0981501e-45
7.0603392e-45
6.7897508e-45
5.5330562e-45
2.1037603e-45
2.8904737e-47
2.2395242e-56
)
;

boundaryField
{
    Wall
    {
        type            zeroGradient;
    }
    frontAndBack
    {
        type            empty;
    }
    atmosphere
    {
        type            zeroGradient;
    }
}


// ************************************************************************* //
