/*--------------------------------*- C++ -*----------------------------------*\
| =========                 |                                                 |
| \\      /  F ield         | OpenFOAM: The Open Source CFD Toolbox           |
|  \\    /   O peration     | Version:  3.0.1                                 |
|   \\  /    A nd           | Web:      www.OpenFOAM.org                      |
|    \\/     M anipulation  |                                                 |
\*---------------------------------------------------------------------------*/
FoamFile
{
    version     2.0;
    format      ascii;
    class       volScalarField;
    location    "8";
    object      wBA_g;
}
// * * * * * * * * * * * * * * * * * * * * * * * * * * * * * * * * * * * * * //

dimensions      [0 0 0 0 0 0 0];

internalField   nonuniform List<scalar> 
800
(
0.0053530717
0.0053529347
0.0053528442
0.0053528111
0.0053527856
0.0053527634
0.0053527459
0.0053527329
0.0053527244
0.0053527201
0.0053527202
0.0053527244
0.0053527329
0.0053527459
0.0053527635
0.0053527856
0.0053528112
0.0053528443
0.0053529347
0.0053530718
0.0012813251
0.0012855439
0.001286815
0.0012876346
0.0012881948
0.0012885905
0.0012888681
0.0012890575
0.001289176
0.001289233
0.001289233
0.0012891759
0.0012890573
0.0012888678
0.0012885902
0.0012881945
0.0012876342
0.0012868147
0.0012855434
0.0012813247
0.00032621386
0.00032754582
0.00032784872
0.00032801515
0.00032811175
0.0003281724
0.00032821139
0.0003282367
0.00032825213
0.00032825949
0.00032825948
0.0003282521
0.00032823665
0.00032821133
0.00032817233
0.00032811166
0.00032801505
0.00032784862
0.0003275457
0.00032621373
7.4278173e-05
7.4881539e-05
7.483585e-05
7.4774827e-05
7.4725793e-05
7.4686216e-05
7.4656811e-05
7.4636004e-05
7.4622714e-05
7.4616245e-05
7.4616253e-05
7.4622734e-05
7.4636035e-05
7.4656854e-05
7.468627e-05
7.472585e-05
7.47749e-05
7.4835925e-05
7.4881614e-05
7.4278256e-05
1.1980153e-05
1.3504463e-05
1.3724462e-05
1.3745629e-05
1.3736038e-05
1.3724267e-05
1.3715089e-05
1.370861e-05
1.3704498e-05
1.3702499e-05
1.3702499e-05
1.37045e-05
1.3708612e-05
1.3715093e-05
1.3724272e-05
1.3736042e-05
1.3745634e-05
1.3724464e-05
1.3504463e-05
1.1980159e-05
1.2871326e-06
2.2180925e-06
2.4568576e-06
2.5071057e-06
2.5141766e-06
2.5131297e-06
2.5112695e-06
2.5098111e-06
2.5088719e-06
2.508415e-06
2.5084144e-06
2.50887e-06
2.5098082e-06
2.5112657e-06
2.5131249e-06
2.51417e-06
2.5070972e-06
2.4568466e-06
2.2180809e-06
1.2871253e-06
9.5879807e-08
3.4635425e-07
4.4516225e-07
4.6979253e-07
4.7433473e-07
4.7466056e-07
4.7433552e-07
4.7402155e-07
4.738131e-07
4.7371132e-07
4.7371094e-07
4.73812e-07
4.7401984e-07
4.7433326e-07
4.7465772e-07
4.7433109e-07
4.697879e-07
4.4515669e-07
3.4634895e-07
9.5877806e-08
6.8711095e-09
5.3133833e-08
7.9835125e-08
8.7316596e-08
8.8800697e-08
8.8960327e-08
8.8898042e-08
8.8825933e-08
8.8776828e-08
8.8752732e-08
8.8752593e-08
8.8776421e-08
8.88253e-08
8.8897217e-08
8.8959305e-08
8.8799424e-08
8.7315018e-08
7.9833318e-08
5.3132328e-08
6.8708319e-09
5.0217133e-10
7.8479384e-09
1.3655168e-08
1.5444463e-08
1.5812902e-08
1.5856475e-08
1.584378e-08
1.5827553e-08
1.5816314e-08
1.5810768e-08
1.5810727e-08
1.5816194e-08
1.5827368e-08
1.5843542e-08
1.5856186e-08
1.5812552e-08
1.5444043e-08
1.365471e-08
7.8476092e-09
5.021417e-10
3.6506881e-11
1.0936083e-09
2.1797302e-09
2.5423852e-09
2.6189936e-09
2.6284173e-09
2.6259586e-09
2.622644e-09
2.6203173e-09
2.619162e-09
2.6191518e-09
2.6202878e-09
2.6225984e-09
2.6259005e-09
2.6283484e-09
2.6189132e-09
2.5422923e-09
2.1796346e-09
1.0935492e-09
3.6504191e-11
2.5719249e-12
1.4237839e-10
3.2219481e-10
3.8660182e-10
4.0049243e-10
4.0225067e-10
4.0182591e-10
4.0122742e-10
4.0080186e-10
4.0058913e-10
4.0058695e-10
4.0079555e-10
4.0121772e-10
4.0181367e-10
4.0223646e-10
4.0047638e-10
3.8658412e-10
3.2217773e-10
1.423693e-10
2.5717087e-12
1.728029e-13
1.7270745e-11
4.4083488e-11
5.4315574e-11
5.6563903e-11
5.6856934e-11
5.6792483e-11
5.6696837e-11
5.6627916e-11
5.6593225e-11
5.6592818e-11
5.6626737e-11
5.6695028e-11
5.6790214e-11
5.6854338e-11
5.6561054e-11
5.4312564e-11
4.4080776e-11
1.7269504e-11
1.7278699e-13
1.09787e-14
1.9527727e-12
5.5968063e-12
7.0717966e-12
7.4017277e-12
7.4461138e-12
7.4374932e-12
7.4238243e-12
7.4138369e-12
7.4087759e-12
7.4087087e-12
7.4136424e-12
7.4235254e-12
7.4371188e-12
7.4456888e-12
7.4012701e-12
7.07133e-12
5.5964114e-12
1.9526166e-12
1.0977596e-14
6.5690829e-16
2.0614656e-13
6.6142153e-13
8.5632168e-13
9.0068563e-13
9.0685505e-13
9.0583075e-13
9.0406381e-13
9.0275411e-13
9.0208613e-13
9.0207626e-13
9.0272553e-13
9.0401974e-13
9.0577542e-13
9.0679229e-13
9.0061863e-13
8.5625489e-13
6.6136787e-13
2.0612806e-13
6.5683475e-16
3.6966072e-17
2.0360185e-14
7.2986103e-14
9.6767331e-14
1.0227473e-13
1.0306634e-13
1.0295755e-13
1.0274886e-13
1.0259188e-13
1.0251133e-13
1.0251003e-13
1.0258812e-13
1.0274303e-13
1.029502e-13
1.0305797e-13
1.0226579e-13
9.6758505e-14
7.2979269e-14
2.0358105e-14
3.6961384e-17
1.9566311e-18
1.8855366e-15
7.5420169e-15
1.0236532e-14
1.0871278e-14
1.0965458e-14
1.0955105e-14
1.0932395e-14
1.0915054e-14
1.0906106e-14
1.0905953e-14
1.0914608e-14
1.09317e-14
1.0954222e-14
1.0964445e-14
1.087019e-14
1.023546e-14
7.5412062e-15
1.8853166e-15
1.9563489e-18
9.7514536e-20
1.6410534e-16
7.3180135e-16
1.0165644e-15
1.0847833e-15
1.0952113e-15
1.094331e-15
1.0920386e-15
1.0902612e-15
1.0893393e-15
1.0893228e-15
1.0902132e-15
1.0919635e-15
1.0942348e-15
1.0950999e-15
1.0846626e-15
1.0164449e-15
7.3171246e-16
1.6408367e-16
9.7498733e-20
4.5829062e-21
1.3453184e-17
6.6842441e-17
9.5016971e-17
1.0187905e-16
1.0295724e-16
1.0289123e-16
1.0267537e-16
1.0250537e-16
1.0241677e-16
1.0241515e-16
1.0250064e-16
1.0266793e-16
1.0288164e-16
1.0294604e-16
1.018668e-16
9.5004754e-17
6.6833459e-17
1.345121e-17
4.5820884e-21
2.034607e-22
1.041111e-18
5.7608963e-18
8.3790528e-18
9.0271484e-18
9.1315742e-18
9.1273524e-18
9.1083045e-18
9.0930605e-18
9.0850787e-18
9.0849306e-18
9.0926269e-18
9.1076208e-18
9.1264664e-18
9.1305321e-18
9.0259993e-18
8.3778996e-18
5.7600578e-18
1.0409446e-18
2.0342158e-22
8.5482994e-24
7.6217637e-20
4.6953362e-19
6.9869312e-19
7.563281e-19
7.6583007e-19
7.6562204e-19
7.6404065e-19
7.6275399e-19
7.6207729e-19
7.6206456e-19
7.6271669e-19
7.6398165e-19
7.6554526e-19
7.6573925e-19
7.5622733e-19
6.9859156e-19
4.6946066e-19
7.6204572e-20
8.5465565e-24
3.4050731e-25
5.28897e-21
3.6264353e-20
5.5205097e-20
6.00436e-20
6.0858124e-20
6.085371e-20
6.0729778e-20
6.0627211e-20
6.0573026e-20
6.0571982e-20
6.062415e-20
6.0724925e-20
6.0847373e-20
6.08506e-20
6.003522e-20
5.5196639e-20
3.6258367e-20
5.2880041e-21
3.4043413e-25
1.2881977e-26
3.4854872e-22
2.6592976e-21
4.1410778e-21
4.5254289e-21
4.5913739e-21
4.591982e-21
4.582788e-21
4.5750436e-21
4.5709334e-21
4.5708508e-21
4.5748012e-21
4.582403e-21
4.591478e-21
4.5907739e-21
4.5247595e-21
4.1404032e-21
2.6588288e-21
3.4848068e-22
1.2879047e-26
4.6363005e-28
2.1852393e-23
1.8548384e-22
2.9544003e-22
3.2439117e-22
3.294455e-22
3.29558e-22
3.2891074e-22
3.2835551e-22
3.280594e-22
3.2805306e-22
3.2833689e-22
3.2888111e-22
3.2951912e-22
3.2939911e-22
3.2433938e-22
2.9538805e-22
1.8544847e-22
2.1847784e-23
4.635171e-28
1.5899121e-29
1.305541e-24
1.2325913e-23
2.0080292e-23
2.215221e-23
2.2519735e-23
2.2532194e-23
2.2488862e-23
2.2450982e-23
2.2430678e-23
2.2430207e-23
2.2449596e-23
2.2486651e-23
2.2529285e-23
2.2516256e-23
2.2148325e-23
2.007641e-23
1.2323332e-23
1.3052394e-24
1.5894912e-29
5.2025972e-31
7.4438677e-26
7.8158037e-25
1.302219e-24
1.4433518e-24
1.4687558e-24
1.4698821e-24
1.4671183e-24
1.4646547e-24
1.4633273e-24
1.4632935e-24
1.4645554e-24
1.4669595e-24
1.4696722e-24
1.4685041e-24
1.4430704e-24
1.301939e-24
7.813984e-25
7.441964e-26
5.2010832e-31
1.6266719e-32
4.0563365e-27
4.7357213e-26
8.0691665e-26
8.985692e-26
9.1529146e-26
9.1618995e-26
9.1450791e-26
9.1297795e-26
9.1214918e-26
9.121261e-26
9.1290988e-26
9.1439868e-26
9.1604511e-26
9.1511707e-26
8.9837382e-26
8.0672285e-26
4.7344898e-26
4.0551821e-27
1.6261492e-32
4.8658565e-34
2.1152409e-28
2.7455237e-27
4.7838047e-27
5.3521034e-27
5.4571004e-27
5.4636338e-27
5.4538515e-27
5.4447665e-27
5.4398188e-27
5.4396687e-27
5.4443233e-27
5.4531381e-27
5.4626836e-27
5.4559514e-27
5.3508121e-27
4.7825262e-27
2.7447284e-27
2.1145724e-28
4.8641939e-34
1.4328344e-35
1.0568074e-29
1.5248075e-28
2.7167108e-28
3.0536284e-28
3.116608e-28
3.1210127e-28
3.1155695e-28
3.1104046e-28
3.1075769e-28
3.1074846e-28
3.1101316e-28
3.1151287e-28
3.120423e-28
3.1158916e-28
3.0528202e-28
2.7159111e-28
1.52432e-28
1.056439e-29
1.393689e-35
4.311683e-37
5.0643193e-31
8.1215502e-30
1.4795268e-29
1.670748e-29
1.7068856e-29
1.7096672e-29
1.706766e-29
1.7039516e-29
1.7024028e-29
1.7023492e-29
1.7037928e-29
1.7065089e-29
1.7093217e-29
1.7064637e-29
1.6702702e-29
1.4790541e-29
8.1187226e-30
5.0623911e-31
3.8291017e-37
1.3525842e-38
2.3301125e-32
4.1528167e-31
7.734968e-31
8.7751741e-31
8.9737819e-31
8.9903487e-31
8.9755227e-31
8.9608067e-31
8.9526689e-31
8.952375e-31
8.9599351e-31
8.9741065e-31
8.988438e-31
8.9714381e-31
8.772508e-31
7.7323301e-31
4.1512677e-31
2.3291573e-32
1.0097564e-38
4.4663444e-40
1.0303162e-33
2.0405066e-32
3.8856438e-32
4.428567e-32
4.5332344e-32
4.5425849e-32
4.5353132e-32
4.5279229e-32
4.5238169e-32
4.5236646e-32
4.5274704e-32
4.5345761e-32
4.5415866e-32
4.5320044e-32
4.4271624e-32
3.8842537e-32
2.0397051e-32
1.0298687e-33
2.557951e-40
1.5331737e-41
4.382055e-35
9.6428325e-34
1.8772288e-33
2.149387e-33
2.2023363e-33
2.2073558e-33
2.2039299e-33
2.2003619e-33
2.1983707e-33
2.1982959e-33
2.2001394e-33
2.2035665e-33
2.2068621e-33
2.2017257e-33
2.1486873e-33
1.8765365e-33
9.6389123e-34
4.3800717e-35
6.2296919e-42
5.2888451e-43
1.7940956e-36
4.3862507e-35
8.7291744e-35
1.0040657e-34
1.0298029e-34
1.0323729e-34
1.0308213e-34
1.0291638e-34
1.0282349e-34
1.0282e-34
1.0290599e-34
1.0306513e-34
1.0321413e-34
1.0295156e-34
1.0037355e-34
8.7259092e-35
4.3844357e-35
1.7932636e-36
1.4597171e-43
1.7500158e-44
7.0760944e-38
1.9218891e-36
3.9098111e-36
4.5178408e-36
4.638151e-36
4.6507295e-36
4.6439695e-36
4.6365552e-36
4.6323828e-36
4.6322278e-36
4.6360934e-36
4.6432127e-36
4.6496965e-36
4.6368667e-36
4.5163622e-36
3.9083507e-36
1.9210923e-36
7.0727859e-38
3.2931553e-45
5.211548e-46
2.6903974e-39
8.1172285e-38
1.6879702e-37
1.9593909e-37
2.0135204e-37
2.0194164e-37
2.0165813e-37
2.0133853e-37
2.0115795e-37
2.0115138e-37
2.0131894e-37
2.0162601e-37
2.0189774e-37
2.012974e-37
1.9587613e-37
1.6873495e-37
8.1139064e-38
2.6891494e-39
7.1579714e-47
1.2086209e-47
9.8669903e-41
3.3067905e-39
7.02872e-39
8.1961329e-39
8.4307077e-39
8.4572167e-39
8.4457648e-39
8.4324796e-39
8.4249434e-39
8.4246768e-39
8.431685e-39
8.4444616e-39
8.4554359e-39
8.4284908e-39
8.1935788e-39
7.0262089e-39
3.3054723e-39
9.8625231e-41
1.499929e-48
1.8146322e-49
3.4925778e-42
1.3001017e-40
2.8245151e-40
3.3086343e-40
3.4066151e-40
3.4180626e-40
3.4136048e-40
3.4082761e-40
3.4052414e-40
3.4051378e-40
3.4079672e-40
3.4130985e-40
3.4173716e-40
3.4057559e-40
3.3076457e-40
2.8235466e-40
1.2996033e-40
3.4910623e-42
3.0317819e-50
2.7025414e-51
1.1937863e-43
4.9357123e-42
1.0959735e-41
1.2896545e-41
1.3291264e-41
1.3338797e-41
1.3322067e-41
1.3301431e-41
1.3289633e-41
1.3289245e-41
1.3300278e-41
1.332018e-41
1.3336228e-41
1.3288078e-41
1.289289e-41
1.095617e-41
4.9339143e-42
1.1932951e-43
5.9140868e-52
4.0004132e-53
3.9420441e-45
1.8102145e-43
4.1082366e-43
4.8561872e-43
5.0096428e-43
5.0286406e-43
5.0225844e-43
5.0148644e-43
5.010433e-43
5.0102938e-43
5.0144504e-43
5.0219086e-43
5.0277236e-43
5.0085107e-43
4.8548947e-43
4.1069834e-43
1.8095955e-43
3.940523e-45
1.1138272e-53
5.8915564e-55
1.2580409e-46
6.4164877e-45
1.4883289e-44
1.7672897e-44
1.8248983e-44
1.8322144e-44
1.8300993e-44
1.827308e-44
1.8256993e-44
1.8256511e-44
1.8271649e-44
1.8298664e-44
1.8318997e-44
1.8245123e-44
1.7668521e-44
1.4879079e-44
6.4144523e-45
1.2575907e-46
2.0259521e-55
)
;

boundaryField
{
    Wall
    {
        type            zeroGradient;
    }
    frontAndBack
    {
        type            empty;
    }
    atmosphere
    {
        type            zeroGradient;
    }
}


// ************************************************************************* //
