/*--------------------------------*- C++ -*----------------------------------*\
| =========                 |                                                 |
| \\      /  F ield         | OpenFOAM: The Open Source CFD Toolbox           |
|  \\    /   O peration     | Version:  3.0.1                                 |
|   \\  /    A nd           | Web:      www.OpenFOAM.org                      |
|    \\/     M anipulation  |                                                 |
\*---------------------------------------------------------------------------*/
FoamFile
{
    version     2.0;
    format      ascii;
    class       volScalarField;
    location    "8";
    object      wBA_l_0;
}
// * * * * * * * * * * * * * * * * * * * * * * * * * * * * * * * * * * * * * //

dimensions      [0 0 0 0 0 0 0];

internalField   nonuniform List<scalar> 
800
(
0.056452011
0.056448824
0.056447902
0.056447437
0.056447094
0.056446825
0.056446623
0.056446479
0.056446387
0.056446342
0.056446342
0.056446387
0.056446479
0.056446623
0.056446826
0.056447095
0.056447437
0.056447902
0.056448824
0.056452011
0.056493145
0.056492345
0.056492384
0.056492443
0.056492491
0.056492529
0.056492558
0.05649258
0.056492595
0.056492602
0.056492602
0.056492595
0.05649258
0.056492558
0.056492529
0.056492492
0.056492443
0.056492384
0.056492346
0.056493145
0.034961919
0.034999086
0.035000218
0.034998201
0.034996038
0.034994218
0.034992816
0.034991821
0.034991189
0.034990884
0.034990884
0.03499119
0.034991823
0.034992818
0.034994221
0.034996041
0.034998204
0.035000221
0.03499909
0.034961923
0.014451414
0.014635483
0.014631353
0.01461961
0.014610597
0.014603701
0.014598712
0.014595241
0.014593044
0.014591979
0.01459198
0.014593048
0.014595246
0.014598719
0.01460371
0.014610607
0.014619622
0.014631364
0.014635495
0.014451427
0.0038112055
0.004407575
0.0044929004
0.0045024561
0.0045008123
0.0044982032
0.0044961429
0.0044946983
0.0044937871
0.0044933437
0.0044933434
0.0044937864
0.0044946975
0.0044961421
0.0044982021
0.0045008106
0.0045024536
0.004492896
0.0044075697
0.0038112012
0.00063434446
0.0011266241
0.0012425211
0.0012652256
0.0012683559
0.001268033
0.0012673623
0.0012668377
0.0012665025
0.0012663395
0.001266339
0.0012665011
0.0012668356
0.0012673596
0.0012680295
0.0012683514
0.0012652196
0.0012425134
0.0011266157
0.00063433841
7.238871e-05
0.00025564983
0.000320879
0.00033596907
0.0003386036
0.00033876948
0.00033857352
0.00033839071
0.00033827092
0.00033821258
0.00033821226
0.00033826999
0.0003383893
0.00033857167
0.00033876717
0.00033860066
0.00033596525
0.0003208743
0.00025564511
7.2386749e-05
7.4453539e-06
5.2438753e-05
7.5508825e-05
8.1507205e-05
8.2633863e-05
8.2738161e-05
8.2679726e-05
8.2618274e-05
8.2577191e-05
8.2557108e-05
8.2556964e-05
8.2576775e-05
8.2617634e-05
8.2678895e-05
8.2737135e-05
8.2632587e-05
8.1505595e-05
7.5506921e-05
5.243706e-05
7.444997e-06
7.0732632e-07
9.5506721e-06
1.5734227e-05
1.7507751e-05
1.7855491e-05
1.7891336e-05
1.7875469e-05
1.7857619e-05
1.7845495e-05
1.7839537e-05
1.7839487e-05
1.7845351e-05
1.7857397e-05
1.7875184e-05
1.7890991e-05
1.7855074e-05
1.7507242e-05
1.5733654e-05
9.5502276e-06
7.0727914e-07
6.0752035e-08
1.529569e-06
2.8721891e-06
3.2921222e-06
3.3772373e-06
3.3865672e-06
3.3829498e-06
3.3786676e-06
3.3757158e-06
3.3742555e-06
3.3742416e-06
3.3756756e-06
3.378606e-06
3.3828715e-06
3.3864744e-06
3.3771289e-06
3.2919953e-06
2.8720541e-06
1.5294787e-06
6.0747118e-08
4.672158e-09
2.1568032e-07
4.601262e-07
5.4285329e-07
5.6011284e-07
5.621083e-07
5.6142792e-07
5.605785e-07
5.5998407e-07
5.596879e-07
5.5968472e-07
5.5997485e-07
5.6056438e-07
5.6141015e-07
5.6208768e-07
5.6008954e-07
5.4282723e-07
4.6010026e-07
2.1566545e-07
4.671734e-09
3.2174236e-10
2.695051e-08
6.5157578e-08
7.9073646e-08
8.2055531e-08
8.2418806e-08
8.2312232e-08
8.2170516e-08
8.2069793e-08
8.2019245e-08
8.2018631e-08
8.2068019e-08
8.21678e-08
8.2308832e-08
8.2414917e-08
8.2051256e-08
7.9069077e-08
6.5153337e-08
2.6948433e-08
3.2171072e-10
1.991738e-11
3.0073167e-09
8.224602e-09
1.0262132e-08
1.0709929e-08
1.0767353e-08
1.0753236e-08
1.0732962e-08
1.0718322e-08
1.0710923e-08
1.0710822e-08
1.0718031e-08
1.0732516e-08
1.0752678e-08
1.076672e-08
1.0709246e-08
1.0261428e-08
8.2239906e-09
3.0070602e-09
1.9915255e-11
1.1138937e-12
3.0186376e-10
9.3266162e-10
1.1960887e-09
1.2554095e-09
1.2633964e-09
1.2617931e-09
1.2592631e-09
1.2574065e-09
1.2564617e-09
1.2564475e-09
1.2573654e-09
1.2592e-09
1.2617139e-09
1.2633065e-09
1.2553134e-09
1.195992e-09
9.3258213e-10
3.0183497e-10
1.1137623e-12
5.6558128e-14
2.7432206e-11
9.5665878e-11
1.2607271e-10
1.3308262e-10
1.340699e-10
1.3391233e-10
1.3363303e-10
1.3342466e-10
1.3331796e-10
1.3331623e-10
1.3341963e-10
1.3362525e-10
1.3390252e-10
1.3405872e-10
1.3307066e-10
1.2606082e-10
9.5656499e-11
2.7429242e-11
5.6550618e-14
2.6192987e-15
2.2696467e-12
8.9280591e-12
1.2088846e-11
1.283424e-11
1.2943602e-11
1.2930145e-11
1.2902555e-11
1.2881626e-11
1.2870845e-11
1.287066e-11
1.2881086e-11
1.2901715e-11
1.2929078e-11
1.2942378e-11
1.2832924e-11
1.2087541e-11
8.9270576e-12
2.2693678e-12
2.6189057e-15
1.1110145e-16
1.7179451e-13
7.6191581e-13
1.059881e-12
1.131707e-12
1.1426389e-12
1.1416434e-12
1.1391825e-12
1.1372836e-12
1.1363001e-12
1.1362825e-12
1.1372323e-12
1.1391022e-12
1.1415408e-12
1.14252e-12
1.1315782e-12
1.0597528e-12
7.6181954e-13
1.7177073e-13
1.1108282e-16
4.3322343e-18
1.1946593e-14
5.9715971e-14
8.5336272e-14
9.1644763e-14
9.2636898e-14
9.2574129e-14
9.2374447e-14
9.2217659e-14
9.2136026e-14
9.213453e-14
9.2213288e-14
9.2367588e-14
9.2565297e-14
9.2626588e-14
9.1633489e-14
8.5325002e-14
5.9707648e-14
1.1944764e-14
4.3314381e-18
1.5580999e-19
7.660551e-16
4.3146225e-15
6.333701e-15
6.8412089e-15
6.9233933e-15
6.920174e-15
6.9053459e-15
6.8934915e-15
6.8872888e-15
6.8871737e-15
6.8931543e-15
6.9048147e-15
6.9194863e-15
6.9225848e-15
6.8403181e-15
6.3328064e-15
4.3139725e-15
7.6592777e-16
1.5577923e-19
5.1837265e-21
4.5441922e-17
2.8833086e-16
4.347715e-16
4.7232481e-16
4.7856718e-16
4.7845315e-16
4.7744037e-16
4.7661549e-16
4.7618177e-16
4.7617361e-16
4.7659155e-16
4.7740255e-16
4.7840397e-16
4.7850905e-16
4.722604e-16
4.3470665e-16
2.8828456e-16
4.5433843e-17
5.1826437e-21
1.5994876e-22
2.5007165e-18
1.7872553e-17
2.768208e-17
3.0247181e-17
3.0683689e-17
3.0683652e-17
3.0619766e-17
3.0566714e-17
3.0538683e-17
3.0538142e-17
3.0565127e-17
3.0617252e-17
3.0680373e-17
3.0679799e-17
3.0242856e-17
2.7677727e-17
1.7869508e-17
2.5002437e-18
1.5991359e-22
4.587883e-24
1.2798743e-19
1.0302185e-18
1.6389776e-18
1.801221e-18
1.82942e-18
1.8298655e-18
1.8261306e-18
1.822966e-18
1.8212853e-18
1.8212515e-18
1.8228666e-18
1.8259728e-18
1.8296592e-18
1.8291746e-18
1.8009478e-18
1.6387035e-18
1.0300311e-18
1.2796161e-19
4.5868162e-24
1.2258097e-25
6.1055039e-21
5.5346282e-20
9.0438802e-20
9.9967143e-20
1.0165524e-19
1.0170543e-19
1.0150249e-19
1.0132688e-19
1.0123312e-19
1.0123111e-19
1.0132097e-19
1.0149309e-19
1.016931e-19
1.0164054e-19
9.9950772e-20
9.0422461e-20
5.5335401e-20
6.1041745e-21
1.2255046e-25
3.0563093e-27
2.7200099e-22
2.7766304e-21
4.660146e-21
5.180966e-21
5.2748599e-21
5.2788059e-21
5.2685316e-21
5.259444e-21
5.254565e-21
5.2544516e-21
5.2591101e-21
5.2679992e-21
5.2781058e-21
5.2740234e-21
5.1800341e-21
4.6592212e-21
2.7760314e-21
2.7193622e-22
3.0554837e-27
7.1224166e-29
1.1335939e-23
1.3030782e-22
2.2462625e-22
2.5117729e-22
2.5604092e-22
2.5629835e-22
2.5581273e-22
2.5537328e-22
2.5513597e-22
2.5512993e-22
2.5535548e-22
2.5578429e-22
2.5626081e-22
2.5599593e-22
2.5112711e-22
2.2457673e-22
1.3027661e-22
1.1332955e-23
7.1203049e-29
1.5535403e-30
4.4262519e-25
5.7293713e-24
1.0143784e-23
1.140849e-23
1.1643587e-23
1.1658316e-23
1.1636851e-23
1.1616958e-23
1.1606152e-23
1.1605851e-23
1.1616069e-23
1.1635426e-23
1.1656428e-23
1.1641316e-23
1.1405952e-23
1.014129e-23
5.7278416e-24
4.4249579e-25
1.5530323e-30
3.1755367e-32
1.621359e-26
2.3632368e-25
4.2973279e-25
4.8610989e-25
4.9673324e-25
4.9749138e-25
4.9660282e-25
4.957586e-25
4.9529729e-25
4.9528331e-25
4.9571728e-25
4.9653635e-25
4.9740292e-25
4.9662634e-25
4.8599009e-25
4.2961539e-25
2.3625353e-25
1.6208337e-26
3.174399e-32
6.2264252e-34
5.578106e-28
9.1553985e-27
1.7098681e-26
1.9453859e-26
1.9903297e-26
1.9938902e-26
1.9904413e-26
1.9870785e-26
1.9852301e-26
1.9851699e-26
1.9869003e-26
1.9901536e-26
1.9935056e-26
1.9898629e-26
1.9448608e-26
1.7093545e-26
9.1524046e-27
5.5761167e-28
6.0871148e-34
1.2083839e-35
1.8042325e-29
3.334694e-28
6.3963468e-28
7.3195051e-28
7.4977627e-28
7.5131524e-28
7.5005875e-28
7.4880013e-28
7.4810433e-28
7.4808032e-28
7.4872894e-28
7.4994348e-28
7.5116046e-28
7.4958747e-28
7.3173734e-28
6.3942646e-28
3.3335089e-28
1.8035318e-29
1.0960716e-35
2.3706987e-37
5.4912229e-31
1.1429343e-29
2.2515681e-29
2.5914371e-29
2.657795e-29
2.6639534e-29
2.6596534e-29
2.6552229e-29
2.6527599e-29
2.6526712e-29
2.6549596e-29
2.6592257e-29
2.6633769e-29
2.6570885e-29
2.5906363e-29
2.2507868e-29
1.1424998e-29
5.4889336e-31
1.8547802e-37
4.7736282e-39
1.5737405e-32
3.6888789e-31
7.4635214e-31
8.6398174e-31
8.8718929e-31
8.8948029e-31
8.8809697e-31
8.8662905e-31
8.8580858e-31
8.8577821e-31
8.8653876e-31
8.8794995e-31
8.8928133e-31
8.8694444e-31
8.6370324e-31
7.4608074e-31
3.687404e-31
1.5730473e-32
2.9516369e-39
9.8202377e-41
4.2496093e-34
1.1218743e-32
2.3311888e-32
2.7142058e-32
2.7905219e-32
2.7984696e-32
2.794284e-32
2.7897032e-32
2.7871294e-32
2.7870328e-32
2.7894157e-32
2.7938148e-32
2.7978326e-32
2.7897351e-32
2.7133081e-32
2.3303154e-32
1.1214104e-32
4.2476639e-34
4.4196559e-41
2.0051818e-42
1.0817621e-35
3.2165465e-34
6.8644518e-34
8.0385019e-34
8.2746329e-34
8.300403e-34
8.288487e-34
8.2750153e-34
8.2674076e-34
8.2671218e-34
8.2741636e-34
8.2870942e-34
8.2985072e-34
8.2722844e-34
8.0358164e-34
6.8618439e-34
3.2151937e-34
1.0812558e-35
6.229609e-43
3.8794462e-44
2.5968648e-37
8.6976761e-36
1.9063449e-35
2.2452989e-35
2.314082e-35
2.321906e-35
2.3187131e-35
2.3149777e-35
2.3128579e-35
2.312779e-35
2.3147424e-35
2.3183277e-35
2.3213805e-35
2.3134297e-35
2.244552e-35
1.9056215e-35
8.6940113e-36
2.5956412e-37
8.2685583e-45
6.6551659e-46
5.8806316e-39
2.2187612e-37
4.9944896e-37
5.9165263e-37
6.1052345e-37
6.1275071e-37
6.1194536e-37
6.1096857e-37
6.104115e-37
6.1039115e-37
6.1090783e-37
6.1184583e-37
6.1261485e-37
6.1035463e-37
5.914592e-37
4.9926226e-37
2.2178379e-37
5.877885e-39
1.0337248e-46
8.7339853e-48
1.2564158e-40
5.3406416e-39
1.2346873e-38
1.4710769e-38
1.5198543e-38
1.5258053e-38
1.5238931e-38
1.5214835e-38
1.5201026e-38
1.5200534e-38
1.5213367e-38
1.5236526e-38
1.5254771e-38
1.5194464e-38
1.4706099e-38
1.2342384e-38
5.3384749e-39
1.2558429e-40
1.2174595e-48
7.284124e-50
2.5328578e-42
1.2130794e-40
2.8802975e-40
3.4515831e-40
3.5703926e-40
3.5853285e-40
3.581055e-40
3.5754466e-40
3.5722168e-40
3.5721053e-40
3.5751142e-40
3.5805106e-40
3.5845864e-40
3.5694719e-40
3.4505306e-40
2.8792908e-40
1.2126053e-40
2.531748e-42
1.3508399e-50
5.8649362e-52
4.817753e-44
2.6001019e-42
6.34054e-42
7.6420557e-42
7.9147845e-42
7.9500152e-42
7.9410272e-42
7.9287109e-42
7.9215832e-42
7.9213462e-42
7.9280043e-42
7.9398719e-42
7.9484439e-42
7.9128401e-42
7.6398403e-42
6.3384334e-42
2.5991346e-42
4.8157461e-44
1.4119881e-52
4.565883e-54
8.6450701e-46
5.2582472e-44
1.3169587e-43
1.5964712e-43
1.6554722e-43
1.6632855e-43
1.6615073e-43
1.6589554e-43
1.6574712e-43
1.6574239e-43
1.6588143e-43
1.6612771e-43
1.6629735e-43
1.6550878e-43
1.5960355e-43
1.3165474e-43
5.2564063e-44
8.6416826e-46
1.3901257e-54
3.4394455e-56
1.4630515e-47
1.0030738e-45
2.5803339e-45
3.1461235e-45
3.2664074e-45
3.2827048e-45
3.2793972e-45
3.2744098e-45
3.2714943e-45
3.2714052e-45
3.2741448e-45
3.2789662e-45
3.2821231e-45
3.2656955e-45
3.1453223e-45
2.5795841e-45
1.002747e-45
1.462518e-47
1.2886359e-56
)
;

boundaryField
{
    Wall
    {
        type            zeroGradient;
    }
    frontAndBack
    {
        type            empty;
    }
    atmosphere
    {
        type            zeroGradient;
    }
}


// ************************************************************************* //
