/*--------------------------------*- C++ -*----------------------------------*\
| =========                 |                                                 |
| \\      /  F ield         | OpenFOAM: The Open Source CFD Toolbox           |
|  \\    /   O peration     | Version:  3.0.1                                 |
|   \\  /    A nd           | Web:      www.OpenFOAM.org                      |
|    \\/     M anipulation  |                                                 |
\*---------------------------------------------------------------------------*/
FoamFile
{
    version     2.0;
    format      ascii;
    class       volScalarField;
    location    "8";
    object      wCO2_l;
}
// * * * * * * * * * * * * * * * * * * * * * * * * * * * * * * * * * * * * * //

dimensions      [0 0 0 0 0 0 0];

internalField   nonuniform List<scalar> 
800
(
0.0028980835
0.0028979587
0.0028979248
0.002897906
0.0028978918
0.0028978808
0.0028978724
0.0028978665
0.0028978627
0.0028978609
0.0028978609
0.0028978627
0.0028978665
0.0028978724
0.0028978808
0.0028978918
0.002897906
0.0028979248
0.0028979587
0.0028980835
0.0032699826
0.003270129
0.0032701158
0.003270099
0.0032700874
0.0032700789
0.0032700728
0.0032700685
0.0032700657
0.0032700643
0.0032700643
0.0032700657
0.0032700686
0.0032700729
0.003270079
0.0032700874
0.0032700991
0.0032701159
0.0032701291
0.0032699827
0.0032405946
0.0032650687
0.0032652416
0.003265161
0.0032650489
0.0032649481
0.0032648676
0.0032648093
0.0032647718
0.0032647537
0.0032647537
0.0032647719
0.0032648094
0.0032648677
0.0032649483
0.0032650491
0.0032651611
0.0032652418
0.0032650689
0.0032405948
0.0010503715
0.0010753639
0.0010745544
0.0010734702
0.0010726584
0.0010720387
0.0010715906
0.0010712786
0.0010710811
0.0010709852
0.0010709853
0.0010710813
0.0010712791
0.0010715913
0.0010720395
0.0010726593
0.0010734713
0.0010745555
0.001075365
0.0010503728
0.00022923288
0.00026586268
0.00027056944
0.00027103791
0.00027088323
0.00027068495
0.00027053112
0.00027042334
0.00027035527
0.00027032218
0.00027032217
0.00027035526
0.00027042334
0.00027053113
0.00027068496
0.00027088321
0.00027103787
0.0002705693
0.00026586251
0.00022923278
3.4000828e-05
6.0133914e-05
6.6296164e-05
6.7525253e-05
6.7694078e-05
6.7672207e-05
6.7631575e-05
6.7599896e-05
6.7579614e-05
6.7569754e-05
6.756973e-05
6.7579547e-05
6.7599795e-05
6.7631444e-05
6.7672041e-05
6.769386e-05
6.7524965e-05
6.6295787e-05
6.0133503e-05
3.4000538e-05
3.6698438e-06
1.2913011e-05
1.6227774e-05
1.7006373e-05
1.7144306e-05
1.715319e-05
1.7142866e-05
1.7133173e-05
1.7126803e-05
1.7123699e-05
1.7123683e-05
1.7126758e-05
1.7133104e-05
1.7142775e-05
1.7153076e-05
1.7144162e-05
1.7006186e-05
1.6227544e-05
1.2912781e-05
3.6697475e-06
3.7636548e-07
2.6268648e-06
3.7845352e-06
4.0888746e-06
4.1467918e-06
4.152338e-06
4.149425e-06
4.1463098e-06
4.14422e-06
4.1431977e-06
4.1431906e-06
4.1441996e-06
4.1462782e-06
4.149384e-06
4.1522873e-06
4.1467288e-06
4.0887952e-06
3.7844416e-06
2.6267815e-06
3.7634762e-07
3.6822281e-08
4.8717796e-07
8.0126147e-07
8.9203619e-07
9.1003098e-07
9.1193843e-07
9.1114519e-07
9.1023625e-07
9.0961704e-07
9.0931251e-07
9.0931e-07
9.0960979e-07
9.1022508e-07
9.1113085e-07
9.1192106e-07
9.1000998e-07
8.9201059e-07
8.0123268e-07
4.8715557e-07
3.6819831e-08
3.3125912e-09
8.0609332e-08
1.5068902e-07
1.7271629e-07
1.7722295e-07
1.7772793e-07
1.7754185e-07
1.7731788e-07
1.7716311e-07
1.770865e-07
1.7708578e-07
1.7716102e-07
1.7731468e-07
1.7753778e-07
1.7772311e-07
1.7721732e-07
1.727097e-07
1.5068201e-07
8.0604616e-08
3.3123231e-09
2.695704e-10
1.1849809e-08
2.5087292e-08
2.9578526e-08
3.0523216e-08
3.0634326e-08
3.0597898e-08
3.055176e-08
3.0519408e-08
3.0503284e-08
3.0503112e-08
3.0518912e-08
3.0550999e-08
3.0596939e-08
3.0633213e-08
3.0521958e-08
2.9577119e-08
2.508589e-08
1.1848997e-08
2.6954593e-10
1.9796372e-11
1.5541621e-09
3.7157519e-09
4.5031967e-09
4.6731375e-09
4.6941205e-09
4.688141e-09
4.6800915e-09
4.6743612e-09
4.6714848e-09
4.6714502e-09
4.6742611e-09
4.6799381e-09
4.687949e-09
4.693901e-09
4.6728961e-09
4.5029386e-09
3.715512e-09
1.5540431e-09
1.9794427e-11
1.3159859e-12
1.8310725e-10
4.9329996e-10
6.1416922e-10
6.408993e-10
6.4436347e-10
6.4352887e-10
6.4231799e-10
6.4144252e-10
6.41e-10
6.4099403e-10
6.4142527e-10
6.4229151e-10
6.4349575e-10
6.4432588e-10
6.4085876e-10
6.1412745e-10
4.9326359e-10
1.8309174e-10
1.3158459e-12
7.9563466e-14
1.9515254e-11
5.9143767e-11
7.5614255e-11
7.9343166e-11
7.9849472e-11
7.9749077e-11
7.9589382e-11
7.9472083e-11
7.9412395e-11
7.9411506e-11
7.9469509e-11
7.9585418e-11
7.9744106e-11
7.9843834e-11
7.933714e-11
7.5608194e-11
5.9138771e-11
1.9513407e-11
7.9554119e-14
4.3964671e-15
1.893528e-12
6.4472726e-12
8.461562e-12
8.92803e-12
8.9941796e-12
8.9836692e-12
8.9649439e-12
8.9509674e-12
8.9438108e-12
8.9436952e-12
8.9506322e-12
8.9644253e-12
8.9830152e-12
8.9934346e-12
8.9272339e-12
8.4607708e-12
6.4466463e-12
1.8933251e-12
4.3958863e-15
2.2306605e-16
1.6820561e-13
6.4279417e-13
8.6580506e-13
9.1858937e-13
9.2637778e-13
9.2541557e-13
9.2344101e-13
9.21943e-13
9.2117147e-13
9.2115825e-13
9.2190453e-13
9.2338121e-13
9.2533963e-13
9.2629064e-13
9.1849575e-13
8.6571224e-13
6.4272273e-13
1.6818513e-13
2.2303276e-16
1.0436049e-17
1.3747285e-14
5.8913662e-14
8.1424047e-14
8.6865454e-14
8.7697606e-14
8.7620727e-14
8.7431738e-14
8.7285963e-14
8.7210478e-14
8.7209132e-14
8.7282038e-14
8.7425605e-14
8.7612883e-14
8.768853e-14
8.6855621e-14
8.1414268e-14
5.8906282e-14
1.3745399e-14
1.0434308e-17
4.5191795e-19
1.0381757e-15
4.9858347e-15
7.0695497e-15
7.5836007e-15
7.6647778e-15
7.6594875e-15
7.6429451e-15
7.6299671e-15
7.6232129e-15
7.6230896e-15
7.6296068e-15
7.6423796e-15
7.6587596e-15
7.6639285e-15
7.5826725e-15
7.0686218e-15
4.9851453e-15
1.038018e-15
4.5183521e-19
1.8175117e-20
7.2718326e-17
3.911323e-16
5.6889632e-16
6.1362272e-16
6.2089146e-16
6.2058994e-16
6.1925749e-16
6.1819378e-16
6.1763754e-16
6.1762725e-16
6.1816365e-16
6.1921001e-16
6.2052849e-16
6.2081925e-16
6.1354318e-16
5.6881641e-16
3.9107378e-16
7.2706326e-17
1.8171539e-20
6.8093343e-22
4.7400539e-18
2.8540054e-17
4.2576031e-17
4.6175607e-17
4.6775828e-17
4.6763303e-17
4.666403e-17
4.6583345e-17
4.6540954e-17
4.6540159e-17
4.6581014e-17
4.6660345e-17
4.6758513e-17
4.6770169e-17
4.6169337e-17
4.2569712e-17
2.85355e-17
4.7392165e-18
6.8079143e-22
2.3829615e-23
2.8838324e-19
1.9428492e-18
2.9723576e-18
3.2413178e-18
3.2872138e-18
3.287081e-18
3.2802102e-18
3.2745213e-18
3.2715183e-18
3.2714606e-18
3.274352e-18
3.279942e-18
3.2867311e-18
3.2867988e-18
3.2408563e-18
2.9718925e-18
1.9425201e-18
2.8832901e-19
2.3824379e-23
7.8084452e-25
1.6418811e-20
1.2371892e-19
1.9409063e-19
2.128099e-19
2.1607139e-19
2.1611326e-19
2.156699e-19
2.1529568e-19
2.1509717e-19
2.150932e-19
2.15284e-19
2.1565135e-19
2.16089e-19
2.1604255e-19
2.1277777e-19
1.9405832e-19
1.2369654e-19
1.6415515e-20
7.8066298e-25
2.4009682e-26
8.7682228e-22
7.3871551e-21
1.1882577e-20
1.3099601e-20
1.3315682e-20
1.3321442e-20
1.3294687e-20
1.3271649e-20
1.3259366e-20
1.3259104e-20
1.3270878e-20
1.3293461e-20
1.3319835e-20
1.3313767e-20
1.3097466e-20
1.1880441e-20
7.3857104e-21
8.7663222e-22
2.4003706e-26
6.9410046e-28
4.4013284e-23
4.1445962e-22
6.8350583e-22
7.5760563e-22
7.7098984e-22
7.7150993e-22
7.6999607e-22
7.6866521e-22
7.679519e-22
7.6793543e-22
7.6861672e-22
7.6991873e-22
7.7140821e-22
7.708683e-22
7.5747012e-22
6.8337091e-22
4.1437067e-22
4.4002848e-23
6.9391289e-28
1.8898319e-29
2.0804934e-24
2.1891367e-23
3.7010408e-23
4.124506e-23
4.2022058e-23
4.2060666e-23
4.1980171e-23
4.1907869e-23
4.1868904e-23
4.186792e-23
4.1904969e-23
4.1975533e-23
4.2054544e-23
4.2014719e-23
4.123687e-23
3.7002292e-23
2.1886152e-23
2.0799479e-24
1.8892712e-29
4.8535537e-31
9.2764551e-26
1.0903962e-24
1.8897024e-24
2.1172998e-24
2.1596689e-24
2.1621837e-24
2.1581539e-24
2.1544528e-24
2.152447e-24
2.1523916e-24
2.1542892e-24
2.1578915e-24
2.1618358e-24
2.1592503e-24
2.1168316e-24
1.8892402e-24
1.0901065e-24
9.2737527e-26
4.8519656e-31
1.1774214e-32
3.9073091e-27
5.1294986e-26
9.1119586e-26
1.0264448e-25
1.0481883e-25
1.0496673e-25
1.0477648e-25
1.0459766e-25
1.0450022e-25
1.0449729e-25
1.0458901e-25
1.0476255e-25
1.0494819e-25
1.0479641e-25
1.0261933e-25
9.1094825e-26
5.1279831e-26
3.9060472e-27
1.1769999e-32
2.7450901e-34
1.5567999e-28
2.282099e-27
4.1550018e-27
4.7057028e-27
4.8109005e-27
4.8188787e-27
4.810396e-27
4.8022305e-27
4.7977561e-27
4.7976116e-27
4.8018028e-27
4.8097053e-27
4.8179551e-27
4.8097788e-27
4.7044396e-27
4.15376e-27
2.281356e-27
1.5562463e-28
2.7002848e-34
6.2946672e-36
5.8744286e-30
9.6137261e-29
1.79392e-28
2.0425877e-28
2.0906442e-28
2.0946292e-28
2.0910529e-28
2.0875241e-28
2.0855801e-28
2.0855136e-28
2.087327e-28
2.0907336e-28
2.0942003e-28
2.0901208e-28
2.0419959e-28
1.7933388e-28
9.6103224e-29
5.8721525e-30
5.8654039e-36
1.4418195e-37
2.1015501e-31
3.8390212e-30
7.3414821e-30
8.4039064e-30
8.611475e-30
8.6300252e-30
8.6157527e-30
8.601304e-30
8.593303e-30
8.5930176e-30
8.6004567e-30
8.6143758e-30
8.6281681e-30
8.609198e-30
8.4013219e-30
7.3389451e-30
3.8375666e-30
2.1006754e-31
1.2074396e-37
3.347386e-39
7.1345923e-33
1.454605e-31
2.8506255e-31
3.2806017e-31
3.3654739e-31
3.3735591e-31
3.3681621e-31
3.3625511e-31
3.3594286e-31
3.3593141e-31
3.3622109e-31
3.3676078e-31
3.3728087e-31
3.3645499e-31
3.279549e-31
2.8495927e-31
1.454025e-31
7.1314533e-33
2.357672e-39
7.9044183e-41
2.3005029e-34
5.2341318e-33
1.0511251e-32
1.216131e-32
1.249019e-32
1.25233e-32
1.2503946e-32
1.2483261e-32
1.2471694e-32
1.2471265e-32
1.2481983e-32
1.2501859e-32
1.2520464e-32
1.2486685e-32
1.2157305e-32
1.0507325e-32
5.2319726e-33
2.2994504e-34
4.3699649e-41
1.8684046e-42
7.0506315e-36
1.7900174e-34
3.6835573e-34
4.2845329e-34
4.4054254e-34
4.4181991e-34
4.4116129e-34
4.4043674e-34
4.4002977e-34
4.4001466e-34
4.4039172e-34
4.410876e-34
4.4171954e-34
4.404181e-34
4.2831071e-34
3.6821619e-34
1.7892658e-34
7.0473316e-36
7.6937314e-43
4.2626867e-44
2.0552933e-37
5.8221408e-36
1.2276719e-35
1.4355779e-35
1.4777696e-35
1.4824223e-35
1.480294e-35
1.4778809e-35
1.4765196e-35
1.4764695e-35
1.4777318e-35
1.4800495e-35
1.4820887e-35
1.477355e-35
1.435102e-35
1.2272072e-35
5.8196909e-36
2.0543247e-37
1.2874022e-44
8.8296011e-46
5.7018158e-39
1.802127e-37
3.8937391e-37
4.5774002e-37
4.717312e-37
4.7333403e-37
4.7268059e-37
4.7191597e-37
4.7148272e-37
4.7146711e-37
4.718694e-37
4.7260419e-37
4.7322966e-37
4.7160137e-37
4.5759091e-37
3.892287e-37
1.8013778e-37
5.6991512e-39
2.0484738e-46
1.4453267e-47
1.5061398e-40
5.3112468e-39
1.1758609e-38
1.3896832e-38
1.4337969e-38
1.4390266e-38
1.4371198e-38
1.4348132e-38
1.4335007e-38
1.4334547e-38
1.4346759e-38
1.4368945e-38
1.4387188e-38
1.433414e-38
1.3892435e-38
1.1754343e-38
5.3090936e-39
1.5054524e-40
3.1007993e-48
1.575356e-49
3.7898048e-42
1.4911306e-40
3.3826224e-40
4.0190427e-40
4.1513677e-40
4.1675486e-40
4.1622579e-40
4.1556307e-40
4.1518433e-40
4.1517148e-40
4.1552475e-40
4.1616298e-40
4.1666914e-40
4.1503026e-40
4.0178215e-40
3.3814425e-40
1.4905482e-40
3.7881431e-42
4.4668306e-50
1.6919745e-51
9.0870612e-44
3.9894421e-42
9.273296e-42
1.107683e-41
1.1454651e-41
1.1502172e-41
1.1488211e-41
1.1470066e-41
1.1459652e-41
1.1459312e-41
1.1469053e-41
1.1486552e-41
1.1499914e-41
1.1451852e-41
1.107363e-41
9.2702212e-42
3.9879586e-42
9.0832734e-44
6.125318e-52
1.7928406e-53
2.0768339e-45
1.0174736e-43
2.4235022e-43
2.9103344e-43
3.0130678e-43
3.0263271e-43
3.0228228e-43
3.0180867e-43
3.0153568e-43
3.0152714e-43
3.0178325e-43
3.0224075e-43
3.0257635e-43
3.0123722e-43
2.9095432e-43
2.4227468e-43
1.0171175e-43
2.0760197e-45
7.9971709e-54
1.8730793e-55
4.5251098e-47
2.4742988e-45
6.0394645e-45
7.2916738e-45
7.5578156e-45
7.5929941e-45
7.5846277e-45
7.5728403e-45
7.5660158e-45
7.5658119e-45
7.5722341e-45
7.5836399e-45
7.5916594e-45
7.5561786e-45
7.2898245e-45
6.0377134e-45
2.4734931e-45
4.523459e-47
9.9415395e-56
)
;

boundaryField
{
    Wall
    {
        type            zeroGradient;
    }
    frontAndBack
    {
        type            empty;
    }
    atmosphere
    {
        type            zeroGradient;
    }
}


// ************************************************************************* //
