/*--------------------------------*- C++ -*----------------------------------*\
| =========                 |                                                 |
| \\      /  F ield         | OpenFOAM: The Open Source CFD Toolbox           |
|  \\    /   O peration     | Version:  3.0.1                                 |
|   \\  /    A nd           | Web:      www.OpenFOAM.org                      |
|    \\/     M anipulation  |                                                 |
\*---------------------------------------------------------------------------*/
FoamFile
{
    version     2.0;
    format      ascii;
    class       volScalarField;
    location    "8";
    object      wCO2_g;
}
// * * * * * * * * * * * * * * * * * * * * * * * * * * * * * * * * * * * * * //

dimensions      [0 0 0 0 0 0 0];

internalField   nonuniform List<scalar> 
800
(
0.0014600489
0.0014599571
0.0014599257
0.0014599122
0.0014599024
0.0014598945
0.0014598886
0.0014598843
0.0014598815
0.0014598802
0.0014598802
0.0014598815
0.0014598843
0.0014598886
0.0014598945
0.0014599024
0.0014599122
0.0014599258
0.0014599571
0.0014600489
0.00086438954
0.00086558326
0.00086595743
0.0008661972
0.00086635645
0.00086646645
0.00086654263
0.0008665942
0.0008666263
0.00086664171
0.0008666417
0.00086662626
0.00086659413
0.00086654255
0.00086646636
0.00086635634
0.00086619708
0.00086595731
0.00086558311
0.00086438938
0.00033523054
0.00033841772
0.00033855339
0.00033859925
0.00033861271
0.00033861499
0.00033861337
0.00033861116
0.00033860946
0.00033860859
0.00033860859
0.00033860946
0.00033861116
0.00033861337
0.00033861499
0.00033861271
0.00033859924
0.00033855338
0.00033841771
0.00033523052
7.4368275e-05
7.5472223e-05
7.5395795e-05
7.5312063e-05
7.5247764e-05
7.5197712e-05
7.5161117e-05
7.5135478e-05
7.5119193e-05
7.5111288e-05
7.5111298e-05
7.5119218e-05
7.5135518e-05
7.5161172e-05
7.5197779e-05
7.5247838e-05
7.5312155e-05
7.5395889e-05
7.5472321e-05
7.4368379e-05
1.2123794e-05
1.3759605e-05
1.3981174e-05
1.3999928e-05
1.3988406e-05
1.3975317e-05
1.3965249e-05
1.395818e-05
1.3953707e-05
1.3951533e-05
1.3951534e-05
1.3953708e-05
1.3958184e-05
1.3965254e-05
1.3975323e-05
1.3988411e-05
1.3999935e-05
1.3981176e-05
1.3759608e-05
1.2123801e-05
1.3692987e-06
2.3736933e-06
2.6259772e-06
2.6782222e-06
2.6853362e-06
2.6840975e-06
2.6820721e-06
2.6804993e-06
2.6794894e-06
2.6789986e-06
2.6789979e-06
2.6794874e-06
2.6804962e-06
2.6820681e-06
2.6840924e-06
2.6853293e-06
2.6782131e-06
2.6259653e-06
2.3736807e-06
1.3692904e-06
1.1144719e-07
4.0007832e-07
5.1118714e-07
5.3844202e-07
5.4339595e-07
5.4372418e-07
5.4334979e-07
5.4299472e-07
5.4275995e-07
5.4264544e-07
5.42645e-07
5.4275867e-07
5.4299274e-07
5.4334719e-07
5.437209e-07
5.4339174e-07
5.3843665e-07
5.1118063e-07
4.0007205e-07
1.1144475e-07
8.916591e-09
6.6887635e-08
9.9226519e-08
1.0811528e-07
1.0985489e-07
1.1003451e-07
1.0995602e-07
1.0986795e-07
1.0980831e-07
1.0977907e-07
1.097789e-07
1.098078e-07
1.0986717e-07
1.0995499e-07
1.1003324e-07
1.098533e-07
1.081133e-07
9.9224236e-08
6.6885698e-08
8.9162149e-09
7.2721843e-10
1.0731619e-08
1.831316e-08
2.0598729e-08
2.106315e-08
2.1116144e-08
2.1098647e-08
2.107719e-08
2.1062415e-08
2.1055133e-08
2.1055078e-08
2.1062254e-08
2.1076942e-08
2.1098328e-08
2.1115756e-08
2.1062682e-08
2.0598164e-08
1.8312538e-08
1.073116e-08
7.2717398e-10
5.8287325e-11
1.6101456e-09
3.1304407e-09
3.6263312e-09
3.7297736e-09
3.7420911e-09
3.738439e-09
3.7337322e-09
3.7304474e-09
3.7288184e-09
3.7288037e-09
3.730405e-09
3.7336669e-09
3.7383559e-09
3.7419926e-09
3.7296585e-09
3.6261977e-09
3.1303018e-09
1.6100569e-09
5.8282907e-11
4.4649751e-12
2.234766e-10
4.9126113e-10
5.8489637e-10
6.048587e-10
6.073143e-10
6.0664284e-10
6.0573896e-10
6.0509983e-10
6.0478072e-10
6.047774e-10
6.0509026e-10
6.0572426e-10
6.0662431e-10
6.0729277e-10
6.0483438e-10
5.848694e-10
4.9123481e-10
2.2346211e-10
4.4645913e-12
3.2249788e-13
2.8639648e-11
7.078583e-11
8.6485273e-11
8.9899395e-11
9.0333665e-11
9.0226198e-11
9.0073892e-11
8.9964724e-11
8.990984e-11
8.9909189e-11
8.9962844e-11
9.0071008e-11
9.0222583e-11
9.032953e-11
8.9894853e-11
8.6480456e-11
7.0781434e-11
2.8637562e-11
3.2246766e-13
2.1849289e-14
3.395769e-12
9.3985377e-12
1.1770583e-11
1.2296305e-11
1.2365609e-11
1.2350539e-11
1.2327755e-11
1.2311193e-11
1.230281e-11
1.2302698e-11
1.2310869e-11
1.2327257e-11
1.2349916e-11
1.2364901e-11
1.2295543e-11
1.1769803e-11
9.3978695e-12
3.3954946e-12
2.1847061e-14
1.3869271e-15
3.7373122e-13
1.1549691e-12
1.4815206e-12
1.5552446e-12
1.5653258e-12
1.5634563e-12
1.5603915e-12
1.5581314e-12
1.5569799e-12
1.5569628e-12
1.5580819e-12
1.5603152e-12
1.5633606e-12
1.5652172e-12
1.5551287e-12
1.4814046e-12
1.1548748e-12
3.7369736e-13
1.3867702e-15
8.2549995e-17
3.8314245e-14
1.3193161e-13
1.7323851e-13
1.8273439e-13
1.8408036e-13
1.8387348e-13
1.8349857e-13
1.83218e-13
1.830742e-13
1.8307187e-13
1.8321126e-13
1.8348813e-13
1.8386032e-13
1.8406536e-13
1.8271838e-13
1.7322266e-13
1.3191919e-13
3.8310302e-14
8.2539435e-17
4.614902e-18
3.6714042e-15
1.4064215e-14
1.8897044e-14
2.0027874e-14
2.0193712e-14
2.0173197e-14
2.0131095e-14
2.0099116e-14
2.0082634e-14
2.0082351e-14
2.0098292e-14
2.0129813e-14
2.0171568e-14
2.0191843e-14
2.0025866e-14
1.8895058e-14
1.4062696e-14
3.670973e-15
4.6142317e-18
2.4282698e-19
3.2989875e-16
1.4041922e-15
1.929985e-15
2.0551577e-15
2.0741037e-15
2.0722805e-15
2.0679067e-15
2.0645341e-15
2.062787e-15
2.0627557e-15
2.0644429e-15
2.067764e-15
2.0720979e-15
2.0738924e-15
2.0549288e-15
1.9297575e-15
1.4040208e-15
3.2985493e-16
2.4278737e-19
1.2052694e-20
2.7881216e-17
1.317312e-16
1.8516444e-16
1.9810082e-16
2.0011629e-16
1.9997213e-16
1.9954912e-16
1.9921792e-16
1.9904552e-16
1.9904236e-16
1.9920868e-16
1.9953461e-16
1.9995344e-16
2.0009447e-16
1.9807695e-16
1.8514057e-16
1.3171342e-16
2.7877102e-17
1.2050531e-20
5.6556671e-22
2.222443e-18
1.1645981e-17
1.6737705e-17
1.7990781e-17
1.8191207e-17
1.8181277e-17
1.8142991e-17
1.8112542e-17
1.8096621e-17
1.8096325e-17
1.8111675e-17
1.8141626e-17
1.8179508e-17
1.8189126e-17
1.7988486e-17
1.6735396e-17
1.1644279e-17
2.2220859e-18
5.6545737e-22
2.5143198e-23
1.6751188e-19
9.7285065e-19
1.4293459e-18
1.5434941e-18
1.5621918e-18
1.5616296e-18
1.5583723e-18
1.5557399e-18
1.5543576e-18
1.5543315e-18
1.5556636e-18
1.5582516e-18
1.5614726e-18
1.5620062e-18
1.543288e-18
1.4291376e-18
9.7269886e-19
1.6748302e-19
2.5138044e-23
1.0611285e-24
1.1966671e-20
7.697543e-20
1.1559601e-19
1.254042e-19
1.2704586e-19
1.2702477e-19
1.2676331e-19
1.2654851e-19
1.2643522e-19
1.2643304e-19
1.265421e-19
1.2675316e-19
1.2701151e-19
1.2703012e-19
1.2538667e-19
1.1557825e-19
7.6962673e-20
1.1964475e-20
1.0608994e-24
4.259347e-26
8.1197977e-22
5.7816764e-21
8.8731538e-21
9.6702338e-21
9.8062868e-21
9.8066124e-21
9.7867503e-21
9.7701532e-21
9.7613602e-21
9.7611834e-21
9.7696342e-21
9.7859261e-21
9.8055337e-21
9.8050029e-21
9.6688011e-21
8.8717051e-21
5.7806533e-21
8.1182049e-22
4.2583738e-26
1.6289343e-27
5.2434074e-23
4.1307293e-22
6.4777332e-22
7.0918558e-22
7.1985673e-22
7.2002664e-22
7.1859473e-22
7.173771e-22
7.1672898e-22
7.167151e-22
7.1733632e-22
7.1852985e-22
7.1994151e-22
7.197552e-22
7.0907221e-22
6.476591e-22
4.1299387e-22
5.2422965e-23
1.6285359e-27
5.9449735e-29
3.2281841e-24
2.8123555e-23
4.5058952e-23
4.9554615e-23
5.0348639e-23
5.0370849e-23
5.0272659e-23
5.0187642e-23
5.0142168e-23
5.0141113e-23
5.0184538e-23
5.0267708e-23
5.0364334e-23
5.0340851e-23
4.9545914e-23
4.5050224e-23
2.8117645e-23
3.2274353e-24
5.943394e-29
2.0736104e-30
1.8979831e-25
1.827739e-24
2.9914752e-24
3.3047846e-24
3.360956e-24
3.3631326e-24
3.3567153e-24
3.3510548e-24
3.3480117e-24
3.3479344e-24
3.3508272e-24
3.3563512e-24
3.3626518e-24
3.3603794e-24
3.3041397e-24
2.990831e-24
1.8273122e-24
1.8974958e-25
2.0730051e-30
6.9219539e-32
1.0672544e-26
1.1356007e-25
1.8984808e-25
2.1067234e-25
2.1445768e-25
2.1464102e-25
2.1424061e-25
2.1388059e-25
2.1368604e-25
2.1368062e-25
2.1386461e-25
2.1421499e-25
2.1460705e-25
2.1441679e-25
2.106265e-25
1.8980242e-25
1.1353046e-25
1.0669496e-26
6.9197236e-32
2.2141305e-33
5.7475412e-28
6.7548366e-27
1.1533377e-26
1.2855548e-26
1.3098977e-26
1.3112895e-26
1.3089006e-26
1.3067099e-26
1.30552e-26
1.3054839e-26
1.3066034e-26
1.3087292e-26
1.3110613e-26
1.3096217e-26
1.2852444e-26
1.1530291e-26
6.7528753e-27
5.745719e-28
2.2133649e-33
6.907369e-35
2.9681232e-29
3.8515957e-28
6.7158013e-28
7.5188999e-28
7.6685282e-28
7.6782702e-28
7.6646236e-28
7.6518537e-28
7.644882e-28
7.6446547e-28
7.6511813e-28
7.663538e-28
7.6768182e-28
7.6667641e-28
7.5169087e-28
6.7138225e-28
3.8503616e-28
2.9670855e-29
6.7921598e-35
2.147719e-36
1.4715314e-30
2.1077344e-29
3.7527134e-29
4.2200175e-29
4.3080538e-29
4.3144219e-29
4.3069488e-29
4.2998089e-29
4.2958917e-29
4.2957563e-29
4.2994079e-29
4.3062992e-29
4.3135493e-29
4.3069885e-29
4.21881e-29
3.7515133e-29
2.1069992e-29
1.4709699e-30
2.0017925e-36
6.7442597e-38
7.0114208e-32
1.1081834e-30
2.0145252e-30
2.2753298e-30
2.3249768e-30
2.3288962e-30
2.3249689e-30
2.3211355e-30
2.3190225e-30
2.3189463e-30
2.3209094e-30
2.3246016e-30
2.3284008e-30
2.3243691e-30
2.2746382e-30
2.0138375e-30
1.1077693e-30
7.0085424e-32
5.6715402e-38
2.1653073e-39
3.2137788e-33
5.6035295e-32
1.0399577e-31
1.1797255e-31
1.2065933e-31
1.2088776e-31
1.2068949e-31
1.2049165e-31
1.2038212e-31
1.2037806e-31
1.204796e-31
1.2066985e-31
1.2086117e-31
1.2062657e-31
1.1793511e-31
1.0395853e-31
5.6013245e-32
3.212382e-33
1.5460733e-39
7.1255397e-41
1.4183739e-34
2.727507e-33
5.1674501e-33
5.8874403e-33
6.0271287e-33
6.0397873e-33
6.0301626e-33
6.0203386e-33
6.0148763e-33
6.0146713e-33
6.0197289e-33
6.0291671e-33
6.0384348e-33
6.0254561e-33
5.8855223e-33
5.1655422e-33
2.7263961e-33
1.4177321e-34
4.0584379e-41
2.3682973e-42
6.032417e-36
1.279067e-34
2.473578e-34
2.8304301e-34
2.9002726e-34
2.9069636e-34
2.9024675e-34
2.8977695e-34
2.8951468e-34
2.8950483e-34
2.8974765e-34
2.9019882e-34
2.9063106e-34
2.8994625e-34
2.8294986e-34
2.4726517e-34
1.2785368e-34
6.0296226e-36
1.026649e-42
7.6867889e-44
2.4742932e-37
5.78342e-36
1.1415799e-35
1.3119035e-35
1.345517e-35
1.3488989e-35
1.3468762e-35
1.3447107e-35
1.3434971e-35
1.3434521e-35
1.3445765e-35
1.3466564e-35
1.3485989e-35
1.345144e-35
1.3114737e-35
1.141153e-35
5.7810177e-36
2.4731386e-37
2.5045746e-44
2.298918e-45
9.7943956e-39
2.5232181e-37
5.0831733e-37
5.8666717e-37
6.0225248e-37
6.0389037e-37
6.0301337e-37
6.0205055e-37
6.0150894e-37
6.0148925e-37
6.0199187e-37
6.0291715e-37
6.0375891e-37
6.0208882e-37
5.8647844e-37
5.0813016e-37
2.5221832e-37
9.7898644e-39
5.8964028e-46
5.5407466e-47
3.7441584e-40
1.0629035e-38
2.1852625e-38
2.5328811e-38
2.6025542e-38
2.6101678e-38
2.606501e-38
2.6023687e-38
2.6000356e-38
2.5999532e-38
2.602123e-38
2.6060981e-38
2.6096173e-38
2.6018689e-38
2.5320908e-38
2.1844807e-38
1.0624788e-38
3.7424685e-40
1.3404492e-47
9.2178559e-49
1.383061e-41
4.3258291e-40
9.075737e-40
1.0564304e-39
1.0864827e-39
1.0898844e-39
1.0884051e-39
1.086692e-39
1.0857212e-39
1.0856881e-39
1.0865933e-39
1.0882433e-39
1.0896637e-39
1.0862083e-39
1.0561144e-39
9.0726201e-40
4.3241667e-40
1.3824625e-41
2.9442128e-49
1.5435058e-50
4.9394396e-43
1.7018707e-41
3.6434904e-41
4.2591086e-41
4.3842621e-41
4.3988885e-41
4.3931266e-41
4.3862621e-41
4.3823582e-41
4.3822302e-41
4.3858811e-41
4.3925032e-41
4.3980397e-41
4.3832095e-41
4.2578997e-41
3.6423032e-41
1.7012492e-41
4.9374124e-43
6.2512055e-51
2.6022245e-52
1.7063642e-44
6.475696e-43
1.4146114e-42
1.6606438e-42
1.7109985e-42
1.7170575e-42
1.7148898e-42
1.7122296e-42
1.7107112e-42
1.7106636e-42
1.712088e-42
1.7146586e-42
1.7167438e-42
1.7106112e-42
1.6602012e-42
1.4141792e-42
6.4734761e-43
1.7057073e-44
1.2835659e-52
4.4079699e-54
5.7042836e-46
2.3842066e-44
5.3142882e-44
6.2650273e-44
6.4608878e-44
6.4850962e-44
6.4772165e-44
6.4672418e-44
6.461527e-44
6.4613561e-44
6.4667344e-44
6.4763905e-44
6.4839805e-44
6.4595191e-44
6.2634739e-44
5.3127824e-44
2.3834484e-44
5.7022467e-46
2.5496537e-54
)
;

boundaryField
{
    Wall
    {
        type            zeroGradient;
    }
    frontAndBack
    {
        type            empty;
    }
    atmosphere
    {
        type            zeroGradient;
    }
}


// ************************************************************************* //
