/*--------------------------------*- C++ -*----------------------------------*\
| =========                 |                                                 |
| \\      /  F ield         | OpenFOAM: The Open Source CFD Toolbox           |
|  \\    /   O peration     | Version:  3.0.1                                 |
|   \\  /    A nd           | Web:      www.OpenFOAM.org                      |
|    \\/     M anipulation  |                                                 |
\*---------------------------------------------------------------------------*/
FoamFile
{
    version     2.0;
    format      ascii;
    class       volScalarField;
    location    "10";
    object      M0;
}
// * * * * * * * * * * * * * * * * * * * * * * * * * * * * * * * * * * * * * //

dimensions      [0 0 0 0 0 0 0];

internalField   nonuniform List<scalar> 
800
(
3.6908117e+12
3.6910336e+12
3.6911138e+12
3.6911535e+12
3.6911831e+12
3.6912066e+12
3.6912245e+12
3.6912374e+12
3.6912458e+12
3.6912499e+12
3.6912499e+12
3.6912458e+12
3.6912374e+12
3.6912245e+12
3.6912066e+12
3.6911831e+12
3.6911534e+12
3.6911138e+12
3.6910336e+12
3.6908117e+12
4.6530791e+12
4.6478251e+12
4.6461106e+12
4.6450061e+12
4.6442018e+12
4.6436043e+12
4.6431682e+12
4.6428625e+12
4.6426679e+12
4.6425733e+12
4.6425733e+12
4.642668e+12
4.6428626e+12
4.6431683e+12
4.6436044e+12
4.6442019e+12
4.6450062e+12
4.6461107e+12
4.6478252e+12
4.6530793e+12
4.5696799e+12
4.5649683e+12
4.5640707e+12
4.5634002e+12
4.562901e+12
4.5625309e+12
4.5622627e+12
4.5620762e+12
4.5619583e+12
4.5619013e+12
4.5619013e+12
4.5619584e+12
4.5620764e+12
4.562263e+12
4.5625312e+12
4.5629012e+12
4.5634005e+12
4.564071e+12
4.5649687e+12
4.5696803e+12
3.8385799e+12
3.841613e+12
3.8402712e+12
3.838789e+12
3.8376599e+12
3.836789e+12
3.8361486e+12
3.8356987e+12
3.8354126e+12
3.8352737e+12
3.8352738e+12
3.835413e+12
3.8356993e+12
3.8361494e+12
3.8367899e+12
3.837661e+12
3.8387902e+12
3.8402725e+12
3.8416144e+12
3.8385814e+12
2.1491503e+12
2.2380964e+12
2.245134e+12
2.2437656e+12
2.2416864e+12
2.2399385e+12
2.2386401e+12
2.2377284e+12
2.237149e+12
2.236867e+12
2.2368671e+12
2.2371494e+12
2.2377291e+12
2.238641e+12
2.2399397e+12
2.2416876e+12
2.243767e+12
2.2451353e+12
2.2380977e+12
2.1491523e+12
7.1835642e+11
9.3596892e+11
9.8171087e+11
9.9155238e+11
9.9294969e+11
9.9250363e+11
9.9185087e+11
9.9133003e+11
9.9098906e+11
9.9082194e+11
9.9082187e+11
9.9098885e+11
9.9132972e+11
9.9185046e+11
9.9250308e+11
9.9294889e+11
9.9155137e+11
9.8170946e+11
9.3596738e+11
7.1835513e+11
1.2923248e+11
3.0767622e+11
3.6742079e+11
3.8428816e+11
3.8834698e+11
3.8896896e+11
3.8883256e+11
3.8861041e+11
3.8844694e+11
3.8836453e+11
3.8836438e+11
3.8844649e+11
3.8860972e+11
3.8883164e+11
3.8896781e+11
3.8834552e+11
3.8428641e+11
3.6741874e+11
3.0767421e+11
1.2923126e+11
1.557713e+10
8.7355708e+10
1.2630541e+11
1.3940815e+11
1.4296972e+11
1.4371369e+11
1.4376322e+11
1.4368801e+11
1.4362006e+11
1.4358433e+11
1.435842e+11
1.4361968e+11
1.436874e+11
1.4376242e+11
1.437127e+11
1.4296852e+11
1.3940676e+11
1.2630391e+11
8.7354419e+10
1.557675e+10
1.7833544e+09
2.3168141e+10
4.0867122e+10
4.7796906e+10
4.9816979e+10
5.0275969e+10
5.0331702e+10
5.0307284e+10
5.0279893e+10
5.0264954e+10
5.0264869e+10
5.0279649e+10
5.0306903e+10
5.0331205e+10
5.0275366e+10
4.981627e+10
4.779611e+10
4.0866323e+10
2.3167557e+10
1.7832775e+09
2.0615437e+08
5.7917842e+09
1.2379859e+10
1.5334398e+10
1.6244115e+10
1.6459742e+10
1.6490415e+10
1.6482662e+10
1.6472172e+10
1.6466295e+10
1.6466252e+10
1.6472046e+10
1.6482467e+10
1.6490163e+10
1.6459442e+10
1.6243772e+10
1.5334028e+10
1.2379514e+10
5.7915745e+09
2.061418e+08
23440967
1.352613e+09
3.4800156e+09
4.5594701e+09
4.9078932e+09
4.9928532e+09
5.0058669e+09
5.003526e+09
4.9998236e+09
4.9977074e+09
4.9976883e+09
4.9997684e+09
5.0034407e+09
5.0057579e+09
4.9927257e+09
4.9077519e+09
4.5593242e+09
3.4798898e+09
1.3525501e+09
23439193
2552923.6
2.931962e+08
9.0366595e+08
1.2509156e+09
1.3678585e+09
1.3970155e+09
1.4016963e+09
1.4010489e+09
1.3998675e+09
1.3991807e+09
1.3991734e+09
1.3998464e+09
1.4010165e+09
1.4016551e+09
1.3969681e+09
1.3678075e+09
1.2508653e+09
9.036261e+08
2.9317988e+08
2552700.5
262684.11
58918807
2.1681804e+08
3.1679952e+08
3.5181596e+08
3.6071501e+08
3.6219714e+08
3.620381e+08
3.6169922e+08
3.6149906e+08
3.6149662e+08
3.6169216e+08
3.6202723e+08
3.6218342e+08
3.606994e+08
3.5179952e+08
3.1678402e+08
2.1680678e+08
58915032
262658.49
25420.392
11001931
48220998
74310335
83791182
86242788
86664553
86630683
86543044
86490426
86489700
86540944
86627444
86660471
86238175
83786407
74305999
48218093
11001131
25417.647
2313.8233
1916463.5
9985921.7
16219997
18566883
19183689
19293035
19286984
19266401
19253825
19253632
19265842
19286120
19291944
19182458
18565621
16218884
9985227.5
1916305.6
2313.5455
198.52414
312778.51
1934766.8
3310784.2
3846809.1
3989884.3
4015971.7
4015135.8
4010707.8
4007951
4007904.7
4010573.5
4014927.5
4015707.9
3989586.1
3846504.5
3310520.6
1934612.2
312749.24
198.49753
16.102764
48031.406
352325.57
634934.77
748756.85
779593.73
785365.77
785305.15
784425.35
783866.26
783856.17
784396.02
785259.48
785307.67
779527.75
748689.4
634877.11
352293.48
48026.321
16.100364
1.238634
6967.6388
60555.844
114896.61
137510.08
143725.25
144917.19
144928.11
144765.45
144659.76
144657.74
144759.58
144918.94
144905.45
143711.84
137496.33
114884.94
60549.639
6966.8126
1.2384307
0.090628855
958.27179
9860.7142
19694.211
23920.173
25097.918
25328.878
25335.095
25306.925
25288.178
25287.805
25305.836
25333.386
25326.681
25095.392
23917.57
19692.015
9859.5951
958.14621
0.090612699
0.0063259495
125.36027
1526.4387
3208.6501
3954.8972
4165.6926
4207.8816
4209.6881
4205.0935
4201.9554
4201.8906
4204.9041
4209.3899
4207.4964
4165.2475
3954.4364
3208.2628
1526.2494
125.34234
0.0063247398
0.00042236582
15.645564
225.31984
498.42939
623.44213
659.21974
666.51462
666.93038
666.22117
665.72297
665.71228
666.18989
666.88099
666.45059
659.14541
623.36493
498.36483
225.28955
15.643141
0.00042227979
2.7041696e-05
1.8679055
31.803079
74.027566
93.963787
99.742319
100.94064
101.02404
100.92002
100.8447
100.843
100.91506
101.01619
100.93043
99.730422
93.951404
74.017274
31.798446
1.8675927
2.703583e-05
1.6639968e-06
0.21385365
4.3030396
10.538676
13.574504
14.46539
14.65301
14.668171
14.653624
14.642738
14.642478
14.652862
14.666961
14.651432
14.463547
13.572584
10.537091
4.3023565
0.2138147
1.66361e-06
9.8617501e-08
0.023531374
0.55937726
1.4413635
1.8839944
2.015463
2.0435434
2.0460927
2.0441476
2.042639
2.0426002
2.0440335
2.0459114
2.0433062
2.0151851
1.8837047
1.4411265
0.55927956
0.023526671
9.8592686e-08
5.6399124e-09
0.0024936359
0.070009388
0.18978352
0.25172743
0.27034369
0.27437169
0.27477326
0.27452392
0.27432295
0.27431731
0.2745073
0.27474678
0.27433695
0.27030288
0.25168487
0.18974902
0.069995802
0.0024930842
5.6383618e-09
3.1179734e-10
0.00025496749
0.0084518232
0.024102629
0.032441472
0.034976619
0.035531714
0.035591484
0.035560785
0.035534991
0.035534194
0.035558436
0.035587731
0.035526775
0.034970799
0.032435398
0.024097751
0.0084499896
0.00025490467
3.1170311e-10
1.6689994e-11
2.5196842e-05
0.000985913
0.0029576364
0.004039646
0.0043723305
0.0044459804
0.0044544393
0.004450803
0.0044476073
0.0044474986
0.0044504824
0.0044539256
0.0044453017
0.0043715282
0.0040388075
0.002956969
0.00098567368
2.5189928e-05
1.6684448e-11
8.6754715e-13
2.4104629e-06
0.00011130398
0.00035122949
0.00048679965
0.00052894798
0.0005383745
0.00053951829
0.00053910334
0.00053872051
0.00053870626
0.00053906124
0.00053945062
0.00053828477
0.00052884149
0.00048668819
0.00035114156
0.0001112739
2.4097299e-06
8.6598688e-13
6.1759699e-14
2.235525e-07
1.2178725e-05
4.0423989e-05
5.685355e-05
6.2017429e-05
6.3183373e-05
6.3331705e-05
6.3286045e-05
6.3241637e-05
6.3239844e-05
6.3280742e-05
6.3323158e-05
6.3171995e-05
6.2003872e-05
5.6839333e-05
4.041287e-05
1.2175096e-05
2.234769e-07
4.3645081e-14
6.3900895e-15
2.0126511e-08
1.2932976e-06
4.5151944e-06
6.4439525e-06
7.0567103e-06
7.196301e-06
7.2148082e-06
7.2099596e-06
7.2049651e-06
7.204749e-06
7.2093198e-06
7.2137742e-06
7.1949194e-06
7.0550579e-06
6.4422167e-06
4.5138483e-06
1.2928779e-06
2.0118822e-08
2.1386223e-15
6.694226e-16
1.7611872e-09
1.3345768e-07
4.900567e-07
7.0970502e-07
7.8022843e-07
7.9642912e-07
7.9865653e-07
7.9815945e-07
7.9761416e-07
7.9758923e-07
7.9808553e-07
7.9853677e-07
7.9626855e-07
7.8003566e-07
7.0950218e-07
4.8990074e-07
1.3341118e-07
1.7604269e-09
1.0200393e-16
6.4386576e-17
1.4996526e-10
1.3398037e-08
5.1743198e-08
7.6039381e-08
8.392212e-08
8.574729e-08
8.6006454e-08
8.5957245e-08
8.5899385e-08
8.5896627e-08
8.5949058e-08
8.5993157e-08
8.5729405e-08
8.3900578e-08
7.6016682e-08
5.1725898e-08
1.3393104e-08
1.4989273e-10
4.7408455e-18
5.6242757e-18
1.2439112e-11
1.3099677e-09
5.320676e-09
7.9342122e-09
8.7909456e-09
8.9908001e-09
9.0200083e-09
9.0153054e-09
9.009332e-09
9.0090388e-09
9.0144342e-09
9.0185905e-09
8.988888e-09
8.7886359e-09
7.9317762e-09
5.318836e-09
1.309466e-09
1.2432463e-11
2.149259e-19
4.4395836e-19
1.0060871e-12
1.2486468e-10
5.3336554e-10
8.0707048e-10
8.9771192e-10
9.1900669e-10
9.2220063e-10
9.2176705e-10
9.2116641e-10
9.211364e-10
9.216778e-10
9.2205517e-10
9.1881008e-10
8.9747389e-10
8.0681933e-10
5.3317764e-10
1.248157e-10
1.0055031e-12
9.513117e-21
3.0963779e-20
7.942072e-14
1.1614153e-11
5.2171958e-11
8.0107068e-11
8.9451963e-11
9.1662266e-11
9.2001653e-11
9.1963145e-11
9.1904262e-11
9.1901298e-11
9.1954323e-11
9.198726e-11
9.1642782e-11
8.9428338e-11
8.0082146e-11
5.2153498e-11
1.1609556e-11
7.9371794e-14
4.1146877e-22
1.7721842e-21
6.1243663e-15
1.055085e-12
4.9840988e-12
7.7654237e-12
8.7051736e-12
8.9288855e-12
8.9639768e-12
8.9606899e-12
8.9550567e-12
8.9547735e-12
8.9598467e-12
8.9626003e-12
8.9270208e-12
8.7029107e-12
7.763039e-12
4.982351e-12
1.0546695e-12
6.1204914e-15
1.740539e-23
6.0414238e-23
4.6170857e-16
9.3691032e-14
4.6540675e-13
7.3578973e-13
8.2805461e-13
8.5015473e-13
8.5368956e-13
8.5342102e-13
8.5289461e-13
8.5286838e-13
8.533429e-13
8.5356205e-13
8.4998201e-13
8.2784506e-13
7.3556929e-13
4.6524699e-13
9.3654826e-14
4.6142332e-16
7.2059596e-25
1.6120556e-24
3.4055488e-17
8.1386864e-15
4.2512014e-14
6.8198297e-14
7.7049844e-14
7.9182657e-14
7.9529947e-14
7.9509086e-14
7.9460997e-14
7.9458636e-14
7.9502059e-14
7.9518484e-14
7.9167145e-14
7.7031047e-14
6.8178579e-14
4.2497893e-14
8.1356415e-15
3.4035881e-17
2.9218894e-26
4.2958269e-26
2.4594252e-18
6.9209671e-16
3.8013465e-15
6.1878587e-15
7.018309e-15
7.219557e-15
7.2528712e-15
7.2513488e-15
7.2470506e-15
7.2468437e-15
7.2507336e-15
7.2518691e-15
7.2182033e-15
7.0166727e-15
6.1861492e-15
3.8001381e-15
6.9184895e-16
2.4581111e-18
1.1611034e-27
1.1470852e-27
1.7401371e-19
5.7652874e-17
3.3296738e-16
5.4998374e-16
6.2623685e-16
6.4481874e-16
6.4794216e-16
6.4784026e-16
6.4746411e-16
6.4744642e-16
6.4778773e-16
6.4785679e-16
6.4470373e-16
6.2609835e-16
5.4983985e-16
3.3286711e-16
5.7633326e-17
1.739278e-19
4.524327e-29
)
;

boundaryField
{
    Wall
    {
        type            zeroGradient;
    }
    frontAndBack
    {
        type            empty;
    }
    atmosphere
    {
        type            zeroGradient;
    }
}


// ************************************************************************* //
