/*--------------------------------*- C++ -*----------------------------------*\
| =========                 |                                                 |
| \\      /  F ield         | OpenFOAM: The Open Source CFD Toolbox           |
|  \\    /   O peration     | Version:  3.0.1                                 |
|   \\  /    A nd           | Web:      www.OpenFOAM.org                      |
|    \\/     M anipulation  |                                                 |
\*---------------------------------------------------------------------------*/
FoamFile
{
    version     2.0;
    format      ascii;
    class       volScalarField;
    location    "10";
    object      mOne;
}
// * * * * * * * * * * * * * * * * * * * * * * * * * * * * * * * * * * * * * //

dimensions      [0 0 0 0 0 0 0];

internalField   nonuniform List<scalar> 
800
(
1.7094311
1.7092682
1.7092094
1.7091802
1.7091585
1.7091412
1.7091281
1.7091186
1.7091125
1.7091095
1.7091095
1.7091125
1.7091186
1.7091281
1.7091413
1.7091585
1.7091802
1.7092094
1.7092682
1.7094311
1.1491145
1.151544
1.1523379
1.1528497
1.1532225
1.1534996
1.1537018
1.1538437
1.1539339
1.1539778
1.1539778
1.1539339
1.1538436
1.1537018
1.1534995
1.1532225
1.1528496
1.1523379
1.1515439
1.1491145
0.69394471
0.69729011
0.69777322
0.69800222
0.69813994
0.69823037
0.69829037
0.69833
0.69835436
0.69836605
0.69836604
0.69835433
0.69832994
0.6982903
0.69823028
0.69813983
0.6980021
0.69777309
0.69728995
0.69394453
0.27911784
0.28360692
0.28365611
0.28360921
0.28355274
0.283499
0.28345507
0.2834224
0.28340101
0.28339052
0.28339053
0.28340103
0.28342243
0.28345511
0.28349904
0.28355279
0.28360927
0.28365617
0.28360698
0.27911789
0.082035265
0.085032126
0.085071644
0.084944598
0.084819944
0.084719637
0.084644947
0.08459215
0.084558435
0.084542011
0.084542022
0.084558463
0.084592196
0.084645008
0.084719711
0.084820026
0.084944692
0.085071741
0.085032226
0.082035406
0.017389236
0.022017303
0.023005963
0.023228248
0.023255906
0.023238496
0.023216739
0.023199562
0.023188296
0.023182771
0.023182771
0.023188295
0.023199561
0.023216737
0.023238493
0.0232559
0.023228241
0.023005951
0.022017288
0.017389231
0.0021282658
0.004837034
0.0058110697
0.0061076016
0.0061826259
0.0061940425
0.006190827
0.0061859705
0.0061823981
0.0061805962
0.0061805944
0.0061823928
0.0061859621
0.0061908157
0.0061940282
0.0061826078
0.006107581
0.0058110465
0.004837012
0.0021282541
0.00017022115
0.0009456912
0.0014121475
0.0015830208
0.0016321216
0.0016427295
0.0016434328
0.0016422965
0.0016412638
0.0016407194
0.001640718
0.00164126
0.0016422904
0.0016434248
0.0016427196
0.0016321097
0.0015830076
0.001412134
0.00094568032
0.00017021835
1.2750047e-05
0.00017915325
0.00033705036
0.0004051175
0.00042614228
0.00043110601
0.00043174341
0.00043148965
0.00043119337
0.00043103063
0.00043102996
0.00043119144
0.00043148662
0.00043173946
0.00043110123
0.00042613672
0.00040511155
0.00033704473
0.00017914953
1.2749644e-05
9.9360026e-07
3.3493376e-05
7.8617597e-05
0.0001010931
0.00010843317
0.00011024169
0.00011051627
0.00011046099
0.00011037765
0.00011033036
0.00011033008
0.00011037685
0.00011045974
0.00011051466
0.00011023978
0.00010843102
0.00010109088
7.861566e-05
3.349234e-05
9.9355255e-07
8.1007705e-08
6.1327701e-06
1.7717031e-05
2.427754e-05
2.6522498e-05
2.709074e-05
2.7183759e-05
2.7172076e-05
2.7149552e-05
2.713644e-05
2.7136341e-05
2.7149263e-05
2.7171628e-05
2.7183185e-05
2.7090072e-05
2.6521766e-05
2.4276816e-05
1.771645e-05
6.1325189e-06
8.1002553e-08
6.7729331e-09
1.0872759e-06
3.8205025e-06
5.5584154e-06
6.177898e-06
6.3378467e-06
6.3652085e-06
6.3628725e-06
6.3571223e-06
6.3537054e-06
6.3536733e-06
6.3570294e-06
6.3627287e-06
6.3650258e-06
6.3376371e-06
6.1776748e-06
5.5582039e-06
3.8203468e-06
1.0872212e-06
6.77241e-09
5.6750741e-10
1.8505983e-07
7.8382893e-07
1.2072283e-06
1.3638223e-06
1.4049188e-06
1.4121736e-06
1.4117499e-06
1.4103785e-06
1.4095485e-06
1.4095392e-06
1.4103516e-06
1.4117083e-06
1.4121211e-06
1.4048592e-06
1.3637602e-06
1.2071717e-06
7.8379073e-07
1.8504891e-07
5.6745664e-10
4.6792055e-11
3.0094071e-08
1.5264095e-07
2.4832402e-07
2.8494732e-07
2.9469859e-07
2.9646538e-07
2.964003e-07
2.960961e-07
2.9590866e-07
2.9590622e-07
2.9608905e-07
2.9638939e-07
2.9645161e-07
2.9468306e-07
2.849314e-07
2.4831003e-07
1.5263222e-07
3.0092022e-08
4.6787299e-11
3.7508907e-12
4.6660367e-09
2.8209719e-08
4.8399162e-08
5.6383102e-08
5.8537759e-08
5.8937428e-08
5.8930371e-08
5.8867575e-08
5.8828157e-08
5.8827576e-08
5.8865893e-08
5.8927765e-08
5.8934136e-08
5.8534051e-08
5.6379334e-08
4.8395934e-08
2.8207839e-08
4.6656718e-09
3.7504594e-12
2.9028345e-13
6.8955643e-10
4.9529295e-09
8.9518422e-09
1.0583933e-08
1.1030144e-08
1.1114753e-08
1.1114763e-08
1.1102662e-08
1.1094914e-08
1.1094788e-08
1.1102295e-08
1.1114193e-08
1.111403e-08
1.1029328e-08
1.0583106e-08
8.9511464e-09
4.9525472e-09
6.8949458e-10
2.9024579e-13
2.1612716e-14
9.7195042e-11
8.2752934e-10
1.5744046e-09
1.8887916e-09
1.9758408e-09
1.9926936e-09
1.9929756e-09
1.9907897e-09
1.9893601e-09
1.9893348e-09
1.9907162e-09
1.992861e-09
1.9925476e-09
1.9756752e-09
1.8886236e-09
1.5742645e-09
8.2745612e-10
9.7185106e-11
2.1609573e-14
1.5460166e-15
1.3083302e-11
1.3182652e-10
2.6387403e-10
3.2117538e-10
3.3724012e-10
3.4041182e-10
3.4051389e-10
3.4014212e-10
3.3989329e-10
3.398886e-10
3.4012848e-10
3.4049254e-10
3.4038449e-10
3.3720893e-10
3.211436e-10
2.638477e-10
1.3181334e-10
1.3081796e-11
1.5457679e-15
1.0624751e-16
1.6844869e-12
2.006323e-11
4.2238419e-11
5.2155413e-11
5.4969989e-11
5.5535977e-11
5.5562242e-11
5.5502456e-11
5.5461425e-11
5.5460615e-11
5.5500092e-11
5.5558528e-11
5.5531198e-11
5.4964503e-11
5.2149794e-11
4.2233784e-11
2.0061003e-11
1.6842717e-12
1.0622888e-16
7.0198727e-18
2.0779479e-13
2.9231908e-12
6.4711192e-12
8.1058914e-12
8.5754948e-12
8.671557e-12
8.6772625e-12
8.6681369e-12
8.6617014e-12
8.661569e-12
8.6677501e-12
8.6766528e-12
8.670769e-12
8.5745852e-12
8.1049555e-12
6.4703496e-12
2.9228354e-12
2.0776573e-13
7.018549e-18
4.4640651e-19
2.460242e-14
4.0853368e-13
9.5082966e-13
1.2082228e-12
1.2830444e-12
1.2985946e-12
1.2997014e-12
1.2983748e-12
1.2974112e-12
1.2973906e-12
1.2983144e-12
1.2996059e-12
1.2984707e-12
1.2829007e-12
1.2080743e-12
9.5070812e-13
4.0847972e-13
2.4598686e-14
4.4631666e-19
2.7358895e-20
2.8005978e-15
5.4869865e-14
1.3425249e-13
1.7305691e-13
1.8446949e-13
1.8687641e-13
1.8707335e-13
1.8688912e-13
1.8675095e-13
1.8674784e-13
1.8688e-13
1.870589e-13
1.8685762e-13
1.8444762e-13
1.7303427e-13
1.3423405e-13
5.4861999e-14
2.800137e-15
2.735302e-20
1.6182583e-21
3.0703369e-16
7.0950421e-15
1.8248802e-14
2.386308e-14
2.5533343e-14
2.5890411e-14
2.5923054e-14
2.5898551e-14
2.5879523e-14
2.5879067e-14
2.5897213e-14
2.5920929e-14
2.5887638e-14
2.5530107e-14
2.3859725e-14
1.8246087e-14
7.0939317e-15
3.0697863e-16
1.6178853e-21
9.2512406e-23
3.247033e-17
8.8476331e-16
2.3921361e-15
3.1732855e-15
3.4083207e-15
3.4592005e-15
3.4642922e-15
3.461164e-15
3.4586412e-15
3.4585758e-15
3.460972e-15
3.4639867e-15
3.4588008e-15
3.407853e-15
3.1728002e-15
2.3917463e-15
8.8461069e-16
3.2463928e-17
9.2489297e-23
5.1187631e-24
3.3175808e-18
1.0657177e-16
3.0288409e-16
4.0760335e-16
4.3946418e-16
4.4644194e-16
4.4719471e-16
4.4681064e-16
4.4648796e-16
4.4647881e-16
4.4678375e-16
4.4715181e-16
4.4638564e-16
4.3939811e-16
4.0753475e-16
3.0282945e-16
1.0655131e-16
3.3168553e-18
5.1173645e-24
2.7449288e-25
3.2796162e-19
1.2417922e-17
3.7098805e-17
5.0648532e-17
5.4816464e-17
5.5739181e-17
5.5845242e-17
5.5799828e-17
5.5759937e-17
5.5758691e-17
5.579616e-17
5.5839379e-17
5.5731461e-17
5.4807376e-17
5.0639087e-17
3.7091346e-17
1.2415253e-17
3.2788164e-19
2.7441037e-25
1.4284289e-26
3.1411405e-20
1.4016993e-18
4.4019699e-18
6.0968788e-18
6.6239013e-18
6.7417561e-18
6.7560579e-18
6.7508795e-18
6.746106e-18
6.7459417e-18
6.7503952e-18
6.7552815e-18
6.7407302e-18
6.6226895e-18
6.0956177e-18
4.4009824e-18
1.4013618e-18
3.1402862e-20
1.4279564e-26
7.2352164e-28
2.9186041e-21
1.5347172e-19
5.0665043e-19
7.1191864e-19
7.7642986e-19
7.9099249e-19
7.9284462e-19
7.922747e-19
7.9172105e-19
7.9170016e-19
7.9221304e-19
7.9274549e-19
7.9086102e-19
7.7627398e-19
7.1175613e-19
5.0652422e-19
1.5343054e-19
2.9177235e-21
7.2197324e-28
5.614803e-29
2.6339973e-22
1.6319303e-20
5.6633995e-20
8.0736205e-20
8.8391183e-20
9.0134525e-20
9.036554e-20
9.0304962e-20
9.0242647e-20
9.0240095e-20
9.029742e-20
9.0353378e-20
9.0118334e-20
8.8371908e-20
8.0716071e-20
5.6618486e-20
1.6314471e-20
2.6331115e-22
3.5507531e-29
6.447191e-30
2.3115652e-23
1.6872257e-21
6.1553443e-21
8.9026659e-21
9.7843589e-21
9.986832e-21
1.0014652e-20
1.0008431e-20
1.0001617e-20
1.0001318e-20
1.0007545e-20
1.001322e-20
9.9849191e-21
9.782073e-21
8.9002736e-21
6.1535166e-21
1.6866811e-21
2.3106823e-23
1.7005337e-30
6.9953564e-31
1.9747479e-24
1.697894e-22
6.5118064e-22
9.5554865e-22
1.05424e-21
1.0770823e-21
1.0803235e-21
1.0797063e-21
1.0789818e-21
1.0789482e-21
1.0796066e-21
1.0801619e-21
1.0768656e-21
1.05398e-21
9.5527616e-22
6.5097416e-22
1.6973054e-22
1.9738901e-24
7.9388803e-32
6.7469771e-32
1.6438737e-25
1.6647649e-23
6.7121776e-23
9.9932081e-23
1.1067982e-22
1.1318599e-22
1.1355201e-22
1.1349287e-22
1.1341788e-22
1.1341425e-22
1.1348209e-22
1.135345e-22
1.1316243e-22
1.1065146e-22
9.9902313e-23
6.709941e-23
1.6641547e-23
1.6430685e-25
3.616257e-33
5.8382671e-33
1.3347115e-26
1.5918902e-24
6.7476226e-24
1.0192684e-23
1.1332641e-23
1.1600346e-23
1.1640473e-23
1.1635003e-23
1.162744e-23
1.1627062e-23
1.1633881e-23
1.1638647e-23
1.1597884e-23
1.1329669e-23
1.0189561e-23
6.7452966e-24
1.5912831e-24
1.3339843e-26
1.6087046e-34
4.5444442e-34
1.0579255e-27
1.4858675e-25
6.6214306e-25
1.0148259e-24
1.1327009e-24
1.1605698e-24
1.1648466e-24
1.1643591e-24
1.1636152e-24
1.1635773e-24
1.1642466e-24
1.1646632e-24
1.160322e-24
1.1324011e-24
1.0145107e-24
6.6191049e-25
1.4852869e-25
1.0572959e-27
6.9948247e-36
3.1205089e-35
8.1928478e-29
1.3549407e-26
6.3479355e-26
9.8714154e-26
1.1060789e-25
1.134381e-25
1.1388183e-25
1.1384006e-25
1.1376864e-25
1.1376498e-25
1.1382917e-25
1.1386405e-25
1.1341403e-25
1.1057873e-25
9.86835e-26
6.345696e-26
1.3544063e-26
8.1876503e-29
2.9751205e-37
1.757733e-36
6.2039417e-30
1.2080343e-27
5.950287e-27
9.3885157e-27
1.0560595e-26
1.084123e-26
1.0886099e-26
1.0882673e-26
1.0875974e-26
1.087563e-26
1.0881651e-26
1.088443e-26
1.083897e-26
1.0557855e-26
9.3856378e-27
5.9482063e-27
1.2075602e-27
6.1998877e-30
1.2387443e-38
5.8961153e-38
4.5969725e-31
1.0538595e-28
5.4574976e-28
8.7371425e-28
9.8661421e-28
1.0138072e-27
1.0182337e-27
1.0179666e-27
1.0173521e-27
1.0173209e-27
1.0178736e-27
1.0180819e-27
1.0136016e-27
9.8636498e-28
8.7345296e-28
5.4556294e-28
1.0534536e-28
4.5940394e-31
5.0525363e-40
1.5463559e-39
3.3354388e-32
9.0019481e-30
4.9012412e-29
7.961664e-29
9.0254768e-29
9.2831761e-29
9.3258254e-29
9.3238682e-29
9.318353e-29
9.3180766e-29
9.323046e-29
9.3244838e-29
9.2813608e-29
9.0232789e-29
7.9593661e-29
4.8996176e-29
8.9985916e-30
3.3334611e-32
2.0200715e-41
4.0477239e-41
2.371389e-33
7.5339939e-31
4.3128349e-30
7.1086865e-30
8.0899667e-30
8.3289924e-30
8.3691624e-30
8.3678465e-30
8.3629989e-30
8.3627605e-30
8.3671381e-30
8.3680083e-30
8.3274336e-30
8.088084e-30
7.106726e-30
4.3114677e-30
7.531306e-31
2.370087e-33
7.9214319e-43
1.0609047e-42
1.6530107e-34
6.1817511e-32
3.7207628e-31
6.2229709e-31
7.1096923e-31
7.3268525e-31
7.3638727e-31
7.3631042e-31
7.3589289e-31
7.3587281e-31
7.3625086e-31
7.3629042e-31
7.325548e-31
7.1081226e-31
6.2213456e-31
3.7196454e-31
6.1796623e-32
1.6521737e-34
3.048192e-44
)
;

boundaryField
{
    Wall
    {
        type            zeroGradient;
    }
    frontAndBack
    {
        type            empty;
    }
    atmosphere
    {
        type            zeroGradient;
    }
}


// ************************************************************************* //
