/*--------------------------------*- C++ -*----------------------------------*\
| =========                 |                                                 |
| \\      /  F ield         | OpenFOAM: The Open Source CFD Toolbox           |
|  \\    /   O peration     | Version:  3.0.1                                 |
|   \\  /    A nd           | Web:      www.OpenFOAM.org                      |
|    \\/     M anipulation  |                                                 |
\*---------------------------------------------------------------------------*/
FoamFile
{
    version     2.0;
    format      ascii;
    class       volScalarField;
    location    "10";
    object      mTwo;
}
// * * * * * * * * * * * * * * * * * * * * * * * * * * * * * * * * * * * * * //

dimensions      [0 0 0 0 0 0 0];

internalField   nonuniform List<scalar> 
800
(
2.9118074e-13
2.9112527e-13
2.9110523e-13
2.9109531e-13
2.9108792e-13
2.9108204e-13
2.9107756e-13
2.9107434e-13
2.9107226e-13
2.9107124e-13
2.9107124e-13
2.9107226e-13
2.9107434e-13
2.9107757e-13
2.9108205e-13
2.9108792e-13
2.9109532e-13
2.9110523e-13
2.9112527e-13
2.9118074e-13
1.4077903e-13
1.4133014e-13
1.4151122e-13
1.4162834e-13
1.4171419e-13
1.4177826e-13
1.4182517e-13
1.4185813e-13
1.4187913e-13
1.4188935e-13
1.4188935e-13
1.4187913e-13
1.4185812e-13
1.4182516e-13
1.4177825e-13
1.4171418e-13
1.4162833e-13
1.4151121e-13
1.4133013e-13
1.4077902e-13
6.8399695e-14
6.8901156e-14
6.8988555e-14
6.9034418e-14
6.9063973e-14
6.9084286e-14
6.9098248e-14
6.9107672e-14
6.9113537e-14
6.9116362e-14
6.9116361e-14
6.9113531e-14
6.9107661e-14
6.9098234e-14
6.9084269e-14
6.9063954e-14
6.9034395e-14
6.8988531e-14
6.8901129e-14
6.8399664e-14
2.1374538e-14
2.1836728e-14
2.1854606e-14
2.1859031e-14
2.1859892e-14
2.1859306e-14
2.1858344e-14
2.1857449e-14
2.1856806e-14
2.1856481e-14
2.1856481e-14
2.1856806e-14
2.1857449e-14
2.1858343e-14
2.1859306e-14
2.1859891e-14
2.1859031e-14
2.1854606e-14
2.1836727e-14
2.1374535e-14
4.9250914e-15
5.1046401e-15
5.1047697e-15
5.0969887e-15
5.0894975e-15
5.0834464e-15
5.0789057e-15
5.075678e-15
5.0736099e-15
5.0726009e-15
5.0726016e-15
5.0736115e-15
5.0756806e-15
5.0789093e-15
5.0834507e-15
5.0895022e-15
5.0969941e-15
5.1047754e-15
5.1046458e-15
4.9250999e-15
8.4457954e-16
1.0572002e-15
1.1022714e-15
1.1126489e-15
1.1139778e-15
1.1131394e-15
1.1120746e-15
1.1112271e-15
1.1106689e-15
1.1103946e-15
1.1103946e-15
1.1106688e-15
1.1112271e-15
1.1120745e-15
1.1131393e-15
1.1139774e-15
1.1126486e-15
1.1022709e-15
1.0571995e-15
8.4457939e-16
8.5002864e-17
1.8815935e-16
2.2597852e-16
2.3787283e-16
2.4097979e-16
2.4147949e-16
2.4135974e-16
2.4116377e-16
2.410177e-16
2.4094373e-16
2.4094366e-16
2.410175e-16
2.4116345e-16
2.4135931e-16
2.4147895e-16
2.409791e-16
2.3787206e-16
2.2597767e-16
1.8815854e-16
8.5002464e-17
5.4760315e-18
2.9655742e-17
4.4753931e-17
5.0515766e-17
5.2225662e-17
5.2607425e-17
5.2637708e-17
5.2600183e-17
5.2564893e-17
5.2546148e-17
5.2546108e-17
5.2564773e-17
5.2599993e-17
5.2637457e-17
5.2607117e-17
5.2225294e-17
5.0515367e-17
4.4753532e-17
2.9655429e-17
5.4759552e-18
3.1955248e-19
4.5001649e-18
8.7219741e-18
1.0641526e-17
1.1256299e-17
1.1405814e-17
1.1426372e-17
1.1419563e-17
1.141107e-17
1.1406356e-17
1.1406339e-17
1.141102e-17
1.1419485e-17
1.142627e-17
1.1405691e-17
1.1256157e-17
1.0641378e-17
8.7218386e-18
4.5000804e-18
3.1954407e-19
1.8774472e-20
6.7296678e-19
1.6680693e-18
2.1981638e-18
2.3785691e-18
2.4243569e-18
2.4316779e-18
2.4304997e-18
2.4285032e-18
2.4273555e-18
2.4273496e-18
2.4284861e-18
2.4304729e-18
2.4316432e-18
2.4243159e-18
2.3785234e-18
2.198118e-18
1.6680311e-18
6.7294801e-19
1.8773726e-20
1.1325506e-21
9.9156031e-20
3.1070291e-19
4.4057593e-19
4.8711266e-19
4.9925425e-19
5.0133726e-19
5.0114666e-19
5.0069684e-19
5.0043087e-19
5.0042909e-19
5.0069164e-19
5.0113856e-19
5.0132689e-19
4.992422e-19
4.8709962e-19
4.4056343e-19
3.1069342e-19
9.9152364e-20
1.1324905e-21
7.0263983e-23
1.4322769e-20
5.6012015e-20
8.5085979e-20
9.5981741e-20
9.8882865e-20
9.9401981e-20
9.9374386e-20
9.9278371e-20
9.9220241e-20
9.9219751e-20
9.927695e-20
9.937218e-20
9.9399178e-20
9.8879658e-20
9.5978362e-20
8.5082884e-20
5.6009878e-20
1.4322116e-20
7.0259353e-23
4.4665885e-24
2.0190238e-21
9.7363846e-21
1.5777526e-20
1.8133558e-20
1.8771194e-20
1.8888744e-20
1.8885539e-20
1.8866232e-20
1.885429e-20
1.8854168e-20
1.8865879e-20
1.8884992e-20
1.8888052e-20
1.8770411e-20
1.813275e-20
1.5776816e-20
9.7359376e-21
2.0189145e-21
4.4662375e-24
2.8878784e-25
2.7683431e-22
1.6291025e-21
2.8058585e-21
3.2817078e-21
3.412304e-21
3.4369631e-21
3.4367894e-21
3.4331362e-21
3.4308292e-21
3.4308015e-21
3.4330559e-21
3.4366648e-21
3.4368058e-21
3.4121269e-21
3.2815282e-21
2.8057059e-21
1.629014e-21
2.7681683e-22
2.8876129e-25
1.8810632e-26
3.6834533e-23
2.6225121e-22
4.7864815e-22
5.6914314e-22
5.9429467e-22
5.9914385e-22
5.9919359e-22
5.985421e-22
5.9812185e-22
5.9811604e-22
5.9852528e-22
5.9916746e-22
5.9911081e-22
5.9425753e-22
5.6910579e-22
4.7861721e-22
2.6223451e-22
3.6831832e-23
1.8808628e-26
1.2224699e-27
4.7486099e-24
4.0623363e-23
7.8386287e-23
9.4688368e-23
9.9273175e-23
1.0017407e-22
1.0019729e-22
1.0008746e-22
1.0001501e-22
1.0001388e-22
1.000842e-22
1.0019222e-22
1.0016764e-22
9.9265929e-23
9.4681097e-23
7.8380361e-23
4.0620349e-23
4.7482065e-24
1.2223202e-27
7.8602336e-29
5.925604e-25
6.0583022e-24
1.2336762e-23
1.5131194e-23
1.5926093e-23
1.608507e-23
1.609142e-23
1.6073855e-23
1.6061989e-23
1.6061788e-23
1.607327e-23
1.6090506e-23
1.6083905e-23
1.5924774e-23
1.5129868e-23
1.2335692e-23
6.0577845e-24
5.9250256e-25
7.8591408e-29
4.9679311e-30
7.1539364e-26
8.7049149e-25
1.8681475e-24
2.3255623e-24
2.4571301e-24
2.483881e-24
2.4852973e-24
2.482624e-24
2.4807711e-24
2.4807374e-24
2.4825258e-24
2.4851434e-24
2.4836837e-24
2.4569054e-24
2.3253354e-24
1.8679654e-24
8.7040716e-25
7.153145e-26
4.9671598e-30
3.0722592e-31
8.3553925e-27
1.2061481e-25
2.7252163e-25
3.4422388e-25
3.6507424e-25
3.6937961e-25
3.6965881e-25
3.6927036e-25
3.689936e-25
3.6898828e-25
3.6925484e-25
3.6963438e-25
3.6934815e-25
3.6503818e-25
3.4418728e-25
2.7249235e-25
1.2060179e-25
8.3543618e-27
3.0717359e-31
1.8533868e-32
9.4426495e-28
1.6131861e-26
3.8344963e-26
4.9134457e-26
5.2305951e-26
5.2970348e-26
5.3020651e-26
5.2966617e-26
5.2926955e-26
5.2926157e-26
5.2964283e-26
5.3016966e-26
5.296558e-26
5.2300456e-26
4.9128853e-26
3.8340489e-26
1.612995e-26
9.4413694e-28
1.8530455e-32
1.0886962e-33
1.0330484e-28
2.0848107e-27
5.210382e-27
6.7721474e-27
7.2361389e-27
7.3346577e-27
7.3430904e-27
7.3358777e-27
7.33041e-27
7.3302947e-27
7.3355402e-27
7.3425562e-27
7.333964e-27
7.2353355e-27
6.7713248e-27
5.2097276e-27
2.0845417e-27
1.0328959e-28
1.0884814e-33
6.2210733e-35
1.0947424e-29
2.6062145e-28
6.8456305e-28
9.0242247e-28
9.6783422e-28
9.8189839e-28
9.832284e-28
9.8230253e-28
9.8157573e-28
9.8155956e-28
9.8225513e-28
9.8315321e-28
9.8180044e-28
9.6772038e-28
9.0230558e-28
6.8447049e-28
2.6058487e-28
1.0945666e-29
6.2197595e-35
3.4569492e-36
1.1245529e-30
3.1548647e-29
8.7067502e-29
1.1640378e-28
1.2530451e-28
1.2724077e-28
1.2743964e-28
1.2732515e-28
1.272318e-28
1.2722958e-28
1.2731863e-28
1.2742929e-28
1.2722725e-28
1.2528874e-28
1.1638756e-28
8.7054733e-29
3.1543802e-29
1.1243556e-30
3.4561635e-36
1.8681949e-37
1.1206426e-31
3.7020233e-30
1.0732405e-29
1.4551514e-29
1.5722312e-29
1.5979803e-29
1.6008152e-29
1.5994491e-29
1.5982886e-29
1.5982587e-29
1.5993611e-29
1.6006751e-29
1.5977969e-29
1.5720168e-29
1.4549307e-29
1.0730679e-29
3.7013952e-30
1.1204258e-31
1.8677336e-37
9.8221354e-39
1.0842603e-32
4.215373e-31
1.2835624e-30
1.7649066e-30
1.9139917e-30
1.947116e-30
1.9509852e-30
1.9494107e-30
1.9480122e-30
1.9479726e-30
1.9492942e-30
1.9507993e-30
1.9468719e-30
1.9137056e-30
1.7646116e-30
1.2833334e-30
4.2145754e-31
1.084027e-32
9.8194779e-39
5.0266091e-40
1.0194059e-33
4.6623871e-32
1.490994e-31
2.0790914e-31
2.2631041e-31
2.3043815e-31
2.3094556e-31
2.3077009e-31
2.306065e-31
2.3060138e-31
2.3075503e-31
2.3092146e-31
2.304064e-31
2.2627307e-31
2.0787059e-31
1.490697e-31
4.6613975e-32
1.0191608e-33
5.0251106e-40
2.5055822e-41
9.3213136e-35
5.0139197e-33
1.6838859e-32
2.3812607e-32
2.6016794e-32
2.6515696e-32
2.6579813e-32
2.6560893e-32
2.6542297e-32
2.6541654e-32
2.6558999e-32
2.6576774e-32
2.6511679e-32
2.6012054e-32
2.3807706e-32
1.6835112e-32
5.0127255e-33
9.3188087e-35
2.5047593e-41
1.2202425e-42
8.2963919e-36
5.2474425e-34
1.8507392e-33
2.6542564e-33
2.9107793e-33
2.9693354e-33
2.9771606e-33
2.975186e-33
2.9731301e-33
2.9730521e-33
2.9749557e-33
2.9767901e-33
2.9688438e-33
2.9101971e-33
2.6536532e-33
1.8502814e-33
5.2460479e-34
8.2939147e-36
1.2169053e-42
1.1137655e-43
7.1935818e-37
5.3494223e-35
1.9813949e-34
2.8819143e-34
3.1722767e-34
3.2390899e-34
3.2483333e-34
3.2463384e-34
3.2441257e-34
3.2440345e-34
3.2460686e-34
3.2478981e-34
3.2385101e-34
3.1715872e-34
2.8811984e-34
1.9808557e-34
5.3478517e-35
7.1911792e-37
5.7668592e-44
1.4653729e-44
6.0813422e-38
5.316502e-36
2.068084e-35
3.0507107e-35
3.3706899e-35
3.4448791e-35
3.4554655e-35
3.4535149e-35
3.4511949e-35
3.4510921e-35
3.4532108e-35
3.4549735e-35
3.4442214e-35
3.3699048e-35
3.0498937e-35
2.0674732e-35
5.3147988e-36
6.0790166e-38
2.6677163e-45
1.6385595e-45
5.0163897e-39
5.1553678e-37
2.1061845e-36
3.1511096e-36
3.4947274e-36
3.5749743e-36
3.5867481e-36
3.5849032e-36
3.5825316e-36
3.5824204e-36
3.5845736e-36
3.5862135e-36
3.5742573e-36
3.4938681e-36
3.1502138e-36
2.1055199e-36
5.1535922e-37
5.0141865e-39
1.2055405e-46
1.5699412e-46
4.0406315e-40
4.8814308e-38
2.0945873e-37
3.1784229e-37
3.5383247e-37
3.6229548e-37
3.6356879e-37
3.6340017e-37
3.6316363e-37
3.6315205e-37
3.6336579e-37
3.635129e-37
3.6222028e-37
3.5374206e-37
3.1774788e-37
2.0938924e-37
4.8796519e-38
4.0386101e-40
5.3257831e-48
1.3333061e-47
3.1804643e-41
4.5166131e-39
2.0356397e-38
3.1330861e-38
3.5010528e-38
3.58815e-38
3.6015572e-38
3.6000705e-38
3.597767e-38
3.5976506e-38
3.5997248e-38
3.6009943e-38
3.5873905e-38
3.5001369e-38
3.1321286e-38
2.0349409e-38
4.5148994e-39
3.1786782e-41
2.3017222e-49
1.0144983e-48
2.4480489e-42
4.086648e-40
1.9347072e-39
3.0203472e-39
3.3878758e-39
3.4754192e-39
3.4891792e-39
3.487918e-39
3.485726e-39
3.4856131e-39
3.4875824e-39
3.4886317e-39
3.474679e-39
3.3869813e-39
3.0194114e-39
1.9340303e-39
4.0850586e-40
2.4465352e-42
9.7383809e-51
6.8022045e-50
1.8438686e-43
3.6183187e-41
1.7994451e-40
2.8494577e-40
3.2083442e-40
3.2943477e-40
3.3081267e-40
3.3071019e-40
3.3050622e-40
3.3049561e-40
3.3067866e-40
3.3076118e-40
3.2936506e-40
3.2075002e-40
2.8485749e-40
1.7988126e-40
3.6168978e-41
1.8426454e-43
4.0361669e-52
3.7417023e-51
1.359873e-44
3.1370042e-42
1.6389074e-41
2.6325189e-41
2.9753774e-41
3.0580197e-41
3.0714953e-41
3.0707033e-41
3.068846e-41
3.0687494e-41
3.070416e-41
3.071026e-41
3.0573839e-41
2.974607e-41
2.6317137e-41
1.6383363e-41
3.135778e-42
1.3589402e-44
1.6397245e-53
1.2261866e-52
9.8262592e-46
2.664786e-43
1.4626247e-42
2.3831683e-42
2.7038381e-42
2.7815674e-42
2.7944495e-42
2.7938745e-42
2.7922185e-42
2.792133e-42
2.7936203e-42
2.7940342e-42
2.7810047e-42
2.7031565e-42
2.3824571e-42
1.4621257e-42
2.6637636e-43
9.8196797e-46
6.5335443e-55
3.1382403e-54
6.9607717e-47
2.2192436e-44
1.2797673e-43
2.1152855e-43
2.4090959e-43
2.4807023e-43
2.4927496e-43
2.492367e-43
2.4909201e-43
2.4908465e-43
2.492148e-43
2.4923921e-43
2.4802184e-43
2.4085105e-43
2.1146763e-43
1.2793447e-43
2.2184193e-44
6.9564583e-47
2.5547188e-56
8.0108803e-56
4.8367929e-48
1.8129398e-45
1.0984781e-44
1.8418684e-44
2.1057523e-44
2.1704049e-44
2.1814357e-44
2.1812152e-44
2.1799757e-44
2.1799138e-44
2.1810311e-44
2.1811358e-44
2.1699997e-44
2.1052633e-44
1.8413614e-44
1.098131e-44
1.8122955e-45
4.8340272e-48
9.8077586e-58
2.0459272e-57
3.2984147e-49
1.4535181e-46
9.254267e-46
1.5741816e-45
1.8066474e-45
1.8638965e-45
1.873793e-45
1.8737021e-45
1.8726605e-45
1.8726096e-45
1.8735511e-45
1.8735473e-45
1.8635655e-45
1.8062493e-45
1.5737713e-45
9.2514965e-46
1.4530289e-46
3.2966806e-49
3.6984608e-59
)
;

boundaryField
{
    Wall
    {
        type            zeroGradient;
    }
    frontAndBack
    {
        type            empty;
    }
    atmosphere
    {
        type            zeroGradient;
    }
}


// ************************************************************************* //
