/*--------------------------------*- C++ -*----------------------------------*\
| =========                 |                                                 |
| \\      /  F ield         | OpenFOAM: The Open Source CFD Toolbox           |
|  \\    /   O peration     | Version:  3.0.1                                 |
|   \\  /    A nd           | Web:      www.OpenFOAM.org                      |
|    \\/     M anipulation  |                                                 |
\*---------------------------------------------------------------------------*/
FoamFile
{
    version     2.0;
    format      ascii;
    class       volScalarField;
    location    "10";
    object      mZero;
}
// * * * * * * * * * * * * * * * * * * * * * * * * * * * * * * * * * * * * * //

dimensions      [0 0 0 0 0 0 0];

internalField   nonuniform List<scalar> 
800
(
1e+13
1e+13
1e+13
1e+13
1e+13
1e+13
1e+13
1e+13
1e+13
1e+13
1e+13
1e+13
1e+13
1e+13
1e+13
1e+13
1e+13
1e+13
1e+13
1e+13
1e+13
1e+13
1e+13
1e+13
1e+13
1e+13
1e+13
1e+13
1e+13
1e+13
1e+13
1e+13
1e+13
1e+13
1e+13
1e+13
1e+13
1e+13
1e+13
1e+13
7.7407851e+12
7.7480755e+12
7.748757e+12
7.7486637e+12
7.7484443e+12
7.7482286e+12
7.7480469e+12
7.7479109e+12
7.7478218e+12
7.7477782e+12
7.7477783e+12
7.7478218e+12
7.7479109e+12
7.7480469e+12
7.7482286e+12
7.7484444e+12
7.7486636e+12
7.7487569e+12
7.7480755e+12
7.740785e+12
4.9099961e+12
4.931121e+12
4.9295876e+12
4.9275049e+12
4.9258389e+12
4.9245148e+12
4.9235244e+12
4.9228217e+12
4.9223724e+12
4.9221539e+12
4.9221541e+12
4.9223729e+12
4.9228225e+12
4.9235256e+12
4.9245162e+12
4.9258404e+12
4.9275068e+12
4.9295895e+12
4.931123e+12
4.9099982e+12
2.3254565e+12
2.4284065e+12
2.4361313e+12
2.4343614e+12
2.4318261e+12
2.4297053e+12
2.4281297e+12
2.4270227e+12
2.4263188e+12
2.4259762e+12
2.4259764e+12
2.4263193e+12
2.4270235e+12
2.4281308e+12
2.4297067e+12
2.4318276e+12
2.4343631e+12
2.4361328e+12
2.4284081e+12
2.3254589e+12
7.3084809e+11
9.5657643e+11
1.0042961e+12
1.0145844e+12
1.0160416e+12
1.0155679e+12
1.0148784e+12
1.0143285e+12
1.0139684e+12
1.0137919e+12
1.0137919e+12
1.0139682e+12
1.0143281e+12
1.014878e+12
1.0155674e+12
1.0160408e+12
1.0145834e+12
1.0042946e+12
9.5657484e+11
7.3084678e+11
1.2950752e+11
3.0916446e+11
3.6955589e+11
3.8663524e+11
3.9074798e+11
3.9137825e+11
3.9123975e+11
3.9101434e+11
3.9084847e+11
3.9076485e+11
3.907647e+11
3.9084802e+11
3.9101365e+11
3.9123883e+11
3.9137708e+11
3.9074651e+11
3.8663347e+11
3.6955383e+11
3.0916244e+11
1.295063e+11
1.5579781e+10
8.743832e+10
1.2648377e+11
1.3962883e+11
1.4320306e+11
1.4394977e+11
1.4399948e+11
1.4392398e+11
1.4385578e+11
1.4381991e+11
1.4381978e+11
1.4385539e+11
1.4392338e+11
1.4399868e+11
1.4394878e+11
1.4320186e+11
1.3962744e+11
1.2648227e+11
8.7437029e+10
1.5579401e+10
1.7833772e+09
2.3172291e+10
4.0880896e+10
4.7816269e+10
4.9838208e+10
5.0297643e+10
5.0353432e+10
5.0328991e+10
5.0301574e+10
5.0286619e+10
5.0286535e+10
5.0301329e+10
5.032861e+10
5.0352935e+10
5.029704e+10
4.9837498e+10
4.7815473e+10
4.0880097e+10
2.3171708e+10
1.7833002e+09
2.0615458e+08
5.7919781e+09
1.2380832e+10
1.5335948e+10
1.6245876e+10
1.6461557e+10
1.6492238e+10
1.6484483e+10
1.647399e+10
1.6468112e+10
1.6468068e+10
1.6473864e+10
1.6484288e+10
1.6491986e+10
1.6461257e+10
1.6245534e+10
1.5335578e+10
1.2380487e+10
5.7917685e+09
2.06142e+08
23440969
1.3526213e+09
3.4800772e+09
4.5595808e+09
4.9080234e+09
4.9929885e+09
5.006003e+09
5.0036619e+09
4.9999593e+09
4.997843e+09
4.9978239e+09
4.9999041e+09
5.0035766e+09
5.005894e+09
4.992861e+09
4.907882e+09
4.5594349e+09
3.4799514e+09
1.3525584e+09
23439195
2552923.6
2.9319652e+08
9.0366941e+08
1.2509226e+09
1.367867e+09
1.3970244e+09
1.4017052e+09
1.4010578e+09
1.3998764e+09
1.3991896e+09
1.3991823e+09
1.3998553e+09
1.4010254e+09
1.4016641e+09
1.396977e+09
1.3678159e+09
1.2508723e+09
9.0362955e+08
2.931802e+08
2552700.5
262684.11
58918818
2.1681821e+08
3.167999e+08
3.5181644e+08
3.6071552e+08
3.6219765e+08
3.6203862e+08
3.6169973e+08
3.6149957e+08
3.6149713e+08
3.6169267e+08
3.6202774e+08
3.6218393e+08
3.606999e+08
3.518e+08
3.167844e+08
2.1680695e+08
58915043
262658.49
25420.392
11001932
48221006
74310354
83791206
86242814
86664578
86630709
86543070
86490452
86489726
86540970
86627470
86660497
86238201
83786431
74306018
48218100
11001132
25417.647
2313.8233
1916463.5
9985922
16219998
18566884
19183690
19293037
19286985
19266402
19253827
19253634
19265843
19286121
19291946
19182459
18565622
16218885
9985227.8
1916305.6
2313.5455
198.52414
312778.51
1934766.8
3310784.3
3846809.1
3989884.3
4015971.8
4015135.9
4010707.9
4007951
4007904.8
4010573.6
4014927.5
4015708
3989586.1
3846504.5
3310520.6
1934612.3
312749.24
198.49753
16.102764
48031.406
352325.57
634934.77
748756.85
779593.73
785365.77
785305.15
784425.35
783866.26
783856.17
784396.03
785259.49
785307.67
779527.76
748689.41
634877.11
352293.48
48026.321
16.100364
1.238634
6967.6388
60555.844
114896.61
137510.08
143725.25
144917.19
144928.11
144765.45
144659.76
144657.74
144759.58
144918.94
144905.45
143711.84
137496.33
114884.94
60549.639
6966.8126
1.2384307
0.090628855
958.27179
9860.7142
19694.211
23920.173
25097.918
25328.878
25335.095
25306.925
25288.178
25287.805
25305.836
25333.386
25326.681
25095.392
23917.57
19692.015
9859.5951
958.14621
0.090612699
0.0063259495
125.36027
1526.4387
3208.6501
3954.8972
4165.6926
4207.8816
4209.6881
4205.0935
4201.9554
4201.8906
4204.9041
4209.3899
4207.4964
4165.2475
3954.4364
3208.2628
1526.2494
125.34234
0.0063247398
0.00042236582
15.645564
225.31984
498.42939
623.44213
659.21974
666.51462
666.93038
666.22117
665.72297
665.71228
666.18989
666.88099
666.45059
659.14541
623.36493
498.36483
225.28955
15.643141
0.00042227979
2.7041696e-05
1.8679055
31.803079
74.027566
93.963787
99.742319
100.94064
101.02404
100.92002
100.8447
100.843
100.91506
101.01619
100.93043
99.730422
93.951404
74.017274
31.798446
1.8675927
2.703583e-05
1.6639968e-06
0.21385365
4.3030396
10.538676
13.574504
14.46539
14.65301
14.668171
14.653624
14.642738
14.642478
14.652862
14.666961
14.651432
14.463547
13.572584
10.537091
4.3023565
0.2138147
1.66361e-06
9.8617501e-08
0.023531374
0.55937726
1.4413635
1.8839944
2.015463
2.0435434
2.0460927
2.0441476
2.042639
2.0426002
2.0440335
2.0459114
2.0433062
2.0151851
1.8837047
1.4411265
0.55927956
0.023526671
9.8592686e-08
5.6399124e-09
0.0024936359
0.070009388
0.18978352
0.25172743
0.27034369
0.27437169
0.27477326
0.27452392
0.27432295
0.27431731
0.2745073
0.27474678
0.27433695
0.27030288
0.25168487
0.18974902
0.069995802
0.0024930842
5.6383618e-09
3.1179734e-10
0.00025496749
0.0084518232
0.024102629
0.032441472
0.034976619
0.035531714
0.035591484
0.035560785
0.035534991
0.035534194
0.035558436
0.035587731
0.035526775
0.034970799
0.032435398
0.024097751
0.0084499896
0.00025490467
3.1170311e-10
1.6689994e-11
2.5196842e-05
0.000985913
0.0029576364
0.004039646
0.0043723305
0.0044459804
0.0044544393
0.004450803
0.0044476073
0.0044474986
0.0044504824
0.0044539256
0.0044453017
0.0043715282
0.0040388075
0.002956969
0.00098567368
2.5189928e-05
1.6684448e-11
8.6754715e-13
2.4104629e-06
0.00011130398
0.00035122949
0.00048679965
0.00052894798
0.0005383745
0.00053951829
0.00053910334
0.00053872051
0.00053870626
0.00053906124
0.00053945062
0.00053828477
0.00052884149
0.00048668819
0.00035114156
0.0001112739
2.4097299e-06
8.6598688e-13
6.1759699e-14
2.235525e-07
1.2178725e-05
4.0423989e-05
5.685355e-05
6.2017429e-05
6.3183373e-05
6.3331705e-05
6.3286045e-05
6.3241637e-05
6.3239844e-05
6.3280742e-05
6.3323158e-05
6.3171995e-05
6.2003872e-05
5.6839333e-05
4.041287e-05
1.2175096e-05
2.234769e-07
4.3645081e-14
6.3900895e-15
2.0126511e-08
1.2932976e-06
4.5151944e-06
6.4439525e-06
7.0567103e-06
7.196301e-06
7.2148082e-06
7.2099596e-06
7.2049651e-06
7.204749e-06
7.2093198e-06
7.2137742e-06
7.1949194e-06
7.0550579e-06
6.4422167e-06
4.5138483e-06
1.2928779e-06
2.0118822e-08
2.1386223e-15
6.694226e-16
1.7611872e-09
1.3345768e-07
4.900567e-07
7.0970502e-07
7.8022843e-07
7.9642912e-07
7.9865653e-07
7.9815945e-07
7.9761416e-07
7.9758923e-07
7.9808553e-07
7.9853677e-07
7.9626855e-07
7.8003566e-07
7.0950218e-07
4.8990074e-07
1.3341118e-07
1.7604269e-09
1.0200393e-16
6.4386576e-17
1.4996526e-10
1.3398037e-08
5.1743198e-08
7.6039381e-08
8.392212e-08
8.574729e-08
8.6006454e-08
8.5957245e-08
8.5899385e-08
8.5896627e-08
8.5949058e-08
8.5993157e-08
8.5729405e-08
8.3900578e-08
7.6016682e-08
5.1725898e-08
1.3393104e-08
1.4989273e-10
4.7408455e-18
5.6242757e-18
1.2439112e-11
1.3099677e-09
5.320676e-09
7.9342122e-09
8.7909456e-09
8.9908001e-09
9.0200083e-09
9.0153054e-09
9.009332e-09
9.0090388e-09
9.0144342e-09
9.0185905e-09
8.988888e-09
8.7886359e-09
7.9317762e-09
5.318836e-09
1.309466e-09
1.2432463e-11
2.149259e-19
4.4395836e-19
1.0060871e-12
1.2486468e-10
5.3336554e-10
8.0707048e-10
8.9771192e-10
9.1900669e-10
9.2220063e-10
9.2176705e-10
9.2116641e-10
9.211364e-10
9.216778e-10
9.2205517e-10
9.1881008e-10
8.9747389e-10
8.0681933e-10
5.3317764e-10
1.248157e-10
1.0055031e-12
9.513117e-21
3.0963779e-20
7.942072e-14
1.1614153e-11
5.2171958e-11
8.0107068e-11
8.9451963e-11
9.1662266e-11
9.2001653e-11
9.1963145e-11
9.1904262e-11
9.1901298e-11
9.1954323e-11
9.198726e-11
9.1642782e-11
8.9428338e-11
8.0082146e-11
5.2153498e-11
1.1609556e-11
7.9371794e-14
4.1146877e-22
1.7721842e-21
6.1243663e-15
1.055085e-12
4.9840988e-12
7.7654237e-12
8.7051736e-12
8.9288855e-12
8.9639768e-12
8.9606899e-12
8.9550567e-12
8.9547735e-12
8.9598467e-12
8.9626003e-12
8.9270208e-12
8.7029107e-12
7.763039e-12
4.982351e-12
1.0546695e-12
6.1204914e-15
1.740539e-23
6.0414238e-23
4.6170857e-16
9.3691032e-14
4.6540675e-13
7.3578973e-13
8.2805461e-13
8.5015473e-13
8.5368956e-13
8.5342102e-13
8.5289461e-13
8.5286838e-13
8.533429e-13
8.5356205e-13
8.4998201e-13
8.2784506e-13
7.3556929e-13
4.6524699e-13
9.3654826e-14
4.6142332e-16
7.2059596e-25
1.6120556e-24
3.4055488e-17
8.1386864e-15
4.2512014e-14
6.8198297e-14
7.7049844e-14
7.9182657e-14
7.9529947e-14
7.9509086e-14
7.9460997e-14
7.9458636e-14
7.9502059e-14
7.9518484e-14
7.9167145e-14
7.7031047e-14
6.8178579e-14
4.2497893e-14
8.1356415e-15
3.4035881e-17
2.9218894e-26
4.2958269e-26
2.4594252e-18
6.9209671e-16
3.8013465e-15
6.1878587e-15
7.018309e-15
7.219557e-15
7.2528712e-15
7.2513488e-15
7.2470506e-15
7.2468437e-15
7.2507336e-15
7.2518691e-15
7.2182033e-15
7.0166727e-15
6.1861492e-15
3.8001381e-15
6.9184895e-16
2.4581111e-18
1.1611034e-27
1.1470852e-27
1.7401371e-19
5.7652874e-17
3.3296738e-16
5.4998374e-16
6.2623685e-16
6.4481874e-16
6.4794216e-16
6.4784026e-16
6.4746411e-16
6.4744642e-16
6.4778773e-16
6.4785679e-16
6.4470373e-16
6.2609835e-16
5.4983985e-16
3.3286711e-16
5.7633326e-17
1.739278e-19
4.524327e-29
)
;

boundaryField
{
    Wall
    {
        type            zeroGradient;
    }
    frontAndBack
    {
        type            empty;
    }
    atmosphere
    {
        type            zeroGradient;
    }
}


// ************************************************************************* //
