/*--------------------------------*- C++ -*----------------------------------*\
| =========                 |                                                 |
| \\      /  F ield         | OpenFOAM: The Open Source CFD Toolbox           |
|  \\    /   O peration     | Version:  3.0.1                                 |
|   \\  /    A nd           | Web:      www.OpenFOAM.org                      |
|    \\/     M anipulation  |                                                 |
\*---------------------------------------------------------------------------*/
FoamFile
{
    version     2.0;
    format      ascii;
    class       surfaceScalarField;
    location    "10";
    object      phi;
}
// * * * * * * * * * * * * * * * * * * * * * * * * * * * * * * * * * * * * * //

dimensions      [0 3 -1 0 0 0 0];

internalField   nonuniform List<scalar> 
1540
(
-1.7761387e-11
3.469893e-08
-5.8613045e-12
3.5069511e-08
6.3757123e-12
3.5194937e-08
1.1173848e-11
3.5271515e-08
1.1410252e-11
3.5329508e-08
9.6416106e-12
3.5374593e-08
7.2443571e-12
3.5408734e-08
4.7663679e-12
3.543331e-08
2.3563198e-12
3.5449225e-08
4.9985917e-15
3.5457041e-08
-2.3464123e-12
3.5457041e-08
-4.7567863e-12
3.5449224e-08
-7.23522e-12
3.5433309e-08
-9.6329503e-12
3.5408733e-08
-1.1401969e-11
3.5374593e-08
-1.116487e-11
3.532951e-08
-6.3674083e-12
3.5271518e-08
5.8689919e-12
3.5194943e-08
1.7767096e-11
3.5069518e-08
3.4698925e-08
4.8807299e-11
5.9162612e-08
8.6440043e-11
5.9421557e-08
9.076066e-11
5.9454769e-08
8.1412081e-11
5.9458505e-08
6.761785e-11
5.9458698e-08
5.3004149e-11
5.9458003e-08
3.8817258e-11
5.9456831e-08
2.5358238e-11
5.9455622e-08
1.2519655e-11
5.945468e-08
6.2951289e-15
5.9454184e-08
-1.2507146e-11
5.9454182e-08
-2.5345859e-11
5.9454676e-08
-3.8804901e-11
5.9455616e-08
-5.2991673e-11
5.9456823e-08
-6.7605174e-11
5.9457993e-08
-8.139943e-11
5.9458686e-08
-9.0748262e-11
5.945849e-08
-8.642881e-11
5.9454753e-08
-4.8798213e-11
5.9421539e-08
5.9162587e-08
8.3650216e-11
8.3437245e-08
9.2199991e-11
8.3728939e-08
9.0016018e-11
8.3770289e-08
7.9047588e-11
8.3785297e-08
6.4243808e-11
8.3792922e-08
4.935178e-11
8.3795667e-08
3.5559738e-11
8.3796102e-08
2.2969014e-11
8.379568e-08
1.1265315e-11
8.3795144e-08
6.107607e-15
8.3794837e-08
-1.1253152e-11
8.3794837e-08
-2.2957155e-11
8.3795142e-08
-3.5548116e-11
8.3795677e-08
-4.9340186e-11
8.3796097e-08
-6.4232095e-11
8.3795661e-08
-7.9035129e-11
8.3792914e-08
-9.000421e-11
8.378529e-08
-9.2189004e-11
8.3770282e-08
-8.3640506e-11
8.3728933e-08
8.3437243e-08
9.7037603e-11
9.4071355e-08
1.4572633e-10
9.460517e-08
1.4941542e-10
9.4332435e-08
1.234784e-10
9.4085569e-08
9.5150687e-11
9.3885332e-08
7.0489482e-11
9.3733389e-08
4.9638534e-11
9.3622055e-08
3.163888e-11
9.3543857e-08
1.5402805e-11
9.3494058e-08
9.9722971e-15
9.3469826e-08
-1.5383571e-11
9.3469844e-08
-3.1620398e-11
9.3494107e-08
-4.9620811e-11
9.3543937e-08
-7.0472056e-11
9.3622163e-08
-9.5133232e-11
9.3733521e-08
-1.2346014e-10
9.3885483e-08
-1.493947e-10
9.4085739e-08
-1.4570779e-10
9.4332622e-08
-9.7025481e-11
9.4605373e-08
9.4071597e-08
9.111496e-11
7.6310912e-08
1.2476714e-10
8.849799e-08
1.1593601e-10
9.1199965e-08
9.331046e-11
9.1923795e-08
7.145273e-11
9.2070925e-08
5.2791182e-11
9.2059383e-08
3.7086335e-11
9.2018054e-08
2.3618396e-11
9.1981281e-08
1.1510096e-11
9.1956349e-08
4.0083568e-14
9.1943992e-08
-1.143114e-11
9.1943985e-08
-2.3543992e-11
9.1956329e-08
-3.7018221e-11
9.1981247e-08
-5.2729312e-11
9.2018008e-08
-7.1397172e-11
9.2059324e-08
-9.3259924e-11
9.207085e-08
-1.1588862e-10
9.1923707e-08
-1.2472915e-10
9.1199862e-08
-9.109412e-11
8.8497878e-08
7.6310838e-08
9.0552668e-11
4.9824513e-08
1.3377563e-10
8.0966706e-08
1.365217e-10
9.2497331e-08
1.2022872e-10
9.6636913e-08
9.831162e-11
9.7934718e-08
7.6085119e-11
9.8262168e-08
5.519375e-11
9.8307814e-08
3.5903193e-11
9.8289914e-08
1.7799006e-11
9.8267979e-08
2.9867358e-13
9.8255747e-08
-1.7212428e-11
9.8255722e-08
-3.53473e-11
9.8267906e-08
-5.4683948e-11
9.8289796e-08
-7.5631309e-11
9.8307657e-08
-9.7920313e-11
9.8261974e-08
-1.1990405e-10
9.7934488e-08
-1.3626763e-10
9.6636657e-08
-1.3359891e-10
9.249706e-08
-9.0459216e-11
8.096645e-08
4.9824361e-08
1.3368211e-10
3.1466668e-08
2.189388e-10
7.3158109e-08
2.498079e-10
9.3754442e-08
2.414494e-10
1.0212753e-07
2.1102168e-10
1.0500513e-07
1.7081082e-10
1.0584049e-07
1.2768366e-10
1.0603445e-07
8.4670573e-11
1.0605929e-07
4.2552125e-11
1.0605093e-07
1.0514605e-12
1.0604319e-07
-4.0485572e-11
1.0604313e-07
-8.2708245e-11
1.0605078e-07
-1.2588123e-10
1.0605905e-07
-1.6920955e-10
1.0603413e-07
-2.0965124e-10
1.0584011e-07
-2.4033164e-10
1.0500469e-07
-2.4895825e-10
1.0212707e-07
-2.1836517e-10
9.3753986e-08
-1.3338848e-10
7.3157717e-08
3.1466469e-08
1.5817484e-10
2.7857458e-08
2.702235e-10
7.2020416e-08
3.2062449e-10
9.6795985e-08
3.194959e-10
1.0764561e-07
2.8553221e-10
1.1155623e-07
2.3483678e-10
1.1273914e-07
1.775326e-10
1.1303246e-07
1.1862932e-10
1.130819e-07
5.9929888e-11
1.130787e-07
1.6123027e-12
1.1307176e-07
-5.6759506e-11
1.1307168e-07
-1.1561528e-10
1.1307846e-07
-1.7476155e-10
1.1308153e-07
-2.3237724e-10
1.1303198e-07
-2.8343699e-10
1.1273858e-07
-3.1780513e-10
1.1155561e-07
-3.1936337e-10
1.0764499e-07
-2.6939612e-10
9.6795398e-08
-1.5776708e-10
7.2019938e-08
2.7857234e-08
1.540519e-10
2.7454997e-08
2.7269622e-10
7.2683982e-08
3.3398142e-10
9.9426484e-08
3.4094863e-10
1.116359e-07
3.1028156e-10
1.1617058e-07
2.5871648e-10
1.1757607e-07
1.975979e-10
1.1793504e-07
1.330009e-10
1.1800053e-07
6.7529454e-11
1.1800019e-07
1.9502982e-12
1.1799338e-07
-6.3691371e-11
1.1799327e-07
-1.2934459e-10
1.1799987e-07
-1.9422896e-10
1.1800004e-07
-2.5572461e-10
1.1793441e-07
-3.0774134e-10
1.1757535e-07
-3.3891854e-10
1.1616982e-07
-3.3249499e-10
1.1163516e-07
-2.7174867e-10
9.9425832e-08
-1.5360083e-10
7.2683486e-08
2.7454778e-08
1.3224134e-10
2.7537582e-08
2.4174159e-10
7.3385962e-08
3.0512085e-10
1.0110873e-07
3.1899152e-10
1.1405134e-07
2.9572812e-10
1.189473e-07
2.5019027e-10
1.2048959e-07
1.9323109e-10
1.2089161e-07
1.3112204e-10
1.209687e-07
6.6961574e-11
1.2097093e-07
2.1004781e-12
1.2096451e-07
-6.2822331e-11
1.2096437e-07
-1.2716447e-10
1.2097053e-07
-1.8956755e-10
1.2096809e-07
-2.4692457e-10
1.2089084e-07
-2.929538e-10
1.2048872e-07
-3.1678478e-10
1.1894642e-07
-3.0352336e-10
1.1405053e-07
-2.4074054e-10
1.0110807e-07
-1.317729e-10
7.3385493e-08
2.7537383e-08
1.0444572e-10
2.7620195e-08
1.9636577e-10
7.3795081e-08
2.5489005e-10
1.0199804e-07
2.7281396e-10
1.1531829e-07
2.5780706e-10
1.2041175e-07
2.2151326e-10
1.2203415e-07
1.7317272e-10
1.2246415e-07
1.1857035e-10
1.2255035e-07
6.0953038e-11
1.2255549e-07
2.1099264e-12
1.2254992e-07
-5.6786441e-11
1.2254976e-07
-1.1456344e-10
1.2255502e-07
-1.6943322e-10
1.2254962e-07
-2.1815117e-10
1.2246324e-07
-2.5493053e-10
1.2203315e-07
-2.7051574e-10
1.2041076e-07
-2.5322251e-10
1.1531742e-07
-1.9531733e-10
1.0199738e-07
-1.039511e-10
7.3794645e-08
2.7620012e-08
7.8164694e-11
2.7657873e-08
1.5041586e-10
7.3979339e-08
2.0018272e-10
1.0240095e-07
2.1911242e-10
1.159023e-07
2.1106008e-10
1.2109688e-07
1.8425815e-10
1.2276438e-07
1.4588626e-10
1.2321277e-07
1.0084176e-10
1.233066e-07
5.2218122e-11
1.2331505e-07
2.0239818e-12
1.2331075e-07
-4.8209475e-11
1.2331057e-07
-9.695481e-11
1.2331453e-07
-1.4221465e-10
1.2330579e-07
-1.8091028e-10
1.2321176e-07
-2.081534e-10
1.2276326e-07
-2.1675492e-10
1.2109579e-07
-1.9844253e-10
1.1590137e-07
-1.4929692e-10
1.0240026e-07
-7.7622859e-11
7.3978904e-08
2.7657685e-08
5.6650576e-11
2.7669678e-08
1.1102287e-10
7.4046996e-08
1.5093132e-10
1.0255894e-07
1.686176e-10
1.1614053e-07
1.6542098e-10
1.2138412e-07
1.4668777e-10
1.2307675e-07
1.1761422e-10
1.2353773e-07
8.2083198e-11
1.2363815e-07
4.2833653e-11
1.2365008e-07
1.879974e-12
1.2364732e-07
-3.9096321e-11
1.2364713e-07
-7.842112e-11
1.2364953e-07
-1.1410077e-10
1.236373e-07
-1.4342346e-10
1.2353665e-07
-1.6252741e-10
1.2307555e-07
-1.6621641e-10
1.2138294e-07
-1.4911155e-10
1.1613951e-07
-1.0981689e-10
1.0255819e-07
-5.6050139e-11
7.4046513e-08
2.7669462e-08
4.0401361e-11
2.7671265e-08
8.0255759e-11
7.4066018e-08
1.1100785e-10
1.0261151e-07
1.2625181e-10
1.1622628e-07
1.2594416e-10
1.2149316e-07
1.1332204e-10
1.2320032e-07
9.1953232e-11
1.2367035e-07
6.4771047e-11
1.2377647e-07
3.406836e-11
1.2379179e-07
1.7066269e-12
1.2379062e-07
-3.0661139e-11
1.2379043e-07
-6.1392331e-11
1.2379125e-07
-8.8654126e-11
1.2377561e-07
-1.1019148e-10
1.2366925e-07
-1.231038e-10
1.2319908e-07
-1.2383487e-10
1.2149191e-07
-1.0912654e-10
1.1622517e-07
-7.8976432e-11
1.0261066e-07
-3.9752883e-11
7.406545e-08
2.7671008e-08
2.8654112e-11
2.7669792e-08
5.7465171e-11
7.4068055e-08
8.056403e-11
1.0262459e-07
9.3007849e-11
1.1625257e-07
9.4141573e-11
1.2153093e-07
8.5814651e-11
1.232471e-07
7.0389978e-11
1.2372392e-07
5.00103e-11
1.2383487e-07
2.6516136e-11
1.2385328e-07
1.5261683e-12
1.2385362e-07
-2.3455875e-11
1.2385345e-07
-4.6938789e-11
1.2385278e-07
-6.7338155e-11
1.2383406e-07
-8.2859324e-11
1.2372286e-07
-9.1401971e-11
1.2324588e-07
-9.0625881e-11
1.2152966e-07
-7.867262e-11
1.1625141e-07
-5.6160311e-11
1.0262365e-07
-2.7989779e-11
7.4067399e-08
2.7669497e-08
2.0329758e-11
2.7667754e-08
4.1037304e-11
7.4065207e-08
5.8122744e-11
1.0262472e-07
6.791475e-11
1.1625805e-07
6.9585712e-11
1.2154261e-07
6.4140955e-11
1.2326482e-07
5.3112169e-11
1.2374685e-07
3.8031377e-11
1.2386179e-07
2.0331094e-11
1.2388287e-07
1.3560314e-12
1.2388454e-07
-1.7601452e-11
1.2388439e-07
-3.5262691e-11
1.2388243e-07
-5.0320462e-11
1.2386108e-07
-6.1393082e-11
1.237459e-07
-6.6997629e-11
1.232637e-07
-6.5633401e-11
1.215414e-07
-5.6294751e-11
1.1625689e-07
-3.9775507e-11
1.0262374e-07
-1.9693184e-11
7.4064496e-08
2.7667441e-08
1.4460028e-11
2.7665826e-08
2.9321404e-11
7.4061373e-08
4.1848071e-11
1.0262122e-07
4.9365819e-11
1.1625688e-07
5.1085214e-11
1.2154517e-07
4.752772e-11
1.2327166e-07
3.9677021e-11
1.2375768e-07
2.8615299e-11
1.2387584e-07
1.5432871e-11
1.2389912e-07
1.2087444e-12
1.2390192e-07
-1.2992988e-11
1.239018e-07
-2.6122285e-11
1.2389877e-07
-3.7138712e-11
1.2387525e-07
-4.5004821e-11
1.2375688e-07
-4.8690753e-11
1.2327068e-07
-4.7247844e-11
1.2154408e-07
-4.0157164e-11
1.1625579e-07
-2.8170392e-11
1.0262025e-07
-1.3892143e-11
7.4060656e-08
2.7665518e-08
1.0306227e-11
2.766413e-08
2.097188e-11
7.4057615e-08
3.0109582e-11
1.0261695e-07
3.5786997e-11
1.1625372e-07
3.7332186e-11
1.2154445e-07
3.5001524e-11
1.2327404e-07
2.9426645e-11
1.2376311e-07
2.1367751e-11
1.2388379e-07
1.1641402e-11
1.2390884e-07
1.0905049e-12
1.2391256e-07
-9.4374418e-12
1.2391246e-07
-1.9108762e-11
1.2390856e-07
-2.7118621e-11
1.2388332e-07
-3.270304e-11
1.2376245e-07
-3.5154195e-11
1.2327322e-07
-3.387502e-11
1.215435e-07
-2.8608402e-11
1.1625273e-07
-1.9978688e-11
1.0261605e-07
-9.8333819e-12
7.405693e-08
2.7663843e-08
7.3452077e-12
2.7662674e-08
1.4995692e-11
7.4054205e-08
2.163805e-11
1.0261276e-07
2.5878076e-11
1.1625006e-07
2.717547e-11
1.2154246e-07
2.5646318e-11
1.2327431e-07
2.1698485e-11
1.2376567e-07
1.5865216e-11
1.238883e-07
8.7507647e-12
1.2391473e-07
9.9976591e-13
1.2391916e-07
-6.7305703e-12
1.2391909e-07
-1.3796287e-11
1.239145e-07
-1.9589407e-11
1.2388791e-07
-2.3556465e-11
1.2376512e-07
-2.5214356e-11
1.232736e-07
-2.4185854e-11
1.2154162e-07
-2.0346347e-11
1.1624918e-07
-1.4175996e-11
1.0261193e-07
-6.9735057e-12
7.4053557e-08
2.7662407e-08
5.2181889e-12
2.7661465e-08
1.0692828e-11
7.4051258e-08
1.5504287e-11
1.0260899e-07
1.8645129e-11
1.162465e-07
1.9693718e-11
1.2154004e-07
1.869403e-11
1.2327354e-07
1.5911611e-11
1.2376662e-07
1.1720746e-11
1.2389072e-07
6.5644418e-12
1.239182e-07
9.2712947e-13
1.2392318e-07
-4.6928435e-12
1.239231e-07
-9.8097278e-12
1.2391798e-07
-1.3973994e-11
1.2389034e-07
-1.6790997e-11
1.2376608e-07
-1.7933211e-11
1.2327285e-07
-1.7160063e-11
1.2153923e-07
-1.4409608e-11
1.1624564e-07
-1.0031866e-11
1.0260816e-07
-4.935049e-12
7.4050606e-08
2.7661198e-08
3.6810513e-12
2.7660516e-08
7.5781591e-12
7.4048861e-08
1.1046195e-11
1.0260581e-07
1.3355821e-11
1.1624337e-07
1.4183234e-11
1.2153768e-07
1.3536585e-11
1.2327238e-07
1.1590263e-11
1.2376673e-07
8.6073593e-12
1.2389193e-07
4.9101598e-12
1.239202e-07
8.5722808e-13
1.2392558e-07
-3.1810246e-12
1.2392549e-07
-6.8461783e-12
1.2391993e-07
-9.8129359e-12
1.2389149e-07
-1.1804956e-11
1.2376612e-07
-1.2602468e-11
1.2327161e-07
-1.2050586e-11
1.2153679e-07
-1.0115126e-11
1.1624241e-07
-7.0411632e-12
1.0260489e-07
-3.4623108e-12
7.4048131e-08
2.7660216e-08
2.5664865e-12
2.7659829e-08
5.3154814e-12
7.4047069e-08
7.7957563e-12
1.0260336e-07
9.4791185e-12
1.1624089e-07
1.0119307e-11
1.2153574e-07
9.7078414e-12
1.232713e-07
8.3602287e-12
1.2376659e-07
6.2617208e-12
1.238926e-07
3.6451864e-12
1.2392145e-07
7.7237272e-13
1.2392712e-07
-2.0865668e-12
1.23927e-07
-4.6729738e-12
1.239211e-07
-6.7570061e-12
1.2389202e-07
-8.1496917e-12
1.2376579e-07
-8.7063496e-12
1.2327032e-07
-8.3272225e-12
1.2153462e-07
-6.9904778e-12
1.162397e-07
-4.8628072e-12
1.0260222e-07
-2.385944e-12
7.4046171e-08
2.765946e-08
1.7579201e-12
2.7659387e-08
3.669402e-12
7.4045874e-08
5.4212186e-12
1.0260168e-07
6.6318366e-12
1.1623915e-07
7.1156243e-12
1.2153438e-07
6.8577573e-12
1.2327058e-07
5.9355235e-12
1.2376655e-07
4.4796339e-12
1.2389316e-07
2.6572735e-12
1.2392243e-07
6.5697644e-13
1.239283e-07
-1.3279506e-12
1.2392815e-07
-3.1152632e-12
1.2392197e-07
-4.5471325e-12
1.2389239e-07
-5.4985553e-12
1.2376551e-07
-5.8776007e-12
1.232693e-07
-5.6214877e-12
1.2153293e-07
-4.7153844e-12
1.1623763e-07
-3.2710474e-12
1.0260022e-07
-1.5961061e-12
7.4044734e-08
2.765892e-08
1.1723923e-12
2.7659148e-08
2.4725121e-12
7.4045201e-08
3.6854163e-12
1.0260069e-07
4.5372702e-12
1.1623814e-07
4.8898297e-12
1.2153365e-07
4.7275483e-12
1.2327031e-07
4.1029201e-12
1.2376679e-07
3.1084091e-12
1.2389384e-07
1.8632716e-12
1.2392343e-07
5.0143929e-13
1.2392944e-07
-8.4154438e-13
1.2392924e-07
-2.0406987e-12
1.2392284e-07
-2.9914299e-12
1.2389288e-07
-3.6149547e-12
1.2376548e-07
-3.8565254e-12
1.2326871e-07
-3.6793429e-12
1.2153183e-07
-3.074683e-12
1.1623623e-07
-2.1179208e-12
1.0259887e-07
-1.0222364e-12
7.4043781e-08
2.7658572e-08
7.4959497e-13
2.7659052e-08
1.6037103e-12
7.4044919e-08
2.4169842e-12
1.0260025e-07
2.9949565e-12
1.1623772e-07
3.2365311e-12
1.2153344e-07
3.1284354e-12
1.2327044e-07
2.7071301e-12
1.237673e-07
2.0382058e-12
1.2389468e-07
1.2060776e-12
1.239245e-07
3.0444454e-13
1.2393063e-07
-5.7377078e-13
1.239304e-07
-1.3454903e-12
1.2392382e-07
-1.9444573e-12
1.2389356e-07
-2.3244824e-12
1.2376577e-07
-2.4567698e-12
1.2326855e-07
-2.3233257e-12
1.2153127e-07
-1.921873e-12
1.1623542e-07
-1.3048373e-12
1.0259807e-07
-6.1790413e-13
7.4043228e-08
2.7658375e-08
4.4500157e-13
2.7659035e-08
9.7418116e-13
7.4044871e-08
1.4909142e-12
1.0260017e-07
1.8591414e-12
1.1623767e-07
2.0068164e-12
1.2153357e-07
1.9242672e-12
1.2327084e-07
1.6375331e-12
1.2376798e-07
1.1931698e-12
1.2389562e-07
6.5029052e-13
1.2392562e-07
7.3238688e-14
1.2393183e-07
-4.759273e-13
1.2393159e-07
-9.439421e-13
1.2392488e-07
-1.2911291e-12
1.238944e-07
-1.4933199e-12
1.237663e-07
-1.5391345e-12
1.2326875e-07
-1.4240347e-12
1.2153115e-07
-1.1521728e-12
1.1623509e-07
-7.6191603e-13
1.0259769e-07
-3.5000984e-13
7.4042967e-08
2.7658286e-08
2.2557192e-13
2.7659041e-08
5.1837843e-13
7.4044903e-08
8.1553094e-13
1.0260022e-07
1.0235951e-12
1.1623779e-07
1.0929207e-12
1.2153383e-07
1.0176039e-12
1.2327131e-07
8.1666263e-13
1.2376867e-07
5.2291546e-13
1.2389651e-07
1.7701036e-13
1.2392666e-07
-1.7798966e-13
1.2393295e-07
-5.0194278e-13
1.239327e-07
-7.6203028e-13
1.2392591e-07
-9.3599136e-13
1.2389527e-07
-1.013357e-12
1.2376696e-07
-9.9336915e-13
1.2326914e-07
-8.8038593e-13
1.215313e-07
-6.840556e-13
1.1623506e-07
-4.340877e-13
1.0259759e-07
-1.9167077e-13
7.4042885e-08
2.7658259e-08
6.7025837e-14
2.7659029e-08
1.8814697e-13
7.4044894e-08
3.236869e-13
1.0260024e-07
4.1088019e-13
1.1623788e-07
4.1685001e-13
1.2153404e-07
3.3879972e-13
1.2327168e-07
1.9059801e-13
1.2376922e-07
-5.2132942e-15
1.2389721e-07
-2.2165964e-13
1.2392748e-07
-4.3107164e-13
1.2393385e-07
-6.0853602e-13
1.2393362e-07
-7.3458245e-13
1.2392679e-07
-7.9728332e-13
1.2389604e-07
-7.9333321e-13
1.2376758e-07
-7.2702719e-13
1.2326959e-07
-6.0747174e-13
1.2153156e-07
-4.4807165e-13
1.1623517e-07
-2.7300316e-13
1.0259761e-07
-1.1832052e-13
7.4042884e-08
2.7658259e-08
-4.7985711e-14
2.7658977e-08
-5.1226694e-14
7.4044775e-08
-3.3286934e-14
1.0260011e-07
-3.5227934e-14
1.162378e-07
-7.7943336e-14
1.2153406e-07
-1.6227652e-13
1.2327183e-07
-2.786662e-13
1.2376951e-07
-4.12671e-13
1.2389763e-07
-5.4770695e-13
1.2392801e-07
-6.6728218e-13
1.2393445e-07
-7.5681127e-13
1.2393425e-07
-8.0487568e-13
1.2392741e-07
-8.0453896e-13
1.2389661e-07
-7.5458965e-13
1.2376806e-07
-6.5985831e-13
1.2326995e-07
-5.3048635e-13
1.215318e-07
-3.8154581e-13
1.1623529e-07
-2.3359597e-13
1.0259766e-07
-1.0634937e-13
7.4042895e-08
2.7658262e-08
-1.3119239e-13
2.7658876e-08
-2.2379956e-13
7.4044525e-08
-2.8979347e-13
1.0259981e-07
-3.550557e-13
1.1623752e-07
-4.3245544e-13
1.2153385e-07
-5.2222806e-13
1.2327172e-07
-6.1885607e-13
1.2376951e-07
-7.1468038e-13
1.2389775e-07
-8.0128186e-13
1.2392822e-07
-8.7036922e-13
1.2393473e-07
-9.1413555e-13
1.2393458e-07
-9.2536811e-13
1.2392775e-07
-8.9822307e-13
1.2389694e-07
-8.2982148e-13
1.2376834e-07
-7.2204301e-13
1.2327017e-07
-5.8300227e-13
1.2153194e-07
-4.2749857e-13
1.1623536e-07
-2.7397965e-13
1.0259767e-07
-1.3352886e-13
7.4042888e-08
2.765826e-08
-1.8972479e-13
2.7658736e-08
-3.4501192e-13
7.4044165e-08
-4.6895744e-13
1.0259934e-07
-5.7670979e-13
1.1623705e-07
-6.7616871e-13
1.2153343e-07
-7.6816265e-13
1.2327138e-07
-8.5119708e-13
1.2376927e-07
-9.2352977e-13
1.238976e-07
-9.8338263e-13
1.2392816e-07
-1.0285444e-12
1.2393473e-07
-1.0554825e-12
1.2393463e-07
-1.0584986e-12
1.2392783e-07
-1.0301605e-12
1.2389703e-07
-9.6335942e-13
1.2376843e-07
-8.5462861e-13
1.2327024e-07
-7.0784229e-13
1.2153198e-07
-5.3612698e-13
1.1623536e-07
-3.5731417e-13
1.0259765e-07
-1.8042218e-13
7.4042861e-08
2.7658253e-08
-2.2698367e-13
2.7658575e-08
-4.2334312e-13
7.4043743e-08
-5.8487686e-13
1.0259879e-07
-7.1870437e-13
1.1623646e-07
-8.2975733e-13
1.2153288e-07
-9.2026492e-13
1.2327089e-07
-9.9263569e-13
1.2376886e-07
-1.0503451e-12
1.2389726e-07
-1.0971042e-12
1.2392789e-07
-1.1352725e-12
1.2393453e-07
-1.1638586e-12
1.2393448e-07
-1.1769381e-12
1.2392773e-07
-1.1638528e-12
1.2389695e-07
-1.1118266e-12
1.2376837e-07
-1.0107318e-12
1.2327019e-07
-8.5897766e-13
1.2153194e-07
-6.6730206e-13
1.1623532e-07
-4.5434585e-13
1.025976e-07
-2.3204818e-13
7.4042832e-08
2.7658248e-08
-2.4340255e-13
2.765841e-08
-4.6173405e-13
7.4043309e-08
-6.4452271e-13
1.0259821e-07
-7.9201989e-13
1.1623584e-07
-9.0706795e-13
1.2153229e-07
-9.9344529e-13
1.2327036e-07
-1.0570293e-12
1.2376839e-07
-1.1057462e-12
1.2389686e-07
-1.1477967e-12
1.2392755e-07
-1.1889959e-12
1.2393424e-07
-1.2297782e-12
1.2393424e-07
-1.2630243e-12
1.2392753e-07
-1.2741575e-12
1.238968e-07
-1.2443164e-12
1.2376825e-07
-1.1564606e-12
1.232701e-07
-1.0032334e-12
1.2153187e-07
-7.9280751e-13
1.1623527e-07
-5.4559487e-13
1.0259757e-07
-2.7920489e-13
7.4042822e-08
2.7658251e-08
-2.3700805e-13
2.765825e-08
-4.5879293e-13
7.4042896e-08
-6.4940647e-13
1.0259766e-07
-8.0197291e-13
1.1623527e-07
-9.1684004e-13
1.2153174e-07
-9.9865561e-13
1.2326986e-07
-1.0558976e-12
1.2376795e-07
-1.0999599e-12
1.2389648e-07
-1.1425896e-12
1.2392722e-07
-1.1921946e-12
1.2393396e-07
-1.2500066e-12
1.23934e-07
-1.3074346e-12
1.2392734e-07
-1.3461341e-12
1.2389665e-07
-1.3417092e-12
1.2376814e-07
-1.2708832e-12
1.2327004e-07
-1.1209608e-12
1.2153184e-07
-8.9750002e-13
1.1623526e-07
-6.225011e-13
1.0259758e-07
-3.1912408e-13
7.4042832e-08
2.7658258e-08
-2.0360983e-13
2.7658071e-08
-4.0955344e-13
7.4042478e-08
-5.9704328e-13
1.0259716e-07
-7.5005757e-13
1.1623477e-07
-8.6449775e-13
1.215313e-07
-9.4429351e-13
1.2326948e-07
-9.9917887e-13
1.2376762e-07
-1.0428902e-12
1.2389619e-07
-1.0897757e-12
1.2392697e-07
-1.1501922e-12
1.2393376e-07
-1.225959e-12
1.2393383e-07
-1.3073453e-12
1.2392721e-07
-1.3732014e-12
1.2389656e-07
-1.3950016e-12
1.237681e-07
-1.3447329e-12
1.2327003e-07
-1.205216e-12
1.2153187e-07
-9.7891993e-13
1.162353e-07
-6.8726848e-13
1.0259759e-07
-3.5539744e-13
7.4042814e-08
2.765824e-08
-1.3692481e-13
2.765777e-08
-3.0623147e-13
7.4041877e-08
-4.8254421e-13
1.0259657e-07
-6.3609718e-13
1.162343e-07
-7.5434815e-13
1.2153094e-07
-8.3794925e-13
1.2326921e-07
-8.9631796e-13
1.237674e-07
-9.4442155e-13
1.2389602e-07
-9.9838321e-13
1.2392684e-07
-1.0701021e-12
1.2393365e-07
-1.1621353e-12
1.2393376e-07
-1.264503e-12
1.2392716e-07
-1.3548829e-12
1.2389655e-07
-1.4028398e-12
1.2376813e-07
-1.3778124e-12
1.232701e-07
-1.2592272e-12
1.2153193e-07
-1.0450587e-12
1.162353e-07
-7.5118351e-13
1.0259747e-07
-3.9701578e-13
7.4042578e-08
2.7658088e-08
-3.0414808e-14
2.7657048e-08
-1.4110445e-13
7.4040538e-08
-3.0205803e-13
1.0259543e-07
-4.6177335e-13
1.162336e-07
-5.9269665e-13
1.2153056e-07
-6.8882045e-13
1.23269e-07
-7.5782719e-13
1.2376729e-07
-8.1516847e-13
1.2389594e-07
-8.78243e-13
1.2392679e-07
-9.6031867e-13
1.2393362e-07
-1.0651566e-12
1.2393375e-07
-1.1837909e-12
1.2392719e-07
-1.2948581e-12
1.2389661e-07
-1.3688499e-12
1.2376821e-07
-1.3754829e-12
1.2327016e-07
-1.2921044e-12
1.215319e-07
-1.109655e-12
1.16235e-07
-8.302063e-13
1.0259675e-07
-4.5547513e-13
7.4041563e-08
2.7657494e-08
1.157032e-13
2.7655125e-08
8.4024036e-14
7.4036994e-08
-6.1437428e-14
1.0259249e-07
-2.3743531e-13
1.1623189e-07
-3.9282581e-13
1.2152977e-07
-5.1119927e-13
1.232687e-07
-5.9768148e-13
1.2376718e-07
-6.6813887e-13
1.2389591e-07
-7.4114856e-13
1.2392678e-07
-8.3140723e-13
1.2393362e-07
-9.4444444e-13
1.2393377e-07
-1.0736368e-12
1.2392722e-07
-1.2008018e-12
1.2389667e-07
-1.3003837e-12
1.2376825e-07
-1.3455848e-12
1.2327007e-07
-1.3132366e-12
1.2153139e-07
-1.184004e-12
1.1623363e-07
-9.3553427e-13
1.0259416e-07
-5.37699e-13
7.4038294e-08
2.7655677e-08
2.8054837e-13
2.7651236e-08
3.3879828e-13
7.4029797e-08
2.0709692e-13
1.0258615e-07
5.9207475e-15
1.1622807e-07
-1.8302963e-13
1.21528e-07
-3.3007858e-13
1.2326803e-07
-4.3769385e-13
1.2376697e-07
-5.225828e-13
1.2389585e-07
-6.0464974e-13
1.2392676e-07
-7.0009026e-13
1.2393361e-07
-8.1653823e-13
1.2393377e-07
-9.5058037e-13
1.2392724e-07
-1.088747e-12
1.2389666e-07
-1.2116844e-12
1.2376813e-07
-1.298687e-12
1.2326954e-07
-1.3275414e-12
1.2152982e-07
-1.2660372e-12
1.1623006e-07
-1.0587061e-12
1.0258808e-07
-6.3446061e-13
7.4031307e-08
2.7651861e-08
4.0846465e-13
5.4118241e-13
4.2162202e-13
1.9806234e-13
-2.0501587e-14
-1.9218603e-13
-3.1725604e-13
-4.1336722e-13
-5.0159405e-13
-5.9932231e-13
-7.1593889e-13
-8.5083884e-13
-9.9486412e-13
-1.134462e-12
-1.2548855e-12
-1.3352941e-12
-1.3317486e-12
-1.1585017e-12
-7.1115231e-13
)
;

boundaryField
{
    Wall
    {
        type            calculated;
        value           uniform 0;
    }
    frontAndBack
    {
        type            empty;
        value           nonuniform 0();
    }
    atmosphere
    {
        type            calculated;
        value           nonuniform List<scalar> 
20
(
2.7648738e-08
7.4025228e-08
1.0258196e-07
1.1622551e-07
1.2152679e-07
1.2326762e-07
1.2376686e-07
1.2389584e-07
1.2392675e-07
1.239336e-07
1.2393374e-07
1.2392723e-07
1.2389668e-07
1.2376801e-07
1.2326915e-07
1.2152868e-07
1.1622758e-07
1.02584e-07
7.4026802e-08
2.7649446e-08
)
;
    }
}


// ************************************************************************* //
