/*--------------------------------*- C++ -*----------------------------------*\
| =========                 |                                                 |
| \\      /  F ield         | OpenFOAM: The Open Source CFD Toolbox           |
|  \\    /   O peration     | Version:  3.0.1                                 |
|   \\  /    A nd           | Web:      www.OpenFOAM.org                      |
|    \\/     M anipulation  |                                                 |
\*---------------------------------------------------------------------------*/
FoamFile
{
    version     2.0;
    format      ascii;
    class       volScalarField;
    location    "10";
    object      rho_foam;
}
// * * * * * * * * * * * * * * * * * * * * * * * * * * * * * * * * * * * * * //

dimensions      [1 -3 0 0 0 0 0];

internalField   nonuniform List<scalar> 
800
(
409.17643
409.20074
409.20951
409.21385
409.21708
409.21965
409.2216
409.22301
409.22392
409.22437
409.22437
409.22392
409.22301
409.2216
409.21964
409.21708
409.21385
409.20951
409.20074
409.17643
515.13318
514.56267
514.37657
514.25649
514.16912
514.10427
514.05698
514.02383
514.00275
513.99251
513.99251
514.00276
514.02385
514.05699
514.10428
514.16913
514.2565
514.37658
514.56269
515.1332
653.40287
652.12104
651.93948
651.85363
651.80227
651.7687
651.7465
651.73187
651.72288
651.71858
651.71858
651.7229
651.73189
651.74653
651.76873
651.80231
651.85367
651.93953
652.12109
653.40294
864.0665
861.12059
861.09505
861.12972
861.16954
861.20679
861.23702
861.25941
861.27405
861.28122
861.28122
861.27404
861.25939
861.23699
861.20676
861.16951
861.12968
861.095
861.12055
864.06646
1016.7662
1013.9998
1013.953
1014.0641
1014.1745
1014.2636
1014.3299
1014.3768
1014.4068
1014.4213
1014.4213
1014.4067
1014.3768
1014.3299
1014.2635
1014.1744
1014.064
1013.9529
1013.9997
1016.7661
1078.7109
1073.966
1072.9475
1072.717
1072.687
1072.7035
1072.7249
1072.7418
1072.7528
1072.7583
1072.7583
1072.7528
1072.7418
1072.7249
1072.7036
1072.687
1072.717
1072.9475
1073.966
1078.7109
1094.2581
1091.4455
1090.4322
1090.1245
1090.047
1090.0352
1090.0384
1090.0434
1090.047
1090.0488
1090.0488
1090.047
1090.0434
1090.0384
1090.0352
1090.047
1090.1246
1090.4322
1091.4455
1094.2581
1096.2527
1095.4517
1094.969
1094.7929
1094.7426
1094.7318
1094.7311
1094.7323
1094.7334
1094.7339
1094.7339
1094.7334
1094.7323
1094.7312
1094.7318
1094.7426
1094.7929
1094.9691
1095.4517
1096.2527
1096.4131
1096.2417
1096.0792
1096.0095
1095.9881
1095.9831
1095.9825
1095.9827
1095.983
1095.9832
1095.9832
1095.983
1095.9827
1095.9825
1095.9831
1095.9881
1096.0095
1096.0792
1096.2417
1096.4131
1096.4251
1096.3917
1096.3455
1096.3226
1096.3152
1096.3134
1096.3131
1096.3132
1096.3132
1096.3133
1096.3133
1096.3132
1096.3132
1096.3131
1096.3134
1096.3152
1096.3226
1096.3455
1096.3917
1096.4251
1096.426
1096.4198
1096.408
1096.4014
1096.3991
1096.3985
1096.3985
1096.3985
1096.3985
1096.3985
1096.3985
1096.3985
1096.3985
1096.3985
1096.3985
1096.3991
1096.4014
1096.408
1096.4198
1096.426
1096.4261
1096.425
1096.4222
1096.4205
1096.4199
1096.4197
1096.4197
1096.4197
1096.4197
1096.4197
1096.4197
1096.4197
1096.4197
1096.4197
1096.4197
1096.4199
1096.4205
1096.4222
1096.425
1096.4261
1096.4261
1096.4259
1096.4253
1096.4249
1096.4247
1096.4247
1096.4247
1096.4247
1096.4247
1096.4247
1096.4247
1096.4247
1096.4247
1096.4247
1096.4247
1096.4247
1096.4249
1096.4253
1096.4259
1096.4261
1096.4261
1096.4261
1096.4259
1096.4259
1096.4258
1096.4258
1096.4258
1096.4258
1096.4258
1096.4258
1096.4258
1096.4258
1096.4258
1096.4258
1096.4258
1096.4258
1096.4259
1096.4259
1096.4261
1096.4261
1096.4261
1096.4261
1096.4261
1096.4261
1096.426
1096.426
1096.426
1096.426
1096.426
1096.426
1096.426
1096.426
1096.426
1096.426
1096.426
1096.426
1096.4261
1096.4261
1096.4261
1096.4261
1096.4261
1096.4261
1096.4261
1096.4261
1096.4261
1096.4261
1096.4261
1096.4261
1096.4261
1096.4261
1096.4261
1096.4261
1096.4261
1096.4261
1096.4261
1096.4261
1096.4261
1096.4261
1096.4261
1096.4261
1096.4261
1096.4261
1096.4261
1096.4261
1096.4261
1096.4261
1096.4261
1096.4261
1096.4261
1096.4261
1096.4261
1096.4261
1096.4261
1096.4261
1096.4261
1096.4261
1096.4261
1096.4261
1096.4261
1096.4261
1096.4261
1096.4261
1096.4261
1096.4261
1096.4261
1096.4261
1096.4261
1096.4261
1096.4261
1096.4261
1096.4261
1096.4261
1096.4261
1096.4261
1096.4261
1096.4261
1096.4261
1096.4261
1096.4261
1096.4261
1096.4261
1096.4261
1096.4261
1096.4261
1096.4261
1096.4261
1096.4261
1096.4261
1096.4261
1096.4261
1096.4261
1096.4261
1096.4261
1096.4261
1096.4261
1096.4261
1096.4261
1096.4261
1096.4261
1096.4261
1096.4261
1096.4261
1096.4261
1096.4261
1096.4261
1096.4261
1096.4261
1096.4261
1096.4261
1096.4261
1096.4261
1096.4261
1096.4261
1096.4261
1096.4261
1096.4261
1096.4261
1096.4261
1096.4261
1096.4261
1096.4261
1096.4261
1096.4261
1096.4261
1096.4261
1096.4261
1096.4261
1096.4261
1096.4261
1096.4261
1096.4261
1096.4261
1096.4261
1096.4261
1096.4261
1096.4261
1096.4261
1096.4261
1096.4261
1096.4261
1096.4261
1096.4261
1096.4261
1096.4261
1096.4261
1096.4261
1096.4261
1096.4261
1096.4261
1096.4261
1096.4261
1096.4261
1096.4261
1096.4261
1096.4261
1096.4261
1096.4261
1096.4261
1096.4261
1096.4261
1096.4261
1096.4261
1096.4261
1096.4261
1096.4261
1096.4261
1096.4261
1096.4261
1096.4261
1096.4261
1096.4261
1096.4261
1096.4261
1096.4261
1096.4261
1096.4261
1096.4261
1096.4261
1096.4261
1096.4261
1096.4261
1096.4261
1096.4261
1096.4261
1096.4261
1096.4261
1096.4261
1096.4261
1096.4261
1096.4261
1096.4261
1096.4261
1096.4261
1096.4261
1096.4261
1096.4261
1096.4261
1096.4261
1096.4261
1096.4261
1096.4261
1096.4261
1096.4261
1096.4261
1096.4261
1096.4261
1096.4261
1096.4261
1096.4261
1096.4261
1096.4261
1096.4261
1096.4261
1096.4261
1096.4261
1096.4261
1096.4261
1096.4261
1096.4261
1096.4261
1096.4261
1096.4261
1096.4261
1096.4261
1096.4261
1096.4261
1096.4261
1096.4261
1096.4261
1096.4261
1096.4261
1096.4261
1096.4261
1096.4261
1096.4261
1096.4261
1096.4261
1096.4261
1096.4261
1096.4261
1096.4261
1096.4261
1096.4261
1096.4261
1096.4261
1096.4261
1096.4261
1096.4261
1096.4261
1096.4261
1096.4261
1096.4261
1096.4261
1096.4261
1096.4261
1096.4261
1096.4261
1096.4261
1096.4261
1096.4261
1096.4261
1096.4261
1096.4261
1096.4261
1096.4261
1096.4261
1096.4261
1096.4261
1096.4261
1096.4261
1096.4261
1096.4261
1096.4261
1096.4261
1096.4261
1096.4261
1096.4261
1096.4261
1096.4261
1096.4261
1096.4261
1096.4261
1096.4261
1096.4261
1096.4261
1096.4261
1096.4261
1096.4261
1096.4261
1096.4261
1096.4261
1096.4261
1096.4261
1096.4261
1096.4261
1096.4261
1096.4261
1096.4261
1096.4261
1096.4261
1096.4261
1096.4261
1096.4261
1096.4261
1096.4261
1096.4261
1096.4261
1096.4261
1096.4261
1096.4261
1096.4261
1096.4261
1096.4261
1096.4261
1096.4261
1096.4261
1096.4261
1096.4261
1096.4261
1096.4261
1096.4261
1096.4261
1096.4261
1096.4261
1096.4261
1096.4261
1096.4261
1096.4261
1096.4261
1096.4261
1096.4261
1096.4261
1096.4261
1096.4261
1096.4261
1096.4261
1096.4261
1096.4261
1096.4261
1096.4261
1096.4261
1096.4261
1096.4261
1096.4261
1096.4261
1096.4261
1096.4261
1096.4261
1096.4261
1096.4261
1096.4261
1096.4261
1096.4261
1096.4261
1096.4261
1096.4261
1096.4261
1096.4261
1096.4261
1096.4261
1096.4261
1096.4261
1096.4261
1096.4261
1096.4261
1096.4261
1096.4261
1096.4261
1096.4261
1096.4261
1096.4261
1096.4261
1096.4261
1096.4261
1096.4261
1096.4261
1096.4261
1096.4261
1096.4261
1096.4261
1096.4261
1096.4261
1096.4261
1096.4261
1096.4261
1096.4261
1096.4261
1096.4261
1096.4261
1096.4261
1096.4261
1096.4261
1096.4261
1096.4261
1096.4261
1096.4261
1096.4261
1096.4261
1096.4261
1096.4261
1096.4261
1096.4261
1096.4261
1096.4261
1096.4261
1096.4261
1096.4261
1096.4261
1096.4261
1096.4261
1096.4261
1096.4261
1096.4261
1096.4261
1096.4261
1096.4261
1096.4261
1096.4261
1096.4261
1096.4261
1096.4261
1096.4261
1096.4261
1096.4261
1096.4261
1096.4261
1096.4261
1096.4261
1096.4261
1096.4261
1096.4261
1096.4261
1096.4261
1096.4261
1096.4261
1096.4261
1096.4261
1096.4261
1096.4261
1096.4261
1096.4261
1096.4261
1096.4261
1096.4261
1096.4261
1096.4261
1096.4261
1096.4261
1096.4261
1096.4261
1096.4261
1096.4261
1096.4261
1096.4261
1096.4261
1096.4261
1096.4261
1096.4261
1096.4261
1096.4261
1096.4261
1096.4261
1096.4261
1096.4261
1096.4261
1096.4261
1096.4261
1096.4261
1096.4261
1096.4261
1096.4261
1096.4261
1096.4261
1096.4261
1096.4261
1096.4261
1096.4261
1096.4261
1096.4261
1096.4261
1096.4261
1096.4261
1096.4261
1096.4261
1096.4261
1096.4261
1096.4261
1096.4261
1096.4261
1096.4261
1096.4261
1096.4261
1096.4261
1096.4261
1096.4261
1096.4261
1096.4261
1096.4261
1096.4261
1096.4261
1096.4261
1096.4261
1096.4261
1096.4261
1096.4261
1096.4261
1096.4261
1096.4261
1096.4261
1096.4261
1096.4261
1096.4261
1096.4261
1096.4261
1096.4261
1096.4261
1096.4261
1096.4261
1096.4261
1096.4261
)
;

boundaryField
{
    Wall
    {
        type            zeroGradient;
    }
    frontAndBack
    {
        type            empty;
    }
    atmosphere
    {
        type            zeroGradient;
    }
}


// ************************************************************************* //
