/*--------------------------------*- C++ -*----------------------------------*\
| =========                 |                                                 |
| \\      /  F ield         | OpenFOAM: The Open Source CFD Toolbox           |
|  \\    /   O peration     | Version:  3.0.1                                 |
|   \\  /    A nd           | Web:      www.OpenFOAM.org                      |
|    \\/     M anipulation  |                                                 |
\*---------------------------------------------------------------------------*/
FoamFile
{
    version     2.0;
    format      ascii;
    class       volScalarField;
    location    "10";
    object      thermalDiff_foam;
}
// * * * * * * * * * * * * * * * * * * * * * * * * * * * * * * * * * * * * * //

dimensions      [0 2 -1 0 0 0 0];

internalField   nonuniform List<scalar> 
800
(
8.2598746e-08
8.2598999e-08
8.259909e-08
8.2599135e-08
8.2599169e-08
8.2599195e-08
8.2599216e-08
8.259923e-08
8.2599239e-08
8.2599244e-08
8.2599244e-08
8.2599239e-08
8.259923e-08
8.2599216e-08
8.2599195e-08
8.2599169e-08
8.2599135e-08
8.259909e-08
8.2598999e-08
8.2598746e-08
8.4541088e-08
8.4527271e-08
8.4522771e-08
8.4519865e-08
8.4517754e-08
8.4516189e-08
8.4515048e-08
8.451425e-08
8.4513742e-08
8.4513495e-08
8.4513495e-08
8.4513742e-08
8.451425e-08
8.4515048e-08
8.4516189e-08
8.4517754e-08
8.4519865e-08
8.4522771e-08
8.4527272e-08
8.4541089e-08
8.866234e-08
8.8619165e-08
8.861316e-08
8.8610326e-08
8.8608639e-08
8.8607541e-08
8.8606818e-08
8.8606342e-08
8.860605e-08
8.860591e-08
8.860591e-08
8.860605e-08
8.8606343e-08
8.8606819e-08
8.8607543e-08
8.8608641e-08
8.8610328e-08
8.8613162e-08
8.8619167e-08
8.8662342e-08
9.651787e-08
9.6402667e-08
9.6401939e-08
9.640346e-08
9.6405136e-08
9.6406679e-08
9.6407922e-08
9.6408839e-08
9.6409438e-08
9.6409731e-08
9.6409731e-08
9.6409438e-08
9.6408839e-08
9.640792e-08
9.6406677e-08
9.6405134e-08
9.6403458e-08
9.6401938e-08
9.6402665e-08
9.6517869e-08
0.00023181363
0.00023181774
0.00023182526
0.0002318329
0.00023183944
0.00023184466
0.00023184863
0.0002318515
0.00023185336
0.00023185428
0.00023185428
0.00023185336
0.0002318515
0.00023184863
0.00023184466
0.00023183944
0.0002318329
0.00023182526
0.00023181774
0.00023181363
0.00023122938
0.00023123527
0.00023124323
0.00023125107
0.00023125784
0.00023126328
0.00023126743
0.00023127042
0.00023127236
0.00023127331
0.00023127331
0.00023127236
0.00023127042
0.00023126743
0.00023126328
0.00023125784
0.00023125107
0.00023124322
0.00023123527
0.00023122938
0.00023072579
0.00023073358
0.00023074303
0.00023075183
0.00023075921
0.00023076504
0.00023076946
0.00023077262
0.00023077466
0.00023077566
0.00023077566
0.00023077466
0.00023077262
0.00023076946
0.00023076504
0.00023075921
0.00023075183
0.00023074303
0.00023073358
0.00023072579
0.00023028979
0.00023029863
0.0002303094
0.00023031923
0.0002303273
0.00023033359
0.0002303383
0.00023034164
0.00023034378
0.00023034483
0.00023034483
0.00023034378
0.00023034164
0.00023033829
0.00023033359
0.0002303273
0.00023031923
0.0002303094
0.00023029863
0.00023028979
0.00022990908
0.00022991811
0.00022992944
0.00022993988
0.00022994843
0.00022995505
0.00022995999
0.00022996348
0.00022996571
0.00022996679
0.00022996679
0.00022996571
0.00022996348
0.00022995999
0.00022995505
0.00022994843
0.00022993988
0.00022992944
0.00022991811
0.00022990908
0.00022957346
0.00022958224
0.00022959354
0.00022960411
0.00022961283
0.00022961961
0.00022962466
0.00022962823
0.0002296305
0.00022963161
0.00022963161
0.0002296305
0.00022962823
0.00022962466
0.00022961961
0.00022961283
0.00022960411
0.00022959354
0.00022958224
0.00022957346
0.00022927608
0.00022928438
0.00022929525
0.00022930557
0.00022931417
0.0002293209
0.00022932593
0.00022932949
0.00022933177
0.00022933288
0.00022933288
0.00022933177
0.00022932949
0.00022932593
0.0002293209
0.00022931417
0.00022930556
0.00022929525
0.00022928438
0.00022927608
0.00022901241
0.0002290201
0.0002290303
0.00022904009
0.00022904834
0.00022905485
0.00022905974
0.00022906321
0.00022906544
0.00022906652
0.00022906652
0.00022906543
0.00022906321
0.00022905974
0.00022905485
0.00022904834
0.00022904009
0.0002290303
0.0002290201
0.00022901241
0.00022877924
0.00022878624
0.00022879563
0.00022880472
0.00022881245
0.00022881859
0.00022882324
0.00022882656
0.00022882868
0.00022882972
0.00022882972
0.00022882868
0.00022882656
0.00022882324
0.00022881859
0.00022881245
0.00022880472
0.00022879563
0.00022878624
0.00022877924
0.00022857391
0.00022858021
0.00022858871
0.000228597
0.00022860412
0.0002286098
0.00022861413
0.00022861724
0.00022861923
0.00022862021
0.00022862021
0.00022861923
0.00022861723
0.00022861413
0.0002286098
0.00022860411
0.000228597
0.0002285887
0.00022858021
0.0002285739
0.000228394
0.00022839961
0.00022840721
0.00022841468
0.00022842112
0.0002284263
0.00022843027
0.00022843312
0.00022843496
0.00022843587
0.00022843587
0.00022843496
0.00022843312
0.00022843027
0.0002284263
0.00022842112
0.00022841468
0.00022840721
0.00022839961
0.000228394
0.00022823719
0.00022824214
0.00022824887
0.00022825551
0.00022826127
0.00022826593
0.00022826951
0.0002282721
0.00022827377
0.00022827459
0.00022827459
0.00022827377
0.0002282721
0.00022826951
0.00022826593
0.00022826127
0.00022825551
0.00022824886
0.00022824214
0.00022823719
0.00022810119
0.00022810552
0.00022811142
0.00022811728
0.00022812238
0.00022812652
0.00022812971
0.00022813203
0.00022813353
0.00022813427
0.00022813427
0.00022813353
0.00022813203
0.00022812971
0.00022812652
0.00022812237
0.00022811728
0.00022811142
0.00022810552
0.00022810119
0.00022798378
0.00022798754
0.00022799268
0.0002279978
0.00022800227
0.00022800592
0.00022800875
0.0002280108
0.00022801213
0.00022801279
0.00022801279
0.00022801213
0.0002280108
0.00022800874
0.00022800592
0.00022800227
0.0002279978
0.00022799268
0.00022798754
0.00022798378
0.00022788282
0.00022788607
0.00022789053
0.00022789497
0.00022789887
0.00022790205
0.00022790453
0.00022790633
0.00022790751
0.00022790808
0.00022790808
0.00022790751
0.00022790633
0.00022790453
0.00022790205
0.00022789887
0.00022789497
0.00022789053
0.00022788607
0.00022788282
0.00022779632
0.00022779912
0.00022780296
0.0002278068
0.00022781017
0.00022781294
0.00022781509
0.00022781666
0.00022781769
0.00022781819
0.00022781819
0.00022781769
0.00022781666
0.00022781509
0.00022781294
0.00022781017
0.0002278068
0.00022780296
0.00022779912
0.00022779632
0.00022772245
0.00022772485
0.00022772814
0.00022773144
0.00022773435
0.00022773673
0.0002277386
0.00022773996
0.00022774085
0.00022774129
0.00022774129
0.00022774085
0.00022773996
0.0002277386
0.00022773673
0.00022773435
0.00022773144
0.00022772814
0.00022772485
0.00022772245
0.00022765952
0.00022766157
0.00022766439
0.00022766721
0.00022766971
0.00022767176
0.00022767336
0.00022767453
0.0002276753
0.00022767568
0.00022767568
0.0002276753
0.00022767453
0.00022767336
0.00022767176
0.0002276697
0.00022766721
0.00022766439
0.00022766157
0.00022765952
0.00022760604
0.00022760779
0.00022761019
0.0002276126
0.00022761473
0.00022761649
0.00022761786
0.00022761887
0.00022761953
0.00022761985
0.00022761985
0.00022761953
0.00022761887
0.00022761786
0.00022761649
0.00022761473
0.0002276126
0.00022761019
0.00022760779
0.00022760604
0.00022756069
0.00022756217
0.00022756422
0.00022756627
0.00022756808
0.00022756958
0.00022757075
0.00022757161
0.00022757218
0.00022757245
0.00022757245
0.00022757218
0.00022757161
0.00022757075
0.00022756958
0.00022756808
0.00022756627
0.00022756422
0.00022756217
0.00022756069
0.00022752229
0.00022752355
0.00022752528
0.00022752703
0.00022752857
0.00022752984
0.00022753084
0.00022753157
0.00022753205
0.00022753229
0.00022753229
0.00022753205
0.00022753157
0.00022753084
0.00022752984
0.00022752857
0.00022752703
0.00022752528
0.00022752355
0.00022752229
0.00022748984
0.00022749091
0.00022749237
0.00022749385
0.00022749516
0.00022749624
0.00022749708
0.00022749771
0.00022749812
0.00022749832
0.00022749832
0.00022749812
0.00022749771
0.00022749708
0.00022749624
0.00022749516
0.00022749385
0.00022749237
0.00022749091
0.00022748984
0.00022746246
0.00022746336
0.0002274646
0.00022746585
0.00022746696
0.00022746787
0.00022746859
0.00022746912
0.00022746946
0.00022746963
0.00022746963
0.00022746946
0.00022746912
0.00022746859
0.00022746787
0.00022746695
0.00022746585
0.0002274646
0.00022746336
0.00022746246
0.00022743941
0.00022744016
0.00022744121
0.00022744226
0.0002274432
0.00022744397
0.00022744457
0.00022744502
0.00022744531
0.00022744546
0.00022744546
0.00022744531
0.00022744502
0.00022744457
0.00022744397
0.00022744319
0.00022744226
0.00022744121
0.00022744016
0.00022743941
0.00022742003
0.00022742067
0.00022742155
0.00022742243
0.00022742322
0.00022742387
0.00022742438
0.00022742476
0.000227425
0.00022742513
0.00022742513
0.000227425
0.00022742476
0.00022742438
0.00022742387
0.00022742322
0.00022742243
0.00022742155
0.00022742067
0.00022742003
0.00022740378
0.00022740432
0.00022740506
0.0002274058
0.00022740646
0.00022740701
0.00022740744
0.00022740776
0.00022740796
0.00022740807
0.00022740807
0.00022740796
0.00022740776
0.00022740744
0.00022740701
0.00022740646
0.0002274058
0.00022740506
0.00022740432
0.00022740378
0.00022739021
0.00022739066
0.00022739127
0.0002273919
0.00022739245
0.00022739291
0.00022739327
0.00022739354
0.00022739371
0.0002273938
0.0002273938
0.00022739371
0.00022739354
0.00022739327
0.00022739291
0.00022739245
0.0002273919
0.00022739127
0.00022739066
0.00022739021
0.00022737891
0.00022737929
0.0002273798
0.00022738032
0.00022738078
0.00022738117
0.00022738147
0.00022738169
0.00022738184
0.00022738191
0.00022738191
0.00022738184
0.00022738169
0.00022738147
0.00022738117
0.00022738078
0.00022738032
0.0002273798
0.00022737929
0.00022737891
0.00022736957
0.00022736988
0.00022737031
0.00022737074
0.00022737112
0.00022737144
0.00022737169
0.00022737188
0.000227372
0.00022737206
0.00022737206
0.000227372
0.00022737188
0.00022737169
0.00022737144
0.00022737112
0.00022737074
0.00022737031
0.00022736988
0.00022736957
0.0002273619
0.00022736216
0.00022736251
0.00022736287
0.00022736319
0.00022736345
0.00022736366
0.00022736382
0.00022736392
0.00022736397
0.00022736397
0.00022736392
0.00022736382
0.00022736366
0.00022736345
0.00022736319
0.00022736287
0.00022736251
0.00022736216
0.0002273619
0.00022735569
0.0002273559
0.00022735619
0.00022735648
0.00022735675
0.00022735697
0.00022735714
0.00022735727
0.00022735735
0.00022735739
0.00022735739
0.00022735735
0.00022735727
0.00022735714
0.00022735697
0.00022735675
0.00022735648
0.00022735619
0.0002273559
0.00022735569
0.00022735076
0.00022735093
0.00022735116
0.0002273514
0.00022735161
0.0002273518
0.00022735194
0.00022735205
0.00022735212
0.00022735215
0.00022735215
0.00022735212
0.00022735205
0.00022735194
0.0002273518
0.00022735161
0.0002273514
0.00022735116
0.00022735093
0.00022735076
0.00022734695
0.00022734709
0.00022734728
0.00022734747
0.00022734765
0.0002273478
0.00022734792
0.00022734801
0.00022734807
0.0002273481
0.0002273481
0.00022734807
0.00022734801
0.00022734792
0.0002273478
0.00022734765
0.00022734747
0.00022734728
0.00022734709
0.00022734695
0.00022734418
0.00022734428
0.00022734443
0.00022734459
0.00022734474
0.00022734486
0.00022734496
0.00022734504
0.00022734509
0.00022734512
0.00022734512
0.00022734509
0.00022734504
0.00022734496
0.00022734486
0.00022734474
0.00022734459
0.00022734443
0.00022734428
0.00022734418
0.00022734236
0.00022734244
0.00022734256
0.00022734269
0.00022734281
0.00022734292
0.00022734301
0.00022734308
0.00022734312
0.00022734315
0.00022734315
0.00022734312
0.00022734308
0.00022734301
0.00022734292
0.00022734281
0.00022734269
0.00022734256
0.00022734244
0.00022734236
0.00022734145
0.00022734152
0.00022734162
0.00022734174
0.00022734185
0.00022734195
0.00022734203
0.00022734209
0.00022734213
0.00022734216
0.00022734216
0.00022734213
0.00022734209
0.00022734203
0.00022734195
0.00022734185
0.00022734174
0.00022734162
0.00022734152
0.00022734145
)
;

boundaryField
{
    Wall
    {
        type            calculated;
        value           uniform 4e-05;
    }
    frontAndBack
    {
        type            empty;
    }
    atmosphere
    {
        type            calculated;
        value           uniform 4e-05;
    }
}


// ************************************************************************* //
