/*--------------------------------*- C++ -*----------------------------------*\
| =========                 |                                                 |
| \\      /  F ield         | OpenFOAM: The Open Source CFD Toolbox           |
|  \\    /   O peration     | Version:  3.0.1                                 |
|   \\  /    A nd           | Web:      www.OpenFOAM.org                      |
|    \\/     M anipulation  |                                                 |
\*---------------------------------------------------------------------------*/
FoamFile
{
    version     2.0;
    format      ascii;
    class       volScalarField;
    location    "10";
    object      TS;
}
// * * * * * * * * * * * * * * * * * * * * * * * * * * * * * * * * * * * * * //

dimensions      [0 0 0 1 0 0 0];

internalField   nonuniform List<scalar> 
800
(
312.29873
312.29888
312.29883
312.29881
312.2988
312.29878
312.29877
312.29876
312.29876
312.29875
312.29875
312.29876
312.29876
312.29877
312.29878
312.2988
312.29881
312.29883
312.29888
312.29873
305.74175
305.80573
305.81463
305.81823
305.82084
305.82283
305.82435
305.82544
305.82615
305.82649
305.82649
305.82615
305.82544
305.82435
305.82284
305.82084
305.81823
305.81463
305.80573
305.74175
302.39303
302.42996
302.44126
302.44617
302.44942
302.4519
302.45382
302.45524
302.45618
302.45664
302.45664
302.45617
302.45524
302.45382
302.4519
302.44942
302.44617
302.44125
302.42996
302.39303
301.6462
301.6525
301.65932
301.66479
301.66903
301.67229
301.67476
301.67654
301.6777
301.67828
301.67828
301.6777
301.67654
301.67476
301.67229
301.66903
301.66478
301.65932
301.6525
301.64619
301.01159
301.014
301.01873
301.02369
301.02802
301.03152
301.0342
301.03614
301.0374
301.03801
301.03801
301.03739
301.03614
301.0342
301.03152
301.02802
301.02369
301.01873
301.014
301.01158
300.61994
300.62371
300.62886
300.63402
300.63853
300.64218
300.64498
300.647
300.6483
300.64895
300.64895
300.6483
300.647
300.64498
300.64218
300.63853
300.63402
300.62886
300.62371
300.61994
300.28119
300.28632
300.29257
300.29842
300.30336
300.30728
300.31026
300.31239
300.31376
300.31443
300.31443
300.31376
300.31239
300.31025
300.30728
300.30336
300.29842
300.29257
300.28632
300.28118
299.98783
299.99372
300.00091
300.00749
300.0129
300.01713
300.02029
300.02254
300.02399
300.02469
300.02469
300.02399
300.02254
300.02029
300.01712
300.0129
300.00748
300.00091
299.99372
299.98783
299.73217
299.73821
299.74579
299.75278
299.75852
299.76297
299.76629
299.76864
299.77014
299.77087
299.77087
299.77014
299.76864
299.76629
299.76297
299.75852
299.75278
299.74579
299.73821
299.73217
299.50733
299.5132
299.52076
299.52784
299.53369
299.53825
299.54164
299.54404
299.54557
299.54631
299.54631
299.54557
299.54404
299.54164
299.53825
299.53369
299.52784
299.52076
299.5132
299.50732
299.30846
299.31401
299.32129
299.3282
299.33397
299.33849
299.34187
299.34426
299.34579
299.34654
299.34654
299.34579
299.34426
299.34187
299.33849
299.33397
299.3282
299.32128
299.31401
299.30846
299.13231
299.13745
299.14428
299.15084
299.15637
299.16074
299.16403
299.16637
299.16786
299.16859
299.16859
299.16786
299.16636
299.16403
299.16074
299.15637
299.15084
299.14428
299.13745
299.13231
298.97656
298.98124
298.98752
298.99362
298.99881
299.00294
299.00606
299.00829
299.00972
299.01042
299.01042
299.00972
299.00829
299.00606
299.00294
298.99881
298.99362
298.98752
298.98124
298.97656
298.83935
298.84356
298.84925
298.85482
298.8596
298.86343
298.86634
298.86843
298.86977
298.87043
298.87043
298.86977
298.86843
298.86634
298.86343
298.8596
298.85482
298.84925
298.84356
298.83935
298.71904
298.72279
298.72789
298.7329
298.73723
298.74072
298.7434
298.74532
298.74656
298.74717
298.74717
298.74656
298.74532
298.7434
298.74072
298.73723
298.7329
298.72788
298.72279
298.71903
298.61407
298.61739
298.6219
298.62637
298.63025
298.63339
298.6358
298.63755
298.63868
298.63923
298.63923
298.63868
298.63755
298.6358
298.63339
298.63025
298.62637
298.6219
298.61738
298.61407
298.52295
298.52585
298.52982
298.53376
298.53719
298.53999
298.54215
298.54371
298.54473
298.54523
298.54523
298.54473
298.54371
298.54215
298.53999
298.53719
298.53376
298.52982
298.52585
298.52295
298.4442
298.44672
298.45019
298.45363
298.45665
298.45911
298.46102
298.46241
298.46331
298.46376
298.46376
298.46331
298.46241
298.46102
298.45911
298.45665
298.45363
298.45019
298.44672
298.4442
298.37643
298.37861
298.38161
298.38461
298.38724
298.38939
298.39107
298.39229
298.39308
298.39348
298.39348
298.39308
298.39229
298.39107
298.38939
298.38724
298.38461
298.38161
298.37861
298.37643
298.31832
298.3202
298.32279
298.32538
298.32766
298.32953
298.33098
298.33205
298.33274
298.33309
298.33309
298.33274
298.33205
298.33098
298.32953
298.32765
298.32538
298.32279
298.3202
298.31831
298.26865
298.27026
298.27248
298.27471
298.27668
298.27829
298.27955
298.28048
298.28108
298.28138
298.28138
298.28108
298.28048
298.27955
298.27829
298.27668
298.27471
298.27248
298.27026
298.26865
298.22631
298.22769
298.22959
298.2315
298.23319
298.23458
298.23566
298.23646
298.23698
298.23724
298.23724
298.23698
298.23646
298.23566
298.23458
298.23319
298.2315
298.22959
298.22769
298.22631
298.19031
298.19149
298.19311
298.19474
298.19618
298.19737
298.1983
298.19899
298.19943
298.19965
298.19965
298.19943
298.19899
298.1983
298.19737
298.19618
298.19474
298.19311
298.19149
298.19031
298.15977
298.16076
298.16215
298.16353
298.16476
298.16578
298.16657
298.16716
298.16754
298.16773
298.16773
298.16754
298.16716
298.16657
298.16578
298.16476
298.16353
298.16215
298.16076
298.15976
298.1339
298.13474
298.13592
298.1371
298.13814
298.139
298.13968
298.14018
298.14051
298.14067
298.14067
298.14051
298.14018
298.13968
298.139
298.13814
298.13709
298.13592
298.13474
298.1339
298.11203
298.11274
298.11374
298.11474
298.11562
298.11635
298.11693
298.11735
298.11763
298.11777
298.11777
298.11763
298.11735
298.11693
298.11635
298.11562
298.11474
298.11374
298.11274
298.11203
298.09357
298.09417
298.09501
298.09586
298.09661
298.09723
298.09772
298.09808
298.09831
298.09843
298.09843
298.09831
298.09808
298.09772
298.09723
298.09661
298.09586
298.09501
298.09417
298.09357
298.07802
298.07853
298.07924
298.07995
298.08059
298.08111
298.08152
298.08183
298.08202
298.08212
298.08212
298.08202
298.08183
298.08152
298.08111
298.08058
298.07995
298.07924
298.07853
298.07802
298.06495
298.06538
298.06598
298.06658
298.06711
298.06755
298.0679
298.06816
298.06832
298.06841
298.06841
298.06832
298.06816
298.0679
298.06755
298.06711
298.06658
298.06598
298.06538
298.06495
298.05399
298.05435
298.05485
298.05536
298.0558
298.05618
298.05647
298.05668
298.05683
298.0569
298.0569
298.05683
298.05668
298.05647
298.05618
298.0558
298.05536
298.05485
298.05435
298.05399
298.04483
298.04513
298.04555
298.04597
298.04635
298.04666
298.04691
298.04709
298.04721
298.04727
298.04727
298.04721
298.04709
298.04691
298.04666
298.04635
298.04597
298.04555
298.04513
298.04483
298.03721
298.03746
298.03781
298.03816
298.03848
298.03874
298.03894
298.03909
298.03919
298.03924
298.03924
298.03919
298.03909
298.03894
298.03874
298.03848
298.03816
298.03781
298.03746
298.03721
298.0309
298.03111
298.0314
298.03169
298.03195
298.03217
298.03234
298.03247
298.03255
298.03259
298.03259
298.03255
298.03247
298.03234
298.03217
298.03195
298.03169
298.0314
298.03111
298.0309
298.02573
298.0259
298.02614
298.02638
298.02659
298.02678
298.02692
298.02702
298.02709
298.02713
298.02713
298.02709
298.02702
298.02692
298.02678
298.02659
298.02638
298.02614
298.0259
298.02573
298.02153
298.02167
298.02187
298.02207
298.02225
298.02239
298.02251
298.0226
298.02266
298.02269
298.02269
298.02266
298.0226
298.02251
298.02239
298.02225
298.02207
298.02187
298.02167
298.02153
298.0182
298.01831
298.01847
298.01863
298.01878
298.0189
298.019
298.01907
298.01912
298.01914
298.01914
298.01912
298.01907
298.019
298.0189
298.01878
298.01863
298.01847
298.01831
298.0182
298.01563
298.01572
298.01585
298.01598
298.0161
298.0162
298.01628
298.01634
298.01638
298.0164
298.0164
298.01638
298.01634
298.01628
298.0162
298.0161
298.01598
298.01585
298.01572
298.01563
298.01375
298.01382
298.01392
298.01403
298.01413
298.01422
298.01428
298.01434
298.01437
298.01439
298.01439
298.01437
298.01434
298.01428
298.01422
298.01413
298.01403
298.01392
298.01382
298.01375
298.01252
298.01258
298.01266
298.01275
298.01283
298.0129
298.01297
298.01301
298.01304
298.01306
298.01306
298.01304
298.01301
298.01297
298.0129
298.01283
298.01275
298.01266
298.01258
298.01252
298.01191
298.01195
298.01202
298.0121
298.01218
298.01225
298.0123
298.01234
298.01237
298.01239
298.01239
298.01237
298.01234
298.0123
298.01225
298.01218
298.0121
298.01202
298.01195
298.01191
)
;

boundaryField
{
    Wall
    {
        type            zeroGradient;
    }
    frontAndBack
    {
        type            empty;
    }
    atmosphere
    {
        type            zeroGradient;
    }
}


// ************************************************************************* //
