/*--------------------------------*- C++ -*----------------------------------*\
| =========                 |                                                 |
| \\      /  F ield         | OpenFOAM: The Open Source CFD Toolbox           |
|  \\    /   O peration     | Version:  3.0.1                                 |
|   \\  /    A nd           | Web:      www.OpenFOAM.org                      |
|    \\/     M anipulation  |                                                 |
\*---------------------------------------------------------------------------*/
FoamFile
{
    version     2.0;
    format      ascii;
    class       volVectorField;
    location    "10";
    object      U;
}
// * * * * * * * * * * * * * * * * * * * * * * * * * * * * * * * * * * * * * //

dimensions      [0 1 -1 0 0 0 0];

internalField   nonuniform List<vector> 
800
(
(-4.2110935e-07 0.00064332299 0)
(-2.8516221e-07 0.00064982263 0)
(4.8263572e-08 0.00065298875 0)
(2.0620525e-07 0.00065505248 0)
(2.4064651e-07 0.00065662818 0)
(2.1576356e-07 0.00065785014 0)
(1.6990087e-07 0.00065877327 0)
(1.1982178e-07 0.00065943602 0)
(7.0793758e-08 0.00065986441 0)
(2.3441318e-08 0.00066007479 0)
(-2.3241255e-08 0.00066007481 0)
(-7.0598034e-08 0.00065986448 0)
(-1.1963473e-07 0.00065943614 0)
(-1.6972318e-07 0.00065877345 0)
(-2.1559483e-07 0.00065785039 0)
(-2.4048395e-07 0.00065662854 0)
(-2.0604082e-07 0.00065505293 0)
(-4.8101375e-08 0.00065298934 0)
(2.8530795e-07 0.00064982331 0)
(4.2119173e-07 0.00064332342 0)
(4.445436e-07 0.00087575219 0)
(1.3986097e-06 0.00088190543 0)
(1.9240766e-06 0.00088370415 0)
(1.753748e-06 0.00088467842 0)
(1.4957516e-06 0.00088540267 0)
(1.2048873e-06 0.00088596313 0)
(9.1448898e-07 0.00088638327 0)
(6.383738e-07 0.00088668294 0)
(3.7662526e-07 0.00088687572 0)
(1.2454427e-07 0.00088697011 0)
(-1.2429276e-07 0.00088697009 0)
(-3.7637548e-07 0.00088687569 0)
(-6.3812702e-07 0.00088668289 0)
(-9.1424145e-07 0.0008863832 0)
(-1.204636e-06 0.00088596306 0)
(-1.4955037e-06 0.00088540261 0)
(-1.7534942e-06 0.00088467835 0)
(-1.9238308e-06 0.0008837041 0)
(-1.3983965e-06 0.00088190538 0)
(-4.4439406e-07 0.00087575196 0)
(1.1727863e-06 0.0014400099 0)
(1.9534693e-06 0.0014464498 0)
(1.8947784e-06 0.0014473055 0)
(1.7032353e-06 0.0014475111 0)
(1.4267494e-06 0.0014475911 0)
(1.1291361e-06 0.0014476088 0)
(8.4170193e-07 0.0014475971 0)
(5.7976516e-07 0.0014475771 0)
(3.3910216e-07 0.0014475596 0)
(1.1166845e-07 0.0014475496 0)
(-1.1142358e-07 0.0014475496 0)
(-3.3885931e-07 0.0014475595 0)
(-5.7953029e-07 0.0014475771 0)
(-8.414704e-07 0.001447597 0)
(-1.1289005e-06 0.0014476087 0)
(-1.4265343e-06 0.001447591 0)
(-1.7030091e-06 0.001447511 0)
(-1.894535e-06 0.0014473053 0)
(-1.9532385e-06 0.0014464497 0)
(-1.1726292e-06 0.0014400098 0)
(1.2468162e-06 0.0017753327 0)
(2.7511159e-06 0.0017840662 0)
(3.1745992e-06 0.0017837389 0)
(2.7481564e-06 0.0017829895 0)
(2.1809644e-06 0.0017822992 0)
(1.6496764e-06 0.0017817159 0)
(1.1937099e-06 0.0017812606 0)
(8.0762586e-07 0.0017809286 0)
(4.6752297e-07 0.0017807124 0)
(1.5321127e-07 0.0017806059 0)
(-1.5281443e-07 0.001780606 0)
(-4.6712947e-07 0.0017807125 0)
(-8.072519e-07 0.0017809287 0)
(-1.19335e-06 0.0017812609 0)
(-1.6493126e-06 0.0017817161 0)
(-2.1806158e-06 0.0017822995 0)
(-2.7477645e-06 0.0017829898 0)
(-3.1741577e-06 0.0017837393 0)
(-2.7507779e-06 0.0017840666 0)
(-1.246677e-06 0.001775333 0)
(1.1880501e-06 0.0019087827 0)
(2.4433384e-06 0.0019449015 0)
(2.5269171e-06 0.0019434462 0)
(2.1011085e-06 0.0019399112 0)
(1.6340212e-06 0.0019365723 0)
(1.228672e-06 0.0019339181 0)
(8.8676271e-07 0.001931943 0)
(5.9935416e-07 0.0019305471 0)
(3.4702813e-07 0.0019296557 0)
(1.1414561e-07 0.0019292216 0)
(-1.1255677e-07 0.0019292218 0)
(-3.4549346e-07 0.0019296564 0)
(-5.9792629e-07 0.0019305482 0)
(-8.8545862e-07 0.0019319444 0)
(-1.2274843e-06 0.0019339199 0)
(-1.6329698e-06 0.0019365742 0)
(-2.1001325e-06 0.0019399132 0)
(-2.5260338e-06 0.0019434483 0)
(-2.4427346e-06 0.0019449036 0)
(-1.1878343e-06 0.0019087857 0)
(1.115996e-06 0.0013000696 0)
(2.5058437e-06 0.0017479896 0)
(2.8446424e-06 0.001854602 0)
(2.6159041e-06 0.0018846618 0)
(2.1931297e-06 0.0018918336 0)
(1.7393308e-06 0.0018924378 0)
(1.3041045e-06 0.0018915804 0)
(9.0367729e-07 0.0018906706 0)
(5.3247342e-07 0.001890031 0)
(1.7949833e-07 0.0018897116 0)
(-1.6755204e-07 0.0018897114 0)
(-5.2095755e-07 0.0018900304 0)
(-8.9295817e-07 0.0018906694 0)
(-1.2944317e-06 0.0018915788 0)
(-1.7308512e-06 0.0018924358 0)
(-2.1859568e-06 0.0018918311 0)
(-2.6100903e-06 0.0018846588 0)
(-2.8402942e-06 0.0018545986 0)
(-2.5031245e-06 0.001747986 0)
(-1.1149771e-06 0.0013000671 0)
(1.5206989e-06 0.00069291069 0)
(3.826516e-06 0.0014906778 0)
(4.9309207e-06 0.0018452903 0)
(5.0613195e-06 0.0019808138 0)
(4.5966148e-06 0.0020255543 0)
(3.8442342e-06 0.0020380481 0)
(2.9881926e-06 0.0020407313 0)
(2.1191536e-06 0.0020409252 0)
(1.2676705e-06 0.0020406873 0)
(4.344154e-07 0.0020405175 0)
(-3.9235716e-07 0.0020405167 0)
(-1.2270668e-06 0.0020406851 0)
(-2.0812645e-06 0.0020409216 0)
(-2.9539844e-06 0.0020407266 0)
(-3.8143916e-06 0.0020380423 0)
(-4.5716396e-06 0.0020255476 0)
(-5.0415845e-06 0.0019808065 0)
(-4.9166697e-06 0.0018452829 0)
(-3.817822e-06 0.0014906711 0)
(-1.5176473e-06 0.00069290714 0)
(1.7300221e-06 0.00056575614 0)
(4.5969337e-06 0.0014356468 0)
(6.2119403e-06 0.0019048874 0)
(6.6129903e-06 0.0021042876 0)
(6.166813e-06 0.0021746508 0)
(5.2544556e-06 0.0021955714 0)
(4.1390049e-06 0.0022006467 0)
(2.9622938e-06 0.0022014466 0)
(1.7828767e-06 0.00220135 0)
(6.1431793e-07 0.0022012101 0)
(-5.4982594e-07 0.0022012087 0)
(-1.7205537e-06 0.0022013461 0)
(-2.9040553e-06 0.0022014405 0)
(-4.0864016e-06 0.0022006388 0)
(-5.2086775e-06 0.0021955619 0)
(-6.1287824e-06 0.0021746402 0)
(-6.5833902e-06 0.0021042765 0)
(-6.1910959e-06 0.0019048766 0)
(-4.5846829e-06 0.0014356377 0)
(-1.7259618e-06 0.00056575173 0)
(1.6283228e-06 0.00054854225 0)
(4.5337333e-06 0.00144517 0)
(6.3740769e-06 0.001966952 0)
(6.9851481e-06 0.002201537 0)
(6.6527731e-06 0.0022875982 0)
(5.7584724e-06 0.002313994 0)
(4.5901758e-06 0.0023206517 0)
(3.3137336e-06 0.0023218295 0)
(2.0062988e-06 0.0023217979 0)
(6.9487777e-07 0.0023216603 0)
(-6.1686594e-07 0.0023216584 0)
(-1.9307874e-06 0.0023217924 0)
(-3.2429925e-06 0.0023218208 0)
(-4.5261596e-06 0.0023206406 0)
(-5.7028141e-06 0.0023139811 0)
(-6.6068227e-06 0.0022875844 0)
(-6.9498952e-06 0.0022015232 0)
(-6.349873e-06 0.0019669393 0)
(-4.5200348e-06 0.0014451599 0)
(-1.6239776e-06 0.00054853769 0)
(1.35733e-06 0.00054965769 0)
(3.9323135e-06 0.0014621894 0)
(5.7373267e-06 0.0020101074 0)
(6.4674868e-06 0.0022638989 0)
(6.2921566e-06 0.0023592248 0)
(5.5369548e-06 0.0023890487 0)
(4.4706463e-06 0.0023967501 0)
(3.2585907e-06 0.0023981917 0)
(1.9862872e-06 0.0023982095 0)
(6.9217398e-07 0.002398075 0)
(-6.0815487e-07 0.0023980725 0)
(-1.9047367e-06 0.0023982023 0)
(-3.1818382e-06 0.0023981806 0)
(-4.4008575e-06 0.002396736 0)
(-5.4761158e-06 0.0023890328 0)
(-6.2420229e-06 0.0023592084 0)
(-6.4293512e-06 0.0022638834 0)
(-5.7115626e-06 0.002010094 0)
(-3.9180354e-06 0.0014621796 0)
(-1.3528694e-06 0.00054965348 0)
(1.0467008e-06 0.0005518456 0)
(3.1311225e-06 0.0014732492 0)
(4.7234937e-06 0.0020342419 0)
(5.4720945e-06 0.0022981548 0)
(5.4404515e-06 0.0023986672 0)
(4.8718206e-06 0.0024305349 0)
(3.9887019e-06 0.0024389144 0)
(2.9382011e-06 0.0024405563 0)
(1.8046093e-06 0.0024406278 0)
(6.3351055e-07 0.0024405053 0)
(-5.4911349e-07 0.0024405023 0)
(-1.7223424e-06 0.0024406191 0)
(-2.8601916e-06 0.0024405429 0)
(-3.9171316e-06 0.0024388975 0)
(-4.8089076e-06 0.0024305162 0)
(-5.3883033e-06 0.0023986485 0)
(-5.4323141e-06 0.0022981381 0)
(-4.6965726e-06 0.0020342287 0)
(-3.1161062e-06 0.0014732402 0)
(-1.0419319e-06 0.00055184185 0)
(7.6915834e-07 0.00055296223 0)
(2.3574263e-06 0.0014785541 0)
(3.6591988e-06 0.0020456799 0)
(4.3481008e-06 0.0023145767 0)
(4.4163873e-06 0.0024178026 0)
(4.026008e-06 0.0024508312 0)
(3.3443116e-06 0.0024596515 0)
(2.4911342e-06 0.0024614575 0)
(1.542533e-06 0.0024615918 0)
(5.4619041e-07 0.0024614914 0)
(-4.6523112e-07 0.002461488 0)
(-1.4631463e-06 0.0024615818 0)
(-2.4150431e-06 0.0024614421 0)
(-3.2735382e-06 0.0024596322 0)
(-3.9628668e-06 0.00245081 0)
(-4.3632618e-06 0.0024177819 0)
(-4.3069265e-06 0.0023145589 0)
(-3.6307655e-06 0.0020456665 0)
(-2.3411023e-06 0.0014785456 0)
(-7.638092e-07 0.00055295864 0)
(5.5030611e-07 0.00055335271 0)
(1.7157151e-06 0.0014806195 0)
(2.7251932e-06 0.0020503581 0)
(3.312053e-06 0.0023215153 0)
(3.4326448e-06 0.0024260725 0)
(3.1841887e-06 0.0024597439 0)
(2.6833172e-06 0.0024688593 0)
(2.0212478e-06 0.0024708064 0)
(1.2620776e-06 0.00247101 0)
(4.5126727e-07 0.0024709388 0)
(-3.7606824e-07 0.002470935 0)
(-1.1877833e-06 0.0024709992 0)
(-1.949059e-06 0.0024707896 0)
(-2.6149682e-06 0.0024688382 0)
(-3.1219657e-06 0.0024597206 0)
(-3.3791252e-06 0.0024260498 0)
(-3.2695253e-06 0.0023214959 0)
(-2.6949305e-06 0.0020503439 0)
(-1.697739e-06 0.0014806105 0)
(-5.4426513e-07 0.00055334876 0)
(3.8918356e-07 0.00055343442 0)
(1.2268698e-06 0.0014812604 0)
(1.9833563e-06 0.0020519995 0)
(2.4569532e-06 0.0023241057 0)
(2.5931146e-06 0.0024292923 0)
(2.4446476e-06 0.0024633263 0)
(2.0882302e-06 0.0024726498 0)
(1.5898962e-06 0.0024747196 0)
(1.0009437e-06 0.0024749933 0)
(3.6178974e-07 0.0024749541 0)
(-2.9352459e-07 0.0024749503 0)
(-9.3291995e-07 0.0024749822 0)
(-1.5227713e-06 0.0024747022 0)
(-2.0233909e-06 0.0024726277 0)
(-2.3842646e-06 0.0024633016 0)
(-2.5398832e-06 0.0024292677 0)
(-2.4135073e-06 0.0023240844 0)
(-1.9515501e-06 0.0020519836 0)
(-1.2075033e-06 0.00148125 0)
(-3.8261123e-07 0.0005534297 0)
(2.7464548e-07 0.0005534162 0)
(8.7151834e-07 0.0014813804 0)
(1.4270855e-06 0.002052461 0)
(1.7954725e-06 0.0023249455 0)
(1.9248382e-06 0.0024304342 0)
(1.8408217e-06 0.0024646864 0)
(1.5917617e-06 0.002474164 0)
(1.2238352e-06 0.002476339 0)
(7.7657531e-07 0.0024766783 0)
(2.8406938e-07 0.0024766707 0)
(-2.2302256e-07 0.0024766671 0)
(-7.1521164e-07 0.0024766676 0)
(-1.1623384e-06 0.0024763221 0)
(-1.5311856e-06 0.0024741422 0)
(-1.7831848e-06 0.0024646614 0)
(-1.8728912e-06 0.0024304087 0)
(-1.752141e-06 0.0023249225 0)
(-1.3947609e-06 0.002052443 0)
(-8.5164901e-07 0.001481368 0)
(-2.6794135e-07 0.00055341061 0)
(1.943089e-07 0.00055337548 0)
(6.1888115e-07 0.0014813418 0)
(1.0226089e-06 0.0020525224 0)
(1.3022986e-06 0.0023251573 0)
(1.414289e-06 0.0024308028 0)
(1.3691372e-06 0.0024651975 0)
(1.196499e-06 0.0024747927 0)
(9.2798608e-07 0.0024770558 0)
(5.9326789e-07 0.0024774529 0)
(2.199753e-07 0.002477474 0)
(-1.6573399e-07 0.0024774708 0)
(-5.3832349e-07 0.0024774434 0)
(-8.7218302e-07 0.0024770404 0)
(-1.1406338e-06 0.0024747724 0)
(-1.3150876e-06 0.0024651737 0)
(-1.3648155e-06 0.0024307777 0)
(-1.2605184e-06 0.0023251337 0)
(-9.9126974e-07 0.002052503 0)
(-5.9974891e-07 0.0014813279 0)
(-1.8797745e-07 0.00055336928 0)
(1.3797233e-07 0.00055333469 0)
(4.4042886e-07 0.0014812665 0)
(7.3242587e-07 0.0020524664 0)
(9.4149537e-07 0.0023251649 0)
(1.0331358e-06 0.0024309016 0)
(1.0102712e-06 0.0024653955 0)
(8.9083616e-07 0.0024750812 0)
(6.962435e-07 0.0024774159 0)
(4.4836762e-07 0.0024778618 0)
(1.6894683e-07 0.0024779076 0)
(-1.20597e-07 0.002477905 0)
(-3.9912209e-07 0.0024778538 0)
(-6.4576846e-07 0.0024774029 0)
(-8.3977888e-07 0.0024750636 0)
(-9.6041263e-07 0.0024653742 0)
(-9.8721603e-07 0.0024308783 0)
(-9.0269628e-07 0.0023251421 0)
(-7.0358898e-07 0.0020524467 0)
(-4.2322564e-07 0.0014812519 0)
(-1.3245903e-07 0.00055332836 0)
(9.8199238e-08 0.00055329836 0)
(3.140502e-07 0.0014811885 0)
(5.2482403e-07 0.0020523822 0)
(6.7955814e-07 0.0023251103 0)
(7.5192053e-07 0.0024309054 0)
(7.4136573e-07 0.002465471 0)
(6.5869414e-07 0.002475226 0)
(5.1837075e-07 0.0024776176 0)
(3.3633869e-07 0.002478103 0)
(1.2931708e-07 0.0024781693 0)
(-8.5696845e-08 0.0024781672 0)
(-2.9180052e-07 0.0024780968 0)
(-4.7254938e-07 0.0024776072 0)
(-6.1219464e-07 0.0024752116 0)
(-6.9592605e-07 0.002465453 0)
(-7.1024077e-07 0.002430885 0)
(-6.4475906e-07 0.0023250895 0)
(-4.9957618e-07 0.0020523635 0)
(-2.9957063e-07 0.0014811743 0)
(-9.3763642e-08 0.00055329237 0)
(6.9863473e-08 0.00055326684 0)
(2.2394527e-07 0.0014811161 0)
(3.7588183e-07 0.0020522956 0)
(4.8963939e-07 0.0023250383 0)
(5.4548281e-07 0.0024308727 0)
(5.4153515e-07 0.0024654907 0)
(4.8431681e-07 0.0024752983 0)
(3.8362195e-07 0.002477734 0)
(2.5098622e-07 0.0024782506 0)
(9.9044159e-08 0.002478333 0)
(-5.9053515e-08 0.0024783314 0)
(-2.1016908e-07 0.0024782457 0)
(-3.4168202e-07 0.0024777257 0)
(-4.4189369e-07 0.0024752865 0)
(-5.0036427e-07 0.0024654756 0)
(-5.0820933e-07 0.0024308552 0)
(-4.5922418e-07 0.0023250198 0)
(-3.5462916e-07 0.0020522784 0)
(-2.1241026e-07 0.0014811029 0)
(-6.6529126e-08 0.00055326135 0)
(4.9505908e-08 0.00055324012 0)
(1.5922208e-07 0.0014810521 0)
(2.6849066e-07 0.0020522149 0)
(3.5168029e-07 0.0023249642 0)
(3.9412425e-07 0.0024308256 0)
(3.9362388e-07 0.0024654817 0)
(3.5413678e-07 0.0024753287 0)
(2.8232725e-07 0.0024777981 0)
(1.865023e-07 0.0024783387 0)
(7.6075225e-08 0.0024784336 0)
(-3.8990024e-08 0.0024784322 0)
(-1.4872359e-07 0.0024783344 0)
(-2.4366521e-07 0.0024777908 0)
(-3.152942e-07 0.0024753184 0)
(-3.5634528e-07 0.0024654683 0)
(-3.6098273e-07 0.0024308098 0)
(-3.2541942e-07 0.0023249472 0)
(-2.5096456e-07 0.0020521986 0)
(-1.503098e-07 0.0014810394 0)
(-4.7091555e-08 0.00055323492 0)
(3.4793679e-08 0.00055321848 0)
(1.1244871e-07 0.0014809982 0)
(1.9067746e-07 0.0020521445 0)
(2.5116999e-07 0.0023248959 0)
(2.8306242e-07 0.0024307758 0)
(2.8426654e-07 0.0024654597 0)
(2.5719648e-07 0.002475336 0)
(2.0641377e-07 0.0024778306 0)
(1.3788038e-07 0.0024783892 0)
(5.8525941e-08 0.0024784935 0)
(-2.4236778e-08 0.0024784919 0)
(-1.0300413e-07 0.0024783846 0)
(-1.708428e-07 0.0024778228 0)
(-2.2167441e-07 0.002475325 0)
(-2.505236e-07 0.0024654458 0)
(-2.5357489e-07 0.0024307595 0)
(-2.2844833e-07 0.0023248783 0)
(-1.7615654e-07 0.0020521276 0)
(-1.0548983e-07 0.0014809849 0)
(-3.3002216e-08 0.00055321299 0)
(2.4133238e-08 0.00055320215 0)
(7.8526452e-08 0.0014809562 0)
(1.3409275e-07 0.0020520879 0)
(1.7773724e-07 0.0023248389 0)
(2.0142721e-07 0.0024307316 0)
(2.0334481e-07 0.0024654356 0)
(1.8496856e-07 0.0024753334 0)
(1.4944042e-07 0.0024778467 0)
(1.0102827e-07 0.0024784188 0)
(4.4779169e-08 0.0024785297 0)
(-1.3884227e-08 0.0024785277 0)
(-6.957839e-08 0.0024784128 0)
(-1.1734045e-07 0.0024778368 0)
(-1.5293966e-07 0.0024753197 0)
(-1.7304787e-07 0.0024654185 0)
(-1.75206e-07 0.002430712 0)
(-1.5788281e-07 0.0023248181 0)
(-1.2173625e-07 0.0020520678 0)
(-7.2775998e-08 0.0014809404 0)
(-2.2661602e-08 0.00055319563 0)
(1.6412936e-08 0.00055319102 0)
(5.3903991e-08 0.0014809265 0)
(9.2872067e-08 0.0020520466 0)
(1.239765e-07 0.0023247966 0)
(1.4129679e-07 0.002430698 0)
(1.4332801e-07 0.0024654166 0)
(1.3098212e-07 0.0024753302 0)
(1.0643875e-07 0.0024778573 0)
(7.2746513e-08 0.0024784392 0)
(3.3544455e-08 0.0024785549 0)
(-7.2653694e-09 0.0024785522 0)
(-4.5852612e-08 0.0024784311 0)
(-7.8757844e-08 0.002477844 0)
(-1.0312737e-07 0.0024753121 0)
(-1.168148e-07 0.0024653943 0)
(-1.182892e-07 0.0024306727 0)
(-1.0657028e-07 0.0023247699 0)
(-8.2045155e-08 0.0020520211 0)
(-4.8796762e-08 0.0014809065 0)
(-1.5047594e-08 0.00055318277 0)
(1.0838059e-08 0.00055318447 0)
(3.6057633e-08 0.0014809084 0)
(6.2842788e-08 0.0020520205 0)
(8.4573759e-08 0.0023247696 0)
(9.6916938e-08 0.0024306773 0)
(9.8676156e-08 0.0024654065 0)
(9.0425701e-08 0.0024753318 0)
(7.3691045e-08 0.0024778691 0)
(5.0645319e-08 0.0024784581 0)
(2.3885565e-08 0.0024785772 0)
(-3.8279934e-09 0.0024785737 0)
(-2.9833747e-08 0.0024784476 0)
(-5.1794136e-08 0.0024778518 0)
(-6.7863027e-08 0.0024753083 0)
(-7.6735134e-08 0.0024653777 0)
(-7.7525874e-08 0.0024306446 0)
(-6.9647878e-08 0.0023247353 0)
(-5.333948e-08 0.0020519878 0)
(-3.1377361e-08 0.0014808829 0)
(-9.5120966e-09 0.00055317405 0)
(6.8271631e-09 0.00055318144 0)
(2.3156636e-08 0.0014808996 0)
(4.0991751e-08 0.0020520072 0)
(5.5687571e-08 0.0023247561 0)
(6.4110624e-08 0.0024306686 0)
(6.5350582e-08 0.0024654058 0)
(5.9786816e-08 0.0024753397 0)
(4.8498386e-08 0.0024778845 0)
(3.3029849e-08 0.0024784789 0)
(1.5213257e-08 0.0024786004 0)
(-3.0354623e-09 0.0024785961 0)
(-1.9915304e-08 0.002478466 0)
(-3.3904294e-08 0.0024778634 0)
(-4.3873944e-08 0.002475311 0)
(-4.9105358e-08 0.0024653705 0)
(-4.9165458e-08 0.0024306284 0)
(-4.3767576e-08 0.0023247137 0)
(-3.3107344e-08 0.0020519668 0)
(-1.9086172e-08 0.0014808683 0)
(-5.6300083e-09 0.00055316882 0)
(3.9482385e-09 0.00055318063 0)
(1.385183e-08 0.0014808971 0)
(2.5115422e-08 0.002052003 0)
(3.4521136e-08 0.0023247526 0)
(3.9844509e-08 0.0024306689 0)
(4.0428131e-08 0.002465412 0)
(3.6542571e-08 0.0024753524 0)
(2.8958766e-08 0.0024779029 0)
(1.8768031e-08 0.0024785013 0)
(7.2436406e-09 0.0024786247 0)
(-4.314049e-09 0.0024786199 0)
(-1.4723004e-08 0.0024784869 0)
(-2.3034641e-08 0.0024778791 0)
(-2.861049e-08 0.0024753198 0)
(-3.1122315e-08 0.0024653716 0)
(-3.0443084e-08 0.0024306224 0)
(-2.6518303e-08 0.0023247032 0)
(-1.9568623e-08 0.0020519559 0)
(-1.0908049e-08 0.0014808608 0)
(-3.0923843e-09 0.00055316619 0)
(1.8796808e-09 0.00055318077 0)
(7.1432288e-09 0.0014808977 0)
(1.3591896e-08 0.0020520036 0)
(1.9029327e-08 0.0023247544 0)
(2.1914463e-08 0.0024306739 0)
(2.1802391e-08 0.0024654216 0)
(1.8901775e-08 0.002475367 0)
(1.3764758e-08 0.0024779219 0)
(7.1519062e-09 0.0024785236 0)
(-7.1434079e-11 0.0024786486 0)
(-7.0481522e-09 0.0024786435 0)
(-1.3029501e-08 0.0024785084 0)
(-1.7451695e-08 0.0024778969 0)
(-1.9987925e-08 0.0024753324 0)
(-2.0546348e-08 0.0024653783 0)
(-1.9188433e-08 0.0024306236 0)
(-1.6027034e-08 0.0023247004 0)
(-1.1335177e-08 0.0020519518 0)
(-6.0283584e-09 0.0014808579 0)
(-1.6385085e-09 0.00055316524 0)
(3.8566896e-10 0.00055318085 0)
(2.295427e-09 0.0014808984 0)
(5.230484e-09 0.0020520051 0)
(7.716976e-09 0.0023247573 0)
(8.7182395e-09 0.0024306795 0)
(7.9558016e-09 0.0024654308 0)
(5.5962161e-09 0.00247538 0)
(2.0277397e-09 0.0024779384 0)
(-2.2362293e-09 0.0024785428 0)
(-6.6301141e-09 0.0024786693 0)
(-1.0612744e-08 0.0024786644 0)
(-1.3728675e-08 0.0024785281 0)
(-1.5654594e-08 0.0024779139 0)
(-1.6236731e-08 0.0024753458 0)
(-1.5496569e-08 0.0024653875 0)
(-1.358449e-08 0.0024306285 0)
(-1.0714379e-08 0.0023247019 0)
(-7.2084713e-09 0.0020519516 0)
(-3.7116801e-09 0.0014808575 0)
(-1.0211459e-09 0.00055316512 0)
(-7.0043272e-10 0.0005531803 0)
(-1.2189121e-09 0.0014808973 0)
(-8.3013058e-10 0.0020520044 0)
(-5.0134674e-10 0.0023247579 0)
(-9.0774115e-10 0.0024306822 0)
(-2.2099221e-09 0.0024654364 0)
(-4.2811308e-09 0.0024753887 0)
(-6.8654745e-09 0.00247795 0)
(-9.6413358e-09 0.0024785566 0)
(-1.2266906e-08 0.0024786846 0)
(-1.4424397e-08 0.0024786803 0)
(-1.5848062e-08 0.0024785434 0)
(-1.6346936e-08 0.0024779278 0)
(-1.5834615e-08 0.0024753573 0)
(-1.4348942e-08 0.002465396 0)
(-1.2045311e-08 0.002430634 0)
(-9.1741138e-09 0.0023247048 0)
(-6.0876762e-09 0.0020519527 0)
(-3.2561587e-09 0.0014808578 0)
(-9.9781628e-10 0.00055316523 0)
(-1.4884096e-09 0.00055317878 0)
(-3.7591871e-09 0.0014808936 0)
(-5.1927452e-09 0.0020520001 0)
(-6.3989618e-09 0.0023247543 0)
(-7.8032169e-09 0.0024306803 0)
(-9.494958e-09 0.0024654368 0)
(-1.1394115e-08 0.0024753916 0)
(-1.3360105e-08 0.0024779553 0)
(-1.5227081e-08 0.002478564 0)
(-1.6824216e-08 0.0024786934 0)
(-1.7990568e-08 0.0024786899 0)
(-1.8574862e-08 0.0024785531 0)
(-1.8439862e-08 0.0024779368 0)
(-1.7489045e-08 0.0024753651 0)
(-1.5703752e-08 0.002465402 0)
(-1.3177879e-08 0.002430638 0)
(-1.0142156e-08 0.0023247069 0)
(-6.9576811e-09 0.0020519535 0)
(-4.0014651e-09 0.001480858 0)
(-1.3396892e-09 0.00055316525 0)
(-2.0412905e-09 0.00055317628 0)
(-5.5475923e-09 0.0014808873 0)
(-8.2528417e-09 0.0020519922 0)
(-1.050537e-08 0.0023247465 0)
(-1.2563013e-08 0.0024306737 0)
(-1.4483663e-08 0.002465432 0)
(-1.6242801e-08 0.0024753889 0)
(-1.780506e-08 0.0024779546 0)
(-1.9136139e-08 0.002478565 0)
(-2.0199174e-08 0.0024786959 0)
(-2.094265e-08 0.0024786933 0)
(-2.1276671e-08 0.002478557 0)
(-2.1063304e-08 0.0024779407 0)
(-2.0143064e-08 0.0024753686 0)
(-1.8391276e-08 0.0024654048 0)
(-1.5793741e-08 0.0024306397 0)
(-1.2519828e-08 0.0023247076 0)
(-8.9251416e-09 0.0020519533 0)
(-5.3673255e-09 0.0014808576 0)
(-1.8495616e-09 0.00055316513 0)
(-2.3842751e-09 0.00055317316 0)
(-6.6949611e-09 0.0014808793 0)
(-1.0238661e-08 0.0020519816 0)
(-1.3156361e-08 0.0023247355 0)
(-1.5591777e-08 0.0024306635 0)
(-1.759845e-08 0.0024654233 0)
(-1.9212098e-08 0.0024753818 0)
(-2.0493307e-08 0.0024779492 0)
(-2.1520525e-08 0.0024785612 0)
(-2.2363678e-08 0.0024786934 0)
(-2.3047264e-08 0.0024786918 0)
(-2.3507142e-08 0.0024785563 0)
(-2.3570397e-08 0.0024779405 0)
(-2.2983671e-08 0.0024753685 0)
(-2.1489323e-08 0.0024654047 0)
(-1.8939814e-08 0.0024306394 0)
(-1.541914e-08 0.0023247069 0)
(-1.1272794e-08 0.0020519525 0)
(-6.9009681e-09 0.0014808569 0)
(-2.3809592e-09 0.00055316497 0)
(-2.5124507e-09 0.00055316982 0)
(-7.223543e-09 0.0014808705 0)
(-1.1245776e-08 0.0020519698 0)
(-1.4535063e-08 0.002324723 0)
(-1.7145672e-08 0.0024306516 0)
(-1.9137004e-08 0.0024654125 0)
(-2.0600736e-08 0.0024753725 0)
(-2.1680466e-08 0.0024779413 0)
(-2.2549376e-08 0.0024785546 0)
(-2.3362552e-08 0.002478688 0)
(-2.4197344e-08 0.0024786874 0)
(-2.4993845e-08 0.0024785528 0)
(-2.5527149e-08 0.0024779377 0)
(-2.54391e-08 0.0024753663 0)
(-2.4333469e-08 0.002465403 0)
(-2.1924819e-08 0.002430638 0)
(-1.820435e-08 0.0023247058 0)
(-1.3507773e-08 0.0020519516 0)
(-8.3159894e-09 0.0014808564 0)
(-2.8522061e-09 0.00055316494 0)
(-2.3956598e-09 0.00055316659 0)
(-7.0845731e-09 0.0014808619 0)
(-1.1267101e-08 0.0020519584 0)
(-1.4709107e-08 0.0023247107 0)
(-1.7369767e-08 0.0024306398 0)
(-1.9303755e-08 0.0024654018 0)
(-2.0642447e-08 0.002475363 0)
(-2.1593436e-08 0.002477933 0)
(-2.2404984e-08 0.0024785474 0)
(-2.3298663e-08 0.0024786818 0)
(-2.4389185e-08 0.0024786822 0)
(-2.5611151e-08 0.0024785485 0)
(-2.6686226e-08 0.0024779342 0)
(-2.7159138e-08 0.0024753637 0)
(-2.6509104e-08 0.0024654011 0)
(-2.4326086e-08 0.0024306369 0)
(-2.0512174e-08 0.0023247051 0)
(-1.5387659e-08 0.0020519513 0)
(-9.5122924e-09 0.0014808565 0)
(-3.252671e-09 0.0005531651 0)
(-1.9781661e-09 0.00055316342 0)
(-6.1661711e-09 0.0014808539 0)
(-1.0215989e-08 0.0020519481 0)
(-1.3665712e-08 0.0023247 0)
(-1.6336539e-08 0.0024306298 0)
(-1.8243325e-08 0.0024653928 0)
(-1.9528354e-08 0.002475355 0)
(-2.0438786e-08 0.002477926 0)
(-2.1276872e-08 0.0024785414 0)
(-2.2314192e-08 0.0024786767 0)
(-2.3693576e-08 0.0024786779 0)
(-2.5344811e-08 0.002478545 0)
(-2.6949062e-08 0.0024779316 0)
(-2.7978944e-08 0.002475362 0)
(-2.7821018e-08 0.0024654003 0)
(-2.5968164e-08 0.0024306368 0)
(-2.2240316e-08 0.0023247055 0)
(-1.6916298e-08 0.0020519518 0)
(-1.0574354e-08 0.0014808568 0)
(-3.6415436e-09 0.00055316524 0)
(-1.1776991e-09 0.00055315941 0)
(-4.2992954e-09 0.0014808452 0)
(-7.9499634e-09 0.0020519382 0)
(-1.1351797e-08 0.002324691 0)
(-1.409207e-08 0.002430622 0)
(-1.6081798e-08 0.0024653863 0)
(-1.7436107e-08 0.0024753496 0)
(-1.8416632e-08 0.0024779215 0)
(-1.9360222e-08 0.0024785376 0)
(-2.0575169e-08 0.0024786735 0)
(-2.2228977e-08 0.0024786755 0)
(-2.4256462e-08 0.0024785433 0)
(-2.6323717e-08 0.0024779307 0)
(-2.7871547e-08 0.002475362 0)
(-2.8241989e-08 0.002465401 0)
(-2.6870369e-08 0.002430638 0)
(-2.3498593e-08 0.0023247065 0)
(-1.8303565e-08 0.0020519519 0)
(-1.1743633e-08 0.0014808557 0)
(-4.1371186e-09 0.00055316435 0)
(9.1462376e-11 0.00055315139 0)
(-1.3081417e-09 0.0014808299 0)
(-4.3361423e-09 0.0020519245 0)
(-7.746208e-09 0.0023246812 0)
(-1.072472e-08 0.0024306156 0)
(-1.2983108e-08 0.002465382 0)
(-1.4569671e-08 0.0024753466 0)
(-1.5743391e-08 0.0024779193 0)
(-1.6863355e-08 0.0024785359 0)
(-1.8266386e-08 0.0024786724 0)
(-2.0146429e-08 0.0024786748 0)
(-2.245988e-08 0.0024785433 0)
(-2.4891783e-08 0.0024779314 0)
(-2.690252e-08 0.0024753634 0)
(-2.7851445e-08 0.0024654028 0)
(-2.71678e-08 0.0024306393 0)
(-2.4516251e-08 0.0023247056 0)
(-1.9869793e-08 0.0020519469 0)
(-1.3338211e-08 0.0014808474 0)
(-4.8808032e-09 0.00055315917 0)
(1.8256356e-09 0.00055313053 0)
(2.8021726e-09 0.0014807916 0)
(5.5845134e-10 0.0020518929 0)
(-3.015881e-09 0.0023246626 0)
(-6.4814598e-09 0.0024306066 0)
(-9.2315541e-09 0.002465378 0)
(-1.1216417e-08 0.0024753449 0)
(-1.2690816e-08 0.0024779185 0)
(-1.4034746e-08 0.0024785356 0)
(-1.5611196e-08 0.0024786724 0)
(-1.7645145e-08 0.0024786752 0)
(-2.0132666e-08 0.0024785442 0)
(-2.2812852e-08 0.0024779329 0)
(-2.5219213e-08 0.0024753651 0)
(-2.6796125e-08 0.0024654037 0)
(-2.7027302e-08 0.0024306365 0)
(-2.5502185e-08 0.0023246944 0)
(-2.1857966e-08 0.002051923 0)
(-1.5562954e-08 0.0014808151 0)
(-5.9446312e-09 0.0005531406 0)
(3.7551666e-09 0.00055307449 0)
(7.4657385e-09 0.0014806882 0)
(6.0870343e-09 0.0020518068 0)
(2.1971976e-09 0.0023246129 0)
(-1.9602142e-09 0.0024305841 0)
(-5.3609055e-09 0.0024653698 0)
(-7.8422173e-09 0.0024753424 0)
(-9.6655366e-09 0.0024779179 0)
(-1.1237764e-08 0.0024785355 0)
(-1.2948238e-08 0.0024786725 0)
(-1.5055395e-08 0.0024786755 0)
(-1.7606164e-08 0.0024785448 0)
(-2.0417092e-08 0.0024779338 0)
(-2.3132779e-08 0.0024753648 0)
(-2.5334638e-08 0.0024653989 0)
(-2.6612936e-08 0.002430619 0)
(-2.6488914e-08 0.0023246508 0)
(-2.4153007e-08 0.0020518433 0)
(-1.8196181e-08 0.0014807166 0)
(-7.1811268e-09 0.00055308648 0)
(5.2005481e-09 0.00055297475 0)
(1.113365e-08 0.0014805044 0)
(1.0517298e-08 0.0020516391 0)
(6.3489674e-09 0.00232451 0)
(1.5741198e-09 0.0024305358 0)
(-2.3940401e-09 0.0024653522 0)
(-5.2932607e-09 0.0024753372 0)
(-7.3969569e-09 0.0024779168 0)
(-9.1377167e-09 0.0024785351 0)
(-1.0926045e-08 0.002478672 0)
(-1.3046909e-08 0.0024786748 0)
(-1.5590614e-08 0.0024785447 0)
(-1.8443097e-08 0.0024779335 0)
(-2.1351373e-08 0.0024753603 0)
(-2.4027144e-08 0.0024653829 0)
(-2.6168577e-08 0.0024305736 0)
(-2.7243823e-08 0.0023245516 0)
(-2.6027615e-08 0.00205168 0)
(-2.031631e-08 0.001480536 0)
(-8.1252055e-09 0.00055298878 0)
)
;

boundaryField
{
    Wall
    {
        type            fixedValue;
        value           uniform (0 0 0);
    }
    frontAndBack
    {
        type            empty;
    }
    atmosphere
    {
        type            pressureInletOutletVelocity;
        value           nonuniform List<vector> 
20
(
(5.2005481e-09 0.00055297475 0)
(1.113365e-08 0.0014805044 0)
(1.0517298e-08 0.0020516391 0)
(6.3489674e-09 0.00232451 0)
(1.5741198e-09 0.0024305358 0)
(-2.3940401e-09 0.0024653522 0)
(-5.2932607e-09 0.0024753372 0)
(-7.3969569e-09 0.0024779168 0)
(-9.1377167e-09 0.0024785351 0)
(-1.0926045e-08 0.002478672 0)
(-1.3046909e-08 0.0024786748 0)
(-1.5590614e-08 0.0024785447 0)
(-1.8443097e-08 0.0024779335 0)
(-2.1351373e-08 0.0024753603 0)
(-2.4027144e-08 0.0024653829 0)
(-2.6168577e-08 0.0024305736 0)
(-2.7243823e-08 0.0023245516 0)
(-2.6027615e-08 0.00205168 0)
(-2.031631e-08 0.001480536 0)
(-8.1252055e-09 0.00055298878 0)
)
;
    }
}


// ************************************************************************* //
