/*--------------------------------*- C++ -*----------------------------------*\
| =========                 |                                                 |
| \\      /  F ield         | OpenFOAM: The Open Source CFD Toolbox           |
|  \\    /   O peration     | Version:  3.0.1                                 |
|   \\  /    A nd           | Web:      www.OpenFOAM.org                      |
|    \\/     M anipulation  |                                                 |
\*---------------------------------------------------------------------------*/
FoamFile
{
    version     2.0;
    format      ascii;
    class       volScalarField;
    location    "10";
    object      wBA_l_0;
}
// * * * * * * * * * * * * * * * * * * * * * * * * * * * * * * * * * * * * * //

dimensions      [0 0 0 0 0 0 0];

internalField   nonuniform List<scalar> 
800
(
0.056508218
0.056504044
0.056502732
0.056502011
0.056501458
0.056501015
0.056500673
0.056500424
0.056500262
0.056500182
0.056500182
0.056500261
0.056500423
0.056500672
0.056501015
0.056501458
0.056502011
0.056502732
0.056504043
0.056508218
0.056476313
0.056475046
0.056474956
0.056474994
0.056475032
0.056475062
0.056475089
0.056475111
0.056475127
0.056475135
0.056475135
0.056475127
0.056475111
0.056475089
0.056475063
0.056475033
0.056474995
0.056474957
0.056475047
0.056476315
0.043593979
0.043640099
0.04364304
0.043641818
0.043640162
0.043638661
0.043637433
0.043636526
0.043635934
0.043635645
0.043635645
0.043635934
0.043636526
0.043637433
0.043638661
0.043640163
0.043641819
0.04364304
0.0436401
0.043593979
0.027323287
0.027471626
0.027469374
0.027459425
0.027450865
0.02744393
0.027438714
0.027435005
0.027432632
0.027431478
0.027431479
0.027432635
0.027435009
0.027438719
0.027443937
0.027450873
0.027459435
0.027469383
0.027471636
0.027323298
0.012665244
0.013250171
0.013305773
0.013299242
0.013285713
0.013273889
0.013265007
0.013258751
0.013254771
0.013252834
0.013252835
0.013254774
0.013258756
0.013265014
0.013273896
0.013285721
0.013299251
0.013305781
0.013250179
0.012665257
0.0037990719
0.0049963406
0.0052588185
0.0053172337
0.0053257974
0.0053233634
0.0053196482
0.0053166709
0.0053147204
0.0053137643
0.0053137638
0.0053147189
0.0053166687
0.0053196454
0.0053233597
0.0053257924
0.0053172275
0.0052588099
0.0049963314
0.0037990651
0.00062200195
0.0015135426
0.0018235618
0.0019127615
0.0019343741
0.0019377323
0.001937047
0.0019358947
0.0019350442
0.0019346151
0.0019346143
0.0019350417
0.0019358909
0.0019370419
0.001937726
0.0019343661
0.001912752
0.0018235508
0.0015135321
0.00062199622
6.6295154e-05
0.00039250008
0.00057846938
0.00064229424
0.00065978323
0.00066346741
0.00066373384
0.00066338031
0.00066305653
0.0006628858
0.00066288511
0.00066305455
0.00066337724
0.00066372982
0.00066346248
0.00065977728
0.00064228737
0.00057846205
0.00039249396
6.629357e-05
6.5511034e-06
9.3911344e-05
0.00017090156
0.00020181229
0.00021091099
0.00021299431
0.00021325628
0.00021315335
0.00021303427
0.00021296903
0.00021296864
0.00021303315
0.0002131516
0.00021325401
0.00021299156
0.00021090777
0.00020180869
0.00017089799
9.3908849e-05
6.5508255e-06
6.4171407e-07
2.0897454e-05
4.6661173e-05
5.8576884e-05
6.2287881e-05
6.3174069e-05
6.3303417e-05
6.3274417e-05
6.3233199e-05
6.3209975e-05
6.3209795e-05
6.3232679e-05
6.327361e-05
6.3302378e-05
6.3172834e-05
6.2286474e-05
5.8575373e-05
4.6659783e-05
2.0896657e-05
6.4167533e-07
6.0812662e-08
4.2810835e-06
1.1650464e-05
1.5528368e-05
1.6796479e-05
1.710797e-05
1.7156705e-05
1.714901e-05
1.7136024e-05
1.7128554e-05
1.7128484e-05
1.7135821e-05
1.7148696e-05
1.7156305e-05
1.7107503e-05
1.6795962e-05
1.5527836e-05
1.1650013e-05
4.2808735e-06
6.0808074e-08
5.4272109e-09
8.0121609e-07
2.6447602e-06
3.7381151e-06
4.1117293e-06
4.2055551e-06
4.2208905e-06
4.219043e-06
4.2153978e-06
4.2132649e-06
4.2132415e-06
4.2153303e-06
4.2189388e-06
4.2207584e-06
4.205403e-06
4.1115652e-06
3.7379538e-06
2.6446347e-06
8.0116894e-07
5.4267351e-09
4.4947295e-10
1.3669834e-07
5.4548765e-07
8.1673214e-07
9.1326767e-07
9.3797625e-07
9.4215481e-07
9.4176763e-07
9.4086289e-07
9.4032498e-07
9.4031823e-07
9.4084341e-07
9.4173759e-07
9.4211688e-07
9.3793305e-07
9.1322211e-07
8.1668924e-07
5.4545706e-07
1.3668905e-07
4.494287e-10
3.4354668e-11
2.1297955e-08
1.0248951e-07
1.6241312e-07
1.8457338e-07
1.9034427e-07
1.913501e-07
1.9128145e-07
1.9108253e-07
1.9096231e-07
1.9096061e-07
1.9107762e-07
1.9127388e-07
1.9134055e-07
1.9033346e-07
1.8456217e-07
1.6240294e-07
1.0248282e-07
2.1296307e-08
3.4350906e-11
2.4219752e-12
3.0409254e-09
1.761484e-08
2.9523077e-08
3.4091441e-08
3.5300586e-08
3.5517355e-08
3.5507516e-08
3.5468509e-08
3.5444521e-08
3.5444146e-08
3.5467423e-08
3.5505835e-08
3.5515232e-08
3.5298187e-08
3.4088975e-08
2.9520902e-08
1.7613513e-08
3.0406584e-09
2.4216796e-12
1.5775409e-13
3.9952956e-10
2.7820939e-09
4.9290298e-09
5.7824465e-09
6.0118624e-09
6.0541008e-09
6.0530963e-09
6.0462183e-09
6.0419075e-09
6.041834e-09
6.046005e-09
6.0527651e-09
6.0536811e-09
6.0113872e-09
5.7819599e-09
4.9286088e-09
2.781853e-09
3.9948975e-10
1.5773259e-13
9.5178281e-15
4.849991e-11
4.0559105e-10
7.592953e-10
9.0485501e-10
9.4457547e-10
9.5207405e-10
9.5204723e-10
9.5094763e-10
9.5024409e-10
9.5023122e-10
9.5091022e-10
9.5198892e-10
9.519998e-10
9.4449103e-10
9.0476849e-10
7.5922142e-10
4.0555107e-10
4.8494449e-11
9.5163865e-15
5.3343587e-16
5.4606606e-12
5.480351e-11
1.0837686e-10
1.3118688e-10
1.375024e-10
1.3872285e-10
1.3874119e-10
1.3858062e-10
1.3847554e-10
1.3847351e-10
1.385747e-10
1.3873194e-10
1.38711e-10
1.3748886e-10
1.3117297e-10
1.0836507e-10
5.4797441e-11
5.4599733e-12
5.3334702e-16
2.7851835e-17
5.7224972e-13
6.8887706e-12
1.4387456e-11
1.7688948e-11
1.8616033e-11
1.8799096e-11
1.8804946e-11
1.8783387e-11
1.8768931e-11
1.8768639e-11
1.8782536e-11
1.880361e-11
1.8797378e-11
1.8614056e-11
1.7686908e-11
1.438574e-11
6.887927e-12
5.7217027e-13
2.7846802e-17
1.3584358e-18
5.5994618e-14
8.0823179e-13
1.7824861e-12
2.2258414e-12
2.3520572e-12
2.377479e-12
2.3786788e-12
2.3760027e-12
2.3741603e-12
2.3741217e-12
2.3758901e-12
2.3785013e-12
2.3772496e-12
2.351792e-12
2.2255666e-12
1.7822563e-12
8.0812382e-13
5.5986149e-14
1.3581726e-18
6.2051151e-20
5.1307587e-15
8.8775312e-14
2.0672006e-13
2.6217518e-13
2.7817418e-13
2.8145562e-13
2.8165527e-13
2.8134672e-13
2.8112809e-13
2.8112334e-13
2.8133281e-13
2.816333e-13
2.8142713e-13
2.7814108e-13
2.6214079e-13
2.0669148e-13
8.8762481e-14
5.1299197e-15
6.2038349e-20
2.6608272e-21
4.4139604e-16
9.1534027e-15
2.2502915e-14
2.898562e-14
3.0880336e-14
3.1275445e-14
3.1304297e-14
3.1271117e-14
3.1246864e-14
3.1246313e-14
3.12695e-14
3.1301735e-14
3.1272113e-14
3.0876451e-14
2.8981576e-14
2.2499579e-14
9.1519727e-15
4.4131809e-16
2.6602424e-21
1.0734697e-22
3.5737046e-17
8.8810724e-16
2.3049564e-15
3.0153481e-15
3.2256199e-15
3.2701384e-15
3.2738727e-15
3.2705338e-15
3.2680095e-15
3.2679486e-15
3.2703549e-15
3.2735887e-15
3.2697679e-15
3.2251868e-15
3.014897e-15
2.3045875e-15
8.8795642e-16
3.5730195e-17
1.0732169e-22
4.082655e-24
2.7289159e-18
8.1264153e-17
2.2264857e-16
2.9581691e-16
3.1774355e-16
3.2245077e-16
3.2289125e-16
3.2257593e-16
3.2232866e-16
3.2232223e-16
3.2255702e-16
3.2286117e-16
3.2241141e-16
3.1769743e-16
2.9576886e-16
2.2260967e-16
8.1249007e-17
2.7283428e-18
4.0816144e-24
1.4664827e-25
1.9692313e-19
7.0267279e-18
2.0322889e-17
2.7423014e-17
2.9576603e-17
3.0044875e-17
3.0092753e-17
3.0064741e-17
3.0041887e-17
3.0041238e-17
3.0062831e-17
3.0089707e-17
3.0040878e-17
2.9571908e-17
2.7418123e-17
2.031897e-17
7.0252765e-18
1.9687744e-19
1.4660745e-25
4.9834265e-27
1.3452932e-20
5.7520008e-19
1.7561212e-18
2.4066328e-18
2.6062934e-18
2.6502211e-18
2.6550542e-18
2.6527087e-18
2.6507113e-18
2.6506489e-18
2.6525249e-18
2.6547604e-18
2.6498343e-18
2.6058377e-18
2.4061581e-18
1.7557448e-18
5.750676e-19
1.3449464e-20
4.9819029e-27
1.6046149e-28
8.7148884e-22
4.4649601e-20
1.4389684e-19
2.0027722e-19
2.177841e-19
2.21678e-19
2.2213371e-19
2.2194833e-19
2.2178294e-19
2.2177726e-19
2.2193156e-19
2.2210684e-19
2.2164251e-19
2.1774213e-19
2.0023347e-19
1.4386252e-19
4.4638125e-20
8.7123914e-22
1.6040759e-28
4.9055232e-30
5.3614451e-23
3.2916056e-21
1.1197906e-20
1.5828569e-20
1.7282955e-20
1.7609734e-20
1.7650048e-20
1.7636199e-20
1.7623206e-20
1.7622718e-20
1.7634756e-20
1.7647728e-20
1.7606657e-20
1.7279305e-20
1.5824759e-20
1.1194948e-20
3.2906662e-21
5.3597461e-23
4.9007825e-30
2.8649095e-31
3.136713e-24
2.3077704e-22
8.2873537e-22
1.1897208e-21
1.3043783e-21
1.3303848e-21
1.3337429e-21
1.3327642e-21
1.3317943e-21
1.3317548e-21
1.3326472e-21
1.3335543e-21
1.3301338e-21
1.3040794e-21
1.1894084e-21
8.2849536e-22
2.3070459e-22
3.135613e-24
1.4226152e-31
2.5206967e-32
1.7473941e-25
1.5407252e-23
5.8404045e-23
8.5152278e-23
9.3742671e-23
9.5708464e-23
9.5972616e-23
9.5907151e-23
9.5838277e-23
9.5835269e-23
9.589824e-23
9.5958211e-23
9.5689219e-23
9.3719669e-23
8.5128212e-23
5.8385738e-23
1.5401997e-23
1.7467084e-25
3.9284069e-33
1.8094883e-33
9.2796783e-27
9.8064997e-25
3.9239859e-24
5.8103842e-24
6.4228626e-24
6.5641925e-24
6.5838631e-24
6.5797171e-24
6.5750588e-24
6.5748436e-24
6.579079e-24
6.582829e-24
6.5628062e-24
6.4211999e-24
5.8086428e-24
3.9226745e-24
9.8029172e-25
9.2756123e-27
1.0330877e-34
1.0763927e-34
4.7028858e-28
5.9569961e-26
2.5161613e-25
3.7839019e-25
4.1999729e-25
4.2967399e-25
4.3106358e-25
4.3081499e-25
4.3051459e-25
4.3050011e-25
4.30772e-25
4.3099375e-25
4.295801e-25
4.1988432e-25
3.7827177e-25
2.5152788e-25
5.9547016e-26
4.7006064e-28
2.5899844e-36
5.5224346e-36
2.2767381e-29
3.4569815e-27
1.5413763e-26
2.3541487e-26
2.6237558e-26
2.6869283e-26
2.6962574e-26
2.6948469e-26
2.6929981e-26
2.6929063e-26
2.694574e-26
2.6958132e-26
2.6863294e-26
2.6230333e-26
2.3533912e-26
1.5408177e-26
3.4555995e-27
2.2755338e-29
6.1959818e-38
2.476672e-37
1.0538374e-30
1.9183251e-28
9.0289551e-28
1.4005106e-27
1.567324e-27
1.6066885e-27
1.6126502e-27
1.6118937e-27
1.6108066e-27
1.6107516e-27
1.6117301e-27
1.6123835e-27
1.6063282e-27
1.5668884e-27
1.400054e-27
9.0256247e-28
1.9175412e-28
1.0532391e-30
1.4156599e-39
9.5627065e-39
4.6677762e-32
1.018759e-29
5.0616737e-29
7.973823e-29
8.9602842e-29
9.194646e-29
9.2309597e-29
9.2271323e-29
9.2210204e-29
9.2207086e-29
9.2262043e-29
9.2294453e-29
9.1925967e-29
8.9578035e-29
7.9712245e-29
5.0598002e-29
1.0183398e-29
4.6649926e-32
3.091702e-41
2.9630331e-40
1.9799648e-33
5.1818589e-31
2.7178149e-30
4.3482625e-30
4.9062954e-30
5.0397307e-30
5.0608407e-30
5.0590194e-30
5.0557308e-30
5.0555631e-30
5.0585201e-30
5.0600255e-30
5.0386269e-30
4.9049584e-30
4.3468642e-30
2.7168188e-30
5.1797406e-31
1.9787607e-33
6.4588252e-43
5.3674702e-42
8.0486475e-35
2.5262655e-32
1.3987171e-31
2.2727377e-31
2.5749571e-31
2.6476717e-31
2.6593963e-31
2.6585855e-31
2.6568907e-31
2.656805e-31
2.6583302e-31
2.6589796e-31
2.6471075e-31
2.5742739e-31
2.2720249e-31
1.3982157e-31
2.5252529e-32
8.0438735e-35
1.2915993e-44
7.215267e-44
3.1375611e-36
1.1812461e-33
6.9042194e-33
1.1393532e-32
1.2961703e-32
1.3341261e-32
1.340354e-32
1.3400193e-32
1.3391821e-32
1.3391404e-32
1.339895e-32
1.3401513e-32
1.3338519e-32
1.2958388e-32
1.1390084e-32
6.9018261e-33
1.1807878e-33
3.1358213e-36
2.4739675e-46
9.3889765e-46
1.1736258e-37
5.3006774e-35
3.2706905e-34
5.481641e-34
6.2617917e-34
6.4517068e-34
6.4833749e-34
6.4821141e-34
6.4781477e-34
6.4779537e-34
6.481537e-34
6.4824347e-34
6.4504374e-34
6.2602609e-34
5.4800566e-34
3.2696062e-34
5.2987096e-35
1.17302e-37
4.5414224e-48
1.1890178e-47
4.2146347e-39
2.2839484e-36
1.487803e-35
2.5325097e-35
2.9048704e-35
2.996024e-35
3.0114531e-35
3.0110347e-35
3.009231e-35
3.0091448e-35
3.0107785e-35
3.0110365e-35
2.9954632e-35
2.9041967e-35
2.5318166e-35
1.4873359e-35
2.2831452e-36
4.2126197e-39
7.9933455e-50
)
;

boundaryField
{
    Wall
    {
        type            zeroGradient;
    }
    frontAndBack
    {
        type            empty;
    }
    atmosphere
    {
        type            zeroGradient;
    }
}


// ************************************************************************* //
