/*--------------------------------*- C++ -*----------------------------------*\
| =========                 |                                                 |
| \\      /  F ield         | OpenFOAM: The Open Source CFD Toolbox           |
|  \\    /   O peration     | Version:  3.0.1                                 |
|   \\  /    A nd           | Web:      www.OpenFOAM.org                      |
|    \\/     M anipulation  |                                                 |
\*---------------------------------------------------------------------------*/
FoamFile
{
    version     2.0;
    format      ascii;
    class       volScalarField;
    location    "10";
    object      wBA_l;
}
// * * * * * * * * * * * * * * * * * * * * * * * * * * * * * * * * * * * * * //

dimensions      [0 0 0 0 0 0 0];

internalField   nonuniform List<scalar> 
800
(
0.056512599
0.056508406
0.056507091
0.056506363
0.0565058
0.056505346
0.056504993
0.056504735
0.056504567
0.056504484
0.056504484
0.056504567
0.056504735
0.056504993
0.056505346
0.0565058
0.056506363
0.056507091
0.056508406
0.056512599
0.056470044
0.056468795
0.056468709
0.056468759
0.056468812
0.056468859
0.0564689
0.056468935
0.05646896
0.056468973
0.056468973
0.05646896
0.056468935
0.056468901
0.056468859
0.056468813
0.05646876
0.05646871
0.056468795
0.056470045
0.043739788
0.043785989
0.043788975
0.043787774
0.043786135
0.043784646
0.043783428
0.043782526
0.043781938
0.04378165
0.043781651
0.043781938
0.043782526
0.043783428
0.043784647
0.043786136
0.043787775
0.043788975
0.043785989
0.043739787
0.027576979
0.027724619
0.027722523
0.027712712
0.02770425
0.027697384
0.027692213
0.027688535
0.02768618
0.027685035
0.027685036
0.027686183
0.027688539
0.027692219
0.027697391
0.027704257
0.027712721
0.027722532
0.027724629
0.027576989
0.012926498
0.013505986
0.01356021
0.013553092
0.013539166
0.013527043
0.013517941
0.013511529
0.013507448
0.013505462
0.013505463
0.013507451
0.013511533
0.013517948
0.013527051
0.013539174
0.013553101
0.013560219
0.013505994
0.012926512
0.0039273897
0.005134872
0.0053980664
0.0054564723
0.005464873
0.0054622552
0.0054583861
0.0054552955
0.0054532718
0.00545228
0.0054522794
0.0054532704
0.0054552934
0.0054583834
0.0054622517
0.005464868
0.0054564662
0.0053980579
0.005134863
0.0039273831
0.00065210259
0.0015671165
0.0018839136
0.001975241
0.0019974441
0.0020009019
0.0020001879
0.0019989895
0.0019981042
0.0019976574
0.0019976565
0.0019981016
0.0019989856
0.0020001828
0.0020008955
0.001997436
0.0019752314
0.0018839025
0.0015671059
0.00065209675
6.9614116e-05
0.0004080583
0.00060061216
0.00066690736
0.00068517194
0.00068905113
0.00068934501
0.00068898127
0.00068864481
0.00068846699
0.00068846629
0.00068864279
0.00068897813
0.0006893409
0.00068904608
0.00068516586
0.00066690034
0.00060060468
0.00040805206
6.9612486e-05
6.8668316e-06
9.7988446e-05
0.000178381
0.0002108036
0.00022040729
0.00022262573
0.00022291287
0.00022280877
0.00022268502
0.00022261692
0.00022261652
0.00022268386
0.00022280697
0.00022291052
0.00022262289
0.00022040396
0.0002107999
0.00017837733
9.7985883e-05
6.8665442e-06
6.7248852e-07
2.1903565e-05
4.9002925e-05
6.1608854e-05
6.5562093e-05
6.6514714e-05
6.6657253e-05
6.6628463e-05
6.6585492e-05
6.6561133e-05
6.6560945e-05
6.6584949e-05
6.6627621e-05
6.6656169e-05
6.6513425e-05
6.5560626e-05
6.1607283e-05
4.9001483e-05
2.1902739e-05
6.7244829e-07
6.3846873e-08
4.5122905e-06
1.2321593e-05
1.6459374e-05
1.7822674e-05
1.8160646e-05
1.8214752e-05
1.8207244e-05
1.8193629e-05
1.8185742e-05
1.8185668e-05
1.8193416e-05
1.8206914e-05
1.8214331e-05
1.8160154e-05
1.7822129e-05
1.6458815e-05
1.2321121e-05
4.5120712e-06
6.3842084e-08
5.7173726e-09
8.4991249e-07
2.818934e-06
3.9959546e-06
4.4014115e-06
4.5041894e-06
4.5213557e-06
4.5195842e-06
4.5157345e-06
4.5134638e-06
4.513439e-06
4.5156627e-06
4.5194734e-06
4.5212152e-06
4.5040276e-06
4.4012371e-06
3.9957837e-06
2.8188015e-06
8.4986286e-07
5.7168734e-09
4.7558674e-10
1.4602154e-07
5.8625326e-07
8.8094737e-07
9.8672991e-07
1.0140617e-06
1.0187795e-06
1.0184167e-06
1.0174531e-06
1.0168752e-06
1.0168679e-06
1.0174322e-06
1.0183844e-06
1.0187388e-06
1.0140153e-06
9.8668101e-07
8.8090144e-07
5.8622065e-07
1.4601168e-07
4.7554005e-10
3.653336e-11
2.2918607e-08
1.11106e-07
1.7682602e-07
2.0135018e-07
2.077975e-07
2.0894316e-07
2.0888137e-07
2.0866759e-07
2.0853718e-07
2.0853533e-07
2.0866226e-07
2.0887314e-07
2.0893279e-07
2.0778577e-07
2.0133803e-07
1.7681502e-07
1.1109881e-07
2.2916844e-08
3.6529368e-11
2.5895794e-12
3.297398e-09
1.9266619e-08
3.2452546e-08
3.7559168e-08
3.8923701e-08
3.9172821e-08
3.9164741e-08
3.9122432e-08
3.909615e-08
3.9095738e-08
3.912124e-08
3.9162896e-08
3.9170491e-08
3.892107e-08
3.7556468e-08
3.245017e-08
1.9265178e-08
3.29711e-09
2.589264e-12
1.6963761e-13
4.366375e-10
3.0708062e-09
5.4713225e-09
6.4350118e-09
6.6965545e-09
6.7455402e-09
6.7449488e-09
6.737419e-09
6.7326478e-09
6.7325662e-09
6.7371823e-09
6.7445814e-09
6.7450747e-09
6.6960276e-09
6.4344732e-09
5.4708581e-09
3.0705421e-09
4.3659421e-10
1.6961455e-13
1.0295773e-14
5.3431272e-11
4.5184962e-10
8.5124254e-10
1.0173024e-09
1.0630524e-09
1.07183e-09
1.0718915e-09
1.0706766e-09
1.0698899e-09
1.0698754e-09
1.0706346e-09
1.0718261e-09
1.0717468e-09
1.0629578e-09
1.0172056e-09
8.511602e-10
4.5180536e-10
5.3425287e-11
1.0294218e-14
5.8058275e-16
6.0652624e-12
6.1631446e-11
1.2273032e-10
1.4902337e-10
1.5637344e-10
1.578157e-10
1.5785122e-10
1.5767217e-10
1.5755346e-10
1.5755115e-10
1.5766546e-10
1.5784072e-10
1.5780227e-10
1.5635809e-10
1.4900763e-10
1.2271704e-10
6.1624663e-11
6.0645026e-12
5.8048628e-16
3.0504797e-17
6.4091751e-13
7.8213816e-12
1.6459982e-11
2.0305571e-11
2.1395898e-11
2.1614346e-11
2.1623236e-11
2.1598979e-11
2.1582478e-11
2.1582143e-11
2.1598003e-11
2.1621703e-11
2.1612375e-11
2.1393632e-11
2.0303238e-11
1.6458028e-11
7.8204291e-12
6.4082892e-13
3.0499297e-17
1.4974479e-18
6.3246178e-14
9.2657914e-13
2.0604263e-12
2.5823283e-12
2.7323513e-12
2.76299e-12
2.7646811e-12
2.7616436e-12
2.7595184e-12
2.7594737e-12
2.7615128e-12
2.7644752e-12
2.762724e-12
2.7320438e-12
2.5820105e-12
2.0601617e-12
9.2645598e-13
6.3236652e-14
1.4971583e-18
6.8853044e-20
5.8451897e-15
1.0277786e-13
2.4146482e-13
3.0744475e-13
3.2666667e-13
3.3066188e-13
3.3093437e-13
3.3058111e-13
3.3032629e-13
3.3032072e-13
3.3056479e-13
3.309086e-13
3.3062846e-13
3.2662788e-13
3.0740454e-13
2.4143156e-13
1.0276307e-13
5.8442375e-15
6.8838862e-20
2.9724266e-21
5.0726056e-16
1.0703014e-14
2.6564699e-14
3.436138e-14
3.6662622e-14
3.7148682e-14
3.7187489e-14
3.7149179e-14
3.7120613e-14
3.7119958e-14
3.714726e-14
3.718445e-14
3.714473e-14
3.6658018e-14
3.4356598e-14
2.6560775e-14
1.0701349e-14
5.0717129e-16
2.9717744e-21
1.2074382e-22
4.1434605e-17
1.0489639e-15
2.7502903e-15
3.6140362e-15
3.8722438e-15
3.9275911e-15
3.932585e-15
3.9286981e-15
3.9256932e-15
3.92562e-15
3.9284835e-15
3.9322444e-15
3.9271468e-15
3.8717249e-15
3.6134968e-15
2.7498516e-15
1.0487865e-15
4.1426687e-17
1.2071543e-22
4.6244233e-24
3.1925143e-18
9.6966452e-17
2.6855962e-16
3.5850911e-16
3.8573526e-16
3.9165067e-16
3.9223935e-16
3.9186935e-16
3.9157183e-16
3.9156403e-16
3.9184641e-16
3.9220287e-16
3.9160296e-16
3.856794e-16
3.5845103e-16
2.6851285e-16
9.6948449e-17
3.191846e-18
4.6232463e-24
1.6729805e-25
2.3248461e-19
8.4714799e-18
2.4783762e-17
3.361015e-17
3.6314483e-17
3.6909407e-17
3.6973559e-17
3.6940437e-17
3.6912641e-17
3.6911845e-17
3.6938094e-17
3.6969825e-17
3.6904508e-17
3.6308732e-17
3.3604172e-17
2.4778999e-17
8.4697367e-18
2.3243083e-19
1.6725155e-25
5.7266511e-27
1.6029736e-20
7.0075432e-19
2.1654796e-18
2.9833207e-18
3.2369102e-18
3.2933417e-18
3.2998484e-18
3.2970548e-18
3.2945989e-18
3.2945215e-18
3.2968269e-18
3.2994841e-18
3.2928623e-18
3.2363458e-18
2.982734e-18
2.1650172e-18
7.0059352e-19
1.6025616e-20
5.7249032e-27
1.8576448e-28
1.0481927e-21
5.4974726e-20
1.7944302e-19
2.511391e-19
2.7363214e-19
2.7869113e-19
2.7930851e-19
2.7908619e-19
2.7888061e-19
2.7887348e-19
2.7906516e-19
2.792748e-19
2.7864661e-19
2.7357956e-19
2.510844e-19
1.7940037e-19
5.4960647e-20
1.0478933e-21
1.8570219e-28
5.7216254e-30
6.5101342e-23
4.0964806e-21
1.4123644e-20
2.008057e-20
2.1971084e-20
2.2400522e-20
2.2455546e-20
2.2438835e-20
2.2422503e-20
2.2421883e-20
2.2437002e-20
2.2452601e-20
2.2396618e-20
2.1966456e-20
2.0075751e-20
1.4119926e-20
4.0953154e-21
6.508077e-23
5.7166037e-30
3.3927412e-31
3.8456654e-24
2.9034437e-22
1.0573544e-21
1.5271833e-21
1.6779915e-21
1.712567e-21
1.7171888e-21
1.7160012e-21
1.7147684e-21
1.7147176e-21
1.7158509e-21
1.7169465e-21
1.7122446e-21
1.6776079e-21
1.5267834e-21
1.0570491e-21
2.9025351e-22
3.8443208e-24
1.6722571e-31
3.092606e-32
2.1634035e-25
1.9598599e-23
7.538827e-23
1.1061539e-22
1.2204994e-22
1.2469441e-22
1.2506128e-22
1.2498148e-22
1.2489294e-22
1.2488902e-22
1.2496989e-22
1.2504254e-22
1.2466939e-22
1.2202006e-22
1.105842e-22
7.5364703e-23
1.9591932e-23
2.1625559e-25
4.6541314e-33
2.2661862e-33
1.1603581e-26
1.2614077e-24
5.1251565e-24
7.6394132e-24
8.4645863e-24
8.6569932e-24
8.6845776e-24
8.6795069e-24
8.6734493e-24
8.6731659e-24
8.6786663e-24
8.6832155e-24
8.6551678e-24
8.4623989e-24
7.6371281e-24
5.1234477e-24
1.260948e-24
1.1598494e-26
1.2337603e-34
1.3681556e-34
5.9401831e-28
7.7495128e-26
3.3258383e-25
5.036108e-25
5.6035673e-25
5.7369109e-25
5.7565961e-25
5.7535507e-25
5.749599e-25
5.7494058e-25
5.7529772e-25
5.7556647e-25
5.7356587e-25
5.602062e-25
5.0345344e-25
3.324674e-25
7.7465334e-26
5.9372952e-28
3.118376e-36
7.1093029e-36
2.9052935e-29
4.5489922e-27
2.0621481e-26
3.1721571e-26
3.544444e-26
3.6325701e-26
3.6459266e-26
3.6441998e-26
3.6417391e-26
3.641615e-26
3.643831e-26
3.6453265e-26
3.6317611e-26
3.543469e-26
3.1711375e-26
2.0614018e-26
4.5471761e-27
2.9037479e-29
7.5222358e-38
3.2271576e-37
1.35881e-30
2.5537498e-28
1.222825e-27
1.9109089e-27
2.1441604e-27
2.1997619e-27
2.2083914e-27
2.2074688e-27
2.2060048e-27
2.2059295e-27
2.2072448e-27
2.2080264e-27
2.1992687e-27
2.1435649e-27
1.9102863e-27
1.2223744e-27
2.5527073e-28
1.3580323e-30
1.7332871e-39
1.2614577e-38
6.0823533e-32
1.372253e-29
6.9407327e-29
1.1018481e-28
1.241546e-28
1.2750694e-28
1.2803857e-28
1.2799228e-28
1.2790899e-28
1.2790466e-28
1.2797941e-28
1.2801757e-28
1.2747852e-28
1.2412023e-28
1.1014891e-28
6.9381651e-29
1.3716885e-29
6.0786883e-32
3.818167e-41
3.963398e-40
2.6077464e-33
7.0635844e-31
3.7738604e-30
6.0861531e-30
6.8866457e-30
7.0799703e-30
7.1112376e-30
7.1090689e-30
7.104533e-30
7.1042973e-30
7.1083671e-30
7.1100918e-30
7.0784192e-30
6.8847686e-30
6.0841958e-30
3.7724774e-30
7.0606965e-31
2.6061409e-33
8.0469112e-43
7.3580855e-42
1.0716387e-34
3.4855185e-32
1.9670836e-31
3.2227058e-31
3.6619237e-31
3.7686497e-31
3.7862246e-31
3.785285e-31
3.7829189e-31
3.7827968e-31
3.7849214e-31
3.785631e-31
3.7678461e-31
3.6609516e-31
3.2216946e-31
1.9663782e-31
3.4841208e-32
1.0709946e-34
1.6236647e-44
9.9931796e-44
4.2238479e-36
1.6498767e-33
9.8357736e-33
1.6369976e-32
1.8679305e-32
1.924377e-32
1.9338275e-32
1.9334577e-32
1.9322746e-32
1.9322143e-32
1.9332783e-32
1.9335348e-32
1.9239812e-32
1.8674523e-32
1.6365018e-32
9.8323614e-33
1.6492361e-33
4.2214768e-36
3.1385701e-46
1.3124576e-45
1.5977616e-37
7.4961978e-35
4.7207431e-34
7.9816852e-34
9.1460301e-34
9.4322557e-34
9.4809155e-34
9.4796443e-34
9.4739687e-34
9.4736847e-34
9.4787995e-34
9.4795393e-34
9.430398e-34
9.1437917e-34
7.9793754e-34
4.7191763e-34
7.4934114e-35
1.5969273e-37
5.8153732e-48
1.6752218e-47
5.8034516e-39
3.2709385e-36
2.1760623e-35
3.7377261e-35
4.3010473e-35
4.4402967e-35
4.4643093e-35
4.4639668e-35
4.4613535e-35
4.4612255e-35
4.4635866e-35
4.4636911e-35
4.4394645e-35
4.3000484e-35
3.7367016e-35
2.1753781e-35
3.2697863e-36
5.8006465e-39
1.0333394e-49
)
;

boundaryField
{
    Wall
    {
        type            zeroGradient;
    }
    frontAndBack
    {
        type            empty;
    }
    atmosphere
    {
        type            zeroGradient;
    }
}


// ************************************************************************* //
