/*--------------------------------*- C++ -*----------------------------------*\
| =========                 |                                                 |
| \\      /  F ield         | OpenFOAM: The Open Source CFD Toolbox           |
|  \\    /   O peration     | Version:  3.0.1                                 |
|   \\  /    A nd           | Web:      www.OpenFOAM.org                      |
|    \\/     M anipulation  |                                                 |
\*---------------------------------------------------------------------------*/
FoamFile
{
    version     2.0;
    format      ascii;
    class       volScalarField;
    location    "10";
    object      wBA_g;
}
// * * * * * * * * * * * * * * * * * * * * * * * * * * * * * * * * * * * * * //

dimensions      [0 0 0 0 0 0 0];

internalField   nonuniform List<scalar> 
800
(
0.010106361
0.010106331
0.010106158
0.01010607
0.010105999
0.010105937
0.010105888
0.01010585
0.010105826
0.010105813
0.010105813
0.010105826
0.01010585
0.010105888
0.010105937
0.010105999
0.01010607
0.010106158
0.010106331
0.010106361
0.0030530988
0.0031814415
0.0031872376
0.0031909055
0.0031936182
0.0031956635
0.0031971735
0.0031982405
0.003198923
0.0031992559
0.0031992559
0.0031989229
0.0031982403
0.0031971733
0.0031956635
0.0031936181
0.0031909055
0.0031872377
0.0031814416
0.0030530986
0.0010612618
0.0010682991
0.0010700691
0.0010710514
0.001071715
0.0010721854
0.0010725156
0.0010727413
0.0010728826
0.0010729509
0.0010729508
0.0010728825
0.001072741
0.0010725153
0.001072185
0.0010717146
0.001071051
0.0010700687
0.0010682986
0.0010612612
0.00038311894
0.00038612179
0.000386536
0.00038669533
0.00038677393
0.00038681288
0.00038683255
0.00038684265
0.0003868478
0.00038685007
0.00038685007
0.00038684778
0.00038684262
0.00038683251
0.00038681285
0.00038677388
0.00038669528
0.00038653595
0.00038612172
0.00038311885
0.00011586016
0.00011938842
0.00011960265
0.00011949973
0.00011936333
0.00011924587
0.00011915632
0.00011909237
0.00011905135
0.00011903132
0.00011903133
0.00011905138
0.00011909242
0.00011915639
0.00011924595
0.00011936341
0.00011949983
0.00011960275
0.00011938852
0.00011586033
2.385892e-05
3.0015515e-05
3.1406637e-05
3.1739545e-05
3.178877e-05
3.1770096e-05
3.1743142e-05
3.1721372e-05
3.1706999e-05
3.1699934e-05
3.1699933e-05
3.1706995e-05
3.1721365e-05
3.1743135e-05
3.1770085e-05
3.1788752e-05
3.1739526e-05
3.140661e-05
3.0015486e-05
2.3858909e-05
2.7388352e-06
6.2056897e-06
7.4878428e-06
7.8873744e-06
7.9903484e-06
8.0071342e-06
8.0037132e-06
7.9977573e-06
7.9933016e-06
7.9910442e-06
7.9910416e-06
7.9932936e-06
7.9977446e-06
8.0036964e-06
8.0071131e-06
7.990322e-06
7.8873446e-06
7.4878096e-06
6.2056591e-06
2.73882e-06
1.9545165e-07
1.1096292e-06
1.6800813e-06
1.8934641e-06
1.9556272e-06
1.9693797e-06
1.9705225e-06
1.9692501e-06
1.9680433e-06
1.9674018e-06
1.9674001e-06
1.9680383e-06
1.9692421e-06
1.970512e-06
1.9693669e-06
1.9556118e-06
1.8934472e-06
1.6800641e-06
1.1096158e-06
1.9544848e-07
1.2720953e-08
1.8890442e-07
3.6454383e-07
4.4219272e-07
4.6651672e-07
4.7235644e-07
4.7316191e-07
4.7290976e-07
4.7259105e-07
4.72414e-07
4.7241323e-07
4.7258878e-07
4.729062e-07
4.7315726e-07
4.7235084e-07
4.6651022e-07
4.421858e-07
3.6453737e-07
1.8890033e-07
1.2720558e-08
8.4843646e-10
3.1354626e-08
7.6332621e-08
9.9417007e-08
1.070701e-07
1.0898276e-07
1.0928645e-07
1.0923873e-07
1.0915739e-07
1.0911064e-07
1.0911035e-07
1.0915655e-07
1.0923742e-07
1.0928476e-07
1.0898075e-07
1.0706784e-07
9.9414685e-08
7.6330626e-08
3.1353614e-08
8.483963e-10
5.8671954e-11
5.0502849e-09
1.5275547e-08
2.126455e-08
2.3346504e-08
2.388027e-08
2.3970628e-08
2.3961999e-08
2.3942304e-08
2.3930686e-08
2.3930594e-08
2.3942035e-08
2.3961582e-08
2.3970093e-08
2.3879647e-08
2.3345821e-08
2.1263877e-08
1.5275015e-08
5.0500691e-09
5.8668262e-11
4.1435987e-12
7.8172516e-10
2.8966355e-09
4.2903158e-09
4.7950895e-09
4.9269394e-09
4.9501012e-09
4.9486389e-09
4.9441828e-09
4.9415009e-09
4.9414747e-09
4.9441068e-09
4.9485211e-09
4.9499516e-09
4.9267675e-09
4.7949061e-09
4.2901422e-09
2.8965098e-09
7.8168409e-10
4.1432807e-12
2.9272423e-13
1.1540746e-10
5.1786597e-10
8.1291942e-10
9.2375254e-10
9.5314198e-10
9.5844031e-10
9.5821812e-10
9.5728575e-10
9.5671488e-10
9.5670827e-10
9.5726661e-10
9.5818849e-10
9.5840284e-10
9.5309938e-10
9.2370806e-10
8.1287892e-10
5.1783901e-10
1.1540032e-10
2.9269812e-13
2.0308978e-14
1.6178776e-11
8.7125851e-11
1.4448684e-10
1.6676184e-10
1.7274642e-10
1.7384849e-10
1.7382083e-10
1.7364115e-10
1.7352934e-10
1.7352784e-10
1.7363683e-10
1.7381413e-10
1.7384003e-10
1.7273686e-10
1.6675201e-10
1.4447818e-10
8.7120518e-11
1.617762e-11
2.0306916e-14
1.3653698e-15
2.1494057e-12
1.3795638e-11
2.4109343e-11
2.8240468e-11
2.9363853e-11
2.9574762e-11
2.9572671e-11
2.9540761e-11
2.9520572e-11
2.9520268e-11
2.9539879e-11
2.9571304e-11
2.9573034e-11
2.9361903e-11
2.8238479e-11
2.4107633e-11
1.3794654e-11
2.1492294e-12
1.365213e-15
8.8188634e-17
2.7047726e-13
2.0583872e-12
3.7835019e-12
4.4951166e-12
4.6908704e-12
4.7283059e-12
4.7284766e-12
4.7232372e-12
4.7198637e-12
4.7198076e-12
4.7230744e-12
4.7282234e-12
4.7279847e-12
4.6905072e-12
4.4947472e-12
3.7831894e-12
2.0582172e-12
2.7045184e-13
8.8177197e-17
5.4451131e-18
3.2250547e-14
2.898924e-13
5.5961433e-13
6.7407131e-13
7.0591166e-13
7.1211021e-13
7.1222505e-13
7.1142621e-13
7.1090209e-13
7.1089267e-13
7.1139881e-13
7.1218227e-13
7.1205569e-13
7.0584973e-13
6.7400821e-13
5.5956147e-13
2.89865e-13
3.2247097e-14
5.4443217e-18
3.2056453e-19
3.6467175e-15
3.860789e-14
7.8186453e-14
9.5450664e-14
1.0030647e-13
1.0126815e-13
1.0129882e-13
1.0118522e-13
1.0110914e-13
1.0110768e-13
1.0118098e-13
1.0129219e-13
1.0125965e-13
1.0029676e-13
9.5440728e-14
7.8178173e-14
3.8603772e-14
3.6462788e-15
3.2051296e-19
1.7975831e-20
3.9147672e-16
4.8714021e-15
1.0340725e-14
1.2791658e-14
1.348852e-14
1.3628814e-14
1.3635062e-14
1.3619926e-14
1.3609563e-14
1.3609355e-14
1.361932e-14
1.363411e-14
1.3627587e-14
1.3487111e-14
1.2790209e-14
1.0339521e-14
4.8708254e-15
3.914245e-16
1.7972676e-20
9.6004626e-22
3.9947468e-17
5.8338327e-16
1.2972424e-15
1.6257386e-15
1.7201381e-15
1.7394398e-15
1.7405272e-15
1.7386305e-15
1.7373006e-15
1.7372728e-15
1.7385494e-15
1.7403993e-15
1.7392745e-15
1.719947e-15
1.6255411e-15
1.2970787e-15
5.8330767e-16
3.9941638e-17
9.5986483e-22
4.8858639e-23
3.8799092e-18
6.6423471e-17
1.546518e-16
1.9632847e-16
2.0843098e-16
2.1094186e-16
2.1111068e-16
2.1088638e-16
2.10725e-16
2.107215e-16
2.1087613e-16
2.1109446e-16
2.1092082e-16
2.0840654e-16
1.963031e-16
1.5463083e-16
6.6414131e-17
3.8792946e-18
4.8848772e-23
2.3713832e-24
3.5915473e-19
7.2021317e-18
1.7551182e-17
2.256796e-17
2.4039825e-17
2.4349369e-17
2.4373273e-17
2.4348166e-17
2.4329591e-17
2.4329168e-17
2.4346927e-17
2.4371309e-17
2.4346812e-17
2.4036844e-17
2.2564857e-17
1.7548628e-17
7.2010344e-18
3.5909308e-19
2.3708717e-24
1.0988082e-25
3.1728183e-20
7.4479361e-19
1.8992167e-18
2.4733562e-18
2.6435082e-18
2.679748e-18
2.6828768e-18
2.6802096e-18
2.6781763e-18
2.6781271e-18
2.6800654e-18
2.6826476e-18
2.6794488e-18
2.6431583e-18
2.4729913e-18
1.8989179e-18
7.4466998e-19
3.1722253e-20
1.0985536e-25
4.8662269e-27
2.6784116e-21
7.3564947e-20
1.9624978e-19
2.5883481e-19
2.7756677e-19
2.8160356e-19
2.8198554e-19
2.8171605e-19
2.8150387e-19
2.8149834e-19
2.816998e-19
2.8195967e-19
2.8156969e-19
2.7752705e-19
2.5879335e-19
1.9621603e-19
7.3551517e-20
2.6778618e-21
4.8650046e-27
2.0621431e-28
2.1633487e-22
6.9495131e-21
1.9391696e-20
2.5900612e-20
2.7867743e-20
2.8296319e-20
2.83401e-20
2.8314154e-20
2.8293006e-20
2.8292405e-20
2.8312384e-20
2.8337276e-20
2.829261e-20
2.7863381e-20
2.5896056e-20
1.9388012e-20
6.9481044e-21
2.1628568e-22
2.0615765e-28
8.3715408e-30
1.6738694e-23
6.2869606e-22
1.8346787e-21
2.4815151e-21
2.678872e-21
2.7223086e-21
2.7270434e-21
2.7246593e-21
2.7226429e-21
2.7225798e-21
2.7244736e-21
2.7267463e-21
2.7219172e-21
2.6784102e-21
2.4810321e-21
1.834291e-21
6.2855372e-22
1.6734456e-23
8.3690102e-30
3.2594503e-31
1.242136e-24
5.4532174e-23
1.6640702e-22
2.2791586e-22
2.4685909e-22
2.5106796e-22
2.51553e-22
2.5134366e-22
2.5115946e-22
2.5115312e-22
2.5132498e-22
2.5152303e-22
2.5102833e-22
2.4681218e-22
2.2786671e-22
1.6636786e-22
5.4518373e-23
1.2417858e-24
3.2583661e-31
1.2197598e-32
8.8501952e-26
4.5402925e-24
1.4485983e-23
2.0090041e-23
2.1831876e-23
2.2222316e-23
2.2269534e-23
2.225195e-23
2.2235811e-23
2.2235204e-23
2.2250157e-23
2.226665e-23
2.2218487e-23
2.1827326e-23
2.0085265e-23
1.4482204e-23
4.5390147e-24
8.8474302e-26
1.2180129e-32
7.6731026e-34
6.060857e-27
3.6324487e-25
1.211593e-24
1.7013889e-24
1.8550063e-24
1.8897263e-24
1.8941063e-24
1.8926921e-24
1.8913344e-24
1.891279e-24
1.8925285e-24
1.8938423e-24
1.8893746e-24
1.8545867e-24
1.7009474e-24
1.2112461e-24
3.6313227e-25
6.0587601e-27
4.3760719e-34
7.3786933e-35
3.9934851e-28
2.7953734e-26
9.7462784e-26
1.3857454e-25
1.5158371e-25
1.5454692e-25
1.5493492e-25
1.5482595e-25
1.5471617e-25
1.5471138e-25
1.5481178e-25
1.5491199e-25
1.5451624e-25
1.5154697e-25
1.3853581e-25
9.7432556e-26
2.7944307e-26
3.9919404e-28
1.5126203e-35
6.1898061e-36
2.5340778e-29
2.0711937e-27
7.547622e-27
1.0865158e-26
1.1924162e-26
1.2167152e-26
1.2200042e-26
1.2191993e-26
1.2183453e-26
1.218306e-26
1.2190827e-26
1.2198151e-26
1.2164615e-26
1.1921112e-26
1.0861936e-26
7.5451244e-27
2.0704448e-27
2.5329864e-29
5.0349882e-37
4.4305231e-37
1.5499903e-30
1.4788888e-28
5.6320169e-28
8.2083167e-28
9.0378266e-28
9.2294782e-28
9.2562006e-28
9.2504988e-28
9.2441031e-28
9.2437965e-28
9.2495886e-28
9.2547209e-28
9.227486e-28
9.0354234e-28
8.205774e-28
5.6300595e-28
1.4783245e-28
1.5492553e-30
1.6153931e-38
2.7817599e-38
9.1463865e-32
1.0184894e-29
4.0529585e-29
5.9801104e-29
6.6059039e-29
6.751438e-29
6.7722801e-29
6.7684057e-29
6.7637896e-29
6.7635621e-29
6.7677297e-29
6.7711789e-29
6.7499513e-29
6.6041053e-29
5.9782048e-29
4.0515023e-29
1.0180858e-29
9.1416824e-32
4.9996054e-40
1.5464405e-39
5.2111262e-33
6.7707378e-31
2.8150544e-30
4.2048739e-30
4.6599811e-30
4.7664805e-30
4.7821063e-30
4.779581e-30
4.7763676e-30
4.7762067e-30
4.7791026e-30
4.7813258e-30
4.7654243e-30
4.6587003e-30
4.2035159e-30
2.8140245e-30
6.7679936e-31
5.2082713e-33
1.4938805e-41
7.4857109e-41
2.8688329e-34
4.3481775e-32
1.8886046e-31
2.8557383e-31
3.1750648e-31
3.2502338e-31
3.2615087e-31
3.2599299e-31
3.2577706e-31
3.257662e-31
3.2596067e-31
3.2609806e-31
3.2495182e-31
3.1741954e-31
2.8548164e-31
1.8879111e-31
4.3464018e-32
2.867195e-34
4.3126274e-43
2.9400976e-42
1.5271481e-35
2.699513e-33
1.2247578e-32
1.8746521e-32
2.0909936e-32
2.1422087e-32
2.1500471e-32
2.149101e-32
2.1476993e-32
2.1476291e-32
2.148892e-32
2.1497054e-32
2.1417453e-32
2.0904302e-32
1.8740549e-32
1.2243124e-32
2.6984177e-33
1.5262651e-35
1.203694e-44
6.8498974e-44
7.8659325e-37
1.6213165e-34
7.6826727e-34
1.1903042e-33
1.3319342e-33
1.3656444e-33
1.3709001e-33
1.3703571e-33
1.3694774e-33
1.3694338e-33
1.3702275e-33
1.3706883e-33
1.3653571e-33
1.3315849e-33
1.1899345e-33
7.6799398e-34
1.6206716e-34
7.8615127e-37
3.2502668e-46
1.1849468e-45
3.9227291e-38
9.4261337e-36
4.6645351e-35
7.314961e-35
8.2115434e-35
8.4260553e-35
8.4600743e-35
8.4570945e-35
8.4517524e-35
8.4514931e-35
8.4563226e-35
8.4588134e-35
8.4243465e-35
8.2094683e-35
7.3127698e-35
4.662931e-35
9.4225053e-36
3.9206675e-38
8.4958847e-48
2.0153296e-47
1.8951971e-39
5.3081309e-37
2.7428454e-36
4.3535956e-36
4.9028103e-36
5.034872e-36
5.0561488e-36
5.054589e-36
5.0514484e-36
5.0512996e-36
5.0541465e-36
5.055427e-36
5.0338954e-36
4.9016271e-36
4.3523506e-36
2.7419437e-36
5.3061767e-37
1.8942699e-39
2.1508689e-49
3.3949756e-49
8.8751361e-41
2.8968731e-38
1.562917e-37
2.5108176e-37
2.8365779e-37
2.9152911e-37
2.9281609e-37
2.9273857e-37
2.925597e-37
2.9255146e-37
2.9271411e-37
2.9277627e-37
2.9147536e-37
2.8359291e-37
2.5101383e-37
1.5624309e-37
2.8958637e-38
8.8711157e-41
5.2763868e-51
)
;

boundaryField
{
    Wall
    {
        type            zeroGradient;
    }
    frontAndBack
    {
        type            empty;
    }
    atmosphere
    {
        type            zeroGradient;
    }
}


// ************************************************************************* //
