/*--------------------------------*- C++ -*----------------------------------*\
| =========                 |                                                 |
| \\      /  F ield         | OpenFOAM: The Open Source CFD Toolbox           |
|  \\    /   O peration     | Version:  3.0.1                                 |
|   \\  /    A nd           | Web:      www.OpenFOAM.org                      |
|    \\/     M anipulation  |                                                 |
\*---------------------------------------------------------------------------*/
FoamFile
{
    version     2.0;
    format      ascii;
    class       volScalarField;
    location    "10";
    object      wCO2_g;
}
// * * * * * * * * * * * * * * * * * * * * * * * * * * * * * * * * * * * * * //

dimensions      [0 0 0 0 0 0 0];

internalField   nonuniform List<scalar> 
800
(
0.0025997705
0.0025996198
0.0025995609
0.0025995306
0.002599507
0.0025994875
0.0025994722
0.002599461
0.0025994536
0.0025994499
0.0025994499
0.0025994536
0.0025994609
0.0025994722
0.0025994876
0.002599507
0.0025995306
0.0025995609
0.0025996198
0.0025997705
0.0017894919
0.0017930984
0.0017942803
0.0017950431
0.0017955993
0.0017960129
0.0017963151
0.0017965271
0.0017966621
0.0017967278
0.0017967278
0.0017966621
0.0017965271
0.001796315
0.0017960128
0.0017955992
0.001795043
0.0017942803
0.0017930983
0.0017894917
0.0010870035
0.00109221
0.0010929111
0.0010932314
0.0010934205
0.0010935428
0.0010936227
0.0010936749
0.0010937068
0.001093722
0.001093722
0.0010937067
0.0010936748
0.0010936226
0.0010935427
0.0010934203
0.0010932313
0.0010929109
0.0010922098
0.0010870033
0.00042826997
0.00043560945
0.00043571887
0.0004356527
0.00043556664
0.0004354837
0.00043541558
0.00043536482
0.00043533155
0.00043531523
0.00043531524
0.00043533158
0.00043536486
0.00043541564
0.00043548377
0.00043556671
0.00043565279
0.00043571896
0.00043560954
0.00042827005
0.00012170285
0.00012619308
0.00012632682
0.00012615854
0.00012597368
0.00012582075
0.00012570588
0.00012562449
0.00012557248
0.00012554714
0.00012554716
0.00012557252
0.00012562456
0.00012570598
0.00012582087
0.0001259738
0.00012615868
0.00012632697
0.00012619324
0.00012170307
2.4616554e-05
3.1125862e-05
3.2547236e-05
3.2878942e-05
3.2921513e-05
3.2896496e-05
3.2864682e-05
3.2839504e-05
3.282298e-05
3.2814877e-05
3.2814877e-05
3.2822979e-05
3.2839501e-05
3.2864679e-05
3.2896491e-05
3.2921503e-05
3.287893e-05
3.2547216e-05
3.1125841e-05
2.4616549e-05
2.8273239e-06
6.4430765e-06
7.7665318e-06
8.1762921e-06
8.2807377e-06
8.2968986e-06
8.2926089e-06
8.2859633e-06
8.2810584e-06
8.2785823e-06
8.2785796e-06
8.2810506e-06
8.2859509e-06
8.2925925e-06
8.2968779e-06
8.2807116e-06
8.1762625e-06
7.7664986e-06
6.443046e-06
2.8273085e-06
2.0559367e-07
1.1722662e-06
1.7689632e-06
1.9905722e-06
2.0547451e-06
2.0687671e-06
2.0697954e-06
2.0683757e-06
2.0670638e-06
2.0663699e-06
2.0663681e-06
2.0670586e-06
2.0683675e-06
2.0697845e-06
2.0687537e-06
2.0547291e-06
1.9905545e-06
1.7689452e-06
1.1722521e-06
2.0559025e-07
1.400264e-08
2.0658485e-07
3.950542e-07
4.7743957e-07
5.0307223e-07
5.0917788e-07
5.0999206e-07
5.0970469e-07
5.0935609e-07
5.0916353e-07
5.0916269e-07
5.0935364e-07
5.0970086e-07
5.0998707e-07
5.0917186e-07
5.0306525e-07
4.7743208e-07
3.9504713e-07
2.0658031e-07
1.4002186e-08
1.0054216e-09
3.6024606e-08
8.6150956e-08
1.1144481e-07
1.1975576e-07
1.2181749e-07
1.22138e-07
1.2208107e-07
1.2198993e-07
1.2193787e-07
1.2193755e-07
1.2198899e-07
1.220796e-07
1.2213611e-07
1.2181524e-07
1.1975323e-07
1.1144219e-07
8.6148671e-08
3.6023417e-08
1.0053715e-09
7.6240773e-11
6.1518934e-09
1.809628e-08
2.4933975e-08
2.7284276e-08
2.7882126e-08
2.7981532e-08
2.7970462e-08
2.7947526e-08
2.7934092e-08
2.7933983e-08
2.7947211e-08
2.7969973e-08
2.7980906e-08
2.7881396e-08
2.7283475e-08
2.4933177e-08
1.809564e-08
6.1516235e-09
7.6235722e-11
5.9260886e-12
1.0126199e-09
3.6146557e-09
5.2820156e-09
5.8779416e-09
6.0323099e-09
6.0589726e-09
6.056905e-09
6.0514645e-09
6.0482164e-09
6.0481841e-09
6.0513712e-09
6.0567604e-09
6.058789e-09
6.0320988e-09
5.8777158e-09
5.2817997e-09
3.6144963e-09
1.0125654e-09
5.9256135e-12
4.5771463e-13
1.5874039e-10
6.8082036e-10
1.0515954e-09
1.1888415e-09
1.2249254e-09
1.2313262e-09
1.2309708e-09
1.2297735e-09
1.2290469e-09
1.2290383e-09
1.2297488e-09
1.2309327e-09
1.231278e-09
1.2248705e-09
1.188784e-09
1.0515426e-09
6.8078439e-10
1.5873034e-10
4.5767238e-13
3.4359728e-14
2.353655e-11
1.2042451e-10
1.9612485e-10
2.2507043e-10
2.3278183e-10
2.3418053e-10
2.3412773e-10
2.3388513e-10
2.3373558e-10
2.3373356e-10
2.3387928e-10
2.3411868e-10
2.3416911e-10
2.3276892e-10
2.2505711e-10
1.96113e-10
1.2041704e-10
2.3534835e-11
3.4356147e-14
2.4745448e-15
3.2909054e-12
1.9983266e-11
3.4251422e-11
3.9877441e-11
4.1395012e-11
4.167601e-11
4.1669997e-11
4.1624809e-11
4.1596503e-11
4.1596072e-11
4.1623562e-11
4.1668065e-11
4.1673567e-11
4.1392255e-11
3.9874622e-11
3.4248976e-11
1.9981824e-11
3.2906309e-12
2.4742547e-15
1.6984583e-16
4.3366113e-13
3.113236e-12
5.6080273e-12
6.6212701e-12
6.8978946e-12
6.9501462e-12
6.9498533e-12
6.9420974e-12
6.9371547e-12
6.9370719e-12
6.9418573e-12
6.94948e-12
6.9496728e-12
6.8973591e-12
6.6207241e-12
5.6075612e-12
3.1129764e-12
4.336198e-13
1.6982345e-16
1.1078745e-17
5.3897619e-14
4.561121e-13
8.6255939e-13
1.0324522e-12
1.0793855e-12
1.0884239e-12
1.0885115e-12
1.0872798e-12
1.0864801e-12
1.0864656e-12
1.0872378e-12
1.0884459e-12
1.0883404e-12
1.0792906e-12
1.0323553e-12
8.6247746e-13
4.5606861e-13
5.3891785e-14
1.1077113e-17
6.8623633e-19
6.3268641e-15
6.2970918e-14
1.2491411e-13
1.5154519e-13
1.5898807e-13
1.6044831e-13
1.604838e-13
1.6030198e-13
1.601815e-13
1.6017919e-13
1.6029524e-13
1.6047326e-13
1.6043481e-13
1.5897264e-13
1.5152937e-13
1.2490082e-13
6.296415e-14
6.326095e-15
6.8612469e-19
4.0379859e-20
7.0268254e-16
8.2104781e-15
1.707268e-14
2.09896e-14
2.2096875e-14
2.2317988e-14
2.2326399e-14
2.2301332e-14
2.2284354e-14
2.2284013e-14
2.2300336e-14
2.2324835e-14
2.2315974e-14
2.209456e-14
2.0987215e-14
1.7070682e-14
8.2094992e-15
7.0258795e-16
4.0372703e-20
2.2593372e-21
7.3974725e-17
1.0132186e-15
2.2072882e-15
2.7496068e-15
2.9046407e-15
2.936118e-15
2.9377161e-15
2.9344751e-15
2.9322274e-15
2.9321804e-15
2.9343378e-15
2.9374997e-15
2.9358382e-15
2.9043173e-15
2.749272e-15
2.2070084e-15
1.0130865e-15
7.3963839e-17
2.2589065e-21
1.2035617e-22
7.3954867e-18
1.1859212e-16
2.7054175e-16
3.4143077e-16
3.6191911e-16
3.6614387e-16
3.6640769e-16
3.6601319e-16
3.6573252e-16
3.6572642e-16
3.6599534e-16
3.6637947e-16
3.6610725e-16
3.6187658e-16
3.4138656e-16
2.7050493e-16
1.1857534e-16
7.3943065e-18
1.2033167e-22
6.1126525e-24
7.0338756e-19
1.3191372e-17
3.1500687e-17
4.0271717e-17
4.2833983e-17
4.3369972e-17
4.3409137e-17
4.3363781e-17
4.3330612e-17
4.3329857e-17
4.3361568e-17
4.3405631e-17
4.3365407e-17
4.282866e-17
4.0266169e-17
3.1496085e-17
1.3189351e-17
7.0326599e-19
6.1113245e-24
2.9640435e-25
6.3755804e-20
1.3970641e-18
3.4909888e-18
4.5206452e-18
4.8245939e-18
4.8890256e-18
4.8943542e-18
4.889414e-18
4.885693e-18
4.8856031e-18
4.8891502e-18
4.8939352e-18
4.8884786e-18
4.8239541e-18
4.5199771e-18
3.4904377e-18
1.396831e-18
6.3743813e-20
2.9633523e-25
1.3741869e-26
5.5164029e-21
1.4112125e-19
3.6888678e-19
4.8381633e-19
5.1809039e-19
5.2544556e-19
5.2611788e-19
5.2560686e-19
5.2520957e-19
5.2519922e-19
5.2557647e-19
5.2606952e-19
5.2538225e-19
5.1801614e-19
4.8373871e-19
3.6882316e-19
1.4109537e-19
5.5152641e-21
1.3738397e-26
6.099672e-28
4.563276e-22
1.3618347e-20
3.722819e-20
4.9449394e-20
5.3130419e-20
5.392937e-20
5.400869e-20
5.3958378e-20
5.3917916e-20
5.3916767e-20
5.3954998e-20
5.4003297e-20
5.392229e-20
5.3122092e-20
4.9440681e-20
3.72211e-20
1.3615575e-20
4.5622331e-22
6.097987e-28
2.5955708e-29
3.6142181e-23
1.2573894e-21
3.5937789e-21
4.8340368e-21
5.2112511e-21
5.2939876e-21
5.3027913e-21
5.2980683e-21
5.2941303e-21
5.2940074e-21
5.2977065e-21
5.3022125e-21
5.2932252e-21
5.2103516e-21
4.8330945e-21
3.5930178e-21
1.2571037e-21
3.6132989e-23
2.5947824e-29
1.060135e-30
2.7444882e-24
1.1123488e-22
3.323153e-22
4.5263448e-22
4.8957806e-22
4.9776038e-22
4.9868392e-22
4.9826054e-22
4.9789367e-22
4.9788109e-22
4.9822344e-22
4.9862441e-22
4.9768171e-22
4.8948491e-22
4.5253676e-22
3.3223694e-22
1.1120664e-22
2.7437111e-24
1.0597808e-30
4.164367e-32
2.0006549e-25
9.4407915e-24
2.9474359e-23
4.0649054e-23
4.4112272e-23
4.4886293e-23
4.4978208e-23
4.4941919e-23
4.490916e-23
4.4907931e-23
4.4938291e-23
4.4972374e-23
4.4878549e-23
4.4103069e-23
4.0639381e-23
2.9466657e-23
9.4381267e-24
2.0000275e-25
4.1594667e-32
2.3550514e-33
1.4017377e-26
7.6966916e-25
2.5105529e-24
3.5055403e-24
3.8167262e-24
3.8868661e-24
3.8955719e-24
3.8925946e-24
3.8897873e-24
3.8896733e-24
3.8922575e-24
3.8950281e-24
3.8861418e-24
3.8158618e-24
3.5046298e-24
2.5098329e-24
7.6942994e-25
1.4012514e-26
1.5705127e-33
1.9960054e-34
9.45002e-28
6.0342722e-26
2.0560103e-25
2.9064418e-25
3.1748055e-25
3.2357744e-25
3.2436417e-25
3.2413016e-25
3.2389904e-25
3.23889e-25
3.2410043e-25
3.2431608e-25
3.2351315e-25
3.1740352e-25
2.9056287e-25
2.0553717e-25
6.0322322e-26
9.4463636e-28
5.7105e-35
1.6128819e-35
6.1365369e-29
4.5544441e-27
1.6206132e-26
2.3191997e-26
2.5415898e-26
2.5924914e-26
2.5992897e-26
2.5975264e-26
2.5956963e-26
2.5956124e-26
2.5972777e-26
2.5988864e-26
2.5919502e-26
2.5409391e-26
2.3185113e-26
1.6200762e-26
4.5527936e-27
6.1339021e-29
2.0014976e-36
1.1532187e-36
3.8420542e-30
3.3126121e-28
1.2307479e-27
1.7828811e-27
1.9601709e-27
2.0010353e-27
2.0066633e-27
2.0053888e-27
2.0039937e-27
2.0039271e-27
2.0051912e-27
2.0063421e-27
2.0006029e-27
1.9596493e-27
1.7823284e-27
1.2303196e-27
3.3113454e-28
3.840245e-30
6.7682728e-38
7.3345972e-38
2.3214083e-31
2.3240131e-29
9.0137347e-29
1.321676e-28
1.4577843e-28
1.489365e-28
1.4938362e-28
1.4929521e-28
1.4919273e-28
1.4918771e-28
1.4928028e-28
1.493593e-28
1.4890367e-28
1.457387e-28
1.3212545e-28
9.0104919e-29
2.3230901e-29
2.3202277e-31
2.2100983e-39
4.1557842e-39
1.354756e-32
1.574064e-30
6.3719383e-30
9.4565266e-30
1.0463793e-29
1.0698978e-29
1.0733116e-29
1.072723e-29
1.0719969e-29
1.0719607e-29
1.0726155e-29
1.0731362e-29
1.0696605e-29
1.0460914e-29
9.4534703e-30
6.3696042e-30
1.5734247e-30
1.3540251e-32
6.9743197e-41
2.0566952e-40
7.6426212e-34
1.0301059e-31
4.3514253e-31
6.5358916e-31
7.2551129e-31
7.4240481e-31
7.4491318e-31
7.4453696e-31
7.4404028e-31
7.4401543e-31
7.4446302e-31
7.4479243e-31
7.4224119e-31
7.2531248e-31
6.5337802e-31
4.3498254e-31
1.0296845e-31
7.6383408e-34
2.1284903e-42
8.274335e-42
4.1708365e-35
6.5186138e-33
2.8729304e-32
4.3670239e-32
4.8629469e-32
4.9800969e-32
4.9978548e-32
4.9955471e-32
4.9922644e-32
4.9921009e-32
4.9950605e-32
4.9970596e-32
4.9790185e-32
4.8616354e-32
4.3656319e-32
2.8718844e-32
6.515964e-33
4.1684776e-35
6.286697e-44
1.9781536e-43
2.2034819e-36
3.9917185e-34
1.8351533e-33
2.8228943e-33
3.1533792e-33
3.2318739e-33
3.2439999e-33
3.2426421e-33
3.240544e-33
3.2404409e-33
3.242335e-33
3.243498e-33
3.2311932e-33
3.1525515e-33
2.8220169e-33
1.8344997e-33
3.9901277e-34
2.2022715e-36
1.7981868e-45
3.5221148e-45
1.1276902e-37
2.3669695e-35
1.1349417e-34
1.7665812e-34
1.9795946e-34
2.0304524e-34
2.0384472e-34
2.0376817e-34
2.036384e-34
2.0363214e-34
2.0374955e-34
2.038143e-34
2.0300402e-34
1.9790939e-34
1.7660516e-34
1.1345509e-34
2.3660566e-35
1.1271098e-37
4.9838668e-47
6.1833068e-47
5.5941394e-39
1.3599656e-36
6.7999999e-36
1.07099e-35
1.2038815e-35
1.2357694e-35
1.2408636e-35
1.2404509e-35
1.2396735e-35
1.2396369e-35
1.2403421e-35
1.2406862e-35
1.2355295e-35
1.2035907e-35
1.0706835e-35
6.7977618e-36
1.3594639e-36
5.5914552e-39
1.3392047e-48
1.0789228e-48
2.6913881e-40
7.5756017e-38
3.9494657e-37
6.2938256e-37
7.0968482e-37
7.2904784e-37
7.3218794e-37
7.3197578e-37
7.3152444e-37
7.3150381e-37
7.3191452e-37
7.3208822e-37
7.289133e-37
7.0952234e-37
6.2921218e-37
3.9482356e-37
7.5729565e-38
2.6901909e-40
3.4904273e-50
)
;

boundaryField
{
    Wall
    {
        type            zeroGradient;
    }
    frontAndBack
    {
        type            empty;
    }
    atmosphere
    {
        type            zeroGradient;
    }
}


// ************************************************************************* //
