/*--------------------------------*- C++ -*----------------------------------*\
| =========                 |                                                 |
| \\      /  F ield         | OpenFOAM: The Open Source CFD Toolbox           |
|  \\    /   O peration     | Version:  3.0.1                                 |
|   \\  /    A nd           | Web:      www.OpenFOAM.org                      |
|    \\/     M anipulation  |                                                 |
\*---------------------------------------------------------------------------*/
FoamFile
{
    version     2.0;
    format      ascii;
    class       volScalarField;
    location    "10";
    object      wCO2_l;
}
// * * * * * * * * * * * * * * * * * * * * * * * * * * * * * * * * * * * * * //

dimensions      [0 0 0 0 0 0 0];

internalField   nonuniform List<scalar> 
800
(
0.0029733023
0.002973154
0.0029731149
0.0029730925
0.0029730749
0.0029730607
0.0029730496
0.0029730415
0.0029730361
0.0029730335
0.0029730335
0.0029730361
0.0029730415
0.0029730496
0.0029730607
0.0029730749
0.0029730925
0.0029731149
0.002973154
0.0029733023
0.0035372303
0.0035368212
0.0035364788
0.0035362272
0.0035360452
0.0035359114
0.0035358151
0.0035357482
0.0035357059
0.0035356853
0.0035356853
0.0035357059
0.0035357483
0.0035358152
0.0035359115
0.0035360453
0.0035362273
0.0035364789
0.0035368213
0.0035372305
0.0043853129
0.0043854335
0.0043855211
0.0043854558
0.0043853991
0.0043853565
0.0043853258
0.0043853046
0.0043852913
0.004385285
0.004385285
0.0043852914
0.0043853046
0.0043853258
0.0043853566
0.0043853991
0.0043854559
0.0043855212
0.0043854336
0.0043853129
0.0031801993
0.0032577935
0.003257621
0.0032567893
0.0032560556
0.0032554439
0.0032549762
0.0032546404
0.0032544242
0.0032543189
0.003254319
0.0032544245
0.0032546408
0.0032549767
0.0032554444
0.0032560563
0.0032567901
0.0032576218
0.0032577943
0.0031802001
0.0011045797
0.0011630724
0.0011657307
0.0011645436
0.0011630608
0.0011618272
0.0011609078
0.0011602602
0.0011598479
0.0011596472
0.0011596474
0.0011598482
0.0011602608
0.0011609085
0.0011618281
0.0011630618
0.0011645448
0.0011657318
0.0011630736
0.0011045814
0.00028688735
0.00037303563
0.00039112476
0.00039518962
0.00039573562
0.00039549149
0.00039516575
0.00039490793
0.0003947392
0.00039465652
0.0003946565
0.00039473914
0.00039490784
0.00039516563
0.00039549134
0.00039573538
0.00039518934
0.00039112434
0.00037303518
0.00028688707
4.2483601e-05
0.00010071035
0.00012102969
0.00012702678
0.00012850634
0.00012873251
0.00012867666
0.00012858907
0.00012852465
0.00012849217
0.00012849212
0.0001285245
0.00012858885
0.00012867636
0.00012873214
0.00012850588
0.00012702624
0.00012102907
0.00010070976
4.2483279e-05
4.1001576e-06
2.3778953e-05
3.5158804e-05
3.9165574e-05
4.0286503e-05
4.0525752e-05
4.0542727e-05
4.0518832e-05
4.0496958e-05
4.0485415e-05
4.0485376e-05
4.0496846e-05
4.0518658e-05
4.0542498e-05
4.052547e-05
4.0286164e-05
3.9165188e-05
3.5158397e-05
2.3778617e-05
4.1000702e-06
3.7595957e-07
5.334602e-06
9.7830096e-06
1.1613062e-05
1.21624e-05
1.2290117e-05
1.230653e-05
1.2300296e-05
1.2292966e-05
1.2288938e-05
1.2288916e-05
1.2292904e-05
1.23002e-05
1.2306405e-05
1.2289966e-05
1.2162223e-05
1.1612866e-05
9.782818e-06
5.3344695e-06
3.7594465e-07
3.5536518e-08
1.1481677e-06
2.5858174e-06
3.2652101e-06
3.4805226e-06
3.5326819e-06
3.5404856e-06
3.5388771e-06
3.5364932e-06
3.5351429e-06
3.5351332e-06
3.5364651e-06
3.5388334e-06
3.5404293e-06
3.5326151e-06
3.4804467e-06
3.2651294e-06
2.585744e-06
1.1481259e-06
3.553445e-08
3.366311e-09
2.3352109e-07
6.3979488e-07
8.5742869e-07
9.2967519e-07
9.4764804e-07
9.505261e-07
9.5012248e-07
9.4939431e-07
9.489727e-07
9.4896892e-07
9.493834e-07
9.5010559e-07
9.5050453e-07
9.4762284e-07
9.2964735e-07
8.5740029e-07
6.3977101e-07
2.3351003e-07
3.3660618e-09
3.078401e-10
4.4246252e-08
1.465807e-07
2.0813561e-07
2.2944082e-07
2.3485049e-07
2.3575304e-07
2.3565861e-07
2.354552e-07
2.3533534e-07
2.3533407e-07
2.3545152e-07
2.3565292e-07
2.3574583e-07
2.3484219e-07
2.2943188e-07
2.0812689e-07
1.4657397e-07
4.4243718e-08
3.0781337e-10
2.6545175e-11
7.751771e-09
3.0939494e-08
4.6494852e-08
5.2092061e-08
5.3538463e-08
5.3787446e-08
5.3767772e-08
5.3716543e-08
5.3685869e-08
5.3685492e-08
5.3715454e-08
5.3766092e-08
5.3785324e-08
5.3536048e-08
5.208952e-08
4.6492472e-08
3.0937808e-08
7.7512559e-09
2.6542577e-11
2.1350578e-12
1.253242e-09
6.0131138e-09
9.5561764e-09
1.0879051e-08
1.1226454e-08
1.128793e-08
1.1284443e-08
1.1272849e-08
1.1265793e-08
1.1265695e-08
1.1272565e-08
1.1284004e-08
1.1287377e-08
1.1225829e-08
1.0878403e-08
9.5555917e-09
6.0127318e-09
1.2531469e-09
2.1348249e-12
1.5962226e-13
1.8719549e-10
1.0782056e-09
1.8111659e-09
2.0947804e-09
2.1704109e-09
2.1841462e-09
2.1836556e-09
2.1812907e-09
2.1798261e-09
2.1798034e-09
2.181225e-09
2.1835539e-09
2.1840179e-09
2.170266e-09
2.0946318e-09
1.8110354e-09
1.0781264e-09
1.8717936e-10
1.5960285e-13
1.1095195e-14
2.59031e-11
1.7893576e-10
3.1759882e-10
3.7315757e-10
3.8819447e-10
3.9099386e-10
3.9094999e-10
3.9051251e-10
3.902364e-10
3.9023172e-10
3.9049896e-10
3.9092894e-10
3.9096719e-10
3.881643e-10
3.7312674e-10
3.1757227e-10
1.7892063e-10
2.5900563e-11
1.1093689e-14
7.1837265e-16
3.3313347e-12
2.7582284e-11
5.171792e-11
6.1725615e-11
6.4473594e-11
6.499735e-11
6.4999051e-11
6.4925156e-11
6.4877541e-11
6.4876675e-11
6.4922641e-11
6.499513e-11
6.4992358e-11
6.4467922e-11
6.1719817e-11
5.1712991e-11
2.7579626e-11
3.3309658e-12
7.1826433e-16
4.3434731e-17
3.9953371e-13
3.9631773e-12
7.8491226e-12
9.5158118e-12
9.9799622e-12
1.0070401e-11
1.0072282e-11
1.006081e-11
1.0053249e-11
1.0053103e-11
1.0060387e-11
1.007162e-11
1.0069554e-11
9.9789942e-12
9.5148191e-12
7.8482859e-12
3.9627479e-12
3.9948423e-13
4.3427531e-17
2.4590962e-18
4.4830009e-14
5.3260521e-13
1.1140624e-12
1.3719256e-12
1.4447325e-12
1.4592125e-12
1.459746e-12
1.4580992e-12
1.4569867e-12
1.4569643e-12
1.458034e-12
1.4596437e-12
1.4590809e-12
1.4445813e-12
1.37177e-12
1.113932e-12
5.3254136e-13
4.4823882e-14
2.458654e-18
1.3071625e-19
4.720539e-15
6.715578e-14
1.4835018e-13
1.8556883e-13
1.9621951e-13
1.9837812e-13
1.98489e-13
1.9826925e-13
1.9811679e-13
1.9811361e-13
1.9825997e-13
1.9847438e-13
1.9835925e-13
1.961977e-13
1.8554629e-13
1.4833141e-13
6.7146991e-14
4.7198359e-15
1.3069105e-19
6.5404773e-21
4.6779115e-16
7.9677881e-15
1.8587757e-14
2.3617894e-14
2.5076332e-14
2.5377087e-14
2.5396457e-14
2.5369077e-14
2.5349521e-14
2.5349098e-14
2.5367839e-14
2.5394502e-14
2.5374552e-14
2.507339e-14
2.3614845e-14
1.8585234e-14
7.9666593e-15
4.677158e-16
6.5391344e-21
3.0878388e-22
4.3740396e-17
8.9191733e-16
2.1972993e-15
2.8359781e-15
3.0235404e-15
3.0628378e-15
3.0658273e-15
3.0626292e-15
3.0602721e-15
3.0602187e-15
3.0624728e-15
3.0655796e-15
3.0625156e-15
3.0231652e-15
2.8355885e-15
2.1969793e-15
8.9178068e-16
4.3732786e-17
3.0871633e-22
1.3785736e-23
3.8683272e-18
9.4428307e-17
2.4566217e-16
3.2207284e-16
3.4479466e-16
3.4962497e-16
3.5004281e-16
3.4969146e-16
3.494235e-16
3.4941706e-16
3.4967256e-16
3.5001281e-16
3.4958585e-16
3.4474898e-16
3.2202536e-16
2.4562353e-16
9.4412571e-17
3.8675963e-18
1.3782503e-23
5.8321263e-25
3.2428458e-19
9.476304e-18
2.6034345e-17
3.4671093e-17
3.7270929e-17
3.7831033e-17
3.7884708e-17
3.7848298e-17
3.7819483e-17
3.7818736e-17
3.7846104e-17
3.7881219e-17
3.782647e-17
3.7265587e-17
3.4665541e-17
2.6029871e-17
9.4745693e-18
3.2421743e-19
5.8306455e-25
2.3424341e-26
2.5820541e-20
9.0327782e-19
2.6206196e-18
3.5451363e-18
3.8267848e-18
3.8882114e-18
3.8946111e-18
3.8910435e-18
3.8881047e-18
3.8880215e-18
3.8907989e-18
3.8942212e-18
3.8876999e-18
3.8261845e-18
3.5445125e-18
2.6201222e-18
9.030944e-19
2.5814629e-20
2.3417843e-26
8.9476421e-28
1.9563267e-21
8.193348e-20
2.5102965e-19
3.4495718e-19
3.7390942e-19
3.8029567e-19
3.8100897e-19
3.8067778e-19
3.803929e-19
3.8038403e-19
3.8065167e-19
3.8096723e-19
3.8024075e-19
3.7384478e-19
3.4488998e-19
2.5097664e-19
8.1914908e-20
1.9558287e-21
8.9449144e-28
3.2557307e-29
1.4128305e-22
7.0844175e-21
2.2922234e-20
3.1997166e-20
3.4826854e-20
3.5457599e-20
3.5532318e-20
3.5503146e-20
3.5476845e-20
3.5475944e-20
3.550049e-20
3.552806e-20
3.5451976e-20
3.4820213e-20
3.1990259e-20
2.2916843e-20
7.0826236e-21
1.4124304e-22
3.2546397e-29
1.131071e-30
9.7406516e-24
5.8483613e-22
1.998417e-21
2.8337291e-21
3.0971603e-21
3.1564549e-21
3.1638425e-21
3.1614011e-21
3.159085e-21
3.1589981e-21
3.1611447e-21
3.1634303e-21
3.1559085e-21
3.0965126e-21
2.8330546e-21
1.997896e-21
5.8467152e-22
9.7375986e-24
1.1297222e-30
7.0559661e-32
6.4203759e-25
4.6161712e-23
1.6658822e-22
2.3995919e-22
2.6335789e-22
2.6867275e-22
2.6936454e-22
2.6917024e-22
2.689754e-22
2.6896748e-22
2.6914682e-22
2.6932678e-22
2.686225e-22
2.6329811e-22
2.3989685e-22
1.6654055e-22
4.6147409e-23
6.4181459e-25
3.7460905e-32
6.8217899e-33
4.0512274e-26
3.4884228e-24
1.3295792e-23
1.9455011e-23
2.1440988e-23
2.1895954e-23
2.1957487e-23
2.1942772e-23
2.1927094e-23
2.1926411e-23
2.1940751e-23
2.195422e-23
2.189159e-23
2.1435776e-23
1.9449568e-23
1.3291673e-23
3.4872473e-24
4.0496455e-26
1.1881586e-33
5.549026e-34
2.4501841e-27
2.5270498e-25
1.0172667e-24
1.5120963e-24
1.6733925e-24
1.7106415e-24
1.7158529e-24
1.714792e-24
1.7135839e-24
1.7135283e-24
1.7146272e-24
1.7155858e-24
1.7102835e-24
1.6729634e-24
1.5116476e-24
1.0169305e-24
2.5261372e-25
2.449109e-27
3.6088754e-35
3.7873349e-35
1.4219708e-28
1.7568504e-26
7.4697408e-26
1.1279262e-25
1.2534434e-25
1.2826502e-25
1.2868615e-25
1.2861335e-25
1.2852409e-25
1.2851981e-25
1.2860064e-25
1.286655e-25
1.2823725e-25
1.2531094e-25
1.1275768e-25
7.4671496e-26
1.756181e-26
1.4212756e-28
1.0508638e-36
2.2471795e-36
7.9272318e-30
1.1734253e-27
5.2697532e-27
8.0834928e-27
9.0204709e-27
9.240069e-27
9.2726006e-27
9.2678472e-27
9.2615178e-27
9.261205e-27
9.2669178e-27
9.2710879e-27
9.2380297e-27
9.018012e-27
8.0809185e-27
5.2678644e-27
1.1729611e-27
7.9229702e-30
2.9365733e-38
1.1733714e-37
4.24931e-31
7.537149e-29
3.5753679e-28
5.5714234e-28
6.243137e-28
6.4016432e-28
6.4257042e-28
6.4227543e-28
6.4184418e-28
6.4182249e-28
6.4221092e-28
6.4246525e-28
6.4002225e-28
6.2414202e-28
5.5696264e-28
3.5740638e-28
7.5341006e-29
4.2468404e-31
7.8825731e-40
5.3090714e-39
2.1921921e-32
4.6600629e-30
2.3350663e-29
3.6964451e-29
4.159373e-29
4.2693243e-29
4.2863877e-29
4.2846511e-29
4.2818251e-29
4.2816819e-29
4.284225e-29
4.2856922e-29
4.2683834e-29
4.1582344e-29
3.6952541e-29
2.3342119e-29
4.6581643e-30
2.1908448e-32
2.0342911e-41
1.9412207e-40
1.0893599e-33
2.7757763e-31
1.469268e-30
2.3628092e-30
2.6698049e-30
2.743175e-30
2.7547929e-30
2.7538262e-30
2.7520435e-30
2.7519533e-30
2.7535577e-30
2.7543545e-30
2.7425814e-30
2.6690861e-30
2.3620585e-30
1.4687359e-30
2.774653e-31
1.0886736e-33
5.0516758e-43
4.1994044e-42
5.218415e-35
1.5941709e-32
8.9140778e-32
1.4562963e-31
1.6523738e-31
1.6995152e-31
1.7071186e-31
1.7066124e-31
1.7055288e-31
1.7054745e-31
1.7064507e-31
1.7068545e-31
1.6991576e-31
1.651941e-31
1.4558453e-31
8.9109218e-32
1.5935386e-32
5.2152032e-35
1.208007e-44
6.7067948e-44
2.4115873e-36
8.8342183e-34
5.2185747e-33
8.6611321e-33
9.8682823e-33
1.0160176e-32
1.0208058e-32
1.0205588e-32
1.0199236e-32
1.0198923e-32
1.0204655e-32
1.0206535e-32
1.0158116e-32
9.8657925e-33
8.6585464e-33
5.2167891e-33
8.830828e-34
2.4102034e-36
2.7837035e-46
1.046793e-45
1.0758924e-37
4.7269762e-35
2.9500555e-34
4.9740279e-34
5.6909546e-34
5.865272e-34
5.8943167e-34
5.8932125e-34
5.8896192e-34
5.8894453e-34
5.8926954e-34
5.893474e-34
5.8641345e-34
5.6895834e-34
4.9726104e-34
2.9490907e-34
4.7252411e-35
1.0753188e-37
6.1854527e-48
1.6074494e-47
4.6366089e-39
2.4437339e-36
1.6113529e-35
2.7601572e-35
3.1712056e-35
3.2716894e-35
3.2886765e-35
3.2882408e-35
3.2862775e-35
3.2861846e-35
3.2879651e-35
3.2882283e-35
3.2710861e-35
3.1704811e-35
2.7594128e-35
1.610854e-35
2.4428845e-36
4.6343228e-39
1.3260475e-49
)
;

boundaryField
{
    Wall
    {
        type            zeroGradient;
    }
    frontAndBack
    {
        type            empty;
    }
    atmosphere
    {
        type            zeroGradient;
    }
}


// ************************************************************************* //
