/*--------------------------------*- C++ -*----------------------------------*\
| =========                 |                                                 |
| \\      /  F ield         | OpenFOAM: The Open Source CFD Toolbox           |
|  \\    /   O peration     | Version:  3.0.1                                 |
|   \\  /    A nd           | Web:      www.OpenFOAM.org                      |
|    \\/     M anipulation  |                                                 |
\*---------------------------------------------------------------------------*/
FoamFile
{
    version     2.0;
    format      ascii;
    class       volScalarField;
    location    "42";
    object      mZero;
}
// * * * * * * * * * * * * * * * * * * * * * * * * * * * * * * * * * * * * * //

dimensions      [0 0 0 0 0 0 0];

internalField   nonuniform List<scalar> 
800
(
1e+13
1e+13
1e+13
1e+13
1e+13
1e+13
1e+13
1e+13
1e+13
1e+13
1e+13
1e+13
1e+13
1e+13
1e+13
1e+13
1e+13
1e+13
1e+13
1e+13
1e+13
1e+13
1e+13
1e+13
1e+13
1e+13
1e+13
1e+13
1e+13
1e+13
1e+13
1e+13
1e+13
1e+13
1e+13
1e+13
1e+13
1e+13
1e+13
1e+13
9.9627505e+12
9.9641265e+12
9.9648335e+12
9.9651425e+12
9.9652746e+12
9.9653277e+12
9.965346e+12
9.9653502e+12
9.9653498e+12
9.9653489e+12
9.9653488e+12
9.9653497e+12
9.9653501e+12
9.9653459e+12
9.9653276e+12
9.9652745e+12
9.9651423e+12
9.9648333e+12
9.9641263e+12
9.9627502e+12
9.8906816e+12
9.8946796e+12
9.8965765e+12
9.8973994e+12
9.8977542e+12
9.8978964e+12
9.8979448e+12
9.8979554e+12
9.8979536e+12
9.8979507e+12
9.8979507e+12
9.8979535e+12
9.8979553e+12
9.8979446e+12
9.8978962e+12
9.8977538e+12
9.897399e+12
9.896576e+12
9.894679e+12
9.8906809e+12
9.7900073e+12
9.7976398e+12
9.8010473e+12
9.802515e+12
9.8031509e+12
9.8034066e+12
9.8034946e+12
9.8035144e+12
9.8035114e+12
9.8035063e+12
9.8035062e+12
9.8035113e+12
9.8035141e+12
9.8034943e+12
9.8034062e+12
9.8031503e+12
9.8025143e+12
9.8010465e+12
9.7976389e+12
9.790006e+12
9.6654348e+12
9.6774944e+12
9.6826497e+12
9.6848522e+12
9.6858064e+12
9.6861905e+12
9.686324e+12
9.6863548e+12
9.6863509e+12
9.6863435e+12
9.6863434e+12
9.6863507e+12
9.6863544e+12
9.6863234e+12
9.6861898e+12
9.6858056e+12
9.6848512e+12
9.6826485e+12
9.6774929e+12
9.665433e+12
9.5207293e+12
9.537843e+12
9.5449225e+12
9.547922e+12
9.5492155e+12
9.5497345e+12
9.5499152e+12
9.5499571e+12
9.549952e+12
9.5499419e+12
9.5499418e+12
9.5499517e+12
9.5499566e+12
9.5499145e+12
9.5497336e+12
9.5492144e+12
9.5479207e+12
9.5449209e+12
9.5378412e+12
9.520727e+12
9.3590944e+12
9.3817767e+12
9.3909084e+12
9.3947447e+12
9.3963852e+12
9.3970394e+12
9.3972663e+12
9.397318e+12
9.3973108e+12
9.3972976e+12
9.3972975e+12
9.3973104e+12
9.3973174e+12
9.3972655e+12
9.3970383e+12
9.3963838e+12
9.3947431e+12
9.3909065e+12
9.3817745e+12
9.3590918e+12
9.183238e+12
9.2119222e+12
9.2232021e+12
9.2279022e+12
9.2298913e+12
9.2306795e+12
9.230952e+12
9.2310131e+12
9.2310037e+12
9.2309874e+12
9.2309873e+12
9.2310032e+12
9.2310124e+12
9.230951e+12
9.2306782e+12
9.2298897e+12
9.2279004e+12
9.2232e+12
9.2119197e+12
9.1832351e+12
8.9956781e+12
9.0307235e+12
9.0442241e+12
9.0497957e+12
9.0521202e+12
9.053031e+12
9.0533423e+12
9.0534086e+12
9.0533943e+12
9.0533737e+12
9.0533735e+12
9.0533938e+12
9.0534078e+12
9.0533411e+12
9.0530295e+12
9.0521184e+12
9.0497937e+12
9.0442218e+12
9.0307209e+12
8.9956749e+12
8.7986238e+12
8.8403282e+12
8.8561258e+12
8.8625832e+12
8.8652373e+12
8.8662664e+12
8.8666158e+12
8.8666878e+12
8.8666688e+12
8.866644e+12
8.8666439e+12
8.8666683e+12
8.8666869e+12
8.8666145e+12
8.8662647e+12
8.8652353e+12
8.862581e+12
8.8561232e+12
8.8403255e+12
8.7986204e+12
8.5939804e+12
8.642614e+12
8.6607716e+12
8.668115e+12
8.6710826e+12
8.672219e+12
8.6726009e+12
8.6726755e+12
8.6726496e+12
8.6726195e+12
8.6726193e+12
8.6726489e+12
8.6726745e+12
8.6725995e+12
8.6722172e+12
8.6710806e+12
8.6681126e+12
8.660769e+12
8.6426112e+12
8.593977e+12
8.3835962e+12
8.4393897e+12
8.4599765e+12
8.4682063e+12
8.4714723e+12
8.4727058e+12
8.4731148e+12
8.4731891e+12
8.4731534e+12
8.4731168e+12
8.4731166e+12
8.4731527e+12
8.4731881e+12
8.4731134e+12
8.472704e+12
8.4714702e+12
8.4682039e+12
8.4599738e+12
8.4393868e+12
8.3835929e+12
8.1690475e+12
8.2322143e+12
8.2553207e+12
8.2644463e+12
8.2680008e+12
8.2693245e+12
8.2697563e+12
8.2698286e+12
8.2697807e+12
8.2697365e+12
8.2697363e+12
8.26978e+12
8.2698275e+12
8.2697548e+12
8.2693227e+12
8.2679986e+12
8.2644439e+12
8.2553179e+12
8.2322114e+12
8.1690443e+12
7.9516415e+12
8.0223757e+12
8.0481255e+12
8.0581711e+12
8.0620124e+12
8.0634229e+12
8.063874e+12
8.0639434e+12
8.0638813e+12
8.0638282e+12
8.063828e+12
8.0638807e+12
8.0639423e+12
8.0638725e+12
8.0634211e+12
8.0620103e+12
8.0581687e+12
8.0481229e+12
8.0223729e+12
7.9516384e+12
7.732114e+12
7.8106518e+12
7.8392075e+12
7.8502228e+12
7.854363e+12
7.8558625e+12
7.8563315e+12
7.8563987e+12
7.8563224e+12
7.8562592e+12
7.856259e+12
7.8563217e+12
7.8563975e+12
7.85633e+12
7.8558606e+12
7.8543608e+12
7.8502203e+12
7.8392049e+12
7.810649e+12
7.7321109e+12
7.5117626e+12
7.5983125e+12
7.6298732e+12
7.6419158e+12
7.6463639e+12
7.647946e+12
7.6484235e+12
7.6484834e+12
7.6483907e+12
7.6483147e+12
7.6483145e+12
7.64839e+12
7.6484823e+12
7.648422e+12
7.6479442e+12
7.6463618e+12
7.6419135e+12
7.6298706e+12
7.5983099e+12
7.5117597e+12
7.291647e+12
7.3863986e+12
7.4212049e+12
7.4343608e+12
7.4391369e+12
7.4407961e+12
7.44127e+12
7.4413157e+12
7.4412047e+12
7.4411133e+12
7.4411131e+12
7.4412041e+12
7.4413146e+12
7.4412686e+12
7.4407944e+12
7.4391349e+12
7.4343587e+12
7.4212025e+12
7.3863962e+12
7.2916444e+12
7.0724532e+12
7.1756259e+12
7.2139743e+12
7.2283662e+12
7.2335036e+12
7.2352343e+12
7.2356891e+12
7.2357101e+12
7.235579e+12
7.2354695e+12
7.2354693e+12
7.2355784e+12
7.235709e+12
7.2356878e+12
7.2352327e+12
7.2335018e+12
7.2283642e+12
7.2139722e+12
7.1756237e+12
7.0724508e+12
6.8544221e+12
6.966302e+12
7.0085514e+12
7.0243486e+12
7.0298993e+12
7.0316971e+12
7.0321132e+12
7.0320945e+12
7.0319399e+12
7.0318093e+12
7.031809e+12
7.0319392e+12
7.0320934e+12
7.0321119e+12
7.0316955e+12
7.0298975e+12
7.0243467e+12
7.0085493e+12
6.9663e+12
6.8544197e+12
6.6382037e+12
6.75909e+12
6.8056758e+12
6.8230954e+12
6.8291303e+12
6.8309922e+12
6.8313463e+12
6.8312681e+12
6.8310842e+12
6.8309294e+12
6.8309292e+12
6.8310836e+12
6.8312671e+12
6.831345e+12
6.8309908e+12
6.8291287e+12
6.8230937e+12
6.8056739e+12
6.7590882e+12
6.6382016e+12
6.4240366e+12
6.5542621e+12
6.6057018e+12
6.6250263e+12
6.6316488e+12
6.6335799e+12
6.6338463e+12
6.6336833e+12
6.6334606e+12
6.6332768e+12
6.6332765e+12
6.63346e+12
6.6336824e+12
6.6338452e+12
6.6335786e+12
6.6316473e+12
6.6250247e+12
6.6057001e+12
6.5542605e+12
6.4240348e+12
6.2116415e+12
6.3516723e+12
6.4085786e+12
6.4301615e+12
6.4375111e+12
6.4395261e+12
6.4396774e+12
6.4393983e+12
6.4391222e+12
6.4389027e+12
6.4389025e+12
6.4391217e+12
6.4393975e+12
6.4396763e+12
6.4395249e+12
6.4375099e+12
6.4301602e+12
6.4085772e+12
6.351671e+12
6.2116401e+12
6.0011032e+12
6.1514399e+12
6.2145346e+12
6.238817e+12
6.2470827e+12
6.2492129e+12
6.2492225e+12
6.2487911e+12
6.248442e+12
6.2481774e+12
6.2481772e+12
6.2484415e+12
6.2487903e+12
6.2492216e+12
6.2492119e+12
6.2470816e+12
6.238816e+12
6.2145335e+12
6.1514389e+12
6.0011022e+12
5.7919513e+12
5.9532391e+12
6.0233617e+12
6.0508761e+12
6.0603055e+12
6.0626055e+12
6.0624499e+12
6.0618248e+12
6.0613772e+12
6.0610546e+12
6.0610544e+12
6.0613768e+12
6.061824e+12
6.0624491e+12
6.0626047e+12
6.0603046e+12
6.0508753e+12
6.0233608e+12
5.9532385e+12
5.7919506e+12
5.5835922e+12
5.7566219e+12
5.8347601e+12
5.8661587e+12
5.8770683e+12
5.8796204e+12
5.8792781e+12
5.8784077e+12
5.8778264e+12
5.8774275e+12
5.8774273e+12
5.877826e+12
5.8784071e+12
5.8792774e+12
5.8796197e+12
5.8770676e+12
5.8661581e+12
5.8347596e+12
5.7566216e+12
5.5835919e+12
5.3754842e+12
5.5611803e+12
5.6484864e+12
5.6845449e+12
5.6973403e+12
5.7002665e+12
5.6997217e+12
5.698548e+12
5.6977876e+12
5.6972874e+12
5.6972872e+12
5.6977872e+12
5.6985474e+12
5.6997211e+12
5.700266e+12
5.6973398e+12
5.6845446e+12
5.6484861e+12
5.5611805e+12
5.3754845e+12
5.1666683e+12
5.3661873e+12
5.4639853e+12
5.5056561e+12
5.5208566e+12
5.5243378e+12
5.5235918e+12
5.5220524e+12
5.521057e+12
5.5204241e+12
5.5204239e+12
5.5210567e+12
5.5220519e+12
5.5235913e+12
5.5243374e+12
5.5208563e+12
5.5056561e+12
5.4639853e+12
5.3661879e+12
5.1666693e+12
4.956013e+12
5.1707364e+12
5.2805577e+12
5.3289833e+12
5.3472327e+12
5.3515189e+12
5.3505907e+12
5.348615e+12
5.3473132e+12
5.3465061e+12
5.346506e+12
5.3473129e+12
5.3486145e+12
5.3505903e+12
5.3515187e+12
5.3472326e+12
5.3289835e+12
5.2805582e+12
5.1707375e+12
4.9560146e+12
4.7419787e+12
4.9735382e+12
5.0972158e+12
5.1537687e+12
5.17588e+12
5.1813207e+12
5.1802642e+12
5.1777802e+12
5.1760865e+12
5.1750536e+12
5.1750535e+12
5.1760862e+12
5.1777798e+12
5.180264e+12
5.1813206e+12
5.17588e+12
5.1537692e+12
5.0972168e+12
4.97354e+12
4.7419812e+12
4.5226181e+12
4.7729568e+12
4.9126625e+12
4.9789914e+12
5.0059871e+12
5.0130645e+12
5.0119838e+12
5.0089216e+12
5.0067335e+12
5.0054103e+12
5.0054102e+12
5.0067333e+12
5.0089213e+12
5.0119836e+12
5.0130645e+12
5.0059874e+12
4.9789922e+12
4.912664e+12
4.7729595e+12
4.5226217e+12
4.2955935e+12
4.5670315e+12
4.7253095e+12
4.8033932e+12
4.8365594e+12
4.845934e+12
4.8450136e+12
4.8413154e+12
4.8385138e+12
4.8368204e+12
4.8368202e+12
4.8385137e+12
4.8413151e+12
4.8450135e+12
4.8459341e+12
4.83656e+12
4.8033944e+12
4.7253117e+12
4.5670353e+12
4.2955986e+12
4.0581415e+12
4.3533811e+12
4.5331875e+12
4.6253882e+12
4.6663515e+12
4.6789354e+12
4.6784875e+12
4.6741289e+12
4.6705808e+12
4.6684189e+12
4.6684188e+12
4.6705807e+12
4.6741286e+12
4.6784875e+12
4.6789356e+12
4.6663522e+12
4.6253898e+12
4.5331904e+12
4.3533864e+12
4.0581485e+12
3.8070694e+12
4.1291233e+12
4.3337713e+12
4.4429101e+12
4.4937704e+12
4.5108223e+12
4.5113584e+12
4.5063846e+12
4.5019471e+12
4.4991965e+12
4.4991964e+12
4.5019469e+12
4.5063844e+12
4.5113584e+12
4.5108227e+12
4.4937713e+12
4.4429121e+12
4.333775e+12
4.1291303e+12
3.8070788e+12
3.5388302e+12
3.8907684e+12
4.1237802e+12
4.2532525e+12
4.3167391e+12
4.3400114e+12
4.3423539e+12
4.3369249e+12
4.3314532e+12
4.327966e+12
4.3279659e+12
4.331453e+12
4.3369247e+12
4.342354e+12
4.3400119e+12
4.3167403e+12
4.2532549e+12
4.1237849e+12
3.8907775e+12
3.5388428e+12
3.2499329e+12
3.6340925e+12
3.8990215e+12
4.0528186e+12
4.13247e+12
4.1644633e+12
4.1699069e+12
4.1643575e+12
4.1577207e+12
4.1533128e+12
4.1533127e+12
4.1577206e+12
4.1643574e+12
4.1699071e+12
4.1644639e+12
4.1324714e+12
4.0528215e+12
3.8990272e+12
3.6341038e+12
3.2499495e+12
2.9379254e+12
3.354083e+12
3.6539678e+12
3.8367209e+12
3.9371827e+12
3.9814683e+12
3.9920237e+12
3.9870267e+12
3.9791403e+12
3.9735809e+12
3.9735808e+12
3.9791402e+12
3.9870266e+12
3.992024e+12
3.9814691e+12
3.9371843e+12
3.8367243e+12
3.6539746e+12
3.3540966e+12
2.9379469e+12
2.6021085e+12
3.0445846e+12
3.3811281e+12
3.5982004e+12
3.7256853e+12
3.7874607e+12
3.8062278e+12
3.8029342e+12
3.793811e+12
3.7868126e+12
3.7868125e+12
3.793811e+12
3.8029343e+12
3.8062283e+12
3.7874618e+12
3.7256875e+12
3.5982047e+12
3.3811365e+12
3.044601e+12
2.6021354e+12
2.2445074e+12
2.7024498e+12
3.0737291e+12
3.3299499e+12
3.4918682e+12
3.5778257e+12
3.6093078e+12
3.6097815e+12
3.5996363e+12
3.5908458e+12
3.5908458e+12
3.5996364e+12
3.6097818e+12
3.6093085e+12
3.5778272e+12
3.491871e+12
3.3299554e+12
3.0737394e+12
2.70247e+12
2.2445416e+12
1.9202035e+12
2.3753246e+12
2.7435918e+12
3.0227641e+12
3.2171539e+12
3.3317984e+12
3.3811638e+12
3.3879873e+12
3.3770098e+12
3.3656967e+12
3.3656967e+12
3.37701e+12
3.3879878e+12
3.3811647e+12
3.3318001e+12
3.2171571e+12
3.02277e+12
2.7436027e+12
2.3753462e+12
1.9202432e+12
)
;

boundaryField
{
    Wall
    {
        type            zeroGradient;
    }
    frontAndBack
    {
        type            empty;
    }
    atmosphere
    {
        type            zeroGradient;
    }
}


// ************************************************************************* //
