/*--------------------------------*- C++ -*----------------------------------*\
| =========                 |                                                 |
| \\      /  F ield         | OpenFOAM: The Open Source CFD Toolbox           |
|  \\    /   O peration     | Version:  3.0.1                                 |
|   \\  /    A nd           | Web:      www.OpenFOAM.org                      |
|    \\/     M anipulation  |                                                 |
\*---------------------------------------------------------------------------*/
FoamFile
{
    version     2.0;
    format      ascii;
    class       surfaceScalarField;
    location    "42";
    object      phi;
}
// * * * * * * * * * * * * * * * * * * * * * * * * * * * * * * * * * * * * * //

dimensions      [0 3 -1 0 0 0 0];

internalField   nonuniform List<scalar> 
1540
(
5.4233835e-10
1.0395362e-08
7.6599708e-10
1.0714618e-08
8.3244833e-10
1.0872426e-08
8.018039e-10
1.0969768e-08
7.1227751e-10
1.1028731e-08
5.8938159e-10
1.1062121e-08
4.4937364e-10
1.1079231e-08
3.0164035e-10
1.1086952e-08
1.5097429e-10
1.108988e-08
-5.0965399e-13
1.1090695e-08
-1.5198301e-10
1.1090684e-08
-3.0261716e-10
1.1089848e-08
-4.5029916e-10
1.10869e-08
-5.9023815e-10
1.1079162e-08
-7.1305051e-10
1.1062036e-08
-8.0247581e-10
1.1028628e-08
-8.3299242e-10
1.0969637e-08
-7.6634973e-10
1.0872228e-08
-5.4256719e-10
1.0714488e-08
1.0395146e-08
3.1810856e-10
2.1229183e-08
5.7846281e-10
2.1594005e-08
6.8715572e-10
2.190103e-08
6.9482988e-10
2.2098607e-08
6.3726781e-10
2.2222517e-08
5.3955575e-10
2.2295934e-08
4.1832627e-10
2.23365e-08
2.8411743e-10
2.2357166e-08
1.4332491e-10
2.2366658e-08
-2.1021633e-13
2.2370208e-08
-1.4374085e-10
2.2370193e-08
-2.8451954e-10
2.2366614e-08
-4.1870575e-10
2.2357093e-08
-5.3990284e-10
2.23364e-08
-6.3757391e-10
2.2295808e-08
-6.9508543e-10
2.2222365e-08
-6.8735875e-10
2.2098422e-08
-5.7865259e-10
2.1900818e-08
-3.1825677e-10
2.1593834e-08
2.1228834e-08
3.5928652e-10
3.2268347e-08
5.5635481e-10
3.2775151e-08
6.4749499e-10
3.3182823e-08
6.5485873e-10
3.3462763e-08
6.0378224e-10
3.3644744e-08
5.1430845e-10
3.3756467e-08
4.0088996e-10
3.3820951e-08
2.7337134e-10
3.3855701e-08
1.3823046e-10
3.3872802e-08
-1.9658927e-13
3.387963e-08
-1.3861906e-10
3.387961e-08
-2.7374645e-10
3.3872745e-08
-4.0124275e-10
3.3855608e-08
-5.1463011e-10
3.3820822e-08
-6.0406422e-10
3.3756303e-08
-6.5509399e-10
3.3644545e-08
-6.476805e-10
3.346253e-08
-5.5649194e-10
3.3182563e-08
-3.5934305e-10
3.2774902e-08
3.2267956e-08
3.7308476e-10
4.3508072e-08
5.6005925e-10
4.417426e-08
6.3873146e-10
4.4682498e-08
6.3989774e-10
4.5038094e-08
5.8763831e-10
4.5273085e-08
4.9993845e-10
4.54202e-08
3.8970689e-10
4.5507227e-08
2.6587663e-10
4.5555581e-08
1.3450484e-10
4.5580218e-08
-1.8483306e-13
4.5590359e-08
-1.3487002e-10
4.5590336e-08
-2.6622891e-10
4.558015e-08
-3.9003726e-10
4.555547e-08
-5.0023864e-10
4.5507073e-08
-5.8790108e-10
4.5420004e-08
-6.4011815e-10
4.527285e-08
-6.3890752e-10
4.5037822e-08
-5.6018857e-10
4.4682199e-08
-3.7316026e-10
4.4173967e-08
4.3507617e-08
3.7975765e-10
5.4924871e-08
5.6771746e-10
5.5751103e-08
6.4018143e-10
5.636513e-08
6.35946e-10
5.679527e-08
5.8074584e-10
5.7080821e-08
4.9236618e-10
5.726112e-08
3.8303506e-10
5.7369147e-08
2.6104502e-10
5.7430182e-08
1.3199669e-10
5.7461879e-08
-1.7769149e-13
5.7475144e-08
-1.3234762e-10
5.7475118e-08
-2.6138298e-10
5.7461804e-08
-3.8335177e-10
5.7430057e-08
-4.9265404e-10
5.7368973e-08
-5.8099804e-10
5.72609e-08
-6.361571e-10
5.7080556e-08
-6.4034759e-10
5.6794967e-08
-5.6783407e-10
5.6364796e-08
-3.7980954e-10
5.5750764e-08
5.4924373e-08
3.8898681e-10
6.6486694e-08
5.7782105e-10
6.7477949e-08
6.4593115e-10
6.8201458e-08
6.371528e-10
6.8706162e-08
5.7880305e-10
6.9040979e-08
4.8888982e-10
6.9252938e-08
3.7936935e-10
6.9380672e-08
2.5813526e-10
6.9453467e-08
1.3041371e-10
6.9491662e-08
-1.7158979e-13
6.9507789e-08
-1.3075302e-10
6.9507762e-08
-2.5846194e-10
6.949158e-08
-3.796756e-10
6.9453331e-08
-4.891682e-10
6.9380484e-08
-5.7904767e-10
6.92527e-08
-6.3735819e-10
6.9040693e-08
-6.4609227e-10
6.8705833e-08
-5.7792907e-10
6.8201092e-08
-3.8902741e-10
6.7477566e-08
6.6486159e-08
3.9966063e-10
7.8162168e-08
5.8885987e-10
7.9327008e-08
6.5320858e-10
8.0162995e-08
6.4062522e-10
8.074223e-08
5.7946628e-10
8.1125509e-08
4.8789131e-10
8.1368119e-08
3.7772471e-10
8.1514616e-08
2.5662094e-10
8.1598429e-08
1.2953554e-10
8.1642627e-08
-1.6556146e-13
8.1661373e-08
-1.2986281e-10
8.1661344e-08
-2.5693567e-10
8.164254e-08
-3.7802079e-10
8.1598285e-08
-4.8816117e-10
8.1514418e-08
-5.7970368e-10
8.1367868e-08
-6.408248e-10
8.1125208e-08
-6.5336636e-10
8.0741884e-08
-5.8897033e-10
8.0162606e-08
-3.9970506e-10
7.9326584e-08
7.8161581e-08
4.1075758e-10
8.9920393e-08
5.9823468e-10
9.1271354e-08
6.596178e-10
9.2220367e-08
6.4433347e-10
9.2873877e-08
5.8116523e-10
9.3305228e-08
4.8824994e-10
9.3578015e-08
3.773673e-10
9.3742756e-08
2.56072e-10
9.3837113e-08
1.2916712e-10
9.3886966e-08
-1.6066667e-13
9.3908147e-08
-1.2948461e-10
9.3908116e-08
-2.5637787e-10
9.3886874e-08
-3.776545e-10
9.3836962e-08
-4.8851215e-10
9.3742548e-08
-5.8139695e-10
9.3577754e-08
-6.4453232e-10
9.3304917e-08
-6.5978225e-10
9.2873521e-08
-5.9836503e-10
9.2219967e-08
-4.1084233e-10
9.1270905e-08
8.9919705e-08
4.0610326e-10
1.017509e-07
5.977641e-10
1.0327932e-07
6.6180728e-10
1.0434227e-07
6.46894e-10
1.0507222e-07
5.8316039e-10
1.0555281e-07
4.894853e-10
1.0585612e-07
3.7797436e-10
1.0603904e-07
2.5629102e-10
1.0614372e-07
1.2921216e-10
1.0619902e-07
-1.7122132e-13
1.0622252e-07
-1.2955045e-10
1.0622249e-07
-2.5661744e-10
1.0619893e-07
-3.7828111e-10
1.0614356e-07
-4.8976497e-10
1.0603882e-07
-5.8340857e-10
1.0585585e-07
-6.4710807e-10
1.0555249e-07
-6.6199387e-10
1.0507185e-07
-5.9794039e-10
1.0434187e-07
-4.0626462e-10
1.0327886e-07
1.0175002e-07
3.9101452e-10
1.1363879e-07
5.9178522e-10
1.1532139e-07
6.6200632e-10
1.1650148e-07
6.4920892e-10
1.1731194e-07
5.8569907e-10
1.1784403e-07
4.9155096e-10
1.181788e-07
3.7940565e-10
1.1838017e-07
2.5715048e-10
1.1849519e-07
1.2961071e-10
1.1855586e-07
-1.6624269e-13
1.1858162e-07
-1.2993934e-10
1.1858158e-07
-2.5746639e-10
1.1855575e-07
-3.7970151e-10
1.1849501e-07
-4.9181948e-10
1.1837993e-07
-5.8593419e-10
1.181785e-07
-6.4940747e-10
1.1784367e-07
-6.6216947e-10
1.1731154e-07
-5.9192092e-10
1.1650105e-07
-3.9112296e-10
1.153209e-07
1.1363776e-07
3.9465791e-10
1.2556407e-07
5.9552084e-10
1.2738495e-07
6.6710278e-10
1.2868135e-07
6.5446277e-10
1.2957334e-07
5.9036163e-10
1.301578e-07
4.952564e-10
1.3052454e-07
3.8205923e-10
1.3074453e-07
2.5882588e-10
1.3086984e-07
1.3042386e-10
1.3093577e-07
-1.3964855e-13
1.3096371e-07
-1.3069937e-10
1.3096367e-07
-2.590904e-10
1.3093565e-07
-3.8230605e-10
1.3086964e-07
-4.9547655e-10
1.3074426e-07
-5.9054676e-10
1.305242e-07
-6.5460108e-10
1.3015739e-07
-6.6718485e-10
1.2957287e-07
-5.9553544e-10
1.2868084e-07
-3.9460116e-10
1.2738435e-07
1.2556305e-07
4.0494947e-10
1.3751612e-07
6.073156e-10
1.3949601e-07
6.7764448e-10
1.4091005e-07
6.6316412e-10
1.4188354e-07
5.9723072e-10
1.4252057e-07
5.004007e-10
1.4291936e-07
3.8562528e-10
1.4315782e-07
2.6103513e-10
1.4329319e-07
1.314801e-10
1.4336418e-07
-1.1794252e-13
1.4339419e-07
-1.3171266e-10
1.4339415e-07
-2.6125844e-10
1.4336404e-07
-3.8583191e-10
1.4329296e-07
-5.0058271e-10
1.4315751e-07
-5.9738008e-10
1.4291897e-07
-6.6327021e-10
1.425201e-07
-6.7769081e-10
1.4188298e-07
-6.0727977e-10
1.4090941e-07
-4.0483052e-10
1.3949528e-07
1.3751518e-07
4.1970041e-10
1.4948596e-07
6.2231356e-10
1.5163877e-07
6.9088835e-10
1.5317174e-07
6.7392783e-10
1.5422661e-07
6.0539116e-10
1.5491602e-07
5.0620931e-10
1.5534656e-07
3.8947068e-10
1.5560303e-07
2.6332057e-10
1.5574804e-07
1.3252056e-10
1.5582378e-07
-1.4183034e-13
1.5585567e-07
-1.3280058e-10
1.5585562e-07
-2.6359053e-10
1.5582362e-07
-3.8972316e-10
1.5574778e-07
-5.0643687e-10
1.5560267e-07
-6.0558672e-10
1.553461e-07
-6.7408301e-10
1.5491547e-07
-6.9099916e-10
1.5422597e-07
-6.2238028e-10
1.53171e-07
-4.1972546e-10
1.5163793e-07
1.4948497e-07
4.3724113e-10
1.6147777e-07
6.4014276e-10
1.6380592e-07
7.0686826e-10
1.654599e-07
6.8705898e-10
1.6659605e-07
6.1517601e-10
1.6733737e-07
5.1283782e-10
1.67799e-07
3.9365283e-10
1.6807271e-07
2.657005e-10
1.6822667e-07
1.3356118e-10
1.6830665e-07
-1.5752979e-13
1.6834014e-07
-1.338726e-10
1.6834008e-07
-2.6600222e-10
1.6830647e-07
-3.9393796e-10
1.6822637e-07
-5.1309944e-10
1.6807229e-07
-6.154096e-10
1.6779847e-07
-6.872633e-10
1.6733675e-07
-7.0704718e-10
1.6659533e-07
-6.4031023e-10
1.6545909e-07
-4.3740631e-10
1.6380502e-07
1.614766e-07
4.588561e-10
1.7350766e-07
6.6025165e-10
1.7601851e-07
7.2475606e-10
1.7779278e-07
7.0164815e-10
1.7900979e-07
6.2566662e-10
1.7980218e-07
5.1943135e-10
1.8029376e-07
3.974411e-10
1.8058353e-07
2.6764413e-10
1.8074539e-07
1.3431046e-10
1.8082884e-07
-1.6334814e-13
1.8086352e-07
-1.3463381e-10
1.8086345e-07
-2.6795795e-10
1.8082864e-07
-3.9773865e-10
1.8074505e-07
-5.1970655e-10
1.8058307e-07
-6.2591451e-10
1.8029318e-07
-7.018656e-10
1.7980149e-07
-7.2494795e-10
1.7900901e-07
-6.6043012e-10
1.7779191e-07
-4.5902334e-10
1.7601756e-07
1.7350633e-07
4.7194171e-10
1.8561824e-07
6.7809168e-10
1.8830047e-07
7.4215059e-10
1.9019673e-07
7.162339e-10
1.9149517e-07
6.356665e-10
1.9233807e-07
5.2493639e-10
1.9285818e-07
3.9990296e-10
1.9316229e-07
2.6845849e-10
1.933305e-07
1.3440169e-10
1.934163e-07
-1.6390679e-13
1.9345161e-07
-1.3472637e-10
1.9345153e-07
-2.6877451e-10
1.9341608e-07
-4.0020228e-10
1.9333013e-07
-5.2521328e-10
1.9316178e-07
-6.3591448e-10
1.9285754e-07
-7.1644631e-10
1.9233732e-07
-7.4231906e-10
1.9149432e-07
-6.78201e-10
1.9019579e-07
-4.7198202e-10
1.8829944e-07
1.8561692e-07
4.934854e-10
1.97841e-07
7.0233939e-10
2.0068886e-07
7.6212023e-10
2.0270806e-07
7.3068828e-10
2.0408719e-07
6.4367572e-10
2.049787e-07
5.2749428e-10
2.0552471e-07
3.9933114e-10
2.0584038e-07
2.6688806e-10
2.0601261e-07
1.3317785e-10
2.0609911e-07
-1.6278693e-13
2.0613426e-07
-1.3350092e-10
2.0613418e-07
-2.6720178e-10
2.0609888e-07
-3.9962808e-10
2.0601222e-07
-5.2776658e-10
2.0583985e-07
-6.4391618e-10
2.0552405e-07
-7.3088681e-10
2.049779e-07
-7.622658e-10
2.0408629e-07
-7.0241187e-10
2.0270706e-07
-4.9347028e-10
2.0068776e-07
1.9783975e-07
5.2999687e-10
2.1020505e-07
7.3580987e-10
2.1322893e-07
7.843785e-10
2.1537029e-07
7.4299265e-10
2.1682656e-07
6.4696431e-10
2.1776253e-07
5.2427142e-10
2.1833001e-07
3.9324086e-10
2.1865296e-07
2.6114289e-10
2.1882578e-07
1.2969545e-10
2.1891058e-07
-2.0762842e-13
2.1894443e-07
-1.3010656e-10
2.1894435e-07
-2.6154244e-10
2.1891033e-07
-3.9361928e-10
2.1882537e-07
-5.246202e-10
2.1865241e-07
-6.4727569e-10
2.1832932e-07
-7.4326172e-10
2.1776171e-07
-7.8459781e-10
2.1682563e-07
-7.3596917e-10
2.1536927e-07
-5.3008464e-10
2.132278e-07
2.1020377e-07
5.7318925e-10
2.2275129e-07
7.7297898e-10
2.2596627e-07
8.0586924e-10
2.282275e-07
7.5051044e-10
2.2975631e-07
6.4265057e-10
2.3073099e-07
5.1234644e-10
2.3131362e-07
3.7907963e-10
2.3163792e-07
2.4934627e-10
2.3180651e-07
1.2303749e-10
2.3188614e-07
-2.3286061e-13
2.3191708e-07
-1.2349806e-10
2.31917e-07
-2.4979257e-10
2.3188589e-07
-3.7950102e-10
2.318061e-07
-5.1273336e-10
2.3163736e-07
-6.4299363e-10
2.3131291e-07
-7.5080326e-10
2.3073015e-07
-8.0611129e-10
2.2975537e-07
-7.7317014e-10
2.2822647e-07
-5.7332071e-10
2.2596515e-07
2.2274992e-07
6.0670126e-10
2.3554526e-07
8.052365e-10
2.3894624e-07
8.2016403e-10
2.4132837e-07
7.474966e-10
2.4292505e-07
6.2516793e-10
2.4393136e-07
4.8654587e-10
2.4452098e-07
3.5247002e-10
2.4483878e-07
2.2829497e-10
2.4499658e-07
1.1158068e-10
2.4506624e-07
-2.46089e-13
2.45092e-07
-1.120666e-10
2.4509191e-07
-2.2876473e-10
2.4506598e-07
-3.5291053e-10
2.4499616e-07
-4.8694598e-10
2.448382e-07
-6.255188e-10
2.4452026e-07
-7.4779404e-10
2.4393052e-07
-8.2039742e-10
2.4292409e-07
-8.0539115e-10
2.4132731e-07
-6.0676581e-10
2.3894507e-07
2.3554383e-07
6.4674391e-10
2.4864524e-07
8.3649158e-10
2.5223448e-07
8.2537352e-10
2.5473563e-07
7.2866341e-10
2.5639259e-07
5.8767075e-10
2.5742024e-07
4.3989879e-10
2.5800538e-07
3.0734109e-10
2.5830585e-07
1.9351128e-10
2.5844378e-07
9.3003944e-11
2.5849688e-07
-2.5791708e-13
2.5851429e-07
-9.3513704e-11
2.585142e-07
-1.9400286e-10
2.5849662e-07
-3.0779823e-10
2.5844334e-07
-4.4030747e-10
2.5830524e-07
-5.8802225e-10
2.5800463e-07
-7.2894855e-10
2.5741935e-07
-8.2558581e-10
2.5639158e-07
-8.3662188e-10
2.5473451e-07
-6.4678347e-10
2.5223324e-07
2.4864373e-07
6.9634259e-10
2.6211377e-07
8.6483454e-10
2.6590837e-07
8.1576991e-10
2.6852249e-07
6.856997e-10
2.7022758e-07
5.2060877e-10
2.7126152e-07
3.630676e-10
2.7182607e-07
2.3548189e-10
2.7209449e-07
1.3900506e-10
2.7219984e-07
6.4204985e-11
2.7222739e-07
-2.9751191e-13
2.7223215e-07
-6.4785305e-11
2.7223205e-07
-1.3956978e-10
2.7222711e-07
-2.3600302e-10
2.7219936e-07
-3.6353236e-10
2.7209383e-07
-5.2100702e-10
2.7182525e-07
-6.8602956e-10
2.7126056e-07
-8.1602416e-10
2.7022649e-07
-8.6500837e-10
2.6852127e-07
-6.9644091e-10
2.6590701e-07
2.6211208e-07
7.3622867e-10
2.7604521e-07
8.7833324e-10
2.8004816e-07
7.7956588e-10
2.8277176e-07
6.059908e-10
2.84509e-07
4.1093356e-10
2.8552887e-07
2.4413517e-10
2.8605041e-07
1.2891121e-10
2.8626518e-07
5.9080137e-11
2.863233e-07
2.2012212e-11
2.8631396e-07
-3.3640053e-13
2.863e-07
-2.2688272e-11
2.862999e-07
-5.9701134e-11
2.8631362e-07
-1.2948211e-10
2.8632277e-07
-2.446444e-10
2.8626445e-07
-4.113629e-10
2.860495e-07
-6.0633815e-10
2.8552779e-07
-7.7982871e-10
2.8450777e-07
-8.7851876e-10
2.827704e-07
-7.3635094e-10
2.8004664e-07
2.760433e-07
7.7310462e-10
2.9053824e-07
8.6985578e-10
2.9475913e-07
7.037209e-10
2.9758314e-07
4.727572e-10
2.993303e-07
2.4207873e-10
3.0030692e-07
6.5747954e-11
3.0075744e-07
-3.3436782e-11
3.0089259e-07
-6.3492036e-11
3.0087926e-07
-4.2608865e-11
3.0081492e-07
-3.6089813e-13
3.0077358e-07
4.1903323e-11
3.0077345e-07
6.2811998e-11
3.0081454e-07
3.2817138e-11
3.0087865e-07
-6.6279648e-11
3.0089175e-07
-2.4252913e-10
3.0075641e-07
-4.7312955e-10
3.0030571e-07
-7.0399864e-10
2.9932891e-07
-8.7004016e-10
2.975816e-07
-7.7321878e-10
2.9475741e-07
2.9053612e-07
7.9763384e-10
3.057133e-07
8.265547e-10
3.1016101e-07
5.6850571e-10
3.1307294e-07
2.6451619e-10
3.1479651e-07
-1.6126069e-11
3.1569803e-07
-2.0117026e-10
3.1603404e-07
-2.7071442e-10
3.1605071e-07
-2.3870509e-10
3.1593286e-07
-1.3463093e-10
3.157923e-07
-4.1838486e-13
3.1571261e-07
1.3380363e-10
3.1571247e-07
2.3791234e-10
3.1579188e-07
2.6999126e-10
3.1593216e-07
2.0052953e-10
3.1604976e-07
1.560292e-11
3.1603285e-07
-2.6490744e-10
3.1569662e-07
-5.6879703e-10
3.1479494e-07
-8.2674432e-10
3.1307119e-07
-7.977425e-10
3.1015908e-07
3.0571104e-07
7.9952438e-10
3.2172051e-07
7.2887537e-10
3.2639997e-07
3.4851759e-10
3.2937839e-07
-6.0817185e-11
3.3104526e-07
-3.9935109e-10
3.3181272e-07
-5.8861737e-10
3.3197843e-07
-6.0971004e-10
3.3182329e-07
-4.8825756e-10
3.3155913e-07
-2.6631925e-10
3.3131314e-07
-4.8092933e-13
3.3117908e-07
2.6537162e-10
3.3117893e-07
4.8735499e-10
3.3131267e-07
6.0888177e-10
3.3155835e-07
5.8789388e-10
3.3182221e-07
3.9875082e-10
3.3197708e-07
6.0340049e-11
3.3181113e-07
-3.4884066e-10
3.3104346e-07
-7.2907172e-10
3.2937642e-07
-7.9961649e-10
3.2639784e-07
3.2171816e-07
7.726096e-10
3.3873435e-07
5.4764644e-10
3.4366341e-07
-4.0163239e-12
3.4667325e-07
-5.4373888e-10
3.4822344e-07
-9.5511783e-10
3.4878513e-07
-1.1421966e-09
3.4870334e-07
-1.090874e-09
3.4830575e-07
-8.4068242e-10
3.4783807e-07
-4.5161491e-10
3.4744643e-07
-5.6029862e-13
3.4723782e-07
4.5050809e-10
3.4723765e-07
8.3962379e-10
3.4744591e-07
1.0899033e-09
3.478372e-07
1.1413465e-09
3.4830455e-07
9.544136e-10
3.4870184e-07
5.432035e-10
3.4878335e-07
3.6391994e-12
3.4822144e-07
-5.478693e-10
3.4667107e-07
-7.7269414e-10
3.436611e-07
3.3873199e-07
7.0649418e-10
3.5696731e-07
2.5401384e-10
3.6218078e-07
-5.3788345e-10
3.6517078e-07
-1.2538291e-09
3.6651743e-07
-1.7546942e-09
3.6676919e-07
-1.9279516e-09
3.6633438e-07
-1.7672506e-09
3.6559878e-07
-1.3322126e-09
3.6485119e-07
-7.0972497e-10
3.6426244e-07
-6.6467511e-13
3.6395267e-07
7.0841231e-10
3.6395248e-07
1.3309585e-09
3.6426187e-07
1.7660928e-09
3.6485024e-07
1.9269302e-09
3.6559747e-07
1.7538441e-09
3.6633274e-07
1.2531508e-09
3.6676725e-07
5.3739317e-10
3.6651524e-07
-2.5431704e-10
3.651684e-07
-7.0662921e-10
3.6217829e-07
3.5696491e-07
5.5566753e-10
3.7670556e-07
-2.0396775e-10
3.8221696e-07
-1.3317908e-09
3.8513407e-07
-2.2865082e-09
3.8615281e-07
-2.896335e-09
3.8594531e-07
-3.0333585e-09
3.8500939e-07
-2.7089135e-09
3.8380862e-07
-2.0121312e-09
3.8268233e-07
-1.0654458e-09
3.8183015e-07
-7.840329e-13
3.8138593e-07
1.0638953e-09
3.8138572e-07
2.0106455e-09
3.8182953e-07
2.7075364e-09
3.826813e-07
3.0321396e-09
3.8380719e-07
2.8953145e-09
3.850076e-07
2.2857097e-09
3.8594318e-07
1.3312093e-09
3.8615042e-07
2.0358371e-10
3.8513148e-07
-5.558584e-10
3.8221428e-07
3.7670305e-07
2.6153147e-10
3.9833894e-07
-9.3463142e-10
4.0411352e-07
-2.5166943e-09
4.0687876e-07
-3.7838681e-09
4.0739339e-07
-4.5144682e-09
4.0651563e-07
-4.5751002e-09
4.0487766e-07
-4.0065887e-09
4.0304327e-07
-2.9412574e-09
4.0141351e-07
-1.5493606e-09
4.002166e-07
-9.2366326e-13
3.9959775e-07
1.5475312e-09
3.9959753e-07
2.939497e-09
4.0021592e-07
4.0049553e-09
4.0141239e-07
4.5736476e-09
4.0304171e-07
4.5132459e-09
4.0487569e-07
3.7828904e-09
4.0651329e-07
2.5159678e-09
4.0739075e-07
9.3412559e-10
4.0687592e-07
-2.6188571e-10
4.0411067e-07
3.983361e-07
-1.5655676e-10
4.2229636e-07
-2.0468771e-09
4.2838312e-07
-4.2733663e-09
4.3083241e-07
-5.9446216e-09
4.3056037e-07
-6.7948147e-09
4.2870742e-07
-6.7050046e-09
4.2609466e-07
-5.7719332e-09
4.2341181e-07
-4.1923975e-09
4.2112675e-07
-2.1970256e-09
4.1949095e-07
-1.0889899e-12
4.1865239e-07
2.1948711e-09
4.1865215e-07
4.1903107e-09
4.1949022e-07
5.7699881e-09
4.2112552e-07
6.7032646e-09
4.2341009e-07
6.7933479e-09
4.2609245e-07
5.9434704e-09
4.2870478e-07
4.2725383e-09
4.3055739e-07
2.0463461e-09
4.3082918e-07
1.5641555e-10
4.2837978e-07
4.2229332e-07
-8.3874357e-10
4.4919723e-07
-3.7731098e-09
4.5568898e-07
-6.8914766e-09
4.5752621e-07
-9.0551527e-09
4.5602045e-07
-9.9820556e-09
4.5275257e-07
-9.6118002e-09
4.4880889e-07
-8.1355529e-09
4.4501889e-07
-5.8459706e-09
4.4190617e-07
-3.0461599e-09
4.3973279e-07
-1.2840164e-12
4.386297e-07
3.0436145e-09
4.3862943e-07
5.8435021e-09
4.3973199e-07
8.1332318e-09
4.4190483e-07
9.6097017e-09
4.4501699e-07
9.9802569e-09
4.4880643e-07
9.0537067e-09
4.5274959e-07
6.8904213e-09
4.5601702e-07
3.7724231e-09
4.5752246e-07
8.3837799e-10
4.5568511e-07
4.4919368e-07
-2.0453973e-09
4.7999066e-07
-6.5117686e-09
4.8688562e-07
-1.0821955e-08
4.8758609e-07
-1.3519951e-08
4.8414372e-07
-1.4388204e-08
4.7884547e-07
-1.35106e-08
4.7312963e-07
-1.1233783e-08
4.6794619e-07
-7.976427e-09
4.6384033e-07
-4.1288624e-09
4.6104625e-07
-1.5018547e-12
4.5964441e-07
4.1258804e-09
4.5964413e-07
7.9735159e-09
4.610454e-07
1.1231014e-08
4.6383889e-07
1.350806e-08
4.6794413e-07
1.4385995e-08
4.7312691e-07
1.3518173e-08
4.7884209e-07
1.0820673e-08
4.8413974e-07
6.5109286e-09
4.8758167e-07
2.0449349e-09
4.8688105e-07
4.799864e-07
-4.1495074e-09
5.16083e-07
-1.0933641e-08
5.2316307e-07
-1.6756392e-08
5.2168834e-07
-1.9888498e-08
5.1520424e-07
-2.0376675e-08
5.0705336e-07
-1.8612589e-08
4.9906769e-07
-1.516988e-08
4.9223526e-07
-1.0624619e-08
4.870318e-07
-5.4573186e-09
4.8358389e-07
-1.7380657e-12
4.8187647e-07
5.4538603e-09
4.8187619e-07
1.0621221e-08
4.8358302e-07
1.5166605e-08
4.8703031e-07
1.8609524e-08
4.9223309e-07
2.0373922e-08
4.9906478e-07
1.9886173e-08
5.0704965e-07
1.6754642e-08
5.151997e-07
1.0932514e-08
5.2168309e-07
4.1488981e-09
5.2315753e-07
5.1607783e-07
-8.0176826e-09
5.5979936e-07
-1.8257697e-08
5.6606632e-07
-2.5747947e-08
5.6033897e-07
-2.885809e-08
5.4912266e-07
-2.8309719e-08
5.3715466e-07
-2.5046434e-08
5.2646698e-07
-1.9944882e-08
5.1787714e-07
-1.3752267e-08
5.1161623e-07
-7.0011152e-09
5.0758051e-07
-1.9716201e-12
5.056109e-07
6.9971804e-09
5.0561063e-07
1.3748364e-08
5.0757968e-07
1.9941053e-08
5.1161479e-07
2.5042751e-08
5.17875e-07
2.8306293e-08
5.2646402e-07
2.8855087e-08
5.3715071e-07
2.5745576e-08
5.4911761e-07
1.8256068e-08
5.603328e-07
8.0167397e-09
5.6605944e-07
5.5979286e-07
-1.5735946e-08
6.1574093e-07
-3.0744986e-08
6.1723614e-07
-3.9369468e-08
6.032288e-07
-4.1197114e-08
5.8498785e-07
-3.8409785e-08
5.6835245e-07
-3.2726746e-08
5.549082e-07
-2.5363371e-08
5.447932e-07
-1.7184043e-08
5.3775985e-07
-8.6598152e-09
5.3335856e-07
-2.1630176e-12
5.3124572e-07
8.6554814e-09
5.3124549e-07
1.717969e-08
5.3335785e-07
2.5359004e-08
5.3775861e-07
3.2722386e-08
5.447913e-07
3.8405496e-08
5.5490547e-07
4.1193027e-08
5.6834861e-07
3.9365862e-08
5.8498256e-07
3.0742177e-08
6.032218e-07
1.5734112e-08
6.1722769e-07
6.1573247e-07
-3.2589453e-08
6.9364616e-07
-5.257771e-08
6.7665227e-07
-5.9649071e-08
6.4752641e-07
-5.7416306e-08
6.2018223e-07
-5.0397085e-08
5.9897835e-07
-4.1142211e-08
5.8364642e-07
-3.0934322e-08
5.7284119e-07
-2.0549616e-08
5.657151e-07
-1.0234608e-08
5.6138121e-07
-2.2609274e-12
5.5934656e-07
1.0230056e-08
5.5934641e-07
2.0544982e-08
5.6138076e-07
3.0929558e-08
5.6571428e-07
4.1137259e-08
5.7283987e-07
5.0391907e-08
5.8364438e-07
5.7410929e-08
5.9897522e-07
5.9643677e-08
6.2017751e-07
5.2572778e-08
6.4751941e-07
3.2585809e-08
6.7664251e-07
6.9363464e-07
-6.976431e-08
8.2417987e-07
-9.0042729e-08
7.3935282e-07
-8.7538373e-08
6.847585e-07
-7.6191362e-08
6.4948822e-07
-6.2442661e-08
6.2651874e-07
-4.8702877e-08
6.116861e-07
-3.5449173e-08
6.0180196e-07
-2.3095489e-08
5.958434e-07
-1.1359952e-08
5.9215693e-07
-2.192952e-12
5.9049606e-07
1.1355512e-08
5.9049607e-07
2.30909e-08
5.9215693e-07
3.5444335e-08
5.9584333e-07
4.8697614e-08
6.0180176e-07
6.2436758e-08
6.1168557e-07
7.6184586e-08
6.2651755e-07
8.7530501e-08
6.4948585e-07
9.0034027e-08
6.8475383e-07
6.9757076e-08
7.3934334e-07
8.2416265e-07
-1.5909811e-07
1.0507353e-06
-1.6223727e-07
8.0737861e-07
-1.3106196e-07
7.0182143e-07
-9.9547183e-08
6.6347893e-07
-7.4616325e-08
6.4517443e-07
-5.4636294e-08
6.355181e-07
-3.8061349e-08
6.2909342e-07
-2.4474086e-08
6.2542091e-07
-1.2047448e-08
6.2282008e-07
-1.9325016e-12
6.2148127e-07
1.2043543e-08
6.214815e-07
2.4469996e-08
6.2282078e-07
3.8056853e-08
6.2542208e-07
5.4631037e-08
6.2909517e-07
7.4609847e-08
6.3552031e-07
9.95389e-08
6.4517688e-07
1.310512e-07
6.6348117e-07
1.6222371e-07
7.0182225e-07
1.5908485e-07
8.0737223e-07
1.0507223e-06
-6.119874e-07
-5.6171589e-07
-4.1107904e-07
-2.8694531e-07
-2.0012264e-07
-1.386949e-07
-9.2698627e-08
-5.7289215e-08
-2.7149156e-08
-4.2307627e-12
2.7140508e-08
5.7280192e-08
9.2689411e-08
1.3868448e-07
2.0010995e-07
2.8692886e-07
4.1105759e-07
5.6169175e-07
6.1196406e-07
)
;

boundaryField
{
    Wall
    {
        type            calculated;
        value           uniform 0;
    }
    frontAndBack
    {
        type            empty;
        value           nonuniform 0();
    }
    atmosphere
    {
        type            calculated;
        value           nonuniform List<scalar> 
20
(
1.8868683e-06
1.4722624e-06
1.7059899e-06
1.9493683e-06
2.1295953e-06
2.2543195e-06
2.3318657e-06
2.3839126e-06
2.4125078e-06
2.4268155e-06
2.4268179e-06
2.4125146e-06
2.3839237e-06
2.3318821e-06
2.2543422e-06
2.1296263e-06
1.94941e-06
1.7060442e-06
1.4723255e-06
1.8868856e-06
)
;
    }
}


// ************************************************************************* //
