/*--------------------------------*- C++ -*----------------------------------*\
| =========                 |                                                 |
| \\      /  F ield         | OpenFOAM: The Open Source CFD Toolbox           |
|  \\    /   O peration     | Version:  3.0.1                                 |
|   \\  /    A nd           | Web:      www.OpenFOAM.org                      |
|    \\/     M anipulation  |                                                 |
\*---------------------------------------------------------------------------*/
FoamFile
{
    version     2.0;
    format      ascii;
    class       volScalarField;
    location    "42";
    object      rho_foam;
}
// * * * * * * * * * * * * * * * * * * * * * * * * * * * * * * * * * * * * * //

dimensions      [1 -3 0 0 0 0 0];

internalField   nonuniform List<scalar> 
800
(
49.387848
49.384093
49.383865
49.384051
49.384197
49.38428
49.384322
49.38434
49.384348
49.384351
49.38435
49.384348
49.38434
49.384322
49.38428
49.384197
49.38405
49.383864
49.384092
49.387848
49.42156
49.403742
49.399
49.397726
49.397491
49.397544
49.397648
49.397735
49.397791
49.397818
49.397818
49.397791
49.397735
49.397648
49.397544
49.397492
49.397727
49.399001
49.403743
49.421562
49.579308
49.546666
49.534963
49.531394
49.530457
49.530356
49.530477
49.530615
49.530713
49.530763
49.530763
49.530714
49.530615
49.530477
49.530356
49.530458
49.531395
49.534965
49.546669
49.579313
49.794006
49.747692
49.728584
49.722551
49.720825
49.72052
49.72063
49.720804
49.720938
49.721008
49.721008
49.720939
49.720805
49.720631
49.720521
49.720827
49.722553
49.728587
49.747697
49.794013
50.030457
49.972328
49.946205
49.937789
49.935322
49.934819
49.934911
49.93511
49.935273
49.935358
49.935358
49.935274
49.935112
49.934913
49.934821
49.935325
49.937793
49.946209
49.972334
50.030466
50.266096
50.198848
50.166571
50.156031
50.152989
50.15236
50.152459
50.152691
50.152883
50.152982
50.152982
50.152883
50.152692
50.152461
50.152363
50.152993
50.156035
50.166576
50.198854
50.266106
50.482418
50.409442
50.372279
50.360019
50.356664
50.356035
50.356201
50.35649
50.356722
50.35684
50.35684
50.356723
50.356492
50.356203
50.356039
50.356668
50.360024
50.372285
50.409449
50.482428
50.663767
50.588788
50.548382
50.53493
50.531582
50.531121
50.531436
50.531825
50.532116
50.53226
50.53226
50.532117
50.531826
50.531438
50.531124
50.531586
50.534935
50.548388
50.588795
50.663777
50.799088
50.725423
50.683651
50.669574
50.666539
50.666409
50.666956
50.667486
50.667856
50.668034
50.668035
50.667857
50.667488
50.666958
50.666412
50.666543
50.669579
50.683657
50.72543
50.799099
50.882277
50.812647
50.771542
50.757456
50.755028
50.755402
50.756283
50.757012
50.757492
50.757717
50.757717
50.757493
50.757014
50.756286
50.755405
50.755032
50.75746
50.771548
50.812654
50.882286
50.910935
50.84692
50.808422
50.794891
50.793285
50.794291
50.795594
50.79657
50.797183
50.797466
50.797467
50.797184
50.796572
50.795596
50.794294
50.793289
50.794895
50.808427
50.846926
50.910943
50.870477
50.828681
50.794556
50.782096
50.781484
50.783221
50.785029
50.786301
50.787069
50.787421
50.787422
50.78707
50.786302
50.785031
50.783223
50.781487
50.7821
50.79456
50.828686
50.870484
50.765695
50.727376
50.701127
50.690594
50.691006
50.693515
50.696005
50.697671
50.698637
50.699081
50.699081
50.698637
50.697672
50.696006
50.693517
50.691008
50.690597
50.70113
50.727379
50.7657
50.597929
50.562427
50.545351
50.537183
50.538381
50.541513
50.544821
50.546954
50.548144
50.548698
50.548698
50.548145
50.546955
50.544822
50.541514
50.538383
50.537185
50.545354
50.56243
50.597933
50.372849
50.338795
50.331119
50.325665
50.327322
50.330887
50.335172
50.337858
50.339312
50.339993
50.339993
50.339312
50.337859
50.335173
50.330888
50.327323
50.325666
50.33112
50.338797
50.372851
50.097942
50.062175
50.062938
50.060425
50.062164
50.066009
50.071442
50.074787
50.076571
50.07738
50.07738
50.076571
50.074788
50.071443
50.066009
50.062165
50.060425
50.062939
50.062176
50.097943
49.781285
49.738866
49.745904
49.746314
49.747733
49.751778
49.758572
49.762707
49.764931
49.765819
49.765819
49.764931
49.762708
49.758573
49.751778
49.747733
49.746314
49.745904
49.738866
49.781285
49.431372
49.375839
49.385853
49.388757
49.389403
49.393685
49.402158
49.407238
49.41007
49.410904
49.410904
49.41007
49.407239
49.402159
49.393685
49.389403
49.388756
49.385853
49.375838
49.431371
49.057499
48.98089
48.989566
48.993961
48.993258
48.997978
49.008609
49.01481
49.0185
49.019037
49.019037
49.0185
49.014811
49.008609
48.997978
48.993258
48.99396
48.989565
48.980889
49.057498
48.670484
48.563225
48.565321
48.569487
48.566658
48.572198
48.585612
48.593118
48.598017
48.597903
48.597903
48.598017
48.593119
48.585613
48.572198
48.566657
48.569486
48.56532
48.563224
48.670483
48.282843
48.133705
48.123185
48.124662
48.118738
48.125646
48.142543
48.15153
48.15809
48.156893
48.156893
48.15809
48.15153
48.142544
48.125646
48.118738
48.124661
48.123184
48.133704
48.282843
47.907271
47.70342
47.673452
47.669091
47.658954
47.667851
47.688881
47.699508
47.70823
47.705492
47.705492
47.70823
47.699509
47.688882
47.667851
47.658954
47.669091
47.673452
47.70342
47.907271
47.556955
47.283812
47.226656
47.212706
47.197075
47.208546
47.234236
47.246646
47.257974
47.253273
47.253273
47.257975
47.246648
47.234238
47.208548
47.197076
47.212706
47.226656
47.283812
47.556956
47.24615
46.887325
46.79414
46.766387
46.743714
46.758238
46.788965
46.803291
46.817457
46.810473
46.810473
46.817458
46.803293
46.788967
46.758239
46.743715
46.766388
46.794141
46.887326
47.246152
46.989726
46.526554
46.386958
46.340687
46.308968
46.326858
46.362903
46.379275
46.396189
46.386739
46.386739
46.39619
46.379277
46.362906
46.32686
46.30897
46.340688
46.386959
46.526555
46.989728
46.805156
46.215709
46.017401
45.947138
45.903817
45.925093
45.966658
45.9852
46.004407
45.992455
45.992456
46.004409
45.985203
45.966661
45.925095
45.903819
45.94714
46.017403
46.21571
46.805158
46.71373
45.971398
45.699631
45.598623
45.540574
45.564792
45.611953
45.632808
45.653537
45.639194
45.639194
45.653539
45.632811
45.611956
45.564795
45.540577
45.598625
45.699633
45.971399
46.713731
46.742804
45.813591
45.450266
45.3096
45.233094
45.259086
45.311659
45.334995
45.356276
45.339785
45.339785
45.356278
45.334999
45.311662
45.25909
45.233097
45.309602
45.450267
45.81359
46.742801
46.929456
45.768604
45.290487
45.09822
44.998704
45.024213
45.081579
45.1076
45.128421
45.110139
45.11014
45.128423
45.107604
45.081583
45.024217
44.998707
45.098222
45.290488
45.7686
46.929449
47.326112
45.873128
45.248648
44.988858
44.860229
44.881625
44.942658
44.971633
44.991136
44.971512
44.971513
44.991138
44.971637
44.942661
44.881628
44.860231
44.988858
45.248646
45.873119
47.326095
48.009563
46.180187
45.365022
45.016365
44.849405
44.861322
44.924681
44.957021
44.97467
44.954225
44.954226
44.974672
44.957024
44.924684
44.861324
44.849405
45.016362
45.365016
46.18017
48.009531
49.094788
46.768134
45.698065
45.231292
45.012013
45.006587
45.070888
45.107746
45.123466
45.102802
45.102803
45.123467
45.107749
45.07089
45.006588
45.012011
45.231285
45.698051
46.768102
49.09473
50.759802
47.753915
46.334285
45.707791
45.41582
45.381476
45.444655
45.48883
45.503083
45.482904
45.482905
45.503083
45.488832
45.444655
45.381475
45.415814
45.707778
46.334259
47.753859
50.759704
53.281919
49.315817
47.405672
46.557735
46.163107
46.083223
46.142511
46.196958
46.210779
46.191942
46.191942
46.210779
46.196957
46.142507
46.083218
46.163096
46.557713
47.405629
49.315722
53.281753
57.092887
51.731872
49.118376
47.954453
47.411283
47.264355
47.313644
47.378087
47.393138
47.376747
47.376746
47.393136
47.378083
47.313637
47.264344
47.411263
47.954418
49.118308
51.731718
57.092612
62.87234
55.437867
51.798489
50.176183
49.407963
49.16376
49.189302
49.257882
49.276434
49.264015
49.264014
49.276429
49.257874
49.189289
49.16374
49.407932
50.176128
51.798384
55.437629
62.871893
71.638748
61.10747
55.97011
53.66764
52.555667
52.155988
52.133638
52.198321
52.223292
52.217098
52.217096
52.223284
52.198307
52.133616
52.155956
52.555618
53.667556
55.969953
61.107117
71.638049
85.057837
69.846634
62.490972
59.145979
57.497493
56.839932
56.731833
56.76566
56.799986
56.803208
56.803204
56.799973
56.765636
56.7318
56.839885
57.497421
59.145856
62.490742
69.846114
85.056761
106.18875
83.523075
72.771575
67.787556
65.278024
64.194855
63.941539
63.863638
63.910758
63.928712
63.928706
63.910738
63.863604
63.941492
64.194787
65.277921
67.787379
72.771241
83.522291
106.18693
133.4838
104.98238
90.435272
83.254437
79.731941
77.909136
77.492457
77.283633
77.381549
77.438805
77.438799
77.381529
77.283598
77.492411
77.909066
79.73183
83.254235
90.434862
104.98129
133.48082
)
;

boundaryField
{
    Wall
    {
        type            zeroGradient;
    }
    frontAndBack
    {
        type            empty;
    }
    atmosphere
    {
        type            zeroGradient;
    }
}


// ************************************************************************* //
