/*--------------------------------*- C++ -*----------------------------------*\
| =========                 |                                                 |
| \\      /  F ield         | OpenFOAM: The Open Source CFD Toolbox           |
|  \\    /   O peration     | Version:  3.0.1                                 |
|   \\  /    A nd           | Web:      www.OpenFOAM.org                      |
|    \\/     M anipulation  |                                                 |
\*---------------------------------------------------------------------------*/
FoamFile
{
    version     2.0;
    format      ascii;
    class       volScalarField;
    location    "42";
    object      thermalDiffusivity;
}
// * * * * * * * * * * * * * * * * * * * * * * * * * * * * * * * * * * * * * //

dimensions      [0 2 -1 0 0 0 0];

internalField   nonuniform List<scalar> 
800
(
1.7975071e-07
1.7976046e-07
1.7976104e-07
1.7976056e-07
1.7976018e-07
1.7975996e-07
1.7975986e-07
1.7975981e-07
1.7975979e-07
1.7975978e-07
1.7975978e-07
1.7975979e-07
1.7975981e-07
1.7975986e-07
1.7975997e-07
1.7976018e-07
1.7976056e-07
1.7976105e-07
1.7976046e-07
1.7975072e-07
1.7965974e-07
1.7970609e-07
1.7971843e-07
1.7972174e-07
1.7972235e-07
1.7972222e-07
1.7972195e-07
1.7972172e-07
1.7972158e-07
1.7972152e-07
1.7972151e-07
1.7972158e-07
1.7972172e-07
1.7972195e-07
1.7972222e-07
1.7972235e-07
1.7972174e-07
1.7971842e-07
1.7970608e-07
1.7965973e-07
1.7925154e-07
1.7933569e-07
1.7936582e-07
1.7937502e-07
1.7937742e-07
1.7937767e-07
1.7937736e-07
1.79377e-07
1.7937675e-07
1.7937663e-07
1.7937663e-07
1.7937675e-07
1.79377e-07
1.7937736e-07
1.7937767e-07
1.7937741e-07
1.7937501e-07
1.7936581e-07
1.7933568e-07
1.7925152e-07
1.7870086e-07
1.7881916e-07
1.7886797e-07
1.7888337e-07
1.7888778e-07
1.7888855e-07
1.7888826e-07
1.7888781e-07
1.7888742e-07
1.7888725e-07
1.7888725e-07
1.7888742e-07
1.7888781e-07
1.7888825e-07
1.7888854e-07
1.7888778e-07
1.7888336e-07
1.7886796e-07
1.7881915e-07
1.7870085e-07
1.7810287e-07
1.7824877e-07
1.7831443e-07
1.7833554e-07
1.7834169e-07
1.7834292e-07
1.7834267e-07
1.7834216e-07
1.7834176e-07
1.7834155e-07
1.7834154e-07
1.7834176e-07
1.7834216e-07
1.7834267e-07
1.7834292e-07
1.7834169e-07
1.7833554e-07
1.7831442e-07
1.7824876e-07
1.7810285e-07
1.7752205e-07
1.7768755e-07
1.777671e-07
1.7779303e-07
1.7780043e-07
1.7780191e-07
1.7780163e-07
1.7780104e-07
1.7780059e-07
1.7780034e-07
1.7780034e-07
1.7780058e-07
1.7780103e-07
1.7780162e-07
1.7780191e-07
1.7780042e-07
1.7779302e-07
1.7776709e-07
1.7768753e-07
1.7752203e-07
1.7700238e-07
1.7717825e-07
1.7726784e-07
1.7729738e-07
1.7730533e-07
1.7730674e-07
1.7730627e-07
1.7730554e-07
1.7730498e-07
1.773047e-07
1.7730469e-07
1.7730498e-07
1.7730554e-07
1.7730627e-07
1.7730673e-07
1.7730532e-07
1.7729737e-07
1.7726783e-07
1.7717824e-07
1.7700235e-07
1.765821e-07
1.7675834e-07
1.7685303e-07
1.7688459e-07
1.7689225e-07
1.7689315e-07
1.7689229e-07
1.7689131e-07
1.768906e-07
1.7689025e-07
1.7689025e-07
1.768906e-07
1.7689131e-07
1.7689228e-07
1.7689314e-07
1.7689224e-07
1.7688458e-07
1.7685301e-07
1.7675832e-07
1.7658207e-07
1.7628775e-07
1.7645565e-07
1.7654997e-07
1.7658169e-07
1.7658821e-07
1.7658819e-07
1.7658674e-07
1.7658542e-07
1.7658452e-07
1.765841e-07
1.7658409e-07
1.7658452e-07
1.7658542e-07
1.7658673e-07
1.7658819e-07
1.765882e-07
1.7658168e-07
1.7654995e-07
1.7645564e-07
1.7628772e-07
1.7613381e-07
1.7628714e-07
1.7637461e-07
1.7640399e-07
1.764086e-07
1.7640722e-07
1.764049e-07
1.764031e-07
1.7640195e-07
1.7640142e-07
1.7640142e-07
1.7640195e-07
1.7640309e-07
1.764049e-07
1.7640721e-07
1.7640859e-07
1.7640398e-07
1.7637459e-07
1.7628713e-07
1.7613379e-07
1.7612722e-07
1.7626313e-07
1.7633445e-07
1.763601e-07
1.7636251e-07
1.7635941e-07
1.7635601e-07
1.7635366e-07
1.7635225e-07
1.7635153e-07
1.7635153e-07
1.7635225e-07
1.7635366e-07
1.7635601e-07
1.7635941e-07
1.7636251e-07
1.7636009e-07
1.7633443e-07
1.7626312e-07
1.761272e-07
1.7630476e-07
1.7637402e-07
1.7642622e-07
1.7645089e-07
1.7645004e-07
1.7644476e-07
1.7644072e-07
1.7643738e-07
1.7643517e-07
1.7643401e-07
1.7643401e-07
1.7643517e-07
1.7643738e-07
1.7644072e-07
1.7644476e-07
1.7645004e-07
1.7645088e-07
1.7642621e-07
1.7637401e-07
1.7630474e-07
1.7664844e-07
1.7669017e-07
1.7673349e-07
1.767566e-07
1.7674017e-07
1.7673219e-07
1.7672698e-07
1.7672249e-07
1.7671739e-07
1.7671817e-07
1.7671816e-07
1.7671736e-07
1.7672253e-07
1.7672701e-07
1.7673225e-07
1.7674018e-07
1.767566e-07
1.7673348e-07
1.7669017e-07
1.7664843e-07
1.7716315e-07
1.772155e-07
1.7729334e-07
1.7722718e-07
1.772048e-07
1.7720249e-07
1.7716735e-07
1.7716814e-07
1.7717603e-07
1.7719003e-07
1.7718996e-07
1.7717641e-07
1.7716811e-07
1.7716742e-07
1.7720154e-07
1.7720464e-07
1.7722718e-07
1.7729333e-07
1.7721551e-07
1.7716314e-07
1.7784584e-07
1.7802385e-07
1.7804013e-07
1.778185e-07
1.7786295e-07
1.7797926e-07
1.7795636e-07
1.7784447e-07
1.7800833e-07
1.7798594e-07
1.7798637e-07
1.7800677e-07
1.7784376e-07
1.7794929e-07
1.779781e-07
1.7786305e-07
1.7781848e-07
1.7804013e-07
1.7802385e-07
1.7784584e-07
1.7870046e-07
1.7879884e-07
1.7862624e-07
1.7859777e-07
1.7862066e-07
1.7874739e-07
1.8007009e-07
1.7945683e-07
1.7923492e-07
1.7865862e-07
1.7865911e-07
1.792356e-07
1.7945094e-07
1.8006756e-07
1.7874847e-07
1.7862081e-07
1.785978e-07
1.7862626e-07
1.7879885e-07
1.7870047e-07
1.7966794e-07
1.7960282e-07
1.7943872e-07
1.7951913e-07
1.7953934e-07
1.796418e-07
1.8098667e-07
1.8097621e-07
1.7984476e-07
1.7942534e-07
1.7942557e-07
1.7984683e-07
1.8098296e-07
1.8099341e-07
1.7964311e-07
1.7953938e-07
1.7951916e-07
1.7943874e-07
1.7960282e-07
1.7966795e-07
1.8084423e-07
1.8086358e-07
1.8053776e-07
1.8060738e-07
1.8092532e-07
1.811986e-07
1.8167368e-07
1.8161973e-07
1.8060534e-07
1.8034781e-07
1.8034667e-07
1.8060674e-07
1.8162461e-07
1.8168462e-07
1.812e-07
1.8092543e-07
1.8060737e-07
1.8053777e-07
1.8086361e-07
1.8084425e-07
1.8232187e-07
1.8667707e-07
1.8288067e-07
1.8323611e-07
1.8502607e-07
1.8479447e-07
1.8219468e-07
1.8166066e-07
1.816395e-07
1.8169115e-07
1.8169022e-07
1.8164089e-07
1.8166217e-07
1.8220307e-07
1.847854e-07
1.8502836e-07
1.8323518e-07
1.8288064e-07
1.8667733e-07
1.8232189e-07
1.8920883e-07
1.9416108e-07
1.9252985e-07
1.9315253e-07
1.933022e-07
1.8935047e-07
1.8402948e-07
1.8278469e-07
1.8276859e-07
1.8291865e-07
1.8291922e-07
1.8276997e-07
1.8278604e-07
1.8402486e-07
1.8934945e-07
1.933011e-07
1.9315136e-07
1.9252975e-07
1.9416115e-07
1.8920889e-07
1.9513073e-07
1.9548339e-07
1.9549009e-07
1.9547767e-07
1.912025e-07
1.884476e-07
1.8524354e-07
1.8414259e-07
1.8402006e-07
1.8430082e-07
1.8430019e-07
1.8401936e-07
1.8414106e-07
1.8521724e-07
1.8845859e-07
1.9120169e-07
1.9547774e-07
1.9549016e-07
1.9548346e-07
1.951308e-07
1.9640537e-07
1.9674084e-07
1.9677372e-07
1.9559264e-07
1.865925e-07
1.859467e-07
1.8532977e-07
1.8529882e-07
1.88316e-07
1.8823872e-07
1.8823032e-07
1.8831188e-07
1.8529697e-07
1.8532758e-07
1.859486e-07
1.8658937e-07
1.955945e-07
1.9677379e-07
1.9674091e-07
1.9640543e-07
1.9730536e-07
1.9779954e-07
1.9789024e-07
1.8963514e-07
1.8641661e-07
1.863784e-07
1.8631296e-07
1.8626388e-07
1.902569e-07
1.9026718e-07
1.9026693e-07
1.9025718e-07
1.8625652e-07
1.8630359e-07
1.8636934e-07
1.8640791e-07
1.8963021e-07
1.9789031e-07
1.9779961e-07
1.9730543e-07
1.9817713e-07
1.9887927e-07
1.9829206e-07
1.8772825e-07
1.8755999e-07
1.8762222e-07
1.8962844e-07
1.9055561e-07
1.9083122e-07
1.9132152e-07
1.9132173e-07
1.9083521e-07
1.9056062e-07
1.8964877e-07
1.8761887e-07
1.8755734e-07
1.8772881e-07
1.9829262e-07
1.9887934e-07
1.981772e-07
1.9897832e-07
1.9994387e-07
1.9268285e-07
1.8895917e-07
1.9264523e-07
1.9336225e-07
1.9455174e-07
1.9451034e-07
1.9122265e-07
1.9190123e-07
1.9189978e-07
1.912226e-07
1.9451345e-07
1.9455485e-07
1.9336133e-07
1.9265513e-07
1.8895957e-07
1.9268335e-07
1.9994394e-07
1.9897839e-07
1.9965787e-07
2.0094823e-07
1.9311339e-07
1.9470399e-07
1.9583675e-07
1.9577845e-07
1.9566861e-07
1.9562021e-07
1.9226036e-07
1.9229047e-07
1.9229043e-07
1.9226031e-07
1.9562337e-07
1.9567178e-07
1.9578161e-07
1.9583992e-07
1.9470052e-07
1.9311428e-07
2.009483e-07
1.9965794e-07
2.0015587e-07
2.0037198e-07
1.9610763e-07
1.95207e-07
1.969384e-07
1.9686811e-07
1.9673843e-07
1.9668073e-07
1.9602856e-07
1.9328291e-07
1.9328286e-07
1.9601925e-07
1.9668396e-07
1.9674166e-07
1.9687134e-07
1.9694164e-07
1.9521659e-07
1.9610539e-07
2.0037098e-07
2.0015594e-07
1.925014e-07
1.9330039e-07
1.9764123e-07
1.9454892e-07
1.9793904e-07
1.9786136e-07
1.9771029e-07
1.9764439e-07
1.9758091e-07
1.941733e-07
1.9417328e-07
1.975842e-07
1.976477e-07
1.9771359e-07
1.9786467e-07
1.9794235e-07
1.9454904e-07
1.9763977e-07
1.9330028e-07
1.9250251e-07
1.9063843e-07
1.9341367e-07
1.9826171e-07
1.952324e-07
1.9877318e-07
1.9869324e-07
1.9852463e-07
1.9844833e-07
1.9728956e-07
1.9614451e-07
1.9616134e-07
1.9729645e-07
1.984517e-07
1.9852802e-07
1.9869663e-07
1.9877657e-07
1.9523253e-07
1.9826033e-07
1.9341382e-07
1.9063858e-07
1.8987897e-07
1.9323497e-07
1.9666668e-07
1.9563896e-07
1.9720508e-07
1.9855361e-07
1.9910193e-07
1.9706706e-07
1.9562157e-07
1.9744717e-07
1.9744656e-07
1.9562171e-07
1.9704914e-07
1.9910538e-07
1.9855726e-07
1.971926e-07
1.9563909e-07
1.9666917e-07
1.9323512e-07
1.8987915e-07
1.8837975e-07
1.9255548e-07
1.9467218e-07
1.9565472e-07
1.9613735e-07
1.960999e-07
1.9618296e-07
1.9581865e-07
1.95765e-07
1.976422e-07
1.9764282e-07
1.9576513e-07
1.9581878e-07
1.9617304e-07
1.9610003e-07
1.9613748e-07
1.9565487e-07
1.9467234e-07
1.9255567e-07
1.8837998e-07
1.8552811e-07
1.9125685e-07
1.9386959e-07
1.9514015e-07
1.957602e-07
1.9577414e-07
1.9558823e-07
1.9548366e-07
1.9543656e-07
1.9570861e-07
1.9570958e-07
1.954367e-07
1.9548379e-07
1.9558837e-07
1.9577428e-07
1.9576035e-07
1.9514031e-07
1.9386977e-07
1.9125706e-07
1.8552841e-07
1.813359e-07
1.8926457e-07
1.9235539e-07
1.9393992e-07
1.9472114e-07
1.9481511e-07
1.9464207e-07
1.9452308e-07
1.9448239e-07
1.9453729e-07
1.9453743e-07
1.9448254e-07
1.9452323e-07
1.9464222e-07
1.9481526e-07
1.9472131e-07
1.939401e-07
1.923556e-07
1.8926483e-07
1.8133631e-07
1.7542285e-07
1.850129e-07
1.9004099e-07
1.9191526e-07
1.9286445e-07
1.930656e-07
1.9291921e-07
1.9278605e-07
1.9275067e-07
1.9279767e-07
1.9279782e-07
1.9275082e-07
1.927862e-07
1.9291937e-07
1.9306577e-07
1.9286464e-07
1.9191546e-07
1.9004123e-07
1.8501331e-07
1.7542339e-07
1.6740535e-07
1.7895561e-07
1.8555902e-07
1.8874531e-07
1.9011161e-07
1.904237e-07
1.9032346e-07
1.9019151e-07
1.9016015e-07
1.9019543e-07
1.9019559e-07
1.9016032e-07
1.9019168e-07
1.9032363e-07
1.9042388e-07
1.9011181e-07
1.8874557e-07
1.8555936e-07
1.7895615e-07
1.6740607e-07
1.7056897e-07
1.7083452e-07
1.7877141e-07
1.828141e-07
1.8482022e-07
1.8548079e-07
1.8542482e-07
1.8525105e-07
1.852051e-07
1.8524021e-07
1.8524037e-07
1.8520528e-07
1.8525123e-07
1.8542501e-07
1.85481e-07
1.8482047e-07
1.8281441e-07
1.7877183e-07
1.7083454e-07
1.705652e-07
3.8685805e-07
1.9455481e-07
1.7103852e-07
1.7438707e-07
1.7695507e-07
1.7791907e-07
1.7799293e-07
1.7785168e-07
1.777996e-07
1.7781805e-07
1.7781822e-07
1.7779978e-07
1.7785188e-07
1.7799314e-07
1.7791931e-07
1.7695535e-07
1.7438743e-07
1.7103846e-07
1.9454582e-07
3.8678413e-07
5.689766e-06
6.3409621e-07
2.2248142e-07
1.9219218e-07
1.8669317e-07
1.8488778e-07
1.8413502e-07
1.8363736e-07
1.8331125e-07
1.8319443e-07
1.831944e-07
1.8331108e-07
1.8363699e-07
1.8413453e-07
1.8488705e-07
1.8669203e-07
1.9218992e-07
2.2247353e-07
6.3398368e-07
5.6874626e-06
0.0001288523
9.9503407e-06
1.6978867e-06
8.9298692e-07
6.6692996e-07
5.8107195e-07
5.4615308e-07
5.2636199e-07
5.15236e-07
5.1037675e-07
5.1037443e-07
5.1522902e-07
5.2634915e-07
5.46136e-07
5.8104801e-07
6.6689063e-07
8.9291225e-07
1.6976562e-06
9.9481342e-06
0.00012882323
0.00044275797
0.00044524489
0.00015226253
0.00013300978
0.00012769332
0.00012442677
0.00012277736
0.00012164062
0.00012093208
0.00012063187
0.0001206317
0.00012093153
0.00012163962
0.00012277608
0.00012442513
0.00012769124
0.00013300692
0.00015225693
0.00044524555
0.00044275858
)
;

boundaryField
{
    Wall
    {
        type            calculated;
        value           uniform 4e-05;
    }
    frontAndBack
    {
        type            empty;
    }
    atmosphere
    {
        type            calculated;
        value           uniform 4e-05;
    }
}


// ************************************************************************* //
