/*--------------------------------*- C++ -*----------------------------------*\
| =========                 |                                                 |
| \\      /  F ield         | OpenFOAM: The Open Source CFD Toolbox           |
|  \\    /   O peration     | Version:  3.0.1                                 |
|   \\  /    A nd           | Web:      www.OpenFOAM.org                      |
|    \\/     M anipulation  |                                                 |
\*---------------------------------------------------------------------------*/
FoamFile
{
    version     2.0;
    format      ascii;
    class       volScalarField;
    location    "21";
    object      alpha.gas;
}
// * * * * * * * * * * * * * * * * * * * * * * * * * * * * * * * * * * * * * //

dimensions      [0 0 0 0 0 0 0];

internalField   nonuniform List<scalar> 
800
(
2.8206132e-28
2.3111594e-25
4.4469192e-22
8.6716478e-22
5.6211198e-24
1.0720599e-21
9.3345994e-22
5.6068827e-23
1.207225e-25
1.0218427e-28
3.0561177e-23
2.9773849e-23
2.2537341e-25
6.9249831e-23
6.8232166e-23
1.6083174e-27
3.444565e-32
9.7794596e-36
1.9286514e-39
3.5822084e-43
2.9901852e-12
6.7943087e-13
4.9276694e-11
1.7633521e-11
7.0597798e-13
2.3298861e-11
1.8331588e-11
2.2065816e-11
4.4855112e-11
1.1262828e-10
5.6588236e-11
5.6345646e-11
3.0482791e-11
1.806809e-11
1.7066144e-11
3.3254703e-12
2.8422335e-16
6.6174816e-14
9.5010322e-12
1.3032768e-14
3.4737234e-06
3.2477469e-06
3.2129044e-06
3.2158284e-06
3.2204739e-06
3.2239934e-06
3.2256733e-06
3.2263418e-06
3.2265248e-06
3.2265741e-06
3.2265371e-06
3.2265323e-06
3.226347e-06
3.2256724e-06
3.2239882e-06
3.220474e-06
3.2158141e-06
3.2128694e-06
3.2477505e-06
3.4737214e-06
1.6122874e-05
1.4982689e-05
1.4825238e-05
1.4845206e-05
1.4867605e-05
1.4882908e-05
1.4890067e-05
1.4892436e-05
1.4892983e-05
1.4892949e-05
1.4892917e-05
1.4892989e-05
1.4892438e-05
1.4890062e-05
1.4882897e-05
1.4867597e-05
1.4845182e-05
1.4825198e-05
1.4982683e-05
1.6122867e-05
4.5311642e-05
4.1804144e-05
4.1347674e-05
4.140278e-05
4.1463597e-05
4.1500944e-05
4.151771e-05
4.1522504e-05
4.152323e-05
4.1522669e-05
4.1522636e-05
4.1523231e-05
4.1522497e-05
4.1517692e-05
4.1500913e-05
4.1463567e-05
4.1402727e-05
4.1347608e-05
4.1804111e-05
4.5311612e-05
0.00010344974
9.4403707e-05
9.3258577e-05
9.3315284e-05
9.342349e-05
9.348599e-05
9.3511389e-05
9.351815e-05
9.3518023e-05
9.3516345e-05
9.3516308e-05
9.351801e-05
9.3518118e-05
9.3511336e-05
9.3485911e-05
9.3423403e-05
9.3315164e-05
9.3258445e-05
9.4403607e-05
0.00010344963
0.00022667022
0.00020241689
0.00019919277
0.00019892971
0.00019899411
0.00019904131
0.00019905366
0.00019905941
0.00019905708
0.00019905569
0.00019905564
0.00019905704
0.00019905932
0.00019905352
0.00019904111
0.00019899388
0.00019892941
0.00019919245
0.00020241659
0.00022666985
0.00059209024
0.00050517121
0.00049079974
0.00048804894
0.00048727451
0.00048700007
0.0004868846
0.00048688643
0.00048689518
0.0004869133
0.00048691321
0.00048689505
0.00048688616
0.00048688416
0.00048699944
0.00048727373
0.00048804797
0.00049079871
0.00050517006
0.00059208876
0.002653159
0.0020766369
0.0019605435
0.0019316289
0.0019211393
0.0019174569
0.0019164021
0.0019166312
0.0019170206
0.0019173566
0.0019173563
0.0019170199
0.0019166298
0.0019163997
0.0019174533
0.0019211346
0.0019316232
0.0019605372
0.0020766294
0.0026531485
0.038095924
0.025758169
0.023257067
0.022557147
0.02229821
0.022212215
0.022194038
0.022204246
0.022217846
0.022227853
0.022227848
0.022217833
0.02220422
0.022193992
0.022212146
0.022298119
0.022557038
0.023256944
0.025758014
0.038095695
0.49146722
0.40964149
0.38865896
0.38238164
0.38005462
0.37930528
0.37917645
0.37929748
0.37944203
0.37954461
0.37954457
0.3794419
0.37929724
0.37917603
0.37930466
0.3800538
0.38238067
0.38865789
0.40964028
0.49146596
0.94045032
0.91442265
0.90643819
0.90407794
0.90321922
0.9029569
0.90292668
0.90298674
0.90305117
0.90309559
0.90309557
0.90305112
0.90298664
0.90292651
0.90295666
0.9032189
0.90407756
0.90643778
0.91442223
0.94044999
0.99891048
0.99783867
0.99742247
0.99731801
0.99728774
0.99728279
0.9972863
0.99729234
0.99729729
0.99730036
0.99730036
0.99729729
0.99729233
0.9972863
0.99728277
0.99728773
0.99731799
0.99742245
0.99783865
0.99891047
0.99999822
0.99999332
0.99999069
0.99999017
0.99999015
0.99999023
0.99999033
0.99999041
0.99999047
0.9999905
0.9999905
0.99999047
0.99999041
0.99999033
0.99999023
0.99999015
0.99999017
0.99999069
0.99999332
0.99999822
1
1
1
1
1
1
1
1
1
1
1
1
1
1
1
1
1
1
1
1
1
1
1
1
1
1
1
1
1
1
1
1
1
1
1
1
1
1
1
1
1
1
1
1
1
1
1
1
1
1
1
1
1
1
1
1
1
1
1
1
1
1
1
1
1
1
1
1
1
1
1
1
1
1
1
1
1
1
1
1
1
1
1
1
1
1
1
1
1
1
1
1
1
1
1
1
1
1
1
1
1
1
1
1
1
1
1
1
1
1
1
1
1
1
1
1
1
1
1
1
1
1
1
1
1
1
1
1
1
1
1
1
1
1
1
1
1
1
1
1
1
1
1
1
1
1
1
1
1
1
1
1
1
1
1
1
1
1
1
1
1
1
1
1
1
1
1
1
1
1
1
1
1
1
1
1
1
1
1
1
1
1
1
1
1
1
1
1
1
1
1
1
1
1
1
1
1
1
1
1
1
1
1
1
1
1
1
1
1
1
1
1
1
1
1
1
1
1
1
1
1
1
1
1
1
1
1
1
1
1
1
1
1
1
1
1
1
1
1
1
1
1
1
1
1
1
1
1
1
1
1
1
1
1
1
1
1
1
1
1
1
1
1
1
1
1
1
1
1
1
1
1
1
1
1
1
1
1
1
1
1
1
1
1
1
1
1
1
1
1
1
1
1
1
1
1
1
1
1
1
1
1
1
1
1
1
1
1
1
1
1
1
1
1
1
1
1
1
1
1
1
1
1
1
1
1
1
1
1
1
1
1
1
1
1
1
1
1
1
1
1
1
1
1
1
1
1
1
1
1
1
1
1
1
1
1
1
1
1
1
1
1
1
1
1
1
1
1
1
1
1
1
1
1
1
1
1
1
1
1
1
1
1
1
1
1
1
1
1
1
1
1
1
1
1
1
1
1
1
1
1
1
1
1
1
1
1
1
1
1
1
1
1
1
1
1
1
1
1
1
1
1
1
1
1
1
1
1
1
1
1
1
1
1
1
1
1
1
1
1
1
1
1
1
1
1
1
1
1
1
1
1
1
1
1
1
1
1
1
1
1
1
1
1
1
1
1
1
1
1
1
1
1
1
1
1
1
1
1
1
1
1
1
1
1
1
1
1
1
1
1
1
1
1
1
1
1
1
1
1
1
1
1
1
1
1
1
1
1
1
1
1
1
1
1
1
1
1
1
1
)
;

boundaryField
{
    Wall
    {
        type            zeroGradient;
    }
    frontAndBack
    {
        type            empty;
    }
    atmosphere
    {
        type            zeroGradient;
    }
}


// ************************************************************************* //
