/*--------------------------------*- C++ -*----------------------------------*\
| =========                 |                                                 |
| \\      /  F ield         | OpenFOAM: The Open Source CFD Toolbox           |
|  \\    /   O peration     | Version:  3.0.1                                 |
|   \\  /    A nd           | Web:      www.OpenFOAM.org                      |
|    \\/     M anipulation  |                                                 |
\*---------------------------------------------------------------------------*/
FoamFile
{
    version     2.0;
    format      ascii;
    class       volScalarField;
    location    "21";
    object      g1_BA;
}
// * * * * * * * * * * * * * * * * * * * * * * * * * * * * * * * * * * * * * //

dimensions      [0 0 0 0 0 0 0];

internalField   nonuniform List<scalar> 
800
(
0.24627245
0.24634933
0.24636022
0.24636161
0.24636215
0.24636268
0.24636321
0.24636366
0.24636396
0.24636411
0.24636412
0.24636396
0.24636366
0.24636322
0.24636268
0.24636215
0.24636162
0.24636022
0.24634933
0.24627245
0.19946418
0.20073191
0.20094468
0.20096251
0.20095594
0.20095441
0.20095847
0.20096452
0.20096972
0.20097261
0.20097261
0.20096972
0.20096452
0.20095848
0.20095442
0.20095595
0.20096252
0.2009447
0.20073192
0.19946418
0.15554613
0.15732192
0.15772904
0.15777968
0.15777605
0.15777419
0.15777958
0.1577879
0.15779528
0.15779947
0.15779947
0.15779528
0.15778791
0.15777959
0.1577742
0.15777607
0.1577797
0.15772906
0.15732194
0.15554614
0.1188922
0.12097697
0.12150055
0.12156189
0.12155678
0.12155058
0.12155359
0.12156046
0.12156728
0.12157126
0.12157126
0.12156728
0.12156047
0.12155361
0.1215506
0.1215568
0.12156193
0.12150058
0.12097701
0.11889223
0.088940288
0.091156383
0.091784086
0.091865689
0.091861363
0.09185129
0.091851176
0.091855195
0.091860305
0.091863326
0.091863329
0.091860311
0.091855206
0.091851195
0.091851317
0.091861396
0.091865733
0.091784131
0.091156428
0.088940327
0.063175917
0.065541136
0.066298918
0.066417866
0.066424752
0.066417347
0.066417294
0.06641986
0.066423864
0.06642607
0.066426074
0.066423871
0.066419874
0.066417316
0.066417379
0.066424792
0.066417917
0.066298971
0.065541189
0.063175967
0.038790423
0.041410885
0.042170091
0.042345144
0.042380204
0.042386726
0.042393177
0.0423982
0.042403125
0.042405409
0.042405412
0.042403132
0.042398214
0.0423932
0.042386759
0.042380246
0.042345195
0.042170145
0.04141094
0.038790477
0.01421236
0.016952962
0.017674314
0.017908848
0.017983207
0.018012529
0.018030579
0.018041431
0.01804889
0.018052042
0.018052044
0.018048895
0.01804144
0.018030597
0.018012556
0.017983241
0.017908891
0.017674358
0.01695301
0.014212406
0
0
0
0
0
0
0
0
0
0
0
0
0
0
0
0
0
0
0
0
0
0
0
0
0
0
0
0
0
0
0
0
0
0
0
0
0
0
0
0
0
0
0
0
0
0
0
0
0
0
0
0
0
0
0
0
0
0
0
0
0
0
0
0
0
0
0
0
0
0
0
0
0
0
0
0
0
0
0
0
0
0
0
0
0
0
0
0
0
0
0
0
0
0
0
0
0
0
0
0
0
0
0
0
0
0
0
0
0
0
0
0
0
0
0
0
0
0
0
0
0
0
0
0
0
0
0
0
0
0
0
0
0
0
0
0
0
0
0
0
0
0
0
0
0
0
0
0
0
0
0
0
0
0
0
0
0
0
0
0
0
0
0
0
0
0
0
0
0
0
0
0
0
0
0
0
0
0
0
0
0
0
0
0
0
0
0
0
0
0
0
0
0
0
0
0
0
0
0
0
0
0
0
0
0
0
0
0
0
0
0
0
0
0
0
0
0
0
0
0
0
0
0
0
0
0
0
0
0
0
0
0
0
0
0
0
0
0
0
0
0
0
0
0
0
0
0
0
0
0
0
0
0
0
0
0
0
0
0
0
0
0
0
0
0
0
0
0
0
0
0
0
0
0
0
0
0
0
0
0
0
0
0
0
0
0
0
0
0
0
0
0
0
0
0
0
0
0
0
0
0
0
0
0
0
0
0
0
0
0
0
0
0
0
0
0
0
0
0
0
0
0
0
0
0
0
0
0
0
0
0
0
0
0
0
0
0
0
0
0
0
0
0
0
0
0
0
0
0
0
0
0
0
0
0
0
0
0
0
0
0
0
0
0
0
0
0
0
0
0
0
0
0
0
0
0
0
0
0
0
0
0
0
0
0
0
0
0
0
0
0
0
0
0
0
0
0
0
0
0
0
0
0
0
0
0
0
0
0
0
0
0
0
0
0
0
0
0
0
0
0
0
0
0
0
0
0
0
0
0
0
0
0
0
0
0
0
0
0
0
0
0
0
0
0
0
0
0
0
0
0
0
0
0
0
0
0
0
0
0
0
0
0
0
0
0
0
0
0
0
0
0
0
0
0
0
0
0
0
0
0
0
0
0
0
0
0
0
0
0
0
0
0
0
0
0
0
0
0
0
0
0
0
0
0
0
0
0
0
0
0
0
0
0
0
0
0
0
0
0
0
0
0
0
0
0
0
0
0
0
0
0
0
0
0
0
0
0
0
0
0
0
0
0
0
0
0
0
0
0
0
0
0
0
0
0
0
0
0
0
0
0
0
0
0
0
0
0
0
0
0
0
0
0
0
0
0
0
0
0
0
0
0
0
0
0
0
0
0
0
0
0
0
0
0
0
0
0
0
0
0
0
0
0
0
0
0
0
0
0
0
0
0
0
0
0
0
0
0
0
0
0
0
0
0
0
0
0
0
0
0
0
0
0
0
0
0
0
0
0
)
;

boundaryField
{
    Wall
    {
        type            zeroGradient;
    }
    frontAndBack
    {
        type            empty;
    }
    atmosphere
    {
        type            zeroGradient;
    }
}


// ************************************************************************* //
