/*--------------------------------*- C++ -*----------------------------------*\
| =========                 |                                                 |
| \\      /  F ield         | OpenFOAM: The Open Source CFD Toolbox           |
|  \\    /   O peration     | Version:  3.0.1                                 |
|   \\  /    A nd           | Web:      www.OpenFOAM.org                      |
|    \\/     M anipulation  |                                                 |
\*---------------------------------------------------------------------------*/
FoamFile
{
    version     2.0;
    format      ascii;
    class       volScalarField;
    location    "21";
    object      g1_CO2;
}
// * * * * * * * * * * * * * * * * * * * * * * * * * * * * * * * * * * * * * //

dimensions      [0 0 0 0 0 0 0];

internalField   nonuniform List<scalar> 
800
(
0.47576238
0.4757931
0.47579822
0.47579898
0.47579929
0.47579959
0.47579988
0.47580012
0.47580028
0.47580036
0.47580036
0.47580028
0.47580012
0.47579988
0.47579959
0.47579929
0.47579898
0.47579822
0.4757931
0.47576238
0.49672129
0.49670116
0.49674675
0.49673805
0.49671769
0.49669956
0.49668711
0.49667967
0.49667568
0.49667396
0.49667396
0.49667568
0.49667967
0.49668711
0.49669956
0.49671769
0.49673804
0.49674674
0.49670115
0.49672128
0.52946301
0.52902678
0.52894739
0.5289349
0.52891044
0.52888712
0.52887111
0.52886167
0.52885669
0.52885457
0.52885457
0.52885669
0.52886167
0.52887111
0.52888712
0.52891044
0.5289349
0.52894739
0.52902678
0.52946302
0.58329859
0.58188002
0.58164884
0.58163213
0.58160007
0.58157156
0.58155173
0.58154023
0.58153401
0.58153141
0.58153141
0.58153402
0.58154023
0.58155173
0.58157157
0.58160007
0.58163214
0.58164885
0.58188004
0.58329862
0.66092616
0.65794438
0.65758031
0.6575294
0.65746825
0.65742099
0.65738944
0.65737163
0.65736189
0.65735797
0.65735797
0.6573619
0.65737163
0.65738945
0.657421
0.65746826
0.65752942
0.65758033
0.65794441
0.6609262
0.75476189
0.75114924
0.75061194
0.75060538
0.75046439
0.75036599
0.75030686
0.75027483
0.75025806
0.75025153
0.75025153
0.75025807
0.75027484
0.75030687
0.75036601
0.75046441
0.7506054
0.75061197
0.75114928
0.75476192
0.83708569
0.83842351
0.83684907
0.83683671
0.83656003
0.83638137
0.83628261
0.83623181
0.83620738
0.83619821
0.83619822
0.83620739
0.83623182
0.83628262
0.83638139
0.83656004
0.83683673
0.8368491
0.83842353
0.83708571
0.81488591
0.83058606
0.83680008
0.83695409
0.83664359
0.83645563
0.83636745
0.83633206
0.8363212
0.83631886
0.83631886
0.83632119
0.83633205
0.83636745
0.83645562
0.83664359
0.83695409
0.83680008
0.83058606
0.81488589
0.56176951
0.58344368
0.58937282
0.59069473
0.59088565
0.59102345
0.59114311
0.59123989
0.59130587
0.59133844
0.59133843
0.59130584
0.59123984
0.59114307
0.5910234
0.5908856
0.59069469
0.58937278
0.58344363
0.56176942
0.37436673
0.39565564
0.40178432
0.40359168
0.40413529
0.40447379
0.4046966
0.40484999
0.404943
0.40498684
0.40498682
0.40494296
0.40484992
0.40469653
0.40447371
0.40413522
0.4035916
0.40178424
0.39565556
0.37436661
0.17897201
0.20319347
0.21312952
0.21500325
0.21559114
0.21586926
0.21601261
0.21610105
0.21614899
0.21616978
0.21616976
0.21614895
0.21610099
0.21601255
0.21586919
0.21559108
0.21500319
0.21312946
0.20319342
0.17897195
0
0
0
0
0
0
0
0
0
0
0
0
0
0
0
0
0
0
0
0
0
0
0
0
0
0
0
0
0
0
0
0
0
0
0
0
0
0
0
0
0
0
0
0
0
0
0
0
0
0
0
0
0
0
0
0
0
0
0
0
0
0
0
0
0
0
0
0
0
0
0
0
0
0
0
0
0
0
0
0
0
0
0
0
0
0
0
0
0
0
0
0
0
0
0
0
0
0
0
0
0
0
0
0
0
0
0
0
0
0
0
0
0
0
0
0
0
0
0
0
0
0
0
0
0
0
0
0
0
0
0
0
0
0
0
0
0
0
0
0
0
0
0
0
0
0
0
0
0
0
0
0
0
0
0
0
0
0
0
0
0
0
0
0
0
0
0
0
0
0
0
0
0
0
0
0
0
0
0
0
0
0
0
0
0
0
0
0
0
0
0
0
0
0
0
0
0
0
0
0
0
0
0
0
0
0
0
0
0
0
0
0
0
0
0
0
0
0
0
0
0
0
0
0
0
0
0
0
0
0
0
0
0
0
0
0
0
0
0
0
0
0
0
0
0
0
0
0
0
0
0
0
0
0
0
0
0
0
0
0
0
0
0
0
0
0
0
0
0
0
0
0
0
0
0
0
0
0
0
0
0
0
0
0
0
0
0
0
0
0
0
0
0
0
0
0
0
0
0
0
0
0
0
0
0
0
0
0
0
0
0
0
0
0
0
0
0
0
0
0
0
0
0
0
0
0
0
0
0
0
0
0
0
0
0
0
0
0
0
0
0
0
0
0
0
0
0
0
0
0
0
0
0
0
0
0
0
0
0
0
0
0
0
0
0
0
0
0
0
0
0
0
0
0
0
0
0
0
0
0
0
0
0
0
0
0
0
0
0
0
0
0
0
0
0
0
0
0
0
0
0
0
0
0
0
0
0
0
0
0
0
0
0
0
0
0
0
0
0
0
0
0
0
0
0
0
0
0
0
0
0
0
0
0
0
0
0
0
0
0
0
0
0
0
0
0
0
0
0
0
0
0
0
0
0
0
0
0
0
0
0
0
0
0
0
0
0
0
0
0
0
0
0
0
0
0
0
0
0
0
0
0
0
0
0
0
0
0
0
0
0
0
0
0
0
0
0
0
0
0
0
0
0
0
0
0
0
0
0
0
0
0
0
0
0
0
0
0
0
0
0
0
0
0
0
0
0
0
0
0
0
0
0
0
0
0
0
0
0
0
0
0
0
0
0
0
0
0
0
0
0
0
0
0
0
0
0
0
0
0
0
0
0
0
0
0
0
0
0
0
0
0
0
0
0
0
0
0
0
0
)
;

boundaryField
{
    Wall
    {
        type            zeroGradient;
    }
    frontAndBack
    {
        type            empty;
    }
    atmosphere
    {
        type            zeroGradient;
    }
}


// ************************************************************************* //
