/*--------------------------------*- C++ -*----------------------------------*\
| =========                 |                                                 |
| \\      /  F ield         | OpenFOAM: The Open Source CFD Toolbox           |
|  \\    /   O peration     | Version:  3.0.1                                 |
|   \\  /    A nd           | Web:      www.OpenFOAM.org                      |
|    \\/     M anipulation  |                                                 |
\*---------------------------------------------------------------------------*/
FoamFile
{
    version     2.0;
    format      ascii;
    class       volScalarField;
    location    "21";
    object      M0;
}
// * * * * * * * * * * * * * * * * * * * * * * * * * * * * * * * * * * * * * //

dimensions      [0 0 0 0 0 0 0];

internalField   nonuniform List<scalar> 
800
(
1.1557972e+12
1.155749e+12
1.1557469e+12
1.1557488e+12
1.1557505e+12
1.1557519e+12
1.1557528e+12
1.1557534e+12
1.1557538e+12
1.155754e+12
1.155754e+12
1.1557538e+12
1.1557534e+12
1.1557528e+12
1.1557519e+12
1.1557505e+12
1.1557488e+12
1.1557469e+12
1.155749e+12
1.1557972e+12
1.2035511e+12
1.2017724e+12
1.2015316e+12
1.2015135e+12
1.2015212e+12
1.2015199e+12
1.2015114e+12
1.2015013e+12
1.2014931e+12
1.2014886e+12
1.2014886e+12
1.2014931e+12
1.2015013e+12
1.2015114e+12
1.2015199e+12
1.2015212e+12
1.2015135e+12
1.2015316e+12
1.2017724e+12
1.2035511e+12
1.2190438e+12
1.2170461e+12
1.2163878e+12
1.2163384e+12
1.2163304e+12
1.2163156e+12
1.2162945e+12
1.2162741e+12
1.2162589e+12
1.2162509e+12
1.2162509e+12
1.2162589e+12
1.2162741e+12
1.2162945e+12
1.2163155e+12
1.2163304e+12
1.2163384e+12
1.2163878e+12
1.2170461e+12
1.2190437e+12
1.2094411e+12
1.2074938e+12
1.2065738e+12
1.2065121e+12
1.2064931e+12
1.2064678e+12
1.2064377e+12
1.2064103e+12
1.2063904e+12
1.2063801e+12
1.2063801e+12
1.2063904e+12
1.2064103e+12
1.2064377e+12
1.2064678e+12
1.2064931e+12
1.206512e+12
1.2065737e+12
1.2074938e+12
1.2094411e+12
1.1877931e+12
1.1858932e+12
1.1848374e+12
1.1842384e+12
1.1842149e+12
1.1841844e+12
1.1841486e+12
1.1841164e+12
1.1840931e+12
1.184081e+12
1.184081e+12
1.1840931e+12
1.1841164e+12
1.1841486e+12
1.1841844e+12
1.1842149e+12
1.1842384e+12
1.1848373e+12
1.1858932e+12
1.1877931e+12
1.1701404e+12
1.1669764e+12
1.1658726e+12
1.1648593e+12
1.1648363e+12
1.1648016e+12
1.1647588e+12
1.1647197e+12
1.1646913e+12
1.1646765e+12
1.1646765e+12
1.1646913e+12
1.1647197e+12
1.1647588e+12
1.1648016e+12
1.1648363e+12
1.1648593e+12
1.1658726e+12
1.1669764e+12
1.1701404e+12
1.1738956e+12
1.16754e+12
1.1667117e+12
1.1655467e+12
1.1655127e+12
1.1654563e+12
1.1653917e+12
1.165334e+12
1.1652927e+12
1.1652712e+12
1.1652712e+12
1.1652927e+12
1.165334e+12
1.1653917e+12
1.1654563e+12
1.1655127e+12
1.1655467e+12
1.1667117e+12
1.16754e+12
1.1738956e+12
1.2170867e+12
1.207765e+12
1.2058776e+12
1.2047022e+12
1.2046044e+12
1.2044667e+12
1.2043346e+12
1.2042274e+12
1.2041543e+12
1.2041164e+12
1.2041164e+12
1.2041543e+12
1.2042275e+12
1.2043346e+12
1.2044668e+12
1.2046045e+12
1.2047022e+12
1.2058776e+12
1.2077651e+12
1.2170868e+12
1.2951075e+12
1.286223e+12
1.2848689e+12
1.2839339e+12
1.2837127e+12
1.2833933e+12
1.2831135e+12
1.282906e+12
1.2827704e+12
1.2827001e+12
1.2827001e+12
1.2827704e+12
1.2829061e+12
1.2831136e+12
1.2833934e+12
1.2837128e+12
1.2839341e+12
1.2848691e+12
1.2862232e+12
1.2951078e+12
1.3965152e+12
1.3916352e+12
1.3918379e+12
1.3921412e+12
1.3919151e+12
1.3913175e+12
1.3907763e+12
1.3903928e+12
1.3901476e+12
1.3900197e+12
1.3900197e+12
1.3901477e+12
1.3903928e+12
1.3907764e+12
1.3913177e+12
1.3919153e+12
1.3921415e+12
1.3918382e+12
1.3916355e+12
1.3965157e+12
1.523802e+12
1.5334372e+12
1.5405548e+12
1.5453495e+12
1.5458873e+12
1.5449413e+12
1.5438939e+12
1.5431455e+12
1.542669e+12
1.5424199e+12
1.5424199e+12
1.542669e+12
1.5431455e+12
1.543894e+12
1.5449416e+12
1.5458876e+12
1.5453499e+12
1.5405551e+12
1.5334377e+12
1.5238027e+12
1.4918799e+12
1.5634443e+12
1.6051056e+12
1.6232086e+12
1.6272301e+12
1.626054e+12
1.6239028e+12
1.6222366e+12
1.6211627e+12
1.6206065e+12
1.6206064e+12
1.6211626e+12
1.6222364e+12
1.6239028e+12
1.6260542e+12
1.6272304e+12
1.623209e+12
1.6051059e+12
1.563445e+12
1.4918808e+12
1.2003676e+12
1.3787362e+12
1.477592e+12
1.5227878e+12
1.5358806e+12
1.5350958e+12
1.5306545e+12
1.5267548e+12
1.5241716e+12
1.522844e+12
1.5228439e+12
1.5241713e+12
1.5267544e+12
1.5306543e+12
1.5350958e+12
1.5358807e+12
1.5227881e+12
1.4775923e+12
1.3787369e+12
1.2003686e+12
6.9536341e+11
1.0366643e+12
1.2003365e+12
1.2761082e+12
1.3004071e+12
1.2999182e+12
1.2916088e+12
1.2836266e+12
1.2781533e+12
1.2753356e+12
1.2753353e+12
1.2781528e+12
1.2836257e+12
1.2916083e+12
1.2999179e+12
1.3004071e+12
1.2761084e+12
1.2003366e+12
1.0366648e+12
6.9536419e+11
2.6445708e+11
6.6089465e+11
8.6696098e+11
9.656548e+11
9.9944683e+11
9.9972106e+11
9.8797941e+11
9.7580171e+11
9.6710654e+11
9.6257418e+11
9.6257377e+11
9.6710579e+11
9.7580056e+11
9.8797862e+11
9.9972057e+11
9.9944653e+11
9.6565472e+11
8.6696092e+11
6.6089485e+11
2.6445742e+11
6.9093481e+10
3.6030134e+11
5.6137754e+11
6.6690226e+11
7.0640498e+11
7.0906148e+11
6.9700043e+11
6.8327026e+11
6.7303136e+11
6.6759982e+11
6.6759936e+11
6.7303048e+11
6.8326897e+11
6.9699947e+11
7.0906083e+11
7.0640451e+11
6.6690203e+11
5.6137733e+11
3.6030134e+11
6.9093565e+10
1.3799226e+10
1.7087922e+11
3.296348e+11
4.2474267e+11
4.6436455e+11
4.6987875e+11
4.6040815e+11
4.4822161e+11
4.3871383e+11
4.3357679e+11
4.3357636e+11
4.3871296e+11
4.4822036e+11
4.6040716e+11
4.6987804e+11
4.6436401e+11
4.2474239e+11
3.2963456e+11
1.7087916e+11
1.3799242e+10
2.3000288e+09
7.1954885e+10
1.7770914e+11
2.519286e+11
2.8653749e+11
2.9375715e+11
2.8784935e+11
2.7882061e+11
2.714257e+11
2.6735633e+11
2.6735597e+11
2.7142496e+11
2.7881953e+11
2.8784846e+11
2.9375649e+11
2.8653698e+11
2.5192834e+11
1.7770895e+11
7.1954834e+10
2.300032e+09
3.3888123e+08
2.7448752e+10
8.8953667e+10
1.403497e+11
1.671776e+11
1.7444916e+11
1.7153818e+11
1.657257e+11
1.6069559e+11
1.5787469e+11
1.5787441e+11
1.6069502e+11
1.6572487e+11
1.7153746e+11
1.7444861e+11
1.6717718e+11
1.4034949e+11
8.8953536e+10
2.7448725e+10
3.3888196e+08
45748561
9.6519436e+09
4.1733998e+10
7.3949003e+10
9.2740538e+10
9.8881029e+10
9.7875312e+10
9.4543478e+10
9.1464836e+10
8.9702691e+10
8.9702503e+10
9.1464428e+10
9.454288e+10
9.7874781e+10
9.8880616e+10
9.2740218e+10
7.3948859e+10
4.1733921e+10
9.6519319e+09
45748715
5785027.5
3.1717374e+09
1.8493944e+10
3.7052363e+10
4.9124582e+10
5.3679451e+10
5.3624282e+10
5.190229e+10
5.0175752e+10
4.9164563e+10
4.9164442e+10
5.017548e+10
5.190189e+10
5.362392e+10
5.3679166e+10
4.9124364e+10
3.7052271e+10
1.8493905e+10
3.1717329e+09
5785054.7
694581.95
9.8424867e+08
7.7891724e+09
1.7731453e+10
2.4928316e+10
2.7980924e+10
2.8268117e+10
2.7463737e+10
2.6566294e+10
2.602647e+10
2.6026397e+10
2.6566125e+10
2.7463488e+10
2.8267887e+10
2.7980742e+10
2.4928178e+10
1.7731398e+10
7.7891538e+09
9.8424697e+08
694586.16
79855.578
2.9070966e+08
3.133829e+09
8.1327402e+09
1.2150528e+10
1.4033049e+10
1.4359656e+10
1.4023246e+10
1.3587862e+10
1.331749e+10
1.3317448e+10
1.3587763e+10
1.40231e+10
1.4359518e+10
1.403294e+10
1.2150447e+10
8.132709e+09
3.133821e+09
2.9070908e+08
79856.167
8839.1308
82217611
1.2094144e+09
3.5854866e+09
5.7010741e+09
6.7829071e+09
7.0382275e+09
6.9161584e+09
6.7182992e+09
6.5905325e+09
6.5905096e+09
6.7182434e+09
6.9160775e+09
7.0381492e+09
6.7828454e+09
5.7010293e+09
3.5854699e+09
1.2094111e+09
82217416
8839.2084
945.41834
22368561
4.4922027e+08
1.5231152e+09
2.5798465e+09
3.1644898e+09
3.3324419e+09
3.2975621e+09
3.2132696e+09
3.156092e+09
3.1560802e+09
3.21324e+09
3.2975192e+09
3.3323997e+09
3.1644566e+09
2.5798233e+09
1.5231068e+09
4.4921894e+08
22368501
945.42812
97.969496
5875950.9
1.6104089e+08
6.2472555e+08
1.1277741e+09
1.4269365e+09
1.52588e+09
1.5212924e+09
1.4877117e+09
1.463427e+09
1.4634211e+09
1.4876966e+09
1.5212707e+09
1.5258583e+09
1.4269195e+09
1.1277625e+09
6.2472148e+08
1.6104038e+08
5875933.6
97.970668
9.8560857
1494799.9
55847750
2.4785044e+08
4.76954e+08
6.2267302e+08
6.7638459e+08
6.7968121e+08
6.6726083e+08
6.5746414e+08
6.5746138e+08
6.6725345e+08
6.7967066e+08
6.7637393e+08
6.2266464e+08
4.7694854e+08
2.4784858e+08
55847563
1494795.1
9.856221
0.96434736
369170.79
18771600
95258210
1.954004e+08
2.6325092e+08
2.9054916e+08
2.9434104e+08
2.901431e+08
2.8639208e+08
2.8639081e+08
2.9013963e+08
2.943361e+08
2.9054411e+08
2.6324694e+08
1.9539792e+08
95257387
18771532
369169.49
0.96436229
0.09191742
88697.769
6125228.3
35514854
77639133
1.0794364e+08
1.2106388e+08
1.2365849e+08
1.2240782e+08
1.2104831e+08
1.2104774e+08
1.2240624e+08
1.2365626e+08
1.2106158e+08
1.0794182e+08
77638041
35514505
6125204
88697.424
0.091918975
0.0087236288
20768.272
1942942.1
12859503
29950589
42970519
48974925
50441680
50144844
49681046
49680798
50144154
50440705
48973910
42969713
29950124
12859360
1942933.3
20768.18
0.0087229019
0.0043193915
4746.0436
599815.24
4526868.8
11228486
16622213
19251793
19994013
19961720
19814402
19814298
19961426
19993600
19251360
16621866
11228294
4526811.5
599812.07
4746.0187
0.004290111
0.0034184605
1059.8979
180396.24
1550728.2
4094627.8
6253491.8
7359703.7
7707144
7727687.7
7685064.1
7685021.2
7727566.4
7706973.9
7359524
6253347.4
4094550.4
1550705.9
180395.09
1059.8933
0.0034302506
0.0011205826
231.68405
52900.955
517371.09
1453587.4
2289909.2
2738265.2
2891303.8
2911358.8
2900680.1
2900663
2911310.1
2891236
2738192.9
2289850.7
1453557.1
517362.65
52900.555
231.68091
0.0011231424
0.00026139959
49.60816
15137.781
168239.65
502726.52
816771.84
992278.16
1056355.7
1068168.1
1066197.6
1066191
1068149.2
1056329.3
992249.85
816748.81
502714.91
168236.55
15137.631
49.606882
0.00026198719
4.9453238e-05
10.407848
4229.7171
53360.506
169509.77
283972.38
350457.1
376130.64
381920.38
381900.77
381898.26
381913.21
376120.63
350446.31
283963.57
169505.44
53359.399
4229.6627
10.40729
4.9513429e-05
7.6607448e-06
2.1394809
1154.6801
16518.081
55759.653
96301.652
120716.37
130605.82
133160.66
133388.2
133387.28
133158.02
130602.13
120712.37
96298.379
55758.083
16517.692
1154.6608
2.1392931
7.6819322e-06
8.1686655e-07
0.43073584
308.13498
4993.555
17905.317
31874.891
40578.959
44254.083
45302.155
45457.716
45457.384
45301.205
44252.753
40577.511
31873.707
17904.759
4993.4224
308.12852
0.43067642
8.19047e-07
6.3289224e-08
0.085009285
80.421823
1475.0929
5616.1719
10303.463
13319.9
14641.045
15047.408
15124.496
15124.38
15047.075
14640.579
13319.39
10303.046
5615.978
1475.0492
80.419945
0.084996761
6.3032625e-08
4.9509578e-09
0.016464121
20.538616
426.01431
1721.6435
3254.5296
4271.8688
4732.2749
4882.6468
4915.7323
4915.6925
4882.5332
4732.115
4271.6937
3254.386
1721.5778
426.00015
20.538082
0.016461664
4.9083163e-09
3.8783266e-10
0.0031295928
5.1348073
120.35105
516.09386
1005.0893
1339.349
1495.165
1548.6094
1561.6079
1561.5946
1548.5715
1495.1115
1339.2902
1005.0412
516.07207
120.34656
5.1346573
0.0031291255
3.8291171e-10
)
;

boundaryField
{
    Wall
    {
        type            zeroGradient;
    }
    frontAndBack
    {
        type            empty;
    }
    atmosphere
    {
        type            zeroGradient;
    }
}


// ************************************************************************* //
