/*--------------------------------*- C++ -*----------------------------------*\
| =========                 |                                                 |
| \\      /  F ield         | OpenFOAM: The Open Source CFD Toolbox           |
|  \\    /   O peration     | Version:  3.0.1                                 |
|   \\  /    A nd           | Web:      www.OpenFOAM.org                      |
|    \\/     M anipulation  |                                                 |
\*---------------------------------------------------------------------------*/
FoamFile
{
    version     2.0;
    format      ascii;
    class       volScalarField;
    location    "21";
    object      M3;
}
// * * * * * * * * * * * * * * * * * * * * * * * * * * * * * * * * * * * * * //

dimensions      [0 0 0 0 0 0 0];

internalField   nonuniform List<scalar> 
800
(
4.9468954e-25
4.9474604e-25
4.9474968e-25
4.9474825e-25
4.9474692e-25
4.9474591e-25
4.9474522e-25
4.9474476e-25
4.9474446e-25
4.9474431e-25
4.9474431e-25
4.9474446e-25
4.9474476e-25
4.9474523e-25
4.9474591e-25
4.9474692e-25
4.9474826e-25
4.9474969e-25
4.9474604e-25
4.9468955e-25
4.5140253e-25
4.5291121e-25
4.5312117e-25
4.5313415e-25
4.5312443e-25
4.5312329e-25
4.5312911e-25
4.53137e-25
4.5314356e-25
4.5314714e-25
4.5314715e-25
4.5314356e-25
4.53137e-25
4.5312911e-25
4.531233e-25
4.5312443e-25
4.5313416e-25
4.5312119e-25
4.5291122e-25
4.5140253e-25
4.357042e-25
4.3739838e-25
4.3796355e-25
4.3800275e-25
4.3800454e-25
4.380135e-25
4.3802911e-25
4.3804515e-25
4.3805741e-25
4.3806393e-25
4.3806393e-25
4.3805741e-25
4.3804515e-25
4.3802911e-25
4.3801351e-25
4.3800456e-25
4.3800278e-25
4.3796358e-25
4.373984e-25
4.3570421e-25
4.3846281e-25
4.4026271e-25
4.4110131e-25
4.4115211e-25
4.4116113e-25
4.4117778e-25
4.4120116e-25
4.4122369e-25
4.4124042e-25
4.4124922e-25
4.4124923e-25
4.4124042e-25
4.4122369e-25
4.4120117e-25
4.411778e-25
4.4116116e-25
4.4115214e-25
4.4110135e-25
4.4026274e-25
4.3846282e-25
4.4884551e-25
4.5088502e-25
4.5193239e-25
4.5248391e-25
4.5249374e-25
4.5251363e-25
4.5254258e-25
4.5257061e-25
4.5259147e-25
4.5260248e-25
4.5260249e-25
4.5259148e-25
4.5257062e-25
4.525426e-25
4.5251366e-25
4.5249377e-25
4.5248394e-25
4.5193243e-25
4.5088505e-25
4.4884551e-25
4.5286614e-25
4.5647558e-25
4.5767609e-25
4.5866202e-25
4.5866579e-25
4.586865e-25
4.5872126e-25
4.5875594e-25
4.5878212e-25
4.5879603e-25
4.5879603e-25
4.5878212e-25
4.5875594e-25
4.5872127e-25
4.5868651e-25
4.586658e-25
4.5866204e-25
4.5767611e-25
4.564756e-25
4.5286613e-25
4.3467423e-25
4.4163958e-25
4.4269923e-25
4.4385571e-25
4.4386192e-25
4.4389354e-25
4.439421e-25
4.4398924e-25
4.4402448e-25
4.4404308e-25
4.4404308e-25
4.4402447e-25
4.4398923e-25
4.4394209e-25
4.4389354e-25
4.4386192e-25
4.4385572e-25
4.4269924e-25
4.4163957e-25
4.3467419e-25
3.8223845e-25
3.9179616e-25
3.9391494e-25
3.9507844e-25
3.9513317e-25
3.9520899e-25
3.952915e-25
3.9536274e-25
3.9541316e-25
3.9543915e-25
3.9543915e-25
3.9541314e-25
3.9536272e-25
3.9529147e-25
3.9520896e-25
3.9513314e-25
3.9507841e-25
3.9391491e-25
3.9179612e-25
3.8223838e-25
3.1045658e-25
3.1983994e-25
3.218849e-25
3.2299383e-25
3.2315018e-25
3.233015e-25
3.2343217e-25
3.2353314e-25
3.2360016e-25
3.2363385e-25
3.2363384e-25
3.2360014e-25
3.235331e-25
3.2343212e-25
3.2330146e-25
3.2315013e-25
3.2299378e-25
3.2188485e-25
3.1983987e-25
3.1045647e-25
2.3531401e-25
2.4459489e-25
2.4714098e-25
2.481453e-25
2.4840096e-25
2.4861706e-25
2.4878274e-25
2.4890244e-25
2.4897827e-25
2.4901576e-25
2.4901576e-25
2.4897824e-25
2.489024e-25
2.4878269e-25
2.4861701e-25
2.4840089e-25
2.4814523e-25
2.4714091e-25
2.4459481e-25
2.3531389e-25
1.4766271e-25
1.577361e-25
1.6153594e-25
1.6233056e-25
1.6261783e-25
1.6284386e-25
1.6300501e-25
1.6311607e-25
1.6318385e-25
1.6321701e-25
1.63217e-25
1.6318383e-25
1.6311603e-25
1.6300497e-25
1.6284381e-25
1.6261777e-25
1.623305e-25
1.6153587e-25
1.5773603e-25
1.4766261e-25
8.3104848e-26
8.8567081e-26
9.0832861e-26
9.1397626e-26
9.1646324e-26
9.1834435e-26
9.1962464e-26
9.2046814e-26
9.2096223e-26
9.2119815e-26
9.2119811e-26
9.209621e-26
9.2046791e-26
9.1962434e-26
9.18344e-26
9.1646285e-26
9.1397583e-26
9.083282e-26
8.8567036e-26
8.3104786e-26
4.0450509e-26
4.5505845e-26
4.7128057e-26
4.7467645e-26
4.7560284e-26
4.7632396e-26
4.7685459e-26
4.7721733e-26
4.774254e-26
4.775184e-26
4.7751837e-26
4.7742532e-26
4.7721719e-26
4.7685441e-26
4.7632375e-26
4.756026e-26
4.7467618e-26
4.7128032e-26
4.5505819e-26
4.0450482e-26
1.4479188e-26
2.0668843e-26
2.2446465e-26
2.2756517e-26
2.2702859e-26
2.2613153e-26
2.2542893e-26
2.2495711e-26
2.2466275e-26
2.2451387e-26
2.2451384e-26
2.246627e-26
2.2495703e-26
2.2542882e-26
2.261314e-26
2.2702844e-26
2.2756501e-26
2.2446451e-26
2.0668832e-26
1.4479182e-26
3.4236218e-27
8.0023362e-27
9.7074462e-27
1.0125243e-26
1.0103139e-26
9.9803287e-27
9.8611211e-27
9.7712633e-27
9.7129051e-27
9.683666e-27
9.6836645e-27
9.7129013e-27
9.7712577e-27
9.8611143e-27
9.980321e-27
1.0103131e-26
1.0125236e-26
9.7074397e-27
8.0023314e-27
3.4236208e-27
5.5688461e-28
2.6315923e-27
3.7864218e-27
4.1755602e-27
4.2172187e-27
4.1445968e-27
4.0538557e-27
3.9783789e-27
3.9270409e-27
3.9008903e-27
3.9008894e-27
3.9270384e-27
3.9783755e-27
4.0538518e-27
4.1445928e-27
4.2172148e-27
4.1755567e-27
3.786419e-27
2.6315905e-27
5.5688441e-28
6.9146609e-29
7.4739776e-28
1.3375063e-27
1.5978407e-27
1.6562832e-27
1.6307146e-27
1.5827849e-27
1.5385057e-27
1.506973e-27
1.4906088e-27
1.4906083e-27
1.5069716e-27
1.5385037e-27
1.5827828e-27
1.6307126e-27
1.6562815e-27
1.5978394e-27
1.3375054e-27
7.4739729e-28
6.9146575e-29
7.1480877e-30
1.8759783e-28
4.3198095e-28
5.6979357e-28
6.1381622e-28
6.1026698e-28
5.9038913e-28
5.6955407e-28
5.5398848e-28
5.4575567e-28
5.4575537e-28
5.5398774e-28
5.6955307e-28
5.9038811e-28
6.1026609e-28
6.1381555e-28
5.6979311e-28
4.3198072e-28
1.8759776e-28
7.1480853e-30
6.515367e-31
4.2539713e-29
1.2890396e-28
1.9038574e-28
2.1529545e-28
2.1772526e-28
2.1096721e-28
2.0258317e-28
1.9597718e-28
1.9241248e-28
1.9241233e-28
1.9597684e-28
2.0258271e-28
2.1096674e-28
2.1772488e-28
2.1529521e-28
1.9038562e-28
1.2890392e-28
4.2539717e-29
6.5153689e-31
5.4269545e-32
8.8709983e-30
3.5866657e-29
5.9915122e-29
7.1666466e-29
7.4159492e-29
7.229184e-29
6.9309066e-29
6.6808362e-29
6.5428941e-29
6.542888e-29
6.6808218e-29
6.9308871e-29
7.2291642e-29
7.4159342e-29
7.1666384e-29
5.9915097e-29
3.5866659e-29
8.871005e-30
5.4269621e-32
4.2217582e-33
1.7237352e-30
9.37442e-30
1.7836816e-29
2.2692959e-29
2.4138443e-29
2.3759796e-29
2.280548e-29
2.1942872e-29
2.1455114e-29
2.145509e-29
2.1942815e-29
2.2805402e-29
2.3759718e-29
2.4138386e-29
2.2692934e-29
1.7836815e-29
9.3744247e-30
1.7237381e-30
4.2217694e-33
3.1076891e-34
3.1502231e-31
2.3147341e-30
5.0407585e-30
6.8484984e-30
7.5137262e-30
7.4892812e-30
7.2128538e-30
6.9381978e-30
6.7784232e-30
6.7784144e-30
6.9381768e-30
7.2128248e-30
7.4892529e-30
7.5137061e-30
6.8484908e-30
5.0407603e-30
2.3147367e-30
3.1502311e-31
3.1077013e-34
2.1817727e-35
5.450339e-32
5.4230862e-31
1.3560688e-30
1.9730147e-30
2.2381768e-30
2.2638884e-30
2.1915488e-30
2.1101805e-30
2.0612609e-30
2.0612579e-30
2.1101731e-30
2.1915388e-30
2.2638786e-30
2.2381702e-30
1.9730126e-30
1.35607e-30
5.4230965e-31
5.4503584e-32
2.181784e-35
1.4678461e-36
8.9682954e-33
1.209541e-31
3.4805632e-31
5.4337959e-31
6.3843961e-31
6.5633008e-31
6.3945969e-31
6.1691966e-31
6.0283417e-31
6.0283323e-31
6.1691723e-31
6.3945648e-31
6.5632695e-31
6.3843755e-31
5.4337911e-31
3.4805682e-31
1.2095444e-31
8.9683368e-33
1.4678558e-36
9.4912068e-38
1.4080517e-33
2.5747565e-32
8.5388524e-32
1.4323682e-31
1.7451839e-31
1.8253712e-31
1.7916092e-31
1.7330624e-31
1.6947573e-31
1.6947545e-31
1.733055e-31
1.7915994e-31
1.8253617e-31
1.7451778e-31
1.4323673e-31
8.5388701e-32
2.5747662e-32
1.4080598e-33
9.4912847e-38
5.9092059e-39
2.1143867e-34
5.241672e-33
2.0054079e-32
3.6180524e-32
4.5749236e-32
4.8721179e-32
4.8205149e-32
4.6777737e-32
4.579075e-32
4.5790671e-32
4.6777518e-32
4.8204864e-32
4.8720908e-32
4.5749072e-32
3.6180508e-32
2.0054134e-32
5.2416975e-33
2.114402e-34
5.9092644e-39
3.5466798e-40
3.0422137e-35
1.0221865e-33
4.5147567e-33
8.7662815e-33
1.1510224e-32
1.2486778e-32
1.2459453e-32
1.213305e-32
1.1891534e-32
1.1891513e-32
1.2132989e-32
1.2459373e-32
1.2486705e-32
1.1510182e-32
8.76628e-33
4.5147725e-33
1.0221927e-33
3.04224e-35
3.5467217e-40
2.0537953e-41
4.2000199e-36
1.9120825e-34
9.7543442e-34
2.0393705e-33
2.7815146e-33
3.074778e-33
3.0949763e-33
3.0251906e-33
2.9689724e-33
2.9689669e-33
3.0251743e-33
3.0949553e-33
3.0747586e-33
2.7815041e-33
2.0393706e-33
9.7543853e-34
1.9120964e-34
4.2000627e-36
2.0538238e-41
1.1481551e-42
5.5702894e-37
3.4348229e-35
2.0246209e-34
4.5594249e-34
6.4612375e-34
7.2793938e-34
7.3927944e-34
7.2542203e-34
7.1296058e-34
7.1295918e-34
7.2541789e-34
7.3927408e-34
7.2793451e-34
6.4612126e-34
4.5594262e-34
2.0246309e-34
3.4348523e-35
5.5703551e-37
1.1481731e-42
6.2041285e-44
7.1040388e-38
5.9315478e-36
4.0409173e-35
9.8045434e-35
1.443846e-34
1.6580358e-34
1.6991031e-34
1.6738832e-34
1.6475658e-34
1.6475623e-34
1.6738732e-34
1.6990899e-34
1.6580241e-34
1.4438402e-34
9.8045473e-35
4.0409399e-35
5.9316052e-36
7.1041334e-38
6.2042145e-44
7.7103751e-45
8.7200955e-39
9.8559396e-37
7.7621737e-36
2.0295422e-35
3.1061523e-35
3.635908e-35
3.7598635e-35
3.7189478e-35
3.6659973e-35
3.665989e-35
3.7189243e-35
3.7598323e-35
3.6358806e-35
3.106139e-35
2.029543e-35
7.7622212e-36
9.8560457e-37
8.7202221e-39
7.6617985e-45
1.9346821e-45
1.0310776e-39
1.5771072e-37
1.4361656e-36
4.0471972e-36
6.4377994e-36
7.6816306e-36
8.0159135e-36
7.9607017e-36
7.8592833e-36
7.8592641e-36
7.9606482e-36
8.0158421e-36
7.681569e-36
6.4377694e-36
4.0471985e-36
1.4361749e-36
1.5771256e-37
1.0310951e-39
1.9430403e-45
3.0211939e-46
1.1756352e-40
2.4321916e-38
2.5613709e-37
7.7805824e-37
1.2863826e-36
1.5646291e-36
1.6475917e-36
1.642853e-36
1.6243915e-36
1.6243872e-36
1.6428412e-36
1.6475761e-36
1.5646156e-36
1.2863759e-36
7.7805832e-37
2.5613881e-37
2.432222e-38
1.1756522e-40
3.0307679e-46
3.4924615e-47
1.2934001e-41
3.6177057e-39
4.4065361e-38
1.4430196e-37
2.4797885e-37
3.0745026e-37
3.2669655e-37
3.2706973e-37
3.2388513e-37
3.2388423e-37
3.2706724e-37
3.2669325e-37
3.0744742e-37
2.4797742e-37
1.4430192e-37
4.4065663e-38
3.6177513e-39
1.2934155e-41
3.5055284e-47
3.2755391e-48
1.3737235e-42
5.1935599e-40
7.3176931e-39
2.5835776e-38
4.6148027e-38
5.8320694e-38
6.2533637e-38
6.2856388e-38
6.2338373e-38
6.2338188e-38
6.2855882e-38
6.2532961e-38
5.8320109e-38
4.6147725e-38
2.5835757e-38
7.317743e-39
5.1936243e-40
1.373726e-42
3.2849738e-48
2.5050424e-49
1.4090991e-43
7.2006772e-41
1.1737682e-39
4.4682143e-39
8.2957611e-39
1.0686209e-38
1.1561766e-38
1.1667875e-38
1.1589081e-38
1.1589045e-38
1.1667775e-38
1.1561633e-38
1.0686092e-38
8.2956999e-39
4.4682084e-39
1.1737757e-39
7.200761e-41
1.4090846e-43
2.5195589e-49
1.3302611e-50
1.3961923e-44
9.6476705e-42
1.8196454e-40
7.4691523e-40
1.4413961e-39
1.8925016e-39
2.0660171e-39
2.0932665e-39
2.0822288e-39
2.0822218e-39
2.0932476e-39
2.0659916e-39
1.8924791e-39
1.4413841e-39
7.4691365e-40
1.8196561e-40
9.6477706e-42
1.3961469e-44
1.3408004e-50
4.8566989e-52
1.3373329e-45
1.2498914e-42
2.7279792e-41
1.207489e-40
2.422049e-40
3.2412209e-40
3.5701864e-40
3.6315795e-40
3.6177745e-40
3.6177616e-40
3.6315449e-40
3.5701393e-40
3.241179e-40
2.4220259e-40
1.2074852e-40
2.7279938e-41
1.2499041e-42
1.3372811e-45
4.8537895e-52
1.7537734e-53
1.2395416e-46
1.5666559e-43
3.9571955e-42
1.8888981e-41
3.9381563e-41
5.3712926e-41
5.9694361e-41
6.0959752e-41
6.0817206e-41
6.0816973e-41
6.0959139e-41
5.969352e-41
5.3712172e-41
3.9381136e-41
1.8888898e-41
3.9572128e-42
1.5666713e-43
1.2394929e-46
1.7439506e-53
6.3801087e-55
1.1122935e-47
1.9009015e-44
5.5572186e-43
2.8607265e-42
6.1992834e-42
8.6173756e-42
9.6625042e-42
9.9059505e-42
9.8971967e-42
9.8971568e-42
9.9058451e-42
9.6623589e-42
8.6172433e-42
6.1992071e-42
2.8607096e-42
5.5572355e-43
1.9009191e-44
1.1122522e-47
6.345683e-55
)
;

boundaryField
{
    Wall
    {
        type            zeroGradient;
    }
    frontAndBack
    {
        type            empty;
    }
    atmosphere
    {
        type            zeroGradient;
    }
}


// ************************************************************************* //
