/*--------------------------------*- C++ -*----------------------------------*\
| =========                 |                                                 |
| \\      /  F ield         | OpenFOAM: The Open Source CFD Toolbox           |
|  \\    /   O peration     | Version:  3.0.1                                 |
|   \\  /    A nd           | Web:      www.OpenFOAM.org                      |
|    \\/     M anipulation  |                                                 |
\*---------------------------------------------------------------------------*/
FoamFile
{
    version     2.0;
    format      ascii;
    class       volScalarField;
    location    "21";
    object      mOne;
}
// * * * * * * * * * * * * * * * * * * * * * * * * * * * * * * * * * * * * * //

dimensions      [0 0 0 0 0 0 0];

internalField   nonuniform List<scalar> 
800
(
7.6520371
7.652398
7.6524135
7.6523989
7.6523861
7.6523763
7.6523693
7.6523645
7.6523615
7.6523599
7.65236
7.6523615
7.6523645
7.6523694
7.6523763
7.6523861
7.652399
7.6524136
7.652398
7.6520371
7.308746
7.3210433
7.3227107
7.3228362
7.3227829
7.3227919
7.3228504
7.322921
7.3229777
7.3230084
7.3230084
7.3229777
7.322921
7.3228504
7.3227919
7.322783
7.3228363
7.3227109
7.3210434
7.308746
6.9923015
7.0086823
7.0138241
7.0142498
7.0142633
7.0143274
7.0144533
7.0145886
7.0146942
7.0147511
7.0147512
7.0146942
7.0145886
7.0144533
7.0143275
7.0142634
7.01425
7.0138243
7.0086825
6.9923015
6.6908141
6.7119802
6.7195737
6.7200229
6.7200301
6.7201022
6.7202634
6.7204396
6.7205776
6.7206524
6.7206525
6.7205776
6.7204396
6.7202634
6.7201023
6.7200302
6.7200231
6.7195739
6.7119804
6.690814
6.3540284
6.381984
6.3911915
6.3949321
6.3948844
6.3949366
6.3951168
6.3953232
6.395487
6.3955764
6.3955764
6.395487
6.3953231
6.3951168
6.3949367
6.3948845
6.3949323
6.3911917
6.3819841
6.3540283
5.9100663
5.9545924
5.9650359
5.9711959
5.9711225
5.9711963
5.9714242
5.9716758
5.9718753
5.9719837
5.9719837
5.9718753
5.9716758
5.9714242
5.9711964
5.9711226
5.9711961
5.9650361
5.9545925
5.9100661
5.2855385
5.3575619
5.3681942
5.3752263
5.3753772
5.3756456
5.3760263
5.3763829
5.3766504
5.3767908
5.3767908
5.3766503
5.3763828
5.3760263
5.3756456
5.3753773
5.3752264
5.3681943
5.3575619
5.2855383
4.4412538
4.5351004
4.5540655
4.5615435
4.5624279
4.5632067
4.5639129
4.5644691
4.5648501
4.5650404
4.5650404
4.56485
4.564469
4.5639127
4.5632066
4.5624278
4.5615434
4.5540654
4.5351003
4.4412535
3.4873174
3.586436
3.6091117
3.6171511
3.6191639
3.620642
3.6217364
3.6225108
3.6230005
3.6232363
3.6232363
3.6230004
3.6225105
3.6217361
3.6206417
3.6191637
3.6171509
3.6091115
3.5864357
3.4873169
2.5360045
2.635726
2.6651951
2.6735659
2.6764703
2.6783872
2.679651
2.6804906
2.6809911
2.6812262
2.6812261
2.6809909
2.6804903
2.6796506
2.6783869
2.67647
2.6735656
2.6651948
2.6357257
2.5360039
1.6165219
1.7142293
1.751085
1.7593867
1.7623979
1.764098
1.7650854
1.7656993
1.7660412
1.7661955
1.7661954
1.766041
1.7656991
1.7650851
1.7640977
1.7623976
1.7593864
1.7510848
1.7142291
1.6165215
0.94232878
1.0206308
1.0538947
1.0629017
1.0653659
1.0661674
1.0664059
1.0664915
1.0665055
1.0664958
1.0664958
1.0665054
1.0664914
1.0664058
1.0661673
1.0653657
1.0629016
1.0538946
1.0206307
0.94232866
0.47924617
0.56750219
0.60439447
0.61522738
0.61681113
0.61604315
0.6149714
0.6141522
0.6136222
0.6133461
0.61334605
0.61362211
0.61415205
0.61497126
0.61604304
0.61681106
0.61522731
0.60439444
0.56750221
0.47924623
0.18974839
0.29292945
0.3346191
0.34771887
0.34904501
0.34683984
0.34427777
0.34231263
0.34105337
0.34042061
0.34042056
0.34105328
0.34231249
0.34427765
0.34683975
0.34904496
0.34771883
0.33461908
0.29292948
0.18974847
0.05540305
0.13801949
0.17741724
0.19184787
0.19418521
0.19206026
0.18908383
0.18661151
0.18496266
0.18412707
0.18412703
0.18496257
0.18661139
0.18908372
0.19206019
0.19418517
0.19184785
0.17741722
0.1380195
0.055403077
0.012190709
0.05909934
0.089221668
0.10238292
0.10557907
0.10439769
0.10200232
0.099808014
0.098273989
0.097481769
0.097481733
0.09827391
0.099807906
0.10200224
0.10439763
0.10557904
0.10238291
0.08922166
0.059099341
0.012190713
0.0021399031
0.022996412
0.042368646
0.052499088
0.055730105
0.055429387
0.053901908
0.052332937
0.051181755
0.050574991
0.050574963
0.051181692
0.052332852
0.053901841
0.055429345
0.055730084
0.052499085
0.042368644
0.022996413
0.0021399037
0.00031864007
0.0081702021
0.018983506
0.025780748
0.028431116
0.02861824
0.027803505
0.026838473
0.026093884
0.025693354
0.025693333
0.02609384
0.026838411
0.027803456
0.02861821
0.028431103
0.025780749
0.018983507
0.0081702042
0.00031864023
4.2278458e-05
0.0026751452
0.0080390112
0.01211434
0.013985373
0.014324302
0.013956771
0.013428039
0.012997153
0.012760532
0.012760518
0.012997124
0.013427998
0.013956737
0.014324281
0.013985365
0.012114342
0.0080390133
0.0026751469
4.2278509e-05
5.1692248e-06
0.00081618949
0.003228108
0.005451302
0.0066284381
0.0069389876
0.0068036196
0.0065405659
0.0063124176
0.0061843824
0.0061843739
0.0063123995
0.0065405404
0.0068035986
0.0069389747
0.0066284329
0.0054513042
0.0032281096
0.00081619046
5.1692371e-06
5.9487798e-07
0.00023441478
0.0012340811
0.0023530019
0.0030278629
0.0032510627
0.0032167784
0.003096734
0.0029846243
0.0029202112
0.0029202063
0.0029846138
0.0030967189
0.0032167659
0.003251055
0.00302786
0.0023530035
0.0012340822
0.00023441522
5.9488018e-07
6.5281855e-08
6.3904053e-05
0.00045095804
0.00097625833
0.0013342671
0.0014732819
0.0014743165
0.0014238935
0.001372288
0.0013418499
0.0013418473
0.0013722822
0.0014238851
0.0014743096
0.0014732777
0.0013342654
0.00097625931
0.00045095869
6.3904218e-05
6.5282186e-08
6.8865221e-09
1.6641055e-05
0.00015809786
0.00039018114
0.00056788624
0.00064610491
0.00065499917
0.00063556643
0.00061317457
0.0005995669
0.00059956554
0.00061317157
0.00063556207
0.00065499551
0.0006461027
0.00056788536
0.00039018165
0.00015809819
1.6641112e-05
6.8865666e-09
7.0179968e-10
4.1592711e-06
5.3346952e-05
0.00015053333
0.00023376532
0.00027442539
0.00028217991
0.00027539699
0.00026620114
0.00026041561
0.00026041495
0.00026619965
0.00027539482
0.00028217808
0.00027442428
0.00023376488
0.00015053357
5.3347103e-05
4.1592886e-06
7.0180529e-10
6.9311321e-11
1.0014035e-06
1.7373252e-05
5.6170012e-05
9.3196183e-05
0.00011299652
0.0001179537
0.00011588105
0.00011229849
0.00010995019
0.00010994989
0.00011229779
0.00011588002
0.00011795282
0.000112996
9.3195977e-05
5.6170119e-05
1.7373314e-05
1.0014087e-06
6.9311999e-11
6.6476825e-12
2.3290529e-07
5.4734498e-06
2.0307118e-05
3.6032967e-05
4.5151593e-05
4.7877484e-05
4.7375813e-05
4.6051044e-05
4.5138616e-05
4.513848e-05
4.6050725e-05
4.7375345e-05
4.7877084e-05
4.5151357e-05
3.6032873e-05
2.0307161e-05
5.4734743e-06
2.3290675e-07
6.6477606e-12
6.2004711e-13
5.2446579e-08
1.6715994e-06
7.124577e-06
1.3528299e-05
1.7526896e-05
1.8886818e-05
1.8831765e-05
1.8367462e-05
1.802747e-05
1.8027412e-05
1.8367323e-05
1.8831559e-05
1.8886641e-05
1.7526793e-05
1.3528258e-05
7.1245935e-06
1.6716084e-06
5.2446967e-08
6.2005579e-13
5.6300589e-14
1.1456688e-08
4.9575857e-07
2.4292268e-06
4.9380172e-06
6.6162504e-06
7.2474473e-06
7.2836955e-06
7.1301199e-06
7.0085061e-06
7.0084818e-06
7.1300608e-06
7.2836084e-06
7.2473718e-06
6.6162066e-06
4.9379993e-06
2.4292326e-06
4.9576171e-07
1.1456786e-08
5.6301516e-14
4.9806288e-15
2.4318879e-09
1.4301097e-07
8.0602856e-07
1.7543624e-06
2.4312545e-06
2.7077199e-06
2.7434244e-06
2.6959103e-06
2.654149e-06
2.6541392e-06
2.695886e-06
2.7433887e-06
2.7076886e-06
2.4312363e-06
1.7543548e-06
8.0603043e-07
1.43012e-07
2.4319117e-09
4.9807228e-15
4.3199461e-16
5.0239678e-10
4.0184604e-08
2.605748e-07
6.0729661e-07
8.7051697e-07
9.8582683e-07
1.0070991e-06
9.9359636e-07
9.7984234e-07
9.7983846e-07
9.9358672e-07
1.0070849e-06
9.8581427e-07
8.7050955e-07
6.0729349e-07
2.6057534e-07
4.0184921e-08
5.0240223e-10
4.3199173e-16
1.0739025e-16
1.0115926e-10
1.1013346e-08
8.2166882e-08
2.0503238e-07
3.0398102e-07
3.5006379e-07
3.6061226e-07
3.5722787e-07
3.5289319e-07
3.528917e-07
3.5722412e-07
3.6060677e-07
3.5005887e-07
3.0397806e-07
2.0503112e-07
8.216701e-08
1.1013439e-08
1.0116044e-10
1.067547e-16
5.9220411e-17
1.9881475e-11
2.9476877e-09
2.5298045e-08
6.7573788e-08
1.0361153e-07
1.2133784e-07
1.2604798e-07
1.2538267e-07
1.2408104e-07
1.2408048e-07
1.2538125e-07
1.2604591e-07
1.2133596e-07
1.0361037e-07
6.7573291e-08
2.5298064e-08
2.9477131e-09
1.9881749e-11
5.9436228e-17
1.6595911e-17
3.8210003e-12
7.7132689e-10
7.6121944e-09
2.17587e-08
3.4499086e-08
4.1084675e-08
4.3040707e-08
4.2993079e-08
4.2623491e-08
4.2623288e-08
4.2992553e-08
4.3039947e-08
4.1083975e-08
3.4498641e-08
2.1758509e-08
7.6121915e-09
7.7133354e-10
3.821031e-12
1.6638843e-17
3.3839389e-18
7.1903678e-13
1.9753934e-10
2.2404631e-09
6.8505126e-09
1.1229652e-08
1.3599043e-08
1.436722e-08
1.4411958e-08
1.4314109e-08
1.4314037e-08
1.4411769e-08
1.4366948e-08
1.3598788e-08
1.1229486e-08
6.8504411e-09
2.2404592e-09
1.9754082e-10
7.1903676e-13
3.3932805e-18
5.6349673e-19
1.3262303e-13
4.9561199e-11
6.455242e-10
2.1103698e-09
3.5758734e-09
4.4032204e-09
4.6913486e-09
4.7259243e-09
4.7024435e-09
4.7024185e-09
4.7258577e-09
4.6912534e-09
4.4031296e-09
3.5758127e-09
2.1103438e-09
6.4552197e-10
4.9561482e-11
1.3262019e-13
5.6455967e-19
7.7311906e-20
2.3995743e-14
1.219199e-11
1.821985e-10
6.3653867e-10
1.1146297e-09
1.3955126e-09
1.4993952e-09
1.5168642e-09
1.5121e-09
1.5120915e-09
1.5168413e-09
1.4993626e-09
1.3954809e-09
1.1146081e-09
6.3652951e-10
1.8219745e-10
1.2192026e-11
2.3994563e-14
7.7605488e-20
7.4039191e-21
4.2607719e-15
2.9429732e-12
5.0409811e-11
1.8809801e-10
3.4030353e-10
4.3315784e-10
4.6932199e-10
4.768055e-10
4.7617968e-10
4.7617685e-10
4.7679782e-10
4.6931108e-10
4.3314708e-10
3.4029601e-10
1.8809484e-10
5.0409395e-11
2.9429718e-12
4.2603717e-15
7.4358632e-21
5.1674265e-22
7.436131e-16
6.9757285e-13
1.367977e-11
5.4485039e-11
1.0181811e-10
1.3174594e-10
1.4394188e-10
1.4685597e-10
1.4693097e-10
1.4693005e-10
1.4685344e-10
1.4393831e-10
1.3174236e-10
1.0181556e-10
5.4483971e-11
1.367962e-11
6.9757128e-13
7.4353423e-16
5.1569559e-22
3.6419897e-23
1.2778314e-16
1.6246618e-13
3.6430649e-12
1.5478375e-11
2.9869235e-11
3.9284368e-11
4.3278668e-11
4.4340753e-11
4.4443803e-11
4.4443509e-11
4.4339942e-11
4.327752e-11
3.9283203e-11
2.986839e-11
1.5478024e-11
3.6430133e-12
1.6246548e-13
1.2776884e-16
3.6195998e-23
2.5841533e-24
2.1639757e-17
3.7199989e-14
9.5255119e-13
4.3145249e-12
8.5953918e-12
1.1489246e-11
1.2762195e-11
1.3130062e-11
1.3184197e-11
1.3184105e-11
1.3129806e-11
1.2761834e-11
1.1488875e-11
8.5951189e-12
4.314412e-12
9.5253414e-13
3.7199731e-14
2.1637238e-17
2.5602824e-24
)
;

boundaryField
{
    Wall
    {
        type            zeroGradient;
    }
    frontAndBack
    {
        type            empty;
    }
    atmosphere
    {
        type            zeroGradient;
    }
}


// ************************************************************************* //
