/*--------------------------------*- C++ -*----------------------------------*\
| =========                 |                                                 |
| \\      /  F ield         | OpenFOAM: The Open Source CFD Toolbox           |
|  \\    /   O peration     | Version:  3.0.1                                 |
|   \\  /    A nd           | Web:      www.OpenFOAM.org                      |
|    \\/     M anipulation  |                                                 |
\*---------------------------------------------------------------------------*/
FoamFile
{
    version     2.0;
    format      ascii;
    class       volScalarField;
    location    "21";
    object      mThree;
}
// * * * * * * * * * * * * * * * * * * * * * * * * * * * * * * * * * * * * * //

dimensions      [0 0 0 0 0 0 0];

internalField   nonuniform List<scalar> 
800
(
4.2800723e-24
4.2807396e-24
4.2807788e-24
4.2807592e-24
4.2807414e-24
4.2807277e-24
4.2807184e-24
4.280712e-24
4.2807079e-24
4.2807058e-24
4.2807059e-24
4.2807079e-24
4.280712e-24
4.2807184e-24
4.2807278e-24
4.2807414e-24
4.2807593e-24
4.2807789e-24
4.2807397e-24
4.2800723e-24
3.7505889e-24
3.7686938e-24
3.7711964e-24
3.7713613e-24
3.7712562e-24
3.7712509e-24
3.7713258e-24
3.7714234e-24
3.7715037e-24
3.7715475e-24
3.7715476e-24
3.7715037e-24
3.7714234e-24
3.7713258e-24
3.771251e-24
3.7712563e-24
3.7713615e-24
3.7711967e-24
3.768694e-24
3.7505889e-24
3.4822793e-24
3.5029846e-24
3.5097628e-24
3.5102635e-24
3.5102838e-24
3.5103836e-24
3.5105638e-24
3.5107517e-24
3.5108962e-24
3.5109733e-24
3.5109734e-24
3.5108962e-24
3.5107517e-24
3.5105639e-24
3.5103837e-24
3.5102839e-24
3.5102638e-24
3.5097631e-24
3.5029849e-24
3.4822794e-24
3.372136e-24
3.3952973e-24
3.4051141e-24
3.4057044e-24
3.4057772e-24
3.4059376e-24
3.4061892e-24
3.4064408e-24
3.4066309e-24
3.4067319e-24
3.4067319e-24
3.4066309e-24
3.4064409e-24
3.4061893e-24
3.4059378e-24
3.4057774e-24
3.4057047e-24
3.4051145e-24
3.3952976e-24
3.372136e-24
3.3008226e-24
3.328426e-24
3.3403188e-24
3.3460878e-24
3.3461389e-24
3.3463097e-24
3.3466053e-24
3.3469059e-24
3.3471344e-24
3.3472563e-24
3.3472563e-24
3.3471344e-24
3.346906e-24
3.3466054e-24
3.3463099e-24
3.3461392e-24
3.3460881e-24
3.3403192e-24
3.3284263e-24
3.3008226e-24
3.1293351e-24
3.1746016e-24
3.1877304e-24
3.1974228e-24
3.1974154e-24
3.1975936e-24
3.1979405e-24
3.1982977e-24
3.1985718e-24
3.1987184e-24
3.1987184e-24
3.1985718e-24
3.1982977e-24
3.1979405e-24
3.1975938e-24
3.1974155e-24
3.1974231e-24
3.1877306e-24
3.1746018e-24
3.1293349e-24
2.7321616e-24
2.8077509e-24
2.8191947e-24
2.8296806e-24
2.8297872e-24
2.8301079e-24
2.8305865e-24
2.8310454e-24
2.8313889e-24
2.8315698e-24
2.8315698e-24
2.8313888e-24
2.8310453e-24
2.8305864e-24
2.8301079e-24
2.8297872e-24
2.8296807e-24
2.8191948e-24
2.8077509e-24
2.7321613e-24
2.0798564e-24
2.1686311e-24
2.1878293e-24
2.1972459e-24
2.1978998e-24
2.1986293e-24
2.1993675e-24
2.1999838e-24
2.2004149e-24
2.2006349e-24
2.2006348e-24
2.2004148e-24
2.1999836e-24
2.1993673e-24
2.1986291e-24
2.1978996e-24
2.1972457e-24
2.1878292e-24
2.1686308e-24
2.0798559e-24
1.3931172e-24
1.4669254e-24
1.4836034e-24
1.4913113e-24
1.4926837e-24
1.4938605e-24
1.4948182e-24
1.4955354e-24
1.4960037e-24
1.4962358e-24
1.4962357e-24
1.4960036e-24
1.4955352e-24
1.4948179e-24
1.4938602e-24
1.4926833e-24
1.491311e-24
1.4836031e-24
1.466925e-24
1.3931166e-24
8.3207139e-25
8.8928e-25
9.058199e-25
9.115781e-25
9.1323875e-25
9.1450984e-25
9.1543366e-25
9.160831e-25
9.1648678e-25
9.1668335e-25
9.1668331e-25
9.1648663e-25
9.1608287e-25
9.1543337e-25
9.1450953e-25
9.1323842e-25
9.1157776e-25
9.0581958e-25
8.8927963e-25
8.3207084e-25
3.863627e-25
4.2813195e-25
4.4439909e-25
4.479328e-25
4.4921515e-25
4.501164e-25
4.5072279e-25
4.5113e-25
4.5137324e-25
4.5149015e-25
4.5149013e-25
4.5137316e-25
4.5112986e-25
4.5072261e-25
4.501162e-25
4.4921494e-25
4.4793257e-25
4.4439887e-25
4.2813171e-25
3.8636238e-25
1.6141694e-25
1.7896137e-25
1.8656113e-25
1.8854432e-25
1.8928319e-25
1.8974532e-25
1.9003178e-25
1.9021396e-25
1.9031735e-25
1.9036521e-25
1.903652e-25
1.9031732e-25
1.902139e-25
1.900317e-25
1.8974523e-25
1.892831e-25
1.8854422e-25
1.8656104e-25
1.7896128e-25
1.6141681e-25
5.9836261e-26
7.1330511e-26
7.5611994e-26
7.667104e-26
7.6895997e-26
7.6976008e-26
7.7010653e-26
7.703014e-26
7.7038422e-26
7.7040244e-26
7.7040237e-26
7.7038404e-26
7.7030111e-26
7.7010616e-26
7.6975968e-26
7.6895955e-26
7.6670994e-26
7.5611953e-26
7.1330472e-26
5.9836223e-26
1.722659e-26
2.6723356e-26
2.9957481e-26
3.0669387e-26
3.0627178e-26
3.0456295e-26
3.030391e-26
3.0196277e-26
3.0128474e-26
3.0094301e-26
3.0094297e-26
3.0128465e-26
3.0196263e-26
3.0303892e-26
3.0456275e-26
3.0627158e-26
3.0669365e-26
2.9957462e-26
2.6723342e-26
1.7226584e-26
3.6133008e-27
9.1068145e-27
1.1429714e-26
1.206775e-26
1.2065019e-26
1.1897153e-26
1.17257e-26
1.1594694e-26
1.150943e-26
1.1466691e-26
1.1466689e-26
1.1509424e-26
1.1594686e-26
1.1725691e-26
1.1897143e-26
1.2065009e-26
1.206774e-26
1.1429707e-26
9.1068091e-27
3.6132999e-27
5.6367343e-28
2.7871177e-27
4.1242527e-27
4.6030662e-27
4.6624687e-27
4.5772831e-27
4.4673584e-27
4.375453e-27
4.3129669e-27
4.281156e-27
4.2811548e-27
4.3129639e-27
4.3754488e-27
4.4673538e-27
4.5772784e-27
4.6624643e-27
4.6030624e-27
4.1242496e-27
2.7871158e-27
5.6367322e-28
6.9294576e-29
7.6458523e-28
1.3941747e-27
1.6817259e-27
1.748588e-27
1.7211041e-27
1.6681e-27
1.6190202e-27
1.5841026e-27
1.5659963e-27
1.5659957e-27
1.584101e-27
1.619018e-27
1.6680977e-27
1.7211019e-27
1.7485862e-27
1.6817245e-27
1.3941737e-27
7.6458475e-28
6.9294542e-29
7.1503654e-30
1.8913054e-28
4.4018146e-28
5.8448327e-28
6.312677e-28
6.2773175e-28
6.0680401e-28
5.8484003e-28
5.6844419e-28
5.5977797e-28
5.5977764e-28
5.6844341e-28
5.8483896e-28
6.0680294e-28
6.2773082e-28
6.31267e-28
5.844828e-28
4.4018122e-28
1.8913047e-28
7.1503629e-30
6.5156425e-31
4.2653513e-29
1.2994022e-28
1.9269214e-28
2.1830643e-28
2.2084402e-28
2.1391163e-28
2.0530346e-28
1.9852433e-28
1.9486776e-28
1.9486761e-28
1.9852398e-28
2.0530299e-28
2.1391115e-28
2.2084364e-28
2.1830619e-28
1.9269201e-28
1.2994018e-28
4.2653517e-29
6.5156444e-31
5.4269825e-32
8.8782387e-30
3.5982438e-29
6.0241737e-29
7.2141503e-29
7.4674084e-29
7.2783686e-29
6.9762387e-29
6.7230084e-29
6.5833579e-29
6.5833516e-29
6.7229939e-29
6.9762189e-29
7.2783486e-29
7.4673932e-29
7.214142e-29
6.0241713e-29
3.598244e-29
8.8782454e-30
5.4269902e-32
4.2217607e-33
1.7241393e-30
9.3859888e-30
1.7878786e-29
2.2761671e-29
2.4216919e-29
2.3836226e-29
2.2876103e-29
2.2008363e-29
2.1517768e-29
2.1517744e-29
2.2008306e-29
2.2876024e-29
2.3836148e-29
2.4216861e-29
2.2761645e-29
1.7878785e-29
9.3859935e-30
1.7241421e-30
4.2217719e-33
3.1076893e-34
3.1504244e-31
2.3157779e-30
5.0456796e-30
6.8576362e-30
7.524796e-30
7.5003228e-30
7.2231241e-30
6.947719e-30
6.7875188e-30
6.78751e-30
6.9476979e-30
7.2230951e-30
7.5002944e-30
7.5247759e-30
6.8576285e-30
5.0456814e-30
2.3157806e-30
3.1504324e-31
3.1077015e-34
2.1817727e-35
5.4504297e-32
5.4239436e-31
1.3565979e-30
1.9741351e-30
2.2396229e-30
2.2653712e-30
2.1929416e-30
2.1114744e-30
2.0624967e-30
2.0624938e-30
2.111467e-30
2.1929317e-30
2.2653615e-30
2.2396163e-30
1.9741331e-30
1.3565991e-30
5.4239539e-31
5.4504491e-32
2.181784e-35
1.4678461e-36
8.9683327e-33
1.2096056e-31
3.4810872e-31
5.4350661e-31
6.3861481e-31
6.5651528e-31
6.396358e-31
6.1708388e-31
6.0299116e-31
6.0299022e-31
6.1708146e-31
6.3963258e-31
6.5651216e-31
6.3861275e-31
5.4350613e-31
3.4810922e-31
1.2096089e-31
8.9683741e-33
1.4678558e-36
9.4912068e-38
1.4080531e-33
2.5748013e-32
8.539332e-32
1.4325017e-31
1.7453811e-31
1.8255865e-31
1.7918168e-31
1.7332571e-31
1.6949437e-31
1.6949409e-31
1.7332496e-31
1.791807e-31
1.825577e-31
1.745375e-31
1.4325007e-31
8.5393497e-32
2.574811e-32
1.4080612e-33
9.4912847e-38
5.9092059e-39
2.1143872e-34
5.2417007e-33
2.0054486e-32
3.6181828e-32
4.5751302e-32
4.8723511e-32
4.8207433e-32
4.6779891e-32
4.5792817e-32
4.5792738e-32
4.6779672e-32
4.8207148e-32
4.872324e-32
4.5751138e-32
3.6181812e-32
2.0054541e-32
5.2417261e-33
2.1144024e-34
5.9092644e-39
3.5466798e-40
3.0422138e-35
1.0221882e-33
4.5147889e-33
8.7664001e-33
1.1510426e-32
1.2487014e-32
1.2459687e-32
1.2133273e-32
1.1891748e-32
1.1891727e-32
1.2133212e-32
1.2459608e-32
1.248694e-32
1.1510384e-32
8.7663986e-33
4.5148046e-33
1.0221944e-33
3.0422401e-35
3.5467217e-40
2.0537953e-41
4.20002e-36
1.9120834e-34
9.7543679e-34
2.0393805e-33
2.781533e-33
3.0748003e-33
3.0949989e-33
3.0252122e-33
2.9689932e-33
2.9689877e-33
3.0251959e-33
3.0949778e-33
3.0747809e-33
2.7815225e-33
2.0393807e-33
9.754409e-34
1.9120974e-34
4.2000627e-36
2.0538238e-41
1.1481551e-42
5.5702895e-37
3.4348234e-35
2.0246225e-34
4.5594329e-34
6.4612532e-34
7.2794135e-34
7.3928147e-34
7.2542399e-34
7.1296248e-34
7.1296107e-34
7.2541985e-34
7.3927611e-34
7.2793649e-34
6.4612283e-34
4.5594342e-34
2.0246325e-34
3.4348528e-35
5.5703551e-37
1.1481731e-42
6.2041285e-44
7.1040388e-38
5.931548e-36
4.0409184e-35
9.8045493e-35
1.4438472e-34
1.6580375e-34
1.6991048e-34
1.6738849e-34
1.6475674e-34
1.6475639e-34
1.6738749e-34
1.6990916e-34
1.6580257e-34
1.4438414e-34
9.8045533e-35
4.040941e-35
5.9316055e-36
7.1041334e-38
6.2042145e-44
7.7103751e-45
8.7200955e-39
9.8559397e-37
7.7621744e-36
2.0295426e-35
3.1061533e-35
3.6359093e-35
3.7598649e-35
3.7189491e-35
3.6659986e-35
3.6659903e-35
3.7189256e-35
3.7598336e-35
3.6358819e-35
3.10614e-35
2.0295435e-35
7.7622218e-36
9.8560458e-37
8.7202221e-39
7.6617985e-45
1.9346821e-45
1.0310776e-39
1.5771072e-37
1.4361656e-36
4.0471975e-36
6.4378001e-36
7.6816316e-36
8.0159145e-36
7.9607027e-36
7.8592843e-36
7.859265e-36
7.9606492e-36
8.0158431e-36
7.68157e-36
6.4377701e-36
4.0471988e-36
1.4361749e-36
1.5771256e-37
1.0310951e-39
1.9430403e-45
3.0211939e-46
1.1756352e-40
2.4321916e-38
2.5613709e-37
7.7805825e-37
1.2863826e-36
1.5646291e-36
1.6475917e-36
1.6428531e-36
1.6243915e-36
1.6243873e-36
1.6428413e-36
1.6475762e-36
1.5646157e-36
1.286376e-36
7.7805834e-37
2.5613881e-37
2.432222e-38
1.1756522e-40
3.0307679e-46
3.4924615e-47
1.2934001e-41
3.6177057e-39
4.4065361e-38
1.4430196e-37
2.4797885e-37
3.0745027e-37
3.2669656e-37
3.2706973e-37
3.2388513e-37
3.2388424e-37
3.2706725e-37
3.2669326e-37
3.0744742e-37
2.4797742e-37
1.4430192e-37
4.4065663e-38
3.6177513e-39
1.2934155e-41
3.5055284e-47
3.2755391e-48
1.3737235e-42
5.1935599e-40
7.3176931e-39
2.5835777e-38
4.6148027e-38
5.8320695e-38
6.2533637e-38
6.2856389e-38
6.2338373e-38
6.2338189e-38
6.2855883e-38
6.2532961e-38
5.8320109e-38
4.6147725e-38
2.5835757e-38
7.317743e-39
5.1936243e-40
1.373726e-42
3.2849738e-48
2.5050424e-49
1.4090991e-43
7.2006772e-41
1.1737682e-39
4.4682143e-39
8.2957611e-39
1.0686209e-38
1.1561766e-38
1.1667875e-38
1.1589082e-38
1.1589045e-38
1.1667775e-38
1.1561633e-38
1.0686092e-38
8.2956999e-39
4.4682084e-39
1.1737757e-39
7.200761e-41
1.4090846e-43
2.5195589e-49
1.3302611e-50
1.3961923e-44
9.6476705e-42
1.8196454e-40
7.4691523e-40
1.4413961e-39
1.8925016e-39
2.0660171e-39
2.0932665e-39
2.0822288e-39
2.0822218e-39
2.0932476e-39
2.0659916e-39
1.8924791e-39
1.4413841e-39
7.4691365e-40
1.8196561e-40
9.6477706e-42
1.3961469e-44
1.3408004e-50
4.8566989e-52
1.3373329e-45
1.2498914e-42
2.7279792e-41
1.207489e-40
2.422049e-40
3.2412209e-40
3.5701864e-40
3.6315795e-40
3.6177745e-40
3.6177616e-40
3.6315449e-40
3.5701393e-40
3.241179e-40
2.4220259e-40
1.2074852e-40
2.7279938e-41
1.2499041e-42
1.3372811e-45
4.8537895e-52
1.7537734e-53
1.2395416e-46
1.5666559e-43
3.9571955e-42
1.8888981e-41
3.9381563e-41
5.3712926e-41
5.9694361e-41
6.0959752e-41
6.0817206e-41
6.0816973e-41
6.0959139e-41
5.969352e-41
5.3712172e-41
3.9381136e-41
1.8888898e-41
3.9572128e-42
1.5666713e-43
1.2394929e-46
1.7439506e-53
6.3801087e-55
1.1122935e-47
1.9009015e-44
5.5572186e-43
2.8607265e-42
6.1992834e-42
8.6173756e-42
9.6625042e-42
9.9059505e-42
9.8971967e-42
9.8971568e-42
9.9058451e-42
9.6623589e-42
8.6172433e-42
6.1992071e-42
2.8607096e-42
5.5572355e-43
1.9009191e-44
1.1122522e-47
6.345683e-55
)
;

boundaryField
{
    Wall
    {
        type            zeroGradient;
    }
    frontAndBack
    {
        type            empty;
    }
    atmosphere
    {
        type            zeroGradient;
    }
}


// ************************************************************************* //
