/*--------------------------------*- C++ -*----------------------------------*\
| =========                 |                                                 |
| \\      /  F ield         | OpenFOAM: The Open Source CFD Toolbox           |
|  \\    /   O peration     | Version:  3.0.1                                 |
|   \\  /    A nd           | Web:      www.OpenFOAM.org                      |
|    \\/     M anipulation  |                                                 |
\*---------------------------------------------------------------------------*/
FoamFile
{
    version     2.0;
    format      ascii;
    class       volScalarField;
    location    "21";
    object      mTwo;
}
// * * * * * * * * * * * * * * * * * * * * * * * * * * * * * * * * * * * * * //

dimensions      [0 0 0 0 0 0 0];

internalField   nonuniform List<scalar> 
800
(
5.8479406e-12
5.8484917e-12
5.8485154e-12
5.8484929e-12
5.8484734e-12
5.8484583e-12
5.8484477e-12
5.8484403e-12
5.8484356e-12
5.8484333e-12
5.8484333e-12
5.8484356e-12
5.8484403e-12
5.8484477e-12
5.8484584e-12
5.8484734e-12
5.848493e-12
5.8485155e-12
5.8484917e-12
5.8479407e-12
5.3455808e-12
5.3629231e-12
5.3652896e-12
5.3654538e-12
5.3653635e-12
5.3653655e-12
5.3654417e-12
5.3655377e-12
5.3656159e-12
5.3656584e-12
5.3656585e-12
5.3656159e-12
5.3655377e-12
5.3654418e-12
5.3653656e-12
5.3653635e-12
5.365454e-12
5.3652898e-12
5.3629232e-12
5.3455808e-12
5.0280382e-12
5.0489692e-12
5.0556083e-12
5.0561266e-12
5.056152e-12
5.0562509e-12
5.0564284e-12
5.0566138e-12
5.0567566e-12
5.0568331e-12
5.0568331e-12
5.0567566e-12
5.0566138e-12
5.0564284e-12
5.056251e-12
5.0561521e-12
5.0561268e-12
5.0556086e-12
5.0489694e-12
5.0280382e-12
4.827854e-12
4.8522385e-12
4.8618537e-12
4.8624342e-12
4.8624963e-12
4.8626421e-12
4.8628834e-12
4.8631289e-12
4.8633158e-12
4.8634156e-12
4.8634156e-12
4.8633158e-12
4.8631289e-12
4.8628835e-12
4.8626423e-12
4.8624965e-12
4.8624345e-12
4.861854e-12
4.8522388e-12
4.827854e-12
4.6445886e-12
4.6742967e-12
4.6858662e-12
4.6911787e-12
4.6912068e-12
4.691353e-12
4.6916311e-12
4.6919204e-12
4.6921423e-12
4.6922613e-12
4.6922613e-12
4.6921423e-12
4.6919205e-12
4.6916311e-12
4.6913532e-12
4.691207e-12
4.691179e-12
4.6858666e-12
4.6742969e-12
4.6445886e-12
4.3569182e-12
4.4044857e-12
4.4173206e-12
4.4261318e-12
4.4261123e-12
4.4262723e-12
4.4266021e-12
4.4269454e-12
4.4272103e-12
4.4273524e-12
4.4273525e-12
4.4272103e-12
4.4269454e-12
4.4266021e-12
4.4262724e-12
4.4261124e-12
4.426132e-12
4.4173208e-12
4.4044858e-12
4.3569181e-12
3.8527167e-12
3.9311693e-12
3.942995e-12
3.9527217e-12
3.9528677e-12
3.9531997e-12
3.9536781e-12
3.9541311e-12
3.9544694e-12
3.9546473e-12
3.9546473e-12
3.9544694e-12
3.954131e-12
3.953678e-12
3.9531997e-12
3.9528677e-12
3.9527218e-12
3.9429951e-12
3.9311693e-12
3.8527164e-12
3.091416e-12
3.1883837e-12
3.2088844e-12
3.2182576e-12
3.2190638e-12
3.2198789e-12
3.2206694e-12
3.2213157e-12
3.2217642e-12
3.2219914e-12
3.2219913e-12
3.2217641e-12
3.2213155e-12
3.2206691e-12
3.2198787e-12
3.2190636e-12
3.2182575e-12
3.2088843e-12
3.1883835e-12
3.0914155e-12
2.253809e-12
2.3443393e-12
2.365008e-12
2.3736362e-12
2.3753941e-12
2.3768143e-12
2.3779317e-12
2.3787528e-12
2.3792832e-12
2.3795437e-12
2.3795437e-12
2.3792831e-12
2.3787525e-12
2.3779313e-12
2.376814e-12
2.3753938e-12
2.3736359e-12
2.3650077e-12
2.3443389e-12
2.2538083e-12
1.4921533e-12
1.5718728e-12
1.5952846e-12
1.6027203e-12
1.6050449e-12
1.6067351e-12
1.607925e-12
1.6087468e-12
1.609251e-12
1.6094942e-12
1.6094941e-12
1.6092508e-12
1.6087465e-12
1.6079247e-12
1.6067348e-12
1.6050445e-12
1.6027199e-12
1.5952843e-12
1.5718723e-12
1.4921527e-12
8.2036534e-13
8.8724155e-13
9.1291587e-13
9.185299e-13
9.2061401e-13
9.2199068e-13
9.2288221e-13
9.2346867e-13
9.2381278e-13
9.2397601e-13
9.2397597e-13
9.2381265e-13
9.2346846e-13
9.2288195e-13
9.2199039e-13
9.2061371e-13
9.1852958e-13
9.1291558e-13
8.8724124e-13
8.2036489e-13
4.1362868e-13
4.5200664e-13
4.6822629e-13
4.7246596e-13
4.7388895e-13
4.7465654e-13
4.7509116e-13
4.7535617e-13
4.7550024e-13
4.7556408e-13
4.7556406e-13
4.7550017e-13
4.7535605e-13
4.7509102e-13
4.7465639e-13
4.738888e-13
4.724658e-13
4.6822615e-13
4.520065e-13
4.1362848e-13
1.8515031e-13
2.1876192e-13
2.3183347e-13
2.3527103e-13
2.3583186e-13
2.3580113e-13
2.3566887e-13
2.3556091e-13
2.3548507e-13
2.3544188e-13
2.3544186e-13
2.3548503e-13
2.3556084e-13
2.3566878e-13
2.3580105e-13
2.3583178e-13
2.3527094e-13
2.3183339e-13
2.1876186e-13
1.8515025e-13
6.5357418e-14
9.9672775e-14
1.123519e-13
1.1572574e-13
1.158126e-13
1.1512206e-13
1.1442839e-13
1.1391811e-13
1.1359426e-13
1.1343169e-13
1.1343167e-13
1.1359422e-13
1.1391806e-13
1.1442834e-13
1.1512201e-13
1.1581255e-13
1.1572569e-13
1.1235186e-13
9.9672748e-14
6.5357415e-14
1.7195955e-14
4.1729772e-14
5.2661637e-14
5.617883e-14
5.6496782e-14
5.5806393e-14
5.4994493e-14
5.4348354e-14
5.3922678e-14
5.3708184e-14
5.3708174e-14
5.3922653e-14
5.4348319e-14
5.4994457e-14
5.5806359e-14
5.6496753e-14
5.6178804e-14
5.2661615e-14
4.1729759e-14
1.7195955e-14
3.4402847e-15
1.5942877e-14
2.3568403e-14
2.6606693e-14
2.7187087e-14
2.6800279e-14
2.6190515e-14
2.5656618e-14
2.5288247e-14
2.5099255e-14
2.5099248e-14
2.5288229e-14
2.5656594e-14
2.6190491e-14
2.6800258e-14
2.718707e-14
2.660668e-14
2.3568392e-14
1.5942871e-14
3.4402843e-15
5.5289675e-16
5.5601659e-15
1.0013192e-14
1.2190296e-14
1.2801131e-14
1.2674854e-14
1.2318049e-14
1.1969183e-14
1.1716694e-14
1.1584519e-14
1.1584514e-14
1.1716681e-14
1.1969166e-14
1.2318033e-14
1.2674842e-14
1.2801122e-14
1.2190291e-14
1.0013188e-14
5.5601641e-15
5.5289663e-16
7.5779236e-17
1.7801649e-15
4.033899e-15
5.3795287e-15
5.863791e-15
5.8704481e-15
5.6961225e-15
5.5008271e-15
5.3522274e-15
5.2728313e-15
5.2728278e-15
5.3522195e-15
5.5008164e-15
5.6961129e-15
5.870441e-15
5.8637867e-15
5.3795267e-15
4.033898e-15
1.7801647e-15
7.5779232e-17
9.2949696e-18
5.2832951e-16
1.5435013e-15
2.2832586e-15
2.6045819e-15
2.6520122e-15
2.5795845e-15
2.4821268e-15
2.4038031e-15
2.3610663e-15
2.3610642e-15
2.4037984e-15
2.4821204e-15
2.5795789e-15
2.6520083e-15
2.60458e-15
2.2832581e-15
1.5435013e-15
5.2832969e-16
9.2949751e-18
1.054542e-18
1.4694929e-16
5.6274692e-16
9.3239657e-16
1.1202417e-15
1.1656598e-15
1.1407144e-15
1.0964318e-15
1.058554e-15
1.037421e-15
1.0374199e-15
1.0585514e-15
1.0964283e-15
1.1407113e-15
1.1656577e-15
1.1202408e-15
9.3239665e-16
5.627471e-16
1.4694943e-16
1.0545438e-18
1.1299738e-19
3.868188e-17
1.9623717e-16
3.6681296e-16
4.6643617e-16
4.9783489e-16
4.9159304e-16
4.7306887e-16
4.560092e-16
4.4625793e-16
4.4625733e-16
4.5600785e-16
4.7306697e-16
4.9159137e-16
4.9783381e-16
4.6643577e-16
3.6681313e-16
1.9623732e-16
3.8681948e-17
1.1299771e-19
1.1583716e-20
9.712025e-18
6.5690659e-17
1.392575e-16
1.8808939e-16
2.0648719e-16
2.0621798e-16
1.9905394e-16
1.9182897e-16
1.8758643e-16
1.8758613e-16
1.9182829e-16
1.9905299e-16
2.0621715e-16
2.0648667e-16
1.8808922e-16
1.3925762e-16
6.5690751e-17
9.7120499e-18
1.1583764e-20
1.1450711e-21
2.3393785e-18
2.1177992e-17
5.1107286e-17
7.3513148e-17
8.3176785e-17
8.4157379e-17
8.1601362e-17
7.8705521e-17
7.6952446e-17
7.6952304e-17
7.8705197e-17
8.1600906e-17
8.4156985e-17
8.3176547e-17
7.3513081e-17
5.1107359e-17
2.1178038e-17
2.3393867e-18
1.1450774e-21
1.096845e-22
5.4289641e-19
6.5933037e-18
1.8161779e-17
2.787405e-17
3.2550955e-17
3.3407685e-17
3.2575437e-17
3.1472276e-17
3.0780667e-17
3.0780603e-17
3.1472129e-17
3.257523e-17
3.3407507e-17
3.255085e-17
2.7874025e-17
1.8161815e-17
6.5933237e-18
5.4289886e-19
1.0968526e-22
1.0212204e-23
1.2175713e-19
1.9866782e-18
6.258945e-18
1.0263531e-17
1.2382734e-17
1.2902303e-17
1.2661861e-17
1.2261392e-17
1.1999886e-17
1.1999858e-17
1.2261328e-17
1.266177e-17
1.2902225e-17
1.238269e-17
1.0263522e-17
6.2589614e-18
1.9866863e-18
1.2175782e-19
1.0212291e-23
9.2599556e-25
2.6449753e-20
5.8043897e-19
2.0945911e-18
3.6735022e-18
4.581941e-18
4.8498115e-18
4.792788e-18
4.65409e-18
4.5590504e-18
4.559039e-18
4.6540632e-18
4.7927498e-18
4.8497793e-18
4.5819236e-18
3.6734989e-18
2.0945979e-18
5.8044196e-19
2.6449938e-20
9.2600514e-25
8.187959e-26
5.5751447e-21
1.6468702e-19
6.8152382e-19
1.2792724e-18
1.6503589e-18
1.7752121e-18
1.7673313e-18
1.721518e-18
1.6882509e-18
1.6882464e-18
1.7215072e-18
1.7673157e-18
1.7751991e-18
1.6503522e-18
1.2792712e-18
6.8152649e-19
1.6468807e-19
5.5751916e-21
8.1880608e-26
7.0665169e-27
1.1418379e-21
4.5437192e-20
2.1583697e-19
4.3385132e-19
5.7907061e-19
6.3315893e-19
6.3518749e-19
6.2078796e-19
6.095574e-19
6.0955565e-19
6.2078374e-19
6.3518134e-19
6.3315385e-19
5.7906807e-19
4.3385088e-19
2.1583795e-19
4.5437539e-20
1.1418492e-21
7.066621e-27
5.9563239e-28
2.2749712e-22
1.2204559e-20
6.6600019e-20
1.4341456e-19
1.9807997e-19
2.2019335e-19
2.2263543e-19
2.1835053e-19
2.1469142e-19
2.1469075e-19
2.1834892e-19
2.2263308e-19
2.2019141e-19
1.9807902e-19
1.4341439e-19
6.660036e-20
1.2204668e-20
2.2749973e-22
5.9564247e-28
4.9214784e-29
4.4138567e-23
3.194876e-21
2.004182e-20
4.6246974e-20
6.6105124e-20
7.4718438e-20
7.6150471e-20
7.4955163e-20
7.3804458e-20
7.3804211e-20
7.4954572e-20
7.6149597e-20
7.4717721e-20
6.6104775e-20
4.6246904e-20
2.0041932e-20
3.1949082e-21
4.4139141e-23
4.9214951e-29
9.6821746e-30
8.347193e-24
8.1590047e-22
5.8870914e-21
1.455994e-20
2.1539682e-20
2.4756557e-20
2.5434697e-20
2.5128194e-20
2.4779153e-20
2.4779064e-20
2.5127981e-20
2.543438e-20
2.4756297e-20
2.1539555e-20
1.4559911e-20
5.8871258e-21
8.159096e-22
8.3473124e-24
9.6289976e-30
4.4401795e-30
1.5400794e-24
2.0345948e-22
1.6893983e-21
4.4787458e-21
6.857553e-21
8.0148673e-21
8.3013714e-21
8.2322432e-21
8.1302844e-21
8.130253e-21
8.2321679e-21
8.3012594e-21
8.0147751e-21
6.857507e-21
4.478734e-21
1.6894082e-21
2.0346193e-22
1.5401054e-24
4.4565406e-30
1.1443846e-30
2.7756926e-25
4.9586569e-23
4.7400264e-22
1.3470841e-21
2.1346732e-21
2.5371436e-21
2.6493182e-21
2.6372926e-21
2.6086933e-21
2.6086825e-21
2.6372666e-21
2.6492798e-21
2.5371116e-21
2.1346568e-21
1.3470794e-21
4.7400531e-22
4.9587208e-23
2.7757289e-25
1.1474986e-30
2.1715829e-31
4.8906671e-26
1.1821645e-23
1.3013099e-22
3.964442e-22
6.5016243e-22
7.8582692e-22
8.2730406e-22
8.2672994e-22
8.1906429e-22
8.1906071e-22
8.2672118e-22
8.2729114e-22
7.8581601e-22
6.5015664e-22
3.964424e-22
1.3013167e-22
1.1821796e-23
4.8907047e-26
2.1781233e-31
3.3705932e-32
8.4294531e-27
2.7591745e-24
3.4982667e-23
1.1423854e-22
1.938764e-22
2.3829892e-22
2.5294131e-22
2.537515e-22
2.5180442e-22
2.5180325e-22
2.5374861e-22
2.5293707e-22
2.3829528e-22
1.938744e-22
1.1423788e-22
3.4982824e-23
2.7592079e-24
8.4293834e-27
3.3780937e-32
4.3110264e-33
1.4219114e-27
6.3097261e-25
9.21517e-24
3.2252816e-23
5.6638629e-23
7.0794437e-23
7.5764187e-23
7.6305758e-23
7.5844124e-23
7.5843752e-23
7.6304831e-23
7.5762824e-23
7.0793244e-23
5.6637954e-23
3.2252583e-23
9.2151993e-24
6.3097928e-25
1.4218704e-27
4.3298311e-33
3.8655761e-34
2.3479178e-28
1.4148254e-25
2.3802489e-24
8.9271953e-24
1.6219777e-23
2.0616464e-23
2.224599e-23
2.2493764e-23
2.2394686e-23
2.239457e-23
2.2493471e-23
2.2245561e-23
2.0616081e-23
1.6219553e-23
8.9271154e-24
2.3802529e-24
1.4148374e-25
2.3477683e-28
3.886076e-34
2.5209808e-35
3.7994926e-29
3.1130688e-26
6.0323655e-25
2.4238674e-24
4.555836e-24
5.8885781e-24
6.4065504e-24
6.5037323e-24
6.4859097e-24
6.4858742e-24
6.5036419e-24
6.4064183e-24
5.8884581e-24
4.5557634e-24
2.4238406e-24
6.0323658e-25
3.1130934e-26
3.7992151e-29
2.519059e-35
1.6522575e-36
6.0341686e-30
6.7265168e-27
1.5009377e-25
6.4593666e-25
1.2557877e-24
1.6505099e-24
1.810546e-24
1.8453777e-24
1.8434224e-24
1.8434118e-24
1.8453503e-24
1.8105062e-24
1.650473e-24
1.2557647e-24
6.4592801e-25
1.5009344e-25
6.7265648e-27
6.0337011e-30
1.6446357e-36
1.0882758e-37
9.4125003e-31
1.4282645e-27
3.6685681e-26
1.6903883e-25
3.3986823e-25
4.5420767e-25
5.0236878e-25
5.1409454e-25
5.1442097e-25
5.1441787e-25
5.1408641e-25
5.0235698e-25
4.5419652e-25
3.3986109e-25
1.6903612e-25
3.6685501e-26
1.4282729e-27
9.4117377e-31
1.0806704e-37
)
;

boundaryField
{
    Wall
    {
        type            zeroGradient;
    }
    frontAndBack
    {
        type            empty;
    }
    atmosphere
    {
        type            zeroGradient;
    }
}


// ************************************************************************* //
