/*--------------------------------*- C++ -*----------------------------------*\
| =========                 |                                                 |
| \\      /  F ield         | OpenFOAM: The Open Source CFD Toolbox           |
|  \\    /   O peration     | Version:  3.0.1                                 |
|   \\  /    A nd           | Web:      www.OpenFOAM.org                      |
|    \\/     M anipulation  |                                                 |
\*---------------------------------------------------------------------------*/
FoamFile
{
    version     2.0;
    format      ascii;
    class       volScalarField;
    location    "21";
    object      mZero;
}
// * * * * * * * * * * * * * * * * * * * * * * * * * * * * * * * * * * * * * //

dimensions      [0 0 0 0 0 0 0];

internalField   nonuniform List<scalar> 
800
(
1e+13
1e+13
1e+13
1e+13
1e+13
1e+13
1e+13
1e+13
1e+13
1e+13
1e+13
1e+13
1e+13
1e+13
1e+13
1e+13
1e+13
1e+13
1e+13
1e+13
1e+13
1e+13
1e+13
1e+13
1e+13
1e+13
1e+13
1e+13
1e+13
1e+13
1e+13
1e+13
1e+13
1e+13
1e+13
1e+13
1e+13
1e+13
1e+13
1e+13
9.7429652e+12
9.7469356e+12
9.7479181e+12
9.7480399e+12
9.7479923e+12
9.7479511e+12
9.7479357e+12
9.7479368e+12
9.7479432e+12
9.7479483e+12
9.7479483e+12
9.7479432e+12
9.7479367e+12
9.7479356e+12
9.7479511e+12
9.7479922e+12
9.7480398e+12
9.747918e+12
9.7469356e+12
9.7429651e+12
9.3015866e+12
9.3121685e+12
9.3142352e+12
9.3143009e+12
9.314163e+12
9.3140549e+12
9.3140166e+12
9.3140176e+12
9.3140309e+12
9.3140416e+12
9.3140416e+12
9.3140308e+12
9.3140175e+12
9.3140165e+12
9.3140548e+12
9.3141629e+12
9.3143009e+12
9.3142351e+12
9.3121685e+12
9.3015864e+12
8.7350642e+12
8.7542445e+12
8.7573599e+12
8.7573628e+12
8.7571322e+12
8.7569688e+12
8.7569173e+12
8.7569233e+12
8.7569452e+12
8.7569617e+12
8.7569617e+12
8.7569452e+12
8.7569232e+12
8.7569173e+12
8.7569688e+12
8.7571322e+12
8.7573628e+12
8.7573599e+12
8.7542445e+12
8.7350641e+12
8.0857477e+12
8.1158452e+12
8.1203447e+12
8.1204627e+12
8.1202164e+12
8.1200606e+12
8.120028e+12
8.1200483e+12
8.1200825e+12
8.1201053e+12
8.1201053e+12
8.1200825e+12
8.1200483e+12
8.120028e+12
8.1200606e+12
8.1202165e+12
8.1204628e+12
8.1203448e+12
8.1158453e+12
8.0857477e+12
7.3785659e+12
7.4227078e+12
7.4298466e+12
7.4306238e+12
7.4305831e+12
7.4305364e+12
7.4305679e+12
7.4306155e+12
7.4306643e+12
7.4306907e+12
7.4306907e+12
7.4306643e+12
7.4306156e+12
7.4305679e+12
7.4305365e+12
7.4305833e+12
7.430624e+12
7.4298468e+12
7.4227081e+12
7.378566e+12
6.6224774e+12
6.6851004e+12
6.697523e+12
6.7000034e+12
6.7005252e+12
6.7006974e+12
6.7008126e+12
6.7008863e+12
6.7009382e+12
6.7009565e+12
6.7009565e+12
6.7009382e+12
6.7008863e+12
6.7008127e+12
6.7006976e+12
6.7005255e+12
6.7000038e+12
6.6975233e+12
6.6851008e+12
6.6224777e+12
5.8115586e+12
5.8991796e+12
5.9221043e+12
5.928117e+12
5.9296792e+12
5.9301008e+12
5.9302123e+12
5.9302468e+12
5.9302481e+12
5.9302256e+12
5.9302256e+12
5.9302481e+12
5.9302467e+12
5.9302124e+12
5.930101e+12
5.9296795e+12
5.9281175e+12
5.9221047e+12
5.8991802e+12
5.8115592e+12
4.9380839e+12
5.0596042e+12
5.1013574e+12
5.1141226e+12
5.1173345e+12
5.1178045e+12
5.1175713e+12
5.1173276e+12
5.1171209e+12
5.1169771e+12
5.116977e+12
5.1171208e+12
5.1173274e+12
5.1175713e+12
5.1178047e+12
5.1173348e+12
5.1141231e+12
5.1013579e+12
5.0596049e+12
4.9380848e+12
3.9870613e+12
4.1621003e+12
4.2381971e+12
4.2642169e+12
4.270356e+12
4.2703693e+12
4.2689985e+12
4.2678764e+12
4.267086e+12
4.2666349e+12
4.2666348e+12
4.2670859e+12
4.267876e+12
4.2689984e+12
4.2703695e+12
4.2703564e+12
4.2642176e+12
4.2381977e+12
4.1621012e+12
3.9870626e+12
2.8977212e+12
3.1591438e+12
3.2967179e+12
3.3485198e+12
3.3608255e+12
3.3596998e+12
3.3556423e+12
3.3523381e+12
3.3501416e+12
3.3489765e+12
3.3489763e+12
3.3501413e+12
3.3523375e+12
3.3556421e+12
3.3596999e+12
3.3608259e+12
3.3485204e+12
3.2967185e+12
3.1591449e+12
2.8977228e+12
1.7756392e+12
2.161172e+12
2.3706404e+12
2.4596485e+12
2.4832288e+12
2.4807811e+12
2.4719633e+12
2.4644147e+12
2.4594371e+12
2.4568745e+12
2.4568741e+12
2.4594365e+12
2.4644137e+12
2.4719627e+12
2.4807809e+12
2.483229e+12
2.459649e+12
2.3706409e+12
2.1611731e+12
1.7756407e+12
8.2730749e+11
1.3403338e+12
1.601992e+12
1.7198352e+12
1.7543077e+12
1.7507816e+12
1.736281e+12
1.7230281e+12
1.7140718e+12
1.7094862e+12
1.7094857e+12
1.714071e+12
1.7230268e+12
1.7362802e+12
1.7507811e+12
1.7543076e+12
1.7198353e+12
1.6019922e+12
1.3403345e+12
8.2730848e+11
2.7910881e+11
7.5211099e+11
1.0207748e+12
1.1509136e+12
1.1935246e+12
1.1917277e+12
1.1747903e+12
1.1578975e+12
1.1459851e+12
1.1398101e+12
1.1398096e+12
1.1459842e+12
1.1578961e+12
1.1747893e+12
1.1917271e+12
1.1935242e+12
1.1509135e+12
1.0207747e+12
7.5211123e+11
2.7910918e+11
6.993578e+10
3.8159491e+11
6.1146458e+11
7.3518166e+11
7.8098656e+11
7.8308586e+11
7.6809609e+11
7.5146611e+11
7.3917283e+11
7.3267863e+11
7.3267811e+11
7.3917181e+11
7.5146461e+11
7.6809497e+11
7.830851e+11
7.8098602e+11
7.351814e+11
6.1146434e+11
3.8159491e+11
6.9935865e+10
1.3828755e+10
1.7480883e+11
3.4360098e+11
4.4704127e+11
4.9024364e+11
4.9592385e+11
4.8522502e+11
4.7167836e+11
4.6116797e+11
4.5550493e+11
4.5550447e+11
4.6116704e+11
4.7167701e+11
4.8522396e+11
4.9592307e+11
4.9024306e+11
4.4704098e+11
3.4360073e+11
1.7480877e+11
1.3828771e+10
2.3007617e+09
7.2542771e+10
1.8108269e+11
2.5842351e+11
2.9468407e+11
3.0216397e+11
2.9585257e+11
2.8630373e+11
2.7850826e+11
2.7422561e+11
2.7422524e+11
2.7850748e+11
2.863026e+11
2.9585164e+11
3.0216327e+11
2.9468354e+11
2.5842324e+11
1.8108249e+11
7.254272e+10
2.3007649e+09
3.3889556e+08
2.7522181e+10
8.9668767e+10
1.4204994e+11
1.6951564e+11
1.7694802e+11
1.739323e+11
1.6795107e+11
1.6278418e+11
1.5988925e+11
1.5988897e+11
1.6278359e+11
1.6795022e+11
1.7393157e+11
1.7694746e+11
1.6951521e+11
1.4204973e+11
8.9668635e+10
2.7522154e+10
3.3889629e+08
45748798
9.6598215e+09
4.1868719e+10
7.4352121e+10
9.3355263e+10
9.9567164e+10
9.8541218e+10
9.5161846e+10
9.20422e+10
9.0257447e+10
9.0257257e+10
9.2041788e+10
9.5161241e+10
9.8540682e+10
9.9566747e+10
9.3354941e+10
7.4351976e+10
4.1868643e+10
9.6598097e+09
45748952
5785031
3.172481e+09
1.8516767e+10
3.7139548e+10
4.9273325e+10
5.3853966e+10
5.3796779e+10
5.2063017e+10
5.0325507e+10
4.9308134e+10
4.9308013e+10
5.0325235e+10
5.2062616e+10
5.3796415e+10
5.385368e+10
4.9273106e+10
3.7139455e+10
1.8516728e+10
3.1724764e+09
5785058.2
694582
9.8431156e+08
7.7926849e+09
1.7748763e+10
2.4961577e+10
2.8022148e+10
2.8309794e+10
2.7502843e+10
2.6602751e+10
2.6061394e+10
2.606132e+10
2.6602581e+10
2.7502593e+10
2.8309562e+10
2.8021966e+10
2.4961439e+10
1.7748708e+10
7.7926664e+09
9.8430987e+08
694586.2
79855.578
2.907145e+08
3.1343245e+09
8.1359134e+09
1.2157428e+10
1.4042116e+10
1.4369062e+10
1.4032159e+10
1.3596194e+10
1.3325475e+10
1.3325433e+10
1.3596094e+10
1.4032013e+10
1.4368923e+10
1.4042007e+10
1.2157347e+10
8.1358822e+09
3.1343164e+09
2.9071392e+08
79856.168
8839.1308
82217953
1.2094789e+09
3.5860263e+09
5.7024068e+09
6.7847685e+09
7.0402136e+09
6.9180631e+09
6.7200876e+09
6.5922488e+09
6.5922259e+09
6.7200318e+09
6.9179821e+09
7.0401352e+09
6.7847068e+09
5.702362e+09
3.5860097e+09
1.2094756e+09
82217758
8839.2084
945.41834
22368583
4.4922807e+08
1.5232008e+09
2.580087e+09
3.1648473e+09
3.332835e+09
3.2979442e+09
3.2136305e+09
3.156439e+09
3.1564272e+09
3.2136008e+09
3.2979013e+09
3.3327928e+09
3.1648141e+09
2.5800637e+09
1.5231923e+09
4.4922674e+08
22368523
945.42812
97.969496
5875952.3
1.6104177e+08
6.2473823e+08
1.1278147e+09
1.427001e+09
1.525953e+09
1.5213645e+09
1.4877802e+09
1.463493e+09
1.4634872e+09
1.4877651e+09
1.5213428e+09
1.5259314e+09
1.426984e+09
1.1278032e+09
6.2473417e+08
1.6104126e+08
5875935
97.970668
9.8560857
1494800
55847844
2.4785221e+08
4.7696045e+08
6.2268393e+08
6.7639736e+08
6.7969401e+08
6.6727308e+08
6.5747599e+08
6.5747323e+08
6.6726571e+08
6.7968346e+08
6.763867e+08
6.2267555e+08
4.7695499e+08
2.4785034e+08
55847656
1494795.2
9.856221
0.96434736
369170.8
18771609
95258441
1.9540136e+08
2.6325266e+08
2.9055127e+08
2.9434318e+08
2.9014517e+08
2.8639409e+08
2.8639281e+08
2.901417e+08
2.9433825e+08
2.9054622e+08
2.6324869e+08
1.9539888e+08
95257618
18771541
369169.49
0.96436229
0.09191742
88697.77
6125229.2
35514883
77639269
1.079439e+08
1.2106421e+08
1.2365883e+08
1.2240815e+08
1.2104863e+08
1.2104806e+08
1.2240657e+08
1.236566e+08
1.210619e+08
1.0794209e+08
77638178
35514533
6125204.9
88697.424
0.091918975
0.0087236288
20768.272
1942942.2
12859507
29950607
42970557
48974974
50441731
50144894
49681095
49680847
50144204
50440756
48973958
42969751
29950143
12859363
1942933.3
20768.18
0.0087229019
0.0043193915
4746.0436
599815.24
4526869.1
11228488
16622218
19251800
19994020
19961727
19814409
19814305
19961434
19993607
19251366
16621872
11228296
4526811.8
599812.08
4746.0187
0.004290111
0.0034184605
1059.8979
180396.24
1550728.2
4094628.1
6253492.4
7359704.6
7707145
7727688.7
7685065.1
7685022.1
7727567.4
7706974.9
7359524.9
6253348
4094550.7
1550706
180395.09
1059.8933
0.0034302506
0.0011205826
231.68405
52900.955
517371.1
1453587.4
2289909.3
2738265.3
2891304
2911358.9
2900680.2
2900663.1
2911310.2
2891236.1
2738193
2289850.8
1453557.1
517362.65
52900.555
231.68091
0.0011231424
0.00026139959
49.60816
15137.781
168239.65
502726.52
816771.85
992278.17
1056355.7
1068168.1
1066197.7
1066191
1068149.2
1056329.3
992249.86
816748.82
502714.91
168236.55
15137.631
49.606882
0.00026198719
4.9453238e-05
10.407848
4229.7171
53360.506
169509.77
283972.38
350457.1
376130.64
381920.39
381900.77
381898.26
381913.21
376120.63
350446.31
283963.57
169505.44
53359.399
4229.6627
10.40729
4.9513429e-05
7.6607448e-06
2.1394809
1154.6801
16518.081
55759.653
96301.652
120716.37
130605.82
133160.66
133388.2
133387.28
133158.02
130602.13
120712.37
96298.379
55758.083
16517.692
1154.6608
2.1392931
7.6819322e-06
8.1686655e-07
0.43073584
308.13498
4993.555
17905.317
31874.891
40578.959
44254.083
45302.155
45457.716
45457.384
45301.205
44252.753
40577.511
31873.707
17904.759
4993.4224
308.12852
0.43067642
8.19047e-07
6.3289224e-08
0.085009285
80.421823
1475.0929
5616.1719
10303.463
13319.9
14641.045
15047.408
15124.496
15124.38
15047.075
14640.579
13319.39
10303.046
5615.978
1475.0492
80.419945
0.084996761
6.3032625e-08
4.9509578e-09
0.016464121
20.538616
426.01431
1721.6435
3254.5296
4271.8688
4732.2749
4882.6468
4915.7323
4915.6925
4882.5332
4732.115
4271.6937
3254.386
1721.5778
426.00015
20.538082
0.016461664
4.9083163e-09
3.8783266e-10
0.0031295928
5.1348073
120.35105
516.09386
1005.0893
1339.349
1495.165
1548.6094
1561.6079
1561.5946
1548.5715
1495.1115
1339.2902
1005.0412
516.07207
120.34656
5.1346573
0.0031291255
3.8291171e-10
)
;

boundaryField
{
    Wall
    {
        type            zeroGradient;
    }
    frontAndBack
    {
        type            empty;
    }
    atmosphere
    {
        type            zeroGradient;
    }
}


// ************************************************************************* //
