/*--------------------------------*- C++ -*----------------------------------*\
| =========                 |                                                 |
| \\      /  F ield         | OpenFOAM: The Open Source CFD Toolbox           |
|  \\    /   O peration     | Version:  3.0.1                                 |
|   \\  /    A nd           | Web:      www.OpenFOAM.org                      |
|    \\/     M anipulation  |                                                 |
\*---------------------------------------------------------------------------*/
FoamFile
{
    version     2.0;
    format      ascii;
    class       volScalarField;
    location    "21";
    object      node1;
}
// * * * * * * * * * * * * * * * * * * * * * * * * * * * * * * * * * * * * * //

dimensions      [0 0 0 0 0 0 0];

internalField   nonuniform List<scalar> 
800
(
7.6274432e-13
7.6278002e-13
7.6278152e-13
7.6278005e-13
7.6277877e-13
7.6277778e-13
7.6277708e-13
7.627766e-13
7.6277629e-13
7.6277613e-13
7.6277614e-13
7.6277629e-13
7.627766e-13
7.6277708e-13
7.6277778e-13
7.6277877e-13
7.6278005e-13
7.6278152e-13
7.6278002e-13
7.6274432e-13
7.2745235e-13
7.2867605e-13
7.2884142e-13
7.2885383e-13
7.2884861e-13
7.2884963e-13
7.2885556e-13
7.2886266e-13
7.2886835e-13
7.2887142e-13
7.2887142e-13
7.2886835e-13
7.2886266e-13
7.2885556e-13
7.2884964e-13
7.2884862e-13
7.2885384e-13
7.2884143e-13
7.2867606e-13
7.2745235e-13
7.1431146e-13
7.1568688e-13
7.1613906e-13
7.1617325e-13
7.1617811e-13
7.1618774e-13
7.1620179e-13
7.1621555e-13
7.1622587e-13
7.1623131e-13
7.1623131e-13
7.1622587e-13
7.1621555e-13
7.1620179e-13
7.1618775e-13
7.1617812e-13
7.1617327e-13
7.1613908e-13
7.156869e-13
7.1431146e-13
7.1596123e-13
7.1740134e-13
7.1805186e-13
7.1809408e-13
7.1810525e-13
7.181212e-13
7.1814132e-13
7.1816003e-13
7.1817372e-13
7.1818087e-13
7.1818088e-13
7.1817372e-13
7.1816003e-13
7.1814133e-13
7.1812122e-13
7.1810526e-13
7.180941e-13
7.1805189e-13
7.1740136e-13
7.1596123e-13
7.2401745e-13
7.2559219e-13
7.2637754e-13
7.2680445e-13
7.2681736e-13
7.2683641e-13
7.2686087e-13
7.2688365e-13
7.2690032e-13
7.2690905e-13
7.2690906e-13
7.2690032e-13
7.2688365e-13
7.2686088e-13
7.2683642e-13
7.2681737e-13
7.2680447e-13
7.2637757e-13
7.2559221e-13
7.2401745e-13
7.2779268e-13
7.3049224e-13
7.3136689e-13
7.3210821e-13
7.3211863e-13
7.3213982e-13
7.321694e-13
7.3219752e-13
7.3221833e-13
7.3222928e-13
7.3222928e-13
7.3221833e-13
7.3219752e-13
7.321694e-13
7.3213982e-13
7.3211864e-13
7.3210822e-13
7.313669e-13
7.3049225e-13
7.2779267e-13
7.1527257e-13
7.2045753e-13
7.2121106e-13
7.2207817e-13
7.2209243e-13
7.2212438e-13
7.2216629e-13
7.2220525e-13
7.2223376e-13
7.2224871e-13
7.2224871e-13
7.2223376e-13
7.2220524e-13
7.2216628e-13
7.2212438e-13
7.2209242e-13
7.2207817e-13
7.2121106e-13
7.2045752e-13
7.1527254e-13
6.7649653e-13
6.8377767e-13
6.8536352e-13
6.8626779e-13
6.8631908e-13
6.8638873e-13
6.86461e-13
6.8652205e-13
6.8656471e-13
6.865867e-13
6.865867e-13
6.8656469e-13
6.8652203e-13
6.8646097e-13
6.8638871e-13
6.8631905e-13
6.8626776e-13
6.853635e-13
6.8377763e-13
6.7649646e-13
6.2128419e-13
6.2875089e-13
6.3030877e-13
6.3122038e-13
6.3135148e-13
6.3148934e-13
6.3160946e-13
6.3170192e-13
6.3176319e-13
6.317942e-13
6.317942e-13
6.3176317e-13
6.3170189e-13
6.3160942e-13
6.3148929e-13
6.3135143e-13
6.3122033e-13
6.3030872e-13
6.2875083e-13
6.2128409e-13
5.5863413e-13
5.6658567e-13
5.6866879e-13
5.6954151e-13
5.6976069e-13
5.6997054e-13
5.7013787e-13
5.7025971e-13
5.7033748e-13
5.7037639e-13
5.7037639e-13
5.7033745e-13
5.7025966e-13
5.7013781e-13
5.6997048e-13
5.6976062e-13
5.6954144e-13
5.6866872e-13
5.6658559e-13
5.58634e-13
4.7040433e-13
4.8129952e-13
4.853273e-13
4.8603198e-13
4.8630989e-13
4.865773e-13
4.8678267e-13
4.8692703e-13
4.8701665e-13
4.8706125e-13
4.8706124e-13
4.8701662e-13
4.8692699e-13
4.8678262e-13
4.8657723e-13
4.8630982e-13
4.8603189e-13
4.8532721e-13
4.8129942e-13
4.7040418e-13
0
0
0
0
0
0
0
0
0
0
0
0
0
0
0
0
0
0
0
0
0
0
0
0
0
0
0
0
0
0
0
0
0
0
0
0
0
0
0
0
0
0
0
0
0
0
0
0
0
0
0
0
0
0
0
0
0
0
0
0
0
0
0
0
0
0
0
0
0
0
0
0
0
0
0
0
0
0
0
0
0
0
0
0
0
0
0
0
0
0
0
0
0
0
0
0
0
0
0
0
0
0
0
0
0
0
0
0
0
0
0
0
0
0
0
0
0
0
0
0
0
0
0
0
0
0
0
0
0
0
0
0
0
0
0
0
0
0
0
0
0
0
0
0
0
0
0
0
0
0
0
0
0
0
0
0
0
0
0
0
0
0
0
0
0
0
0
0
0
0
0
0
0
0
0
0
0
0
0
0
0
0
0
0
0
0
0
0
0
0
0
0
0
0
0
0
0
0
0
0
0
0
0
0
0
0
0
0
0
0
0
0
0
0
0
0
0
0
0
0
0
0
0
0
0
0
0
0
0
0
0
0
0
0
0
0
0
0
0
0
0
0
0
0
0
0
0
0
0
0
0
0
0
0
0
0
0
0
0
0
0
0
0
0
0
0
0
0
0
0
0
0
0
0
0
0
0
0
0
0
0
0
0
0
0
0
0
0
0
0
0
0
0
0
0
0
0
0
0
0
0
0
0
0
0
0
0
0
0
0
0
0
0
0
0
0
0
0
0
0
0
0
0
0
0
0
0
0
0
0
0
0
0
0
0
0
0
0
0
0
0
0
0
0
0
0
0
0
0
0
0
0
0
0
0
0
0
0
0
0
0
0
0
0
0
0
0
0
0
0
0
0
0
0
0
0
0
0
0
0
0
0
0
0
0
0
0
0
0
0
0
0
0
0
0
0
0
0
0
0
0
0
0
0
0
0
0
0
0
0
0
0
0
0
0
0
0
0
0
0
0
0
0
0
0
0
0
0
0
0
0
0
0
0
0
0
0
0
0
0
0
0
0
0
0
0
0
0
0
0
0
0
0
0
0
0
0
0
0
0
0
0
0
0
0
0
0
0
0
0
0
0
0
0
0
0
0
0
0
0
0
0
0
0
0
0
0
0
0
0
0
0
0
0
0
0
0
0
0
0
0
0
0
0
0
0
0
0
0
0
0
0
0
0
0
0
0
0
0
0
0
0
0
0
0
0
0
0
0
0
0
0
0
0
0
0
0
0
0
0
0
0
0
0
0
0
0
0
0
0
0
0
0
0
0
0
0
0
0
0
0
0
0
0
0
0
0
0
0
0
0
0
0
0
0
0
0
0
0
0
)
;

boundaryField
{
    Wall
    {
        type            zeroGradient;
    }
    frontAndBack
    {
        type            empty;
    }
    atmosphere
    {
        type            zeroGradient;
    }
}


// ************************************************************************* //
