/*--------------------------------*- C++ -*----------------------------------*\
| =========                 |                                                 |
| \\      /  F ield         | OpenFOAM: The Open Source CFD Toolbox           |
|  \\    /   O peration     | Version:  3.0.1                                 |
|   \\  /    A nd           | Web:      www.OpenFOAM.org                      |
|    \\/     M anipulation  |                                                 |
\*---------------------------------------------------------------------------*/
FoamFile
{
    version     2.0;
    format      ascii;
    class       surfaceScalarField;
    location    "21";
    object      phi;
}
// * * * * * * * * * * * * * * * * * * * * * * * * * * * * * * * * * * * * * //

dimensions      [0 3 -1 0 0 0 0];

internalField   nonuniform List<scalar> 
1540
(
2.9820789e-10
1.9823964e-08
3.2676437e-10
2.0104833e-08
2.8051608e-10
2.0180617e-08
2.2158514e-10
2.0193325e-08
1.6915856e-10
2.018695e-08
1.2605643e-10
2.017787e-08
9.0012082e-11
2.0171059e-08
5.8221194e-11
2.0166999e-08
2.8650332e-11
2.0164904e-08
3.2289932e-15
2.0164039e-08
-2.8648328e-11
2.0164036e-08
-5.8231584e-11
2.0164897e-08
-9.0040971e-11
2.0166989e-08
-1.261054e-10
2.0171047e-08
-1.6922387e-10
2.0177858e-08
-2.2165853e-10
2.0186942e-08
-2.8058591e-10
2.0193324e-08
-3.2681654e-10
2.0180625e-08
-2.9823148e-10
2.0104854e-08
1.9823993e-08
1.5307895e-10
3.9936375e-08
2.3714133e-10
4.028669e-08
2.3065047e-10
4.0461517e-08
1.9545914e-10
4.050281e-08
1.5550258e-10
4.050053e-08
1.1862015e-10
4.0487818e-08
8.5727448e-11
4.0476681e-08
5.5766336e-11
4.0469515e-08
2.7516106e-11
4.0465629e-08
-4.575377e-15
4.0464003e-08
-2.752887e-11
4.0463998e-08
-5.5788354e-11
4.0465618e-08
-8.5762337e-11
4.0469499e-08
-1.1866816e-10
4.0476663e-08
-1.555601e-10
4.0487804e-08
-1.9551944e-10
4.0500526e-08
-2.3070411e-10
4.0502821e-08
-2.3717847e-10
4.0461545e-08
-1.5308866e-10
4.0286737e-08
3.9936437e-08
2.3550639e-10
6.0464773e-08
2.4447083e-10
6.1043506e-08
2.0922742e-10
6.1258746e-08
1.7027322e-10
6.1302814e-08
1.3473043e-10
6.1295826e-08
1.0384361e-10
6.1277255e-08
7.6130549e-11
6.126212e-08
5.0146993e-11
6.1252723e-08
2.4936371e-11
6.1247785e-08
-1.1106746e-14
6.1245771e-08
-2.4960762e-11
6.1245766e-08
-5.01767e-11
6.1247772e-08
-7.6167476e-11
6.1252705e-08
-1.0388644e-10
6.1262103e-08
-1.3477578e-10
6.1277245e-08
-1.7031529e-10
6.129583e-08
-2.0925985e-10
6.1302838e-08
-2.444871e-10
6.1258791e-08
-2.3550277e-10
6.104357e-08
6.0464851e-08
2.2941929e-10
8.2134484e-08
2.1969779e-10
8.2924466e-08
1.7108286e-10
8.3163499e-08
1.3553242e-10
8.3213157e-08
1.0793169e-10
8.319651e-08
8.5540296e-11
8.3171089e-08
6.4792243e-11
8.315309e-08
4.3870376e-11
8.3143055e-08
2.2205035e-11
8.3138381e-08
-1.6789554e-14
8.31367e-08
-2.2239067e-11
8.3136696e-08
-4.3905884e-11
8.3138369e-08
-6.4828259e-11
8.3143039e-08
-8.5574638e-11
8.3153076e-08
-1.0796148e-10
8.3171084e-08
-1.3555271e-10
8.3196519e-08
-1.7109178e-10
8.3213184e-08
-2.1969449e-10
8.3163544e-08
-2.294071e-10
8.2924521e-08
8.2134544e-08
1.8692381e-10
1.0576489e-07
1.6180404e-10
1.0672916e-07
1.242518e-10
1.0695749e-07
9.4103361e-11
1.0698709e-07
7.8634329e-11
1.0695377e-07
6.7419719e-11
1.069221e-07
5.4922148e-11
1.0690374e-07
3.9206516e-11
1.0689571e-07
2.0465121e-11
1.0689331e-07
-2.1333972e-14
1.0689302e-07
-2.0507144e-11
1.0689302e-07
-3.9245389e-11
1.068933e-07
-5.4955169e-11
1.068957e-07
-6.7442906e-11
1.0690373e-07
-7.8647569e-11
1.069221e-07
-9.4103577e-11
1.0695377e-07
-1.2424094e-10
1.0698711e-07
-1.6178822e-10
1.0695752e-07
-1.8691419e-10
1.0672918e-07
1.057649e-07
1.195866e-10
1.3210452e-07
7.865243e-11
1.331643e-07
5.3275734e-11
1.3333533e-07
4.4638625e-11
1.3331791e-07
4.9465396e-11
1.332692e-07
5.3744605e-11
1.3323554e-07
5.0493261e-11
1.3322241e-07
3.8991505e-11
1.3322086e-07
2.1159525e-11
1.3322364e-07
-2.4474476e-14
1.3322612e-07
-2.1206171e-11
1.3322612e-07
-3.9031741e-11
1.3322363e-07
-5.0523348e-11
1.3322085e-07
-5.3762685e-11
1.332224e-07
-4.9464626e-11
1.3323553e-07
-4.46293e-11
1.3326919e-07
-5.3257644e-11
1.3331791e-07
-7.8637828e-11
1.3333532e-07
-1.1959019e-10
1.3316428e-07
1.3210447e-07
-3.4631617e-11
1.615712e-07
-1.0285646e-10
1.6250696e-07
-6.3858412e-11
1.6262024e-07
-1.6943062e-11
1.6256615e-07
2.6685969e-11
1.6251799e-07
5.1821373e-11
1.6249885e-07
5.7373129e-11
1.6250168e-07
4.7049522e-11
1.6251328e-07
2.6145262e-11
1.6252484e-07
-2.606606e-14
1.6253171e-07
-2.6194334e-11
1.6253171e-07
-4.7089916e-11
1.6252484e-07
-5.7400328e-11
1.6251326e-07
-5.1832576e-11
1.6250166e-07
-2.6684743e-11
1.6249883e-07
1.6955886e-11
1.6251797e-07
6.386909e-11
1.6256612e-07
1.0285877e-10
1.626202e-07
3.4618665e-11
1.625069e-07
1.6157112e-07
-3.2488873e-10
1.9371454e-07
-3.7481393e-10
1.9448515e-07
-2.0141756e-10
1.9455122e-07
-6.1553554e-11
1.9450646e-07
2.9975969e-11
1.9449767e-07
7.4647158e-11
1.945164e-07
8.3397375e-11
1.9454829e-07
6.766325e-11
1.9457988e-07
3.7282956e-11
1.9460335e-07
-2.5839814e-14
1.9461585e-07
-3.733175e-11
1.9461585e-07
-6.770375e-11
1.9460335e-07
-8.3425855e-11
1.9457987e-07
-7.4662324e-11
1.9454827e-07
-2.9979907e-11
1.9451637e-07
6.1555382e-11
1.9449763e-07
2.0141783e-10
1.9450642e-07
3.7479968e-10
1.9455116e-07
3.2485383e-10
1.9448508e-07
1.9371445e-07
-8.3032105e-10
2.2097784e-07
-6.8587473e-10
2.2129215e-07
-2.9845754e-10
2.2143417e-07
-4.8469579e-11
2.2151865e-07
8.3342819e-11
2.2160891e-07
1.3486584e-10
2.2169495e-07
1.3444377e-10
2.2177072e-07
1.0319305e-10
2.2182891e-07
5.5345229e-11
2.2186677e-07
-2.4344209e-14
2.2188586e-07
-5.5391899e-11
2.2188586e-07
-1.0323393e-10
2.2186676e-07
-1.3447628e-10
2.218289e-07
-1.3488897e-10
2.217707e-07
-8.3358918e-11
2.2169492e-07
4.845465e-11
2.2160887e-07
2.9844271e-10
2.2151859e-07
6.858502e-10
2.2143411e-07
8.3028377e-10
2.2129208e-07
2.2097777e-07
-1.3842271e-09
2.4977379e-07
-7.8509912e-10
2.48228e-07
-2.1358212e-10
2.4837976e-07
7.0757079e-11
2.4868189e-07
2.1208957e-10
2.4886397e-07
2.4125934e-10
2.4903318e-07
2.1256534e-10
2.491532e-07
1.533988e-10
2.4923648e-07
7.9855759e-11
2.4928694e-07
-2.2312053e-14
2.4931196e-07
-7.9899345e-11
2.4931196e-07
-1.5344019e-10
2.4928694e-07
-2.1260321e-10
2.4923647e-07
-2.41292e-10
2.4915318e-07
-2.1211641e-10
2.4903314e-07
-7.0778956e-11
2.4886392e-07
2.135612e-10
2.4868182e-07
7.8507638e-10
2.483797e-07
1.3842045e-09
2.4822794e-07
2.4977373e-07
-2.137561e-09
2.5832891e-07
-4.5708217e-10
2.6540537e-07
8.838434e-11
2.6738708e-07
3.7503787e-10
2.6834179e-07
4.3049755e-10
2.6887572e-07
3.9179128e-10
2.6916831e-07
3.1295248e-10
2.6932767e-07
2.1438384e-10
2.6941967e-07
1.0844185e-10
2.6946756e-07
-2.1208366e-14
2.6948853e-07
-1.084835e-10
2.6948853e-07
-2.1442617e-10
2.6946756e-07
-3.1299528e-10
2.6941968e-07
-3.9183186e-10
2.6932767e-07
-4.3053312e-10
2.691683e-07
-3.7506587e-10
2.6887571e-07
-8.8399188e-11
2.6834176e-07
4.5706949e-10
2.6738707e-07
2.1375594e-09
2.6540537e-07
2.5832892e-07
5.4986186e-09
2.4690362e-07
3.7294849e-09
2.6083678e-07
2.5353052e-09
2.6240129e-07
1.8044848e-09
2.6293055e-07
1.3227118e-09
2.6320711e-07
9.6613351e-10
2.6336016e-07
6.7915968e-10
2.6343804e-07
4.3241892e-10
2.6348146e-07
2.0918299e-10
2.6350075e-07
-2.3422908e-14
2.6350517e-07
-2.0922933e-10
2.6350517e-07
-4.3246449e-10
2.6350076e-07
-6.7920506e-10
2.6348147e-07
-9.6617516e-10
2.6343804e-07
-1.3227469e-09
2.6336015e-07
-1.8045099e-09
2.6320709e-07
-2.5353199e-09
2.6293051e-07
-3.7294841e-09
2.6240127e-07
-5.4986001e-09
2.6083676e-07
2.4690366e-07
3.4472991e-08
2.1160173e-07
3.0372016e-08
2.637701e-07
2.2168802e-08
2.6936073e-07
1.5545763e-08
2.6828907e-07
1.0814298e-08
2.6666093e-07
7.4539395e-09
2.6543456e-07
4.9799741e-09
2.6462142e-07
3.0562875e-09
2.6411235e-07
1.4514597e-09
2.6381183e-07
-6.1486445e-14
2.6366264e-07
-1.4515775e-09
2.6366263e-07
-3.0563936e-09
2.6381185e-07
-4.980068e-09
2.6411236e-07
-7.4540119e-09
2.6462141e-07
-1.0814327e-08
2.6543453e-07
-1.5545772e-08
2.6666088e-07
-2.2168776e-08
2.6828901e-07
-3.0371971e-08
2.6936069e-07
-3.4472951e-08
2.637701e-07
2.1160185e-07
4.3278447e-08
1.6831234e-07
5.3563999e-08
2.5346028e-07
4.8427408e-08
2.7446895e-07
3.9075368e-08
2.7761215e-07
2.976042e-08
2.7594677e-07
2.1709257e-08
2.734565e-07
1.5016877e-08
2.7128458e-07
9.4107888e-09
2.6968917e-07
4.5274359e-09
2.6866592e-07
-8.6651825e-14
2.681609e-07
-4.5275954e-09
2.6816091e-07
-9.4109521e-09
2.6866593e-07
-1.5016988e-08
2.6968918e-07
-2.1709356e-08
2.7128457e-07
-2.9760457e-08
2.7345648e-07
-3.9075404e-08
2.7594673e-07
-4.8427422e-08
2.7761211e-07
-5.3564015e-08
2.7446892e-07
-4.3278457e-08
2.534603e-07
1.6831243e-07
3.2237269e-08
1.3607512e-07
4.8550648e-08
2.3714693e-07
5.0349866e-08
2.7266971e-07
4.4863644e-08
2.8309831e-07
3.671218e-08
2.8409821e-07
2.8186866e-08
2.8198178e-07
2.0200501e-08
2.7927091e-07
1.2954523e-08
2.7693513e-07
6.3136195e-09
2.7530682e-07
-4.9365448e-14
2.7447453e-07
-6.3137091e-09
2.7447452e-07
-1.2954617e-08
2.7530679e-07
-2.0200577e-08
2.769351e-07
-2.8186926e-08
2.792709e-07
-3.6712181e-08
2.8198175e-07
-4.4863653e-08
2.8409818e-07
-5.034986e-08
2.8309829e-07
-4.8550629e-08
2.7266969e-07
-3.2237263e-08
2.3714691e-07
1.3607516e-07
2.079103e-08
1.152841e-07
3.6742143e-08
2.2119579e-07
4.2505784e-08
2.6690604e-07
4.1077425e-08
2.8452665e-07
3.5741215e-08
2.8943441e-07
2.8732505e-08
2.8899049e-07
2.1290553e-08
2.8671286e-07
1.3966666e-08
2.8425904e-07
6.8978378e-09
2.8237562e-07
-5.3883154e-14
2.8137243e-07
-6.8979368e-09
2.8137243e-07
-1.3966718e-08
2.823756e-07
-2.1290607e-08
2.8425898e-07
-2.8732546e-08
2.8671283e-07
-3.574123e-08
2.8899046e-07
-4.1077433e-08
2.8943437e-07
-4.2505774e-08
2.8452667e-07
-3.674214e-08
2.6690605e-07
-2.0791016e-08
2.2119579e-07
1.1528411e-07
1.2533657e-08
1.0275042e-07
2.5522287e-08
2.0820712e-07
3.2454686e-08
2.5997361e-07
3.3642704e-08
2.8333859e-07
3.0889498e-08
2.9218754e-07
2.587613e-08
2.9400383e-07
1.9769846e-08
2.9281912e-07
1.3247199e-08
2.9078162e-07
6.6253922e-09
2.889974e-07
-2.1980181e-14
2.8799782e-07
-6.6254222e-09
2.879978e-07
-1.3247226e-08
2.8899735e-07
-1.9769842e-08
2.9078155e-07
-2.5876121e-08
2.9281907e-07
-3.0889503e-08
2.9400378e-07
-3.3642669e-08
2.9218751e-07
-3.245467e-08
2.8333855e-07
-2.5522264e-08
2.5997359e-07
-1.2533643e-08
2.0820712e-07
1.027504e-07
7.3215093e-09
9.5428825e-08
1.689302e-08
1.9863551e-07
2.3346817e-08
2.535197e-07
2.5743019e-08
2.809423e-07
2.4789884e-08
2.9314059e-07
2.1546015e-08
2.9724761e-07
1.6923562e-08
2.9744149e-07
1.1561553e-08
2.9614355e-07
5.848931e-09
2.9470994e-07
1.5346006e-14
2.9384665e-07
-5.8489102e-09
2.9384661e-07
-1.1561543e-08
2.9470988e-07
-1.6923539e-08
2.9614349e-07
-2.1545985e-08
2.9744143e-07
-2.4789837e-08
2.9724755e-07
-2.5742982e-08
2.9314059e-07
-2.3346787e-08
2.8094229e-07
-1.6893e-08
2.5351971e-07
-7.3215172e-09
1.9863555e-07
9.5428837e-08
4.2569252e-09
9.1171775e-08
1.0889126e-08
1.920032e-07
1.6160196e-08
2.4824852e-07
1.8807523e-08
2.7829484e-07
1.8892306e-08
2.930557e-07
1.6970234e-08
2.9916956e-07
1.3665855e-08
3.0074579e-07
9.5008513e-09
3.0030845e-07
4.8564023e-09
2.9935427e-07
4.4470533e-14
2.9870291e-07
-4.8563066e-09
2.9870286e-07
-9.5007858e-09
2.9935422e-07
-1.3665789e-08
3.0030836e-07
-1.6970173e-08
3.0074569e-07
-1.8892238e-08
2.9916951e-07
-1.8807486e-08
2.9305569e-07
-1.6160163e-08
2.7829487e-07
-1.0889111e-08
2.4824856e-07
-4.256933e-09
1.9200327e-07
9.1171827e-08
2.4944467e-09
8.8677248e-08
6.9155594e-09
1.8758197e-07
1.0889016e-08
2.4427493e-07
1.3279684e-08
2.7590406e-07
1.3847514e-08
2.9248776e-07
1.2811091e-08
3.0020588e-07
1.0550931e-08
3.0300584e-07
7.4523551e-09
3.0340692e-07
3.8451466e-09
3.0296141e-07
6.8682306e-14
3.025479e-07
-3.8450356e-09
3.0254785e-07
-7.4522507e-09
3.0296135e-07
-1.0550843e-08
3.0340684e-07
-1.2810993e-08
3.0300578e-07
-1.3847421e-08
3.0020584e-07
-1.3279625e-08
2.9248778e-07
-1.0888981e-08
2.7590412e-07
-6.9155515e-09
2.44275e-07
-2.4944719e-09
1.8758209e-07
8.8677311e-08
1.4748489e-09
8.7202303e-08
4.3478894e-09
1.8470887e-07
7.1873357e-09
2.414354e-07
9.1268586e-09
2.739645e-07
9.8379788e-09
2.9177662e-07
9.3463092e-09
3.0069747e-07
7.8556004e-09
3.0449651e-07
5.6290322e-09
3.0563349e-07
2.9292076e-09
3.056612e-07
6.8998611e-14
3.0547696e-07
-2.929042e-09
3.054769e-07
-5.6288682e-09
3.0566113e-07
-7.8554701e-09
3.056334e-07
-9.3461942e-09
3.0449643e-07
-9.8378676e-09
3.0069745e-07
-9.1267834e-09
2.9177663e-07
-7.1873083e-09
2.7396459e-07
-4.3479024e-09
2.4143551e-07
-1.4748899e-09
1.8470902e-07
8.7202419e-08
8.7645346e-10
8.6325796e-08
2.7093941e-09
1.8287589e-07
4.6626188e-09
2.3948212e-07
6.1322939e-09
2.7249481e-07
6.8085601e-09
2.9110032e-07
6.6255294e-09
3.008805e-07
5.6730614e-09
3.0544894e-07
4.11899e-09
3.0718757e-07
2.1602024e-09
3.0761998e-07
7.8547403e-14
3.0763704e-07
-2.1600273e-09
3.0763701e-07
-4.118816e-09
3.0761991e-07
-5.6729187e-09
3.0718748e-07
-6.6253816e-09
3.0544887e-07
-6.8084563e-09
3.0088049e-07
-6.1322169e-09
2.9110037e-07
-4.6625695e-09
2.724949e-07
-2.7093841e-09
2.3948226e-07
-8.7647699e-10
1.8287609e-07
8.6325929e-08
5.2034358e-10
8.5805445e-08
1.6721876e-09
1.817241e-07
2.9775664e-09
2.3817673e-07
4.0389417e-09
2.7143345e-07
4.6054986e-09
2.9053381e-07
4.5810874e-09
3.0090495e-07
3.9900961e-09
3.0603999e-07
2.9324623e-09
3.0824522e-07
1.5490754e-09
3.0900342e-07
8.6994813e-14
3.0918609e-07
-1.5488994e-09
3.0918605e-07
-2.9323049e-09
3.0900334e-07
-3.9899379e-09
3.0824514e-07
-4.580949e-09
3.0603991e-07
-4.6053567e-09
3.0090493e-07
-4.0388451e-09
2.9053384e-07
-2.9775061e-09
2.7143357e-07
-1.6721529e-09
2.3817687e-07
-5.203476e-10
1.8172425e-07
8.5805574e-08
3.0637158e-10
8.5499098e-08
1.0199491e-09
1.8101054e-07
1.872335e-09
2.3732437e-07
2.6116343e-09
2.7069422e-07
3.0516203e-09
2.9009386e-07
3.0977302e-09
3.008589e-07
2.7412955e-09
3.0639645e-07
2.0376993e-09
3.0894888e-07
1.0837064e-09
3.0995745e-07
8.594251e-14
3.1026977e-07
-1.083558e-09
3.1026975e-07
-2.037554e-09
3.0995739e-07
-2.7411633e-09
3.0894881e-07
-3.0976007e-09
3.0639638e-07
-3.0515112e-09
3.0085887e-07
-2.6115349e-09
2.900939e-07
-1.872276e-09
2.7069431e-07
-1.0199115e-09
2.3732452e-07
-3.0635123e-10
1.810107e-07
8.5499208e-08
1.7736231e-10
8.5321797e-08
6.1274993e-10
1.8057522e-07
1.158295e-09
2.3677886e-07
1.6587403e-09
2.7019382e-07
1.9832909e-09
2.8976934e-07
2.0522254e-09
3.0079004e-07
1.8435744e-09
3.0660512e-07
1.3851744e-09
3.0940732e-07
7.4139943e-10
3.1060125e-07
5.7116103e-14
3.1101118e-07
-7.412869e-10
3.1101118e-07
-1.3850594e-09
3.1060123e-07
-1.843453e-09
3.094073e-07
-2.0521112e-09
3.0660508e-07
-1.9831877e-09
3.0079001e-07
-1.6586522e-09
2.897694e-07
-1.1582324e-09
2.7019392e-07
-6.1270866e-10
2.3677901e-07
-1.7733958e-10
1.8057537e-07
8.5321862e-08
9.9864791e-11
8.5221961e-08
3.6080359e-10
1.8031433e-07
7.0349361e-10
2.3643621e-07
1.0343082e-09
2.6986308e-07
1.2648478e-09
2.8953886e-07
1.3333632e-09
3.0072158e-07
1.2153101e-09
3.0672322e-07
9.226089e-10
3.0970008e-07
4.9688093e-10
3.1102705e-07
4.2123102e-14
3.1150809e-07
-4.9680718e-10
3.1150809e-07
-9.2255409e-10
3.1102701e-07
-1.2152316e-09
3.0970002e-07
-1.3332839e-09
3.0672317e-07
-1.2647625e-09
3.0072154e-07
-1.0342326e-09
2.895389e-07
-7.0342806e-10
2.6986317e-07
-3.6076074e-10
2.3643634e-07
-9.9835467e-11
1.8031446e-07
8.5222002e-08
5.379889e-11
8.5168181e-08
2.0669385e-10
1.8016145e-07
4.1791941e-10
2.36225e-07
6.3208298e-10
2.6964891e-07
7.9114963e-10
2.8937983e-07
8.497667e-10
3.0066295e-07
7.8582085e-10
3.0678721e-07
6.0268768e-10
3.0988321e-07
3.2656563e-10
3.1130322e-07
3.9028451e-14
3.1183468e-07
-3.2650523e-10
3.1183465e-07
-6.026301e-10
3.1130317e-07
-7.8577161e-10
3.0988314e-07
-8.497201e-10
3.0678716e-07
-7.9108502e-10
3.0066294e-07
-6.3204738e-10
2.8937986e-07
-4.1785471e-10
2.6964901e-07
-2.0665748e-10
2.3622513e-07
-5.3787343e-11
1.8016156e-07
8.5168209e-08
2.6905808e-11
8.5141253e-08
1.1381167e-10
1.8007457e-07
2.4130449e-10
2.3609751e-07
3.7733025e-10
2.6951286e-07
4.8449334e-10
2.8927265e-07
5.308434e-10
3.0061662e-07
4.982613e-10
3.0681978e-07
3.8618895e-10
3.0999532e-07
2.1052966e-10
3.1147887e-07
1.2773601e-14
3.1204523e-07
-2.1052332e-10
3.1204522e-07
-3.86167e-10
3.114788e-07
-4.9825511e-10
3.0999528e-07
-5.3081582e-10
3.0681971e-07
-4.8446115e-10
3.0061657e-07
-3.7729023e-10
2.8927266e-07
-2.4125657e-10
2.6951297e-07
-1.1379223e-10
2.3609765e-07
-2.6906271e-11
1.8007468e-07
8.5141293e-08
1.1645299e-11
8.5129582e-08
5.8917523e-11
1.8002724e-07
1.3396161e-10
2.3602242e-07
2.1871996e-10
2.694281e-07
2.8950879e-10
2.8920181e-07
3.2437082e-10
3.005817e-07
3.0948043e-10
3.0683463e-07
2.4254074e-10
3.1006225e-07
1.3308914e-10
3.1158829e-07
-2.0392792e-14
3.1217831e-07
-1.3311605e-10
3.121783e-07
-2.4256637e-10
3.1158828e-07
-3.0951192e-10
3.1006219e-07
-3.2440252e-10
3.0683458e-07
-2.8949932e-10
3.0058168e-07
-2.1867922e-10
2.8920183e-07
-1.3394621e-10
2.6942818e-07
-5.8904208e-11
2.3602254e-07
-1.1641147e-11
1.8002737e-07
8.5129621e-08
3.3367126e-12
8.5126181e-08
2.7317807e-11
1.8000321e-07
7.0108878e-11
2.3597959e-07
1.2182749e-10
2.6937632e-07
1.6778365e-10
2.8915581e-07
1.9317831e-10
3.0055626e-07
1.878196e-10
3.0683995e-07
1.490454e-10
3.1010098e-07
8.2378832e-11
3.1165497e-07
-2.4486433e-14
3.1226068e-07
-8.2419498e-11
3.1226066e-07
-1.4911086e-10
3.1165491e-07
-1.8787005e-10
3.1010093e-07
-1.9322249e-10
3.0683991e-07
-1.6781178e-10
3.0055625e-07
-1.2184135e-10
2.8915581e-07
-7.0092571e-11
2.693764e-07
-2.7325268e-11
2.3597973e-07
-3.3516737e-12
1.8000331e-07
8.5126255e-08
-9.899851e-13
8.512713e-08
9.8306331e-12
1.7999233e-07
3.3172709e-11
2.3595618e-07
6.4017367e-11
2.693454e-07
9.3369433e-11
2.8912637e-07
1.1140086e-10
3.0053812e-07
1.1089839e-10
3.068404e-07
8.9319668e-11
3.1012249e-07
4.9779503e-11
3.1169446e-07
-4.4965234e-14
3.1231044e-07
-4.9855156e-11
3.1231041e-07
-8.9399265e-11
3.1169443e-07
-1.1096814e-10
3.1012244e-07
-1.1148288e-10
3.0684038e-07
-9.3409737e-11
3.0053813e-07
-6.4050617e-11
2.8912641e-07
-3.3184454e-11
2.693455e-07
-9.8377111e-12
2.359563e-07
9.5739622e-13
1.7999245e-07
8.5127191e-08
-2.8324918e-12
8.5129874e-08
7.1782921e-13
1.7998873e-07
1.2674399e-11
2.3594415e-07
3.0556225e-11
2.6932747e-07
4.8992187e-11
2.8910789e-07
6.1596702e-11
3.0052549e-07
6.3271238e-11
3.0683869e-07
5.1940982e-11
3.1013376e-07
2.9237436e-11
3.1171714e-07
-5.2073413e-14
3.1233966e-07
-2.9345512e-11
3.1233964e-07
-5.2052004e-11
3.1171707e-07
-6.3372257e-11
3.1013372e-07
-6.1685577e-11
3.0683865e-07
-4.9069968e-11
3.0052547e-07
-3.0618119e-11
2.8910791e-07
-1.2699255e-11
2.6932754e-07
-7.1913179e-13
2.3594427e-07
2.8037476e-12
1.7998885e-07
8.5129958e-08
-3.2641077e-12
8.5133067e-08
-3.4432779e-12
1.7998889e-07
2.0470776e-12
2.3593859e-07
1.2048122e-11
2.6931739e-07
2.3431583e-11
2.8909645e-07
3.2083404e-11
3.0051679e-07
3.4501238e-11
3.0683621e-07
2.9082633e-11
3.1013915e-07
1.657882e-11
3.1172957e-07
-9.2693199e-14
3.1235625e-07
-1.6714865e-11
3.1235624e-07
-2.9229302e-11
3.1172953e-07
-3.4656931e-11
3.1013909e-07
-3.2209977e-11
3.0683616e-07
-2.3547642e-11
3.0051674e-07
-1.2143294e-11
2.8909646e-07
-2.1215481e-12
2.6931745e-07
3.4172122e-12
2.3593871e-07
3.2330862e-12
1.7998899e-07
8.5133161e-08
-2.989678e-12
8.5136003e-08
-4.732521e-12
1.7999058e-07
-2.8049979e-12
2.359366e-07
2.6189012e-12
2.6931196e-07
9.4920375e-12
2.8908952e-07
1.5324658e-11
3.0051094e-07
1.7722448e-11
3.0683377e-07
1.550406e-11
3.1014134e-07
8.9985965e-12
3.1173606e-07
-1.036954e-13
3.123653e-07
-9.1785804e-12
3.1236527e-07
-1.5699433e-11
3.1173599e-07
-1.7899716e-11
3.1014126e-07
-1.547757e-11
3.0683368e-07
-9.6234115e-12
3.0051085e-07
-2.7309354e-12
2.8908948e-07
2.6974333e-12
2.6931195e-07
4.7064045e-12
2.3593665e-07
2.9561326e-12
1.7999065e-07
8.5136098e-08
-2.3639352e-12
8.513834e-08
-4.3636458e-12
1.7999257e-07
-4.1381246e-12
2.3593632e-07
-1.423694e-12
2.6930922e-07
2.6303193e-12
2.8908545e-07
6.451199e-12
3.0050709e-07
8.4465184e-12
3.0683169e-07
7.8235655e-12
3.1014193e-07
4.6284821e-12
3.1173923e-07
-1.3165414e-13
3.1237003e-07
-4.8724224e-12
3.1236999e-07
-8.0462306e-12
3.1173918e-07
-8.669691e-12
3.1014184e-07
-6.6293534e-12
3.068316e-07
-2.7760215e-12
3.0050698e-07
1.2949551e-12
2.8908533e-07
4.0420197e-12
2.6930916e-07
4.308127e-12
2.359363e-07
2.3321605e-12
1.7999259e-07
8.5138379e-08
-1.5369562e-12
8.5139834e-08
-3.0584206e-12
1.7999406e-07
-3.4090068e-12
2.3593664e-07
-2.2301814e-12
2.6930798e-07
3.6360327e-14
2.8908313e-07
2.3737809e-12
3.0050473e-07
3.816645e-12
3.0683021e-07
3.798099e-12
3.1014193e-07
2.3000858e-12
3.1174071e-07
-1.5431149e-13
3.123724e-07
-2.5721984e-12
3.123724e-07
-4.0706973e-12
3.1174066e-07
-4.0716253e-12
3.1014183e-07
-2.595326e-12
3.0683009e-07
-2.3273956e-13
3.0050457e-07
2.0841248e-12
2.8908301e-07
3.2973878e-12
2.6930787e-07
3.0115432e-12
2.3593658e-07
1.5161676e-12
1.7999406e-07
8.5139886e-08
-4.8703723e-13
8.5140318e-08
-1.0547717e-12
1.799946e-07
-1.3787064e-12
2.3593691e-07
-1.001565e-12
2.693076e-07
2.0929795e-14
2.8908211e-07
1.1941443e-12
3.0050352e-07
2.0114129e-12
3.068294e-07
2.0005331e-12
3.101419e-07
1.1859836e-12
3.1174152e-07
-1.7015425e-13
3.1237376e-07
-1.5011057e-12
3.1237373e-07
-2.3232769e-12
3.1174144e-07
-2.2965267e-12
3.1014178e-07
-1.4793413e-12
3.0682924e-07
-2.494524e-13
3.0050332e-07
8.103367e-13
2.8908193e-07
1.2576131e-12
2.6930744e-07
1.0002939e-12
2.3593679e-07
4.7291242e-13
1.7999454e-07
8.5140331e-08
1.0979011e-12
8.5139201e-08
1.8064491e-12
1.7999387e-07
1.7246326e-12
2.35937e-07
1.5123729e-12
2.6930778e-07
1.565377e-12
2.8908203e-07
1.7631018e-12
3.0050329e-07
1.8539582e-12
3.0682932e-07
1.5507863e-12
3.1014218e-07
8.2753182e-13
3.1174224e-07
-1.8932374e-13
3.1237476e-07
-1.1855105e-12
3.1237471e-07
-1.9178796e-12
3.1174217e-07
-2.1889879e-12
3.1014204e-07
-2.0736927e-12
3.0682911e-07
-1.8359115e-12
3.0050304e-07
-1.7235523e-12
2.890818e-07
-1.84795e-12
2.6930755e-07
-1.8781441e-12
2.359368e-07
-1.1276569e-12
1.7999375e-07
8.5139204e-08
3.5258815e-12
8.5135637e-08
5.3547101e-12
1.7999206e-07
5.3084639e-12
2.3593702e-07
4.5846227e-12
2.693085e-07
3.8469019e-12
2.8908277e-07
3.1984521e-12
3.005039e-07
2.5713295e-12
3.0682993e-07
1.824944e-12
3.1014292e-07
8.7153737e-13
3.1174317e-07
-2.0720051e-13
3.1237581e-07
-1.2730236e-12
3.123758e-07
-2.21006e-12
3.117431e-07
-2.9638427e-12
3.101428e-07
-3.5320668e-12
3.0682971e-07
-4.129592e-12
3.0050363e-07
-4.7925138e-12
2.8908247e-07
-5.4616774e-12
2.6930819e-07
-5.4197714e-12
2.3593676e-07
-3.5638653e-12
1.7999187e-07
8.5135638e-08
4.6935784e-12
7.1062955e-12
7.3351833e-12
6.5567265e-12
5.4927612e-12
4.4219239e-12
3.334548e-12
2.2142074e-12
1.0211592e-12
-2.1963724e-13
-1.4685345e-12
-2.6456524e-12
-3.7633174e-12
-4.7775805e-12
-5.7943516e-12
-6.7765372e-12
-7.4888081e-12
-7.187823e-12
-4.7305283e-12
)
;

boundaryField
{
    Wall
    {
        type            calculated;
        value           uniform 0;
    }
    frontAndBack
    {
        type            empty;
        value           nonuniform 0();
    }
    atmosphere
    {
        type            calculated;
        value           nonuniform List<scalar> 
20
(
8.5130899e-08
1.7998965e-07
2.359368e-07
2.6930927e-07
2.8908383e-07
3.0050498e-07
3.0683099e-07
3.1014405e-07
3.1174435e-07
3.1237709e-07
3.1237706e-07
3.1174428e-07
3.1014392e-07
3.0683073e-07
3.0050466e-07
2.8908347e-07
2.693089e-07
2.3593649e-07
1.799894e-07
8.5130873e-08
)
;
    }
}


// ************************************************************************* //
