/*--------------------------------*- C++ -*----------------------------------*\
| =========                 |                                                 |
| \\      /  F ield         | OpenFOAM: The Open Source CFD Toolbox           |
|  \\    /   O peration     | Version:  3.0.1                                 |
|   \\  /    A nd           | Web:      www.OpenFOAM.org                      |
|    \\/     M anipulation  |                                                 |
\*---------------------------------------------------------------------------*/
FoamFile
{
    version     2.0;
    format      ascii;
    class       volScalarField;
    location    "21";
    object      Psi2;
}
// * * * * * * * * * * * * * * * * * * * * * * * * * * * * * * * * * * * * * //

dimensions      [0 -2 2 0 0 0 0];

internalField   nonuniform List<scalar> 
800
(
0.0012936522
0.0012935996
0.0012935974
0.0012935996
0.0012936015
0.0012936029
0.001293604
0.0012936047
0.0012936051
0.0012936054
0.0012936053
0.0012936051
0.0012936047
0.001293604
0.0012936029
0.0012936015
0.0012935996
0.0012935974
0.0012935996
0.0012936522
0.0013465908
0.0013446289
0.0013443642
0.0013443442
0.0013443524
0.0013443507
0.0013443412
0.0013443298
0.0013443207
0.0013443158
0.0013443157
0.0013443207
0.0013443298
0.0013443412
0.0013443507
0.0013443524
0.0013443442
0.0013443642
0.0013446289
0.0013465908
0.0013993966
0.0013965749
0.0013956902
0.0013956172
0.0013956144
0.0013956029
0.0013955809
0.0013955575
0.0013955392
0.0013955294
0.0013955293
0.0013955392
0.0013955575
0.0013955809
0.0013956029
0.0013956144
0.0013956171
0.0013956902
0.0013965749
0.0013993966
0.0014539185
0.001449972
0.0014485622
0.0014484792
0.0014484774
0.0014484634
0.0014484331
0.0014484002
0.0014483745
0.0014483605
0.0014483605
0.0014483745
0.0014484002
0.0014484331
0.0014484634
0.0014484774
0.0014484792
0.0014485621
0.001449972
0.0014539185
0.0015204941
0.0015147733
0.001512905
0.0015121396
0.0015121484
0.0015121369
0.0015120999
0.0015120578
0.0015120244
0.0015120063
0.0015120063
0.0015120245
0.0015120578
0.0015120999
0.0015121369
0.0015121484
0.0015121396
0.0015129049
0.0015147733
0.0015204941
0.0016187013
0.0016083505
0.0016059551
0.0016045404
0.0016045546
0.0016045358
0.0016044825
0.0016044244
0.0016043786
0.0016043537
0.0016043537
0.0016043786
0.0016044244
0.0016044825
0.0016045357
0.0016045546
0.0016045403
0.0016059551
0.0016083505
0.0016187013
0.0017808955
0.0017607183
0.001757778
0.0017558445
0.0017557955
0.0017557169
0.0017556098
0.0017555107
0.0017554369
0.0017553982
0.0017553982
0.0017554369
0.0017555108
0.0017556098
0.0017557169
0.0017557955
0.0017558445
0.001757778
0.0017607183
0.0017808956
0.0020591536
0.0020243901
0.0020175235
0.0020148074
0.0020144697
0.0020141775
0.002013917
0.0020137138
0.0020135754
0.0020135065
0.0020135065
0.0020135755
0.0020137139
0.0020139171
0.0020141775
0.0020144698
0.0020148074
0.0020175235
0.0020243901
0.0020591537
0.0024953388
0.0024417459
0.0024297807
0.0024255504
0.0024244691
0.0024236819
0.0024231046
0.0024226988
0.0024224432
0.0024223205
0.0024223206
0.0024224433
0.0024226989
0.0024231048
0.0024236821
0.0024244693
0.0024255505
0.0024297808
0.002441746
0.0024953391
0.0031680657
0.0030813121
0.0030563336
0.0030493888
0.0030469646
0.0030453757
0.0030443363
0.0030436492
0.0030432413
0.0030430501
0.0030430502
0.0030432415
0.0030436494
0.0030443366
0.003045376
0.0030469649
0.0030493891
0.0030563338
0.0030813124
0.0031680662
0.0042893865
0.0041340217
0.0040780224
0.0040658206
0.0040614093
0.004058957
0.004057549
0.00405668
0.0040561994
0.0040559838
0.0040559838
0.0040561996
0.0040566804
0.0040575494
0.0040589574
0.0040614096
0.004065821
0.0040780228
0.004134022
0.0042893871
0.0057530716
0.0055320914
0.0054429104
0.0054190826
0.0054128049
0.0054109026
0.005410426
0.0054103014
0.0054103245
0.0054103792
0.0054103794
0.0054103248
0.0054103019
0.0054104265
0.005410903
0.0054128052
0.005419083
0.0054429107
0.0055320915
0.0057530719
0.0075289377
0.0071012198
0.0069377308
0.0068911866
0.0068848199
0.0068885383
0.0068934627
0.0068972025
0.0068996125
0.0069008629
0.0069008631
0.0068996129
0.0068972032
0.0068934633
0.0068885387
0.0068848202
0.0068911869
0.0069377309
0.0071012197
0.0075289374
0.0093088575
0.0085703294
0.008303864
0.0082233911
0.0082154763
0.008229196
0.008245164
0.0082574685
0.0082653776
0.0082693551
0.0082693554
0.0082653782
0.0082574693
0.0082451647
0.0082291965
0.0082154766
0.0082233913
0.0083038641
0.0085703292
0.0093088569
0.010431697
0.0096960896
0.0093776548
0.0092656271
0.0092475469
0.0092637656
0.0092867189
0.0093059234
0.0093187946
0.0093253334
0.0093253337
0.0093187953
0.0093059243
0.0092867197
0.0092637661
0.0092475472
0.0092656273
0.0093776549
0.0096960895
0.010431697
0.010844295
0.010386521
0.01010825
0.0099905426
0.0099620889
0.0099722931
0.0099933693
0.01001282
0.010026485
0.010033561
0.010033561
0.010026486
0.010012821
0.0099933701
0.0099722936
0.0099620892
0.0099905427
0.01010825
0.010386521
0.010844295
0.010943277
0.010733591
0.010542486
0.010444519
0.010413406
0.010416084
0.01043057
0.010445554
0.010456594
0.010462425
0.010462426
0.010456595
0.010445555
0.010430571
0.010416085
0.010413406
0.010444519
0.010542486
0.010733591
0.010943277
0.010961162
0.010881762
0.010772205
0.010703898
0.010677317
0.010675321
0.01068335
0.010692931
0.010700348
0.010704343
0.010704344
0.010700348
0.010692931
0.010683351
0.010675321
0.010677317
0.010703898
0.010772205
0.010881762
0.010961162
0.010963853
0.010937294
0.010882547
0.010840943
0.010821831
0.010818308
0.010821988
0.010827332
0.010831699
0.0108341
0.010834101
0.0108317
0.010827333
0.010821989
0.010818308
0.010821831
0.010840943
0.010882547
0.010937294
0.010963853
0.010964211
0.010956072
0.01093148
0.010908695
0.010896597
0.010893376
0.010894732
0.010897407
0.010899734
0.010901041
0.010901041
0.010899734
0.010897407
0.010894732
0.010893376
0.010896597
0.010908695
0.01093148
0.010956072
0.010964211
0.010964255
0.010961922
0.010951774
0.010940324
0.010933391
0.010931083
0.01093142
0.01093264
0.010933784
0.010934441
0.010934441
0.010933784
0.01093264
0.01093142
0.010931083
0.010933391
0.010940324
0.010951774
0.010961922
0.010964255
0.01096426
0.010963627
0.010959719
0.010954366
0.0109507
0.010949269
0.010949251
0.010949762
0.010950287
0.010950597
0.010950597
0.010950287
0.010949762
0.010949251
0.010949269
0.0109507
0.010954366
0.010959719
0.010963627
0.01096426
0.010964261
0.010964097
0.010962676
0.010960323
0.010958512
0.010957711
0.010957618
0.010957813
0.01095804
0.010958178
0.010958178
0.01095804
0.010957814
0.010957618
0.010957711
0.010958512
0.010960323
0.010962676
0.010964097
0.010964261
0.010964261
0.01096422
0.010963729
0.010962749
0.010961905
0.010961491
0.010961411
0.010961479
0.010961572
0.01096163
0.01096163
0.010961572
0.010961479
0.010961411
0.010961491
0.010961905
0.010962749
0.010963729
0.01096422
0.010964261
0.010964261
0.010964251
0.010964089
0.010963699
0.010963326
0.010963125
0.010963075
0.010963095
0.010963131
0.010963155
0.010963155
0.010963131
0.010963095
0.010963075
0.010963125
0.010963326
0.010963699
0.010964089
0.010964251
0.010964261
0.010964261
0.010964259
0.010964207
0.010964059
0.010963901
0.010963809
0.010963782
0.010963787
0.0109638
0.010963809
0.010963809
0.0109638
0.010963787
0.010963782
0.010963809
0.010963901
0.010964059
0.010964207
0.010964259
0.010964261
0.010964261
0.01096426
0.010964245
0.01096419
0.010964126
0.010964086
0.010964073
0.010964073
0.010964078
0.010964081
0.010964081
0.010964078
0.010964073
0.010964073
0.010964086
0.010964126
0.01096419
0.010964245
0.01096426
0.010964261
0.010964261
0.010964261
0.010964256
0.010964237
0.010964212
0.010964195
0.010964189
0.010964189
0.01096419
0.010964191
0.010964191
0.01096419
0.010964189
0.010964189
0.010964195
0.010964212
0.010964237
0.010964256
0.010964261
0.010964261
0.010964261
0.010964261
0.01096426
0.010964253
0.010964244
0.010964237
0.010964234
0.010964234
0.010964234
0.010964235
0.010964235
0.010964234
0.010964234
0.010964234
0.010964237
0.010964244
0.010964253
0.01096426
0.010964261
0.010964261
0.010964261
0.010964261
0.010964261
0.010964258
0.010964255
0.010964252
0.010964251
0.010964251
0.010964251
0.010964251
0.010964251
0.010964251
0.010964251
0.010964251
0.010964252
0.010964255
0.010964258
0.010964261
0.010964261
0.010964261
0.010964261
0.010964261
0.010964261
0.01096426
0.010964259
0.010964258
0.010964258
0.010964257
0.010964257
0.010964258
0.010964258
0.010964257
0.010964257
0.010964258
0.010964258
0.010964259
0.01096426
0.010964261
0.010964261
0.010964261
0.010964261
0.010964261
0.010964261
0.010964261
0.01096426
0.01096426
0.01096426
0.01096426
0.01096426
0.01096426
0.01096426
0.01096426
0.01096426
0.01096426
0.01096426
0.01096426
0.010964261
0.010964261
0.010964261
0.010964261
0.010964261
0.010964261
0.010964261
0.010964261
0.010964261
0.010964261
0.010964261
0.010964261
0.010964261
0.010964261
0.010964261
0.010964261
0.010964261
0.010964261
0.010964261
0.010964261
0.010964261
0.010964261
0.010964261
0.010964261
0.010964261
0.010964261
0.010964261
0.010964261
0.010964261
0.010964261
0.010964261
0.010964261
0.010964261
0.010964261
0.010964261
0.010964261
0.010964261
0.010964261
0.010964261
0.010964261
0.010964261
0.010964261
0.010964261
0.010964261
0.010964261
0.010964261
0.010964261
0.010964261
0.010964261
0.010964261
0.010964261
0.010964261
0.010964261
0.010964261
0.010964261
0.010964261
0.010964261
0.010964261
0.010964261
0.010964261
0.010964261
0.010964261
0.010964261
0.010964261
0.010964261
0.010964261
0.010964261
0.010964261
0.010964261
0.010964261
0.010964261
0.010964261
0.010964261
0.010964261
0.010964261
0.010964261
0.010964261
0.010964261
0.010964261
0.010964261
0.010964261
0.010964261
0.010964261
0.010964261
0.010964261
0.010964261
0.010964261
0.010964261
0.010964261
0.010964261
0.010964261
0.010964261
0.010964261
0.010964261
0.010964261
0.010964261
0.010964261
0.010964261
0.010964261
0.010964261
0.010964261
0.010964261
0.010964261
0.010964261
0.010964261
0.010964261
0.010964261
0.010964261
0.010964261
0.010964261
0.010964261
0.010964261
0.010964261
0.010964261
0.010964261
0.010964261
0.010964261
0.010964261
0.010964261
0.010964261
0.010964261
0.010964261
0.010964261
0.010964261
0.010964261
0.010964261
0.010964261
0.010964261
0.010964261
0.010964261
0.010964261
0.010964261
0.010964261
0.010964261
0.010964261
0.010964261
0.010964261
0.010964261
0.010964261
0.010964261
0.010964261
0.010964261
0.010964261
0.010964261
0.010964261
0.010964261
0.010964261
0.010964261
0.010964261
0.010964261
0.010964261
0.010964261
0.010964261
0.010964261
0.010964261
0.010964261
0.010964261
0.010964261
0.010964261
0.010964261
0.010964261
0.010964261
0.010964261
0.010964261
)
;

boundaryField
{
    Wall
    {
        type            calculated;
        value           nonuniform List<scalar> 
100
(
9.9999997e-21
9.9999997e-21
9.9999997e-21
9.9999997e-21
9.9999997e-21
9.9999997e-21
9.9999997e-21
9.9999997e-21
9.9999997e-21
9.9999998e-21
9.9999999e-21
1e-20
1e-20
1e-20
1e-20
1e-20
1e-20
1e-20
1e-20
1e-20
1e-20
1e-20
1e-20
1e-20
1e-20
1e-20
1e-20
1e-20
1e-20
1e-20
1e-20
1e-20
1e-20
1e-20
1e-20
1e-20
1e-20
1e-20
1e-20
1e-20
9.9999997e-21
9.9999997e-21
9.9999997e-21
9.9999997e-21
9.9999997e-21
9.9999997e-21
9.9999997e-21
9.9999997e-21
9.9999997e-21
9.9999998e-21
9.9999999e-21
1e-20
1e-20
1e-20
1e-20
1e-20
1e-20
1e-20
1e-20
1e-20
1e-20
1e-20
1e-20
1e-20
1e-20
1e-20
1e-20
1e-20
1e-20
1e-20
1e-20
1e-20
1e-20
1e-20
1e-20
1e-20
1e-20
1e-20
1e-20
1e-20
9.9999997e-21
9.9999997e-21
9.9999997e-21
9.9999997e-21
9.9999997e-21
9.9999997e-21
9.9999997e-21
9.9999997e-21
9.9999997e-21
9.9999997e-21
9.9999997e-21
9.9999997e-21
9.9999997e-21
9.9999997e-21
9.9999997e-21
9.9999997e-21
9.9999997e-21
9.9999997e-21
9.9999997e-21
9.9999997e-21
)
;
    }
    frontAndBack
    {
        type            empty;
    }
    atmosphere
    {
        type            calculated;
        value           uniform 1e-20;
    }
}


// ************************************************************************* //
