/*--------------------------------*- C++ -*----------------------------------*\
| =========                 |                                                 |
| \\      /  F ield         | OpenFOAM: The Open Source CFD Toolbox           |
|  \\    /   O peration     | Version:  3.0.1                                 |
|   \\  /    A nd           | Web:      www.OpenFOAM.org                      |
|    \\/     M anipulation  |                                                 |
\*---------------------------------------------------------------------------*/
FoamFile
{
    version     2.0;
    format      ascii;
    class       volScalarField;
    location    "21";
    object      rho;
}
// * * * * * * * * * * * * * * * * * * * * * * * * * * * * * * * * * * * * * //

dimensions      [1 -3 0 0 0 0 0];

internalField   nonuniform List<scalar> 
800
(
129.36522
129.35997
129.35975
129.35996
129.36015
129.3603
129.3604
129.36047
129.36052
129.36054
129.36054
129.36052
129.36047
129.3604
129.3603
129.36015
129.35996
129.35974
129.35997
129.36522
134.65909
134.4629
134.43642
134.43443
134.43525
134.43508
134.43412
134.43298
134.43207
134.43158
134.43158
134.43207
134.43298
134.43412
134.43507
134.43525
134.43442
134.43642
134.4629
134.65909
139.93918
139.65705
139.56858
139.56127
139.561
139.55985
139.55765
139.5553
139.55348
139.55249
139.55249
139.55348
139.5553
139.55765
139.55985
139.561
139.56127
139.56858
139.65705
139.93918
145.38953
144.99505
144.85409
144.84579
144.84561
144.84421
144.84118
144.83789
144.83531
144.83392
144.83392
144.83531
144.83789
144.84118
144.84421
144.8456
144.84579
144.85409
144.99505
145.38953
152.04258
151.47105
151.2843
151.20776
151.20862
151.20747
151.20376
151.19955
151.19622
151.1944
151.1944
151.19622
151.19955
151.20376
151.20747
151.20862
151.20775
151.28429
151.47105
152.04258
161.85351
160.81999
160.58065
160.43918
160.44059
160.43869
160.43336
160.42755
160.42297
160.42048
160.42048
160.42297
160.42755
160.43336
160.43869
160.44059
160.43918
160.58065
160.81998
161.85351
178.04946
176.03644
175.74303
175.54976
175.54486
175.53699
175.52627
175.51637
175.50899
175.50512
175.50512
175.50899
175.51637
175.52628
175.53699
175.54486
175.54976
175.74303
176.03644
178.04947
205.79416
202.33735
201.65392
201.383
201.3494
201.32025
201.29424
201.27393
201.26009
201.2532
201.2532
201.26009
201.27393
201.29424
201.32025
201.34941
201.383
201.65392
202.33736
205.79417
248.87502
243.67003
242.50406
242.08883
241.98345
241.90577
241.8484
241.80784
241.78224
241.76991
241.76992
241.78225
241.80785
241.84842
241.90578
241.98346
242.08885
242.50407
243.67004
248.87505
304.78325
300.22523
298.55314
298.0874
297.92904
297.79978
297.70366
297.63337
297.58937
297.56764
297.56765
297.58939
297.63341
297.7037
297.79982
297.9291
298.08746
298.5532
300.2253
304.78337
218.71913
244.54706
249.77264
251.57141
252.24126
252.39248
252.35721
252.25431
252.16602
252.11115
252.11118
252.16609
252.25443
252.35741
252.39276
252.24161
251.57182
249.7731
244.54758
218.7197
35.387897
48.439477
52.012581
53.065852
53.469411
53.592623
53.604313
53.570683
53.536125
53.512675
53.512686
53.536155
53.570739
53.604407
53.592759
53.469584
53.066057
52.012803
48.439712
35.388091
2.0189845
2.7322135
2.9851253
3.0449932
3.0640867
3.068503
3.0674201
3.0642798
3.0615228
3.0597446
3.0597452
3.0615245
3.0642832
3.0674257
3.0685112
3.0640972
3.0450056
2.9851385
2.7322264
2.0189922
1.2016541
1.2057169
1.2077231
1.2080703
1.2080815
1.2080254
1.2079605
1.2079042
1.2078653
1.2078436
1.2078436
1.2078653
1.2079042
1.2079605
1.2080255
1.2080816
1.2080704
1.2077231
1.205717
1.2016541
1.2000006
1.2000019
1.2000031
1.2000033
1.2000032
1.2000031
1.2000031
1.200003
1.200003
1.200003
1.200003
1.200003
1.200003
1.2000031
1.2000031
1.2000032
1.2000033
1.2000031
1.2000019
1.2000006
1.2000002
1.2000006
1.2000008
1.2000009
1.2000009
1.2000009
1.2000009
1.2000009
1.2000009
1.2000009
1.2000009
1.2000009
1.2000009
1.2000009
1.2000009
1.2000009
1.2000009
1.2000008
1.2000006
1.2000002
1.2000001
1.2000004
1.2000006
1.2000007
1.2000007
1.2000007
1.2000008
1.2000008
1.2000007
1.2000007
1.2000007
1.2000007
1.2000008
1.2000008
1.2000007
1.2000007
1.2000007
1.2000006
1.2000004
1.2000001
1.2
1.2000002
1.2000004
1.2000005
1.2000006
1.2000006
1.2000006
1.2000006
1.2000006
1.2000006
1.2000006
1.2000006
1.2000006
1.2000006
1.2000006
1.2000006
1.2000005
1.2000004
1.2000002
1.2
1.2
1.2000001
1.2000003
1.2000004
1.2000005
1.2000005
1.2000005
1.2000005
1.2000005
1.2000005
1.2000005
1.2000005
1.2000005
1.2000005
1.2000005
1.2000005
1.2000004
1.2000003
1.2000001
1.2
1.2
1.2
1.2000002
1.2000003
1.2000003
1.2000003
1.2000003
1.2000003
1.2000003
1.2000003
1.2000003
1.2000003
1.2000003
1.2000003
1.2000003
1.2000003
1.2000003
1.2000002
1.2
1.2
1.2
1.2
1.2000001
1.2000002
1.2000002
1.2000002
1.2000002
1.2000002
1.2000002
1.2000002
1.2000002
1.2000002
1.2000002
1.2000002
1.2000002
1.2000002
1.2000002
1.2000001
1.2
1.2
1.2
1.2
1.2
1.2000001
1.2000001
1.2000001
1.2000001
1.2000001
1.2000001
1.2000001
1.2000001
1.2000001
1.2000001
1.2000001
1.2000001
1.2000001
1.2000001
1.2
1.2
1.2
1.2
1.2
1.2
1.2
1.2000001
1.2000001
1.2000001
1.2000001
1.2000001
1.2000001
1.2000001
1.2000001
1.2000001
1.2000001
1.2000001
1.2000001
1.2
1.2
1.2
1.2
1.2
1.2
1.2
1.2
1.2
1.2
1.2
1.2
1.2
1.2
1.2
1.2
1.2
1.2
1.2
1.2
1.2
1.2
1.2
1.2
1.2
1.2
1.2
1.2
1.2
1.2
1.2
1.2
1.2
1.2
1.2
1.2
1.2
1.2
1.2
1.2
1.2
1.2
1.2
1.2
1.2
1.2
1.2
1.2
1.2
1.2
1.2
1.2
1.2
1.2
1.2
1.2
1.2
1.2
1.2
1.2
1.2
1.2
1.2
1.2
1.2
1.2
1.2
1.2
1.2
1.2
1.2
1.2
1.2
1.2
1.2
1.2
1.2
1.2
1.2
1.2
1.2
1.2
1.2
1.2
1.2
1.2
1.2
1.2
1.2
1.2
1.2
1.2
1.2
1.2
1.2
1.2
1.2
1.2
1.2
1.2
1.2
1.2
1.2
1.2
1.2
1.2
1.2
1.2
1.2
1.2
1.2
1.2
1.2
1.2
1.2
1.2
1.2
1.2
1.2
1.2
1.2
1.2
1.2
1.2
1.2
1.2
1.2
1.2
1.2
1.2
1.2
1.2
1.2
1.2
1.2
1.2
1.2
1.2
1.2
1.2
1.2
1.2
1.2
1.2
1.2
1.2
1.2
1.2
1.2
1.2
1.2
1.2
1.2
1.2
1.2
1.2
1.2
1.2
1.2
1.2
1.2
1.2
1.2
1.2
1.2
1.2
1.2
1.2
1.2
1.2
1.2
1.2
1.2
1.2
1.2
1.2
1.2
1.2
1.2
1.2
1.2
1.2
1.2
1.2
1.2
1.2
1.2
1.2
1.2
1.2
1.2
1.2
1.2
1.2
1.2
1.2
1.2
1.2
1.2
1.2
1.2
1.2
1.2
1.2
1.2
1.2
1.2
1.2
1.2
1.2
1.2
1.2
1.2
1.2
1.2
1.2
1.2
1.2
1.2
1.2
1.2
1.2
1.2
1.2
1.2
1.2
1.2
1.2
1.2
1.2
1.2
1.2
1.2
1.2
1.2
1.2
1.2
1.2
1.2
1.2
1.2
1.2
1.2
1.2
1.2
1.2
1.2
1.2
1.2
1.2
1.2
1.2
1.2
1.2
1.2
1.2
1.2
1.2
1.2
1.2
1.2
1.2
1.2
1.2
1.2
1.2
1.2
1.2
1.2
1.2
1.2
1.2
1.2
1.2
1.2
1.2
1.2
1.2
1.2
1.2
1.2
1.2
1.2
1.2
1.2
1.2
1.2
1.2
1.2
1.2
1.2
1.2
1.2
1.2
1.2
1.2
1.2
1.2
1.2
1.2
1.2
1.2
1.2
1.2
1.2
1.2
1.2
1.2
1.2
1.2
1.2
1.2
1.2
1.2
1.2
1.2
1.2
1.2
1.2
1.2
1.2
1.2
1.2
1.2
1.2
1.2
1.2
1.2
1.2
1.2
1.2
1.2
1.2
1.2
1.2
1.2
1.2
1.2
1.2
1.2
1.2
1.2
1.2
1.2
)
;

boundaryField
{
    Wall
    {
        type            calculated;
        value           nonuniform List<scalar> 
100
(
1e-15
3.5892222e-12
4.168468e-06
1.9347448e-05
5.437397e-05
0.00012413968
0.00027200427
0.00071050828
0.0031837908
0.045715109
0.58976066
1.1285404
1.1986926
1.1999979
1.2
1.2
1.2
1.2
1.2
1.2
1.2
1.2
1.2
1.2
1.2
1.2
1.2
1.2
1.2
1.2
1.2
1.2
1.2
1.2
1.2
1.2
1.2
1.2
1.2
1.2
1e-15
1.6639322e-14
4.1684657e-06
1.9347441e-05
5.4373934e-05
0.00012413955
0.00027200382
0.00071050651
0.0031837782
0.045714834
0.58975915
1.12854
1.1986926
1.1999979
1.2
1.2
1.2
1.2
1.2
1.2
1.2
1.2
1.2
1.2
1.2
1.2
1.2
1.2
1.2
1.2
1.2
1.2
1.2
1.2
1.2
1.2
1.2
1.2
1.2
1.2
1e-15
1e-15
1.0000005e-15
1.000001e-15
1e-15
1.0000013e-15
1.0000011e-15
1.0000001e-15
1e-15
1e-15
1e-15
1e-15
1e-15
1.0000001e-15
1.0000001e-15
1e-15
1e-15
1e-15
1e-15
1e-15
)
;
    }
    frontAndBack
    {
        type            empty;
    }
    atmosphere
    {
        type            calculated;
        value           nonuniform List<scalar> 
20
(
1.2
1.2
1.2
1.2
1.2
1.2
1.2
1.2
1.2
1.2
1.2
1.2
1.2
1.2
1.2
1.2
1.2
1.2
1.2
1.2
)
;
    }
}


// ************************************************************************* //
