/*--------------------------------*- C++ -*----------------------------------*\
| =========                 |                                                 |
| \\      /  F ield         | OpenFOAM: The Open Source CFD Toolbox           |
|  \\    /   O peration     | Version:  3.0.1                                 |
|   \\  /    A nd           | Web:      www.OpenFOAM.org                      |
|    \\/     M anipulation  |                                                 |
\*---------------------------------------------------------------------------*/
FoamFile
{
    version     2.0;
    format      ascii;
    class       volScalarField;
    location    "21";
    object      rho_foam;
}
// * * * * * * * * * * * * * * * * * * * * * * * * * * * * * * * * * * * * * //

dimensions      [1 -3 0 0 0 0 0];

internalField   nonuniform List<scalar> 
800
(
129.36522
129.35997
129.35975
129.35996
129.36015
129.3603
129.3604
129.36047
129.36052
129.36054
129.36054
129.36052
129.36047
129.3604
129.3603
129.36015
129.35996
129.35974
129.35997
129.36522
134.65909
134.4629
134.43642
134.43443
134.43525
134.43508
134.43412
134.43298
134.43207
134.43158
134.43158
134.43207
134.43298
134.43412
134.43507
134.43525
134.43442
134.43642
134.4629
134.65909
139.93966
139.6575
139.56903
139.56172
139.56144
139.5603
139.5581
139.55575
139.55392
139.55294
139.55294
139.55392
139.55575
139.5581
139.5603
139.56144
139.56172
139.56902
139.6575
139.93966
145.39185
144.99721
144.85622
144.84793
144.84774
144.84635
144.84332
144.84002
144.83745
144.83606
144.83606
144.83745
144.84002
144.84332
144.84634
144.84774
144.84792
144.85622
144.9972
145.39186
152.04942
151.47734
151.2905
151.21397
151.21484
151.2137
151.20999
151.20578
151.20245
151.20063
151.20063
151.20245
151.20578
151.20999
151.2137
151.21484
151.21396
151.2905
151.47733
152.04942
161.87013
160.83506
160.59552
160.45404
160.45547
160.45358
160.44825
160.44244
160.43786
160.43538
160.43538
160.43786
160.44245
160.44825
160.45358
160.45546
160.45404
160.59551
160.83505
161.87014
178.08956
176.07183
175.7778
175.58445
175.57956
175.5717
175.56098
175.55108
175.54369
175.53982
175.53982
175.54369
175.55108
175.56098
175.5717
175.57956
175.58445
175.7778
176.07183
178.08956
205.91537
202.43901
201.75235
201.48075
201.44698
201.41775
201.39171
201.37139
201.35755
201.35065
201.35065
201.35755
201.37139
201.39171
201.41776
201.44698
201.48075
201.75235
202.43902
205.91538
249.53389
244.1746
242.97807
242.55504
242.44692
242.3682
242.31047
242.26988
242.24433
242.23206
242.23206
242.24434
242.2699
242.31048
242.36821
242.44693
242.55505
242.97808
244.17461
249.53392
316.80658
308.13122
305.63336
304.93889
304.69647
304.53757
304.43364
304.36492
304.32414
304.30502
304.30502
304.32415
304.36495
304.43366
304.5376
304.6965
304.93891
305.63339
308.13124
316.80663
428.93865
413.40217
407.80225
406.58206
406.14093
405.8957
405.7549
405.668
405.61994
405.59838
405.59839
405.61997
405.66804
405.75494
405.89574
406.14097
406.5821
407.80228
413.40221
428.93872
575.30716
553.20915
544.29105
541.90826
541.28049
541.09026
541.0426
541.03014
541.03246
541.03792
541.03794
541.03249
541.03019
541.04265
541.0903
541.28052
541.9083
544.29107
553.20916
575.30719
752.89377
710.12198
693.77308
689.11866
688.48199
688.85383
689.34627
689.72026
689.96125
690.08629
690.08631
689.96129
689.72032
689.34633
688.85387
688.48202
689.11869
693.77309
710.12197
752.89374
930.88575
857.03294
830.3864
822.33911
821.54763
822.9196
824.5164
825.74685
826.53776
826.93551
826.93554
826.53782
825.74693
824.51647
822.91965
821.54766
822.33913
830.38641
857.03293
930.88569
1043.1697
969.60896
937.76548
926.56271
924.75469
926.37656
928.67189
930.59234
931.87946
932.53334
932.53337
931.87953
930.59244
928.67197
926.37661
924.75472
926.56273
937.76549
969.60895
1043.1697
1084.4295
1038.6521
1010.825
999.05426
996.20889
997.22931
999.33693
1001.282
1002.6485
1003.3561
1003.3561
1002.6486
1001.2821
999.33701
997.22936
996.20892
999.05427
1010.825
1038.6521
1084.4295
1094.3277
1073.3591
1054.2486
1044.4519
1041.3406
1041.6084
1043.057
1044.5554
1045.6594
1046.2425
1046.2426
1045.6595
1044.5555
1043.0571
1041.6085
1041.3406
1044.4519
1054.2486
1073.3591
1094.3277
1096.1162
1088.1762
1077.2205
1070.3898
1067.7317
1067.5321
1068.335
1069.2931
1070.0348
1070.4344
1070.4344
1070.0348
1069.2931
1068.3351
1067.5321
1067.7317
1070.3898
1077.2205
1088.1762
1096.1162
1096.3853
1093.7294
1088.2547
1084.0943
1082.1831
1081.8308
1082.1988
1082.7332
1083.1699
1083.41
1083.4101
1083.17
1082.7333
1082.1989
1081.8308
1082.1831
1084.0943
1088.2547
1093.7294
1096.3853
1096.4211
1095.6072
1093.148
1090.8695
1089.6597
1089.3376
1089.4732
1089.7407
1089.9734
1090.1041
1090.1041
1089.9734
1089.7408
1089.4732
1089.3376
1089.6597
1090.8695
1093.148
1095.6072
1096.4211
1096.4255
1096.1922
1095.1774
1094.0325
1093.3391
1093.1083
1093.142
1093.264
1093.3784
1093.4441
1093.4441
1093.3784
1093.264
1093.142
1093.1083
1093.3391
1094.0324
1095.1774
1096.1922
1096.4255
1096.426
1096.3627
1095.9719
1095.4366
1095.07
1094.9269
1094.9251
1094.9762
1095.0287
1095.0597
1095.0597
1095.0287
1094.9762
1094.9251
1094.9269
1095.07
1095.4366
1095.9719
1096.3627
1096.426
1096.4261
1096.4097
1096.2676
1096.0323
1095.8512
1095.7711
1095.7618
1095.7813
1095.804
1095.8178
1095.8178
1095.804
1095.7814
1095.7618
1095.7711
1095.8512
1096.0323
1096.2676
1096.4097
1096.4261
1096.4261
1096.422
1096.3729
1096.2749
1096.1905
1096.1491
1096.1411
1096.1479
1096.1572
1096.163
1096.163
1096.1572
1096.1479
1096.1411
1096.1491
1096.1905
1096.2749
1096.3729
1096.422
1096.4261
1096.4261
1096.4251
1096.4089
1096.3699
1096.3326
1096.3125
1096.3075
1096.3095
1096.3131
1096.3155
1096.3155
1096.3131
1096.3096
1096.3075
1096.3125
1096.3326
1096.3699
1096.4089
1096.4251
1096.4261
1096.4261
1096.4259
1096.4207
1096.4059
1096.3901
1096.3809
1096.3782
1096.3787
1096.38
1096.3809
1096.3809
1096.38
1096.3787
1096.3782
1096.3809
1096.3901
1096.4059
1096.4207
1096.4259
1096.4261
1096.4261
1096.426
1096.4245
1096.419
1096.4126
1096.4086
1096.4073
1096.4073
1096.4078
1096.4081
1096.4081
1096.4078
1096.4073
1096.4073
1096.4086
1096.4126
1096.419
1096.4245
1096.426
1096.4261
1096.4261
1096.4261
1096.4256
1096.4237
1096.4212
1096.4195
1096.4189
1096.4189
1096.419
1096.4191
1096.4191
1096.419
1096.4189
1096.4189
1096.4195
1096.4212
1096.4237
1096.4256
1096.4261
1096.4261
1096.4261
1096.4261
1096.426
1096.4253
1096.4244
1096.4237
1096.4234
1096.4234
1096.4234
1096.4235
1096.4235
1096.4234
1096.4234
1096.4234
1096.4237
1096.4244
1096.4253
1096.426
1096.4261
1096.4261
1096.4261
1096.4261
1096.4261
1096.4258
1096.4255
1096.4252
1096.4251
1096.4251
1096.4251
1096.4251
1096.4251
1096.4251
1096.4251
1096.4251
1096.4252
1096.4255
1096.4258
1096.4261
1096.4261
1096.4261
1096.4261
1096.4261
1096.4261
1096.426
1096.4259
1096.4258
1096.4258
1096.4257
1096.4258
1096.4258
1096.4258
1096.4258
1096.4257
1096.4258
1096.4258
1096.4259
1096.426
1096.4261
1096.4261
1096.4261
1096.4261
1096.4261
1096.4261
1096.4261
1096.426
1096.426
1096.426
1096.426
1096.426
1096.426
1096.426
1096.426
1096.426
1096.426
1096.426
1096.426
1096.4261
1096.4261
1096.4261
1096.4261
1096.4261
1096.4261
1096.4261
1096.4261
1096.4261
1096.4261
1096.4261
1096.4261
1096.4261
1096.4261
1096.4261
1096.4261
1096.4261
1096.4261
1096.4261
1096.4261
1096.4261
1096.4261
1096.4261
1096.4261
1096.4261
1096.4261
1096.4261
1096.4261
1096.4261
1096.4261
1096.4261
1096.4261
1096.4261
1096.4261
1096.4261
1096.4261
1096.4261
1096.4261
1096.4261
1096.4261
1096.4261
1096.4261
1096.4261
1096.4261
1096.4261
1096.4261
1096.4261
1096.4261
1096.4261
1096.4261
1096.4261
1096.4261
1096.4261
1096.4261
1096.4261
1096.4261
1096.4261
1096.4261
1096.4261
1096.4261
1096.4261
1096.4261
1096.4261
1096.4261
1096.4261
1096.4261
1096.4261
1096.4261
1096.4261
1096.4261
1096.4261
1096.4261
1096.4261
1096.4261
1096.4261
1096.4261
1096.4261
1096.4261
1096.4261
1096.4261
1096.4261
1096.4261
1096.4261
1096.4261
1096.4261
1096.4261
1096.4261
1096.4261
1096.4261
1096.4261
1096.4261
1096.4261
1096.4261
1096.4261
1096.4261
1096.4261
1096.4261
1096.4261
1096.4261
1096.4261
1096.4261
1096.4261
1096.4261
1096.4261
1096.4261
1096.4261
1096.4261
1096.4261
1096.4261
1096.4261
1096.4261
1096.4261
1096.4261
1096.4261
1096.4261
1096.4261
1096.4261
1096.4261
1096.4261
1096.4261
1096.4261
1096.4261
1096.4261
1096.4261
1096.4261
1096.4261
1096.4261
1096.4261
1096.4261
1096.4261
1096.4261
1096.4261
1096.4261
1096.4261
1096.4261
1096.4261
1096.4261
1096.4261
1096.4261
1096.4261
1096.4261
1096.4261
1096.4261
1096.4261
1096.4261
1096.4261
1096.4261
1096.4261
1096.4261
1096.4261
1096.4261
1096.4261
1096.4261
1096.4261
1096.4261
1096.4261
1096.4261
1096.4261
1096.4261
1096.4261
1096.4261
1096.4261
1096.4261
1096.4261
)
;

boundaryField
{
    Wall
    {
        type            zeroGradient;
    }
    frontAndBack
    {
        type            empty;
    }
    atmosphere
    {
        type            zeroGradient;
    }
}


// ************************************************************************* //
