/*--------------------------------*- C++ -*----------------------------------*\
| =========                 |                                                 |
| \\      /  F ield         | OpenFOAM: The Open Source CFD Toolbox           |
|  \\    /   O peration     | Version:  3.0.1                                 |
|   \\  /    A nd           | Web:      www.OpenFOAM.org                      |
|    \\/     M anipulation  |                                                 |
\*---------------------------------------------------------------------------*/
FoamFile
{
    version     2.0;
    format      ascii;
    class       volScalarField;
    location    "21";
    object      thermalConductivity;
}
// * * * * * * * * * * * * * * * * * * * * * * * * * * * * * * * * * * * * * //

dimensions      [0 2 -1 0 0 0 0];

internalField   nonuniform List<scalar> 
800
(
0.024064187
0.024063626
0.024063604
0.024063627
0.024063648
0.024063664
0.024063675
0.024063683
0.024063688
0.02406369
0.02406369
0.024063688
0.024063683
0.024063675
0.024063664
0.024063648
0.024063627
0.024063604
0.024063626
0.024064187
0.02463928
0.024617934
0.024615065
0.024614848
0.024614935
0.024614913
0.024614807
0.024614681
0.024614581
0.024614527
0.024614527
0.024614581
0.024614681
0.024614807
0.024614913
0.024614935
0.024614848
0.024615065
0.024617934
0.02463928
0.025219084
0.025188127
0.02517839
0.025177589
0.025177555
0.025177423
0.025177178
0.025176917
0.025176715
0.025176606
0.025176606
0.025176715
0.025176917
0.025177178
0.025177423
0.025177555
0.025177589
0.02517839
0.025188127
0.025219085
0.025826028
0.025782189
0.025766524
0.02576561
0.025765584
0.025765422
0.025765081
0.025764712
0.025764425
0.02576427
0.025764269
0.025764425
0.025764712
0.025765081
0.025765422
0.025765584
0.02576561
0.025766523
0.025782189
0.025826028
0.026579626
0.026515062
0.026494065
0.026485353
0.026485441
0.026485302
0.026484878
0.0264844
0.026484023
0.026483818
0.026483818
0.026484023
0.0264844
0.026484877
0.026485302
0.026485441
0.026485352
0.026494064
0.026515062
0.026579627
0.02771227
0.027592898
0.027565504
0.027549213
0.027549348
0.027549108
0.027548483
0.02754781
0.027547281
0.027546995
0.027546995
0.027547281
0.02754781
0.027548483
0.027549108
0.027549348
0.027549212
0.027565503
0.027592898
0.02771227
0.029627844
0.02938876
0.029354062
0.029331257
0.029330595
0.02932961
0.029328316
0.029327134
0.029326257
0.0293258
0.0293258
0.029326258
0.029327134
0.029328316
0.02932961
0.029330595
0.029331256
0.029354061
0.02938876
0.029627845
0.033024213
0.032596614
0.03251254
0.03247907
0.032474713
0.032470994
0.032467732
0.03246521
0.032463501
0.032462653
0.032462653
0.032463502
0.032465211
0.032467733
0.032470995
0.032474713
0.032479071
0.03251254
0.032596614
0.033024215
0.038590197
0.03789094
0.037734921
0.037679664
0.037665251
0.037654842
0.037647277
0.037641989
0.037638674
0.037637087
0.037637087
0.037638676
0.037641991
0.037647279
0.037654844
0.037665252
0.037679666
0.037734922
0.037890942
0.038590201
0.04789146
0.046650733
0.04629194
0.046193408
0.046158807
0.046136303
0.046121686
0.046112066
0.046106377
0.046103715
0.046103716
0.046106379
0.046112069
0.04612169
0.046136307
0.046158811
0.046193411
0.046291944
0.046650736
0.047891467
0.065105976
0.062777912
0.061857719
0.061662161
0.061591943
0.061553432
0.061531566
0.061518166
0.061510809
0.061507528
0.061507529
0.061510813
0.061518173
0.061531573
0.061553439
0.061591949
0.061662167
0.061857724
0.062777916
0.065105986
0.024
0.024
0.024
0.024
0.024
0.024
0.024
0.024
0.024
0.024
0.024
0.024
0.024
0.024
0.024
0.024
0.024
0.024
0.024
0.024
0.024
0.024
0.024
0.024
0.024
0.024
0.024
0.024
0.024
0.024
0.024
0.024
0.024
0.024
0.024
0.024
0.024
0.024
0.024
0.024
0.024
0.024
0.024
0.024
0.024
0.024
0.024
0.024
0.024
0.024
0.024
0.024
0.024
0.024
0.024
0.024
0.024
0.024
0.024
0.024
0.024
0.024
0.024
0.024
0.024
0.024
0.024
0.024
0.024
0.024
0.024
0.024
0.024
0.024
0.024
0.024
0.024
0.024
0.024
0.024
0.024
0.024
0.024
0.024
0.024
0.024
0.024
0.024
0.024
0.024
0.024
0.024
0.024
0.024
0.024
0.024
0.024
0.024
0.024
0.024
0.024
0.024
0.024
0.024
0.024
0.024
0.024
0.024
0.024
0.024
0.024
0.024
0.024
0.024
0.024
0.024
0.024
0.024
0.024
0.024
0.024
0.024
0.024
0.024
0.024
0.024
0.024
0.024
0.024
0.024
0.024
0.024
0.024
0.024
0.024
0.024
0.024
0.024
0.024
0.024
0.024
0.024
0.024
0.024
0.024
0.024
0.024
0.024
0.024
0.024
0.024
0.024
0.024
0.024
0.024
0.024
0.024
0.024
0.024
0.024
0.024
0.024
0.024
0.024
0.024
0.024
0.024
0.024
0.024
0.024
0.024
0.024
0.024
0.024
0.024
0.024
0.024
0.024
0.024
0.024
0.024
0.024
0.024
0.024
0.024
0.024
0.024
0.024
0.024
0.024
0.024
0.024
0.024
0.024
0.024
0.024
0.024
0.024
0.024
0.024
0.024
0.024
0.024
0.024
0.024
0.024
0.024
0.024
0.024
0.024
0.024
0.024
0.024
0.024
0.024
0.024
0.024
0.024
0.024
0.024
0.024
0.024
0.024
0.024
0.024
0.024
0.024
0.024
0.024
0.024
0.024
0.024
0.024
0.024
0.024
0.024
0.024
0.024
0.024
0.024
0.024
0.024
0.024
0.024
0.024
0.024
0.024
0.024
0.024
0.024
0.024
0.024
0.024
0.024
0.024
0.024
0.024
0.024
0.024
0.024
0.024
0.024
0.024
0.024
0.024
0.024
0.024
0.024
0.024
0.024
0.024
0.024
0.024
0.024
0.024
0.024
0.024
0.024
0.024
0.024
0.024
0.024
0.024
0.024
0.024
0.024
0.024
0.024
0.024
0.024
0.024
0.024
0.024
0.024
0.024
0.024
0.024
0.024
0.024
0.024
0.024
0.024
0.024
0.024
0.024
0.024
0.024
0.024
0.024
0.024
0.024
0.024
0.024
0.024
0.024
0.024
0.024
0.024
0.024
0.024
0.024
0.024
0.024
0.024
0.024
0.024
0.024
0.024
0.024
0.024
0.024
0.024
0.024
0.024
0.024
0.024
0.024
0.024
0.024
0.024
0.024
0.024
0.024
0.024
0.024
0.024
0.024
0.024
0.024
0.024
0.024
0.024
0.024
0.024
0.024
0.024
0.024
0.024
0.024
0.024
0.024
0.024
0.024
0.024
0.024
0.024
0.024
0.024
0.024
0.024
0.024
0.024
0.024
0.024
0.024
0.024
0.024
0.024
0.024
0.024
0.024
0.024
0.024
0.024
0.024
0.024
0.024
0.024
0.024
0.024
0.024
0.024
0.024
0.024
0.024
0.024
0.024
0.024
0.024
0.024
0.024
0.024
0.024
0.024
0.024
0.024
0.024
0.024
0.024
0.024
0.024
0.024
0.024
0.024
0.024
0.024
0.024
0.024
0.024
0.024
0.024
0.024
0.024
0.024
0.024
0.024
0.024
0.024
0.024
0.024
0.024
0.024
0.024
0.024
0.024
0.024
0.024
0.024
0.024
0.024
0.024
0.024
0.024
0.024
0.024
0.024
0.024
0.024
0.024
0.024
0.024
0.024
0.024
0.024
0.024
0.024
0.024
0.024
0.024
0.024
0.024
0.024
0.024
0.024
0.024
0.024
0.024
0.024
0.024
0.024
0.024
0.024
0.024
0.024
0.024
0.024
0.024
0.024
0.024
0.024
0.024
0.024
0.024
0.024
0.024
0.024
0.024
0.024
0.024
0.024
0.024
0.024
0.024
0.024
0.024
0.024
0.024
0.024
0.024
0.024
0.024
0.024
0.024
0.024
0.024
0.024
0.024
0.024
0.024
0.024
0.024
0.024
0.024
0.024
0.024
0.024
0.024
0.024
0.024
0.024
0.024
0.024
0.024
0.024
0.024
0.024
0.024
0.024
0.024
0.024
0.024
0.024
0.024
0.024
0.024
0.024
0.024
0.024
0.024
0.024
0.024
0.024
0.024
0.024
0.024
0.024
0.024
0.024
0.024
0.024
0.024
0.024
0.024
0.024
0.024
0.024
0.024
0.024
0.024
0.024
0.024
0.024
0.024
0.024
0.024
0.024
0.024
0.024
0.024
0.024
0.024
0.024
0.024
0.024
0.024
0.024
0.024
0.024
0.024
0.024
)
;

boundaryField
{
    Wall
    {
        type            calculated;
        value           uniform 0.024;
    }
    frontAndBack
    {
        type            empty;
    }
    atmosphere
    {
        type            calculated;
        value           uniform 0.024;
    }
}


// ************************************************************************* //
