/*--------------------------------*- C++ -*----------------------------------*\
| =========                 |                                                 |
| \\      /  F ield         | OpenFOAM: The Open Source CFD Toolbox           |
|  \\    /   O peration     | Version:  3.0.1                                 |
|   \\  /    A nd           | Web:      www.OpenFOAM.org                      |
|    \\/     M anipulation  |                                                 |
\*---------------------------------------------------------------------------*/
FoamFile
{
    version     2.0;
    format      ascii;
    class       volScalarField;
    location    "21";
    object      thermalDiff_gas;
}
// * * * * * * * * * * * * * * * * * * * * * * * * * * * * * * * * * * * * * //

dimensions      [0 2 -1 0 0 0 0];

internalField   nonuniform List<scalar> 
800
(
0.0002788321
0.00027883789
0.00027883869
0.00027883878
0.00027883882
0.00027883886
0.0002788389
0.00027883893
0.00027883895
0.00027883896
0.00027883896
0.00027883895
0.00027883893
0.0002788389
0.00027883886
0.00027883882
0.00027883878
0.00027883869
0.00027883789
0.0002788321
0.00027496562
0.00027507493
0.00027509323
0.0002750949
0.00027509447
0.00027509445
0.00027509488
0.00027509545
0.00027509593
0.0002750962
0.0002750962
0.00027509593
0.00027509545
0.00027509488
0.00027509445
0.00027509447
0.0002750949
0.00027509323
0.00027507493
0.00027496562
0.00027189523
0.00027205794
0.00027209475
0.00027209952
0.00027209954
0.00027209967
0.00027210038
0.00027210129
0.00027210204
0.00027210246
0.00027210246
0.00027210204
0.00027210129
0.00027210038
0.00027209967
0.00027209954
0.00027209952
0.00027209476
0.00027205795
0.00027189523
0.00026963986
0.00026984555
0.00026989925
0.00026990647
0.00026990666
0.00026990654
0.00026990718
0.00026990808
0.00026990888
0.00026990934
0.00026990934
0.00026990888
0.00026990808
0.00026990718
0.00026990654
0.00026990666
0.00026990648
0.00026989925
0.00026984555
0.00026963986
0.00026804692
0.00026828264
0.00026835867
0.00026837037
0.00026837098
0.00026837043
0.00026837076
0.00026837139
0.00026837208
0.00026837246
0.00026837246
0.00026837208
0.00026837139
0.00026837076
0.00026837043
0.00026837098
0.00026837038
0.00026835868
0.00026828264
0.00026804693
0.00026673741
0.00026701776
0.00026712928
0.00026714932
0.00026715187
0.00026715147
0.00026715173
0.00026715216
0.00026715275
0.00026715305
0.00026715305
0.00026715275
0.00026715216
0.00026715173
0.00026715147
0.00026715187
0.00026714933
0.00026712929
0.00026701777
0.00026673742
0.00026503101
0.00026541829
0.00026555477
0.00026559014
0.0002655984
0.00026560023
0.00026560161
0.00026560255
0.00026560344
0.00026560383
0.00026560383
0.00026560344
0.00026560255
0.00026560161
0.00026560023
0.0002655984
0.00026559015
0.00026555478
0.0002654183
0.00026503102
0.00026176743
0.00026237966
0.00026255434
0.00026261822
0.00026263974
0.00026264833
0.00026265352
0.00026265659
0.00026265869
0.00026265958
0.00026265958
0.00026265869
0.00026265659
0.00026265352
0.00026264833
0.00026263975
0.00026261823
0.00026255435
0.00026237967
0.00026176745
0.00025537114
0.00025625147
0.00025652385
0.00025662969
0.00025667352
0.00025669523
0.00025670829
0.00025671613
0.00025672095
0.00025672308
0.00025672308
0.00025672096
0.00025671614
0.0002567083
0.00025669524
0.00025667353
0.0002566297
0.00025652386
0.00025625149
0.00025537115
0.00024743384
0.0002481343
0.00024846264
0.00024853276
0.00024856805
0.00024859276
0.00024861136
0.0002486248
0.0002486336
0.00024863792
0.00024863792
0.0002486336
0.00024862479
0.00024861136
0.00024859276
0.00024856805
0.00024853276
0.00024846264
0.00024813429
0.00024743383
0.00024447844
0.00024490874
0.00024513482
0.00024521557
0.00024525266
0.0002452775
0.00024529666
0.00024531108
0.00024532075
0.00024532559
0.00024532559
0.00024532074
0.00024531108
0.00024529665
0.00024527749
0.00024525266
0.00024521557
0.00024513481
0.00024490873
0.00024447844
0.00024276361
0.00024274459
0.00024279002
0.00024282839
0.00024285697
0.00024287973
0.00024289807
0.00024291206
0.0002429215
0.00024292625
0.00024292625
0.0002429215
0.00024291206
0.00024289807
0.00024287973
0.00024285696
0.00024282838
0.00024279002
0.00024274458
0.00024276361
0.00024122416
0.00024123526
0.00024126306
0.00024129282
0.00024131947
0.00024134213
0.00024136055
0.00024137452
0.00024138388
0.00024138857
0.00024138857
0.00024138388
0.00024137452
0.00024136055
0.00024134213
0.00024131947
0.00024129282
0.00024126305
0.00024123525
0.00024122416
0.00023981022
0.00023983983
0.00023987387
0.00023990633
0.0002399349
0.00023995885
0.00023997797
0.00023999223
0.00024000168
0.00024000638
0.00024000638
0.00024000168
0.00023999223
0.00023997797
0.00023995885
0.0002399349
0.00023990633
0.00023987387
0.00023983982
0.00023981022
0.00023851439
0.00023855686
0.00023860236
0.00023864254
0.0002386759
0.00023870262
0.00023872321
0.00023873816
0.00023874789
0.00023875268
0.00023875268
0.00023874789
0.00023873816
0.00023872321
0.00023870262
0.0002386759
0.00023864254
0.00023860236
0.00023855685
0.00023851439
0.00023733715
0.00023738667
0.00023744188
0.00023749039
0.00023752971
0.00023756027
0.00023758312
0.0002375993
0.00023760963
0.00023761465
0.00023761465
0.00023760963
0.0002375993
0.00023758312
0.00023756027
0.00023752971
0.00023749038
0.00023744188
0.00023738667
0.00023733715
0.00023627513
0.00023632708
0.00023638824
0.00023644332
0.0002364882
0.00023652282
0.00023654837
0.0002365662
0.00023657745
0.00023658287
0.00023658287
0.00023657745
0.0002365662
0.00023654837
0.00023652282
0.0002364882
0.00023644332
0.00023638824
0.00023632708
0.00023627513
0.00023532121
0.00023537258
0.0002354361
0.00023549518
0.00023554422
0.00023558237
0.00023561056
0.00023563017
0.00023564249
0.00023564842
0.00023564842
0.00023564249
0.00023563017
0.00023561056
0.00023558237
0.00023554422
0.00023549518
0.0002354361
0.00023537258
0.00023532121
0.00023446628
0.00023451542
0.00023457858
0.00023463919
0.00023469065
0.00023473131
0.00023476164
0.00023478286
0.00023479623
0.00023480266
0.00023480266
0.00023479623
0.00023478286
0.00023476164
0.00023473131
0.00023469065
0.00023463919
0.00023457858
0.00023451542
0.00023446628
0.0002337008
0.00023374689
0.00023380793
0.00023386807
0.00023392028
0.00023396226
0.000233994
0.00023401642
0.00023403063
0.0002340375
0.0002340375
0.00023403063
0.00023401642
0.000233994
0.00023396226
0.00023392028
0.00023386807
0.00023380793
0.0002337469
0.0002337008
0.00023301562
0.00023305835
0.00023311619
0.00023317443
0.000233226
0.00023326817
0.0002333005
0.0002333236
0.00023333835
0.00023334551
0.00023334551
0.00023333835
0.0002333236
0.0002333005
0.00023326817
0.000233226
0.00023317443
0.00023311619
0.00023305835
0.00023301562
0.00023240232
0.00023244162
0.00023249571
0.00023255111
0.00023260099
0.0002326424
0.00023267457
0.0002326978
0.00023271275
0.00023272005
0.00023272005
0.00023271275
0.0002326978
0.00023267457
0.0002326424
0.00023260099
0.00023255111
0.00023249571
0.00023244163
0.00023240232
0.00023185336
0.00023188933
0.00023193942
0.00023199142
0.00023203888
0.00023207878
0.00023211015
0.00023213303
0.00023214786
0.00023215514
0.00023215514
0.00023214786
0.00023213303
0.00023211015
0.00023207878
0.00023203888
0.00023199142
0.00023193943
0.00023188934
0.00023185336
0.00023136209
0.00023139487
0.00023144092
0.00023148923
0.0002315338
0.00023157168
0.00023160176
0.00023162388
0.00023163832
0.00023164543
0.00023164543
0.00023163832
0.00023162388
0.00023160176
0.00023157168
0.0002315338
0.00023148923
0.00023144093
0.00023139487
0.00023136209
0.00023092261
0.00023095237
0.00023099447
0.00023103899
0.00023108042
0.00023111594
0.00023114438
0.00023116545
0.00023117927
0.00023118611
0.00023118611
0.00023117927
0.00023116545
0.00023114438
0.00023111595
0.00023108042
0.00023103899
0.00023099448
0.00023095237
0.00023092261
0.00023052973
0.00023055667
0.00023059498
0.00023063573
0.00023067392
0.0002307069
0.00023073347
0.00023075328
0.00023076634
0.00023077281
0.00023077281
0.00023076634
0.00023075328
0.00023073347
0.0002307069
0.00023067392
0.00023063573
0.00023059498
0.00023055667
0.00023052973
0.00023017889
0.0002302032
0.00023023791
0.00023027501
0.00023030996
0.00023034031
0.00023036491
0.00023038333
0.00023039552
0.00023040158
0.00023040158
0.00023039552
0.00023038333
0.00023036491
0.00023034032
0.00023030996
0.00023027501
0.00023023791
0.0002302032
0.00023017889
0.00022986607
0.00022988793
0.00022991925
0.00022995286
0.00022998466
0.0002300124
0.00023003497
0.00023005195
0.00023006322
0.00023006883
0.00023006883
0.00023006322
0.00023005195
0.00023003498
0.0002300124
0.00022998466
0.00022995286
0.00022991925
0.00022988794
0.00022986607
0.00022958773
0.00022960733
0.00022963548
0.00022966578
0.00022969454
0.00022971974
0.00022974031
0.00022975583
0.00022976616
0.00022977132
0.00022977132
0.00022976616
0.00022975583
0.00022974031
0.00022971974
0.00022969455
0.00022966578
0.00022963548
0.00022960733
0.00022958773
0.00022934077
0.00022935828
0.00022938347
0.00022941067
0.00022943656
0.0002294593
0.00022947793
0.00022949202
0.00022950142
0.00022950611
0.00022950611
0.00022950142
0.00022949202
0.00022947793
0.0002294593
0.00022943656
0.00022941067
0.00022938347
0.00022935828
0.00022934077
0.00022912251
0.00022913808
0.00022916053
0.00022918481
0.00022920799
0.00022922841
0.00022924517
0.00022925788
0.00022926638
0.00022927062
0.00022927062
0.00022926638
0.00022925788
0.00022924517
0.00022922841
0.00022920799
0.00022918481
0.00022916053
0.00022913808
0.00022912251
0.00022893063
0.0002289444
0.0002289643
0.00022898587
0.00022900651
0.00022902474
0.00022903974
0.00022905113
0.00022905876
0.00022906258
0.00022906258
0.00022905876
0.00022905113
0.00022903974
0.00022902474
0.00022900651
0.00022898587
0.0002289643
0.0002289444
0.00022893063
0.00022876318
0.00022877528
0.00022879281
0.00022881186
0.00022883013
0.0002288463
0.00022885964
0.0002288698
0.00022887661
0.00022888002
0.00022888002
0.00022887661
0.0002288698
0.00022885964
0.0002288463
0.00022883013
0.00022881186
0.00022879281
0.00022877529
0.00022876318
0.00022861856
0.0002286291
0.00022864442
0.00022866112
0.0002286772
0.00022869146
0.00022870326
0.00022871227
0.00022871832
0.00022872135
0.00022872135
0.00022871832
0.00022871227
0.00022870326
0.00022869146
0.0002286772
0.00022866113
0.00022864443
0.00022862911
0.00022861856
0.0002284955
0.0002285046
0.00022851787
0.0002285324
0.00022854643
0.00022855894
0.00022856932
0.00022857727
0.00022858261
0.0002285853
0.0002285853
0.00022858261
0.00022857727
0.00022856932
0.00022855894
0.00022854643
0.0002285324
0.00022851787
0.0002285046
0.0002284955
0.0002283931
0.00022840085
0.00022841223
0.00022842476
0.00022843693
0.00022844784
0.00022845694
0.00022846393
0.00022846864
0.00022847102
0.00022847102
0.00022846864
0.00022846393
0.00022845694
0.00022844784
0.00022843693
0.00022842476
0.00022841223
0.00022840085
0.0002283931
0.00022831083
0.00022831733
0.00022832696
0.00022833769
0.0002283482
0.0002283577
0.00022836566
0.00022837181
0.00022837598
0.00022837808
0.00022837808
0.00022837598
0.00022837181
0.00022836566
0.0002283577
0.00022834821
0.00022833769
0.00022832696
0.00022831733
0.00022831083
0.0002282485
0.00022825386
0.00022826196
0.00022827112
0.00022828021
0.00022828851
0.00022829553
0.00022830098
0.00022830469
0.00022830657
0.00022830657
0.00022830469
0.00022830098
0.00022829553
0.00022828851
0.00022828021
0.00022827112
0.00022826196
0.00022825386
0.0002282485
0.00022820632
0.00022821072
0.00022821756
0.00022822547
0.00022823346
0.00022824084
0.00022824715
0.00022825209
0.00022825546
0.00022825717
0.00022825717
0.00022825546
0.00022825209
0.00022824715
0.00022824084
0.00022823346
0.00022822547
0.00022821756
0.00022821072
0.00022820632
0.00022818482
0.00022818857
0.00022819461
0.00022820177
0.0002282091
0.00022821596
0.00022822186
0.0002282265
0.00022822969
0.00022823131
0.00022823131
0.00022822969
0.0002282265
0.00022822186
0.00022821596
0.0002282091
0.00022820177
0.00022819461
0.00022818857
0.00022818482
)
;

boundaryField
{
    Wall
    {
        type            calculated;
        value           uniform 0.1;
    }
    frontAndBack
    {
        type            empty;
    }
    atmosphere
    {
        type            calculated;
        value           uniform 0.1;
    }
}


// ************************************************************************* //
