/*--------------------------------*- C++ -*----------------------------------*\
| =========                 |                                                 |
| \\      /  F ield         | OpenFOAM: The Open Source CFD Toolbox           |
|  \\    /   O peration     | Version:  3.0.1                                 |
|   \\  /    A nd           | Web:      www.OpenFOAM.org                      |
|    \\/     M anipulation  |                                                 |
\*---------------------------------------------------------------------------*/
FoamFile
{
    version     2.0;
    format      ascii;
    class       volScalarField;
    location    "21";
    object      thermalDiff_foam;
}
// * * * * * * * * * * * * * * * * * * * * * * * * * * * * * * * * * * * * * //

dimensions      [0 2 -1 0 0 0 0];

internalField   nonuniform List<scalar> 
800
(
1.0294052e-07
1.0294226e-07
1.0294233e-07
1.0294226e-07
1.0294219e-07
1.0294214e-07
1.0294211e-07
1.0294208e-07
1.0294207e-07
1.0294206e-07
1.0294206e-07
1.0294207e-07
1.0294208e-07
1.0294211e-07
1.0294214e-07
1.0294219e-07
1.0294226e-07
1.0294233e-07
1.0294226e-07
1.0294052e-07
1.0123951e-07
1.0129963e-07
1.0130773e-07
1.0130834e-07
1.013081e-07
1.0130816e-07
1.0130846e-07
1.0130881e-07
1.0130909e-07
1.0130925e-07
1.0130925e-07
1.0130909e-07
1.0130881e-07
1.0130846e-07
1.0130816e-07
1.013081e-07
1.0130834e-07
1.0130773e-07
1.0129963e-07
1.0123951e-07
9.9687945e-08
9.9766988e-08
9.9791933e-08
9.9793987e-08
9.9794076e-08
9.9794413e-08
9.9795043e-08
9.9795711e-08
9.979623e-08
9.9796509e-08
9.9796509e-08
9.979623e-08
9.9795711e-08
9.9795043e-08
9.9794414e-08
9.9794076e-08
9.9793988e-08
9.9791934e-08
9.9766989e-08
9.9687944e-08
9.8217535e-08
9.8318899e-08
9.8355296e-08
9.8357421e-08
9.8357482e-08
9.8357859e-08
9.8358653e-08
9.8359511e-08
9.836018e-08
9.8360541e-08
9.8360541e-08
9.836018e-08
9.8359511e-08
9.8358654e-08
9.8357859e-08
9.8357483e-08
9.8357422e-08
9.8355297e-08
9.83189e-08
9.8217534e-08
9.6582114e-08
9.6714698e-08
9.6758105e-08
9.6776158e-08
9.6775974e-08
9.6776264e-08
9.6777144e-08
9.6778135e-08
9.6778916e-08
9.6779342e-08
9.6779342e-08
9.6778916e-08
9.6778135e-08
9.6777144e-08
9.6776264e-08
9.6775975e-08
9.6776159e-08
9.6758106e-08
9.6714698e-08
9.6582114e-08
9.4458613e-08
9.4665592e-08
9.4713616e-08
9.4742269e-08
9.474203e-08
9.4742453e-08
9.4743554e-08
9.4744739e-08
9.474567e-08
9.4746174e-08
9.4746174e-08
9.474567e-08
9.4744739e-08
9.4743554e-08
9.4742453e-08
9.474203e-08
9.4742269e-08
9.4713617e-08
9.4665593e-08
9.4458612e-08
9.1586423e-08
9.1903444e-08
9.1950343e-08
9.1981292e-08
9.1982191e-08
9.1983531e-08
9.1985291e-08
9.1986898e-08
9.198809e-08
9.1988712e-08
9.1988712e-08
9.198809e-08
9.1986897e-08
9.198529e-08
9.1983531e-08
9.1982191e-08
9.1981293e-08
9.1950343e-08
9.1903444e-08
9.1586422e-08
8.803838e-08
8.8402152e-08
8.847609e-08
8.8505751e-08
8.8509623e-08
8.8512928e-08
8.8515829e-08
8.8518072e-08
8.8519593e-08
8.8520348e-08
8.8520348e-08
8.8519592e-08
8.8518072e-08
8.8515828e-08
8.8512927e-08
8.8509622e-08
8.8505751e-08
8.847609e-08
8.8402152e-08
8.8038379e-08
8.4743007e-08
8.5040609e-08
8.5110722e-08
8.513589e-08
8.5142484e-08
8.5147253e-08
8.5150724e-08
8.5153151e-08
8.5154674e-08
8.5155404e-08
8.5155404e-08
8.5154674e-08
8.5153151e-08
8.5150723e-08
8.5147253e-08
8.5142483e-08
8.5135889e-08
8.5110721e-08
8.5040608e-08
8.4743006e-08
8.26188e-08
8.275678e-08
8.2803049e-08
8.2816282e-08
8.2820984e-08
8.2824057e-08
8.2826059e-08
8.282738e-08
8.2828162e-08
8.2828528e-08
8.2828528e-08
8.2828162e-08
8.282738e-08
8.2826059e-08
8.2824056e-08
8.2820983e-08
8.2816281e-08
8.2803048e-08
8.2756779e-08
8.2618799e-08
8.2901112e-08
8.270663e-08
8.2638954e-08
8.2625297e-08
8.2620458e-08
8.2617818e-08
8.2616323e-08
8.2615409e-08
8.2614908e-08
8.2614685e-08
8.2614685e-08
8.2614908e-08
8.261541e-08
8.2616324e-08
8.2617818e-08
8.2620458e-08
8.2625298e-08
8.2638954e-08
8.2706631e-08
8.2901113e-08
0.00024276361
0.00024274459
0.00024279002
0.00024282839
0.00024285697
0.00024287973
0.00024289807
0.00024291206
0.0002429215
0.00024292625
0.00024292625
0.0002429215
0.00024291206
0.00024289807
0.00024287973
0.00024285696
0.00024282838
0.00024279002
0.00024274458
0.00024276361
0.00024122416
0.00024123526
0.00024126306
0.00024129282
0.00024131947
0.00024134213
0.00024136055
0.00024137452
0.00024138388
0.00024138857
0.00024138857
0.00024138388
0.00024137452
0.00024136055
0.00024134213
0.00024131947
0.00024129282
0.00024126305
0.00024123525
0.00024122416
0.00023981022
0.00023983983
0.00023987387
0.00023990633
0.0002399349
0.00023995885
0.00023997797
0.00023999223
0.00024000168
0.00024000638
0.00024000638
0.00024000168
0.00023999223
0.00023997797
0.00023995885
0.0002399349
0.00023990633
0.00023987387
0.00023983982
0.00023981022
0.00023851439
0.00023855686
0.00023860236
0.00023864254
0.0002386759
0.00023870262
0.00023872321
0.00023873816
0.00023874789
0.00023875268
0.00023875268
0.00023874789
0.00023873816
0.00023872321
0.00023870262
0.0002386759
0.00023864254
0.00023860236
0.00023855685
0.00023851439
0.00023733715
0.00023738667
0.00023744188
0.00023749039
0.00023752971
0.00023756027
0.00023758312
0.0002375993
0.00023760963
0.00023761465
0.00023761465
0.00023760963
0.0002375993
0.00023758312
0.00023756027
0.00023752971
0.00023749038
0.00023744188
0.00023738667
0.00023733715
0.00023627513
0.00023632708
0.00023638824
0.00023644332
0.0002364882
0.00023652282
0.00023654837
0.0002365662
0.00023657745
0.00023658287
0.00023658287
0.00023657745
0.0002365662
0.00023654837
0.00023652282
0.0002364882
0.00023644332
0.00023638824
0.00023632708
0.00023627513
0.00023532121
0.00023537258
0.0002354361
0.00023549518
0.00023554422
0.00023558237
0.00023561056
0.00023563017
0.00023564249
0.00023564842
0.00023564842
0.00023564249
0.00023563017
0.00023561056
0.00023558237
0.00023554422
0.00023549518
0.0002354361
0.00023537258
0.00023532121
0.00023446628
0.00023451542
0.00023457858
0.00023463919
0.00023469065
0.00023473131
0.00023476164
0.00023478286
0.00023479623
0.00023480266
0.00023480266
0.00023479623
0.00023478286
0.00023476164
0.00023473131
0.00023469065
0.00023463919
0.00023457858
0.00023451542
0.00023446628
0.0002337008
0.00023374689
0.00023380793
0.00023386807
0.00023392028
0.00023396226
0.000233994
0.00023401642
0.00023403063
0.0002340375
0.0002340375
0.00023403063
0.00023401642
0.000233994
0.00023396226
0.00023392028
0.00023386807
0.00023380793
0.0002337469
0.0002337008
0.00023301562
0.00023305835
0.00023311619
0.00023317443
0.000233226
0.00023326817
0.0002333005
0.0002333236
0.00023333835
0.00023334551
0.00023334551
0.00023333835
0.0002333236
0.0002333005
0.00023326817
0.000233226
0.00023317443
0.00023311619
0.00023305835
0.00023301562
0.00023240232
0.00023244162
0.00023249571
0.00023255111
0.00023260099
0.0002326424
0.00023267457
0.0002326978
0.00023271275
0.00023272005
0.00023272005
0.00023271275
0.0002326978
0.00023267457
0.0002326424
0.00023260099
0.00023255111
0.00023249571
0.00023244163
0.00023240232
0.00023185336
0.00023188933
0.00023193942
0.00023199142
0.00023203888
0.00023207878
0.00023211015
0.00023213303
0.00023214786
0.00023215514
0.00023215514
0.00023214786
0.00023213303
0.00023211015
0.00023207878
0.00023203888
0.00023199142
0.00023193943
0.00023188934
0.00023185336
0.00023136209
0.00023139487
0.00023144092
0.00023148923
0.0002315338
0.00023157168
0.00023160176
0.00023162388
0.00023163832
0.00023164543
0.00023164543
0.00023163832
0.00023162388
0.00023160176
0.00023157168
0.0002315338
0.00023148923
0.00023144093
0.00023139487
0.00023136209
0.00023092261
0.00023095237
0.00023099447
0.00023103899
0.00023108042
0.00023111594
0.00023114438
0.00023116545
0.00023117927
0.00023118611
0.00023118611
0.00023117927
0.00023116545
0.00023114438
0.00023111595
0.00023108042
0.00023103899
0.00023099448
0.00023095237
0.00023092261
0.00023052973
0.00023055667
0.00023059498
0.00023063573
0.00023067392
0.0002307069
0.00023073347
0.00023075328
0.00023076634
0.00023077281
0.00023077281
0.00023076634
0.00023075328
0.00023073347
0.0002307069
0.00023067392
0.00023063573
0.00023059498
0.00023055667
0.00023052973
0.00023017889
0.0002302032
0.00023023791
0.00023027501
0.00023030996
0.00023034031
0.00023036491
0.00023038333
0.00023039552
0.00023040158
0.00023040158
0.00023039552
0.00023038333
0.00023036491
0.00023034032
0.00023030996
0.00023027501
0.00023023791
0.0002302032
0.00023017889
0.00022986607
0.00022988793
0.00022991925
0.00022995286
0.00022998466
0.0002300124
0.00023003497
0.00023005195
0.00023006322
0.00023006883
0.00023006883
0.00023006322
0.00023005195
0.00023003498
0.0002300124
0.00022998466
0.00022995286
0.00022991925
0.00022988794
0.00022986607
0.00022958773
0.00022960733
0.00022963548
0.00022966578
0.00022969454
0.00022971974
0.00022974031
0.00022975583
0.00022976616
0.00022977132
0.00022977132
0.00022976616
0.00022975583
0.00022974031
0.00022971974
0.00022969455
0.00022966578
0.00022963548
0.00022960733
0.00022958773
0.00022934077
0.00022935828
0.00022938347
0.00022941067
0.00022943656
0.0002294593
0.00022947793
0.00022949202
0.00022950142
0.00022950611
0.00022950611
0.00022950142
0.00022949202
0.00022947793
0.0002294593
0.00022943656
0.00022941067
0.00022938347
0.00022935828
0.00022934077
0.00022912251
0.00022913808
0.00022916053
0.00022918481
0.00022920799
0.00022922841
0.00022924517
0.00022925788
0.00022926638
0.00022927062
0.00022927062
0.00022926638
0.00022925788
0.00022924517
0.00022922841
0.00022920799
0.00022918481
0.00022916053
0.00022913808
0.00022912251
0.00022893063
0.0002289444
0.0002289643
0.00022898587
0.00022900651
0.00022902474
0.00022903974
0.00022905113
0.00022905876
0.00022906258
0.00022906258
0.00022905876
0.00022905113
0.00022903974
0.00022902474
0.00022900651
0.00022898587
0.0002289643
0.0002289444
0.00022893063
0.00022876318
0.00022877528
0.00022879281
0.00022881186
0.00022883013
0.0002288463
0.00022885964
0.0002288698
0.00022887661
0.00022888002
0.00022888002
0.00022887661
0.0002288698
0.00022885964
0.0002288463
0.00022883013
0.00022881186
0.00022879281
0.00022877529
0.00022876318
0.00022861856
0.0002286291
0.00022864442
0.00022866112
0.0002286772
0.00022869146
0.00022870326
0.00022871227
0.00022871832
0.00022872135
0.00022872135
0.00022871832
0.00022871227
0.00022870326
0.00022869146
0.0002286772
0.00022866113
0.00022864443
0.00022862911
0.00022861856
0.0002284955
0.0002285046
0.00022851787
0.0002285324
0.00022854643
0.00022855894
0.00022856932
0.00022857727
0.00022858261
0.0002285853
0.0002285853
0.00022858261
0.00022857727
0.00022856932
0.00022855894
0.00022854643
0.0002285324
0.00022851787
0.0002285046
0.0002284955
0.0002283931
0.00022840085
0.00022841223
0.00022842476
0.00022843693
0.00022844784
0.00022845694
0.00022846393
0.00022846864
0.00022847102
0.00022847102
0.00022846864
0.00022846393
0.00022845694
0.00022844784
0.00022843693
0.00022842476
0.00022841223
0.00022840085
0.0002283931
0.00022831083
0.00022831733
0.00022832696
0.00022833769
0.0002283482
0.0002283577
0.00022836566
0.00022837181
0.00022837598
0.00022837808
0.00022837808
0.00022837598
0.00022837181
0.00022836566
0.0002283577
0.00022834821
0.00022833769
0.00022832696
0.00022831733
0.00022831083
0.0002282485
0.00022825386
0.00022826196
0.00022827112
0.00022828021
0.00022828851
0.00022829553
0.00022830098
0.00022830469
0.00022830657
0.00022830657
0.00022830469
0.00022830098
0.00022829553
0.00022828851
0.00022828021
0.00022827112
0.00022826196
0.00022825386
0.0002282485
0.00022820632
0.00022821072
0.00022821756
0.00022822547
0.00022823346
0.00022824084
0.00022824715
0.00022825209
0.00022825546
0.00022825717
0.00022825717
0.00022825546
0.00022825209
0.00022824715
0.00022824084
0.00022823346
0.00022822547
0.00022821756
0.00022821072
0.00022820632
0.00022818482
0.00022818857
0.00022819461
0.00022820177
0.0002282091
0.00022821596
0.00022822186
0.0002282265
0.00022822969
0.00022823131
0.00022823131
0.00022822969
0.0002282265
0.00022822186
0.00022821596
0.0002282091
0.00022820177
0.00022819461
0.00022818857
0.00022818482
)
;

boundaryField
{
    Wall
    {
        type            calculated;
        value           uniform 4e-05;
    }
    frontAndBack
    {
        type            empty;
    }
    atmosphere
    {
        type            calculated;
        value           uniform 4e-05;
    }
}


// ************************************************************************* //
