/*--------------------------------*- C++ -*----------------------------------*\
| =========                 |                                                 |
| \\      /  F ield         | OpenFOAM: The Open Source CFD Toolbox           |
|  \\    /   O peration     | Version:  3.0.1                                 |
|   \\  /    A nd           | Web:      www.OpenFOAM.org                      |
|    \\/     M anipulation  |                                                 |
\*---------------------------------------------------------------------------*/
FoamFile
{
    version     2.0;
    format      ascii;
    class       volScalarField;
    location    "21";
    object      TS;
}
// * * * * * * * * * * * * * * * * * * * * * * * * * * * * * * * * * * * * * //

dimensions      [0 0 0 1 0 0 0];

internalField   nonuniform List<scalar> 
800
(
331.70439
331.70812
331.70864
331.7087
331.70872
331.70875
331.70877
331.70879
331.70881
331.70881
331.70881
331.70881
331.70879
331.70877
331.70875
331.70872
331.7087
331.70864
331.70812
331.70439
329.23275
329.30299
329.31478
329.31586
329.31558
329.31556
329.31582
329.31619
329.31649
329.31666
329.31666
329.31649
329.31619
329.31582
329.31556
329.31558
329.31586
329.31478
329.30299
329.23275
327.26418
327.36898
327.39274
327.39582
327.39582
327.39589
327.39634
327.39692
327.3974
327.39767
327.39767
327.3974
327.39692
327.39634
327.39589
327.39582
327.39582
327.39274
327.36898
327.26418
325.81565
325.94825
325.98293
325.9876
325.98771
325.98762
325.98802
325.9886
325.98911
325.9894
325.9894
325.98911
325.9886
325.98803
325.98762
325.98771
325.9876
325.98293
325.94825
325.81565
324.7942
324.94616
324.9952
325.00274
325.00311
325.00274
325.00295
325.00335
325.00379
325.00404
325.00404
325.00379
325.00335
325.00295
325.00274
325.00311
325.00274
324.9952
324.94617
324.7942
323.96221
324.14253
324.2143
324.22716
324.22875
324.22846
324.22861
324.22888
324.22925
324.22945
324.22945
324.22925
324.22888
324.22861
324.22846
324.22875
324.22717
324.21431
324.14253
323.96222
322.89051
323.13864
323.22643
323.24905
323.25424
323.25533
323.25618
323.25676
323.25732
323.25757
323.25757
323.25732
323.25676
323.25618
323.25534
323.25424
323.24906
323.22644
323.13865
322.89052
320.84375
321.23547
321.34729
321.38812
321.40174
321.40711
321.41037
321.41231
321.41364
321.41421
321.41421
321.41364
321.41231
321.41037
321.40711
321.40174
321.38813
321.3473
321.23548
320.84375
316.78063
317.35792
317.5343
317.60297
317.63124
317.64516
317.65353
317.65855
317.66164
317.66301
317.66301
317.66164
317.65855
317.65353
317.64516
317.63124
317.60297
317.53431
317.35793
316.78063
311.60031
312.04899
312.26084
312.31246
312.33733
312.35399
312.36627
312.37504
312.38076
312.38355
312.38355
312.38076
312.37504
312.36627
312.35399
312.33733
312.31246
312.26084
312.04899
311.60031
309.65763
309.83984
309.96312
310.01641
310.04244
310.05955
310.07243
310.08203
310.08844
310.09165
310.09165
310.08844
310.08203
310.07243
310.05954
310.04244
310.01641
309.96312
309.83984
309.65763
308.28188
308.30195
308.33899
308.36792
308.38862
308.40442
308.4168
308.42614
308.43241
308.43556
308.43556
308.43241
308.42614
308.4168
308.40442
308.38862
308.36792
308.33898
308.30194
308.28188
307.27284
307.2867
307.30917
307.33122
307.35002
307.36549
307.37784
307.38714
307.39334
307.39645
307.39645
307.39334
307.38713
307.37784
307.36549
307.35002
307.33121
307.30917
307.2867
307.27283
306.33675
306.35749
306.38125
306.4036
306.42298
306.43902
306.45174
306.4612
306.46746
306.47057
306.47057
306.46746
306.4612
306.45174
306.43902
306.42298
306.4036
306.38125
306.35749
306.33675
305.4769
305.50515
305.53548
305.56224
305.5844
305.60211
305.61574
305.62563
305.63207
305.63524
305.63524
305.63207
305.62563
305.61574
305.60211
305.5844
305.56223
305.53548
305.50515
305.4769
304.69458
304.72744
304.764
304.7961
304.8221
304.84229
304.8574
304.86809
304.87493
304.87825
304.87825
304.87493
304.86809
304.8574
304.84229
304.8221
304.7961
304.764
304.72743
304.69457
303.98779
304.02236
304.06294
304.09944
304.12915
304.15206
304.16896
304.18076
304.1882
304.1918
304.1918
304.1882
304.18076
304.16896
304.15206
304.12915
304.09944
304.06294
304.02235
303.98779
303.35209
303.38638
303.42865
303.46791
303.50046
303.52577
303.54445
303.55746
303.56562
303.56955
303.56955
303.56562
303.55746
303.54445
303.52577
303.50046
303.46791
303.42865
303.38638
303.35209
302.78176
302.81462
302.85677
302.89715
302.9314
302.95843
302.97859
302.99268
303.00156
303.00583
303.00583
303.00156
302.99268
302.97859
302.95843
302.9314
302.89715
302.85677
302.81462
302.78176
302.27069
302.30156
302.34236
302.38252
302.41734
302.44531
302.46645
302.48137
302.49082
302.49539
302.49539
302.49082
302.48137
302.46645
302.44531
302.41734
302.38252
302.34236
302.30156
302.27069
301.81295
301.84159
301.88031
301.91926
301.95372
301.98187
302.00344
302.01884
302.02867
302.03345
302.03345
302.02867
302.01884
302.00344
301.98187
301.95372
301.91926
301.88031
301.84159
301.81295
301.40303
301.4294
301.46565
301.50274
301.53611
301.5638
301.58529
301.60081
301.61079
301.61566
301.61566
301.61079
301.60081
301.58529
301.5638
301.53611
301.50274
301.46565
301.4294
301.40303
301.03598
301.06012
301.09372
301.12857
301.16036
301.18707
301.20806
301.22336
301.23327
301.23814
301.23814
301.23328
301.22336
301.20806
301.18707
301.16036
301.12857
301.09372
301.06012
301.03598
300.70738
300.72939
300.7603
300.79271
300.82259
300.84797
300.86812
300.88293
300.8926
300.89735
300.89735
300.8926
300.88293
300.86812
300.84797
300.82259
300.79271
300.76031
300.7294
300.70738
300.41333
300.43333
300.4616
300.49148
300.51928
300.54311
300.56217
300.57629
300.58556
300.59014
300.59014
300.58556
300.57629
300.56217
300.54311
300.51928
300.49149
300.46161
300.43333
300.41333
300.15039
300.1685
300.19423
300.2216
300.24724
300.26937
300.28721
300.30049
300.30925
300.3136
300.3136
300.30925
300.30049
300.28721
300.26938
300.24724
300.22161
300.19424
300.1685
300.15039
299.91551
299.93186
299.95519
299.98012
300.00359
300.02398
300.0405
300.05286
300.06105
300.06512
300.06512
300.06105
300.05286
300.0405
300.02398
300.0036
299.98012
299.95519
299.93186
299.91551
299.70603
299.72074
299.7418
299.76439
299.78576
299.8044
299.81957
299.83097
299.83855
299.84231
299.84231
299.83855
299.83097
299.81957
299.8044
299.78576
299.76439
299.7418
299.72074
299.70603
299.51959
299.53278
299.55171
299.57209
299.59143
299.60837
299.6222
299.63263
299.63958
299.64304
299.64304
299.63958
299.63263
299.6222
299.60837
299.59143
299.57209
299.55172
299.53278
299.51959
299.35413
299.36591
299.38287
299.40116
299.41858
299.43387
299.4464
299.45587
299.4622
299.46535
299.46535
299.4622
299.45588
299.4464
299.43387
299.41858
299.40116
299.38287
299.36592
299.35413
299.20786
299.21834
299.23345
299.24979
299.26539
299.27913
299.29041
299.29896
299.30467
299.30753
299.30753
299.30467
299.29896
299.29041
299.27913
299.26539
299.24979
299.23345
299.21834
299.20786
299.07924
299.08851
299.10191
299.11643
299.13032
299.14259
299.15268
299.16035
299.16549
299.16806
299.16806
299.16549
299.16035
299.15268
299.14259
299.13032
299.11643
299.10191
299.08851
299.07924
298.96696
298.97511
298.98692
298.99974
299.01204
299.02293
299.03192
299.03876
299.04334
299.04564
299.04564
299.04334
299.03876
299.03192
299.02293
299.01205
298.99974
298.98692
298.97512
298.96696
298.86997
298.87708
298.8874
298.89864
298.90947
298.91907
298.92702
298.93309
298.93716
298.93921
298.93921
298.93716
298.93309
298.92702
298.91908
298.90947
298.89864
298.8874
298.87708
298.86997
298.78742
298.79355
298.80249
298.81228
298.82174
298.83016
298.83716
298.84251
298.84611
298.84792
298.84792
298.84611
298.84251
298.83716
298.83016
298.82174
298.81228
298.8025
298.79355
298.78742
298.71872
298.72394
298.73161
298.74005
298.74826
298.75561
298.76174
298.76645
298.76962
298.77122
298.77122
298.76962
298.76645
298.76174
298.75561
298.74826
298.74005
298.73161
298.72394
298.71872
298.6635
298.66788
298.67438
298.68161
298.68869
298.69509
298.70046
298.70461
298.70741
298.70883
298.70883
298.70741
298.70461
298.70046
298.69509
298.6887
298.68161
298.67438
298.66788
298.6635
298.62166
298.62528
298.63074
298.63691
298.64304
298.64863
298.65336
298.65704
298.65954
298.66081
298.66081
298.65954
298.65704
298.65336
298.64863
298.64304
298.63691
298.63074
298.62528
298.62166
298.59333
298.5963
298.60092
298.60625
298.61164
298.61661
298.62087
298.62419
298.62647
298.62762
298.62762
298.62647
298.62419
298.62087
298.61661
298.61164
298.60625
298.60092
298.5963
298.59333
298.5789
298.58142
298.5855
298.59032
298.59527
298.59989
298.60387
298.607
298.60915
298.61024
298.61024
298.60915
298.607
298.60387
298.59989
298.59527
298.59032
298.5855
298.58142
298.5789
)
;

boundaryField
{
    Wall
    {
        type            zeroGradient;
    }
    frontAndBack
    {
        type            empty;
    }
    atmosphere
    {
        type            zeroGradient;
    }
}


// ************************************************************************* //
