/*--------------------------------*- C++ -*----------------------------------*\
| =========                 |                                                 |
| \\      /  F ield         | OpenFOAM: The Open Source CFD Toolbox           |
|  \\    /   O peration     | Version:  3.0.1                                 |
|   \\  /    A nd           | Web:      www.OpenFOAM.org                      |
|    \\/     M anipulation  |                                                 |
\*---------------------------------------------------------------------------*/
FoamFile
{
    version     2.0;
    format      ascii;
    class       volVectorField;
    location    "21";
    object      U;
}
// * * * * * * * * * * * * * * * * * * * * * * * * * * * * * * * * * * * * * //

dimensions      [0 1 -1 0 0 0 0];

internalField   nonuniform List<vector> 
800
(
(5.2244604e-06 0.00030815076 0)
(6.3832899e-06 0.00031049134 0)
(6.3127743e-06 0.00031144506 0)
(5.0591116e-06 0.00031154017 0)
(3.8693948e-06 0.00031138315 0)
(2.9172018e-06 0.00031121593 0)
(2.1398151e-06 0.00031110238 0)
(1.471693e-06 0.00031104004 0)
(8.6417666e-07 0.00031101074 0)
(2.8537923e-07 0.00031099989 0)
(-2.8527671e-07 0.00031099987 0)
(-8.6426083e-07 0.00031101068 0)
(-1.4720877e-06 0.00031103993 0)
(-2.1405968e-06 0.00031110224 0)
(-2.9183499e-06 0.00031121579 0)
(-3.8707861e-06 0.00031138304 0)
(-5.0605375e-06 0.00031154012 0)
(-6.3140125e-06 0.00031144511 0)
(-6.384062e-06 0.00031049156 0)
(-5.2247865e-06 0.00030815106 0)
(2.9392768e-06 0.00055128248 0)
(3.9213566e-06 0.00055751031 0)
(4.9464009e-06 0.00055995063 0)
(4.3123999e-06 0.0005604839 0)
(3.49106e-06 0.00056040609 0)
(2.7199277e-06 0.00056019689 0)
(2.029508e-06 0.00056002156 0)
(1.4075742e-06 0.00055991005 0)
(8.2972655e-07 0.00055984949 0)
(2.7435511e-07 0.00055982377 0)
(-2.7456774e-07 0.0005598237 0)
(-8.3007718e-07 0.00055984932 0)
(-1.4081462e-06 0.00055990978 0)
(-2.0303401e-06 0.00056002126 0)
(-2.7209881e-06 0.00056019664 0)
(-3.4922441e-06 0.00056040597 0)
(-4.3135377e-06 0.00056048399 0)
(-4.9472964e-06 0.00055995099 0)
(-3.9218807e-06 0.00055751098 0)
(-2.939472e-06 0.00055128336 0)
(4.1089395e-06 0.00099384683 0)
(4.9586777e-06 0.0010049874 0)
(4.697364e-06 0.0010091122 0)
(3.7792887e-06 0.0010100729 0)
(3.0289524e-06 0.0010100142 0)
(2.3720381e-06 0.0010097101 0)
(1.793599e-06 0.0010094441 0)
(1.2616865e-06 0.0010092721 0)
(7.5152963e-07 0.0010091782 0)
(2.4975256e-07 0.0010091384 0)
(-2.5021493e-07 0.0010091383 0)
(-7.5207212e-07 0.0010091779 0)
(-1.2623555e-06 0.0010092717 0)
(-1.7944002e-06 0.0010094438 0)
(-2.3729257e-06 0.0010097099 0)
(-3.029834e-06 0.0010100142 0)
(-3.7800405e-06 0.0010100732 0)
(-4.6978484e-06 0.001009113 0)
(-4.9587998e-06 0.0010049885 0)
(-4.1088933e-06 0.00099384828 0)
(4.0233146e-06 0.0014220895 0)
(4.7519782e-06 0.0014355716 0)
(3.966445e-06 0.0014402401 0)
(2.9876908e-06 0.0014412551 0)
(2.40974e-06 0.0014410375 0)
(1.928351e-06 0.0014405919 0)
(1.5084668e-06 0.0014402476 0)
(1.0953252e-06 0.0014400414 0)
(6.6746911e-07 0.0014399372 0)
(2.2440121e-07 0.0014398962 0)
(-2.2507776e-07 0.0014398961 0)
(-6.6816884e-07 0.0014399369 0)
(-1.096044e-06 0.0014400411 0)
(-1.5091738e-06 0.0014402473 0)
(-1.9289974e-06 0.0014405918 0)
(-2.4102461e-06 0.0014410376 0)
(-2.9879949e-06 0.0014412556 0)
(-3.966505e-06 0.001440241 0)
(-4.7517957e-06 0.0014355728 0)
(-4.023134e-06 0.0014220909 0)
(3.1091632e-06 0.0018711098 0)
(3.7958614e-06 0.0018875722 0)
(2.8329508e-06 0.0018923505 0)
(2.0712692e-06 0.0018931703 0)
(1.7042194e-06 0.0018926663 0)
(1.4657534e-06 0.0018920703 0)
(1.2468558e-06 0.0018916825 0)
(9.6416531e-07 0.0018914844 0)
(6.1160854e-07 0.001891403 0)
(2.0965398e-07 0.0018913786 0)
(-2.1050255e-07 0.0018913785 0)
(-6.1242137e-07 0.0018914028 0)
(-9.6488631e-07 0.0018914841 0)
(-1.247419e-06 0.0018916822 0)
(-1.4661359e-06 0.0018920702 0)
(-1.7043665e-06 0.0018926664 0)
(-2.0711792e-06 0.0018931707 0)
(-2.8327148e-06 0.0018923512 0)
(-3.795569e-06 0.001887573 0)
(-3.108961e-06 0.0018711105 0)
(1.7302653e-06 0.0023715091 0)
(2.2430546e-06 0.0023903128 0)
(1.0409411e-06 0.0023943208 0)
(8.8865699e-07 0.0023944056 0)
(9.319775e-07 0.002393523 0)
(1.0680462e-06 0.0023928128 0)
(1.0944626e-06 0.0023924591 0)
(9.3639866e-07 0.0023923402 0)
(6.2656502e-07 0.002392332 0)
(2.198888e-07 0.0023923492 0)
(-2.2084752e-07 0.0023923492 0)
(-6.2743858e-07 0.0023923318 0)
(-9.3710382e-07 0.00239234 0)
(-1.0948821e-06 0.0023924589 0)
(-1.0682342e-06 0.0023928126 0)
(-9.3190844e-07 0.002393523 0)
(-8.8835005e-07 0.0023944057 0)
(-1.0406305e-06 0.002394321 0)
(-2.2429253e-06 0.0023903128 0)
(-1.7302083e-06 0.0023715087 0)
(-1.0395934e-06 0.0029376815 0)
(-1.1553165e-06 0.0029564994 0)
(-2.0248511e-06 0.0029591324 0)
(-7.3213303e-07 0.0029581996 0)
(2.2542349e-07 0.0029570854 0)
(8.8776934e-07 0.0029564683 0)
(1.1865288e-06 0.0029563172 0)
(1.1078101e-06 0.0029563943 0)
(7.6793814e-07 0.002956528 0)
(2.7313725e-07 0.0029566184 0)
(-2.741488e-07 0.0029566184 0)
(-7.6883592e-07 0.0029565279 0)
(-1.1084913e-06 0.002956394 0)
(-1.1869125e-06 0.002956317 0)
(-8.878814e-07 0.002956468 0)
(-2.2530699e-07 0.0029570851 0)
(7.3240388e-07 0.0029581992 0)
(2.0250288e-06 0.0029591319 0)
(1.1550689e-06 0.0029564986 0)
(1.0393787e-06 0.0029376802 0)
(-6.607046e-06 0.0035658421 0)
(-7.8318427e-06 0.0035837741 0)
(-6.0144103e-06 0.0035852355 0)
(-2.3802201e-06 0.0035839345 0)
(-8.5855611e-11 0.0035831906 0)
(1.2382696e-06 0.003583097 0)
(1.7187002e-06 0.0035834072 0)
(1.5930684e-06 0.0035838263 0)
(1.0931466e-06 0.0035841738 0)
(3.8676624e-07 0.0035843666 0)
(-3.877735e-07 0.0035843666 0)
(-1.0940421e-06 0.0035841737 0)
(-1.5937628e-06 0.0035838261 0)
(-1.7191333e-06 0.0035834069 0)
(-1.238463e-06 0.0035830965 0)
(8.3137019e-11 0.00358319 0)
(2.3802614e-06 0.0035839337 0)
(6.0142537e-06 0.0035852344 0)
(7.8313199e-06 0.0035837727 0)
(6.6067151e-06 0.0035658405 0)
(-1.3951146e-05 0.004150733 0)
(-1.6910631e-05 0.0041672792 0)
(-9.6878052e-06 0.0041698057 0)
(-2.9533907e-06 0.0041701911 0)
(8.917264e-07 0.0041709829 0)
(2.452359e-06 0.0041720254 0)
(2.8573848e-06 0.0041731101 0)
(2.4663297e-06 0.0041740123 0)
(1.6299478e-06 0.0041746271 0)
(5.6761177e-07 0.0041749398 0)
(-5.685663e-07 0.0041749397 0)
(-1.6308247e-06 0.004174627 0)
(-2.4670681e-06 0.0041740121 0)
(-2.8579461e-06 0.0041731097 0)
(-2.4527538e-06 0.0041720248 0)
(-8.9196077e-07 0.0041709821 0)
(2.9531675e-06 0.0041701901 0)
(9.6874016e-06 0.0041698045 0)
(1.6910045e-05 0.0041672778 0)
(1.3950826e-05 0.0041507316 0)
(-2.1727345e-05 0.0046169937 0)
(-2.4502792e-05 0.0046288496 0)
(-9.1169395e-06 0.0046359162 0)
(-5.0809922e-07 0.0046405693 0)
(3.6769413e-06 0.0046436317 0)
(4.8403628e-06 0.0046462638 0)
(4.7167794e-06 0.004648211 0)
(3.7537154e-06 0.004649571 0)
(2.3772404e-06 0.0046504016 0)
(8.1317521e-07 0.0046508014 0)
(-8.1405765e-07 0.0046508014 0)
(-2.3780912e-06 0.0046504016 0)
(-3.7545146e-06 0.0046495708 0)
(-4.7174949e-06 0.0046482106 0)
(-4.8409714e-06 0.0046462633 0)
(-3.677433e-06 0.004643631 0)
(5.0766492e-07 0.0046405683 0)
(9.1164852e-06 0.0046359151 0)
(2.4502356e-05 0.0046288485 0)
(2.1727134e-05 0.0046169927 0)
(-2.9607014e-05 0.0049837638 0)
(-2.595463e-05 0.0049996126 0)
(2.6664861e-07 0.0050083741 0)
(6.8270814e-06 0.00501686 0)
(8.8336477e-06 0.0050220121 0)
(8.659029e-06 0.0050258872 0)
(7.3243653e-06 0.0050284177 0)
(5.432474e-06 0.0050300747 0)
(3.3086441e-06 0.0050310333 0)
(1.1121595e-06 0.0050314883 0)
(-1.1130003e-06 0.0050314883 0)
(-3.3094892e-06 0.0050310332 0)
(-5.4333399e-06 0.0050300746 0)
(-7.3252218e-06 0.0050284174 0)
(-8.6598113e-06 0.0050258866 0)
(-8.8343044e-06 0.0050220113 0)
(-6.8276183e-06 0.005016859 0)
(-2.6705379e-07 0.0050083731 0)
(2.5954512e-05 0.0049996116 0)
(2.9607043e-05 0.0049837626 0)
(7.8182604e-05 0.0052812368 0)
(0.00010122038 0.0054215586 0)
(6.6190175e-05 0.0054377061 0)
(4.5687725e-05 0.0054499459 0)
(3.2860894e-05 0.0054581096 0)
(2.3932783e-05 0.005463308 0)
(1.712155e-05 0.0054664853 0)
(1.1510443e-05 0.0054685211 0)
(6.6210898e-06 0.0054696836 0)
(2.1649367e-06 0.0054702564 0)
(-2.1658698e-06 0.0054702564 0)
(-6.6220191e-06 0.0054696836 0)
(-1.1511377e-05 0.005468521 0)
(-1.7122453e-05 0.0054664851 0)
(-2.3933579e-05 0.0054633076 0)
(-3.286153e-05 0.0054581089 0)
(-4.5688135e-05 0.005449945 0)
(-6.6190323e-05 0.0054377055 0)
(-0.00010122014 0.005421558 0)
(-7.8182271e-05 0.0052812365 0)
(0.00047372582 0.0048302754 0)
(0.00069630295 0.0054732287 0)
(0.00053889203 0.0055160945 0)
(0.0003793 0.0055093474 0)
(0.00026277543 0.0055030817 0)
(0.00018138866 0.0054998981 0)
(0.0001232091 0.0054984939 0)
(7.9535844e-05 0.0054980738 0)
(4.4585837e-05 0.00549801 0)
(1.4422973e-05 0.0054980781 0)
(-1.4425371e-05 0.0054980782 0)
(-4.4588083e-05 0.0054980103 0)
(-7.953787e-05 0.005498074 0)
(-0.00012321079 0.005498494 0)
(-0.00018138969 0.0054998979 0)
(-0.00026277584 0.0055030813 0)
(-0.00037929983 0.0055093466 0)
(-0.00053889128 0.0055160941 0)
(-0.00069630173 0.0054732287 0)
(-0.00047372519 0.0048302779 0)
(0.00055017352 0.0037678433 0)
(0.0010652089 0.0052013363 0)
(0.001057337 0.0054591524 0)
(0.00088439178 0.0054612597 0)
(0.00068687577 0.0054168416 0)
(0.00051007009 0.0053748116 0)
(0.00036264513 0.0053437685 0)
(0.00024073886 0.0053230619 0)
(0.00013722298 0.005310524 0)
(4.482717e-05 0.0053044761 0)
(-4.4830524e-05 0.0053044761 0)
(-0.00013722623 0.0053105244 0)
(-0.00024074161 0.0053230622 0)
(-0.00036264723 0.0053437685 0)
(-0.00051007143 0.0053748112 0)
(-0.00068687648 0.0054168408 0)
(-0.00088439224 0.0054612588 0)
(-0.0010573371 0.0054591518 0)
(-0.001065209 0.0052013369 0)
(-0.00055017373 0.0037678457 0)
(0.00037300644 0.0029963931 0)
(0.00088729247 0.0049002823 0)
(0.0010360139 0.0054737411 0)
(0.0009733033 0.0056035075 0)
(0.00082195053 0.0055884477 0)
(0.00064827578 0.0055357382 0)
(0.00048084717 0.0054827016 0)
(0.00032844421 0.0054410445 0)
(0.00019053084 0.0054133369 0)
(6.2845054e-05 0.0053994166 0)
(-6.2847004e-05 0.0053994165 0)
(-0.0001905327 0.0054133368 0)
(-0.00032844591 0.0054410443 0)
(-0.00048084851 0.0054827014 0)
(-0.00064827635 0.0055357376 0)
(-0.00082195058 0.005588447 0)
(-0.00097330329 0.0056035069 0)
(-0.0010360135 0.0054737405 0)
(-0.00088729223 0.0049002824 0)
(-0.00037300644 0.0029963944 0)
(0.00021421438 0.0024795503 0)
(0.00062098227 0.0045780773 0)
(0.0008346797 0.0054072913 0)
(0.00086184932 0.0056914449 0)
(0.00078045885 0.0057479982 0)
(0.00064892564 0.0057182417 0)
(0.00050048259 0.0056646158 0)
(0.00035138699 0.0056140042 0)
(0.00020744945 0.0055772007 0)
(6.9056829e-05 0.0055580281 0)
(-6.9058898e-05 0.005558028 0)
(-0.00020745098 0.0055772002 0)
(-0.00035138806 0.0056140034 0)
(-0.00050048351 0.0056646154 0)
(-0.00064892614 0.005718241 0)
(-0.00078045905 0.0057479974 0)
(-0.00086184927 0.0056914448 0)
(-0.00083467945 0.0054072911 0)
(-0.00062098206 0.0045780771 0)
(-0.00021421429 0.0024795507 0)
(0.00011433298 0.0021576893 0)
(0.00039875783 0.0042825144 0)
(0.0006111388 0.0052721879 0)
(0.0006854154 0.0056891076 0)
(0.00065982821 0.0058280856 0)
(0.00057503261 0.0058405075 0)
(0.00045952067 0.0058037508 0)
(0.00033099456 0.0057568525 0)
(0.00019869267 0.0057187561 0)
(6.6685652e-05 0.0056980032 0)
(-6.6686354e-05 0.005698003 0)
(-0.00019869325 0.0057187555 0)
(-0.00033099479 0.0057568512 0)
(-0.0004595205 0.00580375 0)
(-0.00057503253 0.0058405066 0)
(-0.0006598279 0.0058280848 0)
(-0.00068541484 0.0056891074 0)
(-0.00061113826 0.0052721878 0)
(-0.00039875744 0.0042825144 0)
(-0.00011433289 0.0021576892 0)
(5.9382519e-05 0.0019678885 0)
(0.00024457452 0.0040552953 0)
(0.0004228468 0.0051314198 0)
(0.00051063093 0.0056461882 0)
(0.00051916351 0.0058598148 0)
(0.00047189798 0.0059196775 0)
(0.00038939141 0.0059091287 0)
(0.00028711155 0.0058747461 0)
(0.00017500558 0.005841672 0)
(5.9148339e-05 0.0058225429 0)
(-5.9147583e-05 0.0058225423 0)
(-0.00017500527 0.0058416709 0)
(-0.00028711124 0.0058747447 0)
(-0.00038939084 0.0059091275 0)
(-0.00047189715 0.0059196764 0)
(-0.00051916268 0.0058598145 0)
(-0.00051063024 0.0056461878 0)
(-0.00042284615 0.0051314197 0)
(-0.0002445744 0.0040552956 0)
(-5.9382658e-05 0.0019678884 0)
(3.1127336e-05 0.0018578422 0)
(0.00014727186 0.003895635 0)
(0.00028243693 0.0050122177 0)
(0.00036406414 0.0055923482 0)
(0.00038864185 0.0058654064 0)
(0.00036684041 0.0059692055 0)
(0.00031157861 0.0059872723 0)
(0.00023465628 0.0059696878 0)
(0.00014503307 0.005945433 0)
(4.9312489e-05 0.005930038 0)
(-4.9310578e-05 0.0059300372 0)
(-0.00014503144 0.0059454318 0)
(-0.00023465497 0.0059696862 0)
(-0.00031157734 0.0059872707 0)
(-0.00036683904 0.0059692043 0)
(-0.00038864077 0.0058654064 0)
(-0.00036406341 0.0055923484 0)
(-0.00028243631 0.0050122181 0)
(-0.00014727179 0.0038956361 0)
(-3.1127457e-05 0.0018578428 0)
(1.6764403e-05 0.0017937 0)
(8.8369591e-05 0.00378805 0)
(0.00018433289 0.0049199611 0)
(0.00025141833 0.00554052 0)
(0.00028027504 0.005857014 0)
(0.00027366124 0.0059971968 0)
(0.00023858414 0.0060418524 0)
(0.00018316881 0.0060417802 0)
(0.00011464919 0.0060277951 0)
(3.9186022e-05 0.0060171022 0)
(-3.9183461e-05 0.0060171012 0)
(-0.00011464702 0.0060277939 0)
(-0.0001831669 0.0060417785 0)
(-0.00023858224 0.0060418508 0)
(-0.00027365928 0.0059971958 0)
(-0.00028027349 0.0058570141 0)
(-0.00025141736 0.005540521 0)
(-0.00018433234 0.0049199622 0)
(-8.8369795e-05 0.0037880518 0)
(-1.6764733e-05 0.0017937011 0)
(9.274439e-06 0.0017559446 0)
(5.3083407e-05 0.0037175203 0)
(0.00011829654 0.0048527017 0)
(0.00016935447 0.0054967075 0)
(0.00019619101 0.0058430292 0)
(0.00019749231 0.0060111538 0)
(0.00017630827 0.006078209 0)
(0.00013774919 0.0060941467 0)
(8.7220207e-05 0.0060902141 0)
(2.9950736e-05 0.0060843233 0)
(-2.9947689e-05 0.0060843222 0)
(-8.7216882e-05 0.0060902128 0)
(-0.00013774622 0.006094145 0)
(-0.00017630579 0.0060782076 0)
(-0.00019749001 0.0060111532 0)
(-0.00019618912 0.0058430295 0)
(-0.00016935341 0.005496709 0)
(-0.00011829627 0.0048527035 0)
(-5.3084006e-05 0.003717523 0)
(-9.2749298e-06 0.0017559464 0)
(5.2220233e-06 0.0017335627 0)
(3.1891785e-05 0.0036722442 0)
(7.4876177e-05 0.0048058098 0)
(0.0001117343 0.005462664 0)
(0.00013394224 0.005828527 0)
(0.000138607 0.0060169673 0)
(0.00012645051 0.0061016607 0)
(0.00010039614 0.0061310543 0)
(6.4246489e-05 0.0061360059 0)
(2.2156951e-05 0.0061344868 0)
(-2.2153589e-05 0.0061344858 0)
(-6.4242971e-05 0.0061360046 0)
(-0.00010039293 0.0061310525 0)
(-0.00012644759 0.0061016592 0)
(-0.00013860447 0.006016967 0)
(-0.0001339404 0.0058285276 0)
(-0.00011173298 0.0054626659 0)
(-7.4875493e-05 0.0048058123 0)
(-3.1891986e-05 0.0036722477 0)
(-5.2223098e-06 0.0017335652 0)
(2.9537551e-06 0.0017202676 0)
(1.9092483e-05 0.003643645 0)
(4.6787983e-05 0.0047741647 0)
(7.2380863e-05 0.0054376634 0)
(8.9469366e-05 0.0058158588 0)
(9.4950801e-05 0.0060184627 0)
(8.8371813e-05 0.006116365 0)
(7.1215053e-05 0.0061564084 0)
(4.6022946e-05 0.0061686828 0)
(1.5936771e-05 0.0061708524 0)
(-1.5933279e-05 0.0061708517 0)
(-4.6019549e-05 0.0061686814 0)
(-7.1211877e-05 0.0061564067 0)
(-8.8368846e-05 0.0061163635 0)
(-9.4947979e-05 0.0060184625 0)
(-8.9466958e-05 0.0058158596 0)
(-7.2379234e-05 0.0054376655 0)
(-4.6786936e-05 0.0047741676 0)
(-1.9092198e-05 0.0036436485 0)
(-2.9538128e-06 0.0017202702 0)
(1.6522772e-06 0.0017124069 0)
(1.1328593e-05 0.0036258313 0)
(2.8845194e-05 0.004753333 0)
(4.6089374e-05 0.0054200267 0)
(5.8589223e-05 0.0058057613 0)
(6.3647971e-05 0.006017911 0)
(6.0352216e-05 0.0061253226 0)
(4.9317096e-05 0.0061734163 0)
(3.2166796e-05 0.0061914203 0)
(1.1182308e-05 0.006196534 0)
(-1.1179131e-05 0.0061965335 0)
(-3.2163831e-05 0.0061914189 0)
(-4.9314316e-05 0.0061734149 0)
(-6.0349592e-05 0.0061253211 0)
(-6.3645564e-05 0.0060179105 0)
(-5.8587087e-05 0.0058057621 0)
(-4.6087761e-05 0.0054200288 0)
(-2.884415e-05 0.0047533359 0)
(-1.1328057e-05 0.0036258345 0)
(-1.6521562e-06 0.0017124093 0)
(8.9662629e-07 0.0017078187 0)
(6.6170979e-06 0.0036148946 0)
(1.7510296e-05 0.0047399023 0)
(2.8848246e-05 0.0054079656 0)
(3.7653048e-05 0.0057981766 0)
(4.1817172e-05 0.0060165802 0)
(4.0358474e-05 0.0061306204 0)
(3.3417352e-05 0.0061845794 0)
(2.1987743e-05 0.0062068861 0)
(7.6727642e-06 0.0062142498 0)
(-7.6704642e-06 0.0062142496 0)
(-2.1985455e-05 0.0062068852 0)
(-3.3414965e-05 0.0061845785 0)
(-4.0356098e-05 0.0061306192 0)
(-4.1814978e-05 0.0060165796 0)
(-3.7651123e-05 0.0057981775 0)
(-2.8846715e-05 0.0054079676 0)
(-1.7509141e-05 0.0047399052 0)
(-6.6165095e-06 0.0036148977 0)
(-8.9648327e-07 0.0017078204 0)
(4.5891686e-07 0.0017052002 0)
(3.7711872e-06 0.0036082903 0)
(1.0429686e-05 0.0047314059 0)
(1.7728655e-05 0.0053999247 0)
(2.3750094e-05 0.0057927172 0)
(2.6950308e-05 0.0060151183 0)
(2.6459407e-05 0.0061336552 0)
(2.2189984e-05 0.0061917591 0)
(1.4724237e-05 0.0062171903 0)
(5.15764e-06 0.006226214 0)
(-5.1560067e-06 0.0062262139 0)
(-1.4722938e-05 0.0062171897 0)
(-2.2188627e-05 0.0061917582 0)
(-2.6457799e-05 0.0061336542 0)
(-2.6948652e-05 0.0060151176 0)
(-2.3748484e-05 0.0057927181 0)
(-1.7727205e-05 0.0053999266 0)
(-1.0428484e-05 0.0047314087 0)
(-3.77053e-06 0.0036082931 0)
(-4.5870838e-07 0.0017052013 0)
(2.094476e-07 0.0017037585 0)
(2.0694125e-06 0.0036043819 0)
(6.0611304e-06 0.0047261299 0)
(1.0669226e-05 0.0053946792 0)
(1.468857e-05 0.0057889123 0)
(1.7036725e-05 0.0060138109 0)
(1.7015721e-05 0.0061353275 0)
(1.4452042e-05 0.0061962848 0)
(9.669978e-06 0.0062239223 0)
(3.4002209e-06 0.0062341349 0)
(-3.3989662e-06 0.0062341346 0)
(-9.6688187e-06 0.0062239214 0)
(-1.4450958e-05 0.0061962835 0)
(-1.7014729e-05 0.0061353265 0)
(-1.7035608e-05 0.0060138104 0)
(-1.4687562e-05 0.005788913 0)
(-1.0668184e-05 0.0053946811 0)
(-6.0600215e-06 0.0047261327 0)
(-2.0690025e-06 0.0036043843 0)
(-2.0942106e-07 0.0017037592 0)
(7.1799327e-08 0.0017030096 0)
(1.0683257e-06 0.0036021297 0)
(3.4047309e-06 0.0047229179 0)
(6.2582959e-06 0.0053913232 0)
(8.8860989e-06 0.0057863267 0)
(1.0552192e-05 0.0060127515 0)
(1.0729475e-05 0.0061362007 0)
(9.2321784e-06 0.0061990779 0)
(6.2299975e-06 0.0062282356 0)
(2.1990476e-06 0.0062392786 0)
(-2.1987499e-06 0.0062392782 0)
(-6.2296741e-06 0.0062282345 0)
(-9.2318674e-06 0.0061990768 0)
(-1.0729128e-05 0.0061361995 0)
(-1.05516e-05 0.006012751 0)
(-8.885391e-06 0.0057863272 0)
(-6.2573876e-06 0.0053913253 0)
(-3.403939e-06 0.0047229207 0)
(-1.0681974e-06 0.003602132 0)
(-7.1897534e-08 0.0017030103 0)
(9.2497762e-12 0.0017026592 0)
(4.9372631e-07 0.003600879 0)
(1.8184953e-06 0.0047210066 0)
(3.5489219e-06 0.0053892165 0)
(5.2351011e-06 0.0057846061 0)
(6.3874083e-06 0.0060119416 0)
(6.6243747e-06 0.0061366186 0)
(5.7800566e-06 0.0062007618 0)
(3.9354801e-06 0.0062309441 0)
(1.3947793e-06 0.0062425546 0)
(-1.3954109e-06 0.0062425543 0)
(-3.9359619e-06 0.0062309434 0)
(-5.7806239e-06 0.0062007608 0)
(-6.625002e-06 0.0061366175 0)
(-6.3876382e-06 0.0060119409 0)
(-5.234621e-06 0.0057846065 0)
(-3.5483277e-06 0.0053892185 0)
(-1.8180982e-06 0.0047210092 0)
(-4.9360202e-07 0.0036008814 0)
(-5.1588718e-11 0.00170266 0)
(-3.4739428e-08 0.0017025296 0)
(1.747937e-07 0.0036002227 0)
(8.9370144e-07 0.0047199012 0)
(1.9175732e-06 0.0053879197 0)
(2.9800283e-06 0.0057834818 0)
(3.7614989e-06 0.0060113449 0)
(3.9930585e-06 0.0061367868 0)
(3.5396935e-06 0.0062017486 0)
(2.4340919e-06 0.0062326086 0)
(8.6665005e-07 0.0062445985 0)
(-8.6744017e-07 0.0062445982 0)
(-2.4351552e-06 0.0062326079 0)
(-3.5408355e-06 0.0062017476 0)
(-3.9939972e-06 0.006136786 0)
(-3.7622471e-06 0.0060113446 0)
(-2.9804668e-06 0.005783482 0)
(-1.9175405e-06 0.0053879214 0)
(-8.9349874e-07 0.0047199038 0)
(-1.7528325e-07 0.003600225 0)
(3.4278916e-08 0.0017025308 0)
(-4.7576654e-08 0.0017025177 0)
(8.6323811e-09 0.0035999088 0)
(3.7238486e-07 0.004719286 0)
(9.6010947e-07 0.0053871384 0)
(1.6174322e-06 0.0057827586 0)
(2.1384107e-06 0.0060109168 0)
(2.3381418e-06 0.0061368249 0)
(2.1128338e-06 0.006202306 0)
(1.4697927e-06 0.0062336059 0)
(5.2583442e-07 0.0062458452 0)
(-5.2744869e-07 0.0062458447 0)
(-1.4713383e-06 0.0062336051 0)
(-2.1143286e-06 0.0062023051 0)
(-2.3396686e-06 0.0061368244 0)
(-2.1396498e-06 0.0060109167 0)
(-1.6181841e-06 0.0057827591 0)
(-9.6053118e-07 0.0053871402 0)
(-3.7247628e-07 0.0047192885 0)
(-9.0067498e-09 0.0035999111 0)
(4.7242023e-08 0.001702519 0)
(-4.8271212e-08 0.0017025637 0)
(-6.8745581e-08 0.0035997832 0)
(9.3361472e-08 0.0047189615 0)
(4.1753011e-07 0.0053866797 0)
(8.1606957e-07 0.0057823011 0)
(1.1586071e-06 0.006010616 0)
(1.3197675e-06 0.0061368012 0)
(1.2225007e-06 0.0062026052 0)
(8.6272636e-07 0.0062341855 0)
(3.1037988e-07 0.0062465855 0)
(-3.1250202e-07 0.006246585 0)
(-8.6492479e-07 0.0062341845 0)
(-1.2246262e-06 0.0062026044 0)
(-1.3216896e-06 0.0061368006 0)
(-1.160278e-06 0.0060106158 0)
(-8.174733e-07 0.0057823017 0)
(-4.1841582e-07 0.0053866814 0)
(-9.3561844e-08 0.0047189639 0)
(6.8519623e-08 0.0035997858 0)
(4.8043853e-08 0.0017025651 0)
(-4.2072041e-08 0.0017026274 0)
(-9.5150301e-08 0.0035997625 0)
(-4.3016131e-08 0.0047188027 0)
(1.2628731e-07 0.005386419 0)
(3.6280401e-07 0.0057820165 0)
(5.8474349e-07 0.0060104081 0)
(7.0882149e-07 0.0061367531 0)
(6.7983014e-07 0.0062027539 0)
(4.8903765e-07 0.0062345093 0)
(1.7671029e-07 0.0062470113 0)
(-1.7997443e-07 0.006247011 0)
(-4.9185393e-07 0.0062345083 0)
(-6.8287615e-07 0.0062027529 0)
(-7.1169001e-07 0.0061367522 0)
(-5.8718154e-07 0.0060104074 0)
(-3.649228e-07 0.0057820169 0)
(-1.2812332e-07 0.0053864203 0)
(4.1937395e-08 0.004718805 0)
(9.4702505e-08 0.0035997648 0)
(4.1853668e-08 0.0017026292 0)
(-3.3354496e-08 0.001702691 0)
(-9.3000774e-08 0.0035997894 0)
(-9.5223979e-08 0.0047187382 0)
(-1.4409285e-08 0.0053862756 0)
(1.2243285e-07 0.0057818426 0)
(2.6403502e-07 0.0060102667 0)
(3.5586677e-07 0.0061367005 0)
(3.5926788e-07 0.0062028186 0)
(2.6531107e-07 0.0062346811 0)
(9.644964e-08 0.0062472468 0)
(-1.0031335e-07 0.0062472464 0)
(-2.6907977e-07 0.0062346801 0)
(-3.6302542e-07 0.0062028172 0)
(-3.5920138e-07 0.0061366992 0)
(-2.6689687e-07 0.0060102653 0)
(-1.2482452e-07 0.0057818423 0)
(1.2248222e-08 0.0053862762 0)
(9.3923328e-08 0.00471874 0)
(9.2547889e-08 0.0035997911 0)
(3.3125043e-08 0.0017026929 0)
(-2.4083029e-08 0.001702745 0)
(-7.5615938e-08 0.0035998307 0)
(-9.820897e-08 0.0047187227 0)
(-6.5582533e-08 0.005386201 0)
(1.0382307e-08 0.0057817386 0)
(9.8755e-08 0.0060101725 0)
(1.635897e-07 0.0061366533 0)
(1.7895637e-07 0.0062028394 0)
(1.3698872e-07 0.0062347666 0)
(4.9589909e-08 0.0062473712 0)
(-5.471265e-08 0.0062473705 0)
(-1.4166349e-07 0.0062347655 0)
(-1.8346185e-07 0.0062028377 0)
(-1.6764777e-07 0.0061366515 0)
(-1.0200279e-07 0.0060101704 0)
(-1.3354413e-08 0.005781737 0)
(6.3111153e-08 0.0053862004 0)
(9.6763701e-08 0.0047187231 0)
(7.490923e-08 0.0035998316 0)
(2.3880197e-08 0.0017027463 0)
(-1.4495267e-08 0.0017027847 0)
(-4.9750843e-08 0.0035998686 0)
(-7.2574409e-08 0.0047187277 0)
(-6.3214487e-08 0.0053861661 0)
(-2.4335921e-08 0.0057816786 0)
(2.747923e-08 0.0060101124 0)
(7.0037164e-08 0.006136617 0)
(8.5722901e-08 0.0062028414 0)
(6.848628e-08 0.0062348066 0)
(2.4272212e-08 0.0062474341 0)
(-3.0100074e-08 0.0062474337 0)
(-7.3958606e-08 0.0062348055 0)
(-9.1033903e-08 0.0062028395 0)
(-7.4876911e-08 0.0061366148 0)
(-3.1936381e-08 0.0060101098 0)
(2.0659757e-08 0.0057816762 0)
(6.0605102e-08 0.0053861646 0)
(7.1047766e-08 0.0047187268 0)
(4.9246431e-08 0.0035998689 0)
(1.4420438e-08 0.0017027856 0)
(-3.2798708e-09 0.00170281 0)
(-1.6038904e-08 0.0035998974 0)
(-2.7498068e-08 0.0047187429 0)
(-2.769756e-08 0.0053861596 0)
(-1.1703553e-08 0.0057816543 0)
(1.359272e-08 0.0060100847 0)
(3.6435907e-08 0.0061366004 0)
(4.559371e-08 0.0062028455 0)
(3.6255809e-08 0.0062348323 0)
(1.1813026e-08 0.0062474732 0)
(-1.8395159e-08 0.0062474727 0)
(-4.2679336e-08 0.0062348309 0)
(-5.1722854e-08 0.0062028433 0)
(-4.2200998e-08 0.0061365975 0)
(-1.8889265e-08 0.0060100811 0)
(7.3574551e-09 0.0057816512 0)
(2.4529507e-08 0.0053861569 0)
(2.5818113e-08 0.0047187411 0)
(1.5604544e-08 0.0035998969 0)
(3.2908224e-09 0.0017028107 0)
(1.4659232e-08 0.0017027968 0)
(3.191434e-08 0.0035998877 0)
(3.6445397e-08 0.0047187376 0)
(3.1141503e-08 0.0053861487 0)
(2.9790902e-08 0.0057816345 0)
(3.3912661e-08 0.0060100611 0)
(3.8408503e-08 0.0061365814 0)
(3.7013199e-08 0.0062028367 0)
(2.6236203e-08 0.0062348352 0)
(7.3341225e-09 0.0062474838 0)
(-1.4714813e-08 0.0062474829 0)
(-3.3533937e-08 0.0062348337 0)
(-4.4092989e-08 0.0062028341 0)
(-4.4950059e-08 0.0061365777 0)
(-3.978104e-08 0.0060100567 0)
(-3.4680838e-08 0.0057816304 0)
(-3.4552208e-08 0.0053861448 0)
(-3.8328222e-08 0.0047187344 0)
(-3.2673392e-08 0.0035998861 0)
(-1.4761248e-08 0.001702797 0)
(4.2547917e-08 0.0017026883 0)
(9.6145151e-08 0.0035997684 0)
(1.1181782e-07 0.0047186364 0)
(9.989613e-08 0.005386052 0)
(8.395252e-08 0.0057815333 0)
(7.0571905e-08 0.0060099553 0)
(5.8670811e-08 0.0061364752 0)
(4.5412955e-08 0.0062027338 0)
(2.8221386e-08 0.0062347374 0)
(7.1398979e-09 0.0062473894 0)
(-1.5297061e-08 0.0062473888 0)
(-3.6140405e-08 0.006234736 0)
(-5.3281261e-08 0.0062027312 0)
(-6.6015735e-08 0.0061364709 0)
(-7.6798446e-08 0.0060099501 0)
(-8.8928981e-08 0.005781528 0)
(-1.035587e-07 0.0053860466 0)
(-1.1395508e-07 0.0047186317 0)
(-9.6964712e-08 0.0035997652 0)
(-4.2790122e-08 0.0017026883 0)
(5.4365215e-08 0.0017026426 0)
(1.2885783e-07 0.0035998184 0)
(1.5233552e-07 0.0047187625 0)
(1.4135788e-07 0.005386213 0)
(1.206661e-07 0.0057817053 0)
(9.9164102e-08 0.0060101291 0)
(7.7948336e-08 0.0061366498 0)
(5.6134555e-08 0.0062029115 0)
(3.2983447e-08 0.0062349176 0)
(8.2803323e-09 0.0062475721 0)
(-1.7147148e-08 0.0062475719 0)
(-4.1816442e-08 0.0062349162 0)
(-6.4851721e-08 0.0062029087 0)
(-8.5883612e-08 0.0061366447 0)
(-1.0578229e-07 0.0060101225 0)
(-1.2595531e-07 0.005781698 0)
(-1.4513668e-07 0.0053862055 0)
(-1.5464907e-07 0.0047187563 0)
(-1.2989608e-07 0.0035998133 0)
(-5.4627871e-08 0.0017026422 0)
)
;

boundaryField
{
    Wall
    {
        type            fixedValue;
        value           uniform (0 0 0);
    }
    frontAndBack
    {
        type            empty;
    }
    atmosphere
    {
        type            pressureInletOutletVelocity;
        value           nonuniform List<vector> 
20
(
(5.4365215e-08 0.0017026426 0)
(1.2885783e-07 0.0035998184 0)
(1.5233552e-07 0.0047187625 0)
(1.4135788e-07 0.005386213 0)
(1.206661e-07 0.0057817053 0)
(9.9164102e-08 0.0060101291 0)
(7.7948336e-08 0.0061366498 0)
(5.6134555e-08 0.0062029115 0)
(3.2983447e-08 0.0062349176 0)
(8.2803323e-09 0.0062475721 0)
(-1.7147148e-08 0.0062475719 0)
(-4.1816442e-08 0.0062349162 0)
(-6.4851721e-08 0.0062029087 0)
(-8.5883612e-08 0.0061366447 0)
(-1.0578229e-07 0.0060101225 0)
(-1.2595531e-07 0.005781698 0)
(-1.4513668e-07 0.0053862055 0)
(-1.5464907e-07 0.0047187563 0)
(-1.2989608e-07 0.0035998133 0)
(-5.4627871e-08 0.0017026422 0)
)
;
    }
}


// ************************************************************************* //
