/*--------------------------------*- C++ -*----------------------------------*\
| =========                 |                                                 |
| \\      /  F ield         | OpenFOAM: The Open Source CFD Toolbox           |
|  \\    /   O peration     | Version:  3.0.1                                 |
|   \\  /    A nd           | Web:      www.OpenFOAM.org                      |
|    \\/     M anipulation  |                                                 |
\*---------------------------------------------------------------------------*/
FoamFile
{
    version     2.0;
    format      ascii;
    class       volScalarField;
    location    "21";
    object      wBA_g;
}
// * * * * * * * * * * * * * * * * * * * * * * * * * * * * * * * * * * * * * //

dimensions      [0 0 0 0 0 0 0];

internalField   nonuniform List<scalar> 
800
(
0.040588056
0.040592157
0.040592841
0.040592995
0.040593085
0.040593159
0.040593222
0.040593269
0.0405933
0.040593315
0.040593315
0.0405933
0.040593269
0.040593222
0.04059316
0.040593085
0.040592995
0.040592841
0.040592157
0.040588056
0.043403125
0.043430403
0.043431866
0.043431009
0.043429802
0.043428994
0.043428534
0.043428298
0.043428184
0.043428139
0.043428139
0.043428184
0.043428297
0.043428533
0.043428994
0.043429801
0.043431008
0.043431865
0.043430402
0.043403123
0.043197648
0.043260104
0.043316181
0.043316001
0.043314403
0.043313564
0.043313442
0.043313679
0.04331396
0.043314137
0.043314137
0.043313959
0.043313677
0.04331344
0.043313561
0.0433144
0.043315998
0.043316178
0.043260101
0.043197643
0.04075108
0.040885041
0.040965708
0.040963637
0.040961462
0.040960877
0.040961468
0.040962589
0.040963535
0.040964085
0.040964084
0.040963533
0.040962586
0.040961465
0.040960874
0.040961458
0.040963633
0.040965705
0.040885037
0.040751073
0.036896502
0.037120232
0.03718945
0.037255866
0.037251992
0.037251253
0.037252391
0.037254335
0.037255909
0.03725683
0.03725683
0.037255907
0.037254332
0.037252387
0.037251248
0.037251986
0.03725586
0.037189445
0.037120226
0.036896493
0.032193218
0.032603718
0.032636927
0.032727635
0.032719779
0.032717701
0.03271864
0.032720845
0.032722705
0.032723832
0.032723831
0.032722703
0.032720842
0.032718635
0.032717696
0.032719773
0.032727629
0.032636921
0.03260371
0.032193207
0.026558552
0.027274105
0.027276779
0.027345886
0.027333138
0.027328915
0.027328949
0.027330775
0.027332495
0.027333587
0.027333586
0.027332493
0.027330772
0.027328945
0.02732891
0.027333131
0.027345879
0.027276772
0.027274096
0.026558542
0.018676949
0.019589246
0.019909399
0.019950287
0.019937296
0.019933059
0.019933076
0.01993475
0.01993636
0.019937365
0.019937365
0.019936359
0.019934747
0.019933072
0.019933054
0.01993729
0.019950281
0.019909392
0.019589239
0.01867694
0.0080851366
0.0086654625
0.0088504915
0.0088886081
0.0088880586
0.0088903928
0.008893608
0.0088966308
0.0088987863
0.0088999311
0.0088999308
0.0088987852
0.0088966289
0.0088936054
0.0088903897
0.0088880549
0.0088886041
0.0088504873
0.0086654577
0.0080851308
0.0039145859
0.0041851825
0.0042546878
0.0042824008
0.0042860083
0.0042897577
0.0042929536
0.0042954316
0.0042970472
0.0042978637
0.0042978635
0.0042970465
0.0042954304
0.0042929521
0.0042897558
0.0042860062
0.0042823985
0.0042546854
0.0041851798
0.0039145825
0.0021165524
0.0022450362
0.0022794655
0.0022984776
0.0023025806
0.0023056599
0.00230786
0.0023094209
0.0023103797
0.0023108491
0.002310849
0.0023103793
0.0023094201
0.0023078591
0.0023056588
0.0023025794
0.0022984763
0.0022794643
0.0022450348
0.0021165506
0.001138992
0.0012324613
0.0012657067
0.0012804454
0.0012839445
0.0012855988
0.0012864893
0.0012870535
0.0012873672
0.0012875063
0.0012875062
0.0012873669
0.0012870531
0.0012864888
0.0012855983
0.001283944
0.0012804448
0.0012657062
0.0012324608
0.0011389912
0.00054750914
0.00064477305
0.00068375753
0.00069733184
0.00069953006
0.00069907978
0.00069821697
0.00069755007
0.00069711439
0.00069688306
0.00069688299
0.00069711421
0.00069754979
0.00069821668
0.00069907949
0.00069952979
0.00069733156
0.00068375729
0.00064477285
0.00054750896
0.00020542696
0.00031740173
0.00036195233
0.00037656551
0.00037811637
0.00037582156
0.00037313636
0.00037108658
0.00036977695
0.0003691185
0.00036911844
0.00036977682
0.00037108637
0.00037313617
0.00037582138
0.00037811622
0.00037656537
0.00036195222
0.00031740167
0.00020542698
5.5889815e-05
0.00014315717
0.00018485557
0.00020031818
0.00020278558
0.00020047748
0.00019727684
0.0001946334
0.00019287656
0.00019198735
0.0001919873
0.00019287644
0.00019463324
0.0001972767
0.00020047737
0.00020278549
0.00020031812
0.00018485552
0.00014315715
5.5889832e-05
1.1220661e-05
5.8495104e-05
8.9589596e-05
0.00010331082
0.00010660695
0.00010531337
0.00010276152
0.0001004406
9.8824593e-05
9.7991658e-05
9.7991616e-05
9.8824498e-05
0.00010044047
0.00010276142
0.00010531329
0.0001066069
0.00010331079
8.9589571e-05
5.8495094e-05
1.1220664e-05
1.7641354e-06
2.1555096e-05
4.0847183e-05
5.1090104e-05
5.4346546e-05
5.3999094e-05
5.2406841e-05
5.0786736e-05
4.9603692e-05
4.8981727e-05
4.8981695e-05
4.9603622e-05
5.0786639e-05
5.2406763e-05
5.3999042e-05
5.4346516e-05
5.1090095e-05
4.0847175e-05
2.1555094e-05
1.7641358e-06
2.3201923e-07
7.1810536e-06
1.7462385e-05
2.4083849e-05
2.6675351e-05
2.6837472e-05
2.6012719e-05
2.5048098e-05
2.4307959e-05
2.3911085e-05
2.3911063e-05
2.4307911e-05
2.504803e-05
2.6012665e-05
2.6837437e-05
2.6675333e-05
2.4083846e-05
1.7462383e-05
7.1810543e-06
2.3201932e-07
2.6924468e-08
2.182276e-06
7.0019605e-06
1.0797098e-05
1.2557956e-05
1.286928e-05
1.2510151e-05
1.2002332e-05
1.1591072e-05
1.1366077e-05
1.1366063e-05
1.1591042e-05
1.2002289e-05
1.2510116e-05
1.2869257e-05
1.2557945e-05
1.0797099e-05
7.0019608e-06
2.182277e-06
2.6924498e-08
2.8585786e-09
6.1198843e-07
2.6405891e-06
4.603487e-06
5.6612313e-06
5.9387677e-06
5.8116377e-06
5.5706632e-06
5.3630582e-06
5.2470463e-06
5.2470381e-06
5.3630404e-06
5.5706375e-06
5.8116163e-06
5.9387541e-06
5.661225e-06
4.6034881e-06
2.6405898e-06
6.1198906e-07
2.8585853e-09
2.8402679e-10
1.6012488e-07
9.4032622e-07
1.8692432e-06
2.4436314e-06
2.6343036e-06
2.603236e-06
2.4991505e-06
2.4025881e-06
2.3473616e-06
2.347357e-06
2.4025783e-06
2.4991361e-06
2.603224e-06
2.6342959e-06
2.4436279e-06
1.8692442e-06
9.4032681e-07
1.6012516e-07
2.8402786e-10
2.6772441e-11
3.9443161e-08
3.1755723e-07
7.2433607e-07
1.0106964e-06
1.1230034e-06
1.123411e-06
1.0823678e-06
1.0406031e-06
1.0160851e-06
1.0160827e-06
1.040598e-06
1.0823603e-06
1.1234047e-06
1.1229994e-06
1.0106945e-06
7.2433662e-07
3.1755759e-07
3.9443255e-08
2.6772586e-11
2.4135178e-12
9.2106235e-09
1.0211762e-07
2.6848006e-07
4.0104907e-07
4.6028721e-07
4.669842e-07
4.5226988e-07
4.3537098e-07
4.2514794e-07
4.2514682e-07
4.3536849e-07
4.5226617e-07
4.6698107e-07
4.6028523e-07
4.0104812e-07
2.6848032e-07
1.021178e-07
9.2106527e-09
2.4135347e-12
2.0908887e-13
2.049615e-09
3.1382348e-08
9.5407175e-08
1.5289457e-07
1.8153434e-07
1.8704163e-07
1.8231726e-07
1.7589639e-07
1.7187271e-07
1.718722e-07
1.7589524e-07
1.8231554e-07
1.8704016e-07
1.8153342e-07
1.5289412e-07
9.5407286e-08
3.1382424e-08
2.049623e-09
2.0909069e-13
1.7457043e-14
4.3635414e-10
9.2455704e-09
3.2575434e-08
5.6086558e-08
6.8962218e-08
7.2230008e-08
7.0924469e-08
6.862927e-08
6.7128945e-08
6.7128726e-08
6.8628766e-08
7.0923713e-08
7.2229354e-08
6.8961813e-08
5.6086359e-08
3.2575475e-08
9.2455996e-09
4.363562e-10
1.7457228e-14
1.407085e-15
8.9153383e-11
2.618274e-09
1.0707949e-08
1.9826382e-08
2.5262162e-08
2.6915095e-08
2.6640802e-08
2.5869047e-08
2.5337752e-08
2.5337662e-08
2.5868837e-08
2.6640486e-08
2.6914818e-08
2.5261993e-08
1.9826297e-08
1.0707962e-08
2.6182844e-09
8.9153893e-11
1.4071029e-15
1.0961012e-16
1.7525868e-11
7.1441137e-10
3.3948266e-09
6.7633829e-09
8.9337637e-09
9.6866965e-09
9.6694011e-09
9.4259456e-09
9.2470078e-09
9.2469729e-09
9.4258611e-09
9.6692741e-09
9.6865846e-09
8.9336955e-09
6.7633485e-09
3.3948303e-09
7.1441475e-10
1.7525985e-11
1.0961178e-16
8.2581203e-18
3.3222421e-12
1.8820715e-10
1.0397752e-09
2.2294689e-09
3.0534807e-09
3.3703875e-09
3.3940096e-09
3.322425e-09
3.2650845e-09
3.2650713e-09
3.3223924e-09
3.3939607e-09
3.370344e-09
3.0534543e-09
2.2294556e-09
1.0397761e-09
1.8820819e-10
3.3222676e-12
8.2582682e-18
6.0208708e-19
6.0852671e-13
4.796143e-11
3.0812152e-10
7.1104492e-10
1.0097818e-09
1.1348348e-09
1.1530983e-09
1.1337422e-09
1.1162726e-09
1.1162678e-09
1.1337301e-09
1.1530803e-09
1.1348185e-09
1.0097718e-09
7.1103992e-10
3.0812163e-10
4.7961728e-11
6.0853201e-13
6.0209955e-19
4.2832876e-20
1.0791255e-13
1.1842947e-11
8.8462089e-11
2.1966035e-10
3.2343133e-10
3.7012405e-10
3.7952408e-10
3.7484876e-10
3.6980013e-10
3.6979844e-10
3.7484443e-10
3.7951766e-10
3.7011817e-10
3.2342767e-10
2.1965854e-10
8.8462057e-11
1.1843026e-11
1.0791358e-13
4.2832239e-20
1.5278774e-20
1.8562697e-14
2.838073e-12
2.4636782e-11
6.5800108e-11
1.0043416e-10
1.1703553e-10
1.21116e-10
1.2017951e-10
1.1880178e-10
1.188012e-10
1.20178e-10
1.211138e-10
1.1703348e-10
1.0043286e-10
6.5799473e-11
2.4636748e-11
2.8380925e-12
1.8562883e-14
1.5095765e-20
7.8402023e-21
3.1033936e-15
6.6101924e-13
6.6633481e-12
1.9131318e-11
3.0263439e-11
3.5909858e-11
3.7506311e-11
3.7391576e-11
3.7039501e-11
3.703931e-11
3.7391068e-11
3.7505576e-11
3.5909164e-11
3.0262987e-11
1.9131104e-11
6.6633296e-12
6.6102367e-13
3.1034308e-15
7.8499877e-21
1.8564585e-21
5.0557542e-16
1.4983359e-13
1.7519698e-12
5.4037216e-12
8.8563516e-12
1.0699869e-11
1.1279159e-11
1.1298037e-11
1.1215099e-11
1.1215037e-11
1.1297872e-11
1.1278923e-11
1.0699641e-11
8.8561992e-12
5.4036513e-12
1.7519618e-12
1.4983453e-13
5.0557767e-16
1.8581744e-21
3.1731558e-22
8.0400573e-17
3.3093621e-14
4.4821396e-13
1.4839606e-12
2.5189725e-12
3.0983321e-12
3.2962721e-12
3.3175119e-12
3.3000842e-12
3.3000652e-12
3.3174596e-12
3.296198e-12
3.0982596e-12
2.5189227e-12
1.4839382e-12
4.4821102e-13
3.3093767e-14
8.0400044e-17
3.1764049e-22
4.4163982e-23
1.25005e-17
7.1299142e-15
1.1166772e-13
3.9650764e-13
6.9683098e-13
8.7247189e-13
9.3674812e-13
9.4726849e-13
9.4427057e-13
9.4426482e-13
9.4725245e-13
9.3672556e-13
8.7244942e-13
6.9681519e-13
3.9650072e-13
1.116667e-13
7.1299278e-15
1.2500048e-17
4.4171682e-23
5.0515549e-24
1.9024102e-18
1.4997968e-15
2.7112572e-14
1.0314989e-13
1.8760445e-13
2.3906322e-13
2.5901897e-13
2.631678e-13
2.6288195e-13
2.6288025e-13
2.6316304e-13
2.590123e-13
2.3905646e-13
1.8759961e-13
1.0314782e-13
2.7112245e-14
1.4997941e-15
1.9022703e-18
5.0608136e-24
3.9963151e-25
2.8355215e-19
3.0827124e-16
6.4193786e-15
2.614172e-14
4.9183763e-14
6.377531e-14
6.9724058e-14
7.1173457e-14
7.1242729e-14
7.1242245e-14
7.1172082e-14
6.9722136e-14
6.3773336e-14
4.9182323e-14
2.6141119e-14
6.4192795e-15
3.082693e-16
2.8351388e-19
4.0038903e-25
2.2053304e-26
4.1468147e-20
6.1956598e-17
1.4829958e-15
6.4577606e-15
1.2562957e-14
1.6572601e-14
1.8280558e-14
1.8747203e-14
1.8803553e-14
1.8803417e-14
1.8746816e-14
1.828002e-14
1.657204e-14
1.2562541e-14
6.4575897e-15
1.4829678e-15
6.1956041e-17
4.1461902e-20
2.1988467e-26
1.2172477e-27
5.9640447e-21
1.2182796e-17
3.3444598e-16
1.5556926e-15
3.1279655e-15
4.1968992e-15
4.6703338e-15
4.811481e-15
4.8355599e-15
4.835523e-15
4.8113754e-15
4.6701867e-15
4.1967444e-15
3.1278492e-15
1.5556455e-15
3.344383e-16
1.2182649e-17
5.9631112e-21
1.2071555e-27
6.8323086e-29
8.4423177e-22
2.3447694e-18
7.3661072e-17
3.6563882e-16
7.5949195e-16
1.03622e-15
1.163159e-15
1.2037092e-15
1.2120916e-15
1.2120819e-15
1.2036811e-15
1.1631199e-15
1.0361785e-15
7.5946039e-16
3.6562617e-16
7.3659038e-17
2.3447327e-18
8.4409773e-22
6.7511765e-29
)
;

boundaryField
{
    Wall
    {
        type            zeroGradient;
    }
    frontAndBack
    {
        type            empty;
    }
    atmosphere
    {
        type            zeroGradient;
    }
}


// ************************************************************************* //
