/*--------------------------------*- C++ -*----------------------------------*\
| =========                 |                                                 |
| \\      /  F ield         | OpenFOAM: The Open Source CFD Toolbox           |
|  \\    /   O peration     | Version:  3.0.1                                 |
|   \\  /    A nd           | Web:      www.OpenFOAM.org                      |
|    \\/     M anipulation  |                                                 |
\*---------------------------------------------------------------------------*/
FoamFile
{
    version     2.0;
    format      ascii;
    class       volScalarField;
    location    "21";
    object      wBA_l_0;
}
// * * * * * * * * * * * * * * * * * * * * * * * * * * * * * * * * * * * * * //

dimensions      [0 0 0 0 0 0 0];

internalField   nonuniform List<scalar> 
800
(
0.053980019
0.053979389
0.053979337
0.05397934
0.053979344
0.053979345
0.053979345
0.053979344
0.053979343
0.053979343
0.053979343
0.053979344
0.053979344
0.053979345
0.053979345
0.053979344
0.05397934
0.053979337
0.053979389
0.053980018
0.054560993
0.054546423
0.054543863
0.054543333
0.054543125
0.054542929
0.054542731
0.054542561
0.05454244
0.054542378
0.054542378
0.05454244
0.054542562
0.054542732
0.054542929
0.054543125
0.054543333
0.054543862
0.054546423
0.054560992
0.053659019
0.053662206
0.053663197
0.053662883
0.053662268
0.053661767
0.053661417
0.053661196
0.053661068
0.053661012
0.053661012
0.053661068
0.053661196
0.053661417
0.053661766
0.053662268
0.053662882
0.053663196
0.053662205
0.053659018
0.051620446
0.051661118
0.0516678
0.051667134
0.051665981
0.051665111
0.051664637
0.051664422
0.051664335
0.051664311
0.051664311
0.051664335
0.051664421
0.051664637
0.05166511
0.05166598
0.051667133
0.0516678
0.051661118
0.051620445
0.048760424
0.048853786
0.048866953
0.048866178
0.048864515
0.048863356
0.048862838
0.04886268
0.048862664
0.048862686
0.048862686
0.048862664
0.04886268
0.048862837
0.048863356
0.048864515
0.048866177
0.048866953
0.048853786
0.048760423
0.045323317
0.045483796
0.045506048
0.045506304
0.045504556
0.04550345
0.04550307
0.045503034
0.045503118
0.045503193
0.045503193
0.045503118
0.045503034
0.045503069
0.04550345
0.045504556
0.045506305
0.045506049
0.045483797
0.045323316
0.041462318
0.041707568
0.041745593
0.041749666
0.041749074
0.041748609
0.041748633
0.041748805
0.04174901
0.041749127
0.041749127
0.04174901
0.041748805
0.041748633
0.04174861
0.041749075
0.041749667
0.041745595
0.04170757
0.041462319
0.037238163
0.037588434
0.037656511
0.037670064
0.03767275
0.037673661
0.037674282
0.037674689
0.037674973
0.037675076
0.037675076
0.037674973
0.037674689
0.037674282
0.037673662
0.037672752
0.037670066
0.037656513
0.037588436
0.037238164
0.032679567
0.033166476
0.033289902
0.033322786
0.033331604
0.033334243
0.0333351
0.03333543
0.033335516
0.033335436
0.033335436
0.033335516
0.03333543
0.033335101
0.033334244
0.033331606
0.033322789
0.033289904
0.033166479
0.03267957
0.027665456
0.028344227
0.028570154
0.028639813
0.028658243
0.028661736
0.028661117
0.028660137
0.028659192
0.028658495
0.028658495
0.028659192
0.028660136
0.028661118
0.028661737
0.028658245
0.028639816
0.028570157
0.028344231
0.027665461
0.022236046
0.023142172
0.023550611
0.023688275
0.02372146
0.023722438
0.023715925
0.023710456
0.023706529
0.023704262
0.023704261
0.023706528
0.023710454
0.023715924
0.023722439
0.023721462
0.023688279
0.023550614
0.023142177
0.022236053
0.016096988
0.017515021
0.018259859
0.018538158
0.018603673
0.01859778
0.018576501
0.018559223
0.018547717
0.018541596
0.018541595
0.018547715
0.018559219
0.018576499
0.01859778
0.018603675
0.018538162
0.018259863
0.017515028
0.016096997
0.0097182469
0.011825163
0.012971661
0.013453813
0.013578372
0.013563034
0.013514581
0.013473659
0.013446804
0.013432987
0.013432985
0.013446801
0.013473653
0.013514579
0.013563034
0.013578373
0.013453815
0.012971664
0.01182517
0.0097182559
0.0043731089
0.0071817818
0.0086082724
0.0092435702
0.0094234503
0.0093988777
0.0093173049
0.0092441457
0.0091950571
0.0091699858
0.0091699831
0.0091950527
0.0092441385
0.0093173003
0.0093988753
0.0094234495
0.0092435707
0.0086082734
0.0071817856
0.0043731148
0.0013880532
0.0039159516
0.0053586349
0.006051769
0.0062720024
0.00625512
0.0061596441
0.0060665428
0.0060014094
0.0059677551
0.0059677522
0.006001404
0.0060665347
0.0061596384
0.0062551163
0.0062720002
0.0060517683
0.0053586345
0.0039159531
0.0013880553
0.00031945193
0.0019122241
0.0031161227
0.0037627682
0.0039969016
0.0040013282
0.0039177939
0.0038275744
0.0037614585
0.0037266613
0.0037266585
0.0037614531
0.0038275664
0.003917788
0.0040013241
0.0039968988
0.0037627669
0.0031161215
0.0019122242
0.00031945238
5.6950598e-05
0.00083351131
0.0016873259
0.002213929
0.0024308749
0.0024552361
0.0023967671
0.0023251243
0.0022700659
0.0022405265
0.0022405241
0.0022700611
0.0023251172
0.0023967615
0.0024552321
0.0024308719
0.0022139274
0.0016873247
0.00083351105
5.6950674e-05
8.4307036e-06
0.0003252566
0.00084997898
0.0012303441
0.0014077355
0.0014420077
0.0014083401
0.0013594921
0.0013200243
0.0012984457
0.0012984438
0.0013200204
0.0013594864
0.0014083354
0.0014420041
0.0014077329
0.0012303428
0.000849978
0.00032525638
8.4307172e-06
1.0947011e-06
0.00011477724
0.00039897557
0.00064573593
0.00077550745
0.00080953584
0.00079382874
0.00076443944
0.00073932997
0.00072533583
0.00072533446
0.0007393271
0.00076443521
0.00079382512
0.00080953308
0.00077550533
0.00064573492
0.00039897494
0.00011477712
1.0947038e-06
1.2936029e-07
3.711083e-05
0.0001751585
0.00032050596
0.0004064902
0.00043420367
0.00042888459
0.0004130441
0.00039858758
0.00039036366
0.00039036277
0.00039858564
0.00041304124
0.00042888204
0.00043420169
0.00040648866
0.0003205053
0.00017515815
3.7110782e-05
1.2936077e-07
1.4234963e-08
1.1133327e-05
7.2275215e-05
0.00015078519
0.000202936
0.00022255926
0.00022204475
0.00021434583
0.00020671813
0.00020227795
0.00020227741
0.00020671692
0.00021434401
0.0002220431
0.00022255796
0.00020293499
0.00015078478
7.2275039e-05
1.113331e-05
1.4235037e-08
1.4791797e-09
3.1318498e-06
2.8175012e-05
6.742194e-05
9.6642281e-05
0.00010909745
0.00011018345
0.00010681386
0.00010309541
0.000100872
0.00010087169
0.00010309469
0.00010681279
0.00011018245
0.00010909667
9.6641677e-05
6.7421706e-05
2.8174934e-05
3.1318434e-06
1.4791896e-09
1.4638177e-10
8.3298947e-07
1.0427057e-05
2.8732832e-05
4.397702e-05
5.1198292e-05
5.2432809e-05
5.1121089e-05
4.943792e-05
4.8398476e-05
4.8398308e-05
4.943752e-05
5.1120499e-05
5.2432248e-05
5.1197852e-05
4.3976685e-05
2.8732706e-05
1.0427025e-05
8.3298741e-07
1.4638297e-10
1.3869541e-11
2.1083784e-07
3.6790383e-06
1.1701623e-05
1.9156123e-05
2.3029942e-05
2.3946033e-05
2.3507625e-05
2.2798514e-05
2.2342769e-05
2.2342684e-05
2.2798305e-05
2.3507319e-05
2.3945736e-05
2.3029709e-05
1.915595e-05
1.1701559e-05
3.679026e-06
2.108372e-07
1.3869676e-11
1.2625954e-12
5.1042187e-08
1.2420876e-06
4.5651279e-06
8.001276e-06
9.9420463e-06
1.0505052e-05
1.0392262e-05
1.0114304e-05
9.9263405e-06
9.9262997e-06
1.0114201e-05
1.0392112e-05
1.0504903e-05
9.9419296e-06
8.0011925e-06
4.5650979e-06
1.2420831e-06
5.1042006e-08
1.2626098e-12
1.1070801e-13
1.1867032e-08
4.0245996e-07
1.7097148e-06
3.2097839e-06
4.1242795e-06
4.4311329e-06
4.419906e-06
4.3189172e-06
4.2458807e-06
4.2458621e-06
4.3188686e-06
4.419836e-06
4.4310623e-06
4.1242243e-06
3.2097458e-06
1.7097014e-06
4.0245834e-07
1.1866984e-08
1.1070948e-13
9.3686651e-15
2.6584332e-09
1.254657e-07
6.1582966e-07
1.2384833e-06
1.6460022e-06
1.7988984e-06
1.8099063e-06
1.7762148e-06
1.7494741e-06
1.7494661e-06
1.776193e-06
1.809875e-06
1.7988665e-06
1.6459772e-06
1.2384668e-06
6.1582402e-07
1.2546515e-07
2.6584212e-09
9.3688068e-15
7.6657124e-16
5.7540714e-10
3.7709263e-08
2.1367542e-07
4.6022644e-07
6.3271905e-07
7.0353942e-07
7.1415019e-07
7.0403958e-07
6.9482961e-07
6.9482623e-07
7.040302e-07
7.1413686e-07
7.0352564e-07
6.3270822e-07
4.6021961e-07
2.1367315e-07
3.770908e-08
5.7540423e-10
7.6658427e-16
6.0758129e-17
1.2061177e-10
1.0945194e-08
7.1515354e-08
1.6490329e-07
2.3449941e-07
2.6531246e-07
2.7174615e-07
2.6914791e-07
2.6617626e-07
2.661749e-07
2.6914405e-07
2.7174071e-07
2.6530676e-07
2.344949e-07
1.6490059e-07
7.1514486e-08
1.0945135e-08
1.2061109e-10
6.075925e-17
4.8251675e-18
2.4530154e-11
3.0722333e-09
2.3115661e-08
5.7032048e-08
8.3876296e-08
9.6558505e-08
9.9797429e-08
9.9309423e-08
9.8418625e-08
9.8418089e-08
9.9307896e-08
9.9795285e-08
9.6556242e-08
8.3874494e-08
5.7031018e-08
2.3115343e-08
3.072214e-09
2.4529999e-11
4.8245006e-18
3.5096241e-18
4.8482727e-12
8.3490641e-10
7.2230216e-09
1.9056777e-08
2.897919e-08
3.3942274e-08
3.5398635e-08
3.539189e-08
3.5147838e-08
3.5147635e-08
3.5391308e-08
3.5397822e-08
3.3941408e-08
2.8978496e-08
1.9056398e-08
7.2229086e-09
8.3490029e-10
4.8482366e-12
3.4827426e-18
2.5078622e-18
9.3243271e-13
2.1988034e-10
2.1838575e-09
6.1572977e-09
9.6791099e-09
1.1532963e-08
1.2136109e-08
1.2190754e-08
1.2131779e-08
1.2131705e-08
1.219054e-08
1.2135811e-08
1.1532644e-08
9.6788518e-09
6.1571628e-09
2.1838188e-09
2.1987842e-10
9.3242685e-13
2.517462e-18
7.0343999e-19
1.7479095e-13
5.6162028e-11
6.3938777e-10
1.9252063e-09
3.1276136e-09
3.7905524e-09
4.0243717e-09
4.0612543e-09
4.0498449e-09
4.0498187e-09
4.0611783e-09
4.0242664e-09
3.7904388e-09
3.1275211e-09
1.9251598e-09
6.3937497e-10
5.616145e-11
1.7478788e-13
7.0505325e-19
1.3884887e-19
3.1955219e-14
1.3922119e-11
1.8140272e-10
5.829343e-10
9.7841454e-10
1.2059238e-09
1.2916003e-09
1.3093964e-09
1.3083227e-09
1.3083138e-09
1.3093704e-09
1.2915643e-09
1.2058847e-09
9.7838254e-10
5.8291876e-10
1.8139865e-10
1.3921937e-11
3.1954195e-14
1.3917079e-19
2.2079222e-20
5.697805e-15
3.3513308e-12
4.9904566e-11
1.7104215e-10
2.9651674e-10
3.7159643e-10
4.0146036e-10
4.0881941e-10
4.0927913e-10
4.0927617e-10
4.0881082e-10
4.0144843e-10
3.7158342e-10
2.9650606e-10
1.7103711e-10
4.9903309e-11
3.3512754e-12
5.6974258e-15
2.2105759e-20
2.8537794e-21
9.9047925e-16
7.8376294e-13
1.3320102e-11
4.8662635e-11
8.7108421e-11
1.1097433e-10
1.2092138e-10
1.2368008e-10
1.2405365e-10
1.240527e-10
1.2367733e-10
1.2091756e-10
1.1097014e-10
8.7104978e-11
4.8661054e-11
1.3319723e-11
7.8374654e-13
9.9037175e-16
2.8619639e-21
2.4927383e-22
1.6771213e-16
1.7815169e-13
3.4512791e-12
1.3432277e-11
2.4820478e-11
3.2138549e-11
3.5315135e-11
3.6276508e-11
3.6453035e-11
3.645274e-11
3.6275657e-11
3.5313946e-11
3.2137243e-11
2.4819405e-11
1.3431795e-11
3.4511693e-12
1.781471e-13
1.6768319e-16
2.4989728e-22
1.5102901e-23
2.7683023e-17
3.9374508e-14
8.6852039e-13
3.5991889e-12
6.8634444e-12
9.0307988e-12
1.0005951e-11
1.0321678e-11
1.0390431e-11
1.0390342e-11
1.0321422e-11
1.0005593e-11
9.0304047e-12
6.8631207e-12
3.5990456e-12
8.6848973e-13
3.9373382e-14
2.7677944e-17
1.501031e-23
9.3041883e-25
4.4596387e-18
8.4651094e-15
2.1238247e-13
9.3667686e-13
1.8428465e-12
2.4635247e-12
2.7518842e-12
2.8504183e-12
2.8743782e-12
2.8743522e-12
2.8503439e-12
2.7517794e-12
2.4634094e-12
1.842752e-12
9.3663555e-13
2.1237409e-13
8.464842e-15
4.4588298e-18
9.2044299e-25
5.7586633e-26
7.0108297e-19
1.7709118e-15
5.0489239e-14
2.3687869e-13
4.8070218e-13
6.5274801e-13
7.3502734e-13
7.6441317e-13
7.7213459e-13
7.7212725e-13
7.6439213e-13
7.3499763e-13
6.5271528e-13
4.8067547e-13
2.3686713e-13
5.0487019e-14
1.7708494e-15
7.0095805e-19
5.6724633e-26
)
;

boundaryField
{
    Wall
    {
        type            zeroGradient;
    }
    frontAndBack
    {
        type            empty;
    }
    atmosphere
    {
        type            zeroGradient;
    }
}


// ************************************************************************* //
