/*--------------------------------*- C++ -*----------------------------------*\
| =========                 |                                                 |
| \\      /  F ield         | OpenFOAM: The Open Source CFD Toolbox           |
|  \\    /   O peration     | Version:  3.0.1                                 |
|   \\  /    A nd           | Web:      www.OpenFOAM.org                      |
|    \\/     M anipulation  |                                                 |
\*---------------------------------------------------------------------------*/
FoamFile
{
    version     2.0;
    format      ascii;
    class       volScalarField;
    location    "21";
    object      wBA_l;
}
// * * * * * * * * * * * * * * * * * * * * * * * * * * * * * * * * * * * * * //

dimensions      [0 0 0 0 0 0 0];

internalField   nonuniform List<scalar> 
800
(
0.053952306
0.053951668
0.053951615
0.053951619
0.053951623
0.053951624
0.053951624
0.053951624
0.053951624
0.053951623
0.053951623
0.053951624
0.053951624
0.053951625
0.053951625
0.053951623
0.053951619
0.053951615
0.053951668
0.053952305
0.054536229
0.054521542
0.054518963
0.054518436
0.054518233
0.054518042
0.054517848
0.054517681
0.054517561
0.054517499
0.054517499
0.054517561
0.054517681
0.054517848
0.054518042
0.054518233
0.054518435
0.054518963
0.054521542
0.054536229
0.053648316
0.053651228
0.053652179
0.053651872
0.053651266
0.053650771
0.053650424
0.053650205
0.053650078
0.053650021
0.053650021
0.053650078
0.053650205
0.053650424
0.053650771
0.053651266
0.053651871
0.053652178
0.053651227
0.053648315
0.051630702
0.051670925
0.051677571
0.051676933
0.051675795
0.05167493
0.051674458
0.051674242
0.051674155
0.051674131
0.051674131
0.051674155
0.051674242
0.051674458
0.05167493
0.051675794
0.051676933
0.05167757
0.051670924
0.051630701
0.048795597
0.048888313
0.04890145
0.04890071
0.048899063
0.048897909
0.048897391
0.048897232
0.048897215
0.048897235
0.048897235
0.048897214
0.048897231
0.04889739
0.048897909
0.048899063
0.04890071
0.04890145
0.048888313
0.048795596
0.045386076
0.045545578
0.045567744
0.045568021
0.045566282
0.045565175
0.045564792
0.045564755
0.045564839
0.045564913
0.045564913
0.045564839
0.045564755
0.045564792
0.045565175
0.045566282
0.045568022
0.045567745
0.045545579
0.045386076
0.041555661
0.041799334
0.041837064
0.041841082
0.041840471
0.041839993
0.041840009
0.041840179
0.041840384
0.041840502
0.041840502
0.041840384
0.041840179
0.041840009
0.041839993
0.041840472
0.041841084
0.041837066
0.041799335
0.041555662
0.037365389
0.037713387
0.037780948
0.037794277
0.037796878
0.037797752
0.03779836
0.037798766
0.037799052
0.037799159
0.037799159
0.037799052
0.037798766
0.03779836
0.037797753
0.037796879
0.037794279
0.037780949
0.037713389
0.037365391
0.032845833
0.033328367
0.033450178
0.03348248
0.033491103
0.03349369
0.03349455
0.033494895
0.033494996
0.033494927
0.033494927
0.033494996
0.033494894
0.033494551
0.033493692
0.033491105
0.033482483
0.03345018
0.03332837
0.032845836
0.027878093
0.028547518
0.028770033
0.028838326
0.028856418
0.028859914
0.028859391
0.028858492
0.028857609
0.028856948
0.028856947
0.028857609
0.028858492
0.028859391
0.028859915
0.02885642
0.028838329
0.028770036
0.028547522
0.027878098
0.022489285
0.023381031
0.023781836
0.023916494
0.023949075
0.023950283
0.023944132
0.023938934
0.023935184
0.02393301
0.023933009
0.023935183
0.023938932
0.023944131
0.023950284
0.023949077
0.023916497
0.023781839
0.023381036
0.022489292
0.016399959
0.017798651
0.018528647
0.018800955
0.018865393
0.018860144
0.018839776
0.018823193
0.018812123
0.018806222
0.01880622
0.018812121
0.018823189
0.018839774
0.018860144
0.018865395
0.018800958
0.01852865
0.017798657
0.016399968
0.010018691
0.012094585
0.013229945
0.013707035
0.013830576
0.013816262
0.013769285
0.013729562
0.013703473
0.013690035
0.013690033
0.01370347
0.013729556
0.013769283
0.013816261
0.013830577
0.013707037
0.013229947
0.012094591
0.010018699
0.0045887131
0.0073920903
0.0088177613
0.0094530368
0.0096333232
0.0096097259
0.0095293762
0.0094573046
0.0094089704
0.0093842773
0.0093842746
0.009408966
0.0094572974
0.0095293717
0.0096097236
0.0096333226
0.0094530376
0.0088177626
0.0073920942
0.004588719
0.0014838261
0.0040582067
0.005515304
0.0062140238
0.0064358903
0.0064191125
0.0063234489
0.0062302579
0.0061651288
0.0061314855
0.0061314826
0.0061651235
0.0062302499
0.0063234432
0.006419109
0.0064358883
0.0062140233
0.0055153038
0.0040582084
0.0014838283
0.00034717034
0.0019964912
0.0032242497
0.0038810544
0.0041182774
0.0041224439
0.0040375969
0.0039461357
0.0038791863
0.0038439633
0.0038439604
0.0038791808
0.0039461277
0.004037591
0.0041224398
0.0041182747
0.0038810531
0.0032242486
0.0019964913
0.00034717083
6.2719254e-05
0.00087713973
0.0017558667
0.0022946756
0.0025158854
0.0025402639
0.0024801855
0.0024068062
0.0023504823
0.002320274
0.0023202715
0.0023504774
0.002406799
0.0024801799
0.0025402598
0.0025158824
0.0022946742
0.0017558655
0.00087713949
6.2719339e-05
9.3810395e-06
0.0003449865
0.00088978549
0.0012817754
0.0014638513
0.0014986308
0.0014636502
0.0014131742
0.0013724485
0.0013501889
0.0013501869
0.0013724445
0.0014131683
0.0014636454
0.0014986272
0.0014638486
0.001281774
0.0008897845
0.00034498628
9.3810543e-06
1.2281493e-06
0.00012265465
0.00042018108
0.00067628381
0.00081037056
0.00084525044
0.00082872172
0.00079810766
0.00077199787
0.00075745081
0.00075744941
0.00077199493
0.00079810334
0.00082871803
0.00084524762
0.00081036841
0.00067628279
0.00042018043
0.00012265454
1.2281522e-06
1.4613731e-07
3.9935843e-05
0.00018556792
0.00033745746
0.00042688694
0.00045553511
0.00044981941
0.00043319177
0.00041805211
0.00040944282
0.0004094419
0.00041805012
0.00043318881
0.0004498168
0.00045553309
0.00042688537
0.00033745678
0.00018556756
3.9935793e-05
1.4613784e-07
1.6181026e-08
1.2059087e-05
7.7015224e-05
0.00015960383
0.00021419437
0.00023463401
0.00023399267
0.0002258493
0.00021780701
0.00021312778
0.00021312721
0.00021780575
0.00022584742
0.00023399097
0.00023463268
0.00021419334
0.00015960341
7.7015041e-05
1.2059069e-05
1.6181108e-08
1.6912154e-09
3.4130559e-06
3.0191701e-05
7.1740599e-05
0.00010252009
0.00011558488
0.00011667493
0.00011308238
0.000109136
0.00010677786
0.00010677753
0.00010913525
0.00011308126
0.0001166739
0.00011558407
0.00010251946
7.1740358e-05
3.019162e-05
3.4130494e-06
1.6912266e-09
1.6831379e-10
9.1304565e-07
1.1234204e-05
3.0732093e-05
4.688769e-05
5.4512732e-05
5.5794283e-05
5.4383278e-05
5.2585295e-05
5.147596e-05
5.1475783e-05
5.2584876e-05
5.4382659e-05
5.5793698e-05
5.4512273e-05
4.6887342e-05
3.0731962e-05
1.1234171e-05
9.1304354e-07
1.6831516e-10
1.6036968e-11
2.3237727e-07
3.9847362e-06
1.2579976e-05
2.0527048e-05
2.4643402e-05
2.5607355e-05
2.5130378e-05
2.4367929e-05
2.3878529e-05
2.3878438e-05
2.4367708e-05
2.5130055e-05
2.5607042e-05
2.4643157e-05
2.0526867e-05
1.257991e-05
3.9847232e-06
2.3237661e-07
1.6037123e-11
1.4680638e-12
5.6554153e-08
1.3521945e-06
4.9326399e-06
8.6170342e-06
1.0691909e-05
1.1289866e-05
1.1164699e-05
1.0863821e-05
1.0660728e-05
1.0660685e-05
1.0863712e-05
1.1164539e-05
1.1289708e-05
1.0691785e-05
8.6169461e-06
4.9326083e-06
1.3521897e-06
5.6553962e-08
1.4680805e-12
1.2944258e-13
1.321528e-08
4.4032997e-07
1.8566075e-06
3.4741534e-06
4.4576339e-06
4.7860498e-06
4.7721577e-06
4.6620654e-06
4.5826574e-06
4.5826375e-06
4.6620136e-06
4.7720829e-06
4.7859746e-06
4.4575752e-06
3.4741128e-06
1.8565933e-06
4.4032825e-07
1.3215229e-08
1.2944427e-13
1.1014944e-14
2.9749232e-09
1.37945e-07
6.7206215e-07
1.3472094e-06
1.7880061e-06
1.9527759e-06
1.9639879e-06
1.9269722e-06
1.8977134e-06
1.8977047e-06
1.9269487e-06
1.9639543e-06
1.9527417e-06
1.7879793e-06
1.3471917e-06
6.7205613e-07
1.379444e-07
2.9749103e-09
1.1015108e-14
9.0622585e-16
6.469411e-10
4.1660108e-08
2.3433849e-07
5.031391e-07
6.9077747e-07
7.6758937e-07
7.7887619e-07
7.6766463e-07
7.5752083e-07
7.5751716e-07
7.6765451e-07
7.7886179e-07
7.6757453e-07
6.9076584e-07
5.0313175e-07
2.3433606e-07
4.165991e-08
6.4693794e-10
9.0624101e-16
7.2213349e-17
1.3622291e-10
1.2149602e-08
7.8817302e-08
1.8118405e-07
2.5731523e-07
2.90941e-07
2.9788832e-07
2.9496964e-07
2.9167383e-07
2.9167234e-07
2.9496544e-07
2.978824e-07
2.9093482e-07
2.5731036e-07
1.8118112e-07
7.8816367e-08
1.2149537e-08
1.3622217e-10
7.2214669e-17
5.7328251e-18
2.7827392e-11
3.4264309e-09
2.5601153e-08
6.297802e-08
9.2505777e-08
1.0642838e-07
1.099603e-07
1.0939711e-07
1.0840159e-07
1.08401e-07
1.0939544e-07
1.0995796e-07
1.0642591e-07
9.2503819e-08
6.2976898e-08
2.5600807e-08
3.4264099e-09
2.782722e-11
5.7321875e-18
4.445904e-18
5.5236097e-12
9.3554647e-10
8.0390545e-09
2.1149813e-08
3.2124219e-08
3.7604625e-08
3.9205356e-08
3.9189128e-08
3.8913961e-08
3.8913738e-08
3.9188489e-08
3.9204463e-08
3.7603677e-08
3.212346e-08
2.1149397e-08
8.0389311e-09
9.3553982e-10
5.5235699e-12
4.389323e-18
3.0275707e-18
1.0667873e-12
2.4754327e-10
2.4425798e-09
6.8682156e-09
1.0784764e-08
1.2843676e-08
1.3511296e-08
1.356927e-08
1.3502002e-08
1.350192e-08
1.3569034e-08
1.3510967e-08
1.2843325e-08
1.0784481e-08
6.8680674e-09
2.4425374e-09
2.4754117e-10
1.0667805e-12
3.0314663e-18
8.4147807e-19
2.0082228e-13
6.3525459e-11
7.1868035e-10
2.1584357e-09
3.5029229e-09
4.2434043e-09
4.5039231e-09
4.544311e-09
4.5310345e-09
4.5310053e-09
4.5442266e-09
4.5038065e-09
4.2432786e-09
3.5028208e-09
2.1583843e-09
7.1866623e-10
6.3524823e-11
2.0081886e-13
8.4218547e-19
1.6622238e-19
3.6868429e-14
1.5821955e-11
2.0491471e-10
6.5690434e-10
1.1015311e-09
1.3570976e-09
1.45316e-09
1.4729189e-09
1.4715586e-09
1.4715486e-09
1.4728899e-09
1.4531198e-09
1.3570541e-09
1.1014956e-09
6.568871e-10
2.049102e-10
1.5821753e-11
3.6867269e-14
1.6636036e-19
2.6541784e-20
6.6014856e-15
3.8267864e-12
5.6655302e-11
1.9374025e-10
3.3557857e-10
4.2039562e-10
4.5408525e-10
4.6233515e-10
4.628116e-10
4.6280828e-10
4.6232551e-10
4.5407189e-10
4.2038106e-10
3.3556665e-10
1.9373463e-10
5.6653898e-11
3.8267245e-12
6.6010492e-15
2.6538437e-20
3.4559822e-21
1.1524468e-15
8.9924674e-13
1.519823e-11
5.5406497e-11
9.9104031e-11
1.2621784e-10
1.3750683e-10
1.4062433e-10
1.4103732e-10
1.4103624e-10
1.4062123e-10
1.3750252e-10
1.2621312e-10
9.9100168e-11
5.5404723e-11
1.5197805e-11
8.9922832e-13
1.152323e-15
3.4605085e-21
3.0711418e-22
1.9597779e-16
2.0538979e-13
3.9579079e-12
1.537367e-11
2.8388512e-11
3.6749548e-11
4.0376173e-11
4.1470441e-11
4.1669226e-11
4.1668892e-11
4.1469476e-11
4.0374826e-11
3.6748072e-11
2.8387301e-11
1.5373127e-11
3.9577838e-12
2.0538459e-13
1.959443e-16
3.074062e-22
1.8903411e-23
3.2487554e-17
4.5615976e-14
1.0011087e-12
4.1410454e-12
7.8920704e-12
1.0382336e-11
1.1502229e-11
1.186404e-11
1.194234e-11
1.1942238e-11
1.1863749e-11
1.1501821e-11
1.0381888e-11
7.8917029e-12
4.1408829e-12
1.0010739e-12
4.5614691e-14
3.2481655e-17
1.8822442e-23
1.1604301e-24
5.2564497e-18
9.8552465e-15
2.460658e-13
1.0833952e-12
2.1304389e-12
2.8476344e-12
3.1807446e-12
3.2943981e-12
3.3219261e-12
3.3218962e-12
3.2943128e-12
3.1806246e-12
2.8475025e-12
2.130331e-12
1.0833481e-12
2.4605625e-13
9.8549392e-15
5.2554937e-18
1.1491135e-24
7.175161e-26
8.3004028e-19
2.07198e-15
5.8800155e-14
2.7544127e-13
5.587293e-13
7.5865771e-13
8.5426419e-13
8.8837443e-13
8.9731436e-13
8.973059e-13
8.8835019e-13
8.5422998e-13
7.5862006e-13
5.5869862e-13
2.7542802e-13
5.8797608e-14
2.071908e-15
8.2989174e-19
7.0741703e-26
)
;

boundaryField
{
    Wall
    {
        type            zeroGradient;
    }
    frontAndBack
    {
        type            empty;
    }
    atmosphere
    {
        type            zeroGradient;
    }
}


// ************************************************************************* //
