/*--------------------------------*- C++ -*----------------------------------*\
| =========                 |                                                 |
| \\      /  F ield         | OpenFOAM: The Open Source CFD Toolbox           |
|  \\    /   O peration     | Version:  3.0.1                                 |
|   \\  /    A nd           | Web:      www.OpenFOAM.org                      |
|    \\/     M anipulation  |                                                 |
\*---------------------------------------------------------------------------*/
FoamFile
{
    version     2.0;
    format      ascii;
    class       volScalarField;
    location    "21";
    object      wCO2_l;
}
// * * * * * * * * * * * * * * * * * * * * * * * * * * * * * * * * * * * * * //

dimensions      [0 0 0 0 0 0 0];

internalField   nonuniform List<scalar> 
800
(
0.0032104705
0.0032104854
0.0032104885
0.0032104896
0.0032104902
0.0032104907
0.0032104911
0.0032104913
0.0032104915
0.0032104915
0.0032104916
0.0032104915
0.0032104913
0.0032104911
0.0032104907
0.0032104903
0.0032104896
0.0032104885
0.0032104854
0.0032104704
0.0031713897
0.003171303
0.0031716174
0.0031716227
0.00317157
0.0031715181
0.0031714838
0.0031714654
0.0031714569
0.0031714537
0.0031714537
0.0031714569
0.0031714654
0.0031714839
0.0031715181
0.0031715701
0.0031716227
0.0031716175
0.003171303
0.0031713897
0.0034246282
0.0034194413
0.0034165746
0.0034165249
0.0034165006
0.0034164518
0.0034164028
0.0034163635
0.0034163375
0.0034163245
0.0034163245
0.0034163376
0.0034163636
0.0034164029
0.0034164519
0.0034165007
0.0034165251
0.0034165747
0.0034194415
0.0034246285
0.0040053057
0.0039873033
0.003981632
0.0039816977
0.003981711
0.0039816545
0.0039815599
0.0039814635
0.0039813927
0.0039813547
0.0039813548
0.0039813929
0.0039814637
0.0039815602
0.0039816548
0.0039817113
0.003981698
0.0039816324
0.0039873037
0.0040053063
0.004971839
0.0049297542
0.0049226087
0.0049178495
0.0049178843
0.0049177571
0.0049175471
0.0049173311
0.0049171738
0.0049170889
0.0049170889
0.004917174
0.0049173314
0.0049175475
0.0049177576
0.0049178848
0.0049178501
0.0049226094
0.004929755
0.00497184
0.006363147
0.0062822466
0.0062755473
0.0062673752
0.006267415
0.0062671055
0.006266694
0.0062662961
0.0062660136
0.0062658618
0.0062658619
0.0062660139
0.0062662965
0.0062666946
0.0062671062
0.0062674158
0.0062673761
0.0062755483
0.0062822478
0.0063631484
0.0081565636
0.0080354535
0.0080210982
0.0080126849
0.0080127104
0.0080121742
0.0080115464
0.0080109701
0.0080105748
0.0080103634
0.0080103635
0.0080105751
0.0080109707
0.0080115472
0.0080121751
0.0080127115
0.0080126862
0.0080210995
0.008035455
0.0081565653
0.010166788
0.010047975
0.010010545
0.01000444
0.010004759
0.010004278
0.010003688
0.010003143
0.010002778
0.01000258
0.01000258
0.010002778
0.010003143
0.010003689
0.010004279
0.01000476
0.010004441
0.010010546
0.010047977
0.010166789
0.011782712
0.011752327
0.011724274
0.011723977
0.011726158
0.011726984
0.011727345
0.011727486
0.011727556
0.011727569
0.011727569
0.011727556
0.011727486
0.011727345
0.011726984
0.011726159
0.011723978
0.011724275
0.011752328
0.011782713
0.011895372
0.012075304
0.012125264
0.01213711
0.012144211
0.012148374
0.012150936
0.012152585
0.012153553
0.012153998
0.012153998
0.012153553
0.012152584
0.012150936
0.012148373
0.012144211
0.012137109
0.012125263
0.012075303
0.011895371
0.0086377734
0.0092679186
0.0095426644
0.0095713152
0.0095830426
0.0095889758
0.0095921689
0.0095941504
0.0095952418
0.0095957288
0.0095957285
0.0095952413
0.0095941495
0.0095921678
0.0095889746
0.0095830414
0.009571314
0.0095426632
0.0092679176
0.0086377721
0.0053189738
0.0057864506
0.0060143073
0.0060647417
0.006077817
0.0060803121
0.0060798525
0.0060791264
0.006078491
0.0060780946
0.0060780943
0.0060784905
0.0060791255
0.0060798516
0.0060803114
0.0060778164
0.0060647411
0.0060143069
0.0057864505
0.0053189737
0.0028372702
0.0033731185
0.0036249362
0.0037018401
0.0037154013
0.0037106163
0.0037028605
0.003696807
0.0036928956
0.0036908752
0.0036908748
0.003692895
0.003696806
0.0037028598
0.0037106158
0.003715401
0.0037018398
0.003624936
0.0033731188
0.0028372709
0.0011695333
0.0018166723
0.0021009689
0.0021991967
0.0022150615
0.0022029466
0.0021862394
0.0021729494
0.0021643484
0.00216001
0.0021600096
0.0021643478
0.0021729484
0.0021862386
0.002202946
0.0022150612
0.0021991965
0.0021009688
0.0018166726
0.001169534
0.00035087345
0.00089179786
0.0011647652
0.0012731513
0.0012961769
0.0012846092
0.0012648265
0.0012477546
0.0012362444
0.0012303833
0.0012303829
0.0012362437
0.0012477536
0.0012648257
0.0012846086
0.0012961766
0.0012731512
0.0011647652
0.00089179802
0.00035087373
7.8155378e-05
0.00039735054
0.00061225663
0.00071232769
0.00074046526
0.00073456923
0.00071806312
0.00070229988
0.00069115042
0.00068536334
0.00068536302
0.00069114975
0.00070229895
0.00071806242
0.00073456878
0.00074046501
0.0007123276
0.00061225656
0.00039735057
7.8155436e-05
1.370558e-05
0.00016039765
0.00030362887
0.00038259119
0.00041018697
0.00040976568
0.00039883735
0.0003870692
0.00037832645
0.00037369463
0.00037369436
0.0003783259
0.00038706842
0.00039883675
0.0004097653
0.00041018675
0.00038259113
0.00030362882
0.00016039766
1.3705589e-05
2.0181205e-06
5.8840579e-05
0.00014182196
0.00019652604
0.0002192823
0.000221918
0.00021589158
0.00020833717
0.00020243072
0.00019923745
0.00019923725
0.0002024303
0.00020833657
0.0002158911
0.00022191769
0.00021928212
0.000196526
0.00014182193
5.8840583e-05
2.0181222e-06
2.6285087e-07
1.9786222e-05
6.2450683e-05
9.6420396e-05
0.00011282617
0.00011629132
0.00011351116
0.00010920107
0.0001056381
0.00010367203
0.00010367189
0.00010563781
0.00010920065
0.00011351082
0.00011629109
0.00011282604
9.6420371e-05
6.2450668e-05
1.9786227e-05
2.628513e-07
3.1377261e-08
6.1672931e-06
2.5998433e-05
4.5201325e-05
5.5815454e-05
5.8851238e-05
5.7833636e-05
5.5608673e-05
5.3647854e-05
5.2542403e-05
5.2542313e-05
5.3647662e-05
5.5608395e-05
5.7833402e-05
5.8851078e-05
5.581536e-05
4.5201311e-05
2.5998427e-05
6.1672963e-06
3.1377354e-08
3.5104719e-09
1.8009851e-06
1.027167e-05
2.0276125e-05
2.6550208e-05
2.8737135e-05
2.8512546e-05
2.7464364e-05
2.6466572e-05
2.5890716e-05
2.5890661e-05
2.6466455e-05
2.7464192e-05
2.8512399e-05
2.8737032e-05
2.6550147e-05
2.0276118e-05
1.0271669e-05
1.8009867e-06
3.5104877e-09
3.7314354e-10
4.971371e-07
3.867264e-06
8.7199652e-06
1.2152631e-05
1.3538308e-05
1.359254e-05
1.3141293e-05
1.2667753e-05
1.2387131e-05
1.23871e-05
1.2667685e-05
1.3141193e-05
1.3592454e-05
1.3538248e-05
1.2152593e-05
8.7199606e-06
3.867264e-06
4.9713769e-07
3.7314583e-10
3.7995859e-11
1.3062413e-07
1.3929377e-06
3.602976e-06
5.3584441e-06
6.1558058e-06
6.264812e-06
6.0885018e-06
5.8777644e-06
5.748981e-06
5.7489647e-06
5.8777276e-06
6.0884475e-06
6.2647638e-06
6.1557721e-06
5.3584231e-06
3.6029731e-06
1.392938e-06
1.3062433e-07
3.7996153e-11
3.7251668e-12
3.2846385e-08
4.8165725e-07
1.4332822e-06
2.2788713e-06
2.7033374e-06
2.7922733e-06
2.7310531e-06
2.6428449e-06
2.5869273e-06
2.5869191e-06
2.6428258e-06
2.7310251e-06
2.792248e-06
2.7033196e-06
2.2788601e-06
1.4332805e-06
4.8165744e-07
3.284644e-08
3.7252018e-12
3.5276139e-13
7.9376089e-09
1.6037291e-07
5.5001025e-07
9.3599693e-07
1.1475592e-06
1.2040882e-06
1.1862418e-06
1.1514853e-06
1.1284411e-06
1.1284372e-06
1.151476e-06
1.186228e-06
1.2040756e-06
1.1475503e-06
9.3599141e-07
5.5000933e-07
1.6037301e-07
7.9376237e-09
3.5276533e-13
3.2332521e-14
1.8496564e-09
5.1549706e-08
2.039583e-07
3.7174523e-07
4.7130628e-07
5.026685e-07
4.9912108e-07
4.8624915e-07
4.7721797e-07
4.7721619e-07
4.8624476e-07
4.9911465e-07
5.0266248e-07
4.7130203e-07
3.7174263e-07
2.0395782e-07
5.1549744e-08
1.8496603e-09
3.2332941e-14
2.8724215e-15
4.1678032e-10
1.6031443e-08
7.3201414e-08
1.4293559e-07
1.874483e-07
2.0329794e-07
2.0354044e-07
1.990819e-07
1.9571331e-07
1.9571253e-07
1.9907991e-07
2.0353755e-07
2.032952e-07
1.8744636e-07
1.4293442e-07
7.3201186e-08
1.6031456e-08
4.1678126e-10
2.8724648e-15
2.4762419e-16
9.1029886e-11
4.8325677e-09
2.5462309e-08
5.3262819e-08
7.2259309e-08
7.9712695e-08
8.049341e-08
7.9064309e-08
7.7868963e-08
7.7868632e-08
7.9063446e-08
8.0492158e-08
7.971149e-08
7.2258453e-08
5.3262318e-08
2.5462205e-08
4.832572e-09
9.1030101e-11
2.4762849e-16
2.0734885e-17
1.9312769e-11
1.4142629e-09
8.5939486e-09
1.9253829e-08
2.7021045e-08
3.0323286e-08
3.0888675e-08
3.0474168e-08
3.0071408e-08
3.0071272e-08
3.0473806e-08
3.0888154e-08
3.0322776e-08
2.702068e-08
1.9253621e-08
8.5939045e-09
1.414264e-09
1.9312815e-11
2.073529e-17
1.7078168e-18
3.9876226e-12
4.0235936e-10
2.8174279e-09
6.7576647e-09
9.809404e-09
1.1198957e-08
1.150884e-08
1.1405689e-08
1.1277357e-08
1.1277302e-08
1.1405543e-08
1.150863e-08
1.119875e-08
9.8092532e-09
6.7575819e-09
2.8174098e-09
4.0235954e-10
3.9876316e-12
1.7077548e-18
7.5968136e-19
8.0265772e-13
1.1141018e-10
8.979798e-10
2.3046271e-09
3.4595891e-09
4.0180254e-09
4.1659409e-09
4.1474792e-09
4.1091032e-09
4.1090821e-09
4.1474218e-09
4.1658591e-09
4.0179436e-09
3.4595288e-09
2.304595e-09
8.9797264e-10
1.1141017e-10
8.0265909e-13
7.5044743e-19
4.7660746e-19
1.5774824e-13
3.0052347e-11
2.7846512e-10
7.6424361e-10
1.1861274e-09
1.401342e-09
1.465845e-09
1.4660473e-09
1.4554306e-09
1.4554227e-09
1.4660254e-09
1.4658141e-09
1.4013107e-09
1.186104e-09
7.6423162e-10
2.7846241e-10
3.0052316e-11
1.5774867e-13
4.7690779e-19
1.339598e-19
3.0330399e-14
7.903516e-12
8.4073294e-11
2.4658245e-10
3.9556974e-10
4.7535323e-10
5.0163434e-10
5.0400129e-10
5.0136306e-10
5.0136017e-10
5.0399322e-10
5.0162303e-10
4.7534163e-10
3.9556094e-10
2.4657809e-10
8.40723e-11
7.9034986e-12
3.0330217e-14
1.3402612e-19
2.7208052e-20
5.710621e-15
2.0279037e-12
2.4727648e-11
7.7452903e-11
1.2839227e-10
1.5691248e-10
1.6704316e-10
1.6859475e-10
1.6804787e-10
1.6804685e-10
1.6859187e-10
1.6703913e-10
1.569083e-10
1.2838907e-10
7.7451357e-11
2.47273e-11
2.0278943e-12
5.7105162e-15
2.722501e-20
4.5069281e-21
1.0533973e-15
5.0791392e-13
7.0887692e-12
2.3696403e-11
4.05789e-11
5.0429028e-11
5.4152491e-11
5.4901538e-11
5.4831348e-11
5.4830995e-11
5.4900536e-11
5.4151094e-11
5.0427563e-11
4.0577764e-11
2.3695871e-11
7.0886511e-12
5.0791005e-13
1.0533465e-15
4.5058313e-21
6.1379178e-22
1.9038712e-16
1.2423133e-13
1.9816269e-12
7.0648507e-12
1.2494351e-11
1.5786539e-11
1.7098279e-11
1.7411808e-11
1.7423205e-11
1.7423086e-11
1.7411471e-11
1.7097808e-11
1.578604e-11
1.2493962e-11
7.0646726e-12
1.9815878e-12
1.2422988e-13
1.9037099e-16
6.1454601e-22
5.7982482e-23
3.3697493e-17
2.9683796e-14
5.4039868e-13
2.0534867e-12
3.749502e-12
4.8157893e-12
5.2603903e-12
5.3802929e-12
5.394015e-12
5.3939763e-12
5.3801822e-12
5.2602358e-12
4.8156245e-12
3.7493722e-12
2.0534287e-12
5.4038625e-13
2.9683315e-14
3.3692742e-17
5.8064199e-23
3.8901802e-24
5.8453591e-18
6.9309536e-15
1.4381793e-13
5.8214295e-13
1.0971461e-12
1.4322052e-12
1.5775956e-12
1.6204983e-12
1.6276385e-12
1.6276261e-12
1.6204629e-12
1.5775462e-12
1.4321522e-12
1.0971041e-12
5.8212447e-13
1.4381414e-13
6.9308227e-15
5.844472e-18
3.8813337e-24
2.5927375e-25
9.9488835e-19
1.5818808e-15
3.736561e-14
1.6102307e-13
3.131577e-13
4.1540979e-13
4.6138187e-13
4.7593233e-13
4.7889245e-13
4.788886e-13
4.7592134e-13
4.6136649e-13
4.1539318e-13
3.1314449e-13
1.6101734e-13
3.7364483e-14
1.5818463e-15
9.9473406e-19
2.57536e-25
1.7444842e-26
1.6614171e-19
3.5298851e-16
9.480633e-15
4.3474343e-14
8.7224846e-14
1.1755831e-13
1.3163856e-13
1.3635324e-13
1.3744269e-13
1.3744153e-13
1.3634991e-13
1.316339e-13
1.1755325e-13
8.7220813e-14
4.3472615e-14
9.4803062e-15
3.5297959e-16
1.6611582e-19
1.7263651e-26
)
;

boundaryField
{
    Wall
    {
        type            zeroGradient;
    }
    frontAndBack
    {
        type            empty;
    }
    atmosphere
    {
        type            zeroGradient;
    }
}


// ************************************************************************* //
