/*--------------------------------*- C++ -*----------------------------------*\
| =========                 |                                                 |
| \\      /  F ield         | OpenFOAM: The Open Source CFD Toolbox           |
|  \\    /   O peration     | Version:  3.0.1                                 |
|   \\  /    A nd           | Web:      www.OpenFOAM.org                      |
|    \\/     M anipulation  |                                                 |
\*---------------------------------------------------------------------------*/
FoamFile
{
    version     2.0;
    format      ascii;
    class       volScalarField;
    location    "21";
    object      wCO2_g;
}
// * * * * * * * * * * * * * * * * * * * * * * * * * * * * * * * * * * * * * //

dimensions      [0 0 0 0 0 0 0];

internalField   nonuniform List<scalar> 
800
(
0.0098144763
0.0098149264
0.0098150002
0.009815026
0.0098150438
0.0098150574
0.0098150678
0.0098150753
0.00981508
0.0098150823
0.0098150823
0.00981508
0.0098150753
0.0098150679
0.0098150575
0.0098150439
0.009815026
0.0098150002
0.0098149263
0.0098144762
0.0097587511
0.0097672393
0.0097682489
0.0097683002
0.0097682491
0.0097682521
0.0097682916
0.0097683396
0.009768378
0.0097683986
0.0097683987
0.009768378
0.0097683396
0.0097682916
0.0097682521
0.0097682491
0.0097683002
0.0097682488
0.0097672392
0.0097587509
0.0096748366
0.0096857868
0.0096907923
0.00969105
0.0096910566
0.009691127
0.0096912464
0.0096913681
0.0096914602
0.0096915092
0.0096915092
0.0096914602
0.009691368
0.0096912464
0.0096911269
0.0096910565
0.00969105
0.0096907923
0.0096857868
0.0096748364
0.0095308132
0.0095474361
0.0095556357
0.0095559058
0.0095558985
0.0095559969
0.0095561775
0.0095563665
0.0095565096
0.0095565863
0.0095565863
0.0095565095
0.0095563665
0.0095561774
0.0095559968
0.0095558985
0.0095559058
0.0095556358
0.0095474361
0.0095308129
0.0092554425
0.00928285
0.0092932521
0.0092985031
0.0092983973
0.0092984745
0.0092986955
0.0092989445
0.0092991364
0.0092992411
0.0092992411
0.0092991363
0.0092989444
0.0092986954
0.0092984745
0.0092983972
0.0092985031
0.0092932521
0.0092828501
0.0092554422
0.0087524875
0.0088068258
0.0088190125
0.0088279614
0.0088277574
0.0088278438
0.0088281348
0.0088284613
0.0088287156
0.0088288548
0.0088288548
0.0088287156
0.0088284611
0.0088281346
0.0088278437
0.0088277573
0.0088279614
0.0088190126
0.0088068258
0.0087524871
0.0079222268
0.008021393
0.0080342429
0.0080444181
0.0080444588
0.0080447881
0.008045293
0.0080457776
0.0080461391
0.0080463305
0.0080463305
0.0080461389
0.0080457774
0.0080452928
0.008044788
0.0080444587
0.008044418
0.0080342429
0.0080213929
0.0079222263
0.0067089989
0.0068453537
0.006872033
0.0068828395
0.0068839436
0.0068850126
0.0068860022
0.0068867906
0.0068873294
0.0068876
0.0068876
0.0068873292
0.0068867903
0.0068860019
0.0068850123
0.0068839433
0.0068828393
0.0068720328
0.0068453534
0.0067089982
0.0052889831
0.0054376011
0.0054707847
0.005482649
0.0054855592
0.005487726
0.005489332
0.0054904687
0.0054911855
0.0054915306
0.0054915305
0.0054911852
0.0054904682
0.0054893315
0.0054877256
0.0054855587
0.0054826486
0.0054707843
0.0054376007
0.0052889822
0.003830298
0.0039843704
0.0040294294
0.0040420652
0.0040465012
0.0040494225
0.0040513347
0.0040525947
0.0040533408
0.00405369
0.0040536899
0.0040533405
0.0040525943
0.0040513342
0.0040494219
0.0040465007
0.0040420647
0.0040294289
0.00398437
0.0038302971
0.0023968169
0.0025418932
0.0025986175
0.0026107503
0.0026153115
0.002617942
0.0026194781
0.00262043
0.0026209584
0.0026211973
0.0026211972
0.0026209581
0.0026204296
0.0026194777
0.0026179415
0.002615311
0.0026107498
0.0025986171
0.0025418929
0.0023968163
0.0013692155
0.0014831264
0.0015311254
0.0015439566
0.001547681
0.0015490199
0.0015494935
0.0015496981
0.001549763
0.00154977
0.0015497699
0.0015497628
0.0015496978
0.0015494933
0.0015490196
0.0015476808
0.0015439564
0.0015311253
0.0014831263
0.0013692154
0.0006780336
0.00080180781
0.00085362031
0.00086859245
0.00087081852
0.00086984757
0.00086845377
0.00086738659
0.00086669288
0.00086632896
0.00086632889
0.00086669275
0.00086738638
0.00086845358
0.00086984742
0.00087081843
0.00086859237
0.00085362027
0.00080180785
0.00067803369
0.00025766963
0.00039988494
0.00045701158
0.00047456455
0.00047608681
0.00047294114
0.00046940855
0.00046673174
0.00046502573
0.00046416916
0.0004641691
0.00046502561
0.00046673155
0.0004694084
0.00047294102
0.00047608674
0.0004745645
0.00045701157
0.000399885
0.00025766976
7.0378999e-05
0.00018077226
0.00023346791
0.00025243603
0.00025519745
0.00025210933
0.00024800105
0.00024463911
0.00024241243
0.00024128718
0.00024128712
0.00024241231
0.00024463895
0.00024800091
0.00025210924
0.00025519741
0.00025243601
0.00023346791
0.00018077229
7.0379045e-05
1.4114248e-05
7.3566581e-05
0.00011250399
0.00012938324
0.00013326817
0.00013152185
0.00012828174
0.00012536529
0.00012334214
0.00012230111
0.00012230106
0.00012334203
0.00012536515
0.00012828163
0.00013152178
0.00013326814
0.00012938323
0.00011250398
7.3566588e-05
1.4114256e-05
2.2102011e-06
2.6901388e-05
5.0836303e-05
6.3386779e-05
6.7281119e-05
6.6770071e-05
6.4767564e-05
6.2753814e-05
6.1288946e-05
6.0520138e-05
6.0520102e-05
6.1288867e-05
6.2753706e-05
6.4767481e-05
6.6770021e-05
6.7281095e-05
6.338678e-05
5.0836304e-05
2.6901392e-05
2.2102022e-06
2.8902755e-07
8.8776899e-06
2.1504547e-05
2.9558629e-05
3.2661712e-05
3.2815406e-05
3.1787563e-05
3.0601795e-05
2.9695542e-05
2.9210417e-05
2.9210391e-05
2.9695487e-05
3.0601719e-05
3.1787504e-05
3.2815371e-05
3.2661697e-05
2.9558631e-05
2.1504549e-05
8.877693e-06
2.8902774e-07
3.3316277e-08
2.6707737e-06
8.527675e-06
1.310272e-05
1.5202038e-05
1.555651e-05
1.5112346e-05
1.4494974e-05
1.3997008e-05
1.3725022e-05
1.3725006e-05
1.3996974e-05
1.4494925e-05
1.5112307e-05
1.5556486e-05
1.5202029e-05
1.3102723e-05
8.5276775e-06
2.6707757e-06
3.3316321e-08
3.5119206e-09
7.4148747e-07
3.1808241e-06
5.5244598e-06
6.7768777e-06
7.098801e-06
6.9420879e-06
6.6522348e-06
6.4035705e-06
6.26483e-06
6.2648206e-06
6.4035503e-06
6.6522061e-06
6.9420642e-06
7.0987866e-06
6.7768719e-06
5.5244623e-06
3.1808258e-06
7.4148841e-07
3.5119296e-09
3.4639648e-10
1.921435e-07
1.1208439e-06
2.2192988e-06
2.8940407e-06
3.1154291e-06
3.0766084e-06
2.9526528e-06
2.8381752e-06
2.7727988e-06
2.7727937e-06
2.8381641e-06
2.9526367e-06
3.0765951e-06
3.1154209e-06
2.8940373e-06
2.2193005e-06
1.1208449e-06
1.9214388e-07
3.4639786e-10
3.2415503e-11
4.690287e-08
3.7480254e-07
8.5137427e-07
1.1850335e-06
1.3149171e-06
1.3145429e-06
1.2661043e-06
1.2170629e-06
1.1883134e-06
1.1883108e-06
1.2170572e-06
1.2660959e-06
1.3145359e-06
1.3149128e-06
1.1850317e-06
8.5137513e-07
3.7480305e-07
4.6902995e-08
3.2415682e-11
2.9017559e-12
1.0861157e-08
1.1943489e-07
3.1265022e-07
4.6589406e-07
5.3401823e-07
5.4145879e-07
5.2422902e-07
5.0455957e-07
4.9267652e-07
4.9267527e-07
5.0455679e-07
5.242249e-07
5.4145532e-07
5.3401609e-07
4.6589312e-07
3.1265061e-07
1.1943513e-07
1.0861194e-08
2.9017765e-12
2.4970262e-13
2.3985327e-09
3.6402967e-08
1.1017115e-07
1.7613088e-07
2.0886803e-07
2.1508371e-07
2.0958624e-07
2.0217199e-07
1.9753196e-07
1.9753139e-07
2.021707e-07
2.0958434e-07
2.1508209e-07
2.0886703e-07
1.7613042e-07
1.1017131e-07
3.6403063e-08
2.3985427e-09
2.4970481e-13
2.0716049e-14
5.0716781e-10
1.0646553e-08
3.7335746e-08
6.4129995e-08
7.8761637e-08
8.2451489e-08
8.0937899e-08
7.8306405e-08
7.6588558e-08
7.6588314e-08
7.8305844e-08
8.0937063e-08
8.245077e-08
7.8761197e-08
6.4129791e-08
3.7335802e-08
1.0646588e-08
5.0717035e-10
2.0716269e-14
1.659892e-15
1.0300879e-10
2.9960838e-09
1.2193572e-08
2.2523772e-08
2.8667981e-08
3.0529606e-08
3.0210679e-08
2.9331389e-08
2.87269e-08
2.87268e-08
2.9331155e-08
3.021033e-08
3.0529302e-08
2.8667797e-08
2.2523684e-08
1.219359e-08
2.9960961e-09
1.0300941e-10
1.659913e-15
1.2859537e-16
2.0149638e-11
8.1326829e-10
3.8451363e-09
7.6423209e-09
1.008431e-08
1.0929663e-08
1.0907749e-08
1.0631895e-08
1.0429431e-08
1.0429393e-08
1.0631801e-08
1.0907609e-08
1.092954e-08
1.0084235e-08
7.6422848e-09
3.8451414e-09
8.1327224e-10
2.0149776e-11
1.2859731e-16
9.6399768e-18
3.8049998e-12
2.1340363e-10
1.1727946e-09
2.5085763e-09
3.4322861e-09
3.7870989e-09
3.8129798e-09
3.7322646e-09
3.667698e-09
3.6676833e-09
3.7322285e-09
3.8129259e-09
3.7870509e-09
3.4322571e-09
2.5085621e-09
1.1727958e-09
2.1340482e-10
3.8050294e-12
9.6401478e-18
6.9967487e-19
6.9517848e-13
5.4240967e-11
3.465384e-10
7.9766363e-10
1.131649e-09
1.2713702e-09
1.2916765e-09
1.269953e-09
1.2503649e-09
1.2503596e-09
1.2699395e-09
1.2916566e-09
1.2713521e-09
1.1316379e-09
7.9765821e-10
3.4653856e-10
5.4241299e-11
6.951845e-13
6.9968918e-19
4.9577198e-20
1.2314854e-13
1.3378643e-11
9.9341132e-11
2.4599795e-10
3.6183105e-10
4.1394169e-10
4.244293e-10
4.1921065e-10
4.1357156e-10
4.1356967e-10
4.1920584e-10
4.2442218e-10
4.1393516e-10
3.6182696e-10
2.4599597e-10
9.9341094e-11
1.3378729e-11
1.2314969e-13
4.9576454e-20
1.7518904e-20
2.1197796e-14
3.2077162e-12
2.7664716e-11
7.3662452e-11
1.1230711e-10
1.3083365e-10
1.3539582e-10
1.3436072e-10
1.3282778e-10
1.3282713e-10
1.3435903e-10
1.3539337e-10
1.3083136e-10
1.1230564e-10
7.3661745e-11
2.7664673e-11
3.2077369e-12
2.1197998e-14
1.7309413e-20
9.0205476e-21
3.5534037e-15
7.4878755e-13
7.4930176e-12
2.1438871e-11
3.3870409e-11
4.017841e-11
4.1967573e-11
4.1845818e-11
4.1455881e-11
4.1455667e-11
4.1845249e-11
4.196675e-11
4.017763e-11
3.3869896e-11
2.1438629e-11
7.4929944e-12
7.4879207e-13
3.5534436e-15
9.0317685e-21
2.1515981e-21
5.8174426e-16
1.7041768e-13
1.9759598e-12
6.0700375e-12
9.9337038e-12
1.1997868e-11
1.2649123e-11
1.2673242e-11
1.2582021e-11
1.2581952e-11
1.2673055e-11
1.2648857e-11
1.199761e-11
9.9335289e-12
6.0699568e-12
1.9759498e-12
1.7041857e-13
5.8174621e-16
2.1535744e-21
3.7144845e-22
9.3203484e-17
3.7863396e-14
5.0779773e-13
1.673257e-12
2.8353487e-12
3.4862812e-12
3.7097175e-12
3.7347691e-12
3.7158586e-12
3.715837e-12
3.7347097e-12
3.7096334e-12
3.4861983e-12
2.835291e-12
1.6732309e-12
5.0779401e-13
3.7863515e-14
9.3202727e-17
3.7182249e-22
5.2355084e-23
1.4638585e-17
8.2212605e-15
1.2727467e-13
4.4938738e-13
7.8812581e-13
9.8637341e-13
1.0592964e-12
1.0715996e-12
1.0684609e-12
1.0684543e-12
1.0715812e-12
1.0592705e-12
9.8634752e-13
7.8810734e-13
4.4937924e-13
1.2727339e-13
8.2212625e-15
1.4638027e-17
5.2362403e-23
6.0793587e-24
2.2567904e-18
1.7460329e-15
3.1133275e-14
1.1766076e-13
2.1346773e-13
2.7188254e-13
2.9465984e-13
2.9951303e-13
2.9927127e-13
2.9926931e-13
2.9950753e-13
2.9465212e-13
2.7187468e-13
2.1346201e-13
1.1765829e-13
3.1132858e-14
1.7460262e-15
2.2566189e-18
6.0900558e-24
4.8888556e-25
3.4170361e-19
3.6296284e-16
7.4367205e-15
3.0048587e-14
5.6368704e-14
7.3045365e-14
7.9882768e-14
8.1584406e-14
8.1689744e-14
8.1689178e-14
8.1582804e-14
7.9880522e-14
7.3043044e-14
5.6366985e-14
3.0047859e-14
7.4365937e-15
3.6295967e-16
3.4165668e-19
4.897371e-25
2.7471803e-26
5.089966e-20
7.3893388e-17
1.7354466e-15
7.4884897e-15
1.4517971e-14
1.9136367e-14
2.1114982e-14
2.1665898e-14
2.1738624e-14
2.1738463e-14
2.1665442e-14
2.1114346e-14
1.9135701e-14
1.451747e-14
7.4882802e-15
1.7354105e-15
7.389251e-17
5.0891879e-20
2.7383784e-26
1.5476534e-27
7.4739635e-21
1.4738519e-17
3.9579911e-16
1.8218412e-15
3.6484153e-15
4.890393e-15
5.4436425e-15
5.6114381e-15
5.6416372e-15
5.641593e-15
5.6113124e-15
5.4434665e-15
4.8902068e-15
3.6482735e-15
1.8217827e-15
3.9578914e-16
1.4738293e-17
7.4727789e-21
1.5342609e-27
8.8736579e-29
1.0822618e-21
2.8807488e-18
8.8247009e-17
4.328313e-16
8.9491387e-16
1.2195211e-15
1.3692684e-15
1.4178609e-15
1.4282964e-15
1.4282846e-15
1.4178271e-15
1.369221e-15
1.2194705e-15
8.94875e-16
4.328154e-16
8.8244346e-17
2.8806929e-18
1.0820883e-21
8.7626796e-29
)
;

boundaryField
{
    Wall
    {
        type            zeroGradient;
    }
    frontAndBack
    {
        type            empty;
    }
    atmosphere
    {
        type            zeroGradient;
    }
}


// ************************************************************************* //
