/*--------------------------------*- C++ -*----------------------------------*\
| =========                 |                                                 |
| \\      /  F ield         | OpenFOAM: The Open Source CFD Toolbox           |
|  \\    /   O peration     | Version:  3.0.1                                 |
|   \\  /    A nd           | Web:      www.OpenFOAM.org                      |
|    \\/     M anipulation  |                                                 |
\*---------------------------------------------------------------------------*/
FoamFile
{
    version     2.0;
    format      ascii;
    class       volScalarField;
    location    "21";
    object      weight1;
}
// * * * * * * * * * * * * * * * * * * * * * * * * * * * * * * * * * * * * * //

dimensions      [0 0 0 0 0 0 0];

internalField   nonuniform List<scalar> 
800
(
9.9873708e+12
9.9873699e+12
9.9873697e+12
9.9873696e+12
9.9873696e+12
9.9873695e+12
9.9873695e+12
9.9873695e+12
9.9873695e+12
9.9873695e+12
9.9873695e+12
9.9873695e+12
9.9873695e+12
9.9873695e+12
9.9873695e+12
9.9873696e+12
9.9873696e+12
9.9873697e+12
9.9873699e+12
9.9873708e+12
9.9999977e+12
9.9999987e+12
9.9999988e+12
9.9999988e+12
9.9999988e+12
9.9999988e+12
9.9999988e+12
9.9999988e+12
9.9999988e+12
9.9999988e+12
9.9999988e+12
9.9999988e+12
9.9999988e+12
9.9999988e+12
9.9999988e+12
9.9999988e+12
9.9999988e+12
9.9999988e+12
9.9999987e+12
9.9999977e+12
9.7409646e+12
9.7449569e+12
9.7459418e+12
9.7460631e+12
9.7460157e+12
9.7459752e+12
9.7459604e+12
9.745962e+12
9.7459688e+12
9.745974e+12
9.745974e+12
9.7459688e+12
9.745962e+12
9.7459603e+12
9.7459751e+12
9.7460156e+12
9.7460631e+12
9.7459418e+12
9.7449568e+12
9.7409645e+12
9.2962808e+12
9.3069209e+12
9.3089933e+12
9.3090566e+12
9.3089194e+12
9.3088131e+12
9.3087765e+12
9.3087787e+12
9.3087928e+12
9.3088039e+12
9.3088039e+12
9.3087928e+12
9.3087787e+12
9.3087764e+12
9.308813e+12
9.3089194e+12
9.3090565e+12
9.3089932e+12
9.3069208e+12
9.2962806e+12
8.7252506e+12
8.7445914e+12
8.7477223e+12
8.7477358e+12
8.7475092e+12
8.7473502e+12
8.7473023e+12
8.7473107e+12
8.7473341e+12
8.7473512e+12
8.7473512e+12
8.747334e+12
8.7473106e+12
8.7473022e+12
8.7473502e+12
8.7475092e+12
8.7477358e+12
8.7477223e+12
8.7445914e+12
8.7252504e+12
8.0682903e+12
8.0989846e+12
8.1035181e+12
8.1036863e+12
8.1034583e+12
8.1033174e+12
8.1032952e+12
8.1033223e+12
8.1033605e+12
8.1033851e+12
8.1033851e+12
8.1033604e+12
8.1033223e+12
8.1032952e+12
8.1033174e+12
8.1034583e+12
8.1036864e+12
8.1035182e+12
8.0989846e+12
8.0682902e+12
7.3408828e+12
7.3870301e+12
7.3941626e+12
7.3950014e+12
7.3950414e+12
7.3950607e+12
7.3951374e+12
7.3952149e+12
7.3952815e+12
7.3953164e+12
7.3953164e+12
7.3952815e+12
7.3952149e+12
7.3951375e+12
7.3950608e+12
7.3950416e+12
7.3950016e+12
7.3941627e+12
7.3870303e+12
7.3408829e+12
6.5310582e+12
6.597055e+12
6.6094613e+12
6.6117618e+12
6.612533e+12
6.6129427e+12
6.613226e+12
6.6134102e+12
6.6135285e+12
6.6135801e+12
6.6135801e+12
6.6135285e+12
6.6134101e+12
6.613226e+12
6.6129428e+12
6.6125332e+12
6.611762e+12
6.6094616e+12
6.5970553e+12
6.5310584e+12
5.6137972e+12
5.703842e+12
5.7261601e+12
5.7309492e+12
5.7329453e+12
5.7339425e+12
5.7344939e+12
5.7348147e+12
5.73499e+12
5.7350578e+12
5.7350578e+12
5.7349899e+12
5.7348146e+12
5.7344939e+12
5.7339425e+12
5.7329454e+12
5.7309495e+12
5.7261603e+12
5.7038423e+12
5.6137974e+12
4.5658615e+12
4.6795512e+12
4.7161502e+12
4.7241852e+12
4.7275379e+12
4.7290666e+12
4.7297853e+12
4.7301688e+12
4.7303493e+12
4.730411e+12
4.730411e+12
4.7303492e+12
4.7301685e+12
4.7297851e+12
4.7290666e+12
4.7275379e+12
4.7241853e+12
4.7161503e+12
4.6795514e+12
4.5658616e+12
3.4770697e+12
3.6048444e+12
3.6533204e+12
3.6659496e+12
3.6702515e+12
3.6716587e+12
3.6720239e+12
3.6721108e+12
3.6720804e+12
3.672031e+12
3.6720309e+12
3.6720802e+12
3.6721105e+12
3.6720237e+12
3.6716586e+12
3.6702515e+12
3.6659497e+12
3.6533206e+12
3.6048448e+12
3.47707e+12
0
0
0
0
0
0
0
0
0
0
0
0
0
0
0
0
0
0
0
0
0
0
0
0
0
0
0
0
0
0
0
0
0
0
0
0
0
0
0
0
0
0
0
0
0
0
0
0
0
0
0
0
0
0
0
0
0
0
0
0
0
0
0
0
0
0
0
0
0
0
0
0
0
0
0
0
0
0
0
0
0
0
0
0
0
0
0
0
0
0
0
0
0
0
0
0
0
0
0
0
0
0
0
0
0
0
0
0
0
0
0
0
0
0
0
0
0
0
0
0
0
0
0
0
0
0
0
0
0
0
0
0
0
0
0
0
0
0
0
0
0
0
0
0
0
0
0
0
0
0
0
0
0
0
0
0
0
0
0
0
0
0
0
0
0
0
0
0
0
0
0
0
0
0
0
0
0
0
0
0
0
0
0
0
0
0
0
0
0
0
0
0
0
0
0
0
0
0
0
0
0
0
0
0
0
0
0
0
0
0
0
0
0
0
0
0
0
0
0
0
0
0
0
0
0
0
0
0
0
0
0
0
0
0
0
0
0
0
0
0
0
0
0
0
0
0
0
0
0
0
0
0
0
0
0
0
0
0
0
0
0
0
0
0
0
0
0
0
0
0
0
0
0
0
0
0
0
0
0
0
0
0
0
0
0
0
0
0
0
0
0
0
0
0
0
0
0
0
0
0
0
0
0
0
0
0
0
0
0
0
0
0
0
0
0
0
0
0
0
0
0
0
0
0
0
0
0
0
0
0
0
0
0
0
0
0
0
0
0
0
0
0
0
0
0
0
0
0
0
0
0
0
0
0
0
0
0
0
0
0
0
0
0
0
0
0
0
0
0
0
0
0
0
0
0
0
0
0
0
0
0
0
0
0
0
0
0
0
0
0
0
0
0
0
0
0
0
0
0
0
0
0
0
0
0
0
0
0
0
0
0
0
0
0
0
0
0
0
0
0
0
0
0
0
0
0
0
0
0
0
0
0
0
0
0
0
0
0
0
0
0
0
0
0
0
0
0
0
0
0
0
0
0
0
0
0
0
0
0
0
0
0
0
0
0
0
0
0
0
0
0
0
0
0
0
0
0
0
0
0
0
0
0
0
0
0
0
0
0
0
0
0
0
0
0
0
0
0
0
0
0
0
0
0
0
0
0
0
0
0
0
0
0
0
0
0
0
0
0
0
0
0
0
0
0
0
0
0
0
0
0
0
0
0
0
0
0
0
0
0
0
0
0
0
0
0
0
0
0
0
0
0
0
0
0
0
0
0
0
0
0
0
0
0
0
0
0
0
0
0
0
0
0
0
0
0
0
0
0
0
)
;

boundaryField
{
    Wall
    {
        type            zeroGradient;
    }
    frontAndBack
    {
        type            empty;
    }
    atmosphere
    {
        type            zeroGradient;
    }
}


// ************************************************************************* //
