/*--------------------------------*- C++ -*----------------------------------*\
| =========                 |                                                 |
| \\      /  F ield         | OpenFOAM: The Open Source CFD Toolbox           |
|  \\    /   O peration     | Version:  3.0.1                                 |
|   \\  /    A nd           | Web:      www.OpenFOAM.org                      |
|    \\/     M anipulation  |                                                 |
\*---------------------------------------------------------------------------*/
FoamFile
{
    version     2.0;
    format      ascii;
    class       volScalarField;
    location    "21";
    object      weight0;
}
// * * * * * * * * * * * * * * * * * * * * * * * * * * * * * * * * * * * * * //

dimensions      [0 0 0 0 0 0 0];

internalField   nonuniform List<scalar> 
800
(
1.2629217e+10
1.2630142e+10
1.263034e+10
1.2630402e+10
1.2630443e+10
1.2630476e+10
1.2630503e+10
1.2630523e+10
1.2630536e+10
1.2630542e+10
1.2630542e+10
1.2630536e+10
1.2630523e+10
1.2630503e+10
1.2630476e+10
1.2630443e+10
1.2630402e+10
1.263034e+10
1.2630142e+10
1.2629217e+10
2286814
1324862.2
1235450.4
1212881.5
1198894.8
1186368.2
1175610.9
1167335.3
1161835.2
1159102.2
1159102.8
1161836
1167336.2
1175612.1
1186369
1198894.5
1212880
1235447.9
1324859.1
2286819.8
50444233
42164120
38924557
38523649
38289750
38105807
37957671
37846375
37772705
37736020
37736030
37772720
37846396
37957698
38105834
38289769
38523659
38924557
42164123
50444310
2.3595868e+08
2.0661044e+08
1.958902e+08
1.9455053e+08
1.9373211e+08
1.9313003e+08
1.926578e+08
1.9230627e+08
1.9207335e+08
1.9195709e+08
1.9195713e+08
1.9207345e+08
1.9230642e+08
1.9265799e+08
1.9313025e+08
1.9373232e+08
1.9455075e+08
1.958904e+08
2.0661068e+08
2.3595911e+08
9.7446405e+08
8.65656e+08
8.4193205e+08
8.2594192e+08
8.2308024e+08
8.2105197e+08
8.1951201e+08
8.1839304e+08
8.176588e+08
8.172945e+08
8.172947e+08
8.1765927e+08
8.1839378e+08
8.1951299e+08
8.210531e+08
8.2308143e+08
8.2594325e+08
8.4193335e+08
8.6565747e+08
9.7446618e+08
4.4125126e+09
3.9199623e+09
3.8876101e+09
3.8377945e+09
3.8242294e+09
3.81391e+09
3.8063884e+09
3.8010629e+09
3.797665e+09
3.795995e+09
3.7959959e+09
3.7976675e+09
3.8010669e+09
3.8063937e+09
3.813916e+09
3.8242358e+09
3.8378018e+09
3.887617e+09
3.9199697e+09
4.4125233e+09
1.9939227e+10
1.8149302e+10
1.8203007e+10
1.8162419e+10
1.8094781e+10
1.8036354e+10
1.7994494e+10
1.7965514e+10
1.7947564e+10
1.7938681e+10
1.7938685e+10
1.7947575e+10
1.7965532e+10
1.7994518e+10
1.8036382e+10
1.8094811e+10
1.8162454e+10
1.8203039e+10
1.8149334e+10
1.9939276e+10
6.8216604e+10
6.5287504e+10
6.5457125e+10
6.5699551e+10
6.5474827e+10
6.5246607e+10
6.5080163e+10
6.4968402e+10
6.4900062e+10
6.4865391e+10
6.4865403e+10
6.4900093e+10
6.4968453e+10
6.5080238e+10
6.524669e+10
6.5474921e+10
6.5699668e+10
6.5457223e+10
6.5287605e+10
6.8216765e+10
1.679194e+11
1.6631014e+11
1.6730151e+11
1.6866291e+11
1.6826754e+11
1.676971e+11
1.672511e+11
1.6695784e+11
1.6677802e+11
1.6668409e+11
1.6668411e+11
1.6677808e+11
1.6695792e+11
1.6725125e+11
1.6769727e+11
1.6826774e+11
1.6866318e+11
1.6730172e+11
1.6631038e+11
1.6791979e+11
3.3561532e+11
3.4482446e+11
3.5075707e+11
3.5575409e+11
3.5566485e+11
3.5459238e+11
3.5361278e+11
3.52964e+11
3.5256171e+11
3.5234791e+11
3.5234792e+11
3.5256177e+11
3.5296405e+11
3.5361298e+11
3.5459266e+11
3.5566519e+11
3.5575459e+11
3.5075744e+11
3.4482492e+11
3.3561606e+11
4.6468782e+11
5.1491843e+11
5.4415651e+11
5.581108e+11
5.6005453e+11
5.5860977e+11
5.567997e+11
5.5553538e+11
5.547396e+11
5.5431926e+11
5.5431921e+11
5.5473959e+11
5.5553527e+11
5.5679984e+11
5.5861003e+11
5.600549e+11
5.5811139e+11
5.4415693e+11
5.1491905e+11
4.6468878e+11
0
0
0
0
0
0
0
0
0
0
0
0
0
0
0
0
0
0
0
0
0
0
0
0
0
0
0
0
0
0
0
0
0
0
0
0
0
0
0
0
0
0
0
0
0
0
0
0
0
0
0
0
0
0
0
0
0
0
0
0
0
0
0
0
0
0
0
0
0
0
0
0
0
0
0
0
0
0
0
0
0
0
0
0
0
0
0
0
0
0
0
0
0
0
0
0
0
0
0
0
0
0
0
0
0
0
0
0
0
0
0
0
0
0
0
0
0
0
0
0
0
0
0
0
0
0
0
0
0
0
0
0
0
0
0
0
0
0
0
0
0
0
0
0
0
0
0
0
0
0
0
0
0
0
0
0
0
0
0
0
0
0
0
0
0
0
0
0
0
0
0
0
0
0
0
0
0
0
0
0
0
0
0
0
0
0
0
0
0
0
0
0
0
0
0
0
0
0
0
0
0
0
0
0
0
0
0
0
0
0
0
0
0
0
0
0
0
0
0
0
0
0
0
0
0
0
0
0
0
0
0
0
0
0
0
0
0
0
0
0
0
0
0
0
0
0
0
0
0
0
0
0
0
0
0
0
0
0
0
0
0
0
0
0
0
0
0
0
0
0
0
0
0
0
0
0
0
0
0
0
0
0
0
0
0
0
0
0
0
0
0
0
0
0
0
0
0
0
0
0
0
0
0
0
0
0
0
0
0
0
0
0
0
0
0
0
0
0
0
0
0
0
0
0
0
0
0
0
0
0
0
0
0
0
0
0
0
0
0
0
0
0
0
0
0
0
0
0
0
0
0
0
0
0
0
0
0
0
0
0
0
0
0
0
0
0
0
0
0
0
0
0
0
0
0
0
0
0
0
0
0
0
0
0
0
0
0
0
0
0
0
0
0
0
0
0
0
0
0
0
0
0
0
0
0
0
0
0
0
0
0
0
0
0
0
0
0
0
0
0
0
0
0
0
0
0
0
0
0
0
0
0
0
0
0
0
0
0
0
0
0
0
0
0
0
0
0
0
0
0
0
0
0
0
0
0
0
0
0
0
0
0
0
0
0
0
0
0
0
0
0
0
0
0
0
0
0
0
0
0
0
0
0
0
0
0
0
0
0
0
0
0
0
0
0
0
0
0
0
0
0
0
0
0
0
0
0
0
0
0
0
0
0
0
0
0
0
0
0
0
0
0
0
0
0
0
0
0
0
0
0
0
0
0
0
0
0
0
0
0
0
0
0
0
0
0
0
0
0
0
0
0
0
0
0
0
0
0
0
0
0
0
0
0
0
0
0
0
0
0
0
0
0
0
0
0
0
0
0
0
)
;

boundaryField
{
    Wall
    {
        type            zeroGradient;
    }
    frontAndBack
    {
        type            empty;
    }
    atmosphere
    {
        type            zeroGradient;
    }
}


// ************************************************************************* //
