/*--------------------------------*- C++ -*----------------------------------*\
| =========                 |                                                 |
| \\      /  F ield         | OpenFOAM: The Open Source CFD Toolbox           |
|  \\    /   O peration     | Version:  3.0.1                                 |
|   \\  /    A nd           | Web:      www.OpenFOAM.org                      |
|    \\/     M anipulation  |                                                 |
\*---------------------------------------------------------------------------*/
FoamFile
{
    version     2.0;
    format      ascii;
    class       volScalarField;
    location    "33";
    object      alpha.gas;
}
// * * * * * * * * * * * * * * * * * * * * * * * * * * * * * * * * * * * * * //

dimensions      [0 0 0 0 0 0 0];

internalField   nonuniform List<scalar> 
800
(
2.0239053e-28
2.2445293e-25
4.2979031e-22
8.4870327e-22
2.3369954e-23
1.0433543e-21
9.2615073e-22
6.4355818e-23
5.1908114e-25
1.7603842e-27
3.0261211e-23
2.9291308e-23
9.1786357e-25
6.855474e-23
6.6388279e-23
1.5305154e-27
4.9429602e-32
2.1393738e-35
4.216811e-39
7.8675863e-43
1.3316915e-12
3.0974752e-13
2.1091655e-11
7.9604118e-12
4.5354566e-13
9.9685493e-12
7.9998462e-12
9.5812984e-12
1.9446206e-11
4.8898811e-11
2.4616732e-11
2.4435493e-11
1.3204305e-11
7.8509267e-12
7.3210504e-12
1.4181051e-12
1.5837738e-15
1.0826059e-13
4.1207371e-12
5.8042215e-15
1.2866679e-08
1.2184659e-08
1.179321e-08
1.1755322e-08
1.1692597e-08
1.169419e-08
1.1702127e-08
1.1715144e-08
1.1731837e-08
1.1759831e-08
1.174051e-08
1.1735829e-08
1.1718063e-08
1.1702058e-08
1.1692153e-08
1.169345e-08
1.1749093e-08
1.1776737e-08
1.2187851e-08
1.2865912e-08
3.6346557e-08
3.1856095e-08
3.0187331e-08
2.9612984e-08
2.9423294e-08
2.9387772e-08
2.9395942e-08
2.9418437e-08
2.9442143e-08
2.9467773e-08
2.9454875e-08
2.9444855e-08
2.9420464e-08
2.9395995e-08
2.9386552e-08
2.9424044e-08
2.9609011e-08
3.0176512e-08
3.1858724e-08
3.634654e-08
1.0033236e-07
8.793124e-08
8.2999259e-08
8.143239e-08
8.0934048e-08
8.0833082e-08
8.0858132e-08
8.091745e-08
8.0972343e-08
8.1014259e-08
8.1001858e-08
8.0975056e-08
8.0919586e-08
8.0858415e-08
8.0832227e-08
8.0935203e-08
8.1429005e-08
8.2989324e-08
8.7934799e-08
1.0033342e-07
2.0959649e-07
1.8445473e-07
1.7351989e-07
1.7036692e-07
1.6937989e-07
1.6918816e-07
1.6925121e-07
1.6937649e-07
1.6948603e-07
1.6955737e-07
1.6954458e-07
1.6948899e-07
1.6937898e-07
1.6925186e-07
1.6918776e-07
1.6938171e-07
1.703641e-07
1.7351049e-07
1.8445983e-07
2.0959912e-07
3.7529831e-07
3.3117891e-07
3.1003363e-07
3.0429242e-07
3.0260916e-07
3.0230242e-07
3.0243199e-07
3.0265915e-07
3.0285138e-07
3.0296633e-07
3.0295349e-07
3.0285459e-07
3.0266206e-07
3.0243319e-07
3.0230273e-07
3.0261187e-07
3.0429055e-07
3.1002547e-07
3.31186e-07
3.7530302e-07
6.0947042e-07
5.3963903e-07
5.0228724e-07
4.9238255e-07
4.8977424e-07
4.8934111e-07
4.8957995e-07
4.8995599e-07
4.9026651e-07
4.90443e-07
4.9043031e-07
4.9027002e-07
4.8995943e-07
4.8958189e-07
4.8934237e-07
4.897781e-07
4.9238198e-07
5.0228086e-07
5.3964855e-07
6.0947758e-07
9.2323874e-07
8.217463e-07
7.595374e-07
7.4300338e-07
7.3924648e-07
7.386991e-07
7.3910806e-07
7.3969308e-07
7.4016575e-07
7.4042564e-07
7.4041314e-07
7.4016963e-07
7.3969717e-07
7.3911093e-07
7.3870153e-07
7.3925177e-07
7.4300438e-07
7.5953322e-07
8.2175869e-07
9.2324859e-07
1.3272217e-06
1.1862996e-06
1.0888522e-06
1.063483e-06
1.0582854e-06
1.0576599e-06
1.0583349e-06
1.0592066e-06
1.0598918e-06
1.0602608e-06
1.0602485e-06
1.0598962e-06
1.0592114e-06
1.0583389e-06
1.0576637e-06
1.0582924e-06
1.0634858e-06
1.0888504e-06
1.1863147e-06
1.3272343e-06
1.8247447e-06
1.6299229e-06
1.5015498e-06
1.4607669e-06
1.4525784e-06
1.4522453e-06
1.4533456e-06
1.4544526e-06
1.4554106e-06
1.4559186e-06
1.4559066e-06
1.4554154e-06
1.4544584e-06
1.4533508e-06
1.4522502e-06
1.4525872e-06
1.4607715e-06
1.5015512e-06
1.6299402e-06
1.8247596e-06
2.4164143e-06
2.1977332e-06
2.0410485e-06
1.9412042e-06
1.9287349e-06
1.928946e-06
1.9279517e-06
1.9288553e-06
1.9310668e-06
1.9317621e-06
1.9317504e-06
1.9310723e-06
1.9288634e-06
1.927962e-06
1.9289557e-06
1.9287473e-06
1.9412111e-06
2.0410538e-06
2.1977553e-06
2.4164314e-06
3.1335606e-06
3.0271101e-06
2.6542001e-06
2.4891663e-06
2.4801207e-06
2.4499329e-06
2.4545608e-06
2.492577e-06
2.4897342e-06
2.4896338e-06
2.4896224e-06
2.4897426e-06
2.4925314e-06
2.4545663e-06
2.4500612e-06
2.4801033e-06
2.4891795e-06
2.6542079e-06
3.027139e-06
3.1335797e-06
3.9742724e-06
3.6407737e-06
3.212648e-06
3.1722523e-06
3.1032826e-06
3.2195424e-06
3.486188e-06
3.3597918e-06
3.1286091e-06
3.1297955e-06
3.1297843e-06
3.128623e-06
3.3599871e-06
3.4848382e-06
3.2179688e-06
3.1031137e-06
3.1722434e-06
3.2126546e-06
3.6407868e-06
3.9742904e-06
4.9709627e-06
4.1294478e-06
3.8344376e-06
3.9001401e-06
4.2773495e-06
6.2249941e-06
6.1806837e-06
3.9014647e-06
3.8464769e-06
3.8494256e-06
3.8494146e-06
3.8464756e-06
3.9024037e-06
6.1816135e-06
6.2173665e-06
4.2774578e-06
3.9001232e-06
3.8344565e-06
4.1294664e-06
4.9709996e-06
6.7605218e-06
6.4603731e-06
4.8569937e-06
4.8639151e-06
9.8646401e-06
9.7080209e-06
5.1402248e-06
4.44999e-06
4.6411779e-06
4.6428339e-06
4.6428234e-06
4.6411913e-06
4.4492071e-06
5.147319e-06
9.718512e-06
9.8644903e-06
4.8638652e-06
4.8570156e-06
6.4605097e-06
6.7606077e-06
8.9098948e-06
2.7412832e-05
1.7000346e-05
1.5703884e-05
1.728706e-05
6.731355e-06
5.1228071e-06
5.4196301e-06
5.4997138e-06
5.5024852e-06
5.5024751e-06
5.4997306e-06
5.4194513e-06
5.1294326e-06
6.737784e-06
1.7286615e-05
1.5703424e-05
1.6999971e-05
2.7413367e-05
8.9099574e-06
2.8594789e-05
3.3075532e-05
3.3075789e-05
3.3075604e-05
1.5931049e-05
1.0551121e-05
7.0553415e-06
6.4620734e-06
6.4162119e-06
6.419089e-06
6.4190786e-06
6.4162181e-06
6.4545806e-06
7.0555752e-06
1.0543921e-05
1.593167e-05
3.3075778e-05
3.3075962e-05
3.3075706e-05
2.8594881e-05
3.3075456e-05
3.3075625e-05
3.30755e-05
2.5376592e-05
1.1195808e-05
1.1518979e-05
8.3158398e-06
7.3415532e-06
7.3769989e-06
7.3793722e-06
7.3793053e-06
7.3769952e-06
7.3485633e-06
8.2510829e-06
1.1509667e-05
1.1201082e-05
2.5380268e-05
3.3075674e-05
3.3075799e-05
3.3075629e-05
3.3075625e-05
3.3075411e-05
3.3075626e-05
1.0720743e-05
8.1863115e-06
8.1985434e-06
8.0717987e-06
8.4458227e-06
8.3197e-06
8.3885468e-06
8.3897362e-06
8.3193333e-06
8.4475552e-06
8.0225357e-06
8.1604133e-06
8.1743016e-06
1.0698635e-05
3.30758e-05
3.3075584e-05
3.3075799e-05
3.3075351e-05
3.3075626e-05
1.9192197e-05
8.1863398e-06
8.0379035e-06
8.0718483e-06
8.0377361e-06
9.3839192e-06
1.0410603e-05
1.0152777e-05
1.0154039e-05
1.0389342e-05
9.3849909e-06
8.0012841e-06
8.0225856e-06
8.0015193e-06
8.229489e-06
1.9192032e-05
3.3075799e-05
3.3075525e-05
3.3075351e-05
3.3075352e-05
1.1112558e-05
8.3305879e-06
1.5822183e-05
1.6025177e-05
1.7089925e-05
1.4169779e-05
1.4680164e-05
1.0604164e-05
1.0594404e-05
1.4722751e-05
1.4216379e-05
1.7226886e-05
1.6108885e-05
1.5861568e-05
8.3141658e-06
1.1112541e-05
3.3075526e-05
3.3075524e-05
3.2092601e-05
2.6225199e-05
1.8173788e-05
1.5669751e-05
1.8729858e-05
1.8731113e-05
1.8729901e-05
1.8040914e-05
1.2388333e-05
1.0709849e-05
1.0714845e-05
1.2357261e-05
1.8013655e-05
1.873761e-05
1.8738884e-05
1.8737631e-05
1.5664976e-05
1.817631e-05
2.6222878e-05
3.2094025e-05
1.2268693e-05
1.1302815e-05
1.903116e-05
1.1300703e-05
1.8731094e-05
1.8729889e-05
1.8731077e-05
1.8729881e-05
1.228501e-05
1.2251574e-05
1.2255047e-05
1.2266427e-05
1.8737561e-05
1.873885e-05
1.8737599e-05
1.8738866e-05
1.1301006e-05
1.902786e-05
1.130312e-05
1.2269557e-05
1.1302098e-05
1.1301286e-05
1.9023907e-05
1.1299552e-05
1.5840289e-05
1.8075708e-05
1.8729889e-05
1.6103782e-05
1.4780675e-05
1.363107e-05
1.3644303e-05
1.4806302e-05
1.6078571e-05
1.8737569e-05
1.80849e-05
1.5822294e-05
1.1299855e-05
1.9024825e-05
1.1301589e-05
1.1302402e-05
1.1301286e-05
1.1300488e-05
1.1846611e-05
1.1298735e-05
1.1299617e-05
1.1300524e-05
1.2392503e-05
1.1303076e-05
1.522447e-05
1.493186e-05
1.4924282e-05
1.523639e-05
1.130338e-05
1.2376813e-05
1.1300828e-05
1.129992e-05
1.1299039e-05
1.1845321e-05
1.1300792e-05
1.1301589e-05
1.1301276e-05
1.1300375e-05
1.1299479e-05
1.1298587e-05
1.1299401e-05
1.1300294e-05
1.1301197e-05
1.1302096e-05
1.1614878e-05
1.4818871e-05
1.4814592e-05
1.1617422e-05
1.13024e-05
1.1301501e-05
1.1300598e-05
1.1299705e-05
1.1298891e-05
1.1299783e-05
1.1300679e-05
1.130158e-05
1.1657598e-05
1.1301127e-05
1.1300175e-05
1.1299222e-05
1.1299993e-05
1.1300909e-05
1.1301878e-05
1.1302838e-05
1.2449191e-05
1.5514044e-05
1.5511822e-05
1.2441953e-05
1.1303142e-05
1.1302182e-05
1.1301213e-05
1.1300297e-05
1.1299526e-05
1.1300479e-05
1.1301431e-05
1.1656966e-05
7.714323e-05
2.2533397e-05
1.2163676e-05
1.1300266e-05
1.1300953e-05
1.1301874e-05
1.1302966e-05
1.3468917e-05
1.8516136e-05
1.9808106e-05
1.9807574e-05
1.8511685e-05
1.3466458e-05
1.130327e-05
1.1302178e-05
1.1301257e-05
1.130057e-05
1.2163534e-05
2.2531777e-05
7.7134526e-05
0.0012480327
0.0002823966
9.2236957e-05
6.2139196e-05
5.0805241e-05
4.7828699e-05
4.9705604e-05
5.4563774e-05
5.6182206e-05
5.5908272e-05
5.5908311e-05
5.6181659e-05
5.4560217e-05
4.9700361e-05
4.7824815e-05
5.0803926e-05
6.2136106e-05
9.2232346e-05
0.00028237009
0.0012478749
0.048249179
0.0063980812
0.0017352769
0.0010444013
0.0008128097
0.00072506093
0.00068863857
0.00067231028
0.00065500352
0.00064605615
0.00064605456
0.00065499915
0.00067230113
0.00068862308
0.00072504015
0.00081278754
0.0010443595
0.0017351743
0.0063973935
0.0482417
0.58596414
0.21878273
0.077656505
0.045977241
0.033946358
0.029347129
0.027268841
0.026161213
0.025295167
0.024858857
0.024858768
0.025294924
0.026160759
0.027268213
0.029346313
0.033945214
0.045975167
0.07765199
0.21876858
0.58593736
0.96641116
0.82835425
0.67860691
0.59185453
0.54017836
0.51429228
0.50162949
0.49475161
0.48921059
0.48636219
0.4863616
0.489209
0.49474866
0.50162553
0.51428737
0.54017213
0.59184667
0.67859715
0.82834503
0.96640666
0.9996841
0.99401827
0.98030067
0.96845422
0.9593249
0.95392714
0.95115009
0.94960672
0.94833195
0.94766697
0.94766683
0.94833158
0.94960603
0.95114919
0.95392607
0.95932365
0.96845296
0.98029955
0.99401766
0.99968404
0.99999983
0.99998088
0.99985798
0.99969651
0.99954443
0.99944204
0.99938873
0.99935832
0.99933251
0.9993189
0.9993189
0.9993325
0.9993583
0.99938871
0.99944202
0.99954441
0.99969649
0.99985797
0.99998087
0.99999983
1
1
0.99999993
0.99999978
0.9999996
0.99999947
0.99999939
0.99999936
0.99999932
0.9999993
0.9999993
0.99999932
0.99999936
0.99999939
0.99999946
0.9999996
0.99999978
0.99999993
1
1
1
1
1
1
1
1
1
1
1
1
1
1
1
1
1
1
1
1
1
1
1
1
1
1
1
1
1
1
1
1
1
1
1
1
1
1
1
1
1
1
1
1
1
1
1
1
1
1
1
1
1
1
1
1
1
1
1
1
1
1
1
1
1
1
1
1
1
1
1
1
1
1
1
1
1
1
1
1
1
1
)
;

boundaryField
{
    Wall
    {
        type            zeroGradient;
    }
    frontAndBack
    {
        type            empty;
    }
    atmosphere
    {
        type            zeroGradient;
    }
}


// ************************************************************************* //
