/*--------------------------------*- C++ -*----------------------------------*\
| =========                 |                                                 |
| \\      /  F ield         | OpenFOAM: The Open Source CFD Toolbox           |
|  \\    /   O peration     | Version:  3.0.1                                 |
|   \\  /    A nd           | Web:      www.OpenFOAM.org                      |
|    \\/     M anipulation  |                                                 |
\*---------------------------------------------------------------------------*/
FoamFile
{
    version     2.0;
    format      ascii;
    class       volScalarField;
    location    "33";
    object      g1_BA;
}
// * * * * * * * * * * * * * * * * * * * * * * * * * * * * * * * * * * * * * //

dimensions      [0 0 0 0 0 0 0];

internalField   nonuniform List<scalar> 
800
(
0.53787649
0.537861
0.53784836
0.53784524
0.53784417
0.53784339
0.53784282
0.53784246
0.53784226
0.53784217
0.53784217
0.53784226
0.53784246
0.53784282
0.53784339
0.53784417
0.53784524
0.53784836
0.537861
0.53787648
0.54521734
0.54494668
0.54487667
0.54486029
0.54485728
0.54485702
0.54485714
0.54485716
0.54485709
0.54485703
0.54485703
0.54485709
0.54485716
0.54485714
0.54485702
0.54485729
0.5448603
0.54487667
0.5449467
0.54521736
0.54614866
0.54587617
0.54582304
0.54581614
0.54581578
0.54581507
0.54581365
0.54581208
0.54581084
0.54581017
0.54581017
0.54581084
0.54581208
0.54581364
0.54581507
0.54581578
0.54581613
0.54582304
0.54587617
0.54614866
0.54209403
0.54202725
0.54205769
0.54208568
0.5420976
0.54209964
0.54209736
0.54209407
0.54209133
0.54208986
0.54208986
0.54209133
0.54209406
0.54209735
0.54209962
0.54209758
0.54208566
0.54205766
0.54202721
0.54209399
0.53367227
0.53396085
0.53412418
0.53420478
0.53423634
0.53424293
0.53423997
0.53423476
0.53423027
0.53422784
0.53422783
0.53423026
0.53423474
0.53423995
0.53424289
0.53423629
0.53420473
0.53412412
0.53396078
0.53367216
0.52151871
0.52228368
0.52260523
0.52274579
0.52279842
0.52281118
0.52280853
0.52280185
0.52279586
0.52279258
0.52279257
0.52279584
0.52280182
0.52280849
0.52281113
0.52279835
0.5227457
0.52260513
0.52228356
0.52151856
0.50637848
0.50769629
0.50819401
0.50839921
0.50847389
0.50849175
0.50848831
0.50847939
0.5084714
0.50846704
0.50846704
0.50847138
0.50847935
0.50848824
0.50849167
0.50847379
0.5083991
0.50819387
0.50769613
0.50637828
0.48894494
0.49085418
0.49153382
0.49180391
0.49189898
0.49192095
0.49191634
0.49190506
0.49189505
0.49188961
0.4918896
0.49189501
0.49190501
0.49191626
0.49192085
0.49189886
0.49180377
0.49153366
0.490854
0.48894471
0.46943616
0.47204756
0.47292998
0.47326516
0.4733805
0.47340619
0.47340007
0.47338623
0.47337406
0.47336749
0.47336747
0.47337402
0.47338617
0.47339998
0.47340608
0.47338036
0.47326499
0.47292979
0.47204735
0.4694359
0.4483063
0.45165144
0.45274689
0.45314384
0.4532759
0.45330388
0.4532958
0.45327924
0.45326482
0.45325708
0.45325706
0.45326478
0.45327916
0.45329569
0.45330375
0.45327574
0.45314366
0.45274669
0.45165121
0.44830604
0.4256705
0.42977644
0.43111383
0.43157081
0.43171356
0.43174187
0.43173266
0.43171413
0.43169786
0.43168914
0.43168913
0.4316978
0.43171404
0.43173255
0.43174173
0.43171339
0.43157062
0.43111362
0.4297762
0.42567024
0.40193828
0.40676109
0.40835205
0.40886514
0.40900539
0.40902724
0.40901729
0.40899723
0.40897923
0.40896962
0.4089696
0.40897918
0.40899715
0.40901717
0.4090271
0.40900522
0.40886495
0.40835183
0.40676086
0.40193802
0.38238988
0.38768865
0.38936936
0.38993564
0.39010109
0.39012732
0.39011023
0.39008513
0.39006394
0.3900526
0.39005259
0.39006389
0.39008505
0.39011011
0.39012718
0.39010092
0.38993545
0.38936916
0.38768843
0.38238964
0.359862
0.36583841
0.36774388
0.36836894
0.36854368
0.36856731
0.36854851
0.3685208
0.36849743
0.36848484
0.36848483
0.36849738
0.36852071
0.3685484
0.36856717
0.36854352
0.36836876
0.36774368
0.3658382
0.35986178
0.33756915
0.34421269
0.34635474
0.34704356
0.34722839
0.34725044
0.34722875
0.34719822
0.3471726
0.34715873
0.34715872
0.34717255
0.34719814
0.34722864
0.3472503
0.34722823
0.34704339
0.34635455
0.34421249
0.33756895
0.31561607
0.32291773
0.32531613
0.3260785
0.32627887
0.32630131
0.32627569
0.32624288
0.32621564
0.32620078
0.32620076
0.32621559
0.3262428
0.32627559
0.32630118
0.32627872
0.32607834
0.32531595
0.32291755
0.31561588
0.29416585
0.30211771
0.30478994
0.30563678
0.3058581
0.30588014
0.30584833
0.30581221
0.3057832
0.30576713
0.30576711
0.30578315
0.30581214
0.30584823
0.30588002
0.30585797
0.30563664
0.30478978
0.30211755
0.29416568
0.273329
0.28191446
0.28488646
0.28583482
0.28608443
0.28610628
0.28606733
0.28602716
0.28599676
0.2859794
0.28597939
0.28599671
0.28602708
0.28606723
0.28610617
0.28608431
0.28583469
0.28488632
0.28191432
0.27332887
0.25317825
0.26238244
0.26568679
0.26675892
0.26704524
0.26706756
0.26702031
0.26697447
0.26694269
0.26692375
0.26692374
0.26694265
0.26697441
0.26702023
0.26706746
0.26704514
0.2667588
0.26568666
0.26238232
0.25317813
0.23373535
0.24355004
0.24722883
0.24845423
0.248789
0.24881391
0.24875714
0.24870345
0.24866992
0.24864896
0.24864894
0.24866988
0.24870339
0.24875707
0.24881383
0.2487889
0.24845414
0.24722872
0.24354994
0.23373527
0.21497293
0.22539843
0.22950456
0.23092159
0.23132156
0.23135308
0.23128563
0.23122146
0.23118523
0.23116166
0.23116165
0.23118519
0.2312214
0.23128556
0.23135301
0.23132148
0.23092151
0.22950447
0.22539836
0.21497287
0.19682424
0.20786917
0.21246703
0.21412428
0.21461287
0.2146576
0.21457864
0.21450101
0.21446035
0.21443339
0.21443338
0.21446032
0.21450096
0.21457858
0.21465754
0.21461281
0.21412421
0.21246696
0.20786911
0.19682421
0.17919266
0.19087306
0.19603892
0.19799688
0.19860571
0.19867396
0.19858354
0.19848915
0.19844142
0.19840994
0.19840992
0.1984414
0.19848911
0.19858349
0.19867391
0.19860566
0.19799684
0.19603887
0.19087303
0.17919267
0.16195904
0.17429664
0.18011919
0.18245258
0.18322357
0.18333103
0.18323054
0.18311579
0.18305736
0.18301967
0.18301966
0.18305734
0.18311575
0.1832305
0.18333099
0.18322353
0.18245255
0.18011917
0.17429664
0.16195908
0.14498645
0.15800573
0.164587
0.16738654
0.16837562
0.16854483
0.16843767
0.16829875
0.16822496
0.16817864
0.16817863
0.16822494
0.16829871
0.16843763
0.1685448
0.16837559
0.16738652
0.164587
0.15800577
0.14498654
0.12812374
0.14184601
0.14930065
0.15267716
0.15395706
0.15422132
0.15411441
0.15394741
0.15385245
0.1537941
0.15379409
0.15385243
0.15394738
0.15411438
0.1542213
0.15395704
0.15267716
0.14930067
0.14184609
0.12812388
0.11121271
0.12564556
0.13409597
0.13818383
0.13985074
0.14025708
0.14016317
0.13996451
0.13984112
0.13976604
0.13976603
0.1398411
0.13996448
0.14016315
0.14025707
0.13985074
0.13818384
0.13409602
0.12564569
0.11121291
0.094104794
0.10921255
0.11878303
0.12374845
0.12592846
0.12654374
0.1264846
0.12625179
0.12609087
0.12599272
0.12599271
0.12609086
0.12625177
0.12648458
0.12654374
0.12592846
0.12374848
0.11878311
0.10921273
0.094105065
0.076695851
0.092351974
0.10315683
0.10919174
0.11204319
0.11297217
0.11298394
0.11271733
0.11250755
0.1123778
0.11237779
0.11250753
0.11271731
0.11298393
0.11297218
0.11204321
0.10919179
0.10315694
0.092352213
0.076696209
0.058892522
0.074896215
0.086995283
0.094309859
0.09804819
0.099426139
0.099574737
0.099281258
0.09900952
0.098836929
0.098836921
0.099009509
0.099281242
0.099574737
0.09942615
0.098048221
0.094309931
0.086995432
0.074896521
0.058892997
0.038630441
0.055867101
0.069784423
0.078725053
0.083668687
0.085727457
0.086107826
0.085813219
0.085469904
0.085242108
0.085242101
0.085469896
0.08581321
0.086107836
0.08572748
0.08366874
0.078725157
0.069784638
0.055867548
0.038630997
0
0.031974012
0.046199921
0.056875852
0.06346979
0.066732415
0.067763735
0.068412731
0.068129959
0.067897101
0.067897099
0.068129966
0.068412751
0.067763777
0.066732477
0.063469888
0.056876017
0.046200198
0.031974407
0
0
0
0
0
0
0
0
0.045916586
0.045941767
0.045746611
0.045746609
0.045941775
0.045916603
0
0
0
0
0
0
0
0
0
0
0
0
0
0
0
0
0
0
0
0
0
0
0
0
0
0
0
0
0
0
0
0
0
0
0
0
0
0
0
0
0
0
0
0
0
0
0
0
0
0
0
0
0
0
0
0
0
0
0
0
0
0
0
0
0
0
0
0
0
0
0
0
0
0
0
0
0
0
0
0
0
0
0
0
0
0
0
0
0
0
0
0
0
0
0
0
0
0
0
0
0
0
0
0
0
0
0
0
0
0
0
0
0
0
0
0
0
0
0
0
0
0
0
0
0
0
0
0
0
0
0
0
0
0
0
0
0
0
0
0
0
0
0
0
0
0
0
)
;

boundaryField
{
    Wall
    {
        type            zeroGradient;
    }
    frontAndBack
    {
        type            empty;
    }
    atmosphere
    {
        type            zeroGradient;
    }
}


// ************************************************************************* //
