/*--------------------------------*- C++ -*----------------------------------*\
| =========                 |                                                 |
| \\      /  F ield         | OpenFOAM: The Open Source CFD Toolbox           |
|  \\    /   O peration     | Version:  3.0.1                                 |
|   \\  /    A nd           | Web:      www.OpenFOAM.org                      |
|    \\/     M anipulation  |                                                 |
\*---------------------------------------------------------------------------*/
FoamFile
{
    version     2.0;
    format      ascii;
    class       volScalarField;
    location    "33";
    object      g1_CO2;
}
// * * * * * * * * * * * * * * * * * * * * * * * * * * * * * * * * * * * * * //

dimensions      [0 0 0 0 0 0 0];

internalField   nonuniform List<scalar> 
800
(
0.47071491
0.47076306
0.47076872
0.47076894
0.47076839
0.47076779
0.47076744
0.47076731
0.47076729
0.4707673
0.4707673
0.47076729
0.47076732
0.47076744
0.47076779
0.47076839
0.47076894
0.47076872
0.47076306
0.47071491
0.48722562
0.48697116
0.4869591
0.48697279
0.48698227
0.48698563
0.48698552
0.4869841
0.48698265
0.4869818
0.4869818
0.48698265
0.48698409
0.48698551
0.48698562
0.48698227
0.48697278
0.48695909
0.48697115
0.4872256
0.50229194
0.50182556
0.50177847
0.50179358
0.50180606
0.50181027
0.50180938
0.5018066
0.50180396
0.50180242
0.50180242
0.50180396
0.5018066
0.50180937
0.50181027
0.50180605
0.50179356
0.50177846
0.50182553
0.5022919
0.51708671
0.51638074
0.51630254
0.51632218
0.5163389
0.51634539
0.51634495
0.51634189
0.51633876
0.51633692
0.51633692
0.51633876
0.51634189
0.51634495
0.51634538
0.51633889
0.51632216
0.51630251
0.51638071
0.51708665
0.53194844
0.53093178
0.53081118
0.53083123
0.5308523
0.53086127
0.53086163
0.53085882
0.53085561
0.53085367
0.53085367
0.5308556
0.53085881
0.53086162
0.53086125
0.53085229
0.53083121
0.53081115
0.53093174
0.53194836
0.5473382
0.54592155
0.54572294
0.54572686
0.5457468
0.54575807
0.54576007
0.54575838
0.54575573
0.54575407
0.54575407
0.54575573
0.54575838
0.54576007
0.54575806
0.54574679
0.54572684
0.54572291
0.54592151
0.54733812
0.56395443
0.56198715
0.56166794
0.56163565
0.56164867
0.56165928
0.56166144
0.56166027
0.5616579
0.56165641
0.56165641
0.5616579
0.56166027
0.56166144
0.56165927
0.56164866
0.56163563
0.56166791
0.56198711
0.56395434
0.58262348
0.5798757
0.57937303
0.5792802
0.57927824
0.57928497
0.57928613
0.57928515
0.57928301
0.57928172
0.57928172
0.57928302
0.57928516
0.57928615
0.57928497
0.57927824
0.57928019
0.57937301
0.57987566
0.58262341
0.60379687
0.60010992
0.59936463
0.59918773
0.59916335
0.59916344
0.59916192
0.59916018
0.59915783
0.59915655
0.59915655
0.59915784
0.59916019
0.59916195
0.59916345
0.59916336
0.59918773
0.59936462
0.60010989
0.6037968
0.62822238
0.62333607
0.62225781
0.62196992
0.62190915
0.62189695
0.62188974
0.62188552
0.62188219
0.62188057
0.62188058
0.62188222
0.62188555
0.62188978
0.62189698
0.62190919
0.62196994
0.62225782
0.62333607
0.62822234
0.65623359
0.64990515
0.64841134
0.64798775
0.64786977
0.64783523
0.64781917
0.6478108
0.64780594
0.64780369
0.6478037
0.64780597
0.64781084
0.64781922
0.64783528
0.64786982
0.6479878
0.64841138
0.64990517
0.65623358
0.68842057
0.68034847
0.67832881
0.67774068
0.67752689
0.67744835
0.67741755
0.67740166
0.67739422
0.67739065
0.67739067
0.67739425
0.67740172
0.67741762
0.67744843
0.67752696
0.67774076
0.67832888
0.68034853
0.6884206
0.73327082
0.72258035
0.71961975
0.71881812
0.71848177
0.71834232
0.71827818
0.71824389
0.71822904
0.71822189
0.7182219
0.71822909
0.71824396
0.71827828
0.71834243
0.71848188
0.71881824
0.71961987
0.72258046
0.73327092
0.77992966
0.76676942
0.76292958
0.76189034
0.76137168
0.76113658
0.76104914
0.76099091
0.76095994
0.76094822
0.76094824
0.76096
0.760991
0.76104925
0.76113671
0.76137183
0.76189049
0.76292974
0.76676957
0.77992983
0.83410139
0.81821323
0.81335336
0.81203338
0.81127644
0.81094231
0.81080768
0.8107135
0.81064288
0.81062436
0.81062439
0.81064294
0.81071361
0.81080781
0.81094247
0.81127662
0.81203358
0.81335357
0.81821345
0.83410163
0.89540207
0.87680469
0.87086638
0.86922945
0.86822296
0.86778972
0.86757085
0.86743034
0.86728298
0.86725534
0.86725537
0.86728305
0.86743045
0.867571
0.8677899
0.86822316
0.86922968
0.87086662
0.87680496
0.89540237
0.96372325
0.94259707
0.93556415
0.93357985
0.93233619
0.93178386
0.93142984
0.93122872
0.9309531
0.93091362
0.93091364
0.93095317
0.93122884
0.93143
0.93178406
0.93233642
0.93358011
0.93556443
0.94259738
0.96372359
1.0392124
1.0158266
1.0077351
1.0054059
1.0039477
1.0032316
1.002676
1.0023984
1.0019295
1.0018796
1.0018796
1.0019295
1.0023985
1.0026761
1.0032318
1.0039479
1.0054061
1.0077354
1.0158269
1.0392127
1.1221105
1.0968899
1.0878342
1.0852172
1.0835624
1.0826067
1.0817649
1.0813905
1.0806423
1.0805904
1.0805904
1.0806423
1.0813906
1.081765
1.0826069
1.0835626
1.0852175
1.0878345
1.0968902
1.1221108
1.2125619
1.1861896
1.1763594
1.1735885
1.1717315
1.1704421
1.1692239
1.1687294
1.1675974
1.1675607
1.1675607
1.1675974
1.1687295
1.169224
1.1704423
1.1717317
1.1735888
1.1763596
1.1861899
1.2125621
1.3104824
1.2840412
1.2737815
1.2710628
1.2689722
1.2672567
1.2655845
1.2649455
1.2633273
1.2633299
1.2633299
1.2633273
1.2649455
1.2655846
1.2672568
1.2689724
1.271063
1.2737817
1.2840414
1.3104825
1.4154206
1.3905285
1.3804434
1.3780607
1.3757315
1.3734854
1.3712998
1.3704904
1.3683241
1.368393
1.368393
1.3683241
1.3704904
1.3712999
1.3734854
1.3757316
1.3780608
1.3804436
1.3905286
1.4154206
1.5263269
1.5052678
1.4963908
1.4947018
1.4922817
1.4893652
1.48655
1.4855426
1.4828454
1.4830055
1.4830055
1.4828454
1.4855426
1.4865499
1.4893652
1.4922817
1.4947018
1.4963908
1.5052678
1.5263268
1.6408507
1.6269114
1.6209857
1.6204336
1.6183688
1.6145545
1.6108886
1.6096554
1.6065471
1.6068172
1.6068172
1.606547
1.6096553
1.6108886
1.6145545
1.6183687
1.6204336
1.6209856
1.6269113
1.6408504
1.7538216
1.7521232
1.7518202
1.7533725
1.7522721
1.7474173
1.742697
1.7412181
1.7379194
1.7383128
1.7383128
1.7379193
1.741218
1.7426969
1.7474172
1.752272
1.7533725
1.7518201
1.752123
1.7538215
1.8548748
1.8738295
1.8830792
1.8890993
1.8894373
1.8839412
1.8782265
1.876501
1.8733067
1.8738313
1.8738313
1.8733066
1.8765008
1.8782264
1.8839411
1.8894372
1.8890992
1.8830791
1.8738295
1.8548752
1.9252962
1.9783715
2.0034094
2.0176041
2.0207167
2.015158
2.0089768
2.0070326
2.0042645
2.0049192
2.0049192
2.0042645
2.0070325
2.0089767
2.015158
2.0207167
2.0176042
2.0034096
1.9783722
1.9252978
1.9351284
2.0394431
2.0911067
2.1200645
2.1280258
2.1244466
2.1188322
2.1167247
2.1146586
2.1154168
2.1154167
2.1146586
2.1167247
2.1188323
2.1244468
2.1280261
2.120065
2.0911076
2.0394452
1.9351324
1.8444636
2.0183442
2.1128756
2.1632722
2.1793576
2.1823064
2.178645
2.1764301
2.1751782
2.1759424
2.1759424
2.1751783
2.1764302
2.1786454
2.182307
2.1793584
2.1632734
2.1128778
2.0183486
1.844471
1.6176726
1.8669229
2.0216407
2.1006633
2.1359502
2.145491
2.1455868
2.1433432
2.1426883
2.1432137
2.1432138
2.1426886
2.1433436
2.1455876
2.1454921
2.1359518
2.1006656
2.0216445
1.8669302
1.6176835
1.2559941
1.5700039
1.7788341
1.8924359
1.95549
1.980916
1.9790027
1.9778139
1.9770917
1.9769096
1.9769097
1.9770921
1.9778147
1.9790038
1.9809176
1.9554922
1.892439
1.7788392
1.5700128
1.256005
0
1.1372811
1.4001935
1.5493153
1.6313768
1.6715183
1.6803586
1.6812617
1.6788877
1.677244
1.6772441
1.678888
1.6812624
1.6803596
1.6715196
1.6313786
1.5493182
1.4001982
1.1372891
0
0
0
0
0
0
0
0
1.2416014
1.2381514
1.2351785
1.2351787
1.2381518
1.2416021
0
0
0
0
0
0
0
0
0
0
0
0
0
0
0
0
0
0
0
0
0
0
0
0
0
0
0
0
0
0
0
0
0
0
0
0
0
0
0
0
0
0
0
0
0
0
0
0
0
0
0
0
0
0
0
0
0
0
0
0
0
0
0
0
0
0
0
0
0
0
0
0
0
0
0
0
0
0
0
0
0
0
0
0
0
0
0
0
0
0
0
0
0
0
0
0
0
0
0
0
0
0
0
0
0
0
0
0
0
0
0
0
0
0
0
0
0
0
0
0
0
0
0
0
0
0
0
0
0
0
0
0
0
0
0
0
0
0
0
0
0
0
0
0
0
0
0
)
;

boundaryField
{
    Wall
    {
        type            zeroGradient;
    }
    frontAndBack
    {
        type            empty;
    }
    atmosphere
    {
        type            zeroGradient;
    }
}


// ************************************************************************* //
