/*--------------------------------*- C++ -*----------------------------------*\
| =========                 |                                                 |
| \\      /  F ield         | OpenFOAM: The Open Source CFD Toolbox           |
|  \\    /   O peration     | Version:  3.0.1                                 |
|   \\  /    A nd           | Web:      www.OpenFOAM.org                      |
|    \\/     M anipulation  |                                                 |
\*---------------------------------------------------------------------------*/
FoamFile
{
    version     2.0;
    format      ascii;
    class       volScalarField;
    location    "33";
    object      M2;
}
// * * * * * * * * * * * * * * * * * * * * * * * * * * * * * * * * * * * * * //

dimensions      [0 0 0 0 0 0 0];

internalField   nonuniform List<scalar> 
800
(
1.8061988e-12
1.8063624e-12
1.8063917e-12
1.8063945e-12
1.806394e-12
1.8063935e-12
1.8063934e-12
1.8063935e-12
1.8063937e-12
1.8063937e-12
1.8063938e-12
1.8063937e-12
1.8063935e-12
1.8063934e-12
1.8063935e-12
1.806394e-12
1.8063946e-12
1.8063917e-12
1.8063624e-12
1.8061988e-12
1.795165e-12
1.7963604e-12
1.796669e-12
1.7967443e-12
1.7967523e-12
1.7967444e-12
1.7967355e-12
1.7967292e-12
1.7967255e-12
1.7967238e-12
1.7967238e-12
1.7967255e-12
1.7967292e-12
1.7967355e-12
1.7967444e-12
1.7967523e-12
1.7967443e-12
1.796669e-12
1.7963603e-12
1.7951649e-12
1.789684e-12
1.7914026e-12
1.7919501e-12
1.7920802e-12
1.7920965e-12
1.7920858e-12
1.7920731e-12
1.7920641e-12
1.7920589e-12
1.7920566e-12
1.7920566e-12
1.7920589e-12
1.7920641e-12
1.792073e-12
1.7920858e-12
1.7920964e-12
1.7920801e-12
1.79195e-12
1.7914025e-12
1.7896838e-12
1.7906382e-12
1.7925226e-12
1.7932192e-12
1.7933718e-12
1.793386e-12
1.7933713e-12
1.7933564e-12
1.7933468e-12
1.7933418e-12
1.7933397e-12
1.7933397e-12
1.7933418e-12
1.7933468e-12
1.7933563e-12
1.7933713e-12
1.793386e-12
1.7933718e-12
1.7932191e-12
1.7925225e-12
1.790638e-12
1.7987182e-12
1.800386e-12
1.8011284e-12
1.8012722e-12
1.80127e-12
1.801247e-12
1.8012294e-12
1.80122e-12
1.8012159e-12
1.8012145e-12
1.8012145e-12
1.8012159e-12
1.80122e-12
1.8012293e-12
1.8012469e-12
1.8012699e-12
1.8012722e-12
1.8011284e-12
1.800386e-12
1.798718e-12
1.814584e-12
1.8156271e-12
1.8163005e-12
1.8164034e-12
1.8163679e-12
1.8163308e-12
1.816309e-12
1.8162999e-12
1.8162971e-12
1.8162967e-12
1.8162967e-12
1.8162971e-12
1.8162999e-12
1.816309e-12
1.8163308e-12
1.8163679e-12
1.8164034e-12
1.8163005e-12
1.8156271e-12
1.8145839e-12
1.8388301e-12
1.8388201e-12
1.8392936e-12
1.839322e-12
1.8392356e-12
1.8391775e-12
1.8391493e-12
1.8391399e-12
1.8391385e-12
1.8391391e-12
1.8391392e-12
1.8391385e-12
1.8391399e-12
1.8391493e-12
1.8391775e-12
1.8392356e-12
1.8393221e-12
1.8392936e-12
1.8388202e-12
1.8388301e-12
1.8720286e-12
1.8705136e-12
1.8706292e-12
1.8705466e-12
1.8703914e-12
1.8703049e-12
1.8702675e-12
1.8702569e-12
1.8702567e-12
1.8702584e-12
1.8702584e-12
1.8702567e-12
1.870257e-12
1.8702676e-12
1.870305e-12
1.8703915e-12
1.8705467e-12
1.8706293e-12
1.8705138e-12
1.8720287e-12
1.9147828e-12
1.9113223e-12
1.9108889e-12
1.9106554e-12
1.9104169e-12
1.9102946e-12
1.9102447e-12
1.9102314e-12
1.9102317e-12
1.9102343e-12
1.9102343e-12
1.9102318e-12
1.9102315e-12
1.9102448e-12
1.9102948e-12
1.9104171e-12
1.9106556e-12
1.9108891e-12
1.9113226e-12
1.9147831e-12
1.9673882e-12
1.9616153e-12
1.9604178e-12
1.9599918e-12
1.9596659e-12
1.9595042e-12
1.9594374e-12
1.9594191e-12
1.9594191e-12
1.9594222e-12
1.9594222e-12
1.9594192e-12
1.9594192e-12
1.9594376e-12
1.9595044e-12
1.9596662e-12
1.9599921e-12
1.9604181e-12
1.9616157e-12
1.9673886e-12
2.0298653e-12
2.0215086e-12
2.019316e-12
2.018654e-12
2.0182515e-12
2.0180551e-12
2.0179657e-12
2.0179392e-12
2.0179378e-12
2.0179407e-12
2.0179408e-12
2.0179379e-12
2.0179394e-12
2.0179659e-12
2.0180554e-12
2.0182519e-12
2.0186544e-12
2.0193165e-12
2.021509e-12
2.0298658e-12
2.1020449e-12
2.0909343e-12
2.0875227e-12
2.0865781e-12
2.0861257e-12
2.0859099e-12
2.0857902e-12
2.085751e-12
2.0857467e-12
2.0857487e-12
2.0857487e-12
2.0857469e-12
2.0857512e-12
2.0857904e-12
2.0859103e-12
2.0861261e-12
2.0865786e-12
2.0875232e-12
2.0909348e-12
2.1020454e-12
2.1820321e-12
2.1681118e-12
2.1633872e-12
2.1621139e-12
2.161606e-12
2.1613745e-12
2.1612168e-12
2.1611599e-12
2.1611541e-12
2.161154e-12
2.1611541e-12
2.1611542e-12
2.1611601e-12
2.1612171e-12
2.1613749e-12
2.1616065e-12
2.1621144e-12
2.1633878e-12
2.1681124e-12
2.1820327e-12
2.271095e-12
2.2542934e-12
2.2481189e-12
2.2464488e-12
2.2459346e-12
2.2457041e-12
2.2455162e-12
2.2454322e-12
2.245427e-12
2.245423e-12
2.245423e-12
2.2454272e-12
2.2454324e-12
2.2455165e-12
2.2457045e-12
2.2459351e-12
2.2464494e-12
2.2481195e-12
2.254294e-12
2.2710957e-12
2.368626e-12
2.3489669e-12
2.3413129e-12
2.3391721e-12
2.3386879e-12
2.3385017e-12
2.3382627e-12
2.3381415e-12
2.3381378e-12
2.3381311e-12
2.3381312e-12
2.338138e-12
2.3381418e-12
2.3382631e-12
2.3385021e-12
2.3386884e-12
2.3391727e-12
2.3413135e-12
2.3489676e-12
2.3686268e-12
2.4726544e-12
2.4505397e-12
2.4415207e-12
2.438852e-12
2.4384819e-12
2.4383789e-12
2.438046e-12
2.4378804e-12
2.4378756e-12
2.4378802e-12
2.4378803e-12
2.4378758e-12
2.4378807e-12
2.4380464e-12
2.4383793e-12
2.4384825e-12
2.4388526e-12
2.4415213e-12
2.4505404e-12
2.4726551e-12
2.5811523e-12
2.5571973e-12
2.5470122e-12
2.5437925e-12
2.5436431e-12
2.5436258e-12
2.5431423e-12
2.5429268e-12
2.5429145e-12
2.542967e-12
2.542967e-12
2.5429147e-12
2.5429271e-12
2.5431427e-12
2.5436263e-12
2.5436436e-12
2.5437931e-12
2.5470129e-12
2.557198e-12
2.581153e-12
2.6925963e-12
2.6674741e-12
2.6563408e-12
2.6525928e-12
2.6527572e-12
2.6527756e-12
2.6520664e-12
2.6517947e-12
2.6517574e-12
2.6519199e-12
2.65192e-12
2.6517576e-12
2.6517949e-12
2.6520668e-12
2.652776e-12
2.6527577e-12
2.6525934e-12
2.6563414e-12
2.6674748e-12
2.692597e-12
2.805736e-12
2.7801759e-12
2.7683008e-12
2.7640926e-12
2.7646481e-12
2.7646007e-12
2.763579e-12
2.7632427e-12
2.7631413e-12
2.7634956e-12
2.7634957e-12
2.7631415e-12
2.7632429e-12
2.7635793e-12
2.7646011e-12
2.7646485e-12
2.7640931e-12
2.7683014e-12
2.7801764e-12
2.8057365e-12
2.9192542e-12
2.8941152e-12
2.8816927e-12
2.8771193e-12
2.8781211e-12
2.8778818e-12
2.8764717e-12
2.8760634e-12
2.875839e-12
2.876473e-12
2.876473e-12
2.8758391e-12
2.8760636e-12
2.876472e-12
2.8778821e-12
2.8781215e-12
2.8771197e-12
2.8816932e-12
2.8941156e-12
2.9192545e-12
3.0315263e-12
3.0078919e-12
2.9951315e-12
2.9902752e-12
2.9917424e-12
2.9912024e-12
2.9893667e-12
2.9888841e-12
2.988488e-12
2.9894806e-12
2.9894806e-12
2.9884881e-12
2.9888842e-12
2.9893669e-12
2.9912026e-12
2.9917427e-12
2.9902755e-12
2.9951318e-12
3.0078922e-12
3.0315265e-12
3.1404471e-12
3.1196917e-12
3.1068703e-12
3.1017695e-12
3.1036997e-12
3.1027792e-12
3.1005332e-12
3.0999822e-12
3.0994258e-12
3.1008356e-12
3.1008356e-12
3.0994259e-12
3.0999823e-12
3.1005333e-12
3.1027794e-12
3.1036999e-12
3.1017697e-12
3.1068706e-12
3.1196919e-12
3.1404471e-12
3.2432781e-12
3.2270921e-12
3.2146294e-12
3.2092529e-12
3.2116821e-12
3.2103168e-12
3.2076848e-12
3.2070818e-12
3.2064753e-12
3.2083347e-12
3.2083347e-12
3.2064753e-12
3.2070819e-12
3.2076848e-12
3.2103169e-12
3.2116822e-12
3.209253e-12
3.2146295e-12
3.2270921e-12
3.243278e-12
3.3363464e-12
3.3268371e-12
3.3153914e-12
3.3096254e-12
3.3126769e-12
3.3107894e-12
3.307765e-12
3.3071368e-12
3.3066922e-12
3.309009e-12
3.309009e-12
3.3066922e-12
3.3071369e-12
3.307765e-12
3.3107894e-12
3.3126769e-12
3.3096254e-12
3.3153914e-12
3.326837e-12
3.3363462e-12
3.414571e-12
3.4145044e-12
3.4050074e-12
3.3988247e-12
3.4025919e-12
3.4001716e-12
3.3967593e-12
3.3961424e-12
3.3961384e-12
3.3989006e-12
3.3989006e-12
3.3961384e-12
3.3961424e-12
3.3967593e-12
3.4001716e-12
3.4025918e-12
3.3988246e-12
3.4050073e-12
3.4145043e-12
3.4145709e-12
3.4709797e-12
3.4841139e-12
3.4778089e-12
3.4715247e-12
3.4758891e-12
3.4731534e-12
3.4694529e-12
3.4688926e-12
3.4696169e-12
3.4728008e-12
3.4728008e-12
3.4696169e-12
3.4688927e-12
3.4694529e-12
3.4731534e-12
3.4758891e-12
3.4715247e-12
3.4778088e-12
3.4841138e-12
3.4709798e-12
3.4963008e-12
3.5276372e-12
3.526314e-12
3.5204776e-12
3.5253028e-12
3.5225976e-12
3.5188313e-12
3.5183761e-12
3.520065e-12
3.523641e-12
3.5236411e-12
3.5200651e-12
3.5183762e-12
3.5188313e-12
3.5225976e-12
3.5253028e-12
3.5204776e-12
3.526314e-12
3.5276373e-12
3.4963013e-12
3.4787857e-12
3.5342358e-12
3.5406585e-12
3.5360693e-12
3.5412912e-12
3.5391871e-12
3.5356241e-12
3.5353131e-12
3.5381035e-12
3.5420375e-12
3.5420375e-12
3.5381036e-12
3.5353132e-12
3.5356242e-12
3.5391872e-12
3.5412913e-12
3.5360695e-12
3.5406588e-12
3.5342365e-12
3.4787869e-12
3.4046895e-12
3.4907739e-12
3.5087688e-12
3.5060819e-12
3.5119544e-12
3.5111535e-12
3.5079727e-12
3.5078153e-12
3.5117121e-12
3.5159607e-12
3.5159608e-12
3.5117122e-12
3.5078155e-12
3.5079729e-12
3.5111537e-12
3.5119546e-12
3.5060823e-12
3.5087694e-12
3.4907752e-12
3.4046918e-12
3.2594213e-12
3.3831738e-12
3.4169163e-12
3.4170271e-12
3.4243908e-12
3.4253075e-12
3.4225302e-12
3.4224957e-12
3.4273572e-12
3.4318578e-12
3.4318579e-12
3.4273573e-12
3.422496e-12
3.4225305e-12
3.4253079e-12
3.4243912e-12
3.4170278e-12
3.4169174e-12
3.3831759e-12
3.2594245e-12
3.0269618e-12
3.1976646e-12
3.252364e-12
3.2569534e-12
3.2656514e-12
3.268688e-12
3.2671999e-12
3.2672975e-12
3.2728559e-12
3.2775203e-12
3.2775204e-12
3.2728561e-12
3.2672979e-12
3.2672002e-12
3.2686884e-12
3.265652e-12
3.2569543e-12
3.2523654e-12
3.1976671e-12
3.0269657e-12
2.6796055e-12
2.9175106e-12
2.9987757e-12
3.0115494e-12
3.0242419e-12
3.0282597e-12
3.0285515e-12
3.032591e-12
3.0384947e-12
3.0432084e-12
3.0432085e-12
3.0384949e-12
3.0325914e-12
3.0285519e-12
3.0282601e-12
3.0242426e-12
3.0115504e-12
2.9987772e-12
2.9175135e-12
2.6796108e-12
2.3285887e-12
2.5505779e-12
2.6437641e-12
2.660186e-12
2.672639e-12
2.6765108e-12
2.6777414e-12
2.6954416e-12
2.701357e-12
2.7060109e-12
2.7060111e-12
2.7013572e-12
2.6954421e-12
2.677742e-12
2.6765114e-12
2.6726399e-12
2.6601873e-12
2.6437662e-12
2.5505819e-12
2.3285968e-12
1.9213914e-12
2.1860309e-12
2.2944482e-12
2.3184276e-12
2.3284538e-12
2.3307992e-12
2.3311822e-12
2.336744e-12
2.3422254e-12
2.3467602e-12
2.3467603e-12
2.3422256e-12
2.3367446e-12
2.3311829e-12
2.3308001e-12
2.3284551e-12
2.3184294e-12
2.2944511e-12
2.1860361e-12
1.9214042e-12
1.3648768e-12
1.8041207e-12
1.9541551e-12
1.9963265e-12
2.00847e-12
2.0098231e-12
2.0073009e-12
2.007825e-12
2.0120039e-12
2.0160905e-12
2.0160907e-12
2.0120044e-12
2.0078259e-12
2.0073017e-12
2.009824e-12
2.0084713e-12
1.9963287e-12
1.9541588e-12
1.8041278e-12
1.3648967e-12
6.9605775e-13
1.3832819e-12
1.6127101e-12
1.6893348e-12
1.7133474e-12
1.7162611e-12
1.7113851e-12
1.7068082e-12
1.7076339e-12
1.710125e-12
1.7101253e-12
1.7076346e-12
1.7068093e-12
1.7113861e-12
1.7162622e-12
1.713349e-12
1.6893373e-12
1.6127142e-12
1.3832904e-12
6.960799e-13
2.2001371e-13
9.4989002e-13
1.271237e-12
1.395167e-12
1.440024e-12
1.4496909e-12
1.4439358e-12
1.435439e-12
1.4322059e-12
1.4323557e-12
1.4323561e-12
1.4322067e-12
1.4354402e-12
1.443937e-12
1.4496921e-12
1.4400257e-12
1.3951694e-12
1.2712409e-12
9.4989802e-13
2.2002587e-13
4.593064e-14
5.6809212e-13
9.4657816e-13
1.1174915e-12
1.1873084e-12
1.2075549e-12
1.2039477e-12
1.1931095e-12
1.1863194e-12
1.1839966e-12
1.1839969e-12
1.1863203e-12
1.1931108e-12
1.203949e-12
1.2075561e-12
1.1873099e-12
1.1174935e-12
9.4658123e-13
5.6809822e-13
4.5934099e-14
7.377807e-15
2.9425987e-13
6.6199762e-13
8.6449432e-13
9.5669309e-13
9.8846731e-13
9.8905411e-13
9.7787638e-13
9.6860601e-13
9.6426367e-13
9.6426404e-13
9.6860693e-13
9.7787764e-13
9.8905531e-13
9.8846834e-13
9.5669419e-13
8.6449567e-13
6.6199949e-13
2.9426328e-13
7.3784791e-15
1.0081863e-15
1.3473768e-13
4.3475812e-13
6.4436141e-13
7.5102133e-13
7.9253293e-13
7.9799e-13
7.8805562e-13
7.7779736e-13
7.7219596e-13
7.7219631e-13
7.7779823e-13
7.8805679e-13
7.9799108e-13
7.9253377e-13
7.5102203e-13
6.4436211e-13
4.3475896e-13
1.3473916e-13
1.0082882e-15
)
;

boundaryField
{
    Wall
    {
        type            zeroGradient;
    }
    frontAndBack
    {
        type            empty;
    }
    atmosphere
    {
        type            zeroGradient;
    }
}


// ************************************************************************* //
