/*--------------------------------*- C++ -*----------------------------------*\
| =========                 |                                                 |
| \\      /  F ield         | OpenFOAM: The Open Source CFD Toolbox           |
|  \\    /   O peration     | Version:  3.0.1                                 |
|   \\  /    A nd           | Web:      www.OpenFOAM.org                      |
|    \\/     M anipulation  |                                                 |
\*---------------------------------------------------------------------------*/
FoamFile
{
    version     2.0;
    format      ascii;
    class       volScalarField;
    location    "33";
    object      M3;
}
// * * * * * * * * * * * * * * * * * * * * * * * * * * * * * * * * * * * * * //

dimensions      [0 0 0 0 0 0 0];

internalField   nonuniform List<scalar> 
800
(
3.4245492e-24
3.4251594e-24
3.425269e-24
3.4252799e-24
3.4252782e-24
3.4252765e-24
3.4252763e-24
3.4252768e-24
3.4252774e-24
3.4252777e-24
3.4252778e-24
3.4252774e-24
3.4252768e-24
3.4252764e-24
3.4252766e-24
3.4252782e-24
3.42528e-24
3.4252691e-24
3.4251594e-24
3.4245492e-24
3.38377e-24
3.3882066e-24
3.38935e-24
3.3896288e-24
3.3896589e-24
3.3896303e-24
3.389598e-24
3.3895749e-24
3.3895614e-24
3.3895552e-24
3.3895552e-24
3.3895614e-24
3.3895748e-24
3.3895979e-24
3.3896303e-24
3.3896588e-24
3.3896287e-24
3.3893499e-24
3.3882064e-24
3.3837696e-24
3.3645629e-24
3.3708939e-24
3.3729065e-24
3.3733821e-24
3.3734411e-24
3.373402e-24
3.3733557e-24
3.3733233e-24
3.3733047e-24
3.3732964e-24
3.3732965e-24
3.3733047e-24
3.3733232e-24
3.3733557e-24
3.3734019e-24
3.373441e-24
3.3733819e-24
3.3729063e-24
3.3708936e-24
3.3645622e-24
3.3698315e-24
3.3767291e-24
3.3792774e-24
3.3798288e-24
3.3798773e-24
3.3798226e-24
3.3797682e-24
3.3797339e-24
3.379716e-24
3.3797086e-24
3.3797086e-24
3.3797159e-24
3.3797338e-24
3.3797681e-24
3.3798225e-24
3.3798772e-24
3.3798286e-24
3.3792771e-24
3.3767288e-24
3.3698308e-24
3.4020649e-24
3.4081207e-24
3.4108281e-24
3.4113399e-24
3.4113241e-24
3.4112376e-24
3.4111731e-24
3.4111398e-24
3.4111256e-24
3.4111209e-24
3.4111209e-24
3.4111255e-24
3.4111397e-24
3.4111731e-24
3.4112375e-24
3.4113241e-24
3.4113399e-24
3.410828e-24
3.4081205e-24
3.4020644e-24
3.4640169e-24
3.4677033e-24
3.4701475e-24
3.4705007e-24
3.470357e-24
3.470216e-24
3.4701355e-24
3.4701031e-24
3.4700941e-24
3.4700932e-24
3.4700933e-24
3.4700941e-24
3.4701031e-24
3.4701356e-24
3.4702161e-24
3.470357e-24
3.4705008e-24
3.4701475e-24
3.4677033e-24
3.4640167e-24
3.5586594e-24
3.5583021e-24
3.5599858e-24
3.5600504e-24
3.5597085e-24
3.5594859e-24
3.5593806e-24
3.5593473e-24
3.5593438e-24
3.5593474e-24
3.5593474e-24
3.5593439e-24
3.5593475e-24
3.5593808e-24
3.5594861e-24
3.5597087e-24
3.5600507e-24
3.5599861e-24
3.5583024e-24
3.5586596e-24
3.6895905e-24
3.6832487e-24
3.6835305e-24
3.6831559e-24
3.6825391e-24
3.6822031e-24
3.6820614e-24
3.6820238e-24
3.6820253e-24
3.6820333e-24
3.6820334e-24
3.6820255e-24
3.6820241e-24
3.6820618e-24
3.6822035e-24
3.6825395e-24
3.6831565e-24
3.6835312e-24
3.6832494e-24
3.6895911e-24
3.861658e-24
3.8472261e-24
3.8452626e-24
3.8442692e-24
3.8433055e-24
3.8428202e-24
3.8426264e-24
3.8425782e-24
3.8425829e-24
3.8425948e-24
3.842595e-24
3.8425831e-24
3.8425786e-24
3.842627e-24
3.8428208e-24
3.8433063e-24
3.8442701e-24
3.8452636e-24
3.8472272e-24
3.8616591e-24
4.0789377e-24
4.0543998e-24
4.049163e-24
4.0473459e-24
4.0460028e-24
4.0453457e-24
4.045079e-24
4.0450101e-24
4.0450145e-24
4.0450291e-24
4.0450292e-24
4.0450149e-24
4.0450106e-24
4.0450797e-24
4.0453466e-24
4.0460039e-24
4.0473471e-24
4.0491644e-24
4.0544013e-24
4.0789392e-24
4.3449732e-24
4.3084977e-24
4.2987676e-24
4.2958875e-24
4.2941989e-24
4.2933852e-24
4.2930155e-24
4.2929106e-24
4.2929095e-24
4.2929241e-24
4.2929243e-24
4.2929099e-24
4.2929113e-24
4.2930165e-24
4.2933865e-24
4.2942003e-24
4.2958892e-24
4.2987694e-24
4.3084996e-24
4.3449752e-24
4.6628352e-24
4.6128468e-24
4.5972979e-24
4.5930712e-24
4.5911522e-24
4.5902517e-24
4.5897357e-24
4.5895709e-24
4.5895577e-24
4.5895686e-24
4.5895689e-24
4.5895583e-24
4.5895718e-24
4.5897369e-24
4.5902532e-24
4.5911539e-24
4.5930732e-24
4.5973001e-24
4.6128491e-24
4.6628376e-24
5.0305537e-24
4.9657635e-24
4.9434752e-24
4.9375674e-24
4.9354334e-24
4.934482e-24
4.9337679e-24
4.9335124e-24
4.9334922e-24
4.9334935e-24
4.9334937e-24
4.9334929e-24
4.9335134e-24
4.9337694e-24
4.9344838e-24
4.9354354e-24
4.9375698e-24
4.9434778e-24
4.9657662e-24
5.0305565e-24
5.4549262e-24
5.3738921e-24
5.3437647e-24
5.3357162e-24
5.3335945e-24
5.3326841e-24
5.3317695e-24
5.3313686e-24
5.331356e-24
5.3313368e-24
5.3313371e-24
5.3313567e-24
5.3313698e-24
5.3317711e-24
5.3326861e-24
5.3335969e-24
5.3357189e-24
5.3437676e-24
5.3738952e-24
5.4549294e-24
5.9383333e-24
5.839862e-24
5.8012087e-24
5.7904746e-24
5.788557e-24
5.787878e-24
5.7866392e-24
5.7860269e-24
5.7860301e-24
5.785997e-24
5.7859973e-24
5.7860309e-24
5.7860282e-24
5.786641e-24
5.7878802e-24
5.7885596e-24
5.7904776e-24
5.8012119e-24
5.8398653e-24
5.9383369e-24
6.4766229e-24
6.3611217e-24
6.3138899e-24
6.29996e-24
6.2986487e-24
6.2983747e-24
6.2965733e-24
6.2956925e-24
6.2956992e-24
6.2957309e-24
6.2957312e-24
6.2957001e-24
6.2956939e-24
6.2965752e-24
6.2983771e-24
6.2986515e-24
6.2999632e-24
6.3138934e-24
6.3611253e-24
6.4766268e-24
7.0634668e-24
6.9326367e-24
6.8772281e-24
6.8597446e-24
6.8595781e-24
6.8597142e-24
6.856997e-24
6.8557999e-24
6.8557705e-24
6.856082e-24
6.8560823e-24
6.8557714e-24
6.8558013e-24
6.856999e-24
6.8597166e-24
6.8595809e-24
6.8597479e-24
6.8772317e-24
6.9326405e-24
7.0634707e-24
7.692974e-24
7.5493659e-24
7.4863734e-24
7.4652266e-24
7.4667612e-24
7.4670258e-24
7.4628889e-24
7.4613208e-24
7.4611433e-24
7.4621185e-24
7.4621189e-24
7.4611441e-24
7.4613222e-24
7.4628909e-24
7.4670283e-24
7.466764e-24
7.4652298e-24
7.486377e-24
7.5493696e-24
7.6929776e-24
8.3593057e-24
8.2063722e-24
8.1364314e-24
8.1117808e-24
8.1155829e-24
8.1153727e-24
8.1091941e-24
8.1071867e-24
8.106602e-24
8.1087728e-24
8.1087731e-24
8.1066028e-24
8.1071881e-24
8.109196e-24
8.115375e-24
8.1155856e-24
8.1117839e-24
8.1364348e-24
8.2063756e-24
8.3593087e-24
9.0553619e-24
8.8978678e-24
8.8216459e-24
8.793839e-24
8.800407e-24
8.7989186e-24
8.7900989e-24
8.7875827e-24
8.7861835e-24
8.7901597e-24
8.79016e-24
8.7861842e-24
8.7875839e-24
8.7901005e-24
8.7989206e-24
8.8004094e-24
8.7938417e-24
8.8216489e-24
8.8978707e-24
9.0553642e-24
9.7713884e-24
9.616047e-24
9.5344143e-24
9.5037588e-24
9.5133848e-24
9.5098645e-24
9.4980145e-24
9.4949449e-24
9.492359e-24
9.4987383e-24
9.4987386e-24
9.4923596e-24
9.4949458e-24
9.4980158e-24
9.5098662e-24
9.5133867e-24
9.503761e-24
9.5344166e-24
9.6160491e-24
9.7713896e-24
1.0493598e-23
1.0349622e-23
1.0264021e-23
1.0230585e-23
1.0243416e-23
1.0237239e-23
1.0222298e-23
1.0218683e-23
1.0214911e-23
1.0224196e-23
1.0224196e-23
1.0214911e-23
1.0218684e-23
1.0222299e-23
1.023724e-23
1.0243417e-23
1.0230587e-23
1.0264023e-23
1.0349623e-23
1.0493598e-23
1.1202785e-23
1.1082174e-23
1.0995186e-23
1.0958612e-23
1.0975042e-23
1.096564e-23
1.0947614e-23
1.0943533e-23
1.0939248e-23
1.0951794e-23
1.0951794e-23
1.0939248e-23
1.0943533e-23
1.0947614e-23
1.0965641e-23
1.0975043e-23
1.0958613e-23
1.0995187e-23
1.1082174e-23
1.1202784e-23
1.187194e-23
1.179021e-23
1.1706307e-23
1.1665687e-23
1.1686726e-23
1.16734e-23
1.1652095e-23
1.1647709e-23
1.1644338e-23
1.1660329e-23
1.1660329e-23
1.1644338e-23
1.1647709e-23
1.1652095e-23
1.1673401e-23
1.1686727e-23
1.1665688e-23
1.1706307e-23
1.1790209e-23
1.1871939e-23
1.246277e-23
1.2440524e-23
1.2366387e-23
1.2321448e-23
1.2347923e-23
1.2330426e-23
1.2305748e-23
1.2301301e-23
1.2300817e-23
1.2320277e-23
1.2320277e-23
1.2300817e-23
1.2301301e-23
1.2305748e-23
1.2330426e-23
1.2347923e-23
1.2321448e-23
1.2366386e-23
1.2440523e-23
1.2462768e-23
1.2922575e-23
1.2987442e-23
1.2932171e-23
1.2885216e-23
1.2916403e-23
1.2896175e-23
1.2868781e-23
1.2864599e-23
1.2869109e-23
1.2891923e-23
1.2891923e-23
1.286911e-23
1.28646e-23
1.2868781e-23
1.2896175e-23
1.2916403e-23
1.2885216e-23
1.293217e-23
1.2987442e-23
1.2922575e-23
1.3182875e-23
1.3370177e-23
1.3346692e-23
1.3301914e-23
1.3336893e-23
1.3316399e-23
1.328796e-23
1.3284409e-23
1.3295665e-23
1.3321585e-23
1.3321585e-23
1.3295666e-23
1.3284409e-23
1.3287961e-23
1.33164e-23
1.3336893e-23
1.3301914e-23
1.3346692e-23
1.3370178e-23
1.3182878e-23
1.3162075e-23
1.3509801e-23
1.353724e-23
1.3500867e-23
1.3539124e-23
1.3522587e-23
1.3495282e-23
1.3492665e-23
1.3511606e-23
1.3540225e-23
1.3540225e-23
1.3511607e-23
1.3492666e-23
1.3495283e-23
1.3522588e-23
1.3539124e-23
1.3500868e-23
1.3537242e-23
1.3509805e-23
1.3162083e-23
1.2776385e-23
1.3318673e-23
1.342139e-23
1.3398415e-23
1.3441397e-23
1.3434153e-23
1.3409674e-23
1.3408086e-23
1.3434479e-23
1.3465157e-23
1.3465157e-23
1.343448e-23
1.3408087e-23
1.3409675e-23
1.3434155e-23
1.3441398e-23
1.3398417e-23
1.3421394e-23
1.3318681e-23
1.2776399e-23
1.1958744e-23
1.271896e-23
1.2918692e-23
1.2914746e-23
1.2967954e-23
1.2972689e-23
1.2951737e-23
1.2950999e-23
1.2983277e-23
1.301506e-23
1.3015061e-23
1.2983279e-23
1.2951001e-23
1.2951739e-23
1.2972691e-23
1.2967957e-23
1.2914751e-23
1.2918698e-23
1.2718973e-23
1.1958763e-23
1.0666279e-23
1.1663323e-23
1.1978546e-23
1.2002114e-23
1.2063898e-23
1.2083155e-23
1.2071099e-23
1.2071352e-23
1.2106857e-23
1.2138481e-23
1.2138481e-23
1.2106858e-23
1.2071354e-23
1.2071102e-23
1.2083158e-23
1.2063902e-23
1.200212e-23
1.1978554e-23
1.1663338e-23
1.06663e-23
8.827256e-24
1.012069e-23
1.0559707e-23
1.0626985e-23
1.0710212e-23
1.0736002e-23
1.0736078e-23
1.075998e-23
1.0795507e-23
1.0825528e-23
1.0825529e-23
1.0795509e-23
1.0759983e-23
1.0736081e-23
1.0736005e-23
1.0710216e-23
1.062699e-23
1.0559716e-23
1.0120705e-23
8.8272795e-24
7.2071293e-24
8.2454831e-24
8.6769559e-24
8.7438375e-24
8.8153986e-24
8.8377394e-24
8.8436357e-24
8.9479576e-24
8.9806478e-24
9.0077258e-24
9.0077264e-24
8.9806491e-24
8.94796e-24
8.8436382e-24
8.8377424e-24
8.8154029e-24
8.7438436e-24
8.6769655e-24
8.2455002e-24
7.2071602e-24
5.6250436e-24
6.6204175e-24
7.0273972e-24
7.0926963e-24
7.1329006e-24
7.1433171e-24
7.1462123e-24
7.1788452e-24
7.2073692e-24
7.2316379e-24
7.2316386e-24
7.2073703e-24
7.1788477e-24
7.1462154e-24
7.143321e-24
7.1329061e-24
7.0927037e-24
7.0274088e-24
6.6204367e-24
5.6250858e-24
3.8018137e-24
5.1452067e-24
5.6044473e-24
5.696429e-24
5.7169237e-24
5.7140961e-24
5.7038876e-24
5.7130414e-24
5.7354773e-24
5.7566663e-24
5.7566672e-24
5.7354792e-24
5.7130448e-24
5.7038908e-24
5.7140998e-24
5.7169287e-24
5.696437e-24
5.6044602e-24
5.1452296e-24
3.8018718e-24
1.8534693e-24
3.7168035e-24
4.3373257e-24
4.5043415e-24
4.5398493e-24
4.5308172e-24
4.5092746e-24
4.4972617e-24
4.5072633e-24
4.5220324e-24
4.5220333e-24
4.5072656e-24
4.4972654e-24
4.5092783e-24
4.5308213e-24
4.5398552e-24
4.5043499e-24
4.337339e-24
3.716829e-24
1.8535293e-24
5.6176175e-25
2.3988568e-24
3.2025152e-24
3.4771392e-24
3.5570071e-24
3.5594998e-24
3.5319781e-24
3.5070064e-24
3.503934e-24
3.5108839e-24
3.5108849e-24
3.5039365e-24
3.5070103e-24
3.531982e-24
3.5595039e-24
3.5570128e-24
3.477147e-24
3.2025271e-24
2.3988796e-24
5.6179308e-25
1.125627e-25
1.3437451e-24
2.2276076e-24
2.6003393e-24
2.7352619e-24
2.7611751e-24
2.7382775e-24
2.7070642e-24
2.6940739e-24
2.6937945e-24
2.6937955e-24
2.6940764e-24
2.7070679e-24
2.7382812e-24
2.7611789e-24
2.7352667e-24
2.6003456e-24
2.2276168e-24
1.3437615e-24
1.1257123e-25
1.7342469e-26
6.49665e-25
1.4503545e-24
1.8747339e-24
2.0548574e-24
2.1061967e-24
2.0942044e-24
2.0635605e-24
2.0447439e-24
2.0392242e-24
2.0392251e-24
2.0447463e-24
2.0635639e-24
2.0942078e-24
2.1061998e-24
2.054861e-24
1.8747383e-24
1.4503602e-24
6.4967368e-25
1.7344062e-26
2.2686766e-27
2.7675251e-25
8.8383562e-25
1.2997778e-24
1.5028743e-24
1.5739118e-24
1.5742507e-24
1.5484794e-24
1.5282241e-24
1.5198072e-24
1.519808e-24
1.5282262e-24
1.5484824e-24
1.5742536e-24
1.5739143e-24
1.5028767e-24
1.2997804e-24
8.8383846e-25
2.7675609e-25
2.2689089e-27
)
;

boundaryField
{
    Wall
    {
        type            zeroGradient;
    }
    frontAndBack
    {
        type            empty;
    }
    atmosphere
    {
        type            zeroGradient;
    }
}


// ************************************************************************* //
