/*--------------------------------*- C++ -*----------------------------------*\
| =========                 |                                                 |
| \\      /  F ield         | OpenFOAM: The Open Source CFD Toolbox           |
|  \\    /   O peration     | Version:  3.0.1                                 |
|   \\  /    A nd           | Web:      www.OpenFOAM.org                      |
|    \\/     M anipulation  |                                                 |
\*---------------------------------------------------------------------------*/
FoamFile
{
    version     2.0;
    format      ascii;
    class       volScalarField;
    location    "33";
    object      mOne;
}
// * * * * * * * * * * * * * * * * * * * * * * * * * * * * * * * * * * * * * //

dimensions      [0 0 0 0 0 0 0];

internalField   nonuniform List<scalar> 
800
(
19.026704
19.028345
19.02864
19.028668
19.028663
19.028658
19.028657
19.028658
19.028659
19.02866
19.02866
19.028659
19.028658
19.028657
19.028658
19.028663
19.028668
19.02864
19.028346
19.026704
18.915069
18.927162
18.930278
18.931037
18.931117
18.931038
18.930949
18.930885
18.930848
18.930831
18.930831
18.930848
18.930885
18.930949
18.931038
18.931117
18.931037
18.930278
18.927161
18.915067
18.767196
18.787451
18.794362
18.796201
18.796545
18.796481
18.796349
18.796243
18.796177
18.796146
18.796146
18.796177
18.796242
18.796349
18.796481
18.796544
18.7962
18.794361
18.787449
18.767194
18.605888
18.633138
18.643725
18.646629
18.647258
18.647238
18.647085
18.646952
18.646866
18.646826
18.646826
18.646866
18.646951
18.647084
18.647237
18.647257
18.646628
18.643723
18.633136
18.605885
18.448039
18.480671
18.49444
18.498289
18.499134
18.499136
18.49896
18.498802
18.4987
18.498652
18.498652
18.4987
18.498802
18.498959
18.499135
18.499133
18.498288
18.494438
18.480668
18.448035
18.306842
18.3428
18.359094
18.363723
18.364668
18.364643
18.364424
18.364236
18.364115
18.364059
18.364059
18.364115
18.364236
18.364423
18.364641
18.364666
18.363722
18.359092
18.342797
18.306838
18.191777
18.22897
18.246991
18.25221
18.253122
18.253007
18.252718
18.252487
18.252342
18.252275
18.252275
18.252341
18.252486
18.252717
18.253005
18.253121
18.252208
18.246989
18.228967
18.191773
18.108387
18.145143
18.163984
18.169587
18.170337
18.170064
18.169673
18.169382
18.169204
18.169125
18.169125
18.169204
18.169382
18.169673
18.170063
18.170335
18.169586
18.163982
18.145141
18.108383
18.058268
18.093502
18.112194
18.117982
18.118475
18.117985
18.117459
18.117089
18.11687
18.116772
18.116772
18.116869
18.117089
18.117459
18.117984
18.118473
18.11798
18.112193
18.0935
18.058265
18.040447
18.073947
18.091542
18.097332
18.097539
18.096798
18.096104
18.095636
18.095363
18.095242
18.095242
18.095363
18.095635
18.096103
18.096797
18.097538
18.097331
18.09154
18.073945
18.040444
18.051198
18.083684
18.099378
18.105028
18.104999
18.104019
18.103126
18.102539
18.102204
18.102055
18.102055
18.102204
18.102539
18.103125
18.104018
18.104998
18.105027
18.099377
18.083682
18.051196
18.085753
18.118781
18.132022
18.13743
18.137291
18.136141
18.135017
18.134292
18.133885
18.133702
18.133701
18.133884
18.134292
18.135016
18.13614
18.137291
18.137429
18.132021
18.11878
18.085751
18.153262
18.189125
18.198936
18.203971
18.20436
18.203369
18.201949
18.201043
18.200554
18.200324
18.200324
18.200554
18.201043
18.201949
18.203369
18.20436
18.20397
18.198935
18.189124
18.153262
18.232355
18.275369
18.282765
18.287376
18.288625
18.288066
18.286168
18.285043
18.284476
18.284187
18.284187
18.284476
18.285042
18.286168
18.288066
18.288624
18.287376
18.282765
18.275369
18.232355
18.315753
18.371102
18.377987
18.382178
18.384818
18.384778
18.382362
18.380957
18.380312
18.379967
18.379967
18.380312
18.380957
18.382362
18.384778
18.384818
18.382178
18.377987
18.371102
18.315753
18.400297
18.472825
18.481799
18.485781
18.49017
18.490659
18.487675
18.485894
18.485147
18.484819
18.484819
18.485147
18.485894
18.487675
18.490659
18.49017
18.485781
18.481799
18.472825
18.400296
18.480151
18.575698
18.590142
18.594605
18.601078
18.602032
18.598209
18.595926
18.595031
18.594923
18.594923
18.595031
18.595925
18.598208
18.602031
18.601077
18.594605
18.590142
18.575698
18.480151
18.545106
18.671389
18.695468
18.701777
18.710941
18.712101
18.706928
18.704006
18.702853
18.703317
18.703317
18.702853
18.704005
18.706928
18.7121
18.71094
18.701777
18.695468
18.671389
18.545105
18.582626
18.749048
18.787632
18.797866
18.810651
18.811516
18.804374
18.800684
18.799037
18.80053
18.800529
18.799037
18.800683
18.804373
18.811515
18.81065
18.797865
18.787631
18.749047
18.582625
18.579052
18.796388
18.855046
18.87191
18.889424
18.889401
18.879762
18.875197
18.872706
18.875695
18.875694
18.872705
18.875196
18.879761
18.8894
18.889423
18.87191
18.855045
18.796387
18.57905
18.519329
18.799761
18.884928
18.91159
18.934998
18.93369
18.921303
18.915779
18.912152
18.917013
18.917013
18.912151
18.915778
18.921302
18.933689
18.934996
18.911589
18.884927
18.79976
18.519327
18.386213
18.743417
18.862735
18.902756
18.933438
18.930783
18.915748
18.909203
18.904475
18.911413
18.911413
18.904474
18.909201
18.915746
18.930782
18.933437
18.902754
18.862733
18.743416
18.386211
18.159465
18.608518
18.771287
18.828665
18.868668
18.864944
18.847479
18.839862
18.834585
18.843593
18.843593
18.834584
18.839861
18.847478
18.864942
18.868666
18.828663
18.771285
18.608517
18.159464
17.814382
18.372007
18.589701
18.66904
18.721465
18.717253
18.697521
18.688782
18.683982
18.694846
18.694845
18.683981
18.68878
18.69752
18.717251
18.721463
18.669038
18.5897
18.372007
17.814383
17.319863
18.005084
18.291464
18.399126
18.467639
18.46442
18.442797
18.432884
18.429798
18.442125
18.442125
18.429797
18.432882
18.442796
18.464418
18.467637
18.399125
18.291463
18.005085
17.319866
16.637231
17.471764
17.842863
17.988316
18.076473
18.077571
18.055137
18.044001
18.043697
18.056964
18.056963
18.043697
18.044
18.055135
18.077569
18.076472
17.988315
17.842864
17.471768
16.637238
15.720588
16.727481
17.202104
17.397209
17.509633
17.5199
17.498588
17.486195
17.489225
17.502807
17.502807
17.489224
17.486194
17.498587
17.5199
17.509633
17.39721
17.202107
16.727489
15.720602
14.520079
15.717983
16.317989
16.576235
16.719196
16.745404
16.727626
16.71396
16.720128
16.733327
16.733327
16.720127
16.71396
16.727626
16.745404
16.719197
16.576238
16.317995
15.717997
14.520101
12.991728
14.386331
15.133531
15.466947
15.649675
15.699262
15.687252
15.67234
15.680646
15.692702
15.692702
15.680646
15.672339
15.687253
15.699263
15.649678
15.466952
15.13354
14.386351
12.99176
11.116641
12.690919
13.595726
14.01474
14.247056
14.327439
14.32291
14.306948
14.315725
14.325837
14.325837
14.315725
14.306948
14.322911
14.327441
14.24706
14.014747
13.59574
12.690947
11.116683
8.9284864
10.626005
11.683027
12.19379
12.473874
12.588172
12.601605
12.585424
12.5928
12.600274
12.600274
12.5928
12.585425
12.601607
12.588175
12.47388
12.193799
11.683044
10.626038
8.9285348
6.5127677
8.2514334
9.4102885
10.006235
10.341483
10.478534
10.509454
10.518485
10.522977
10.52745
10.52745
10.522978
10.518487
10.509457
10.478538
10.341489
10.006246
9.4103073
8.2514691
6.512824
4.3662753
5.8060667
6.9228421
7.5416799
7.8852145
8.0283422
8.0656094
8.1313412
8.1324482
8.1343456
8.1343462
8.1324498
8.1313446
8.0656137
8.0283476
7.8852223
7.5416928
6.9228643
5.806105
4.3663352
2.5409958
3.8304585
4.8298087
5.4650162
5.8312425
5.9938271
6.0364409
6.0403595
6.0340581
6.0313108
6.0313116
6.0340601
6.0403632
6.0364458
5.9938331
5.8312509
5.4650298
4.8298313
3.8304922
2.5410481
1.1751244
2.3860136
3.2770657
3.8871395
4.2647181
4.447564
4.4961116
4.4865413
4.4707763
4.4614713
4.4614725
4.4707793
4.4865459
4.496116
4.4475687
4.2647249
3.8871517
3.2770849
2.3860402
1.1751598
0.40849171
1.3912665
2.1794409
2.7494389
3.1189117
3.3055747
3.357801
3.3404045
3.3135074
3.29647
3.2964712
3.3135104
3.3404089
3.3578051
3.3055787
3.1189174
2.7494479
2.1794538
1.3912837
0.40850973
0.10618919
0.76055549
1.4220837
1.9389153
2.2869391
2.4686721
2.5200434
2.5005215
2.4672705
2.4450813
2.4450825
2.4672733
2.5005253
2.5200468
2.4686751
2.2869429
1.9389208
1.422091
0.76056486
0.10619564
0.021361051
0.39035724
0.91250572
1.362721
1.6790145
1.8492599
1.8995023
1.8809953
1.8467071
1.8227896
1.8227906
1.8467095
1.8809984
1.899505
1.8492619
1.6790165
1.3627236
0.9125092
0.39036201
0.021362687
0.0035120609
0.18866347
0.57698643
0.95379842
1.2312637
1.3851864
1.4331789
1.4180709
1.3863156
1.363503
1.3635038
1.3863175
1.4180733
1.4331808
1.3851876
1.2312645
0.95379925
0.57698761
0.18866555
0.0035123799
0.0004983476
0.086460737
0.35952986
0.66357157
0.89935977
1.0342603
1.0788478
1.0679984
1.0410172
1.0209947
1.0209954
1.0410187
1.0680003
1.0788493
1.0342609
0.89935978
0.66357144
0.35952999
0.086461541
0.00049839743
)
;

boundaryField
{
    Wall
    {
        type            zeroGradient;
    }
    frontAndBack
    {
        type            empty;
    }
    atmosphere
    {
        type            zeroGradient;
    }
}


// ************************************************************************* //
