/*--------------------------------*- C++ -*----------------------------------*\
| =========                 |                                                 |
| \\      /  F ield         | OpenFOAM: The Open Source CFD Toolbox           |
|  \\    /   O peration     | Version:  3.0.1                                 |
|   \\  /    A nd           | Web:      www.OpenFOAM.org                      |
|    \\/     M anipulation  |                                                 |
\*---------------------------------------------------------------------------*/
FoamFile
{
    version     2.0;
    format      ascii;
    class       volScalarField;
    location    "33";
    object      mThree;
}
// * * * * * * * * * * * * * * * * * * * * * * * * * * * * * * * * * * * * * //

dimensions      [0 0 0 0 0 0 0];

internalField   nonuniform List<scalar> 
800
(
6.8582433e-23
6.8600276e-23
6.8603478e-23
6.8603794e-23
6.8603742e-23
6.8603692e-23
6.8603685e-23
6.8603699e-23
6.8603715e-23
6.8603724e-23
6.8603725e-23
6.8603715e-23
6.8603698e-23
6.8603685e-23
6.8603693e-23
6.8603743e-23
6.8603796e-23
6.860348e-23
6.8600277e-23
6.8582434e-23
6.7388011e-23
6.7517342e-23
6.7550688e-23
6.7558817e-23
6.7559689e-23
6.755885e-23
6.7557903e-23
6.7557229e-23
6.7556833e-23
6.7556651e-23
6.7556652e-23
6.7556832e-23
6.7557227e-23
6.7557902e-23
6.7558849e-23
6.7559687e-23
6.7558814e-23
6.7550684e-23
6.7517336e-23
6.7387999e-23
6.6507974e-23
6.6701398e-23
6.6764533e-23
6.6780149e-23
6.6782478e-23
6.6781489e-23
6.6780127e-23
6.6779127e-23
6.6778537e-23
6.677827e-23
6.677827e-23
6.6778536e-23
6.6779125e-23
6.6780124e-23
6.6781486e-23
6.6782473e-23
6.6780143e-23
6.6764524e-23
6.6701387e-23
6.6507953e-23
6.606854e-23
6.6295789e-23
6.6381594e-23
6.6402241e-23
6.6405322e-23
6.6404177e-23
6.6402592e-23
6.6401468e-23
6.6400826e-23
6.6400545e-23
6.6400546e-23
6.6400825e-23
6.6401465e-23
6.6402588e-23
6.6404173e-23
6.6405315e-23
6.6402234e-23
6.6381584e-23
6.6295775e-23
6.6068516e-23
6.6163492e-23
6.6392477e-23
6.6492185e-23
6.6515294e-23
6.6517868e-23
6.6516186e-23
6.6514328e-23
6.651314e-23
6.6512513e-23
6.6512259e-23
6.6512259e-23
6.6512512e-23
6.6513138e-23
6.6514325e-23
6.6516182e-23
6.6517862e-23
6.6515287e-23
6.6492176e-23
6.6392464e-23
6.6163469e-23
6.6879227e-23
6.7075091e-23
6.7178911e-23
6.7201815e-23
6.720231e-23
6.7199492e-23
6.7197176e-23
6.7195897e-23
6.7195301e-23
6.7195091e-23
6.7195091e-23
6.7195301e-23
6.7195895e-23
6.7197174e-23
6.719949e-23
6.7202306e-23
6.7201811e-23
6.7178905e-23
6.7075081e-23
6.6879208e-23
6.8296997e-23
6.8422484e-23
6.8519015e-23
6.8538838e-23
6.8535503e-23
6.8530805e-23
6.8527751e-23
6.8526288e-23
6.8525703e-23
6.8525536e-23
6.8525537e-23
6.8525704e-23
6.8526288e-23
6.8527751e-23
6.8530805e-23
6.8535502e-23
6.8538838e-23
6.8519014e-23
6.842248e-23
6.8296986e-23
7.0502123e-23
7.0516324e-23
7.0591121e-23
7.0604579e-23
7.0595513e-23
7.058807e-23
7.0583915e-23
7.0582122e-23
7.0581496e-23
7.0581356e-23
7.0581357e-23
7.0581498e-23
7.0582125e-23
7.0583919e-23
7.0588073e-23
7.0595517e-23
7.0604584e-23
7.0591126e-23
7.0516327e-23
7.0502121e-23
7.3596513e-23
7.3457019e-23
7.3491407e-23
7.3494667e-23
7.3478139e-23
7.346698e-23
7.3461255e-23
7.3458911e-23
7.3458155e-23
7.3458008e-23
7.345801e-23
7.3458159e-23
7.3458916e-23
7.3461262e-23
7.3466989e-23
7.3478148e-23
7.3494679e-23
7.3491419e-23
7.345703e-23
7.3596521e-23
7.7664795e-23
7.7333405e-23
7.7304765e-23
7.7293507e-23
7.7268696e-23
7.7253151e-23
7.7245249e-23
7.7242039e-23
7.7241022e-23
7.724081e-23
7.7240813e-23
7.7241027e-23
7.7242047e-23
7.7245261e-23
7.7253165e-23
7.7268712e-23
7.7293527e-23
7.7304785e-23
7.7333426e-23
7.7664812e-23
8.2776944e-23
8.2222006e-23
8.2103788e-23
8.2073052e-23
8.2040665e-23
8.2020914e-23
8.2010016e-23
8.2005494e-23
8.2004033e-23
8.2003673e-23
8.2003676e-23
8.2004041e-23
8.2005505e-23
8.2010032e-23
8.2020934e-23
8.2040688e-23
8.2073079e-23
8.2103817e-23
8.2222036e-23
8.2776971e-23
8.899372e-23
8.8192006e-23
8.7955604e-23
8.7899577e-23
8.7862217e-23
8.7839703e-23
8.7824669e-23
8.7818192e-23
8.7816068e-23
8.7815436e-23
8.781544e-23
8.7816078e-23
8.7818207e-23
8.782469e-23
8.7839729e-23
8.7862247e-23
8.7899613e-23
8.7955642e-23
8.8192045e-23
8.8993758e-23
9.6351515e-23
9.5288655e-23
9.4909463e-23
9.4820898e-23
9.4781841e-23
9.4758679e-23
9.4737962e-23
9.4728586e-23
9.4725783e-23
9.4724675e-23
9.472468e-23
9.4725794e-23
9.4728604e-23
9.4737987e-23
9.4758711e-23
9.4781878e-23
9.4820942e-23
9.4909509e-23
9.5288704e-23
9.6351564e-23
1.0491108e-22
1.0358375e-22
1.0304256e-22
1.0291197e-22
1.028777e-22
1.0285716e-22
1.028294e-22
1.0281567e-22
1.0281241e-22
1.028105e-22
1.028105e-22
1.0281242e-22
1.0281569e-22
1.0282943e-22
1.028572e-22
1.0287775e-22
1.0291202e-22
1.0304261e-22
1.0358381e-22
1.0491114e-22
1.1470338e-22
1.1312456e-22
1.1241575e-22
1.1223201e-22
1.1221012e-22
1.1219673e-22
1.1215874e-22
1.1213874e-22
1.1213507e-22
1.1213243e-22
1.1213244e-22
1.1213508e-22
1.1213876e-22
1.1215877e-22
1.1219677e-22
1.1221017e-22
1.1223206e-22
1.1241581e-22
1.1312463e-22
1.1470345e-22
1.2564841e-22
1.2386901e-22
1.2300593e-22
1.2275964e-22
1.2276174e-22
1.2275947e-22
1.2270558e-22
1.226772e-22
1.2267263e-22
1.2267118e-22
1.2267118e-22
1.2267264e-22
1.2267722e-22
1.2270561e-22
1.2275952e-22
1.2276179e-22
1.227597e-22
1.23006e-22
1.2386908e-22
1.2564848e-22
1.375974e-22
1.357112e-22
1.3472587e-22
1.3441398e-22
1.3445512e-22
1.3446433e-22
1.3438486e-22
1.3434574e-22
1.3433904e-22
1.343444e-22
1.343444e-22
1.3433905e-22
1.3434577e-22
1.343849e-22
1.3446438e-22
1.3445518e-22
1.3441405e-22
1.3472594e-22
1.3571128e-22
1.3759748e-22
1.5035999e-22
1.4850651e-22
1.4744763e-22
1.4707823e-22
1.4717689e-22
1.4719077e-22
1.4707062e-22
1.4701791e-22
1.4700581e-22
1.4702849e-22
1.4702849e-22
1.4700583e-22
1.4701793e-22
1.4707065e-22
1.4719081e-22
1.4717694e-22
1.4707829e-22
1.4744769e-22
1.4850658e-22
1.5036006e-22
1.6369715e-22
1.6206804e-22
1.6100071e-22
1.6059595e-22
1.6077498e-22
1.6077784e-22
1.6059751e-22
1.6052784e-22
1.6050292e-22
1.6055799e-22
1.60558e-22
1.6050293e-22
1.6052786e-22
1.6059754e-22
1.6077787e-22
1.6077502e-22
1.60596e-22
1.6100077e-22
1.620681e-22
1.6369721e-22
1.772954e-22
1.7614564e-22
1.7515419e-22
1.7475038e-22
1.7503502e-22
1.7500522e-22
1.7474508e-22
1.7465494e-22
1.7460524e-22
1.7471053e-22
1.7471053e-22
1.7460525e-22
1.7465495e-22
1.747451e-22
1.7500525e-22
1.7503506e-22
1.7475043e-22
1.7515424e-22
1.7614569e-22
1.7729543e-22
1.9073094e-22
1.9039543e-22
1.8959115e-22
1.8923495e-22
1.896493e-22
1.8956669e-22
1.8921283e-22
1.8909922e-22
1.8901329e-22
1.891865e-22
1.891865e-22
1.890133e-22
1.8909923e-22
1.8921284e-22
1.8956671e-22
1.8964933e-22
1.8923498e-22
1.8959118e-22
1.9039546e-22
1.9073095e-22
2.0343112e-22
2.043369e-22
2.0387153e-22
2.0361684e-22
2.041865e-22
2.040362e-22
2.0358472e-22
2.0344584e-22
2.0332243e-22
2.0357819e-22
2.035782e-22
2.0332243e-22
2.0344584e-22
2.0358472e-22
2.0403621e-22
2.0418651e-22
2.0361685e-22
2.0387155e-22
2.0433691e-22
2.0343111e-22
2.1463936e-22
2.1730501e-22
2.1738897e-22
2.1729465e-22
2.1805946e-22
2.1783183e-22
2.1728254e-22
2.1711818e-22
2.1697545e-22
2.1732294e-22
2.1732294e-22
2.1697544e-22
2.1711818e-22
2.1728253e-22
2.1783182e-22
2.1805946e-22
2.1729465e-22
2.1738897e-22
2.17305e-22
2.1463933e-22
2.2336322e-22
2.2840003e-22
2.2932305e-22
2.2945287e-22
2.3047936e-22
2.3016739e-22
2.2951739e-22
2.293292e-22
2.2920694e-22
2.2964838e-22
2.2964838e-22
2.2920694e-22
2.2932919e-22
2.2951738e-22
2.3016738e-22
2.3047935e-22
2.2945286e-22
2.2932304e-22
2.2840002e-22
2.2336321e-22
2.2831623e-22
2.364332e-22
2.385657e-22
2.3902533e-22
2.403849e-22
2.4000459e-22
2.3925816e-22
2.3904976e-22
2.3900238e-22
2.3953237e-22
2.3953237e-22
2.3900238e-22
2.3904974e-22
2.3925814e-22
2.4000456e-22
2.4038488e-22
2.3902531e-22
2.3856568e-22
2.364332e-22
2.2831625e-22
2.2791844e-22
2.3990097e-22
2.4367912e-22
2.4466856e-22
2.4639941e-22
2.4602769e-22
2.4521639e-22
2.4499344e-22
2.4507543e-22
2.4568091e-22
2.4568091e-22
2.4507542e-22
2.4499343e-22
2.4521637e-22
2.4602767e-22
2.4639939e-22
2.4466855e-22
2.4367912e-22
2.3990101e-22
2.2791854e-22
2.2042542e-22
2.3701956e-22
2.4293789e-22
2.4471809e-22
2.46861e-22
2.4661839e-22
2.4580851e-22
2.4557817e-22
2.4582655e-22
2.4648672e-22
2.4648672e-22
2.4582654e-22
2.4557817e-22
2.458085e-22
2.4661838e-22
2.4686099e-22
2.447181e-22
2.4293793e-22
2.3701968e-22
2.2042566e-22
2.0427644e-22
2.2585662e-22
2.3443778e-22
2.3729442e-22
2.3990239e-22
2.3996377e-22
2.3923931e-22
2.3900853e-22
2.3942739e-22
2.4011323e-22
2.4011323e-22
2.3942739e-22
2.3900854e-22
2.3923932e-22
2.3996378e-22
2.3990241e-22
2.3729447e-22
2.3443789e-22
2.2585687e-22
2.0427685e-22
1.787637e-22
2.049255e-22
2.1653441e-22
2.2063099e-22
2.2379489e-22
2.2434044e-22
2.2377061e-22
2.2354416e-22
2.2409579e-22
2.2476985e-22
2.2476986e-22
2.240958e-22
2.2354419e-22
2.2377064e-22
2.2434048e-22
2.2379495e-22
2.2063109e-22
2.165346e-22
2.049259e-22
1.7876431e-22
1.4489981e-22
1.7413425e-22
1.8855768e-22
1.9391156e-22
1.9772311e-22
1.9883809e-22
1.9845831e-22
1.9824026e-22
1.988483e-22
1.994667e-22
1.994667e-22
1.9884832e-22
1.9824029e-22
1.9845836e-22
1.9883815e-22
1.9772321e-22
1.9391172e-22
1.8855796e-22
1.7413478e-22
1.4490054e-22
1.0590001e-22
1.3559785e-22
1.5192422e-22
1.5835337e-22
1.6254745e-22
1.6418798e-22
1.6418632e-22
1.6399444e-22
1.6456608e-22
1.6508666e-22
1.6508667e-22
1.6456611e-22
1.6399448e-22
1.6418638e-22
1.6418806e-22
1.6254756e-22
1.5835355e-22
1.5192453e-22
1.3559841e-22
1.0590073e-22
6.6317124e-23
9.3630893e-23
1.099296e-22
1.1696309e-22
1.2146969e-22
1.2323356e-22
1.235664e-22
1.2393867e-22
1.2439638e-22
1.2479073e-22
1.2479074e-22
1.243964e-22
1.2393872e-22
1.2356646e-22
1.2323363e-22
1.214698e-22
1.1696326e-22
1.0992989e-22
9.3631393e-23
6.6317797e-23
3.867544e-23
5.6119308e-23
6.8746151e-23
7.4687061e-23
7.8326708e-23
7.9790136e-23
8.0172947e-23
8.1706854e-23
8.2015301e-23
8.227968e-23
8.2279691e-23
8.2015327e-23
8.1706906e-23
8.0173007e-23
7.979021e-23
7.8326815e-23
7.4687226e-23
6.874642e-23
5.611974e-23
3.8676037e-23
1.9918256e-23
3.1979652e-23
4.0968381e-23
4.5854396e-23
4.8726574e-23
4.9959125e-23
5.02839e-23
5.0541651e-23
5.0697054e-23
5.0847894e-23
5.0847904e-23
5.0697075e-23
5.0541695e-23
5.0283957e-23
4.9959195e-23
4.8726671e-23
4.5854541e-23
4.0968608e-23
3.1979968e-23
1.9918699e-23
8.2694179e-24
1.742174e-23
2.3970589e-23
2.7839243e-23
3.0097992e-23
3.1127904e-23
3.1349203e-23
3.1344837e-23
3.1377514e-23
3.1439868e-23
3.1439879e-23
3.1377541e-23
3.1344883e-23
3.1349246e-23
3.1127951e-23
3.0098057e-23
2.7839352e-23
2.3970752e-23
1.7421954e-23
8.2696786e-24
2.6105961e-24
8.8878677e-24
1.3790271e-23
1.6888753e-23
1.8699238e-23
1.9507772e-23
1.9650521e-23
1.9519935e-23
1.9442114e-23
1.9428777e-23
1.9428786e-23
1.9442137e-23
1.9519971e-23
1.9650556e-23
1.9507808e-23
1.8699288e-23
1.6888825e-23
1.3790369e-23
8.8879925e-24
2.6107141e-24
6.2141477e-25
4.2233205e-24
7.75676e-24
1.0219018e-23
1.1691666e-23
1.2346738e-23
1.2432716e-23
1.2276351e-23
1.2149087e-23
1.209528e-23
1.2095288e-23
1.2149105e-23
1.2276378e-23
1.2432742e-23
1.2346762e-23
1.1691698e-23
1.0219059e-23
7.7568121e-24
4.2233831e-24
6.2145306e-25
1.1496715e-25
1.8682857e-24
4.2603124e-24
6.1438763e-24
7.3278064e-24
7.8673056e-24
7.9396419e-24
7.7990393e-24
7.6692393e-24
7.6040153e-24
7.6040208e-24
7.6692529e-24
7.7990583e-24
7.9396601e-24
7.8673217e-24
7.3278246e-24
6.143898e-24
4.2603377e-24
1.8683149e-24
1.1497606e-25
1.7403376e-26
7.7223306e-25
2.2871894e-24
3.6628522e-24
4.5849288e-24
5.0236717e-24
5.0955739e-24
4.9898356e-24
4.8794043e-24
4.8197125e-24
4.8197164e-24
4.8794139e-24
4.9898488e-24
5.0955863e-24
5.0236816e-24
4.5849384e-24
3.6628623e-24
2.2872001e-24
7.7224472e-25
1.7404981e-26
2.2698072e-27
3.0068073e-25
1.2016009e-24
2.1622734e-24
2.854499e-24
3.2017463e-24
3.2726277e-24
3.202253e-24
3.1191317e-24
3.0715223e-24
3.071525e-24
3.1191383e-24
3.202262e-24
3.272636e-24
3.2017523e-24
2.8545035e-24
2.1622775e-24
1.2016049e-24
3.0068485e-25
2.2700397e-27
)
;

boundaryField
{
    Wall
    {
        type            zeroGradient;
    }
    frontAndBack
    {
        type            empty;
    }
    atmosphere
    {
        type            zeroGradient;
    }
}


// ************************************************************************* //
