/*--------------------------------*- C++ -*----------------------------------*\
| =========                 |                                                 |
| \\      /  F ield         | OpenFOAM: The Open Source CFD Toolbox           |
|  \\    /   O peration     | Version:  3.0.1                                 |
|   \\  /    A nd           | Web:      www.OpenFOAM.org                      |
|    \\/     M anipulation  |                                                 |
\*---------------------------------------------------------------------------*/
FoamFile
{
    version     2.0;
    format      ascii;
    class       volScalarField;
    location    "33";
    object      mTwo;
}
// * * * * * * * * * * * * * * * * * * * * * * * * * * * * * * * * * * * * * //

dimensions      [0 0 0 0 0 0 0];

internalField   nonuniform List<scalar> 
800
(
3.6172209e-11
3.617845e-11
3.6179568e-11
3.6179677e-11
3.6179657e-11
3.6179638e-11
3.6179634e-11
3.6179638e-11
3.6179644e-11
3.6179646e-11
3.6179647e-11
3.6179644e-11
3.6179638e-11
3.6179634e-11
3.6179638e-11
3.6179657e-11
3.6179677e-11
3.6179569e-11
3.6178451e-11
3.6172209e-11
3.5750834e-11
3.5796365e-11
3.5808113e-11
3.5810977e-11
3.5811281e-11
3.5810981e-11
3.5810644e-11
3.5810404e-11
3.5810262e-11
3.5810198e-11
3.5810198e-11
3.5810262e-11
3.5810403e-11
3.5810643e-11
3.5810981e-11
3.581128e-11
3.5810976e-11
3.5808112e-11
3.5796362e-11
3.5750829e-11
3.5377034e-11
3.544729e-11
3.5470508e-11
3.5476379e-11
3.5477318e-11
3.5476993e-11
3.5476504e-11
3.5476136e-11
3.5475915e-11
3.5475815e-11
3.5475815e-11
3.5475915e-11
3.5476135e-11
3.5476503e-11
3.5476991e-11
3.5477316e-11
3.5476377e-11
3.5470505e-11
3.5447286e-11
3.5377026e-11
3.5107052e-11
3.5192844e-11
3.5225503e-11
3.523371e-11
3.5235118e-11
3.5234792e-11
3.5234224e-11
3.5233798e-11
3.5233545e-11
3.5233432e-11
3.5233432e-11
3.5233544e-11
3.5233797e-11
3.5234223e-11
3.523479e-11
3.5235115e-11
3.5233707e-11
3.5225499e-11
3.5192838e-11
3.5107042e-11
3.4981542e-11
3.5072727e-11
3.511199e-11
3.5121727e-11
3.5123205e-11
3.512276e-11
3.5122099e-11
3.5121633e-11
3.5121369e-11
3.5121255e-11
3.5121255e-11
3.5121368e-11
3.5121632e-11
3.5122097e-11
3.5122758e-11
3.5123202e-11
3.5121724e-11
3.5111986e-11
3.5072722e-11
3.4981532e-11
3.5033887e-11
3.5119311e-11
3.5161931e-11
3.5172333e-11
3.5173362e-11
3.5172596e-11
3.5171778e-11
3.5171261e-11
3.5170987e-11
3.5170877e-11
3.5170877e-11
3.5170986e-11
3.5171259e-11
3.5171777e-11
3.5172595e-11
3.5173359e-11
3.517233e-11
3.5161927e-11
3.5119306e-11
3.5033878e-11
3.5290416e-11
3.5358617e-11
3.5400867e-11
3.5411014e-11
3.5411027e-11
3.5409696e-11
3.5408622e-11
3.5408017e-11
3.5407722e-11
3.5407613e-11
3.5407614e-11
3.5407722e-11
3.5408016e-11
3.5408622e-11
3.5409694e-11
3.5411025e-11
3.5411012e-11
3.5400864e-11
3.5358613e-11
3.5290409e-11
3.5771446e-11
3.5811251e-11
3.5848708e-11
3.5857606e-11
3.5856032e-11
3.5853865e-11
3.5852418e-11
3.585167e-11
3.5851333e-11
3.5851217e-11
3.5851217e-11
3.5851333e-11
3.585167e-11
3.5852418e-11
3.5853864e-11
3.5856031e-11
3.5857606e-11
3.5848707e-11
3.5811249e-11
3.5771442e-11
3.6492444e-11
3.6493837e-11
3.652128e-11
3.6527875e-11
3.6524257e-11
3.6520985e-11
3.6519025e-11
3.6518064e-11
3.651765e-11
3.6517513e-11
3.6517513e-11
3.6517651e-11
3.6518064e-11
3.6519026e-11
3.6520986e-11
3.6524258e-11
3.6527876e-11
3.6521281e-11
3.6493837e-11
3.6492443e-11
3.7459951e-11
3.7415746e-11
3.7427398e-11
3.7430615e-11
3.7424796e-11
3.7420256e-11
3.741762e-11
3.7416353e-11
3.741582e-11
3.7415641e-11
3.7415642e-11
3.7415821e-11
3.7416354e-11
3.7417622e-11
3.7420259e-11
3.7424799e-11
3.7430618e-11
3.7427401e-11
3.7415749e-11
3.7459952e-11
3.8671365e-11
3.857783e-11
3.856768e-11
3.8566442e-11
3.8558693e-11
3.8552963e-11
3.8549453e-11
3.8547764e-11
3.854706e-11
3.8546815e-11
3.8546816e-11
3.8547062e-11
3.8547766e-11
3.8549456e-11
3.8552967e-11
3.8558698e-11
3.8566447e-11
3.8567686e-11
3.8577836e-11
3.8671369e-11
4.0119109e-11
3.9976114e-11
3.9938529e-11
3.9931743e-11
3.9922795e-11
3.9916266e-11
3.991163e-11
3.9909369e-11
3.9908438e-11
3.9908093e-11
3.9908093e-11
3.990844e-11
3.9909372e-11
3.9911634e-11
3.9916271e-11
3.9922801e-11
3.993175e-11
3.9938537e-11
3.9976122e-11
4.0119116e-11
4.1793034e-11
4.1604168e-11
4.1534732e-11
4.1521172e-11
4.1512262e-11
4.1505673e-11
4.1499575e-11
4.1496525e-11
4.1495355e-11
4.1494858e-11
4.1494859e-11
4.1495357e-11
4.1496529e-11
4.149958e-11
4.1505679e-11
4.1512269e-11
4.1521181e-11
4.1534741e-11
4.1604178e-11
4.1793044e-11
4.3678507e-11
4.3452336e-11
4.3349948e-11
4.3328104e-11
4.3320989e-11
4.3315289e-11
4.3307403e-11
4.3303255e-11
4.3301883e-11
4.3301157e-11
4.3301158e-11
4.3301886e-11
4.3303259e-11
4.3307408e-11
4.3315296e-11
4.3320997e-11
4.3328114e-11
4.3349959e-11
4.3452348e-11
4.3678518e-11
4.5751795e-11
4.5502078e-11
4.5369931e-11
4.533825e-11
4.5335039e-11
4.5331335e-11
4.5321056e-11
4.5315421e-11
4.531384e-11
4.5312904e-11
4.5312905e-11
4.5313843e-11
4.5315425e-11
4.5321062e-11
4.5331344e-11
4.5335049e-11
4.5338261e-11
4.5369943e-11
4.5502091e-11
4.5751809e-11
4.7970229e-11
4.7718931e-11
4.7565215e-11
4.7522936e-11
4.7526428e-11
4.7525611e-11
4.751185e-11
4.7504281e-11
4.7502366e-11
4.7501656e-11
4.7501657e-11
4.7502369e-11
4.7504285e-11
4.7511856e-11
4.7525619e-11
4.7526438e-11
4.7522948e-11
4.7565227e-11
4.7718945e-11
4.7970243e-11
5.0281237e-11
5.0058922e-11
4.989633e-11
4.9844608e-11
4.9858146e-11
4.9860234e-11
4.9841034e-11
4.9831005e-11
4.9828489e-11
4.9829241e-11
4.9829242e-11
4.9828491e-11
4.9831009e-11
4.984104e-11
4.9860242e-11
4.9858155e-11
4.984462e-11
4.9896343e-11
5.0058936e-11
5.028125e-11
5.2627081e-11
5.2472921e-11
5.2317874e-11
5.2260793e-11
5.2288341e-11
5.2291781e-11
5.2264083e-11
5.2250978e-11
5.2247188e-11
5.225162e-11
5.2251621e-11
5.224719e-11
5.2250981e-11
5.2264088e-11
5.2291788e-11
5.2288349e-11
5.2260804e-11
5.2317886e-11
5.2472933e-11
5.2627092e-11
5.4943678e-11
5.4905825e-11
5.4778117e-11
5.4723134e-11
5.4769477e-11
5.477093e-11
5.4730952e-11
5.4714095e-11
5.4707538e-11
5.4718677e-11
5.4718677e-11
5.4707539e-11
5.4714097e-11
5.4730955e-11
5.4770936e-11
5.4769484e-11
5.4723143e-11
5.4778127e-11
5.4905836e-11
5.4943685e-11
5.7156229e-11
5.7293025e-11
5.7216141e-11
5.7173857e-11
5.724417e-11
5.7239344e-11
5.7183573e-11
5.7162327e-11
5.7150702e-11
5.7171898e-11
5.7171898e-11
5.7150703e-11
5.7162327e-11
5.7183575e-11
5.7239347e-11
5.7244175e-11
5.7173863e-11
5.7216148e-11
5.7293032e-11
5.7156232e-11
5.9173358e-11
5.9555541e-11
5.9557975e-11
5.9541133e-11
5.9640378e-11
5.9625702e-11
5.9552081e-11
5.9525954e-11
5.9507226e-11
5.9541524e-11
5.9541524e-11
5.9507226e-11
5.9525954e-11
5.955208e-11
5.9625703e-11
5.964038e-11
5.9541137e-11
5.9557979e-11
5.9555544e-11
5.9173356e-11
6.0881376e-11
6.1593374e-11
6.1710942e-11
6.173376e-11
6.1867407e-11
6.184082e-11
6.1749437e-11
6.1718174e-11
6.1692443e-11
6.1742017e-11
6.1742017e-11
6.1692442e-11
6.1718172e-11
6.1749435e-11
6.1840819e-11
6.1867406e-11
6.1733761e-11
6.1710942e-11
6.1593373e-11
6.0881372e-11
6.2139471e-11
6.3278492e-11
6.3557361e-11
6.36352e-11
6.3811846e-11
6.3772763e-11
6.3664457e-11
6.3628061e-11
6.3599106e-11
6.3664888e-11
6.3664888e-11
6.3599103e-11
6.3628057e-11
6.3664453e-11
6.3772759e-11
6.3811843e-11
6.3635197e-11
6.3557358e-11
6.3278489e-11
6.2139466e-11
6.2771298e-11
6.4447512e-11
6.4947526e-11
6.5097154e-11
6.533084e-11
6.5279673e-11
6.5154772e-11
6.5113496e-11
6.5088871e-11
6.5170421e-11
6.5170421e-11
6.5088868e-11
6.5113491e-11
6.5154767e-11
6.5279668e-11
6.5330835e-11
6.5097149e-11
6.4947521e-11
6.4447509e-11
6.2771295e-11
6.2554472e-11
6.4892942e-11
6.5687576e-11
6.5934229e-11
6.624043e-11
6.6182368e-11
6.6042502e-11
6.599684e-11
6.5986282e-11
6.6081851e-11
6.608185e-11
6.598628e-11
6.5996835e-11
6.6042496e-11
6.6182362e-11
6.6240424e-11
6.5934224e-11
6.5687573e-11
6.4892943e-11
6.255448e-11
6.121847e-11
6.435773e-11
6.5531877e-11
6.5918408e-11
6.6307705e-11
6.6259329e-11
6.6110901e-11
6.6061596e-11
6.6074334e-11
6.6181039e-11
6.6181038e-11
6.6074332e-11
6.6061591e-11
6.6110896e-11
6.6259324e-11
6.6307701e-11
6.5918406e-11
6.5531878e-11
6.4357742e-11
6.1218497e-11
5.8460206e-11
6.2536121e-11
6.4186335e-11
6.4766963e-11
6.525206e-11
6.5238156e-11
6.5093411e-11
6.5041387e-11
6.5083273e-11
6.5197252e-11
6.5197251e-11
6.5083272e-11
6.5041385e-11
6.5093408e-11
6.5238154e-11
6.5252059e-11
6.4766966e-11
6.4186346e-11
6.2536153e-11
5.8460262e-11
5.3991028e-11
5.9085294e-11
6.1317087e-11
6.2150787e-11
6.2748834e-11
6.2804306e-11
6.2678221e-11
6.2624396e-11
6.2695645e-11
6.2812109e-11
6.2812109e-11
6.2695645e-11
6.2624395e-11
6.2678222e-11
6.2804308e-11
6.274884e-11
6.2150799e-11
6.1317111e-11
5.9085354e-11
5.3991124e-11
4.7637489e-11
5.3710201e-11
5.6608829e-11
5.7734465e-11
5.84729e-11
5.863367e-11
5.8538426e-11
5.8483487e-11
5.8577628e-11
5.8690885e-11
5.8690886e-11
5.857763e-11
5.848349e-11
5.8538431e-11
5.8633677e-11
5.8472913e-11
5.7734489e-11
5.6608872e-11
5.3710293e-11
4.763763e-11
3.9493239e-11
4.6318758e-11
4.9872374e-11
5.1305774e-11
5.2211876e-11
5.2501191e-11
5.2443122e-11
5.2387962e-11
5.2492459e-11
5.2596093e-11
5.2596094e-11
5.2492462e-11
5.2387968e-11
5.2443132e-11
5.2501204e-11
5.2211897e-11
5.1305809e-11
4.9872436e-11
4.6318881e-11
3.9493415e-11
3.0053149e-11
3.7176064e-11
4.1249821e-11
4.2971558e-11
4.4000977e-11
4.4415493e-11
4.4439161e-11
4.4387622e-11
4.4487275e-11
4.4575174e-11
4.4575176e-11
4.448728e-11
4.4387631e-11
4.4439174e-11
4.441551e-11
4.4001003e-11
4.29716e-11
4.1249893e-11
3.7176199e-11
3.0053334e-11
2.0131254e-11
2.6991155e-11
3.121812e-11
3.3145822e-11
3.4299389e-11
3.4759981e-11
3.4856974e-11
3.4930854e-11
3.5012503e-11
3.5080432e-11
3.5080434e-11
3.5012509e-11
3.4930865e-11
3.4856989e-11
3.4759998e-11
3.4299415e-11
3.3145864e-11
3.1218192e-11
2.6991286e-11
2.0131444e-11
1.2495848e-11
1.7359404e-11
2.0946126e-11
2.2722458e-11
2.3746971e-11
2.4164455e-11
2.4275358e-11
2.4612997e-11
2.4670003e-11
2.4717639e-11
2.4717642e-11
2.4670009e-11
2.461301e-11
2.4275374e-11
2.4164475e-11
2.3747e-11
2.2722503e-11
2.0946201e-11
1.7359528e-11
1.2496031e-11
6.8036387e-12
1.0559531e-11
1.3376194e-11
1.4988672e-11
1.5906232e-11
1.6301207e-11
1.6403226e-11
1.6451518e-11
1.6475349e-11
1.65008e-11
1.6500803e-11
1.6475356e-11
1.6451531e-11
1.6403242e-11
1.6301227e-11
1.5906261e-11
1.4988715e-11
1.3376263e-11
1.055963e-11
6.8037846e-12
2.9687769e-12
6.1087772e-12
8.3580498e-12
9.7563263e-12
1.0574028e-11
1.094864e-11
1.103235e-11
1.1016015e-11
1.1007223e-11
1.101082e-11
1.1010824e-11
1.1007232e-11
1.1016029e-11
1.1032363e-11
1.0948654e-11
1.0574049e-11
9.7563612e-12
8.3581032e-12
6.1088492e-12
2.9688684e-12
9.8039157e-13
3.3077957e-12
5.1275164e-12
6.3340576e-12
7.0571265e-12
7.3894903e-12
7.4578755e-12
7.4082381e-12
7.3658914e-12
7.3475008e-12
7.3475041e-12
7.3658994e-12
7.4082502e-12
7.4578873e-12
7.3895021e-12
7.0571431e-12
6.334082e-12
5.1275502e-12
3.3078397e-12
9.8043531e-13
2.4337678e-13
1.6723341e-12
3.0790425e-12
4.1002777e-12
4.7332712e-12
5.0285022e-12
5.0827166e-12
5.0247851e-12
4.9658452e-12
4.934582e-12
4.9345847e-12
4.965852e-12
5.0247948e-12
5.0827258e-12
5.0285108e-12
4.7332821e-12
4.1002923e-12
3.0790611e-12
1.6723571e-12
2.4339165e-13
4.6911766e-14
7.8985098e-13
1.8103361e-12
2.6403207e-12
3.1808166e-12
3.4406378e-12
3.4908493e-12
3.4373428e-12
3.3771039e-12
3.3421732e-12
3.3421754e-12
3.3771092e-12
3.4373502e-12
3.4908561e-12
3.4406435e-12
3.1808228e-12
2.6403283e-12
1.8103453e-12
7.8986218e-13
4.6915374e-14
7.4037183e-15
3.4977596e-13
1.0439613e-12
1.6890476e-12
2.1346346e-12
2.3576788e-12
2.4065456e-12
2.3645744e-12
2.3113997e-12
2.2790401e-12
2.2790418e-12
2.3114037e-12
2.3645798e-12
2.4065504e-12
2.3576824e-12
2.1346378e-12
1.689051e-12
1.043965e-12
3.4978062e-13
7.4043951e-15
1.0086887e-15
1.463872e-13
5.9106664e-13
1.0719413e-12
1.4264597e-12
1.6122182e-12
1.6588998e-12
1.6296978e-12
1.5874978e-12
1.5606039e-12
1.5606052e-12
1.5875007e-12
1.6297016e-12
1.6589032e-12
1.6122204e-12
1.426461e-12
1.0719424e-12
5.9106785e-13
1.4638891e-13
1.0087907e-15
)
;

boundaryField
{
    Wall
    {
        type            zeroGradient;
    }
    frontAndBack
    {
        type            empty;
    }
    atmosphere
    {
        type            zeroGradient;
    }
}


// ************************************************************************* //
