/*--------------------------------*- C++ -*----------------------------------*\
| =========                 |                                                 |
| \\      /  F ield         | OpenFOAM: The Open Source CFD Toolbox           |
|  \\    /   O peration     | Version:  3.0.1                                 |
|   \\  /    A nd           | Web:      www.OpenFOAM.org                      |
|    \\/     M anipulation  |                                                 |
\*---------------------------------------------------------------------------*/
FoamFile
{
    version     2.0;
    format      ascii;
    class       volScalarField;
    location    "33";
    object      muMixture;
}
// * * * * * * * * * * * * * * * * * * * * * * * * * * * * * * * * * * * * * //

dimensions      [1 -1 -1 0 0 0 0];

internalField   nonuniform List<scalar> 
800
(
0.001
0.001
0.001
0.001
0.001
0.001
0.001
0.001
0.001
0.001
0.001
0.001
0.001
0.001
0.001
0.001
0.001
0.001
0.001
0.001
0.001
0.001
0.001
0.001
0.001
0.001
0.001
0.001
0.001
0.001
0.001
0.001
0.001
0.001
0.001
0.001
0.001
0.001
0.001
0.001
0.00099999999
0.00099999999
0.00099999999
0.00099999999
0.00099999999
0.00099999999
0.00099999999
0.00099999999
0.00099999999
0.00099999999
0.00099999999
0.00099999999
0.00099999999
0.00099999999
0.00099999999
0.00099999999
0.00099999999
0.00099999999
0.00099999999
0.00099999999
0.00099999996
0.00099999997
0.00099999997
0.00099999997
0.00099999997
0.00099999997
0.00099999997
0.00099999997
0.00099999997
0.00099999997
0.00099999997
0.00099999997
0.00099999997
0.00099999997
0.00099999997
0.00099999997
0.00099999997
0.00099999997
0.00099999997
0.00099999996
0.0009999999
0.00099999991
0.00099999992
0.00099999992
0.00099999992
0.00099999992
0.00099999992
0.00099999992
0.00099999992
0.00099999992
0.00099999992
0.00099999992
0.00099999992
0.00099999992
0.00099999992
0.00099999992
0.00099999992
0.00099999992
0.00099999991
0.0009999999
0.00099999979
0.00099999982
0.00099999983
0.00099999983
0.00099999983
0.00099999983
0.00099999983
0.00099999983
0.00099999983
0.00099999983
0.00099999983
0.00099999983
0.00099999983
0.00099999983
0.00099999983
0.00099999983
0.00099999983
0.00099999983
0.00099999982
0.00099999979
0.00099999963
0.00099999967
0.00099999969
0.0009999997
0.0009999997
0.0009999997
0.0009999997
0.0009999997
0.0009999997
0.0009999997
0.0009999997
0.0009999997
0.0009999997
0.0009999997
0.0009999997
0.0009999997
0.0009999997
0.00099999969
0.00099999967
0.00099999963
0.0009999994
0.00099999947
0.0009999995
0.00099999951
0.00099999952
0.00099999952
0.00099999952
0.00099999951
0.00099999951
0.00099999951
0.00099999951
0.00099999951
0.00099999951
0.00099999952
0.00099999952
0.00099999952
0.00099999951
0.0009999995
0.00099999947
0.0009999994
0.00099999909
0.00099999919
0.00099999925
0.00099999926
0.00099999927
0.00099999927
0.00099999927
0.00099999927
0.00099999927
0.00099999927
0.00099999927
0.00099999927
0.00099999927
0.00099999927
0.00099999927
0.00099999927
0.00099999926
0.00099999925
0.00099999919
0.00099999909
0.00099999869
0.00099999883
0.00099999892
0.00099999895
0.00099999895
0.00099999895
0.00099999895
0.00099999895
0.00099999895
0.00099999895
0.00099999895
0.00099999895
0.00099999895
0.00099999895
0.00099999895
0.00099999895
0.00099999895
0.00099999892
0.00099999883
0.00099999869
0.00099999819
0.00099999839
0.00099999851
0.00099999855
0.00099999856
0.00099999856
0.00099999856
0.00099999856
0.00099999856
0.00099999856
0.00099999856
0.00099999856
0.00099999856
0.00099999856
0.00099999856
0.00099999856
0.00099999855
0.00099999851
0.00099999839
0.00099999819
0.00099999761
0.00099999782
0.00099999798
0.00099999808
0.00099999809
0.00099999809
0.00099999809
0.00099999809
0.00099999809
0.00099999809
0.00099999809
0.00099999809
0.00099999809
0.00099999809
0.00099999809
0.00099999809
0.00099999808
0.00099999798
0.00099999782
0.00099999761
0.0009999969
0.000999997
0.00099999737
0.00099999754
0.00099999754
0.00099999757
0.00099999757
0.00099999753
0.00099999754
0.00099999754
0.00099999754
0.00099999754
0.00099999753
0.00099999757
0.00099999757
0.00099999754
0.00099999754
0.00099999737
0.000999997
0.0009999969
0.00099999607
0.0009999964
0.00099999682
0.00099999686
0.00099999693
0.00099999681
0.00099999655
0.00099999667
0.0009999969
0.0009999969
0.0009999969
0.0009999969
0.00099999667
0.00099999655
0.00099999681
0.00099999693
0.00099999686
0.00099999682
0.0009999964
0.00099999607
0.00099999508
0.00099999591
0.0009999962
0.00099999614
0.00099999577
0.00099999384
0.00099999388
0.00099999614
0.00099999619
0.00099999619
0.00099999619
0.00099999619
0.00099999614
0.00099999388
0.00099999384
0.00099999577
0.00099999614
0.0009999962
0.00099999591
0.00099999508
0.00099999331
0.0009999936
0.00099999519
0.00099999518
0.00099999023
0.00099999039
0.00099999491
0.00099999559
0.00099999541
0.0009999954
0.0009999954
0.00099999541
0.0009999956
0.0009999949
0.00099999038
0.00099999023
0.00099999518
0.00099999519
0.0009999936
0.00099999331
0.00099999118
0.00099997286
0.00099998317
0.00099998445
0.00099998289
0.00099999334
0.00099999493
0.00099999463
0.00099999456
0.00099999455
0.00099999455
0.00099999456
0.00099999463
0.00099999492
0.00099999333
0.00099998289
0.00099998445
0.00099998317
0.00099997286
0.00099999118
0.00099997169
0.00099996726
0.00099996725
0.00099996726
0.00099998423
0.00099998955
0.00099999302
0.0009999936
0.00099999365
0.00099999365
0.00099999365
0.00099999365
0.00099999361
0.00099999301
0.00099998956
0.00099998423
0.00099996725
0.00099996725
0.00099996726
0.00099997169
0.00099996726
0.00099996726
0.00099996726
0.00099997488
0.00099998892
0.0009999886
0.00099999177
0.00099999273
0.0009999927
0.00099999269
0.00099999269
0.0009999927
0.00099999272
0.00099999183
0.00099998861
0.00099998891
0.00099997487
0.00099996726
0.00099996725
0.00099996726
0.00099996726
0.00099996726
0.00099996726
0.00099998939
0.0009999919
0.00099999188
0.00099999201
0.00099999164
0.00099999176
0.0009999917
0.00099999169
0.00099999176
0.00099999164
0.00099999206
0.00099999192
0.00099999191
0.00099998941
0.00099996725
0.00099996726
0.00099996725
0.00099996726
0.00099996726
0.000999981
0.0009999919
0.00099999204
0.00099999201
0.00099999204
0.00099999071
0.00099998969
0.00099998995
0.00099998995
0.00099998971
0.00099999071
0.00099999208
0.00099999206
0.00099999208
0.00099999185
0.000999981
0.00099996725
0.00099996726
0.00099996726
0.00099996726
0.000999989
0.00099999175
0.00099998434
0.00099998414
0.00099998308
0.00099998597
0.00099998547
0.0009999895
0.00099998951
0.00099998542
0.00099998593
0.00099998295
0.00099998405
0.0009999843
0.00099999177
0.000999989
0.00099996726
0.00099996726
0.00099996823
0.00099997404
0.00099998201
0.00099998449
0.00099998146
0.00099998146
0.00099998146
0.00099998214
0.00099998774
0.0009999894
0.00099998939
0.00099998777
0.00099998217
0.00099998145
0.00099998145
0.00099998145
0.00099998449
0.00099998201
0.00099997404
0.00099996823
0.00099998785
0.00099998881
0.00099998116
0.00099998881
0.00099998146
0.00099998146
0.00099998146
0.00099998146
0.00099998784
0.00099998787
0.00099998787
0.00099998786
0.00099998145
0.00099998145
0.00099998145
0.00099998145
0.00099998881
0.00099998116
0.00099998881
0.00099998785
0.00099998881
0.00099998881
0.00099998117
0.00099998881
0.00099998432
0.00099998211
0.00099998146
0.00099998406
0.00099998537
0.00099998651
0.00099998649
0.00099998534
0.00099998408
0.00099998145
0.0009999821
0.00099998434
0.00099998881
0.00099998117
0.00099998881
0.00099998881
0.00099998881
0.00099998881
0.00099998827
0.00099998881
0.00099998881
0.00099998881
0.00099998773
0.00099998881
0.00099998493
0.00099998522
0.00099998522
0.00099998492
0.00099998881
0.00099998775
0.00099998881
0.00099998881
0.00099998881
0.00099998827
0.00099998881
0.00099998881
0.00099998881
0.00099998881
0.00099998881
0.00099998881
0.00099998881
0.00099998881
0.00099998881
0.00099998881
0.0009999885
0.00099998533
0.00099998533
0.0009999885
0.00099998881
0.00099998881
0.00099998881
0.00099998881
0.00099998881
0.00099998881
0.00099998881
0.00099998881
0.00099998846
0.00099998881
0.00099998881
0.00099998881
0.00099998881
0.00099998881
0.00099998881
0.00099998881
0.00099998768
0.00099998464
0.00099998464
0.00099998768
0.00099998881
0.00099998881
0.00099998881
0.00099998881
0.00099998881
0.00099998881
0.00099998881
0.00099998846
0.00099992363
0.00099997769
0.00099998796
0.00099998881
0.00099998881
0.00099998881
0.00099998881
0.00099998667
0.00099998167
0.00099998039
0.00099998039
0.00099998167
0.00099998667
0.00099998881
0.00099998881
0.00099998881
0.00099998881
0.00099998796
0.00099997769
0.00099992364
0.00099876445
0.00099972043
0.00099990869
0.00099993848
0.0009999497
0.00099995265
0.00099995079
0.00099994598
0.00099994438
0.00099994465
0.00099994465
0.00099994438
0.00099994599
0.0009999508
0.00099995265
0.0009999497
0.00099993849
0.00099990869
0.00099972045
0.0009987646
0.00095223331
0.0009936659
0.00099828208
0.00099896604
0.00099919532
0.00099928219
0.00099931825
0.00099933441
0.00099935155
0.0009993604
0.00099936041
0.00099935155
0.00099933442
0.00099931826
0.00099928221
0.00099919534
0.00099896608
0.00099828218
0.00099366658
0.00095224072
1e-05
0.0007834051
0.00092312006
0.00095448253
0.00096639311
0.00097094634
0.00097300385
0.0009741004
0.00097495778
0.00097538973
0.00097538982
0.00097495803
0.00097410085
0.00097300447
0.00097094715
0.00096639424
0.00095448458
0.00092312453
0.00078341911
1e-05
1e-05
1e-05
1e-05
1e-05
1e-05
1e-05
1e-05
0.00051019591
0.00051568152
0.00051850143
0.00051850202
0.00051568309
0.00051019882
1e-05
1e-05
1e-05
1e-05
1e-05
1e-05
1e-05
1e-05
1e-05
1e-05
1e-05
1e-05
1e-05
1e-05
1e-05
1e-05
1e-05
1e-05
1e-05
1e-05
1e-05
1e-05
1e-05
1e-05
1e-05
1e-05
1e-05
1e-05
1e-05
1e-05
1e-05
1e-05
1e-05
1e-05
1e-05
1e-05
1e-05
1e-05
1e-05
1e-05
1e-05
1e-05
1e-05
1e-05
1e-05
1e-05
1e-05
1e-05
1e-05
1e-05
1e-05
1e-05
1e-05
1e-05
1e-05
1e-05
1e-05
1e-05
1e-05
1e-05
1e-05
1e-05
1e-05
1e-05
1e-05
1e-05
1e-05
1e-05
1e-05
1e-05
1e-05
1e-05
1e-05
1e-05
1e-05
1e-05
1e-05
1e-05
1e-05
1e-05
1e-05
1e-05
1e-05
1e-05
1e-05
1e-05
1e-05
1e-05
1e-05
1e-05
1e-05
1e-05
1e-05
1e-05
1e-05
1e-05
1e-05
1e-05
1e-05
1e-05
1e-05
1e-05
1e-05
1e-05
1e-05
1e-05
1e-05
1e-05
1e-05
1e-05
1e-05
1e-05
1e-05
1e-05
1e-05
1e-05
1e-05
1e-05
1e-05
1e-05
1e-05
1e-05
1e-05
1e-05
1e-05
1e-05
1e-05
1e-05
1e-05
1e-05
1e-05
1e-05
1e-05
1e-05
1e-05
1e-05
1e-05
1e-05
1e-05
1e-05
1e-05
1e-05
1e-05
1e-05
1e-05
1e-05
1e-05
)
;

boundaryField
{
    Wall
    {
        type            zeroGradient;
    }
    frontAndBack
    {
        type            empty;
    }
    atmosphere
    {
        type            zeroGradient;
    }
}


// ************************************************************************* //
