/*--------------------------------*- C++ -*----------------------------------*\
| =========                 |                                                 |
| \\      /  F ield         | OpenFOAM: The Open Source CFD Toolbox           |
|  \\    /   O peration     | Version:  3.0.1                                 |
|   \\  /    A nd           | Web:      www.OpenFOAM.org                      |
|    \\/     M anipulation  |                                                 |
\*---------------------------------------------------------------------------*/
FoamFile
{
    version     2.0;
    format      ascii;
    class       volScalarField;
    location    "33";
    object      mZero;
}
// * * * * * * * * * * * * * * * * * * * * * * * * * * * * * * * * * * * * * //

dimensions      [0 0 0 0 0 0 0];

internalField   nonuniform List<scalar> 
800
(
1e+13
1e+13
1e+13
1e+13
1e+13
1e+13
1e+13
1e+13
1e+13
1e+13
1e+13
1e+13
1e+13
1e+13
1e+13
1e+13
1e+13
1e+13
1e+13
1e+13
1e+13
1e+13
1e+13
1e+13
1e+13
1e+13
1e+13
1e+13
1e+13
1e+13
1e+13
1e+13
1e+13
1e+13
1e+13
1e+13
1e+13
1e+13
1e+13
1e+13
9.9483315e+12
9.9500003e+12
9.9507881e+12
9.9510857e+12
9.9511858e+12
9.9512095e+12
9.9512064e+12
9.951197e+12
9.9511889e+12
9.9511846e+12
9.9511846e+12
9.9511888e+12
9.9511969e+12
9.9512063e+12
9.9512094e+12
9.9511856e+12
9.9510855e+12
9.9507879e+12
9.95e+12
9.9483311e+12
9.8531717e+12
9.8579169e+12
9.8599557e+12
9.8607277e+12
9.8609981e+12
9.8610673e+12
9.8610641e+12
9.8610422e+12
9.8610221e+12
9.8610111e+12
9.8610111e+12
9.861022e+12
9.861042e+12
9.8610639e+12
9.8610671e+12
9.8609978e+12
9.8607273e+12
9.8599552e+12
9.8579163e+12
9.8531708e+12
9.7216195e+12
9.7306185e+12
9.7342102e+12
9.7355595e+12
9.7360374e+12
9.7361618e+12
9.7361588e+12
9.7361218e+12
9.7360871e+12
9.736068e+12
9.736068e+12
9.736087e+12
9.7361216e+12
9.7361584e+12
9.7361613e+12
9.7360368e+12
9.7355588e+12
9.7342093e+12
9.7306175e+12
9.7216181e+12
9.5598789e+12
9.5740029e+12
9.5793687e+12
9.5813604e+12
9.5820618e+12
9.582242e+12
9.5822366e+12
9.5821814e+12
9.5821296e+12
9.582101e+12
9.582101e+12
9.5821293e+12
9.582181e+12
9.582236e+12
9.5822413e+12
9.5820609e+12
9.5813594e+12
9.5793675e+12
9.5740014e+12
9.559877e+12
9.3733641e+12
9.3932933e+12
9.4005849e+12
9.4032583e+12
9.4041853e+12
9.4044162e+12
9.404403e+12
9.4043257e+12
9.4042543e+12
9.4042151e+12
9.404215e+12
9.404254e+12
9.4043252e+12
9.4044023e+12
9.4044152e+12
9.4041841e+12
9.403257e+12
9.4005834e+12
9.3932915e+12
9.3733618e+12
9.1667758e+12
9.1930716e+12
9.2023894e+12
9.2057608e+12
9.2069015e+12
9.2071727e+12
9.2071455e+12
9.207042e+12
9.2069488e+12
9.206898e+12
9.2068979e+12
9.2069485e+12
9.2070414e+12
9.2071447e+12
9.2071716e+12
9.2069001e+12
9.2057592e+12
9.2023876e+12
9.1930695e+12
9.1667732e+12
8.9442138e+12
8.977343e+12
8.9887647e+12
8.9928381e+12
8.9941735e+12
8.9944716e+12
8.9944237e+12
8.9942904e+12
8.9941736e+12
8.9941103e+12
8.9941101e+12
8.9941731e+12
8.9942897e+12
8.9944226e+12
8.9944703e+12
8.994172e+12
8.9928363e+12
8.9887627e+12
8.9773407e+12
8.944211e+12
8.7092253e+12
8.7495861e+12
8.7631857e+12
8.7679605e+12
8.7694701e+12
8.7697809e+12
8.7697066e+12
8.7695411e+12
8.7693991e+12
8.7693227e+12
8.7693225e+12
8.7693986e+12
8.7695403e+12
8.7697054e+12
8.7697795e+12
8.7694684e+12
8.7679586e+12
8.7631835e+12
8.7495838e+12
8.7092226e+12
8.4648439e+12
8.5127902e+12
8.5286537e+12
8.534133e+12
8.5357989e+12
8.5361117e+12
8.5360072e+12
8.5358083e+12
8.5356398e+12
8.5355496e+12
8.5355494e+12
8.5356392e+12
8.5358075e+12
8.536006e+12
8.5361102e+12
8.5357971e+12
8.534131e+12
8.5286514e+12
8.5127878e+12
8.4648412e+12
8.2136686e+12
8.2695267e+12
8.2877692e+12
8.2939675e+12
8.2957784e+12
8.2960873e+12
8.2959509e+12
8.2957187e+12
8.2955218e+12
8.2954172e+12
8.2954171e+12
8.2955212e+12
8.2957178e+12
8.2959497e+12
8.2960858e+12
8.2957766e+12
8.2939655e+12
8.287767e+12
8.2695243e+12
8.213666e+12
7.9578878e+12
8.0219715e+12
8.042752e+12
8.0497027e+12
8.0516604e+12
8.0519665e+12
8.0517987e+12
8.0515342e+12
8.0513068e+12
8.0511871e+12
8.0511869e+12
8.0513062e+12
8.0515333e+12
8.0517974e+12
8.051965e+12
8.0516586e+12
8.0497007e+12
8.0427498e+12
8.0219692e+12
7.9578853e+12
7.6993773e+12
7.7719925e+12
7.7955313e+12
7.8032937e+12
7.8054118e+12
7.8057201e+12
7.8055196e+12
7.8052243e+12
7.8049647e+12
7.8048281e+12
7.8048279e+12
7.8049641e+12
7.8052233e+12
7.8055183e+12
7.8057185e+12
7.80541e+12
7.8032917e+12
7.7955292e+12
7.7719903e+12
7.6993749e+12
7.4395524e+12
7.5210359e+12
7.5476228e+12
7.5562909e+12
7.5586013e+12
7.5589187e+12
7.5586829e+12
7.5583572e+12
7.5580649e+12
7.5579085e+12
7.5579084e+12
7.5580643e+12
7.5583562e+12
7.5586816e+12
7.5589172e+12
7.5585995e+12
7.5562891e+12
7.5476208e+12
7.5210339e+12
7.4395501e+12
7.1797125e+12
7.2704084e+12
7.3004135e+12
7.3101279e+12
7.3126769e+12
7.3130091e+12
7.3127308e+12
7.3123714e+12
7.3120478e+12
7.3118685e+12
7.3118683e+12
7.3120472e+12
7.3123704e+12
7.3127295e+12
7.3130076e+12
7.3126752e+12
7.3101261e+12
7.3004115e+12
7.2704065e+12
7.1797105e+12
6.9208369e+12
7.0211296e+12
7.0550213e+12
7.0659869e+12
7.0688426e+12
7.0691945e+12
7.0688596e+12
7.0684574e+12
7.0681048e+12
7.0679005e+12
7.0679003e+12
7.0681042e+12
7.0684565e+12
7.0688585e+12
7.0691931e+12
7.0688411e+12
7.0659853e+12
7.0550195e+12
7.0211278e+12
6.9208351e+12
6.6635372e+12
6.773871e+12
6.8122371e+12
6.8247416e+12
6.8280033e+12
6.8283815e+12
6.8279696e+12
6.8275086e+12
6.827128e+12
6.8268974e+12
6.8268972e+12
6.8271275e+12
6.8275077e+12
6.8279685e+12
6.8283802e+12
6.8280019e+12
6.8247401e+12
6.8122355e+12
6.7738694e+12
6.6635355e+12
6.408046e+12
6.5289531e+12
6.5725199e+12
6.5869515e+12
6.5907615e+12
6.5911795e+12
6.5906654e+12
6.5901215e+12
6.5897098e+12
6.5894515e+12
6.5894513e+12
6.5897093e+12
6.5901207e+12
6.5906644e+12
6.5911783e+12
6.5907602e+12
6.5869501e+12
6.5725184e+12
6.5289517e+12
6.4080446e+12
6.1542188e+12
6.2863515e+12
6.3360105e+12
6.3528791e+12
6.3574401e+12
6.3579267e+12
6.3572829e+12
6.3566232e+12
6.3561699e+12
6.35588e+12
6.3558798e+12
6.3561694e+12
6.3566224e+12
6.3572819e+12
6.3579256e+12
6.357439e+12
6.3528779e+12
6.3360092e+12
6.2863503e+12
6.1542177e+12
5.9015106e+12
6.0456807e+12
6.1025238e+12
6.1224889e+12
6.1280867e+12
6.1286982e+12
6.1278979e+12
6.1270804e+12
6.1265661e+12
6.1262367e+12
6.1262366e+12
6.1265657e+12
6.1270797e+12
6.127897e+12
6.1286972e+12
6.1280857e+12
6.1224879e+12
6.1025227e+12
6.0456797e+12
5.9015098e+12
5.6489511e+12
5.8061744e+12
5.8715382e+12
5.8954479e+12
5.9024806e+12
5.9033147e+12
5.9023359e+12
5.9013091e+12
5.9007047e+12
5.900322e+12
5.9003219e+12
5.9007043e+12
5.9013084e+12
5.9023352e+12
5.9033139e+12
5.9024798e+12
5.8954471e+12
5.8715373e+12
5.8061737e+12
5.6489507e+12
5.3950982e+12
5.5666543e+12
5.6421757e+12
5.6711193e+12
5.6801367e+12
5.6813512e+12
5.6801812e+12
5.6788833e+12
5.6781472e+12
5.6776894e+12
5.6776892e+12
5.6781468e+12
5.6788826e+12
5.6801805e+12
5.6813505e+12
5.680136e+12
5.6711187e+12
5.6421751e+12
5.566654e+12
5.3950982e+12
5.1379463e+12
5.3254683e+12
5.4131597e+12
5.4485405e+12
5.4602941e+12
5.4621366e+12
5.4607825e+12
5.4591411e+12
5.4582144e+12
5.4576486e+12
5.4576485e+12
5.458214e+12
5.4591405e+12
5.4607819e+12
5.462136e+12
5.4602936e+12
5.4485401e+12
5.4131594e+12
5.3254684e+12
5.1379468e+12
4.8747954e+12
5.0803785e+12
5.1827353e+12
5.2263783e+12
5.2418874e+12
5.2447456e+12
5.2432531e+12
5.2411856e+12
5.2399856e+12
5.2392642e+12
5.239264e+12
5.2399853e+12
5.241185e+12
5.2432526e+12
5.2447451e+12
5.241887e+12
5.2263781e+12
5.1827352e+12
5.0803791e+12
4.8747966e+12
4.6020754e+12
4.8283945e+12
4.9485455e+12
5.0028292e+12
5.0234921e+12
5.0279611e+12
5.0264403e+12
5.023854e+12
5.0222675e+12
5.0213222e+12
5.021322e+12
5.0222672e+12
5.0238534e+12
5.0264399e+12
5.0279608e+12
5.0234919e+12
5.0028292e+12
4.9485459e+12
4.8283957e+12
4.6020775e+12
4.3150848e+12
4.5654871e+12
4.7073915e+12
4.7754502e+12
4.803205e+12
4.810196e+12
4.8088604e+12
4.8056577e+12
4.8035322e+12
4.8022665e+12
4.8022663e+12
4.8035319e+12
4.8056572e+12
4.8088601e+12
4.8101958e+12
4.803205e+12
4.7754505e+12
4.7073923e+12
4.5654891e+12
4.3150881e+12
4.0076148e+12
4.2861811e+12
4.4548971e+12
4.5409034e+12
4.5784639e+12
4.5893615e+12
4.588595e+12
4.5846865e+12
4.5818172e+12
4.5800948e+12
4.5800947e+12
4.5818169e+12
4.5846861e+12
4.5885947e+12
4.5893614e+12
4.5784639e+12
4.540904e+12
4.4548984e+12
4.2861843e+12
4.0076196e+12
3.671548e+12
3.9829064e+12
4.185027e+12
4.2945721e+12
4.345869e+12
4.3627394e+12
4.3632129e+12
4.3585446e+12
4.3546613e+12
4.35229e+12
4.3522898e+12
4.3546611e+12
4.3585442e+12
4.3632128e+12
4.3627394e+12
4.3458693e+12
4.294573e+12
4.1850289e+12
3.9829108e+12
3.671555e+12
3.2965798e+12
3.6457303e+12
3.8894156e+12
4.0301462e+12
4.1007662e+12
4.1269175e+12
4.1297875e+12
4.1244071e+12
4.1191593e+12
4.1158622e+12
4.115862e+12
4.1191591e+12
4.1244068e+12
4.1297874e+12
4.1269176e+12
4.1007667e+12
4.0301474e+12
3.8894183e+12
3.6457363e+12
3.2965895e+12
2.8712336e+12
3.2614204e+12
3.5567571e+12
3.7391476e+12
3.8369467e+12
3.8773591e+12
3.8849389e+12
3.8791107e+12
3.8720738e+12
3.8674583e+12
3.8674581e+12
3.8720736e+12
3.8791105e+12
3.884939e+12
3.8773594e+12
3.8369475e+12
3.7391493e+12
3.5567607e+12
3.2614283e+12
2.8712466e+12
2.3737734e+12
2.8131292e+12
3.1721255e+12
3.4099102e+12
3.5465465e+12
3.6088258e+12
3.6247686e+12
3.6194891e+12
3.6101892e+12
3.603692e+12
3.6036919e+12
3.6101891e+12
3.619489e+12
3.6247689e+12
3.6088264e+12
3.5465476e+12
3.4099125e+12
3.1721305e+12
2.8131394e+12
2.3737914e+12
1.7752043e+12
2.2697287e+12
2.7079729e+12
3.0212875e+12
3.2149905e+12
3.3116641e+12
3.3425959e+12
3.3397925e+12
3.3277503e+12
3.3185599e+12
3.3185598e+12
3.3277503e+12
3.3397928e+12
3.3425965e+12
3.3116651e+12
3.2149923e+12
3.0212911e+12
2.7079801e+12
2.2697419e+12
1.7752265e+12
1.1322802e+12
1.6876682e+12
2.167915e+12
2.5533221e+12
2.8201901e+12
2.9687908e+12
3.0253558e+12
3.0282627e+12
3.0129604e+12
2.9997488e+12
2.9997487e+12
3.0129605e+12
3.0282632e+12
3.0253567e+12
2.968792e+12
2.8201921e+12
2.5533267e+12
2.1679235e+12
1.6876816e+12
1.1323022e+12
5.6639608e+11
1.1742318e+12
1.6700944e+12
2.0897468e+12
2.4117258e+12
2.6122802e+12
2.7003008e+12
2.7129293e+12
2.6948431e+12
2.6766711e+12
2.6766712e+12
2.6948436e+12
2.7129301e+12
2.7003016e+12
2.6122811e+12
2.4117277e+12
2.0897515e+12
1.6701026e+12
1.1742436e+12
5.6641267e+11
2.1083261e+11
7.6877314e+11
1.2621805e+12
1.6937249e+12
2.0422577e+12
2.2747332e+12
2.3865329e+12
2.407331e+12
2.3861765e+12
2.3626994e+12
2.3626996e+12
2.3861771e+12
2.4073319e+12
2.3865335e+12
2.2747337e+12
2.0422593e+12
1.6937283e+12
1.2621862e+12
7.6878126e+11
2.108418e+11
5.8261802e+10
4.772308e+11
9.4347685e+11
1.371701e+12
1.726871e+12
1.9721777e+12
2.0951558e+12
2.1203543e+12
2.096627e+12
2.0689022e+12
2.0689024e+12
2.0966277e+12
2.120355e+12
2.0951562e+12
1.9721776e+12
1.7268715e+12
1.3717027e+12
9.4347988e+11
4.7723539e+11
5.8265315e+10
1.2402662e+10
2.8111128e+11
7.0050901e+11
1.1122652e+12
1.4604511e+12
1.7045838e+12
1.828975e+12
1.8545622e+12
1.8290776e+12
1.7989054e+12
1.7989057e+12
1.8290783e+12
1.8545629e+12
1.828975e+12
1.7045832e+12
1.4604504e+12
1.1122652e+12
7.0050995e+11
2.8111373e+11
1.2403606e+10
2.1534861e+09
1.5698983e+11
5.1655396e+11
9.0140957e+11
1.2329849e+12
1.4665885e+12
1.5856218e+12
1.6092672e+12
1.5830297e+12
1.5524064e+12
1.5524067e+12
1.5830302e+12
1.6092676e+12
1.5856216e+12
1.4665874e+12
1.2329834e+12
9.0140842e+11
5.1655357e+11
1.5699094e+11
2.1536798e+09
3.2275064e+08
8.3359728e+10
3.7658293e+11
7.2668924e+11
1.0351568e+12
1.2525325e+12
1.3624309e+12
1.3832439e+12
1.3576619e+12
1.3283301e+12
1.3283303e+12
1.3576622e+12
1.3832441e+12
1.3624305e+12
1.2525312e+12
1.035155e+12
7.2668751e+11
3.7658198e+11
8.3360179e+10
3.2278234e+08
)
;

boundaryField
{
    Wall
    {
        type            zeroGradient;
    }
    frontAndBack
    {
        type            empty;
    }
    atmosphere
    {
        type            zeroGradient;
    }
}


// ************************************************************************* //
