/*--------------------------------*- C++ -*----------------------------------*\
| =========                 |                                                 |
| \\      /  F ield         | OpenFOAM: The Open Source CFD Toolbox           |
|  \\    /   O peration     | Version:  3.0.1                                 |
|   \\  /    A nd           | Web:      www.OpenFOAM.org                      |
|    \\/     M anipulation  |                                                 |
\*---------------------------------------------------------------------------*/
FoamFile
{
    version     2.0;
    format      ascii;
    class       volScalarField;
    location    "33";
    object      node1;
}
// * * * * * * * * * * * * * * * * * * * * * * * * * * * * * * * * * * * * * //

dimensions      [0 0 0 0 0 0 0];

internalField   nonuniform List<scalar> 
800
(
1.8994196e-12
1.8995837e-12
1.8996133e-12
1.8996162e-12
1.8996157e-12
1.8996152e-12
1.8996151e-12
1.8996152e-12
1.8996154e-12
1.8996154e-12
1.8996154e-12
1.8996154e-12
1.8996152e-12
1.8996151e-12
1.8996152e-12
1.8996157e-12
1.8996162e-12
1.8996133e-12
1.8995838e-12
1.8994196e-12
1.8880029e-12
1.8892282e-12
1.8895428e-12
1.8896191e-12
1.8896271e-12
1.889619e-12
1.88961e-12
1.8896036e-12
1.8895999e-12
1.8895982e-12
1.8895982e-12
1.8895999e-12
1.8896036e-12
1.88961e-12
1.889619e-12
1.889627e-12
1.8896191e-12
1.8895428e-12
1.8892281e-12
1.8880027e-12
1.882853e-12
1.8845909e-12
1.8851411e-12
1.8852702e-12
1.8852858e-12
1.8852749e-12
1.8852622e-12
1.8852534e-12
1.8852483e-12
1.8852461e-12
1.8852461e-12
1.8852483e-12
1.8852533e-12
1.8852622e-12
1.8852749e-12
1.8852858e-12
1.8852702e-12
1.885141e-12
1.8845908e-12
1.8828529e-12
1.8846532e-12
1.8865264e-12
1.8872152e-12
1.8873627e-12
1.8873748e-12
1.8873596e-12
1.8873448e-12
1.8873356e-12
1.8873308e-12
1.8873289e-12
1.8873289e-12
1.8873308e-12
1.8873356e-12
1.8873448e-12
1.8873596e-12
1.8873748e-12
1.8873627e-12
1.8872152e-12
1.8865263e-12
1.884653e-12
1.8939176e-12
1.8955361e-12
1.8962565e-12
1.89639e-12
1.896384e-12
1.8963601e-12
1.8963428e-12
1.896334e-12
1.8963303e-12
1.8963291e-12
1.8963291e-12
1.8963303e-12
1.896334e-12
1.8963428e-12
1.8963601e-12
1.8963839e-12
1.8963899e-12
1.8962565e-12
1.895536e-12
1.8939175e-12
1.9111192e-12
1.9120812e-12
1.9127179e-12
1.9128048e-12
1.9127642e-12
1.9127261e-12
1.9127047e-12
1.9126963e-12
1.9126941e-12
1.912694e-12
1.912694e-12
1.9126941e-12
1.9126963e-12
1.9127047e-12
1.9127261e-12
1.9127643e-12
1.9128049e-12
1.912718e-12
1.9120812e-12
1.9111192e-12
1.936624e-12
1.9365289e-12
1.9369564e-12
1.9369632e-12
1.9368713e-12
1.9368124e-12
1.936785e-12
1.9367766e-12
1.9367759e-12
1.936777e-12
1.936777e-12
1.9367759e-12
1.9367766e-12
1.936785e-12
1.9368125e-12
1.9368713e-12
1.9369633e-12
1.9369565e-12
1.9365289e-12
1.9366241e-12
1.9704912e-12
1.968999e-12
1.969086e-12
1.9689788e-12
1.9688215e-12
1.9687364e-12
1.9687009e-12
1.9686918e-12
1.9686926e-12
1.9686948e-12
1.9686948e-12
1.9686926e-12
1.9686919e-12
1.968701e-12
1.9687365e-12
1.9688216e-12
1.968979e-12
1.9690861e-12
1.9689991e-12
1.9704914e-12
2.0147401e-12
2.0110442e-12
2.0105268e-12
2.0102565e-12
2.0100093e-12
2.0098869e-12
2.009839e-12
2.0098279e-12
2.0098298e-12
2.0098332e-12
2.0098333e-12
2.0098299e-12
2.009828e-12
2.0098392e-12
2.0098871e-12
2.0100095e-12
2.0102568e-12
2.010527e-12
2.0110444e-12
2.0147404e-12
2.0698533e-12
2.0636106e-12
2.0622626e-12
2.0617891e-12
2.0614501e-12
2.0612874e-12
2.061223e-12
2.0612076e-12
2.0612098e-12
2.061214e-12
2.0612141e-12
2.0612099e-12
2.0612077e-12
2.0612232e-12
2.0612876e-12
2.0614504e-12
2.0617894e-12
2.062263e-12
2.063611e-12
2.0698537e-12
2.1363351e-12
2.1272211e-12
2.1247606e-12
2.1240383e-12
2.1236265e-12
2.1234314e-12
2.1233439e-12
2.1233205e-12
2.1233218e-12
2.1233261e-12
2.1233261e-12
2.1233219e-12
2.1233207e-12
2.1233442e-12
2.1234317e-12
2.1236269e-12
2.1240387e-12
2.124761e-12
2.1272216e-12
2.1363356e-12
2.213948e-12
2.2018492e-12
2.1980153e-12
2.1969953e-12
2.1965586e-12
2.1963578e-12
2.1962381e-12
2.1962012e-12
2.1961997e-12
2.196203e-12
2.1962031e-12
2.1961998e-12
2.1962014e-12
2.1962384e-12
2.1963581e-12
2.196559e-12
2.1969958e-12
2.1980158e-12
2.2018497e-12
2.2139485e-12
2.30188e-12
2.2868138e-12
2.2814377e-12
2.2800596e-12
2.2796533e-12
2.2794805e-12
2.2793165e-12
2.279258e-12
2.2792555e-12
2.2792561e-12
2.2792561e-12
2.2792556e-12
2.2792583e-12
2.2793168e-12
2.2794809e-12
2.2796537e-12
2.2800601e-12
2.2814383e-12
2.2868144e-12
2.3018806e-12
2.3996462e-12
2.3817724e-12
2.3747716e-12
2.3729582e-12
2.3726817e-12
2.37259e-12
2.3723666e-12
2.372274e-12
2.3722764e-12
2.3722714e-12
2.3722715e-12
2.3722765e-12
2.3722743e-12
2.372367e-12
2.3725904e-12
2.3726822e-12
2.3729588e-12
2.3747722e-12
2.381773e-12
2.3996469e-12
2.5061293e-12
2.4856567e-12
2.4771386e-12
2.4748102e-12
2.4747298e-12
2.4747498e-12
2.4744363e-12
2.4742948e-12
2.4743067e-12
2.4742991e-12
2.4742992e-12
2.4743068e-12
2.4742951e-12
2.4744366e-12
2.4747502e-12
2.4747303e-12
2.4748108e-12
2.4771392e-12
2.4856574e-12
2.50613e-12
2.6198597e-12
2.5971091e-12
2.5872823e-12
2.5843843e-12
2.5845603e-12
2.5846911e-12
2.5842515e-12
2.5840498e-12
2.5840687e-12
2.5840806e-12
2.5840806e-12
2.5840689e-12
2.5840501e-12
2.5842518e-12
2.5846916e-12
2.5845609e-12
2.584385e-12
2.587283e-12
2.5971098e-12
2.6198604e-12
2.7392624e-12
2.7147035e-12
2.7038168e-12
2.7003448e-12
2.7008283e-12
2.7010346e-12
2.7004063e-12
2.7001355e-12
2.7001513e-12
2.700235e-12
2.700235e-12
2.7001514e-12
2.7001357e-12
2.7004066e-12
2.701035e-12
2.7008288e-12
2.7003454e-12
2.7038175e-12
2.7147042e-12
2.7392631e-12
2.8627666e-12
2.8370131e-12
2.8253167e-12
2.8213338e-12
2.8221753e-12
2.822369e-12
2.8214555e-12
2.8211049e-12
2.821089e-12
2.8213275e-12
2.8213275e-12
2.8210892e-12
2.8211051e-12
2.8214558e-12
2.8223694e-12
2.8221758e-12
2.8213344e-12
2.8253174e-12
2.8370138e-12
2.8627672e-12
2.9888449e-12
2.9626516e-12
2.9503711e-12
2.946001e-12
2.9472637e-12
2.9473038e-12
2.9459931e-12
2.9455479e-12
2.9454383e-12
2.9459309e-12
2.945931e-12
2.9454385e-12
2.9455481e-12
2.9459934e-12
2.9473042e-12
2.9472642e-12
2.9460016e-12
2.9503717e-12
2.9626522e-12
2.9888454e-12
3.1159596e-12
3.0902396e-12
3.077577e-12
3.0729754e-12
3.0747143e-12
3.0744453e-12
3.0726477e-12
3.0720923e-12
3.0717995e-12
3.0726397e-12
3.0726398e-12
3.0717996e-12
3.0720925e-12
3.072648e-12
3.0744456e-12
3.0747146e-12
3.0729759e-12
3.0775775e-12
3.09024e-12
3.1159599e-12
3.2424874e-12
3.2183536e-12
3.2055281e-12
3.2008343e-12
3.2030623e-12
3.2023734e-12
3.2000567e-12
3.1993796e-12
3.1988312e-12
3.2000869e-12
3.2000869e-12
3.1988312e-12
3.1993797e-12
3.2000569e-12
3.2023737e-12
3.2030626e-12
3.2008346e-12
3.2055285e-12
3.2183539e-12
3.2424876e-12
3.3666379e-12
3.3454102e-12
3.332734e-12
3.3280497e-12
3.3307607e-12
3.3295895e-12
3.3267866e-12
3.3259845e-12
3.3251873e-12
3.3268896e-12
3.3268897e-12
3.3251874e-12
3.3259846e-12
3.3267867e-12
3.3295897e-12
3.330761e-12
3.3280499e-12
3.3327343e-12
3.3454104e-12
3.3666379e-12
3.4863672e-12
3.4695266e-12
3.4574989e-12
3.4528811e-12
3.4561396e-12
3.454444e-12
3.4511783e-12
3.4502571e-12
3.4493307e-12
3.4514733e-12
3.4514733e-12
3.4493307e-12
3.4502572e-12
3.4511784e-12
3.4544441e-12
3.4561397e-12
3.4528812e-12
3.457499e-12
3.4695266e-12
3.4863671e-12
3.5990727e-12
3.5883121e-12
3.5777097e-12
3.5731651e-12
3.5771657e-12
3.5748823e-12
3.5711187e-12
3.5700946e-12
3.56925e-12
3.5717972e-12
3.5717972e-12
3.56925e-12
3.5700946e-12
3.5711187e-12
3.5748823e-12
3.5771657e-12
3.5731651e-12
3.5777097e-12
3.588312e-12
3.5990725e-12
3.7010256e-12
3.6984478e-12
3.6902638e-12
3.6859423e-12
3.6908203e-12
3.6879742e-12
3.6836938e-12
3.6825981e-12
3.6820832e-12
3.684982e-12
3.6849821e-12
3.6820832e-12
3.6825982e-12
3.6836938e-12
3.6879742e-12
3.6908203e-12
3.6859422e-12
3.6902637e-12
3.6984477e-12
3.7010254e-12
3.7867246e-12
3.7950991e-12
3.790423e-12
3.7867858e-12
3.7923668e-12
3.7892408e-12
3.7845496e-12
3.7834354e-12
3.7834795e-12
3.7866749e-12
3.786675e-12
3.7834795e-12
3.7834354e-12
3.7845496e-12
3.7892408e-12
3.7923668e-12
3.7867858e-12
3.790423e-12
3.795099e-12
3.7867247e-12
3.8484614e-12
3.8713228e-12
3.8714288e-12
3.8688919e-12
3.8749444e-12
3.8718692e-12
3.8669876e-12
3.8659187e-12
3.8666911e-12
3.8701395e-12
3.8701395e-12
3.8666912e-12
3.8659188e-12
3.8669876e-12
3.8718693e-12
3.8749445e-12
3.868892e-12
3.8714288e-12
3.8713229e-12
3.8484619e-12
3.876679e-12
3.9178185e-12
3.924467e-12
3.9233946e-12
3.9297538e-12
3.927152e-12
3.9222848e-12
3.9212987e-12
3.922878e-12
3.9265538e-12
3.9265538e-12
3.9228781e-12
3.9212988e-12
3.9222849e-12
3.9271521e-12
3.929754e-12
3.9233948e-12
3.9244672e-12
3.9178191e-12
3.87668e-12
3.8611793e-12
3.9245148e-12
3.9399183e-12
3.9404188e-12
3.9472879e-12
3.9455335e-12
3.9407567e-12
3.9398304e-12
3.9421991e-12
3.9460872e-12
3.9460872e-12
3.9421992e-12
3.9398306e-12
3.9407569e-12
3.9455338e-12
3.9472882e-12
3.9404192e-12
3.9399188e-12
3.9245158e-12
3.861181e-12
3.791864e-12
3.881792e-12
3.9079833e-12
3.9104059e-12
3.9181961e-12
3.9175813e-12
3.9128695e-12
3.9119235e-12
3.9149845e-12
3.9190607e-12
3.9190608e-12
3.9149847e-12
3.9119238e-12
3.9128698e-12
3.9175816e-12
3.9181965e-12
3.9104065e-12
3.9079842e-12
3.8817935e-12
3.7918663e-12
3.6556745e-12
3.7796225e-12
3.8195115e-12
3.824444e-12
3.8323356e-12
3.8327152e-12
3.8293674e-12
3.8283778e-12
3.8319726e-12
3.8361922e-12
3.8361923e-12
3.8319728e-12
3.8283781e-12
3.8293678e-12
3.8327155e-12
3.8323361e-12
3.8244447e-12
3.8195126e-12
3.7796243e-12
3.6556769e-12
0
3.6007998e-12
3.6568462e-12
3.665695e-12
3.67652e-12
3.6761763e-12
3.6736024e-12
3.6774322e-12
3.6813524e-12
3.6856631e-12
3.6856632e-12
3.6813526e-12
3.6774326e-12
3.6736027e-12
3.6761767e-12
3.6765205e-12
3.6656957e-12
3.6568473e-12
3.6008015e-12
0
0
0
0
0
0
0
0
3.4177151e-12
3.421811e-12
3.4262234e-12
3.4262236e-12
3.4218112e-12
3.4177155e-12
0
0
0
0
0
0
0
0
0
0
0
0
0
0
0
0
0
0
0
0
0
0
0
0
0
0
0
0
0
0
0
0
0
0
0
0
0
0
0
0
0
0
0
0
0
0
0
0
0
0
0
0
0
0
0
0
0
0
0
0
0
0
0
0
0
0
0
0
0
0
0
0
0
0
0
0
0
0
0
0
0
0
0
0
0
0
0
0
0
0
0
0
0
0
0
0
0
0
0
0
0
0
0
0
0
0
0
0
0
0
0
0
0
0
0
0
0
0
0
0
0
0
0
0
0
0
0
0
0
0
0
0
0
0
0
0
0
0
0
0
0
0
0
0
0
0
0
)
;

boundaryField
{
    Wall
    {
        type            zeroGradient;
    }
    frontAndBack
    {
        type            empty;
    }
    atmosphere
    {
        type            zeroGradient;
    }
}


// ************************************************************************* //
