/*--------------------------------*- C++ -*----------------------------------*\
| =========                 |                                                 |
| \\      /  F ield         | OpenFOAM: The Open Source CFD Toolbox           |
|  \\    /   O peration     | Version:  3.0.1                                 |
|   \\  /    A nd           | Web:      www.OpenFOAM.org                      |
|    \\/     M anipulation  |                                                 |
\*---------------------------------------------------------------------------*/
FoamFile
{
    version     2.0;
    format      ascii;
    class       volScalarField;
    location    "33";
    object      node0;
}
// * * * * * * * * * * * * * * * * * * * * * * * * * * * * * * * * * * * * * //

dimensions      [0 0 0 0 0 0 0];

internalField   nonuniform List<scalar> 
800
(
0
0
0
0
0
0
0
0
0
0
0
0
0
0
0
0
0
0
0
0
0
0
0
0
0
0
0
0
0
0
0
0
0
0
0
0
0
0
0
0
0
0
0
0
0
0
0
0
0
0
0
0
0
0
0
0
0
0
0
0
0
0
0
0
0
0
0
0
0
0
0
0
0
0
0
0
0
0
0
0
0
0
0
0
0
0
0
0
0
0
0
0
0
0
0
0
0
0
0
0
0
0
0
0
0
0
0
0
0
0
0
0
0
0
0
0
0
0
0
0
0
0
0
0
0
0
0
0
0
0
0
0
0
0
0
0
0
0
0
0
0
0
0
0
0
0
0
0
0
0
0
0
0
0
0
0
0
0
0
0
0
0
0
0
0
0
0
0
0
0
0
0
0
0
0
0
0
0
0
0
0
0
0
0
0
0
0
0
0
0
0
0
0
0
0
0
0
0
0
0
0
0
0
0
0
0
0
0
0
0
0
0
0
0
0
0
0
0
0
0
0
0
0
0
0
0
0
0
0
0
0
0
0
0
0
0
0
0
0
0
3.4174319e-13
3.4273261e-13
3.2016576e-13
3.1957997e-13
3.3049719e-13
3.3596172e-13
3.3565918e-13
3.3545946e-13
3.3553664e-13
3.3551253e-13
3.3551247e-13
3.3553648e-13
3.3545923e-13
3.3565879e-13
3.3596127e-13
3.3049661e-13
3.1957925e-13
3.20165e-13
3.4273176e-13
3.4174203e-13
5.2316729e-13
5.4619597e-13
5.2736473e-13
5.2593758e-13
5.4110117e-13
5.4982903e-13
5.4766695e-13
5.4742579e-13
5.4770968e-13
5.4766997e-13
5.4766988e-13
5.4770941e-13
5.4742537e-13
5.4766633e-13
5.4982827e-13
5.4110026e-13
5.2593648e-13
5.2736361e-13
5.4619477e-13
5.2316583e-13
6.0949576e-13
6.5057499e-13
6.3829521e-13
6.3613835e-13
6.5458519e-13
6.6369569e-13
6.6043644e-13
6.6003296e-13
6.6053619e-13
6.6055485e-13
6.6055474e-13
6.6053586e-13
6.6003246e-13
6.6043569e-13
6.6369478e-13
6.5458413e-13
6.3613708e-13
6.3829393e-13
6.5057363e-13
6.0949412e-13
6.9426866e-13
7.3931027e-13
7.3222114e-13
7.2940179e-13
7.4821346e-13
7.5578886e-13
7.5264227e-13
7.5194289e-13
7.5257012e-13
7.528137e-13
7.5281358e-13
7.5256978e-13
7.5194236e-13
7.5264149e-13
7.5578791e-13
7.4821237e-13
7.294005e-13
7.3221985e-13
7.3930891e-13
6.94267e-13
8.1246765e-13
8.5153748e-13
8.4749722e-13
8.4429032e-13
8.60845e-13
8.663855e-13
8.6351789e-13
8.6240835e-13
8.6302467e-13
8.6370848e-13
8.6370836e-13
8.6302434e-13
8.6240783e-13
8.6351713e-13
8.6638458e-13
8.6084397e-13
8.442891e-13
8.4749601e-13
8.5153618e-13
8.1246602e-13
9.6199885e-13
9.9191899e-13
9.893245e-13
9.8622604e-13
9.9959209e-13
1.0030852e-12
1.0001349e-12
9.9850069e-13
9.9890631e-13
1.0002097e-12
1.0002096e-12
9.98906e-13
9.985002e-13
1.0001342e-12
1.0030844e-12
9.9959114e-13
9.8622492e-13
9.8932338e-13
9.9191778e-13
9.6199725e-13
1.132644e-12
1.1539757e-12
1.1517781e-12
1.1493191e-12
1.1598222e-12
1.1613542e-12
1.1579584e-12
1.1557024e-12
1.1556196e-12
1.1576097e-12
1.1576096e-12
1.1556194e-12
1.155702e-12
1.1579577e-12
1.1613534e-12
1.1598214e-12
1.1493181e-12
1.1517771e-12
1.1539746e-12
1.1326425e-12
1.3161061e-12
1.3306092e-12
1.328216e-12
1.3268066e-12
1.3351734e-12
1.3349463e-12
1.3309658e-12
1.3280509e-12
1.3272162e-12
1.3298204e-12
1.3298203e-12
1.327216e-12
1.3280505e-12
1.3309652e-12
1.3349456e-12
1.3351726e-12
1.3268056e-12
1.328215e-12
1.3306082e-12
1.3161046e-12
1.507066e-12
1.5165555e-12
1.5138312e-12
1.5136554e-12
1.5204933e-12
1.5188889e-12
1.514419e-12
1.510898e-12
1.5092247e-12
1.5122615e-12
1.5122614e-12
1.5092245e-12
1.5108977e-12
1.5144185e-12
1.5188883e-12
1.5204927e-12
1.5136546e-12
1.5138303e-12
1.5165544e-12
1.5070646e-12
1.70152e-12
1.7075377e-12
1.7047972e-12
1.7058383e-12
1.7116168e-12
1.7090421e-12
1.7042985e-12
1.7003197e-12
1.6979869e-12
1.7012336e-12
1.7012335e-12
1.6979867e-12
1.7003194e-12
1.7042981e-12
1.7090416e-12
1.7116162e-12
1.7058376e-12
1.7047964e-12
1.7075367e-12
1.7015187e-12
1.8945193e-12
1.8984839e-12
1.8963702e-12
1.8983412e-12
1.9035438e-12
1.9002882e-12
1.8953659e-12
1.8911643e-12
1.8885619e-12
1.8918309e-12
1.8918309e-12
1.8885618e-12
1.8911641e-12
1.8953656e-12
1.9002878e-12
1.9035434e-12
1.8983406e-12
1.8963696e-12
1.898483e-12
1.8945183e-12
2.0772946e-12
2.0813108e-12
2.0805203e-12
2.0826433e-12
2.0876185e-12
2.0837812e-12
2.078674e-12
2.0745629e-12
2.0721824e-12
2.0753769e-12
2.0753769e-12
2.0721823e-12
2.0745627e-12
2.0786737e-12
2.0837809e-12
2.0876182e-12
2.0826429e-12
2.0805198e-12
2.0813101e-12
2.0772938e-12
2.234677e-12
2.242557e-12
2.2433653e-12
2.244446e-12
2.2487169e-12
2.2444434e-12
2.2392656e-12
2.2356132e-12
2.2339916e-12
2.2371199e-12
2.2371199e-12
2.2339916e-12
2.2356132e-12
2.2392655e-12
2.2444432e-12
2.2487168e-12
2.2444457e-12
2.243365e-12
2.2425566e-12
2.2346766e-12
2.3450775e-12
2.362593e-12
2.3648744e-12
2.3632073e-12
2.3651754e-12
2.3606783e-12
2.3556353e-12
2.3527816e-12
2.3524411e-12
2.3555819e-12
2.3555819e-12
2.3524412e-12
2.3527817e-12
2.3556353e-12
2.3606783e-12
2.3651755e-12
2.3632073e-12
2.3648743e-12
2.362593e-12
2.3450778e-12
2.3851962e-12
2.4184904e-12
2.4224752e-12
2.4156925e-12
2.4132113e-12
2.4084186e-12
2.4034357e-12
2.4015311e-12
2.402777e-12
2.4060229e-12
2.4060229e-12
2.4027771e-12
2.4015313e-12
2.4034359e-12
2.4084188e-12
2.4132116e-12
2.4156928e-12
2.4224756e-12
2.418491e-12
2.3851973e-12
2.3383561e-12
2.3914189e-12
2.3980418e-12
2.3835246e-12
2.3748795e-12
2.3690534e-12
2.3634436e-12
2.3623063e-12
2.3650197e-12
2.3684509e-12
2.3684511e-12
2.36502e-12
2.3623067e-12
2.3634441e-12
2.3690539e-12
2.37488e-12
2.3835252e-12
2.3980425e-12
2.3914201e-12
2.338358e-12
2.2008316e-12
2.2741353e-12
2.2838634e-12
2.2601442e-12
2.2453624e-12
2.2362768e-12
2.2288353e-12
2.2279501e-12
2.2316695e-12
2.2353559e-12
2.235356e-12
2.2316698e-12
2.2279506e-12
2.2288359e-12
2.2362774e-12
2.2453632e-12
2.2601451e-12
2.2838645e-12
2.2741372e-12
2.2008342e-12
1.9822156e-12
2.0745088e-12
2.0853283e-12
2.0532595e-12
2.0302046e-12
2.017839e-12
2.0074306e-12
2.0061124e-12
2.0103229e-12
2.0143021e-12
2.0143023e-12
2.0103233e-12
2.0061131e-12
2.0074313e-12
2.0178398e-12
2.0302055e-12
2.0532606e-12
2.0853297e-12
2.074511e-12
1.9822184e-12
1.7016655e-12
1.8066675e-12
1.8198365e-12
1.7805039e-12
1.7445933e-12
1.7249478e-12
1.7167879e-12
1.7144727e-12
1.7187635e-12
1.7230133e-12
1.7230135e-12
1.718764e-12
1.7144734e-12
1.7167887e-12
1.7249486e-12
1.7445942e-12
1.780505e-12
1.8198378e-12
1.8066694e-12
1.7016678e-12
0
1.4952612e-12
1.4991361e-12
1.452441e-12
1.4118451e-12
1.3804777e-12
1.3677428e-12
1.3743267e-12
1.3782858e-12
1.3826998e-12
1.3827e-12
1.3782863e-12
1.3743274e-12
1.3677436e-12
1.3804785e-12
1.411846e-12
1.4524421e-12
1.4991372e-12
1.4952628e-12
0
0
0
0
0
0
0
0
9.9842034e-13
1.0014783e-12
1.0058305e-12
1.0058307e-12
1.0014788e-12
9.9842108e-13
0
0
0
0
0
0
0
0
0
0
0
0
0
0
0
0
0
0
0
0
0
0
0
0
0
0
0
0
0
0
0
0
0
0
0
0
0
0
0
0
0
0
0
0
0
0
0
0
0
0
0
0
0
0
0
0
0
0
0
0
0
0
0
0
0
0
0
0
0
0
0
0
0
0
0
0
0
0
0
0
0
0
0
0
0
0
0
0
0
0
0
0
0
0
0
0
0
0
0
0
0
0
0
0
0
0
0
0
0
0
0
0
0
0
0
0
0
0
0
0
0
0
0
0
0
0
0
0
0
0
0
0
0
0
0
0
0
0
0
0
0
0
0
0
0
0
0
)
;

boundaryField
{
    Wall
    {
        type            zeroGradient;
    }
    frontAndBack
    {
        type            empty;
    }
    atmosphere
    {
        type            zeroGradient;
    }
}


// ************************************************************************* //
