/*--------------------------------*- C++ -*----------------------------------*\
| =========                 |                                                 |
| \\      /  F ield         | OpenFOAM: The Open Source CFD Toolbox           |
|  \\    /   O peration     | Version:  3.0.1                                 |
|   \\  /    A nd           | Web:      www.OpenFOAM.org                      |
|    \\/     M anipulation  |                                                 |
\*---------------------------------------------------------------------------*/
FoamFile
{
    version     2.0;
    format      ascii;
    class       surfaceScalarField;
    location    "33";
    object      phi;
}
// * * * * * * * * * * * * * * * * * * * * * * * * * * * * * * * * * * * * * //

dimensions      [0 3 -1 0 0 0 0];

internalField   nonuniform List<scalar> 
1540
(
4.9714201e-10
1.4045452e-08
6.2754611e-10
1.4394105e-08
6.8013416e-10
1.4570466e-08
6.5386909e-10
1.4678603e-08
5.7689184e-10
1.4739292e-08
4.7428679e-10
1.4771358e-08
3.6010846e-10
1.4787139e-08
2.4121534e-10
1.4794224e-08
1.2073299e-10
1.4797042e-08
-1.2117893e-13
1.4797922e-08
-1.2097299e-10
1.4797918e-08
-2.4144893e-10
1.4797031e-08
-3.60332e-10
1.4794205e-08
-4.7449598e-10
1.4787113e-08
-5.7708321e-10
1.4771326e-08
-6.5403727e-10
1.4739255e-08
-6.8027277e-10
1.467856e-08
-6.2764937e-10
1.4570416e-08
-4.9720827e-10
1.4394047e-08
1.4045391e-08
3.8762598e-10
2.4371347e-08
5.5171629e-10
2.4722111e-08
6.3198005e-10
2.5015994e-08
6.2492423e-10
2.5194471e-08
5.6076657e-10
2.5296025e-08
4.6635557e-10
2.5350084e-08
3.5688485e-10
2.5376694e-08
2.4028537e-10
2.5388577e-08
1.206312e-10
2.5393246e-08
-1.1454613e-13
2.5394735e-08
-1.2085791e-10
2.5394731e-08
-2.4050592e-10
2.5393232e-08
-3.5709485e-10
2.5388553e-08
-4.665511e-10
2.5376661e-08
-5.6094354e-10
2.5350042e-08
-6.2507757e-10
2.5295975e-08
-6.3210406e-10
2.5194411e-08
-5.5180591e-10
2.5015921e-08
-3.876821e-10
2.4722025e-08
2.4371252e-08
4.0278224e-10
3.664395e-08
5.4122393e-10
3.7203871e-08
6.1120686e-10
3.7610165e-08
6.038983e-10
3.7864864e-08
5.4399265e-10
3.8013847e-08
4.5459929e-10
3.809545e-08
3.4936405e-10
3.8137004e-08
2.3595578e-10
3.8156446e-08
1.1867679e-10
3.816461e-08
-1.0036011e-13
3.8167409e-08
-1.1887591e-10
3.8167402e-08
-2.3614909e-10
3.8164591e-08
-3.4954771e-10
3.8156414e-08
-4.5476945e-10
3.813696e-08
-5.4414577e-10
3.8095394e-08
-6.0402963e-10
3.8013778e-08
-6.113115e-10
3.786478e-08
-5.4129787e-10
3.7610066e-08
-4.0282704e-10
3.7203755e-08
3.6643822e-08
4.1742297e-10
4.9451509e-08
5.4678723e-10
5.0203364e-08
6.0661392e-10
5.0726223e-08
5.942558e-10
5.1057996e-08
5.3354424e-10
5.1254984e-08
4.4558633e-10
5.136383e-08
3.4261523e-10
5.1420324e-08
2.3158446e-10
5.1447683e-08
1.1655679e-10
5.1459727e-08
-8.3804552e-14
5.1464077e-08
-1.167226e-10
5.1464069e-08
-2.3174541e-10
5.1459704e-08
-3.4276791e-10
5.1447644e-08
-4.4572666e-10
5.142027e-08
-5.3366937e-10
5.136376e-08
-5.9436186e-10
5.1254909e-08
-6.0669753e-10
5.1057905e-08
-5.4684507e-10
5.0726113e-08
-4.1745688e-10
5.0203237e-08
4.9451371e-08
4.1014157e-10
6.2328081e-08
5.5400453e-10
6.3270196e-08
6.0947948e-10
6.3901638e-08
5.9238851e-10
6.430019e-08
5.2791462e-10
6.4537416e-08
4.3945161e-10
6.4672407e-08
3.3755375e-10
6.4744763e-08
2.2808797e-10
6.4780984e-08
1.1479916e-10
6.4797666e-08
-6.6852402e-14
6.4803989e-08
-1.1493158e-10
6.4803981e-08
-2.2821634e-10
6.4797643e-08
-3.3767458e-10
6.4780946e-08
-4.3956219e-10
6.4744709e-08
-5.2800132e-10
6.4672337e-08
-5.9246927e-10
6.4537318e-08
-6.095419e-10
6.4300071e-08
-5.5404676e-10
6.3901499e-08
-4.1016424e-10
6.3270038e-08
6.232791e-08
4.1223292e-10
7.5445956e-08
5.5678345e-10
7.6565867e-08
6.1040723e-10
7.7314367e-08
5.9067305e-10
7.7784128e-08
5.2619765e-10
7.8063315e-08
4.3746361e-10
7.8220592e-08
3.3555817e-10
7.8304322e-08
2.2656437e-10
7.8346158e-08
1.1399499e-10
7.8365392e-08
-4.9517065e-14
7.8372673e-08
-1.1409328e-10
7.8372663e-08
-2.2665918e-10
7.8365363e-08
-3.3564757e-10
7.8346109e-08
-4.3754484e-10
7.8304254e-08
-5.2626873e-10
7.8220504e-08
-5.9073156e-10
7.8063205e-08
-6.1045202e-10
7.7783996e-08
-5.5681215e-10
7.7314214e-08
-4.1224732e-10
7.6565695e-08
7.5445773e-08
4.17166e-10
8.8696879e-08
5.6159891e-10
9.0002011e-08
6.133424e-10
9.0868321e-08
5.9130641e-10
9.1409546e-08
5.2528774e-10
9.1730289e-08
4.3585114e-10
9.1910784e-08
3.3386064e-10
9.2006981e-08
2.2522108e-10
9.2055251e-08
1.1327149e-10
9.2077612e-08
-3.5163074e-14
9.2086149e-08
-1.1334112e-10
9.2086138e-08
-2.2528802e-10
9.207758e-08
-3.339234e-10
9.2055198e-08
-4.3590792e-10
9.2006907e-08
-5.2533646e-10
9.1910689e-08
-5.9134549e-10
9.1730171e-08
-6.1337111e-10
9.1409406e-08
-5.6161622e-10
9.086816e-08
-4.1717352e-10
9.0001832e-08
8.869669e-08
4.2242591e-10
1.0205142e-07
5.6771276e-10
1.0354358e-07
6.1828211e-10
1.0452918e-07
5.9420693e-10
1.0514248e-07
5.265618e-10
1.0550476e-07
4.3612421e-10
1.0570812e-07
3.3364713e-10
1.0581643e-07
2.2489279e-10
1.0587085e-07
1.130598e-10
1.0589616e-07
-2.2125612e-14
1.0590587e-07
-1.1310319e-10
1.0590586e-07
-2.2493434e-10
1.0589613e-07
-3.3368592e-10
1.058708e-07
-4.3615817e-10
1.0581635e-07
-5.2659006e-10
1.0570802e-07
-5.9422855e-10
1.0550464e-07
-6.1829667e-10
1.0514234e-07
-5.6772001e-10
1.0452901e-07
-4.2242755e-10
1.0354339e-07
1.0205122e-07
4.2831845e-10
1.1548003e-07
5.7503498e-10
1.1716056e-07
6.2511905e-10
1.182672e-07
5.9928054e-10
1.1895346e-07
5.2999706e-10
1.193575e-07
4.3833737e-10
1.1958365e-07
3.349926e-10
1.1970388e-07
2.2564438e-10
1.197643e-07
1.1339783e-10
1.1979244e-07
-9.8526624e-15
1.1980326e-07
-1.1341659e-10
1.1980325e-07
-2.2566186e-10
1.197924e-07
-3.3500855e-10
1.1976424e-07
-4.3835018e-10
1.197038e-07
-5.3000653e-10
1.1958355e-07
-5.9928592e-10
1.1935738e-07
-6.2512105e-10
1.1895331e-07
-5.7503357e-10
1.1826703e-07
-4.2831564e-10
1.1716037e-07
1.1547984e-07
4.3597057e-10
1.2888863e-07
5.8452375e-10
1.307594e-07
6.3448368e-10
1.3199375e-07
6.0686397e-10
1.3275683e-07
5.3573855e-10
1.3320478e-07
4.4255461e-10
1.3345524e-07
3.3792704e-10
1.3358854e-07
2.2749094e-10
1.3365575e-07
1.1429254e-10
1.3368725e-07
2.5326744e-15
1.3369945e-07
-1.1428744e-10
1.3369944e-07
-2.2748512e-10
1.3368721e-07
-3.379208e-10
1.3365569e-07
-4.4254739e-10
1.3358845e-07
-5.3573014e-10
1.3345513e-07
-6.0685498e-10
1.3320464e-07
-6.3447436e-10
1.3275667e-07
-5.8451537e-10
1.3199357e-07
-4.3596425e-10
1.3075921e-07
1.2888842e-07
4.4203329e-10
1.4241276e-07
6.0144241e-10
1.444845e-07
6.4972324e-10
1.4583913e-07
6.1902184e-10
1.4667364e-07
5.4538865e-10
1.4716168e-07
4.5003446e-10
1.4743317e-07
3.4337333e-10
1.4757682e-07
2.3103826e-10
1.4764875e-07
1.1604602e-10
1.476822e-07
1.3422637e-14
1.4769507e-07
-1.160189e-10
1.4769506e-07
-2.3101143e-10
1.4768217e-07
-3.4334694e-10
1.476487e-07
-4.5000954e-10
1.4757674e-07
-5.4536515e-10
1.4743307e-07
-6.1900077e-10
1.4716155e-07
-6.4970519e-10
1.4667349e-07
-6.014291e-10
1.4583896e-07
-4.4202571e-10
1.4448432e-07
1.4241257e-07
4.5680497e-10
1.5608147e-07
6.1776739e-10
1.5835185e-07
6.6515993e-10
1.5983131e-07
6.3188066e-10
1.6074027e-07
5.5572533e-10
1.6127088e-07
4.5813912e-10
1.6156511e-07
3.4928247e-10
1.6172014e-07
2.3487899e-10
1.6179746e-07
1.1794443e-10
1.6183332e-07
2.5305586e-14
1.6184707e-07
-1.1789427e-10
1.6184706e-07
-2.3482988e-10
1.6183329e-07
-3.492355e-10
1.617974e-07
-4.5809559e-10
1.6172007e-07
-5.5568544e-10
1.6156501e-07
-6.3184619e-10
1.6127076e-07
-6.6513302e-10
1.6074013e-07
-6.1774895e-10
1.5983115e-07
-4.5679501e-10
1.5835168e-07
1.5608129e-07
4.762422e-10
1.6994043e-07
6.3752853e-10
1.7240741e-07
6.8355675e-10
1.7401292e-07
6.4786784e-10
1.7499561e-07
5.6853053e-10
1.7556698e-07
4.6793894e-10
1.758828e-07
3.5631444e-10
1.7604821e-07
2.3942759e-10
1.7613047e-07
1.2017458e-10
1.7616857e-07
3.7254565e-14
1.7618307e-07
-1.2010094e-10
1.7618306e-07
-2.3935638e-10
1.7616854e-07
-3.5624637e-10
1.7613042e-07
-4.6787616e-10
1.7604814e-07
-5.6847427e-10
1.7588271e-07
-6.4782046e-10
1.7556686e-07
-6.835197e-10
1.7499548e-07
-6.3750385e-10
1.7401277e-07
-4.7622981e-10
1.7240725e-07
1.6994026e-07
5.0183543e-10
1.8400933e-07
6.6131125e-10
1.8667722e-07
7.0447246e-10
1.8840789e-07
6.6574433e-10
1.8946267e-07
5.8302521e-10
1.9007355e-07
4.785159e-10
1.9040943e-07
3.6398947e-10
1.9058472e-07
2.4441348e-10
1.906715e-07
1.2256161e-10
1.907116e-07
4.9221881e-14
1.9072668e-07
-1.2246422e-10
1.9072667e-07
-2.4431915e-10
1.9071157e-07
-3.6390007e-10
1.9067145e-07
-4.7843361e-10
1.9058465e-07
-5.8295258e-10
1.9040934e-07
-6.6568332e-10
1.9007344e-07
-7.0442496e-10
1.8946255e-07
-6.6127968e-10
1.8840775e-07
-5.0181962e-10
1.8667707e-07
1.8400917e-07
5.3105309e-10
1.982316e-07
6.8820149e-10
2.0109847e-07
7.267019e-10
2.0295931e-07
6.8465572e-10
2.0408804e-07
5.978007e-10
2.04739e-07
4.8939973e-10
2.0509634e-07
3.7176414e-10
2.0528325e-07
2.4950144e-10
2.0537606e-07
1.2488576e-10
2.054194e-07
6.1544534e-14
2.0543564e-07
-1.2476466e-10
2.0543563e-07
-2.4938403e-10
2.0541938e-07
-3.7165327e-10
2.0537601e-07
-4.892979e-10
2.0528319e-07
-5.977107e-10
2.0509626e-07
-6.8458016e-10
2.047389e-07
-7.2664328e-10
2.0408792e-07
-6.8816194e-10
2.0295919e-07
-5.3103256e-10
2.0109833e-07
1.9823144e-07
5.5674465e-10
2.1293955e-07
7.2248778e-10
2.1601297e-07
7.5269797e-10
2.1798769e-07
7.0600558e-10
2.1917722e-07
6.1472687e-10
2.1985708e-07
5.023974e-10
2.2022669e-07
3.8107942e-10
2.2041772e-07
2.5580342e-10
2.2051091e-07
1.2765521e-10
2.2055388e-07
7.2342379e-14
2.2056958e-07
-1.2751156e-10
2.2056957e-07
-2.5566475e-10
2.2055386e-07
-3.8094839e-10
2.2051087e-07
-5.0227713e-10
2.2041767e-07
-6.1462067e-10
2.2022662e-07
-7.0591635e-10
2.19857e-07
-7.526281e-10
2.1917713e-07
-7.2243888e-10
2.1798759e-07
-5.5671925e-10
2.1601286e-07
2.1293943e-07
5.8666373e-10
2.2795666e-07
7.4907375e-10
2.3123295e-07
7.7091204e-10
2.3333583e-07
7.1975362e-10
2.3459414e-07
6.2528141e-10
2.3530941e-07
5.1018097e-10
2.3569743e-07
3.8627911e-10
2.3589782e-07
2.5957156e-10
2.3599588e-07
1.2911373e-10
2.3604212e-07
8.460177e-14
2.3605902e-07
-1.2894601e-10
2.3605901e-07
-2.5940997e-10
2.3604209e-07
-3.8612634e-10
2.3599583e-07
-5.1004164e-10
2.3589776e-07
-6.2515761e-10
2.3569735e-07
-7.1964926e-10
2.3530932e-07
-7.7083001e-10
2.3459404e-07
-7.4901612e-10
2.3333573e-07
-5.8663254e-10
2.3123283e-07
2.2795653e-07
6.1167772e-10
2.4358041e-07
7.83996e-10
2.4706962e-07
7.9165451e-10
2.4927577e-07
7.3432311e-10
2.5058322e-07
6.3652519e-10
2.5131661e-07
5.1816197e-10
2.5170713e-07
3.9175456e-10
2.5190378e-07
2.6425516e-10
2.5199684e-07
1.3095722e-10
2.5203931e-07
9.3093444e-14
2.5205427e-07
-1.3077258e-10
2.5205427e-07
-2.640771e-10
2.520393e-07
-3.9158592e-10
2.5199682e-07
-5.1800668e-10
2.5190376e-07
-6.3638743e-10
2.5170709e-07
-7.3420639e-10
2.5131657e-07
-7.9156181e-10
2.5058318e-07
-7.8393092e-10
2.4927572e-07
-6.1164418e-10
2.4706957e-07
2.4358035e-07
6.4208836e-10
2.5991068e-07
8.0585598e-10
2.6360375e-07
7.9914569e-10
2.6591501e-07
7.3538724e-10
2.672704e-07
6.3407292e-10
2.6802106e-07
5.1386285e-10
2.6841396e-07
3.8779093e-10
2.6860761e-07
2.6278935e-10
2.6869654e-07
1.3007759e-10
2.6873576e-07
1.0531322e-13
2.6874909e-07
-1.2986856e-10
2.6874909e-07
-2.6258754e-10
2.6873575e-07
-3.8760062e-10
2.6869653e-07
-5.1368769e-10
2.686076e-07
-6.3391787e-10
2.6841395e-07
-7.3525643e-10
2.6802105e-07
-7.9904334e-10
2.6727039e-07
-8.0578471e-10
2.65915e-07
-6.4205169e-10
2.6360374e-07
2.5991067e-07
6.7004867e-10
2.7698826e-07
8.2076713e-10
2.8088196e-07
7.9687714e-10
2.8328792e-07
7.2548692e-10
2.8468071e-07
6.1970866e-10
2.8543962e-07
4.9887354e-10
2.8582873e-07
3.7557405e-10
2.8601515e-07
2.5577697e-10
2.8609688e-07
1.2680634e-10
2.8613051e-07
1.1815134e-13
2.861411e-07
-1.2657248e-10
2.861411e-07
-2.5555123e-10
2.8613052e-07
-3.7536085e-10
2.8609689e-07
-4.9867771e-10
2.8601516e-07
-6.1953516e-10
2.8582874e-07
-7.2534154e-10
2.8543964e-07
-7.9676403e-10
2.8468073e-07
-8.2069027e-10
2.8328794e-07
-6.7001027e-10
2.8088199e-07
2.7698829e-07
6.9247636e-10
2.9494056e-07
8.24087e-10
2.9903052e-07
7.8020363e-10
3.0151866e-07
6.9980329e-10
3.0293615e-07
5.8981692e-10
3.0369244e-07
4.7032714e-10
3.0407037e-07
3.5264993e-10
3.0424491e-07
2.4116722e-10
3.0431593e-07
1.2013476e-10
3.0434171e-07
1.3106434e-13
3.0434839e-07
-1.1987535e-10
3.043484e-07
-2.4091654e-10
3.0434172e-07
-3.5241233e-10
3.0431595e-07
-4.7010895e-10
3.0424494e-07
-5.8962435e-10
3.0407041e-07
-6.9964255e-10
3.0369249e-07
-7.8007917e-10
3.0293621e-07
-8.2400396e-10
3.0151873e-07
-6.9243548e-10
2.990306e-07
2.9494063e-07
7.0583264e-10
3.139051e-07
8.1024885e-10
3.181854e-07
7.4304741e-10
3.2074177e-07
6.5248289e-10
3.2216984e-07
5.4038506e-10
3.2291155e-07
4.2555e-10
3.2326905e-07
3.1662616e-10
3.2342514e-07
2.1727534e-10
3.2348115e-07
1.0910738e-10
3.234969e-07
1.4453417e-13
3.2349859e-07
-1.0882086e-10
3.234986e-07
-2.1699795e-10
3.2349692e-07
-3.1636282e-10
3.2348119e-07
-4.2530771e-10
3.234252e-07
-5.401715e-10
3.2326913e-07
-6.523032e-10
3.2291163e-07
-7.4290948e-10
3.2216995e-07
-8.1015737e-10
3.2074189e-07
-7.0578901e-10
3.1818553e-07
3.1390522e-07
7.0461003e-10
3.3402284e-07
7.7212615e-10
3.3848884e-07
6.7774392e-10
3.4110056e-07
5.7690158e-10
3.4252335e-07
4.6608629e-10
3.4323892e-07
3.6059221e-10
3.4356379e-07
2.6482424e-10
3.4369243e-07
1.8281916e-10
3.4372796e-07
9.2935448e-11
3.4373146e-07
1.5819142e-13
3.4372699e-07
-9.2619992e-11
3.43727e-07
-1.8251552e-10
3.4373149e-07
-2.6453158e-10
3.4372801e-07
-3.6032425e-10
3.4369251e-07
-4.6584766e-10
3.4356389e-07
-5.7670019e-10
3.4323904e-07
-6.7758987e-10
3.425235e-07
-7.7202539e-10
3.4110074e-07
-7.0456372e-10
3.3848902e-07
3.3402302e-07
6.8008529e-10
3.5542459e-07
7.0054213e-10
3.6007739e-07
5.7342148e-10
3.6273703e-07
4.6593314e-10
3.6414135e-07
3.5896877e-10
3.6481863e-07
2.6951409e-10
3.6509744e-07
1.9435623e-10
3.6518884e-07
1.3659984e-10
3.651988e-07
7.099415e-11
3.6518731e-07
1.7130507e-13
3.6517584e-07
-7.0661906e-11
3.6517586e-07
-1.3627965e-10
3.6518736e-07
-1.9404911e-10
3.6519886e-07
-2.6921763e-10
3.6518893e-07
-3.5870044e-10
3.6509758e-07
-4.6570296e-10
3.648188e-07
-5.7324724e-10
3.6414156e-07
-7.0043088e-10
3.6273727e-07
-6.8003915e-10
3.6007763e-07
3.5542481e-07
6.2210734e-10
3.7820388e-07
5.8387771e-10
3.8306296e-07
4.1796671e-10
3.8577593e-07
3.0918681e-10
3.8715866e-07
2.1053422e-10
3.8778333e-07
1.4528177e-10
3.8800718e-07
1.006282e-10
3.8805254e-07
7.6538611e-11
3.8803246e-07
4.2180811e-11
3.8800331e-07
1.8810361e-13
3.8798443e-07
-4.1801869e-11
3.8798444e-07
-7.614866e-11
3.8800335e-07
-1.0026884e-10
3.8803255e-07
-1.4495212e-10
3.8805267e-07
-2.1023805e-10
3.8800735e-07
-3.089295e-10
3.8778354e-07
-4.1777252e-10
3.8715893e-07
-5.8375629e-10
3.8577624e-07
-6.220656e-10
3.8306329e-07
3.7820415e-07
5.2151405e-10
4.0236107e-07
4.0756501e-10
4.0749129e-07
2.0006399e-10
4.1029011e-07
9.148154e-11
4.1166175e-07
1.3795582e-11
4.1222311e-07
-1.4454461e-11
4.1238469e-07
-1.7191351e-11
4.1237976e-07
3.4624459e-12
4.1232562e-07
7.0751116e-12
4.1227825e-07
2.0128899e-13
4.1225225e-07
-6.674207e-12
4.1225227e-07
-3.0797592e-12
4.1227831e-07
1.7571881e-11
4.1232571e-07
1.4818014e-11
4.123799e-07
-1.346037e-11
4.1238488e-07
-9.1205895e-11
4.1222337e-07
-1.9983254e-10
4.1166207e-07
-4.0741536e-10
4.102905e-07
-5.2145698e-10
4.0749173e-07
4.0236142e-07
3.7301385e-10
4.2769672e-07
1.5529047e-10
4.332489e-07
-9.7388935e-11
4.3622628e-07
-1.9045006e-10
4.3761236e-07
-2.3406901e-10
4.3812351e-07
-2.1018681e-10
4.3822654e-07
-1.5804628e-10
4.3817178e-07
-8.2471341e-11
4.3808294e-07
-3.4062199e-11
4.3801892e-07
2.1432335e-13
4.3798698e-07
3.4489679e-11
4.37987e-07
8.2892319e-11
4.3801898e-07
1.5846103e-10
4.3808304e-07
2.1058941e-10
4.3817194e-07
2.344515e-10
4.3822676e-07
1.908006e-10
4.381238e-07
9.7680789e-11
4.3761274e-07
-1.5506593e-10
4.3622675e-07
-3.7290983e-10
4.3324947e-07
4.2769721e-07
1.7036029e-10
4.5367294e-07
-1.8361554e-10
4.599573e-07
-4.8467045e-10
4.6329149e-07
-5.5181434e-10
4.6476069e-07
-5.3106746e-10
4.6526823e-07
-4.3506108e-10
4.6533823e-07
-3.165943e-10
4.6524637e-07
-1.7701205e-10
4.6512546e-07
-7.843736e-11
4.6504941e-07
2.320173e-13
4.6501496e-07
7.8904993e-11
4.6501498e-07
1.7748246e-10
4.6504947e-07
3.1706076e-10
4.6512558e-07
4.3551704e-10
4.6524653e-07
5.3151992e-10
4.6533845e-07
5.5224206e-10
4.6526856e-07
4.8504908e-10
4.6476113e-07
1.8390504e-10
4.6329206e-07
-1.7016835e-10
4.5995801e-07
4.5367367e-07
-4.7044742e-11
4.7924411e-07
-6.018554e-10
4.8687733e-07
-9.621664e-10
4.9082658e-07
-9.625816e-10
4.925298e-07
-8.5351905e-10
4.9312624e-07
-6.7873682e-10
4.9326538e-07
-4.8376718e-10
4.931594e-07
-2.7458229e-10
4.9301578e-07
-1.2406933e-10
4.929358e-07
2.4236605e-13
4.9290184e-07
1.245506e-10
4.9290186e-07
2.7506207e-10
4.9293587e-07
4.8425444e-10
4.9301589e-07
6.7923059e-10
4.9315957e-07
8.5401365e-10
4.9326561e-07
9.6305787e-10
4.9312659e-07
9.6261234e-10
4.9253027e-07
6.022339e-10
4.9082724e-07
4.7270145e-11
4.8687823e-07
4.7924512e-07
-2.6158925e-10
5.0383985e-07
-1.0526854e-09
5.1265509e-07
-1.4643786e-09
5.177669e-07
-1.3492801e-09
5.1997768e-07
-1.1177758e-09
5.2074104e-07
-9.0774546e-10
5.2104933e-07
-6.5909124e-10
5.2115977e-07
-3.6960318e-10
5.2098368e-07
-1.6620383e-10
5.2091851e-07
2.5170007e-13
5.2089071e-07
1.6670727e-10
5.2089073e-07
3.7010979e-10
5.2091858e-07
6.5960026e-10
5.209838e-07
9.0827336e-10
5.2115993e-07
1.1183169e-09
5.2104955e-07
1.3498347e-09
5.2074138e-07
1.4649218e-09
5.1997817e-07
1.0531791e-09
5.1776761e-07
2.6195483e-10
5.1265615e-07
5.038412e-07
-4.7604383e-10
5.388168e-07
-1.5104733e-09
5.4098548e-07
-1.8740534e-09
5.436062e-07
-1.6412369e-09
5.4606272e-07
-1.2276074e-09
5.4751733e-07
-9.5608875e-10
5.4794701e-07
-8.0668472e-10
5.4808846e-07
-4.440759e-10
5.4838468e-07
-1.9877762e-10
5.4833781e-07
2.6570536e-13
5.4830878e-07
1.993072e-10
5.4830881e-07
4.4460363e-10
5.4833788e-07
8.0722593e-10
5.4838479e-07
9.5662512e-10
5.4808863e-07
1.2281667e-09
5.4794721e-07
1.6418489e-09
5.4751762e-07
1.8747404e-09
5.4606313e-07
1.5111226e-09
5.4360676e-07
4.7659301e-10
5.4098617e-07
5.3881848e-07
-6.4944879e-09
5.3968701e-07
-3.8483251e-09
5.6896574e-07
-2.1844897e-09
5.7962502e-07
-1.4114331e-09
5.8335867e-07
-1.133866e-09
5.8439429e-07
-8.5503953e-10
5.8455573e-07
-6.18974e-10
5.8436681e-07
-4.3006996e-10
5.8405603e-07
-2.0517775e-10
5.8383707e-07
2.7714392e-13
5.8375252e-07
2.0573825e-10
5.8375253e-07
4.3063185e-10
5.8383711e-07
6.1953057e-10
5.8405609e-07
8.5566956e-10
5.8436686e-07
1.1345011e-09
5.8455588e-07
1.4120664e-09
5.8439453e-07
2.1851098e-09
5.8335907e-07
3.8489825e-09
5.7962582e-07
6.4953606e-09
5.6896733e-07
5.3969138e-07
1.4773054e-08
5.1078724e-07
3.7085372e-09
5.6224006e-07
2.2798359e-10
5.7171571e-07
-3.9954729e-10
5.7647242e-07
-5.0284681e-10
5.7934214e-07
-3.7716817e-10
5.8042818e-07
-3.4563327e-10
5.8092496e-07
-2.6570331e-10
5.8076654e-07
-1.5215726e-10
5.8070512e-07
2.9092236e-13
5.8069314e-07
1.5274478e-10
5.8069319e-07
2.6637996e-10
5.8070519e-07
3.4618192e-10
5.8076694e-07
3.7779359e-10
5.8092528e-07
5.0346254e-10
5.8042876e-07
4.0013743e-10
5.7934296e-07
-2.274322e-10
5.7647339e-07
-3.7079082e-09
5.717171e-07
-1.4772074e-08
5.622417e-07
5.10792e-07
6.9669911e-08
4.3969405e-07
5.5491342e-08
5.697488e-07
2.8356729e-08
5.8385843e-07
1.4274271e-08
5.8853509e-07
8.0908733e-09
5.8822964e-07
5.327324e-09
5.8898208e-07
2.7727124e-09
5.8728269e-07
1.5531385e-09
5.8669886e-07
6.8704111e-10
5.8646514e-07
2.2527697e-13
5.863212e-07
-6.8660441e-10
5.863213e-07
-1.5528331e-09
5.8646543e-07
-2.7721241e-09
5.8669924e-07
-5.3269256e-09
5.8728267e-07
-8.0903781e-09
5.8898203e-07
-1.42741e-08
5.8822924e-07
-2.8356341e-08
5.8853532e-07
-5.5490595e-08
5.8385927e-07
-6.966947e-08
5.6975039e-07
4.3969904e-07
8.7555242e-08
3.5212572e-07
1.1481085e-07
5.4224241e-07
1.033607e-07
5.9273499e-07
7.2823976e-08
6.0240295e-07
5.3981439e-08
6.0532046e-07
3.6406395e-08
6.0246543e-07
2.4512714e-08
6.0052938e-07
1.4964699e-08
5.9708361e-07
7.0936247e-09
5.9463441e-07
-2.861737e-14
5.9335742e-07
-7.0936788e-09
5.9335754e-07
-1.4964737e-08
5.946347e-07
-2.4512737e-08
5.9708405e-07
-3.6406415e-08
6.0052985e-07
-5.3981679e-08
6.0246594e-07
-7.2823901e-08
6.0532115e-07
-1.0335954e-07
6.0240397e-07
-1.1481044e-07
5.927358e-07
-8.7555212e-08
5.4224437e-07
3.5213071e-07
7.3710625e-08
2.7841508e-07
1.1523968e-07
5.0071258e-07
1.222356e-07
5.8573374e-07
1.0455362e-07
6.1319198e-07
8.3309104e-08
6.2025841e-07
6.3023665e-08
6.1836346e-07
4.3229603e-08
6.130776e-07
2.7360085e-08
6.0854635e-07
1.3246924e-08
6.0444547e-07
-2.4769452e-13
6.0219478e-07
-1.3247422e-08
6.0219494e-07
-2.7360588e-08
6.0444587e-07
-4.3230121e-08
6.0854693e-07
-6.3024205e-08
6.1307808e-07
-8.3309564e-08
6.1836404e-07
-1.045534e-07
6.2025909e-07
-1.2223595e-07
6.1319225e-07
-1.1523964e-07
5.8573416e-07
-7.3710378e-08
5.0071436e-07
2.7842031e-07
5.3497386e-08
2.2491766e-07
9.5649299e-08
4.5856065e-07
1.1172836e-07
5.696547e-07
1.0547587e-07
6.165342e-07
9.0358408e-08
6.3300993e-07
7.2021292e-08
6.350744e-07
5.2515341e-08
6.3051948e-07
3.3639688e-08
6.2449109e-07
1.6564032e-08
6.1972848e-07
-3.8480741e-13
6.168139e-07
-1.6564801e-08
6.1681405e-07
-3.3640448e-08
6.1972884e-07
-5.2516169e-08
6.2449157e-07
-7.202214e-08
6.3051995e-07
-9.0359114e-08
6.3507494e-07
-1.0547625e-07
6.3301048e-07
-1.1172898e-07
6.1653436e-07
-9.5650149e-08
5.6965529e-07
-5.3498818e-08
4.5856299e-07
2.249215e-07
3.5683757e-08
1.892339e-07
7.1938972e-08
4.2230542e-07
9.0785941e-08
5.5012331e-07
9.1889807e-08
6.1311218e-07
8.3889387e-08
6.4111347e-07
6.9830091e-08
6.4889933e-07
5.2917652e-08
6.4678757e-07
3.5165656e-08
6.4130433e-07
1.7405171e-08
6.3600377e-07
-4.8455121e-13
6.3296702e-07
-1.7406137e-08
6.3296714e-07
-3.5166629e-08
6.3600409e-07
-5.291865e-08
6.4130476e-07
-6.9831133e-08
6.46788e-07
-8.3890235e-08
6.4889974e-07
-9.1890541e-08
6.4111399e-07
-9.0786796e-08
6.1311237e-07
-7.1939878e-08
5.5012395e-07
-3.5684376e-08
4.2230745e-07
1.8923711e-07
2.2845566e-08
1.6508993e-07
5.0302919e-08
3.9286565e-07
6.8198963e-08
5.3136715e-07
7.4553399e-08
6.0773329e-07
7.1244993e-08
6.447926e-07
6.157219e-08
6.5858961e-07
4.8118246e-08
6.5975235e-07
3.2733733e-08
6.5576422e-07
1.6553115e-08
6.5109893e-07
-5.3181383e-13
6.4815269e-07
-1.6554173e-08
6.4815279e-07
-3.2734806e-08
6.5109922e-07
-4.8119323e-08
6.5576464e-07
-6.1573343e-08
6.5975278e-07
-7.1246088e-08
6.5858999e-07
-7.4554284e-08
6.4479301e-07
-6.8199926e-08
6.0773342e-07
-5.0303929e-08
5.3136782e-07
-2.2846222e-08
3.9286735e-07
1.6509245e-07
1.5342514e-08
3.4947167e-08
5.0698084e-08
5.82505e-08
5.7974223e-08
5.1529936e-08
4.1310347e-08
2.8704899e-08
1.4709623e-08
-5.4617244e-13
-1.471069e-08
-2.8705962e-08
-4.1311454e-08
-5.1531104e-08
-5.7975405e-08
-5.8251589e-08
-5.0699059e-08
-3.4948288e-08
-1.5343183e-08
)
;

boundaryField
{
    Wall
    {
        type            calculated;
        value           uniform 0;
    }
    frontAndBack
    {
        type            empty;
        value           nonuniform 0();
    }
    atmosphere
    {
        type            calculated;
        value           nonuniform List<scalar> 
20
(
1.5341979e-07
3.7786012e-07
5.2069827e-07
6.0297116e-07
6.4541472e-07
6.6331211e-07
6.6762551e-07
6.6572623e-07
6.6219706e-07
6.5983403e-07
6.5983417e-07
6.6219734e-07
6.6572663e-07
6.6762593e-07
6.6331249e-07
6.4541517e-07
6.0297141e-07
5.2069859e-07
3.7786144e-07
1.5342169e-07
)
;
    }
}


// ************************************************************************* //
