/*--------------------------------*- C++ -*----------------------------------*\
| =========                 |                                                 |
| \\      /  F ield         | OpenFOAM: The Open Source CFD Toolbox           |
|  \\    /   O peration     | Version:  3.0.1                                 |
|   \\  /    A nd           | Web:      www.OpenFOAM.org                      |
|    \\/     M anipulation  |                                                 |
\*---------------------------------------------------------------------------*/
FoamFile
{
    version     2.0;
    format      ascii;
    class       volScalarField;
    location    "33";
    object      Psi2;
}
// * * * * * * * * * * * * * * * * * * * * * * * * * * * * * * * * * * * * * //

dimensions      [0 -2 2 0 0 0 0];

internalField   nonuniform List<scalar> 
800
(
0.00056917041
0.00056912477
0.0005691165
0.00056911568
0.00056911581
0.00056911595
0.00056911597
0.00056911593
0.0005691159
0.00056911587
0.00056911587
0.0005691159
0.00056911594
0.00056911597
0.00056911594
0.00056911581
0.00056911567
0.0005691165
0.00056912476
0.0005691704
0.00057238804
0.00057204664
0.00057195848
0.00057193695
0.00057193461
0.00057193681
0.00057193931
0.00057194109
0.00057194213
0.00057194261
0.00057194261
0.00057194214
0.00057194109
0.00057193931
0.00057193682
0.00057193462
0.00057193696
0.00057195849
0.00057204666
0.00057238807
0.00057662278
0.00057604414
0.00057584703
0.00057579448
0.00057578461
0.00057578637
0.00057579012
0.00057579312
0.00057579499
0.00057579586
0.00057579586
0.000575795
0.00057579313
0.00057579013
0.00057578639
0.00057578463
0.0005757945
0.00057584706
0.00057604418
0.00057662285
0.00058127255
0.0005804833
0.00058017772
0.00058009382
0.00058007564
0.0005800762
0.0005800806
0.00058008443
0.00058008689
0.00058008805
0.00058008805
0.0005800869
0.00058008444
0.00058008061
0.00058007623
0.00058007567
0.00058009385
0.00058017776
0.00058048336
0.00058127265
0.00058586491
0.0005849067
0.00058450401
0.00058439152
0.00058436687
0.00058436685
0.00058437201
0.0005843766
0.00058437959
0.00058438099
0.00058438099
0.0005843796
0.00058437662
0.00058437203
0.00058436688
0.00058436691
0.00058439156
0.00058450406
0.00058490677
0.00058586502
0.00059000618
0.00058893747
0.00058845498
0.00058831825
0.00058829045
0.00058829129
0.00058829779
0.00058830335
0.00058830693
0.00058830859
0.00058830859
0.00058830694
0.00058830337
0.00058829781
0.00058829132
0.00058829049
0.0005883183
0.00058845504
0.00058893755
0.00059000631
0.00059339409
0.00059227836
0.00059173916
0.0005915837
0.0005915567
0.00059156031
0.000591569
0.00059157593
0.00059158028
0.00059158225
0.00059158225
0.00059158029
0.00059157595
0.00059156902
0.00059156035
0.00059155674
0.00059158375
0.00059173922
0.00059227844
0.00059339421
0.00059583669
0.00059472762
0.00059415968
0.00059399184
0.00059396964
0.00059397807
0.00059398993
0.00059399874
0.0005940041
0.0005940065
0.00059400651
0.00059400411
0.00059399876
0.00059398996
0.0005939781
0.00059396968
0.00059399189
0.00059415974
0.0005947277
0.0005958368
0.00059726392
0.00059619887
0.00059563321
0.00059545938
0.00059544493
0.00059546002
0.00059547607
0.00059548732
0.00059549399
0.00059549695
0.00059549696
0.000595494
0.00059548734
0.00059547609
0.00059546005
0.00059544497
0.00059545942
0.00059563326
0.00059619894
0.00059726402
0.00059769405
0.00059668313
0.0005961506
0.0005959767
0.000595971
0.00059599378
0.00059601497
0.00059602925
0.00059603753
0.0005960412
0.0005960412
0.00059603753
0.00059602927
0.00059601499
0.0005959938
0.00059597103
0.00059597674
0.00059615065
0.00059668318
0.00059769413
0.00059723927
0.00059626316
0.00059578993
0.00059562065
0.00059562218
0.00059565222
0.00059567944
0.00059569728
0.00059570746
0.00059571199
0.00059571199
0.00059570747
0.0005956973
0.00059567945
0.00059565224
0.0005956222
0.00059562068
0.00059578996
0.0005962632
0.00059723933
0.00059605194
0.00059506497
0.00059466865
0.00059450728
0.00059451217
0.0005945473
0.00059458138
0.00059460334
0.00059461566
0.0005946212
0.0005946212
0.00059461567
0.00059460335
0.0005945814
0.00059454731
0.00059451219
0.0005945073
0.00059466867
0.00059506499
0.00059605198
0.00059387495
0.00059280954
0.00059251975
0.00059237036
0.00059235922
0.00059238921
0.0005924319
0.00059245913
0.00059247381
0.0005924807
0.0005924807
0.00059247382
0.00059245914
0.00059243192
0.00059238923
0.00059235923
0.00059237038
0.00059251976
0.00059280956
0.00059387497
0.00059136922
0.00059009826
0.0005898824
0.00058974631
0.00058971011
0.00058972697
0.0005897836
0.00058981708
0.00058983394
0.00058984252
0.00058984252
0.00058983395
0.00058981709
0.00058978361
0.00058972698
0.00058971012
0.00058974632
0.00058988241
0.00059009826
0.00059136923
0.00058876281
0.00058713622
0.00058693605
0.00058681279
0.00058673642
0.0005867381
0.00058680928
0.00058685063
0.00058686975
0.00058687988
0.00058687988
0.00058686976
0.00058685064
0.00058680929
0.00058673811
0.00058673643
0.00058681279
0.00058693605
0.00058713622
0.00058876282
0.00058614966
0.00058403281
0.00058377143
0.00058365431
0.00058352874
0.00058351533
0.00058360207
0.00058365387
0.00058367606
0.00058368555
0.00058368555
0.00058367607
0.00058365388
0.00058360208
0.00058351533
0.00058352875
0.00058365431
0.00058377143
0.00058403281
0.00058614967
0.00058370559
0.00058093644
0.00058051652
0.000580385
0.00058020194
0.00058017554
0.0005802854
0.00058035102
0.00058037779
0.00058038075
0.00058038075
0.0005803778
0.00058035103
0.00058028541
0.00058017555
0.00058020195
0.00058038501
0.00058051653
0.00058093644
0.0005837056
0.00058173078
0.00057809232
0.00057739678
0.00057721145
0.00057695447
0.00057692273
0.00057706996
0.00057715295
0.00057718766
0.0005771742
0.0005771742
0.00057718768
0.00057715297
0.00057706998
0.00057692275
0.00057695449
0.00057721146
0.00057739679
0.00057809232
0.0005817308
0.00058058506
0.00057580804
0.0005747017
0.00057440381
0.00057404729
0.00057402447
0.00057422603
0.00057432965
0.00057437917
0.00057433677
0.00057433677
0.00057437919
0.00057432968
0.00057422606
0.00057402449
0.00057404731
0.00057440383
0.00057470172
0.00057580805
0.00058058509
0.00058066034
0.00057442415
0.00057275133
0.00057226507
0.00057177841
0.0005717808
0.00057205088
0.00057217792
0.00057225212
0.00057216816
0.00057216817
0.00057225213
0.00057217795
0.00057205091
0.00057178083
0.00057177843
0.00057226509
0.00057275136
0.00057442418
0.00058066038
0.00058240463
0.00057432105
0.00057189562
0.00057113153
0.00057048164
0.00057051953
0.00057086494
0.00057101778
0.00057112469
0.000570989
0.00057098901
0.00057112471
0.00057101782
0.00057086498
0.00057051956
0.00057048167
0.00057113156
0.00057189565
0.00057432108
0.00058240468
0.00058637019
0.00057595608
0.00057254285
0.00057139638
0.00057054142
0.00057061599
0.00057103479
0.00057121568
0.00057135414
0.00057116064
0.00057116065
0.00057135417
0.00057121573
0.00057103484
0.00057061603
0.00057054146
0.00057139642
0.00057254289
0.00057595612
0.00058637023
0.00059327946
0.00057991862
0.00057520459
0.00057354921
0.00057242277
0.00057252625
0.00057301519
0.00057322684
0.00057338145
0.00057312868
0.00057312869
0.00057338148
0.00057322688
0.00057301524
0.0005725263
0.00057242281
0.00057354925
0.00057520463
0.00057991865
0.00059327949
0.00060414555
0.00058701145
0.00058056219
0.0005782346
0.000576729
0.00057684563
0.0005774057
0.0005776519
0.00057779375
0.00057748434
0.00057748435
0.00057779378
0.00057765195
0.00057740575
0.00057684568
0.00057672905
0.00057823464
0.00058056223
0.00058701146
0.00060414553
0.00062047746
0.00059838788
0.00058959106
0.00058633767
0.00058430826
0.00058439475
0.00058502338
0.00058530969
0.00058540233
0.00058504186
0.00058504187
0.00058540235
0.00058530974
0.00058502343
0.00058439479
0.00058430831
0.0005863377
0.00058959108
0.00059838784
0.00062047735
0.00064460206
0.00061577317
0.00060373915
0.00059913442
0.00059640157
0.00059635125
0.00059702719
0.00059736176
0.00059736958
0.00059696538
0.00059696539
0.0005973696
0.00059736181
0.00059702723
0.00059635129
0.0005964016
0.00059913443
0.00060373913
0.00061577304
0.00064460178
0.00068021948
0.00064186423
0.00062521477
0.00061860032
0.00061487597
0.00061451099
0.00061518597
0.00061558099
0.00061547708
0.00061503735
0.00061503736
0.0006154771
0.00061558103
0.000615186
0.00061451101
0.00061487598
0.00061860029
0.00062521467
0.00064186393
0.00068021892
0.00073343594
0.00068110969
0.00065756213
0.00064790201
0.00064269548
0.00064170892
0.00064231064
0.00064278533
0.00064255742
0.00064209119
0.0006420912
0.00064255743
0.00064278535
0.00064231065
0.00064170891
0.00064269545
0.00064790191
0.0006575619
0.00068110912
0.00073343489
0.00081474638
0.00074099996
0.00070663851
0.0006922997
0.0006846918
0.00068259977
0.00068303858
0.00068362465
0.00068327914
0.00068279742
0.00068279743
0.00068327914
0.00068362465
0.00068303856
0.00068259972
0.00068469169
0.00069229949
0.00070663808
0.00074099895
0.00081474449
0.00094312905
0.00083452261
0.00078256163
0.00076061134
0.00074895589
0.00074493146
0.00074508254
0.00074582896
0.00074539621
0.00074491591
0.00074491591
0.0007453962
0.00074582893
0.00074508247
0.00074493134
0.00074895569
0.00076061097
0.00078256089
0.0008345209
0.0009431258
0.0011550764
0.00098594397
0.00090323086
0.00086798309
0.00084981012
0.00084252236
0.00084154998
0.00084250055
0.00084203804
0.00084158675
0.00084158675
0.00084203799
0.00084250046
0.00084154983
0.00084252216
0.00084980979
0.00086798249
0.00090322968
0.00098594121
0.0011550707
0.0015295578
0.0012450599
0.0011050313
0.0010445774
0.0010133709
0.0010011593
0.00099831216
0.00099724753
0.0009968598
0.00099648618
0.00099648616
0.00099685971
0.00099724736
0.00099831189
0.001001159
0.0010133704
0.0010445765
0.0011050293
0.0012450551
0.0015295462
0.0021492459
0.0016944898
0.0014535498
0.0013465566
0.0012937048
0.001272825
0.0012673852
0.0012657885
0.0012656312
0.0012653735
0.0012653734
0.001265631
0.001265788
0.0012673846
0.0012728243
0.0012937036
0.0013465545
0.0014535457
0.0016944802
0.0021492218
0.0032752526
0.0023831072
0.0019722565
0.0017762566
0.001679425
0.0016394008
0.0016292413
0.0016298665
0.0016315155
0.0016322762
0.001632276
0.0016315151
0.0016298656
0.0016292402
0.0016393994
0.001679423
0.0017762529
0.0019722489
0.0023830907
0.0032752044
0.0053276599
0.0033905945
0.0026771096
0.0023403258
0.0021710522
0.0020972768
0.0020785369
0.0020829148
0.0020894224
0.0020933132
0.0020933128
0.0020894213
0.002082913
0.0020785352
0.002097275
0.0021710494
0.0023403201
0.0026770978
0.0033905683
0.0053275757
0.0080795971
0.0047755796
0.0035848768
0.0030362536
0.0027629212
0.0026426763
0.0026112709
0.0026224891
0.0026396133
0.0026506057
0.002650605
0.0026396115
0.0026224865
0.0026112684
0.0026426739
0.0027629175
0.0030362467
0.0035848629
0.0047755469
0.0080795013
0.010056896
0.0064324552
0.0046808341
0.0038563511
0.0034478343
0.0032674573
0.0032202932
0.0032389991
0.0032707777
0.0032923656
0.0032923645
0.0032707751
0.0032389956
0.0032202901
0.0032674546
0.0034478305
0.0038563444
0.0046808209
0.0064324227
0.010056845
0.010773229
0.0080648438
0.00589278
0.0047755757
0.0042142135
0.0039639263
0.003896081
0.0039215863
0.0039692049
0.0040030951
0.0040030937
0.0039692017
0.0039215822
0.0038960776
0.0039639237
0.0042142107
0.0047755709
0.0058927703
0.0080648184
0.010773215
0.010932924
0.00934861
0.0071031416
0.0057498045
0.005041846
0.0047200043
0.0046282708
0.0046572864
0.0047189848
0.0047643249
0.0047643233
0.0047189812
0.0046572818
0.0046282672
0.0047200022
0.0050418447
0.0057498026
0.0071031371
0.0093485956
0.010932922
0.010959849
0.010162635
0.0081927857
0.0067244322
0.0059025537
0.0055172423
0.0054009859
0.0054290286
0.00549974
0.00555342
0.0055534183
0.0054997362
0.005429024
0.0054009824
0.0055172408
0.0059025539
0.0067244329
0.0081927854
0.010162628
0.010959848
)
;

boundaryField
{
    Wall
    {
        type            calculated;
        value           nonuniform List<scalar> 
100
(
1e-20
1e-20
1e-20
1e-20
1e-20
1e-20
1e-20
1e-20
1e-20
1e-20
1e-20
1e-20
1e-20
1e-20
1e-20
1e-20
1e-20
1e-20
1e-20
1e-20
1e-20
1e-20
1e-20
1e-20
1e-20
1e-20
9.9999999e-21
9.9999999e-21
9.9999999e-21
9.9999999e-21
9.9999999e-21
1e-20
1e-20
1e-20
1e-20
1e-20
1e-20
1e-20
1e-20
1e-20
1e-20
1e-20
1e-20
1e-20
1e-20
1e-20
1e-20
1e-20
1e-20
1e-20
1e-20
1e-20
1e-20
1e-20
1e-20
1e-20
1e-20
1e-20
1e-20
1e-20
1e-20
1e-20
1e-20
1e-20
1e-20
1e-20
9.9999999e-21
9.9999999e-21
9.9999999e-21
9.9999999e-21
9.9999999e-21
1e-20
1e-20
1e-20
1e-20
1e-20
1e-20
1e-20
1e-20
1e-20
1e-20
1e-20
1e-20
1e-20
1e-20
1e-20
1e-20
1e-20
1e-20
1e-20
1e-20
1e-20
1e-20
1e-20
1e-20
1e-20
1e-20
1e-20
1e-20
1e-20
)
;
    }
    frontAndBack
    {
        type            empty;
    }
    atmosphere
    {
        type            calculated;
        value           uniform 1e-20;
    }
}


// ************************************************************************* //
