/*--------------------------------*- C++ -*----------------------------------*\
| =========                 |                                                 |
| \\      /  F ield         | OpenFOAM: The Open Source CFD Toolbox           |
|  \\    /   O peration     | Version:  3.0.1                                 |
|   \\  /    A nd           | Web:      www.OpenFOAM.org                      |
|    \\/     M anipulation  |                                                 |
\*---------------------------------------------------------------------------*/
FoamFile
{
    version     2.0;
    format      ascii;
    class       volScalarField;
    location    "33";
    object      rho;
}
// * * * * * * * * * * * * * * * * * * * * * * * * * * * * * * * * * * * * * //

dimensions      [1 -3 0 0 0 0 0];

internalField   nonuniform List<scalar> 
800
(
56.917041
56.912477
56.91165
56.911568
56.911581
56.911595
56.911597
56.911593
56.91159
56.911587
56.911587
56.91159
56.911594
56.911597
56.911594
56.911581
56.911567
56.91165
56.912476
56.91704
57.238804
57.204664
57.195848
57.193695
57.193461
57.193681
57.193931
57.194109
57.194213
57.194261
57.194261
57.194214
57.194109
57.193931
57.193682
57.193462
57.193696
57.195849
57.204666
57.238807
57.662277
57.604413
57.584702
57.579448
57.57846
57.578637
57.579011
57.579312
57.579498
57.579585
57.579585
57.579499
57.579313
57.579012
57.578638
57.578462
57.57945
57.584705
57.604417
57.662284
58.127253
58.048328
58.01777
58.00938
58.007562
58.007619
58.008058
58.008441
58.008687
58.008803
58.008803
58.008688
58.008442
58.00806
58.007621
58.007565
58.009384
58.017775
58.048334
58.127263
58.586485
58.490665
58.450396
58.439147
58.436683
58.43668
58.437196
58.437656
58.437954
58.438094
58.438094
58.437955
58.437657
58.437198
58.436683
58.436687
58.439151
58.450402
58.490672
58.586497
59.000606
58.893736
58.845488
58.831815
58.829035
58.829119
58.829769
58.830325
58.830684
58.830849
58.830849
58.830685
58.830327
58.829771
58.829123
58.82904
58.831821
58.845494
58.893744
59.000618
59.339387
59.227817
59.173898
59.158353
59.155652
59.156013
59.156882
59.157575
59.15801
59.158208
59.158208
59.158011
59.157577
59.156885
59.156017
59.155657
59.158358
59.173904
59.227825
59.339399
59.583633
59.472731
59.415939
59.399155
59.396935
59.397778
59.398965
59.399845
59.400382
59.400622
59.400622
59.400383
59.399847
59.398967
59.397782
59.39694
59.39916
59.415945
59.472738
59.583644
59.726338
59.619839
59.563276
59.545895
59.54445
59.545959
59.547564
59.548689
59.549356
59.549652
59.549652
59.549357
59.548691
59.547566
59.545962
59.544454
59.545899
59.563282
59.619846
59.726348
59.769327
59.668244
59.614997
59.597608
59.597038
59.599316
59.601435
59.602863
59.603691
59.604058
59.604058
59.603692
59.602865
59.601437
59.599319
59.597041
59.597612
59.615001
59.668249
59.769335
59.72382
59.626221
59.578905
59.56198
59.562133
59.565137
59.567859
59.569644
59.570661
59.571114
59.571114
59.570662
59.569645
59.567861
59.565139
59.562136
59.561983
59.578908
59.626225
59.723826
59.605052
59.506368
59.466746
59.450615
59.451104
59.454617
59.458026
59.460221
59.461454
59.462008
59.462008
59.461454
59.460223
59.458028
59.454619
59.451106
59.450617
59.466749
59.506371
59.605057
59.387312
59.280778
59.251821
59.236892
59.235778
59.238779
59.243048
59.245768
59.247237
59.247925
59.247925
59.247237
59.245769
59.243049
59.23878
59.235779
59.236893
59.251822
59.28078
59.387315
59.136691
59.009615
58.988054
58.974448
58.970831
58.972511
58.978158
58.981514
58.983213
58.984071
58.984071
58.983214
58.981515
58.978159
58.972512
58.970833
58.974448
58.988055
59.009616
59.136693
58.875994
58.713385
58.693384
58.681055
58.673396
58.673453
58.680573
58.684838
58.686754
58.687767
58.687767
58.686755
58.684839
58.680574
58.673454
58.673397
58.681055
58.693384
58.713385
58.875995
58.614578
58.402912
58.376865
58.365153
58.35231
58.350978
58.359913
58.365133
58.367341
58.368289
58.368289
58.367342
58.365134
58.359914
58.350978
58.352311
58.365153
58.376866
58.402911
58.614578
58.37005
58.092084
58.050686
58.037608
58.019212
58.017172
58.028249
58.034794
58.037467
58.037762
58.037763
58.037468
58.034795
58.02825
58.017173
58.019213
58.037608
58.050686
58.092084
58.370051
58.171449
57.80736
57.737808
57.719276
57.694547
57.691677
57.706598
57.71493
57.718404
57.717057
57.717057
57.718405
57.714932
57.706599
57.691679
57.694549
57.719276
57.737809
57.80736
58.171451
58.056625
57.57894
57.468309
57.438954
57.404099
57.4018
57.422136
57.432552
57.437502
57.433262
57.433262
57.437504
57.432554
57.422142
57.401802
57.404101
57.438955
57.46831
57.578941
58.056628
58.064153
57.440555
57.273279
57.225906
57.177382
57.177621
57.204636
57.217319
57.224746
57.216346
57.216347
57.224747
57.217322
57.204642
57.177626
57.177386
57.225909
57.273281
57.440557
58.064157
58.238577
57.430245
57.188487
57.112695
57.047715
57.051502
57.086045
57.101254
57.111887
57.098333
57.098333
57.11189
57.101257
57.086051
57.051508
57.04772
57.112696
57.18849
57.430248
58.238581
58.635119
57.593743
57.253662
57.139172
57.053259
57.060704
57.102524
57.120776
57.134593
57.115472
57.115473
57.134593
57.120778
57.102521
57.060703
57.053261
57.139177
57.253666
57.593747
58.635124
59.326081
57.990372
57.519436
57.354041
57.241227
57.251575
57.300468
57.321671
57.33745
57.312267
57.312268
57.337454
57.321677
57.300473
57.25158
57.241231
57.354046
57.51944
57.990376
59.326083
60.413828
58.700495
58.055137
57.82282
57.671843
57.683506
57.739511
57.764131
57.77868
57.747741
57.747742
57.778684
57.764135
57.739516
57.68351
57.671847
57.822824
58.055141
58.700496
60.413826
62.047058
59.838125
58.958007
58.633119
58.42992
58.43844
58.501265
58.530046
58.539385
58.503405
58.503405
58.539387
58.530053
58.501269
58.438444
58.429925
58.633121
58.958009
59.838121
62.047047
64.459491
61.576635
60.373215
59.912779
59.639496
59.634465
59.701994
59.735515
59.736067
59.695665
59.695666
59.736069
59.735519
59.701999
59.634469
59.639499
59.912779
60.373212
61.576622
64.459464
68.021193
64.185711
62.520785
61.859347
61.486916
61.450418
61.517916
61.557417
61.547008
61.502841
61.502843
61.54701
61.557421
61.517919
61.450421
61.486917
61.859344
62.520775
64.185681
68.021137
73.342754
68.110214
65.755483
64.789483
64.268836
64.170181
64.230352
64.27782
64.254957
64.208142
64.208143
64.254959
64.277823
64.230353
64.17018
64.268832
64.789473
65.755461
68.110157
73.342648
81.468446
74.098353
70.663006
69.229201
68.46842
68.259219
68.3031
68.361561
68.326672
68.278414
68.278415
68.326672
68.361561
68.303098
68.259214
68.468409
69.22918
70.662964
74.098253
81.468258
94.196698
83.429034
78.249056
76.056483
74.891845
74.48964
74.50461
74.578892
74.535501
74.487494
74.487494
74.5355
74.578889
74.504603
74.489629
74.891825
76.056446
78.248983
83.428865
94.196388
109.99239
97.97126
90.168434
86.70891
84.912915
84.192018
84.097872
84.194219
84.149436
84.10508
84.105079
84.149432
84.194212
84.097859
84.192
84.912883
86.708854
90.168324
97.971053
109.99271
64.032336
97.52877
102.01503
99.710239
97.937805
97.213036
97.141658
97.147226
97.194761
97.201299
97.201305
97.194776
97.147254
97.141693
97.213084
97.937868
99.710359
102.01534
97.530138
64.035919
8.3787607
30.079222
47.530414
55.669322
60.135561
62.439246
63.764698
64.547463
65.234155
65.578002
65.578072
65.234342
64.547808
63.765164
62.439827
60.136306
55.670288
47.531689
30.080609
8.3796414
1.3030846
2.6183315
5.0615734
6.7654845
7.9822686
8.6979
9.1002086
9.3529595
9.5677206
9.6793959
9.6794179
9.5677791
9.3530666
9.1003484
8.6980684
7.9824687
6.7656955
5.0617784
2.6184666
1.3031053
1.200088
1.2064612
1.2378498
1.2706616
1.2983603
1.3163501
1.3263206
1.3328866
1.3386655
1.3417574
1.341758
1.3386672
1.3328895
1.3263243
1.3163544
1.2983649
1.2706658
1.237853
1.2064622
1.200088
1.2000002
1.2000015
1.2000236
1.2000656
1.2001102
1.2001407
1.2001576
1.2001682
1.2001781
1.2001836
1.2001836
1.2001781
1.2001682
1.2001576
1.2001407
1.2001102
1.2000656
1.2000236
1.2000015
1.2000002
1.2000001
1.2000002
1.2000001
1.2000001
1.2000001
1.2000001
1.2000001
1.2000001
1.2000001
1.2000001
1.2000001
1.2000001
1.2000001
1.2000001
1.2000001
1.2000001
1.2000001
1.2000001
1.2000002
1.2000001
1.2
1.2000001
1.2000001
1.2000001
1.2000001
1.2000001
1.2000001
1.2000002
1.2000002
1.2000002
1.2000002
1.2000002
1.2000002
1.2000001
1.2000001
1.2000001
1.2000001
1.2000001
1.2000001
1.2
1.2
1.2000001
1.2000001
1.2000002
1.2000002
1.2000002
1.2000002
1.2000002
1.2000002
1.2000002
1.2000002
1.2000002
1.2000002
1.2000002
1.2000002
1.2000002
1.2000002
1.2000001
1.2000001
1.2
1.2
1.2
1.2000001
1.2000002
1.2000002
1.2000002
1.2000002
1.2000002
1.2000002
1.2000002
1.2000002
1.2000002
1.2000002
1.2000002
1.2000002
1.2000002
1.2000002
1.2000001
1.2
1.2
)
;

boundaryField
{
    Wall
    {
        type            calculated;
        value           nonuniform List<scalar> 
100
(
1e-15
1.5990298e-12
1.5440016e-08
4.361587e-08
1.2039883e-07
2.5151578e-07
4.5035798e-07
7.313645e-07
1.1078865e-06
1.592666e-06
2.1896936e-06
2.8996971e-06
3.7602728e-06
4.7691268e-06
5.9651552e-06
8.1126261e-06
1.0691874e-05
3.4313746e-05
3.9690547e-05
3.969075e-05
3.9690422e-05
3.9690421e-05
3.8511121e-05
1.4722432e-05
1.3562517e-05
1.3561543e-05
1.3561531e-05
1.3989118e-05
9.2571876e-05
0.0014976392
0.057899015
0.70315697
1.1596934
1.1996209
1.1999998
1.2
1.2
1.2
1.2
1.2
1e-15
7.9650658e-15
1.5439096e-08
4.3615849e-08
1.2040011e-07
2.5151895e-07
4.5036362e-07
7.313731e-07
1.1078983e-06
1.5926811e-06
2.1897115e-06
2.8997177e-06
3.7602956e-06
4.7691485e-06
5.9651995e-06
8.1127293e-06
1.0691949e-05
3.4313857e-05
3.9690755e-05
3.9690958e-05
3.969063e-05
3.9690629e-05
3.851283e-05
1.4723469e-05
1.3562882e-05
1.3561907e-05
1.3561896e-05
1.3988359e-05
9.2561431e-05
0.0014974499
0.05789004
0.70312483
1.159688
1.1996208
1.1999998
1.2
1.2
1.2
1.2
1.2
1e-15
1e-15
1.0000005e-15
1.000001e-15
1e-15
1.0000013e-15
1.0000011e-15
1.0000001e-15
1e-15
1e-15
1e-15
1e-15
1e-15
1.0000001e-15
1.0000001e-15
1e-15
1e-15
1e-15
1e-15
1e-15
)
;
    }
    frontAndBack
    {
        type            empty;
    }
    atmosphere
    {
        type            calculated;
        value           nonuniform List<scalar> 
20
(
1.2
1.2
1.2
1.2
1.2
1.2
1.2
1.2
1.2
1.2
1.2
1.2
1.2
1.2
1.2
1.2
1.2
1.2
1.2
1.2
)
;
    }
}


// ************************************************************************* //
