/*--------------------------------*- C++ -*----------------------------------*\
| =========                 |                                                 |
| \\      /  F ield         | OpenFOAM: The Open Source CFD Toolbox           |
|  \\    /   O peration     | Version:  3.0.1                                 |
|   \\  /    A nd           | Web:      www.OpenFOAM.org                      |
|    \\/     M anipulation  |                                                 |
\*---------------------------------------------------------------------------*/
FoamFile
{
    version     2.0;
    format      ascii;
    class       volScalarField;
    location    "33";
    object      rho_foam;
}
// * * * * * * * * * * * * * * * * * * * * * * * * * * * * * * * * * * * * * //

dimensions      [1 -3 0 0 0 0 0];

internalField   nonuniform List<scalar> 
800
(
56.917041
56.912477
56.91165
56.911568
56.911581
56.911595
56.911597
56.911593
56.91159
56.911587
56.911587
56.91159
56.911594
56.911597
56.911594
56.911581
56.911567
56.91165
56.912476
56.91704
57.238804
57.204664
57.195848
57.193695
57.193461
57.193681
57.193931
57.194109
57.194213
57.194261
57.194261
57.194214
57.194109
57.193931
57.193682
57.193462
57.193696
57.195849
57.204666
57.238807
57.662278
57.604414
57.584703
57.579448
57.578461
57.578637
57.579012
57.579312
57.579499
57.579586
57.579586
57.5795
57.579313
57.579013
57.578639
57.578463
57.57945
57.584706
57.604418
57.662285
58.127255
58.04833
58.017772
58.009382
58.007564
58.00762
58.00806
58.008443
58.008689
58.008805
58.008805
58.00869
58.008444
58.008061
58.007623
58.007567
58.009385
58.017776
58.048336
58.127265
58.586491
58.49067
58.450401
58.439152
58.436687
58.436685
58.437201
58.43766
58.437959
58.438099
58.438099
58.43796
58.437662
58.437203
58.436688
58.436691
58.439156
58.450406
58.490677
58.586502
59.000618
58.893747
58.845498
58.831825
58.829045
58.829129
58.829779
58.830335
58.830693
58.830859
58.830859
58.830694
58.830337
58.829781
58.829132
58.829049
58.83183
58.845504
58.893755
59.000631
59.339409
59.227836
59.173916
59.15837
59.15567
59.156031
59.1569
59.157593
59.158028
59.158225
59.158225
59.158029
59.157595
59.156902
59.156035
59.155674
59.158375
59.173922
59.227844
59.339421
59.583669
59.472762
59.415968
59.399184
59.396964
59.397807
59.398993
59.399874
59.40041
59.40065
59.400651
59.400411
59.399876
59.398996
59.39781
59.396968
59.399189
59.415974
59.47277
59.58368
59.726392
59.619887
59.563321
59.545938
59.544493
59.546002
59.547607
59.548732
59.549399
59.549695
59.549696
59.5494
59.548734
59.547609
59.546005
59.544497
59.545942
59.563326
59.619894
59.726402
59.769405
59.668313
59.61506
59.59767
59.5971
59.599378
59.601497
59.602925
59.603753
59.60412
59.60412
59.603753
59.602927
59.601499
59.59938
59.597103
59.597674
59.615065
59.668318
59.769413
59.723927
59.626316
59.578993
59.562065
59.562218
59.565222
59.567944
59.569728
59.570746
59.571199
59.571199
59.570747
59.56973
59.567945
59.565224
59.56222
59.562068
59.578996
59.62632
59.723933
59.605194
59.506497
59.466865
59.450728
59.451217
59.45473
59.458138
59.460334
59.461566
59.46212
59.46212
59.461567
59.460335
59.45814
59.454731
59.451219
59.45073
59.466867
59.506499
59.605198
59.387495
59.280954
59.251975
59.237036
59.235922
59.238921
59.24319
59.245913
59.247381
59.24807
59.24807
59.247382
59.245914
59.243192
59.238923
59.235923
59.237038
59.251976
59.280956
59.387497
59.136922
59.009826
58.98824
58.974631
58.971011
58.972697
58.97836
58.981708
58.983394
58.984252
58.984252
58.983395
58.981709
58.978361
58.972698
58.971012
58.974632
58.988241
59.009826
59.136923
58.876281
58.713622
58.693605
58.681279
58.673642
58.67381
58.680928
58.685063
58.686975
58.687988
58.687988
58.686976
58.685064
58.680929
58.673811
58.673643
58.681279
58.693605
58.713622
58.876282
58.614966
58.403281
58.377143
58.365431
58.352874
58.351533
58.360207
58.365387
58.367606
58.368555
58.368555
58.367607
58.365388
58.360208
58.351533
58.352875
58.365431
58.377143
58.403281
58.614967
58.370559
58.093644
58.051652
58.0385
58.020194
58.017554
58.02854
58.035102
58.037779
58.038075
58.038075
58.03778
58.035103
58.028541
58.017555
58.020195
58.038501
58.051653
58.093644
58.37056
58.173078
57.809232
57.739678
57.721145
57.695447
57.692273
57.706996
57.715295
57.718766
57.71742
57.71742
57.718768
57.715297
57.706998
57.692275
57.695449
57.721146
57.739679
57.809232
58.17308
58.058506
57.580804
57.47017
57.440381
57.404729
57.402447
57.422603
57.432965
57.437917
57.433677
57.433677
57.437919
57.432968
57.422606
57.402449
57.404731
57.440383
57.470172
57.580806
58.058509
58.066034
57.442416
57.275133
57.226507
57.177841
57.17808
57.205088
57.217792
57.225212
57.216816
57.216817
57.225214
57.217795
57.205091
57.178083
57.177843
57.226509
57.275136
57.442418
58.066038
58.240463
57.432105
57.189562
57.113153
57.048164
57.051953
57.086494
57.101778
57.112469
57.0989
57.098901
57.112471
57.101782
57.086498
57.051956
57.048167
57.113156
57.189565
57.432108
58.240468
58.637019
57.595609
57.254285
57.139638
57.054142
57.061599
57.103479
57.121569
57.135414
57.116065
57.116065
57.135417
57.121573
57.103484
57.061603
57.054146
57.139642
57.254289
57.595612
58.637023
59.327946
57.991862
57.520459
57.354921
57.242277
57.252625
57.301519
57.322684
57.338145
57.312868
57.312869
57.338148
57.322688
57.301524
57.25263
57.242281
57.354925
57.520463
57.991865
59.327949
60.414555
58.701145
58.056219
57.82346
57.6729
57.684564
57.74057
57.76519
57.779375
57.748434
57.748435
57.779378
57.765195
57.740575
57.684569
57.672905
57.823464
58.056223
58.701146
60.414553
62.047746
59.838788
58.959106
58.633767
58.430827
58.439475
58.502338
58.53097
58.540233
58.504186
58.504187
58.540236
58.530974
58.502343
58.43948
58.430831
58.63377
58.959108
59.838784
62.047735
64.460206
61.577317
60.373916
59.913442
59.640157
59.635126
59.702719
59.736176
59.736958
59.696538
59.696539
59.73696
59.736181
59.702723
59.63513
59.64016
59.913443
60.373913
61.577304
64.460179
68.021948
64.186423
62.521477
61.860033
61.487597
61.451099
61.518597
61.558099
61.547709
61.503735
61.503736
61.547711
61.558103
61.5186
61.451101
61.487598
61.860029
62.521467
64.186393
68.021892
73.343595
68.11097
65.756213
64.790201
64.269549
64.170892
64.231065
64.278533
64.255742
64.209119
64.20912
64.255743
64.278536
64.231065
64.170892
64.269545
64.790191
65.756191
68.110913
73.343489
81.474638
74.099996
70.663851
69.22997
68.46918
68.259977
68.303859
68.362465
68.327914
68.279743
68.279743
68.327915
68.362466
68.303856
68.259972
68.46917
69.229949
70.663809
74.099896
81.47445
94.312906
83.452261
78.256163
76.061135
74.895589
74.493146
74.508254
74.582896
74.539622
74.491591
74.491592
74.53962
74.582893
74.508247
74.493135
74.895569
76.061098
78.25609
83.452091
94.31258
115.50764
98.594397
90.323087
86.798309
84.981013
84.252236
84.154998
84.250055
84.203804
84.158676
84.158675
84.2038
84.250047
84.154983
84.252216
84.980979
86.79825
90.322968
98.594121
115.50707
152.95578
124.50599
110.50313
104.45774
101.33709
100.11594
99.831217
99.724753
99.68598
99.648619
99.648616
99.685971
99.724736
99.831189
100.1159
101.33704
104.45765
110.50293
124.50551
152.95462
214.92459
169.44898
145.35498
134.65566
129.37048
127.2825
126.73852
126.57885
126.56312
126.53735
126.53734
126.5631
126.5788
126.73846
127.28243
129.37036
134.65545
145.35457
169.44802
214.92218
327.52526
238.31072
197.22565
177.62566
167.9425
163.94008
162.92413
162.98665
163.15155
163.22762
163.2276
163.15151
162.98656
162.92402
163.93994
167.9423
177.62529
197.22489
238.30907
327.52044
532.76599
339.05945
267.71096
234.03258
217.10522
209.72768
207.85369
208.29148
208.94224
209.33132
209.33128
208.94213
208.2913
207.85352
209.7275
217.10494
234.03201
267.70978
339.05683
532.75757
807.95971
477.55796
358.48768
303.62536
276.29212
264.26763
261.12709
262.24891
263.96133
265.06057
265.0605
263.96115
262.24865
261.12684
264.26739
276.29175
303.62467
358.48629
477.55469
807.95013
1005.6896
643.24552
468.08341
385.63511
344.78343
326.74573
322.02932
323.89991
327.07777
329.23656
329.23645
327.07751
323.89956
322.02901
326.74546
344.78305
385.63444
468.08209
643.24227
1005.6845
1077.3229
806.48438
589.278
477.55757
421.42135
396.39263
389.6081
392.15863
396.92049
400.30951
400.30937
396.92017
392.15822
389.60776
396.39237
421.42107
477.55709
589.27703
806.48184
1077.3215
1093.2924
934.861
710.31416
574.98045
504.1846
472.00043
462.82708
465.72864
471.89848
476.43249
476.43233
471.89812
465.72818
462.82672
472.00022
504.18447
574.98026
710.31371
934.85956
1093.2922
1095.9849
1016.2635
819.27857
672.44322
590.25537
551.72423
540.09859
542.90286
549.974
555.342
555.34183
549.97362
542.9024
540.09824
551.72408
590.25539
672.44329
819.27854
1016.2628
1095.9848
)
;

boundaryField
{
    Wall
    {
        type            zeroGradient;
    }
    frontAndBack
    {
        type            empty;
    }
    atmosphere
    {
        type            zeroGradient;
    }
}


// ************************************************************************* //
