/*--------------------------------*- C++ -*----------------------------------*\
| =========                 |                                                 |
| \\      /  F ield         | OpenFOAM: The Open Source CFD Toolbox           |
|  \\    /   O peration     | Version:  3.0.1                                 |
|   \\  /    A nd           | Web:      www.OpenFOAM.org                      |
|    \\/     M anipulation  |                                                 |
\*---------------------------------------------------------------------------*/
FoamFile
{
    version     2.0;
    format      ascii;
    class       volScalarField;
    location    "33";
    object      thermalConductivity;
}
// * * * * * * * * * * * * * * * * * * * * * * * * * * * * * * * * * * * * * //

dimensions      [0 2 -1 0 0 0 0];

internalField   nonuniform List<scalar> 
800
(
0.016713821
0.016713387
0.016713309
0.016713301
0.016713302
0.016713303
0.016713303
0.016713303
0.016713303
0.016713302
0.016713302
0.016713303
0.016713303
0.016713303
0.016713303
0.016713302
0.016713301
0.016713308
0.016713387
0.016713821
0.016744797
0.016741538
0.016740698
0.016740493
0.016740471
0.016740492
0.016740516
0.016740533
0.016740543
0.016740548
0.016740548
0.016740543
0.016740533
0.016740516
0.016740492
0.016740471
0.016740493
0.016740698
0.016741538
0.016744798
0.016785405
0.016779879
0.016777999
0.016777499
0.016777405
0.016777422
0.016777458
0.016777487
0.016777505
0.016777513
0.016777513
0.016777505
0.016777487
0.016777458
0.016777423
0.016777405
0.016777499
0.016777999
0.016779879
0.016785406
0.01682996
0.016822419
0.016819502
0.016818704
0.016818531
0.016818538
0.01681858
0.016818616
0.01681864
0.016818651
0.016818651
0.01681864
0.016818616
0.01681858
0.016818538
0.016818532
0.016818704
0.016819503
0.016822419
0.01682996
0.016873936
0.016864777
0.016860933
0.016859861
0.016859628
0.016859629
0.016859679
0.016859723
0.016859751
0.016859765
0.016859765
0.016859751
0.016859723
0.016859679
0.016859629
0.016859629
0.016859862
0.016860933
0.016864778
0.016873937
0.016913557
0.01690334
0.016898732
0.01689743
0.016897167
0.016897176
0.016897239
0.016897292
0.016897327
0.016897343
0.016897343
0.016897327
0.016897293
0.016897239
0.016897177
0.016897167
0.01689743
0.016898733
0.016903341
0.016913558
0.01694593
0.016935263
0.016930113
0.016928631
0.016928376
0.016928412
0.016928496
0.016928563
0.016928604
0.016928623
0.016928623
0.016928604
0.016928563
0.016928496
0.016928413
0.016928377
0.016928631
0.016930113
0.016935264
0.016945931
0.01696922
0.016958616
0.016953191
0.01695159
0.016951382
0.016951464
0.016951578
0.016951663
0.016951714
0.016951737
0.016951737
0.016951714
0.016951663
0.016951579
0.016951464
0.016951382
0.01695159
0.016953191
0.016958616
0.016969221
0.016982762
0.016972577
0.016967175
0.016965517
0.016965383
0.016965529
0.016965684
0.016965792
0.016965856
0.016965884
0.016965884
0.016965856
0.016965792
0.016965684
0.01696553
0.016965383
0.016965518
0.016967176
0.016972578
0.016982763
0.016986753
0.016977078
0.016971996
0.016970336
0.016970285
0.016970505
0.016970709
0.016970845
0.016970925
0.01697096
0.01697096
0.016970925
0.016970846
0.016970709
0.016970505
0.016970285
0.016970337
0.016971996
0.016977078
0.016986754
0.016982291
0.016972933
0.016968421
0.016966805
0.016966821
0.01696711
0.016967371
0.016967542
0.016967639
0.016967683
0.016967683
0.016967639
0.016967542
0.016967371
0.01696711
0.016966821
0.016966805
0.016968422
0.016972934
0.016982292
0.016970867
0.016961379
0.016957603
0.01695606
0.016956106
0.016956442
0.016956768
0.016956979
0.016957097
0.01695715
0.01695715
0.016957097
0.016956979
0.016956769
0.016956442
0.016956106
0.016956061
0.016957603
0.016961379
0.016970868
0.016950111
0.016939823
0.016937062
0.016935631
0.016935516
0.016935798
0.016936207
0.016936467
0.016936608
0.016936673
0.016936673
0.016936608
0.016936467
0.016936207
0.016935798
0.016935516
0.016935631
0.016937062
0.016939823
0.016950112
0.016926358
0.016914042
0.01691197
0.016910664
0.016910303
0.016910455
0.016910998
0.016911319
0.016911479
0.016911561
0.016911561
0.016911479
0.016911319
0.016910998
0.016910455
0.016910303
0.016910664
0.01691197
0.016914042
0.016926358
0.016901812
0.01688602
0.01688407
0.016882883
0.016882129
0.016882134
0.016882816
0.016883211
0.016883393
0.01688349
0.01688349
0.016883393
0.016883211
0.016882816
0.016882134
0.01688213
0.016882883
0.01688407
0.01688602
0.016901812
0.016877336
0.016856784
0.016854211
0.016853077
0.016851846
0.016851705
0.016852535
0.01685303
0.01685324
0.01685333
0.01685333
0.01685324
0.01685303
0.016852535
0.016851705
0.016851846
0.016853077
0.016854211
0.016856784
0.016877336
0.016854641
0.01682777
0.016823636
0.016822354
0.016820568
0.016820302
0.016821352
0.01682198
0.016822233
0.016822258
0.016822258
0.016822233
0.01682198
0.016821353
0.016820302
0.016820568
0.016822354
0.016823636
0.01682777
0.016854641
0.01683666
0.016801372
0.016794549
0.016792735
0.016790233
0.016789917
0.016791328
0.016792122
0.016792449
0.016792313
0.016792313
0.016792449
0.016792122
0.016791328
0.016789917
0.016790233
0.016792735
0.016794549
0.016801372
0.01683666
0.01682688
0.016780572
0.016769759
0.016766844
0.016763378
0.016763151
0.016765085
0.016766076
0.016766544
0.016766126
0.016766126
0.016766544
0.016766076
0.016765085
0.016763151
0.016763378
0.016766844
0.016769759
0.016780572
0.01682688
0.016829097
0.016768663
0.01675236
0.016747611
0.016742887
0.016742905
0.016745495
0.01674671
0.016747414
0.016746592
0.016746592
0.016747414
0.01674671
0.016745496
0.016742905
0.016742887
0.016747612
0.01675236
0.016768663
0.016829098
0.016847677
0.016769335
0.01674574
0.016738296
0.016731992
0.01673235
0.016735659
0.016737121
0.016738135
0.016736814
0.016736814
0.016738135
0.016737121
0.01673566
0.016732351
0.016731993
0.016738296
0.016745741
0.016769335
0.016847678
0.016888049
0.016787056
0.016753878
0.016742726
0.016734434
0.016735138
0.016739145
0.016740874
0.016742183
0.016740306
0.016740306
0.016742183
0.016740874
0.016739145
0.016735139
0.016734435
0.016742726
0.016753878
0.016787057
0.016888049
0.016957386
0.016827638
0.016781801
0.016765706
0.016754771
0.016755741
0.016760413
0.016762438
0.016763887
0.01676144
0.01676144
0.016763888
0.016762438
0.016760414
0.016755742
0.016754771
0.016765707
0.016781801
0.016827638
0.016957386
0.01706586
0.016899069
0.016836267
0.016813619
0.016798971
0.016800049
0.0168054
0.016807759
0.016809064
0.016806073
0.016806073
0.016809065
0.016807759
0.016805401
0.01680005
0.016798972
0.016813619
0.016836267
0.016899069
0.01706586
0.017228799
0.017012951
0.01692705
0.016895311
0.016875513
0.016876262
0.016882267
0.016885016
0.016885823
0.016882338
0.016882338
0.016885823
0.016885017
0.016882267
0.016876262
0.016875514
0.016895311
0.01692705
0.017012951
0.017228798
0.017470141
0.01718684
0.017068807
0.01702368
0.016996921
0.016996265
0.017002715
0.017005939
0.017005903
0.017001992
0.017001992
0.017005903
0.01700594
0.017002715
0.016996266
0.016996921
0.01702368
0.017068807
0.017186839
0.017470138
0.017828577
0.017448578
0.017284181
0.017218944
0.017182262
0.017178409
0.017184828
0.017188656
0.017187517
0.017183251
0.017183251
0.017187517
0.017188657
0.017184828
0.017178409
0.017182262
0.017218944
0.01728418
0.017448575
0.017828571
0.01836939
0.01784491
0.017610083
0.017513994
0.017462257
0.017452072
0.017457754
0.017462392
0.017460028
0.017455485
0.017455485
0.017460028
0.017462393
0.017457754
0.017452072
0.017462256
0.017513993
0.017610081
0.017844904
0.01836938
0.019208341
0.018456465
0.01810888
0.017964523
0.017887907
0.017866384
0.017870445
0.017876242
0.017872707
0.017867983
0.017867983
0.017872707
0.017876242
0.017870445
0.017866383
0.017887906
0.017964521
0.018108876
0.018456455
0.019208321
0.020564246
0.019428078
0.018891573
0.018666483
0.018547084
0.018505235
0.018506398
0.018513906
0.018509488
0.018504732
0.018504732
0.018509488
0.018513906
0.018506397
0.018505234
0.018547082
0.018666479
0.018891566
0.01942806
0.020564212
0.022887379
0.021045078
0.020163321
0.019791705
0.019601401
0.019524416
0.019513115
0.019522883
0.019518141
0.01951361
0.01951361
0.019518141
0.019522882
0.019513113
0.019524414
0.019601398
0.019791699
0.020163309
0.021045048
0.022887316
0.024
0.023948681
0.022371821
0.021704372
0.021362793
0.021230205
0.021198216
0.021184735
0.021180715
0.021176868
0.021176867
0.021180714
0.021184734
0.021198213
0.021230201
0.021362787
0.021704361
0.022371799
0.023948626
0.024
0.024
0.024
0.024
0.024
0.024
0.024
0.024
0.024139141
0.024137907
0.024135379
0.024135378
0.024137905
0.024139135
0.024
0.024
0.024
0.024
0.024
0.024
0.024
0.024
0.024
0.024
0.024
0.024
0.024
0.024
0.024
0.024
0.024
0.024
0.024
0.024
0.024
0.024
0.024
0.024
0.024
0.024
0.024
0.024
0.024
0.024
0.024
0.024
0.024
0.024
0.024
0.024
0.024
0.024
0.024
0.024
0.024
0.024
0.024
0.024
0.024
0.024
0.024
0.024
0.024
0.024
0.024
0.024
0.024
0.024
0.024
0.024
0.024
0.024
0.024
0.024
0.024
0.024
0.024
0.024
0.024
0.024
0.024
0.024
0.024
0.024
0.024
0.024
0.024
0.024
0.024
0.024
0.024
0.024
0.024
0.024
0.024
0.024
0.024
0.024
0.024
0.024
0.024
0.024
0.024
0.024
0.024
0.024
0.024
0.024
0.024
0.024
0.024
0.024
0.024
0.024
0.024
0.024
0.024
0.024
0.024
0.024
0.024
0.024
0.024
0.024
0.024
0.024
0.024
0.024
0.024
0.024
0.024
0.024
0.024
0.024
0.024
0.024
0.024
0.024
0.024
0.024
0.024
0.024
0.024
0.024
0.024
0.024
0.024
0.024
0.024
0.024
0.024
0.024
0.024
0.024
0.024
0.024
0.024
0.024
0.024
0.024
0.024
)
;

boundaryField
{
    Wall
    {
        type            calculated;
        value           uniform 0.024;
    }
    frontAndBack
    {
        type            empty;
    }
    atmosphere
    {
        type            calculated;
        value           uniform 0.024;
    }
}


// ************************************************************************* //
