/*--------------------------------*- C++ -*----------------------------------*\
| =========                 |                                                 |
| \\      /  F ield         | OpenFOAM: The Open Source CFD Toolbox           |
|  \\    /   O peration     | Version:  3.0.1                                 |
|   \\  /    A nd           | Web:      www.OpenFOAM.org                      |
|    \\/     M anipulation  |                                                 |
\*---------------------------------------------------------------------------*/
FoamFile
{
    version     2.0;
    format      ascii;
    class       volScalarField;
    location    "33";
    object      thermalDiff_gas;
}
// * * * * * * * * * * * * * * * * * * * * * * * * * * * * * * * * * * * * * //

dimensions      [0 2 -1 0 0 0 0];

internalField   nonuniform List<scalar> 
800
(
0.00032824361
0.0003282613
0.00032826601
0.00032826689
0.00032826702
0.00032826704
0.00032826707
0.00032826711
0.00032826715
0.00032826717
0.00032826717
0.00032826715
0.00032826711
0.00032826707
0.00032826704
0.00032826702
0.00032826689
0.00032826602
0.0003282613
0.00032824361
0.00032747747
0.00032755749
0.00032758593
0.0003275947
0.00032759697
0.00032759717
0.00032759684
0.00032759647
0.00032759622
0.00032759609
0.00032759609
0.00032759622
0.00032759647
0.00032759684
0.00032759717
0.00032759696
0.00032759469
0.00032758592
0.00032755749
0.00032747746
0.00032674154
0.00032686607
0.00032691781
0.00032693472
0.00032693951
0.00032694026
0.00032693986
0.0003269393
0.00032693887
0.00032693866
0.00032693866
0.00032693887
0.00032693929
0.00032693986
0.00032694026
0.0003269395
0.00032693471
0.0003269178
0.00032686606
0.00032674152
0.0003261315
0.00032629002
0.00032636118
0.00032638496
0.0003263919
0.00032639323
0.00032639288
0.00032639225
0.00032639175
0.0003263915
0.0003263915
0.00032639175
0.00032639224
0.00032639288
0.00032639322
0.0003263919
0.00032638495
0.00032636116
0.00032629
0.00032613148
0.00032569208
0.00032587315
0.0003259594
0.00032598834
0.00032599674
0.0003259984
0.00032599807
0.00032599741
0.00032599688
0.0003259966
0.0003259966
0.00032599687
0.0003259974
0.00032599807
0.00032599839
0.00032599673
0.00032598833
0.00032595939
0.00032587313
0.00032569205
0.00032546385
0.00032565393
0.00032575079
0.00032578297
0.00032579199
0.00032579364
0.00032579322
0.00032579248
0.00032579191
0.00032579163
0.00032579163
0.00032579191
0.00032579247
0.00032579321
0.00032579364
0.00032579198
0.00032578296
0.00032575078
0.00032565391
0.00032546382
0.0003254849
0.00032566851
0.00032577122
0.00032580467
0.00032581344
0.00032581469
0.00032581399
0.00032581311
0.00032581248
0.00032581217
0.00032581217
0.00032581248
0.0003258131
0.00032581399
0.00032581469
0.00032581344
0.00032580466
0.0003257712
0.00032566849
0.00032548487
0.00032579106
0.00032595121
0.00032605444
0.00032608717
0.00032609483
0.00032609524
0.00032609405
0.00032609293
0.00032609219
0.00032609184
0.00032609184
0.00032609219
0.00032609292
0.00032609405
0.00032609523
0.00032609483
0.00032608716
0.00032605443
0.0003259512
0.00032579104
0.00032641642
0.00032653517
0.00032663272
0.00032666273
0.00032666845
0.00032666759
0.00032666568
0.00032666418
0.00032666327
0.00032666285
0.00032666285
0.00032666327
0.00032666418
0.00032666568
0.00032666758
0.00032666845
0.00032666272
0.00032663271
0.00032653516
0.0003264164
0.00032739328
0.00032745248
0.00032753704
0.00032756238
0.00032756535
0.00032756277
0.00032755989
0.00032755785
0.00032755668
0.00032755616
0.00032755616
0.00032755668
0.00032755785
0.00032755989
0.00032756277
0.00032756534
0.00032756238
0.00032753703
0.00032745247
0.00032739327
0.00032875236
0.00032873423
0.00032879731
0.00032881615
0.00032881554
0.00032881078
0.0003288066
0.00032880384
0.00032880234
0.00032880166
0.00032880166
0.00032880234
0.00032880384
0.0003288066
0.00032881078
0.00032881555
0.00032881615
0.00032879731
0.00032873423
0.00032875236
0.00033052275
0.0003304105
0.00033044259
0.00033045329
0.00033044821
0.00033044067
0.00033043483
0.00033043113
0.00033042921
0.00033042834
0.00033042834
0.00033042921
0.00033043113
0.00033043484
0.00033044067
0.00033044821
0.0003304533
0.0003304426
0.00033041051
0.00033052275
0.00033273153
0.00033250976
0.00033250099
0.0003325022
0.00033249139
0.0003324804
0.0003324725
0.00033246757
0.00033246511
0.00033246398
0.00033246398
0.00033246512
0.00033246758
0.0003324725
0.0003324804
0.0003324914
0.00033250221
0.000332501
0.00033250977
0.00033273154
0.00033540302
0.00033505796
0.00033499918
0.0003349899
0.00033497152
0.00033495634
0.00033494591
0.00033493943
0.00033493608
0.00033493463
0.00033493463
0.00033493609
0.00033493944
0.00033494592
0.00033495635
0.00033497153
0.00033498991
0.0003349992
0.00033505798
0.00033540304
0.00033855813
0.00033807819
0.00033796238
0.00033794181
0.00033791322
0.00033789305
0.00033787965
0.00033787128
0.00033786609
0.00033786424
0.00033786425
0.0003378661
0.00033787129
0.00033787966
0.00033789306
0.00033791324
0.00033794183
0.0003379624
0.00033807822
0.00033855816
0.00034220749
0.00034158461
0.00034140859
0.00034137624
0.000341334
0.00034130834
0.00034129157
0.00034128096
0.00034127184
0.00034126947
0.00034126947
0.00034127185
0.00034128097
0.00034129158
0.00034130836
0.00034133402
0.00034137627
0.00034140861
0.00034158464
0.00034220752
0.00034635093
0.00034558153
0.00034534663
0.000345303
0.00034524429
0.00034521335
0.0003451921
0.00034517893
0.00034516224
0.00034515912
0.00034515913
0.00034516225
0.00034517894
0.00034519212
0.00034521337
0.00034524432
0.00034530302
0.00034534666
0.00034558156
0.00034635096
0.00035097497
0.00035006442
0.00034977551
0.00034972295
0.00034964736
0.00034961083
0.00034958301
0.00034956725
0.00034953762
0.00034953343
0.00034953343
0.00034953762
0.00034956726
0.00034958303
0.00034961085
0.00034964739
0.00034972299
0.00034977554
0.00035006446
0.00035097501
0.00035605315
0.00035501911
0.00035468473
0.00035462938
0.00035453762
0.00035449397
0.00035445647
0.00035443856
0.00035438881
0.00035438321
0.00035438321
0.00035438881
0.00035443857
0.00035445648
0.00035449399
0.00035453764
0.00035462941
0.00035468477
0.00035501915
0.00035605319
0.00036154165
0.00036041654
0.00036005011
0.00036000353
0.00035989622
0.00035984346
0.00035979232
0.00035977331
0.00035969479
0.00035968761
0.00035968761
0.00035969479
0.00035977332
0.00035979234
0.00035984348
0.00035989625
0.00036000356
0.00036005015
0.00036041659
0.00036154169
0.00036736722
0.00036620614
0.00036582848
0.00036580661
0.00036568405
0.00036562051
0.00036555254
0.00036553439
0.00036541807
0.00036540955
0.00036540955
0.00036541807
0.00036553439
0.00036555256
0.00036562053
0.00036568408
0.00036580665
0.00036582852
0.00036620618
0.00036736725
0.00037340977
0.0003723004
0.00037194421
0.00037196808
0.00037182977
0.00037175431
0.00037166928
0.00037165543
0.00037149446
0.00037148562
0.00037148562
0.00037149446
0.00037165543
0.00037166929
0.00037175433
0.00037182979
0.00037196811
0.00037194425
0.00037230044
0.0003734098
0.00037947584
0.00037854926
0.00037826711
0.00037836197
0.00037821175
0.00037812351
0.0003780228
0.00037801856
0.00037781169
0.00037780451
0.00037780451
0.00037781169
0.00037801856
0.00037802281
0.00037812353
0.00037821178
0.000378362
0.00037826714
0.0003785493
0.00037947588
0.00038524413
0.00038469272
0.00038457557
0.00038476598
0.00038462303
0.00038451813
0.0003844018
0.00038441472
0.00038416969
0.00038416743
0.00038416743
0.0003841697
0.00038441473
0.00038440181
0.00038451815
0.00038462306
0.00038476602
0.0003845756
0.00038469276
0.00038524417
0.00039015174
0.00039027482
0.00039047088
0.00039079293
0.00039069363
0.00039056917
0.00039043969
0.00039048056
0.00039021654
0.00039022432
0.00039022432
0.00039021654
0.00039048057
0.0003904397
0.00039056919
0.00039069366
0.00039079297
0.00039047092
0.00039027487
0.00039015181
0.00039320914
0.00039450177
0.00039523861
0.00039578697
0.00039576838
0.00039564779
0.000395524
0.00039560794
0.00039535597
0.00039538107
0.00039538107
0.00039535598
0.00039560795
0.00039552401
0.00039564782
0.00039576842
0.00039578702
0.00039523867
0.00039450186
0.00039320927
0.00039276662
0.00039604643
0.00039768571
0.0003986155
0.00039876512
0.00039867766
0.00039860751
0.00039875435
0.00039855554
0.00039860727
0.00039860727
0.00039855554
0.00039875436
0.00039860753
0.00039867769
0.00039876517
0.00039861557
0.0003976858
0.00039604659
0.00039276688
0.00038631339
0.00039266553
0.00039584119
0.00039747934
0.00039792642
0.00039796894
0.00039803078
0.00039826336
0.00039816319
0.00039825198
0.00039825198
0.00039816321
0.00039826338
0.00039803082
0.000397969
0.00039792651
0.00039747946
0.00039584135
0.00039266583
0.00038631385
0.00037050892
0.00038123761
0.00038694816
0.00038964359
0.00039051047
0.00039095875
0.00039125614
0.0003915969
0.00039163726
0.00039177222
0.00039177223
0.00039163729
0.00039159695
0.00039125622
0.00039095885
0.00039051061
0.00038964378
0.00038694844
0.00038123813
0.00037050971
0.00034292466
0.00035787847
0.00036735818
0.00037150364
0.00037327478
0.00037404905
0.0003748233
0.00037531459
0.00037552355
0.0003757077
0.00037570772
0.0003755236
0.00037531467
0.00037482343
0.00037404921
0.00037327499
0.00037150394
0.00036735862
0.00035787925
0.0003429256
0.00031750245
0.00032594422
0.00033508926
0.00034024381
0.00034339734
0.00034474073
0.00034542452
0.00034647345
0.00034686413
0.00034708397
0.00034708399
0.00034686419
0.00034647356
0.00034542467
0.00034474092
0.00034339759
0.00034024414
0.00033508971
0.00032594474
0.00031750258
0.00030565463
0.00030801166
0.00031063589
0.0003124958
0.00031365089
0.00031446649
0.00031501428
0.00031530365
0.00031555596
0.00031568693
0.00031568694
0.00031555597
0.00031530368
0.00031501431
0.00031446653
0.00031365095
0.00031249589
0.00031063599
0.00030801173
0.00030565466
0.00029821051
0.00029829508
0.0002989751
0.00029980305
0.00030053224
0.00030112846
0.00030158067
0.00030189275
0.00030210498
0.00030221241
0.00030221241
0.00030210498
0.00030189276
0.00030158068
0.00030112848
0.00030053226
0.00029980308
0.00029897513
0.00029829509
0.00029821054
0.00029160856
0.00029187735
0.00029239662
0.00029302236
0.0002936217
0.00029413687
0.00029454607
0.00029484462
0.00029504327
0.00029514283
0.00029514283
0.00029504328
0.00029484462
0.00029454608
0.00029413689
0.00029362172
0.00029302239
0.00029239664
0.00029187738
0.00029160859
0.00028572323
0.00028608149
0.00028656749
0.00028710119
0.00028761652
0.00028807014
0.00028843816
0.00028871375
0.0002888973
0.00028898906
0.00028898906
0.00028889731
0.00028871376
0.00028843817
0.00028807016
0.00028761654
0.00028710121
0.00028656752
0.00028608152
0.00028572327
0.00028059857
0.00028100139
0.00028149964
0.00028200517
0.00028247704
0.00028288791
0.00028322306
0.00028347457
0.00028364185
0.00028372534
0.00028372535
0.00028364186
0.00028347458
0.00028322307
0.00028288792
0.00028247706
0.00028200519
0.00028149967
0.00028100142
0.00028059861
0.00027632186
0.00027672921
0.00027723608
0.00027773659
0.00027819044
0.00027857807
0.00027889033
0.00027912418
0.00027927901
0.00027935604
0.00027935605
0.00027927902
0.00027912419
0.00027889034
0.00027857808
0.00027819046
0.00027773661
0.0002772361
0.00027672924
0.00027632189
0.00027297978
0.00027335825
0.00027385059
0.00027434251
0.0002747866
0.00027516256
0.0002754628
0.00027568607
0.00027583352
0.00027590667
0.00027590667
0.00027583352
0.00027568608
0.00027546281
0.00027516258
0.00027478662
0.00027434253
0.00027385061
0.00027335828
0.00027297981
0.0002706578
0.00027098758
0.00027144388
0.00027191572
0.00027234838
0.00027271672
0.00027301114
0.00027322978
0.0002733739
0.00027344542
0.00027344542
0.00027337391
0.00027322979
0.00027301115
0.00027271674
0.0002723484
0.00027191574
0.00027144391
0.00027098761
0.00027065782
0.00026944773
0.00026973153
0.00027014975
0.00027059893
0.00027101977
0.00027138232
0.00027167399
0.0002718913
0.00027203477
0.00027210601
0.00027210601
0.00027203478
0.00027189131
0.00027167401
0.00027138234
0.00027101979
0.00027059895
0.00027014977
0.00026973156
0.00026944776
)
;

boundaryField
{
    Wall
    {
        type            calculated;
        value           uniform 0.1;
    }
    frontAndBack
    {
        type            empty;
    }
    atmosphere
    {
        type            calculated;
        value           uniform 0.1;
    }
}


// ************************************************************************* //
