/*--------------------------------*- C++ -*----------------------------------*\
| =========                 |                                                 |
| \\      /  F ield         | OpenFOAM: The Open Source CFD Toolbox           |
|  \\    /   O peration     | Version:  3.0.1                                 |
|   \\  /    A nd           | Web:      www.OpenFOAM.org                      |
|    \\/     M anipulation  |                                                 |
\*---------------------------------------------------------------------------*/
FoamFile
{
    version     2.0;
    format      ascii;
    class       volScalarField;
    location    "33";
    object      thermalDiffusivity;
}
// * * * * * * * * * * * * * * * * * * * * * * * * * * * * * * * * * * * * * //

dimensions      [0 2 -1 0 0 0 0];

internalField   nonuniform List<scalar> 
800
(
1.6276025e-07
1.6276911e-07
1.6277071e-07
1.6277088e-07
1.6277085e-07
1.6277082e-07
1.6277082e-07
1.6277083e-07
1.6277084e-07
1.6277084e-07
1.6277084e-07
1.6277084e-07
1.6277083e-07
1.6277082e-07
1.6277083e-07
1.6277085e-07
1.6277088e-07
1.6277072e-07
1.6276911e-07
1.6276026e-07
1.6213162e-07
1.6219739e-07
1.6221438e-07
1.6221851e-07
1.6221895e-07
1.6221852e-07
1.6221804e-07
1.622177e-07
1.622175e-07
1.6221742e-07
1.6221741e-07
1.622175e-07
1.622177e-07
1.6221804e-07
1.6221852e-07
1.6221895e-07
1.622185e-07
1.6221437e-07
1.6219739e-07
1.6213161e-07
1.6132333e-07
1.6143292e-07
1.6147021e-07
1.6148015e-07
1.6148199e-07
1.6148165e-07
1.6148094e-07
1.6148037e-07
1.6148002e-07
1.6147987e-07
1.6147986e-07
1.6148002e-07
1.6148037e-07
1.6148094e-07
1.6148165e-07
1.6148199e-07
1.6148015e-07
1.614702e-07
1.6143291e-07
1.6132332e-07
1.6045437e-07
1.6060021e-07
1.6065675e-07
1.606722e-07
1.6067551e-07
1.6067538e-07
1.6067456e-07
1.6067385e-07
1.606734e-07
1.6067319e-07
1.6067319e-07
1.606734e-07
1.6067385e-07
1.6067456e-07
1.6067538e-07
1.6067551e-07
1.606722e-07
1.6065673e-07
1.606002e-07
1.6045435e-07
1.5962479e-07
1.5979668e-07
1.598691e-07
1.5988924e-07
1.5989358e-07
1.5989353e-07
1.5989258e-07
1.5989175e-07
1.5989122e-07
1.5989097e-07
1.5989097e-07
1.5989122e-07
1.5989175e-07
1.5989258e-07
1.5989352e-07
1.5989357e-07
1.5988923e-07
1.5986909e-07
1.5979667e-07
1.5962477e-07
1.5890644e-07
1.5909159e-07
1.5917547e-07
1.5919919e-07
1.5920387e-07
1.5920363e-07
1.5920246e-07
1.5920148e-07
1.5920087e-07
1.5920059e-07
1.5920059e-07
1.5920087e-07
1.5920148e-07
1.5920245e-07
1.5920362e-07
1.5920386e-07
1.5919918e-07
1.5917546e-07
1.5909158e-07
1.5890642e-07
1.5835288e-07
1.5853792e-07
1.586276e-07
1.5865355e-07
1.5865779e-07
1.5865701e-07
1.5865548e-07
1.5865431e-07
1.5865359e-07
1.5865327e-07
1.5865327e-07
1.5865359e-07
1.586543e-07
1.5865548e-07
1.58657e-07
1.5865778e-07
1.5865354e-07
1.5862759e-07
1.5853791e-07
1.5835286e-07
1.5799685e-07
1.581706e-07
1.5825927e-07
1.5828583e-07
1.5828887e-07
1.5828719e-07
1.5828514e-07
1.5828369e-07
1.5828283e-07
1.5828246e-07
1.5828246e-07
1.5828283e-07
1.5828369e-07
1.5828514e-07
1.5828718e-07
1.5828886e-07
1.5828582e-07
1.5825926e-07
1.5817059e-07
1.5799684e-07
1.5784994e-07
1.5800458e-07
1.5808416e-07
1.5810947e-07
1.5811073e-07
1.5810784e-07
1.5810512e-07
1.5810331e-07
1.5810228e-07
1.5810184e-07
1.5810184e-07
1.5810228e-07
1.5810331e-07
1.5810512e-07
1.5810784e-07
1.5811073e-07
1.5810947e-07
1.5808415e-07
1.5800457e-07
1.5784993e-07
1.5790971e-07
1.5804163e-07
1.5810357e-07
1.5812595e-07
1.581252e-07
1.5812093e-07
1.5811738e-07
1.5811514e-07
1.581139e-07
1.5811337e-07
1.5811337e-07
1.581139e-07
1.5811514e-07
1.5811738e-07
1.5812092e-07
1.5812519e-07
1.5812595e-07
1.5810357e-07
1.5804163e-07
1.579097e-07
1.5815699e-07
1.5826536e-07
1.5830662e-07
1.5832315e-07
1.5832015e-07
1.5831469e-07
1.5831022e-07
1.5830741e-07
1.5830593e-07
1.5830529e-07
1.5830529e-07
1.5830593e-07
1.5830741e-07
1.5831022e-07
1.5831469e-07
1.5832015e-07
1.5832314e-07
1.5830662e-07
1.5826536e-07
1.5815699e-07
1.5856625e-07
1.5866935e-07
1.5868772e-07
1.5868341e-07
1.5867843e-07
1.5867225e-07
1.5866584e-07
1.5866223e-07
1.5866077e-07
1.5866001e-07
1.5866001e-07
1.5866077e-07
1.5866223e-07
1.5866584e-07
1.5867225e-07
1.5867843e-07
1.5868341e-07
1.5868771e-07
1.5866935e-07
1.5856625e-07
1.5919501e-07
1.5935088e-07
1.5927856e-07
1.5925048e-07
1.5924961e-07
1.5923427e-07
1.5922814e-07
1.5923588e-07
1.592323e-07
1.5923104e-07
1.5923103e-07
1.5923231e-07
1.5923586e-07
1.5922814e-07
1.5923431e-07
1.592496e-07
1.5925049e-07
1.5927856e-07
1.5935088e-07
1.5919501e-07
1.599295e-07
1.600484e-07
1.5994396e-07
1.5995509e-07
1.5993876e-07
1.5997475e-07
1.6005373e-07
1.6000534e-07
1.599249e-07
1.5992374e-07
1.5992373e-07
1.599249e-07
1.600054e-07
1.6005327e-07
1.5997423e-07
1.599387e-07
1.5995508e-07
1.5994397e-07
1.6004841e-07
1.5992951e-07
1.6074269e-07
1.6075639e-07
1.606935e-07
1.6073827e-07
1.6087997e-07
1.6153757e-07
1.615095e-07
1.6073218e-07
1.6071012e-07
1.6070926e-07
1.6070926e-07
1.6071012e-07
1.607325e-07
1.6150981e-07
1.61535e-07
1.6088e-07
1.6073826e-07
1.606935e-07
1.607564e-07
1.607427e-07
1.6183941e-07
1.6212781e-07
1.6162921e-07
1.6165331e-07
1.6338302e-07
1.6333207e-07
1.6175765e-07
1.6151257e-07
1.6157368e-07
1.615725e-07
1.615725e-07
1.6157368e-07
1.615123e-07
1.6176007e-07
1.6333564e-07
1.6338297e-07
1.6165329e-07
1.6162921e-07
1.6212786e-07
1.6183944e-07
1.6304797e-07
1.6995421e-07
1.664343e-07
1.6601116e-07
1.6659152e-07
1.6295392e-07
1.6237821e-07
1.6246827e-07
1.6249086e-07
1.6249132e-07
1.6249131e-07
1.6249087e-07
1.6246821e-07
1.6238049e-07
1.6295614e-07
1.6659137e-07
1.66011e-07
1.6643417e-07
1.699544e-07
1.6304799e-07
1.7034348e-07
1.7257646e-07
1.7270176e-07
1.7273584e-07
1.6679109e-07
1.6491675e-07
1.6366701e-07
1.6344389e-07
1.634212e-07
1.6342487e-07
1.6342487e-07
1.634212e-07
1.6344127e-07
1.6366709e-07
1.6491423e-07
1.667913e-07
1.727359e-07
1.7270182e-07
1.7257652e-07
1.7034351e-07
1.7227393e-07
1.7315229e-07
1.7335667e-07
1.7068408e-07
1.6572575e-07
1.6584432e-07
1.6467034e-07
1.6430519e-07
1.6430802e-07
1.6431719e-07
1.6431716e-07
1.6430802e-07
1.6430767e-07
1.6464739e-07
1.6584102e-07
1.6572762e-07
1.7068538e-07
1.7335673e-07
1.7315235e-07
1.7227399e-07
1.7241225e-07
1.7356811e-07
1.7388283e-07
1.6593266e-07
1.6511505e-07
1.6511866e-07
1.650204e-07
1.6513027e-07
1.6507008e-07
1.6511132e-07
1.6511175e-07
1.6506994e-07
1.6513088e-07
1.6500268e-07
1.6510494e-07
1.6511073e-07
1.659247e-07
1.7388289e-07
1.7356817e-07
1.7241231e-07
1.7224366e-07
1.7374627e-07
1.6913054e-07
1.6525621e-07
1.6532857e-07
1.6533321e-07
1.6525316e-07
1.6571531e-07
1.660687e-07
1.6600116e-07
1.6600162e-07
1.6606093e-07
1.6571569e-07
1.6523984e-07
1.653152e-07
1.6531526e-07
1.6527198e-07
1.6913048e-07
1.7374633e-07
1.7224371e-07
1.7166766e-07
1.7359501e-07
1.6608025e-07
1.6527078e-07
1.6822165e-07
1.6828163e-07
1.6859478e-07
1.6747479e-07
1.6763559e-07
1.6615986e-07
1.6615624e-07
1.676514e-07
1.6749209e-07
1.6864566e-07
1.6831273e-07
1.6823628e-07
1.6526467e-07
1.6608024e-07
1.7359507e-07
1.7166772e-07
1.7019092e-07
1.7041115e-07
1.6826235e-07
1.6763795e-07
1.6901168e-07
1.6899101e-07
1.6889493e-07
1.6859394e-07
1.6642649e-07
1.6584154e-07
1.6584343e-07
1.6641475e-07
1.6858363e-07
1.6889783e-07
1.6899394e-07
1.6901461e-07
1.6763613e-07
1.6826329e-07
1.7041027e-07
1.7019145e-07
1.6076898e-07
1.6345889e-07
1.6763553e-07
1.6510856e-07
1.6825199e-07
1.6822828e-07
1.6812108e-07
1.6807444e-07
1.6556929e-07
1.6561528e-07
1.6561661e-07
1.6556215e-07
1.6807738e-07
1.6812406e-07
1.6823124e-07
1.6825497e-07
1.6510867e-07
1.6763425e-07
1.6345901e-07
1.6076932e-07
1.5763461e-07
1.614056e-07
1.6600941e-07
1.6359797e-07
1.6574806e-07
1.6660448e-07
1.6674256e-07
1.6566579e-07
1.6513004e-07
1.6474829e-07
1.6475345e-07
1.6514004e-07
1.6565594e-07
1.6674555e-07
1.6660806e-07
1.6574103e-07
1.6359809e-07
1.6600977e-07
1.6140573e-07
1.5763475e-07
1.5378992e-07
1.5839262e-07
1.6067235e-07
1.6127225e-07
1.6175932e-07
1.6177031e-07
1.620828e-07
1.6159422e-07
1.6314176e-07
1.6309784e-07
1.6309484e-07
1.6314646e-07
1.6159433e-07
1.6207659e-07
1.6177042e-07
1.6175944e-07
1.6127237e-07
1.6067184e-07
1.5839276e-07
1.5379008e-07
1.4859324e-07
1.5415483e-07
1.5679872e-07
1.5789453e-07
1.5851844e-07
1.5858362e-07
1.584736e-07
1.5841038e-07
1.5855216e-07
1.5990213e-07
1.5990042e-07
1.5855317e-07
1.584105e-07
1.5847371e-07
1.5858374e-07
1.5851856e-07
1.5789466e-07
1.5679886e-07
1.54155e-07
1.4859344e-07
1.4189514e-07
1.4837007e-07
1.5171644e-07
1.531674e-07
1.5396425e-07
1.541226e-07
1.5403575e-07
1.539671e-07
1.5445874e-07
1.5575021e-07
1.5574932e-07
1.5445586e-07
1.5396721e-07
1.5403587e-07
1.5412272e-07
1.5396438e-07
1.5316754e-07
1.517166e-07
1.4837027e-07
1.4189502e-07
1.5743965e-07
1.4499491e-07
1.4521099e-07
1.4674584e-07
1.4776701e-07
1.4806106e-07
1.4801023e-07
1.4878412e-07
1.5080806e-07
1.5138003e-07
1.5137982e-07
1.5080631e-07
1.4878316e-07
1.4801035e-07
1.4806119e-07
1.4776714e-07
1.4674599e-07
1.4521099e-07
1.4499442e-07
1.5743666e-07
5.4642876e-07
2.2797614e-07
1.6571856e-07
1.572098e-07
1.5436606e-07
1.5375027e-07
1.5447776e-07
1.5624232e-07
1.5690981e-07
1.568696e-07
1.5686962e-07
1.569096e-07
1.5624099e-07
1.544758e-07
1.5374884e-07
1.543656e-07
1.5720871e-07
1.6571698e-07
2.2796702e-07
5.4637607e-07
1.5421098e-05
2.2003757e-06
7.025385e-07
4.7923085e-07
4.0452712e-07
3.7600866e-07
3.6402132e-07
3.5900761e-07
3.5330854e-07
3.5038568e-07
3.5038514e-07
3.5330708e-07
3.5900452e-07
3.6401609e-07
3.7600166e-07
4.0451975e-07
4.7921702e-07
7.0250499e-07
2.2001551e-06
1.541873e-05
0.00030565463
6.7468334e-05
2.4223555e-05
1.4474739e-05
1.0757388e-05
9.3399887e-06
8.7017833e-06
8.3606347e-06
8.0940705e-06
7.9597169e-06
7.959689e-06
8.0939941e-06
8.3604923e-06
8.7015864e-06
9.3397335e-06
1.0757031e-05
1.4474095e-05
2.4222161e-05
6.7463993e-05
0.00030565466
0.00029821051
0.00029829508
0.0002989751
0.00029980305
0.00030053224
0.00030112846
0.00030158067
0.00014941382
0.00014784542
0.00014703745
0.00014703727
0.00014784494
0.00014941293
0.00030158068
0.00030112848
0.00030053226
0.00029980308
0.00029897513
0.00029829509
0.00029821054
0.00029160856
0.00029187735
0.00029239662
0.00029302236
0.0002936217
0.00029413687
0.00029454607
0.00029484462
0.00029504327
0.00029514283
0.00029514283
0.00029504328
0.00029484462
0.00029454608
0.00029413689
0.00029362172
0.00029302239
0.00029239664
0.00029187738
0.00029160859
0.00028572323
0.00028608149
0.00028656749
0.00028710119
0.00028761652
0.00028807014
0.00028843816
0.00028871375
0.0002888973
0.00028898906
0.00028898906
0.00028889731
0.00028871376
0.00028843817
0.00028807016
0.00028761654
0.00028710121
0.00028656752
0.00028608152
0.00028572327
0.00028059857
0.00028100139
0.00028149964
0.00028200517
0.00028247704
0.00028288791
0.00028322306
0.00028347457
0.00028364185
0.00028372534
0.00028372535
0.00028364186
0.00028347458
0.00028322307
0.00028288792
0.00028247706
0.00028200519
0.00028149967
0.00028100142
0.00028059861
0.00027632186
0.00027672921
0.00027723608
0.00027773659
0.00027819044
0.00027857807
0.00027889033
0.00027912418
0.00027927901
0.00027935604
0.00027935605
0.00027927902
0.00027912419
0.00027889034
0.00027857808
0.00027819046
0.00027773661
0.0002772361
0.00027672924
0.00027632189
0.00027297978
0.00027335825
0.00027385059
0.00027434251
0.0002747866
0.00027516256
0.0002754628
0.00027568607
0.00027583352
0.00027590667
0.00027590667
0.00027583352
0.00027568608
0.00027546281
0.00027516258
0.00027478662
0.00027434253
0.00027385061
0.00027335828
0.00027297981
0.0002706578
0.00027098758
0.00027144388
0.00027191572
0.00027234838
0.00027271672
0.00027301114
0.00027322978
0.0002733739
0.00027344542
0.00027344542
0.00027337391
0.00027322979
0.00027301115
0.00027271674
0.0002723484
0.00027191574
0.00027144391
0.00027098761
0.00027065782
0.00026944773
0.00026973153
0.00027014975
0.00027059893
0.00027101977
0.00027138232
0.00027167399
0.0002718913
0.00027203477
0.00027210601
0.00027210601
0.00027203478
0.00027189131
0.00027167401
0.00027138234
0.00027101979
0.00027059895
0.00027014977
0.00026973156
0.00026944776
)
;

boundaryField
{
    Wall
    {
        type            calculated;
        value           uniform 4e-05;
    }
    frontAndBack
    {
        type            empty;
    }
    atmosphere
    {
        type            calculated;
        value           uniform 4e-05;
    }
}


// ************************************************************************* //
