/*--------------------------------*- C++ -*----------------------------------*\
| =========                 |                                                 |
| \\      /  F ield         | OpenFOAM: The Open Source CFD Toolbox           |
|  \\    /   O peration     | Version:  3.0.1                                 |
|   \\  /    A nd           | Web:      www.OpenFOAM.org                      |
|    \\/     M anipulation  |                                                 |
\*---------------------------------------------------------------------------*/
FoamFile
{
    version     2.0;
    format      ascii;
    class       volScalarField;
    location    "33";
    object      thermalDiff_foam;
}
// * * * * * * * * * * * * * * * * * * * * * * * * * * * * * * * * * * * * * //

dimensions      [0 2 -1 0 0 0 0];

internalField   nonuniform List<scalar> 
800
(
1.6276025e-07
1.6276911e-07
1.6277071e-07
1.6277088e-07
1.6277085e-07
1.6277082e-07
1.6277082e-07
1.6277083e-07
1.6277084e-07
1.6277084e-07
1.6277084e-07
1.6277084e-07
1.6277083e-07
1.6277082e-07
1.6277083e-07
1.6277085e-07
1.6277088e-07
1.6277072e-07
1.6276911e-07
1.6276026e-07
1.6213161e-07
1.6219739e-07
1.6221437e-07
1.6221851e-07
1.6221895e-07
1.6221852e-07
1.6221804e-07
1.6221769e-07
1.6221749e-07
1.622174e-07
1.622174e-07
1.6221749e-07
1.6221769e-07
1.6221804e-07
1.6221852e-07
1.6221895e-07
1.622185e-07
1.6221437e-07
1.6219739e-07
1.6213161e-07
1.6131913e-07
1.6142894e-07
1.6146636e-07
1.6147631e-07
1.6147817e-07
1.6147783e-07
1.6147711e-07
1.6147654e-07
1.6147619e-07
1.6147602e-07
1.6147602e-07
1.6147619e-07
1.6147654e-07
1.6147711e-07
1.6147782e-07
1.6147817e-07
1.6147631e-07
1.6146635e-07
1.6142893e-07
1.6131912e-07
1.6044252e-07
1.6058982e-07
1.606469e-07
1.6066254e-07
1.6066592e-07
1.606658e-07
1.6066497e-07
1.6066425e-07
1.6066379e-07
1.6066358e-07
1.6066358e-07
1.6066379e-07
1.6066425e-07
1.6066497e-07
1.6066579e-07
1.6066591e-07
1.6066254e-07
1.6064689e-07
1.6058981e-07
1.6044251e-07
1.5959213e-07
1.5976804e-07
1.5984206e-07
1.5986271e-07
1.598672e-07
1.5986719e-07
1.5986623e-07
1.5986538e-07
1.5986483e-07
1.5986458e-07
1.5986458e-07
1.5986483e-07
1.5986538e-07
1.5986623e-07
1.5986718e-07
1.598672e-07
1.598627e-07
1.5984205e-07
1.5976803e-07
1.595921e-07
1.5883826e-07
1.5903155e-07
1.5911898e-07
1.5914372e-07
1.5914871e-07
1.5914853e-07
1.5914734e-07
1.5914633e-07
1.5914568e-07
1.5914538e-07
1.5914538e-07
1.5914567e-07
1.5914632e-07
1.5914734e-07
1.5914853e-07
1.591487e-07
1.5914371e-07
1.5911896e-07
1.5903154e-07
1.5883824e-07
1.5823079e-07
1.5843012e-07
1.5852665e-07
1.5855446e-07
1.5855924e-07
1.5855856e-07
1.5855699e-07
1.5855574e-07
1.5855496e-07
1.5855461e-07
1.5855461e-07
1.5855496e-07
1.5855574e-07
1.5855699e-07
1.5855856e-07
1.5855924e-07
1.5855445e-07
1.5852664e-07
1.584301e-07
1.5823077e-07
1.5779839e-07
1.5799479e-07
1.5809558e-07
1.5812535e-07
1.5812923e-07
1.5812769e-07
1.5812557e-07
1.5812399e-07
1.5812304e-07
1.5812261e-07
1.5812261e-07
1.5812304e-07
1.5812399e-07
1.5812556e-07
1.5812769e-07
1.5812922e-07
1.5812534e-07
1.5809557e-07
1.5799478e-07
1.5779837e-07
1.5754873e-07
1.5773638e-07
1.5783619e-07
1.5786688e-07
1.5786936e-07
1.5786665e-07
1.5786379e-07
1.578618e-07
1.5786062e-07
1.5786009e-07
1.5786009e-07
1.5786061e-07
1.5786179e-07
1.5786379e-07
1.5786665e-07
1.5786936e-07
1.5786687e-07
1.5783618e-07
1.5773637e-07
1.5754871e-07
1.574754e-07
1.5765336e-07
1.5774711e-07
1.5777776e-07
1.5777871e-07
1.5777464e-07
1.5777088e-07
1.5776835e-07
1.5776689e-07
1.5776624e-07
1.5776624e-07
1.5776689e-07
1.5776835e-07
1.5777088e-07
1.5777464e-07
1.577787e-07
1.5777776e-07
1.577471e-07
1.5765335e-07
1.5747539e-07
1.5755739e-07
1.577298e-07
1.5781316e-07
1.5784305e-07
1.5784275e-07
1.5783741e-07
1.5783258e-07
1.5782941e-07
1.5782761e-07
1.5782681e-07
1.5782681e-07
1.5782761e-07
1.5782941e-07
1.5783257e-07
1.5783741e-07
1.5784274e-07
1.5784305e-07
1.5781315e-07
1.577298e-07
1.5755738e-07
1.5776795e-07
1.5794354e-07
1.5801359e-07
1.5804224e-07
1.5804139e-07
1.5803515e-07
1.5802908e-07
1.5802518e-07
1.5802299e-07
1.5802201e-07
1.5802201e-07
1.5802299e-07
1.5802518e-07
1.5802908e-07
1.5803515e-07
1.5804138e-07
1.5804223e-07
1.5801359e-07
1.5794353e-07
1.5776795e-07
1.5815287e-07
1.5834481e-07
1.5839645e-07
1.5842322e-07
1.5842539e-07
1.584201e-07
1.5841245e-07
1.5840758e-07
1.5840495e-07
1.5840372e-07
1.5840372e-07
1.5840495e-07
1.5840757e-07
1.5841245e-07
1.584201e-07
1.5842538e-07
1.5842322e-07
1.5839645e-07
1.5834481e-07
1.5815287e-07
1.5859715e-07
1.5882911e-07
1.5886824e-07
1.5889292e-07
1.5889974e-07
1.5889686e-07
1.588866e-07
1.5888055e-07
1.5887751e-07
1.5887596e-07
1.5887596e-07
1.5887751e-07
1.5888054e-07
1.5888659e-07
1.5889686e-07
1.5889974e-07
1.5889292e-07
1.5886824e-07
1.5882911e-07
1.5859715e-07
1.5906052e-07
1.5936097e-07
1.5939821e-07
1.5942087e-07
1.5943528e-07
1.5943518e-07
1.5942216e-07
1.5941461e-07
1.5941114e-07
1.5940929e-07
1.5940929e-07
1.5941114e-07
1.5941461e-07
1.5942216e-07
1.5943518e-07
1.5943528e-07
1.5942087e-07
1.5939821e-07
1.5936097e-07
1.5906052e-07
1.5952698e-07
1.5992208e-07
1.5997177e-07
1.5999367e-07
1.6001746e-07
1.6002019e-07
1.6000416e-07
1.5999458e-07
1.5999052e-07
1.5998879e-07
1.5998879e-07
1.5999052e-07
1.5999458e-07
1.6000416e-07
1.6002019e-07
1.6001746e-07
1.5999366e-07
1.5997177e-07
1.5992208e-07
1.5952698e-07
1.5996344e-07
1.6048524e-07
1.6056601e-07
1.6059108e-07
1.6062604e-07
1.6063125e-07
1.6061068e-07
1.605984e-07
1.6059345e-07
1.6059297e-07
1.6059297e-07
1.6059345e-07
1.605984e-07
1.6061068e-07
1.6063125e-07
1.6062604e-07
1.6059108e-07
1.6056601e-07
1.6048524e-07
1.5996344e-07
1.6031201e-07
1.6100322e-07
1.6113798e-07
1.6117387e-07
1.6122341e-07
1.6122967e-07
1.6120172e-07
1.61186e-07
1.6117952e-07
1.6118222e-07
1.6118222e-07
1.6117952e-07
1.61186e-07
1.6120172e-07
1.6122966e-07
1.612234e-07
1.6117387e-07
1.6113798e-07
1.6100322e-07
1.6031201e-07
1.6050262e-07
1.6141515e-07
1.6163064e-07
1.616889e-07
1.6175823e-07
1.6176278e-07
1.6172408e-07
1.6170425e-07
1.6169489e-07
1.6170326e-07
1.6170326e-07
1.6169489e-07
1.6170425e-07
1.6172407e-07
1.6176277e-07
1.6175823e-07
1.616889e-07
1.6163064e-07
1.6141515e-07
1.6050262e-07
1.6045934e-07
1.6165253e-07
1.6197931e-07
1.6207489e-07
1.6217016e-07
1.621698e-07
1.6211754e-07
1.6209305e-07
1.6207887e-07
1.6209542e-07
1.6209542e-07
1.6207887e-07
1.6209305e-07
1.6211753e-07
1.621698e-07
1.6217015e-07
1.6207489e-07
1.619793e-07
1.6165253e-07
1.6045933e-07
1.6009815e-07
1.6163912e-07
1.621126e-07
1.6226292e-07
1.6239054e-07
1.6238329e-07
1.6231625e-07
1.6228669e-07
1.6226617e-07
1.6229289e-07
1.6229289e-07
1.6226616e-07
1.6228668e-07
1.6231625e-07
1.6238328e-07
1.6239054e-07
1.6226291e-07
1.621126e-07
1.6163911e-07
1.6009814e-07
1.5932227e-07
1.6128638e-07
1.619488e-07
1.6217342e-07
1.6234106e-07
1.623268e-07
1.6224576e-07
1.6221081e-07
1.6218437e-07
1.6222229e-07
1.6222229e-07
1.6218436e-07
1.622108e-07
1.6224575e-07
1.6232679e-07
1.6234105e-07
1.6217341e-07
1.6194879e-07
1.6128637e-07
1.5932227e-07
1.5801762e-07
1.6048783e-07
1.6139073e-07
1.6171164e-07
1.6193086e-07
1.6191137e-07
1.6181763e-07
1.6177706e-07
1.6174804e-07
1.6179704e-07
1.6179704e-07
1.6174803e-07
1.6177705e-07
1.6181762e-07
1.6191136e-07
1.6193085e-07
1.6171163e-07
1.6139072e-07
1.6048782e-07
1.5801762e-07
1.5604445e-07
1.5911258e-07
1.6031966e-07
1.6076225e-07
1.6105059e-07
1.6102932e-07
1.6092383e-07
1.6087741e-07
1.6085173e-07
1.609106e-07
1.609106e-07
1.6085173e-07
1.608774e-07
1.6092382e-07
1.6102931e-07
1.6105058e-07
1.6076224e-07
1.6031965e-07
1.5911258e-07
1.5604445e-07
1.5322681e-07
1.5699677e-07
1.5858415e-07
1.5918399e-07
1.5956189e-07
1.5954755e-07
1.5943265e-07
1.5938014e-07
1.5936474e-07
1.5943129e-07
1.5943128e-07
1.5936473e-07
1.5938013e-07
1.5943264e-07
1.5954754e-07
1.5956188e-07
1.5918398e-07
1.5858415e-07
1.5699678e-07
1.5322683e-07
1.4934784e-07
1.5393629e-07
1.5599196e-07
1.5680213e-07
1.5728907e-07
1.5730106e-07
1.5718322e-07
1.5712441e-07
1.5712506e-07
1.5719641e-07
1.5719641e-07
1.5712506e-07
1.571244e-07
1.5718321e-07
1.5730105e-07
1.5728906e-07
1.5680213e-07
1.5599196e-07
1.5393632e-07
1.4934788e-07
1.441561e-07
1.4968105e-07
1.523068e-07
1.5339248e-07
1.5401437e-07
1.5408018e-07
1.539706e-07
1.5390536e-07
1.5392477e-07
1.539975e-07
1.539975e-07
1.5392477e-07
1.5390535e-07
1.5397059e-07
1.5408018e-07
1.5401437e-07
1.5339248e-07
1.5230681e-07
1.4968109e-07
1.4415618e-07
1.3739325e-07
1.4393414e-07
1.4724503e-07
1.4867788e-07
1.4946937e-07
1.4962688e-07
1.4953894e-07
1.4946728e-07
1.4950379e-07
1.4957403e-07
1.4957403e-07
1.4950379e-07
1.4946727e-07
1.4953894e-07
1.4962688e-07
1.4946938e-07
1.4867789e-07
1.4724506e-07
1.4393421e-07
1.3739338e-07
1.2886733e-07
1.3640741e-07
1.4050598e-07
1.4234437e-07
1.4335549e-07
1.4364412e-07
1.435895e-07
1.4351167e-07
1.4355911e-07
1.4362261e-07
1.4362261e-07
1.4355911e-07
1.4351167e-07
1.435895e-07
1.4364412e-07
1.433555e-07
1.423444e-07
1.4050604e-07
1.3640752e-07
1.2886751e-07
1.1859558e-07
1.2694832e-07
1.3184672e-07
1.3413319e-07
1.3540862e-07
1.3586649e-07
1.3585369e-07
1.3577114e-07
1.3581969e-07
1.3587203e-07
1.3587203e-07
1.358197e-07
1.3577115e-07
1.358537e-07
1.358665e-07
1.3540864e-07
1.3413323e-07
1.3184679e-07
1.2694847e-07
1.185958e-07
1.0702908e-07
1.1569839e-07
1.2127629e-07
1.2400927e-07
1.2551245e-07
1.2614209e-07
1.2623561e-07
1.2615476e-07
1.2619398e-07
1.262315e-07
1.262315e-07
1.2619398e-07
1.2615477e-07
1.2623562e-07
1.2614211e-07
1.2551248e-07
1.2400931e-07
1.2127638e-07
1.1569855e-07
1.0702932e-07
0.00030565463
1.0330364e-07
1.0913206e-07
1.122031e-07
1.1395076e-07
1.1466507e-07
1.1484057e-07
1.1491491e-07
1.1493712e-07
1.1495839e-07
1.149584e-07
1.1493712e-07
1.1491492e-07
1.1484058e-07
1.1466509e-07
1.1395079e-07
1.1220316e-07
1.0913215e-07
1.0330381e-07
0.00030565466
0.00029821051
0.00029829508
0.0002989751
0.00029980305
0.00030053224
0.00030112846
0.00030158067
1.0270888e-07
1.0271266e-07
1.0272043e-07
1.0272043e-07
1.0271267e-07
1.027089e-07
0.00030158068
0.00030112848
0.00030053226
0.00029980308
0.00029897513
0.00029829509
0.00029821054
0.00029160856
0.00029187735
0.00029239662
0.00029302236
0.0002936217
0.00029413687
0.00029454607
0.00029484462
0.00029504327
0.00029514283
0.00029514283
0.00029504328
0.00029484462
0.00029454608
0.00029413689
0.00029362172
0.00029302239
0.00029239664
0.00029187738
0.00029160859
0.00028572323
0.00028608149
0.00028656749
0.00028710119
0.00028761652
0.00028807014
0.00028843816
0.00028871375
0.0002888973
0.00028898906
0.00028898906
0.00028889731
0.00028871376
0.00028843817
0.00028807016
0.00028761654
0.00028710121
0.00028656752
0.00028608152
0.00028572327
0.00028059857
0.00028100139
0.00028149964
0.00028200517
0.00028247704
0.00028288791
0.00028322306
0.00028347457
0.00028364185
0.00028372534
0.00028372535
0.00028364186
0.00028347458
0.00028322307
0.00028288792
0.00028247706
0.00028200519
0.00028149967
0.00028100142
0.00028059861
0.00027632186
0.00027672921
0.00027723608
0.00027773659
0.00027819044
0.00027857807
0.00027889033
0.00027912418
0.00027927901
0.00027935604
0.00027935605
0.00027927902
0.00027912419
0.00027889034
0.00027857808
0.00027819046
0.00027773661
0.0002772361
0.00027672924
0.00027632189
0.00027297978
0.00027335825
0.00027385059
0.00027434251
0.0002747866
0.00027516256
0.0002754628
0.00027568607
0.00027583352
0.00027590667
0.00027590667
0.00027583352
0.00027568608
0.00027546281
0.00027516258
0.00027478662
0.00027434253
0.00027385061
0.00027335828
0.00027297981
0.0002706578
0.00027098758
0.00027144388
0.00027191572
0.00027234838
0.00027271672
0.00027301114
0.00027322978
0.0002733739
0.00027344542
0.00027344542
0.00027337391
0.00027322979
0.00027301115
0.00027271674
0.0002723484
0.00027191574
0.00027144391
0.00027098761
0.00027065782
0.00026944773
0.00026973153
0.00027014975
0.00027059893
0.00027101977
0.00027138232
0.00027167399
0.0002718913
0.00027203477
0.00027210601
0.00027210601
0.00027203478
0.00027189131
0.00027167401
0.00027138234
0.00027101979
0.00027059895
0.00027014977
0.00026973156
0.00026944776
)
;

boundaryField
{
    Wall
    {
        type            calculated;
        value           uniform 4e-05;
    }
    frontAndBack
    {
        type            empty;
    }
    atmosphere
    {
        type            calculated;
        value           uniform 4e-05;
    }
}


// ************************************************************************* //
