/*--------------------------------*- C++ -*----------------------------------*\
| =========                 |                                                 |
| \\      /  F ield         | OpenFOAM: The Open Source CFD Toolbox           |
|  \\    /   O peration     | Version:  3.0.1                                 |
|   \\  /    A nd           | Web:      www.OpenFOAM.org                      |
|    \\/     M anipulation  |                                                 |
\*---------------------------------------------------------------------------*/
FoamFile
{
    version     2.0;
    format      ascii;
    class       volScalarField;
    location    "33";
    object      TS;
}
// * * * * * * * * * * * * * * * * * * * * * * * * * * * * * * * * * * * * * //

dimensions      [0 0 0 1 0 0 0];

internalField   nonuniform List<scalar> 
800
(
362.94473
362.95576
362.9587
362.95925
362.95933
362.95934
362.95936
362.95939
362.95941
362.95942
362.95942
362.95941
362.95939
362.95936
362.95934
362.95933
362.95925
362.9587
362.95576
362.94473
362.47413
362.52378
362.54148
362.54695
362.54837
362.54851
362.54831
362.54808
362.54793
362.54784
362.54784
362.54792
362.54808
362.54831
362.54851
362.54837
362.54695
362.54147
362.52378
362.47413
362.02017
362.09748
362.12967
362.14022
362.14322
362.1437
362.14345
362.14311
362.14284
362.14271
362.14271
362.14284
362.1431
362.14345
362.1437
362.14321
362.14021
362.12967
362.09747
362.02015
361.64399
361.74246
361.78675
361.80159
361.80594
361.80678
361.80657
361.80618
361.80587
361.80571
361.80571
361.80587
361.80618
361.80657
361.80677
361.80593
361.80159
361.78674
361.74245
361.64398
361.37311
361.48562
361.53932
361.55739
361.56265
361.56371
361.56351
361.5631
361.56277
361.5626
361.5626
361.56277
361.5631
361.56351
361.5637
361.56265
361.55738
361.53932
361.48561
361.37309
361.23262
361.35078
361.4111
361.43119
361.43684
361.4379
361.43764
361.43719
361.43684
361.43666
361.43666
361.43684
361.43718
361.43764
361.43789
361.43684
361.43118
361.41109
361.35077
361.2326
361.2463
361.36048
361.42444
361.44532
361.45083
361.45163
361.4512
361.45066
361.45027
361.45008
361.45008
361.45027
361.45066
361.4512
361.45163
361.45082
361.44532
361.42443
361.36047
361.24629
361.43641
361.53603
361.60028
361.62071
361.62553
361.6258
361.62508
361.62438
361.62392
361.6237
361.6237
361.62392
361.62438
361.62507
361.6258
361.62552
361.62071
361.60028
361.53602
361.4364
361.82402
361.89792
361.95861
361.97733
361.98092
361.98041
361.97923
361.9783
361.97773
361.97747
361.97747
361.97773
361.9783
361.97923
361.9804
361.98092
361.97733
361.95861
361.89791
361.82401
362.42906
362.46592
362.5185
362.53428
362.53614
362.53456
362.53277
362.53151
362.53078
362.53046
362.53046
362.53078
362.53151
362.53277
362.53456
362.53614
362.53428
362.5185
362.46591
362.42905
363.27027
363.25903
363.29823
363.30991
363.30954
363.30658
363.30399
363.30228
363.30135
363.30093
363.30093
363.30135
363.30228
363.30399
363.30658
363.30954
363.30992
363.29823
363.25903
363.27027
364.36522
364.29548
364.31541
364.32196
364.31877
364.31409
364.31047
364.30817
364.30698
364.30644
364.30644
364.30698
364.30817
364.31047
364.31409
364.31878
364.32196
364.31542
364.29549
364.36523
365.73004
365.59228
365.58683
365.58739
365.58063
365.57379
365.56889
365.56584
365.56431
365.56361
365.56361
365.56431
365.56584
365.56889
365.5738
365.58063
365.58739
365.58684
365.59229
365.73005
367.37891
367.16469
367.1282
367.12211
367.11066
367.10123
367.09476
367.09074
367.08867
367.08778
367.08778
367.08868
367.09075
367.09476
367.10123
367.11067
367.12212
367.12821
367.1647
367.37893
369.32373
369.02599
368.95409
368.94088
368.92314
368.9106
368.90229
368.89711
368.89393
368.89279
368.89279
368.89393
368.89712
368.9023
368.91061
368.92315
368.94089
368.95411
369.026
369.32374
371.56997
371.1839
371.07459
371.05393
371.02781
371.01185
371.00145
370.99489
370.98936
370.98789
370.9879
370.98936
370.9949
371.00146
371.01186
371.02782
371.05394
371.07461
371.18392
371.56999
374.11627
373.63977
373.49383
373.46599
373.42976
373.41051
373.39738
373.38924
373.37918
373.37726
373.37726
373.37918
373.38924
373.39739
373.41052
373.42977
373.46601
373.49385
373.63979
374.1163
376.95324
376.38956
376.20993
376.17629
376.12965
376.10696
376.08986
376.08012
376.06232
376.05975
376.05975
376.06232
376.08012
376.08987
376.10697
376.12967
376.17631
376.20995
376.38958
376.95326
380.06368
379.42344
379.21525
379.17939
379.1228
379.09576
379.07286
379.06177
379.03197
379.02853
379.02853
379.03197
379.06178
379.07287
379.09577
379.12281
379.17941
379.21528
379.42346
380.0637
383.4204
382.72286
382.49413
382.46285
382.39667
382.36412
382.33307
382.32124
382.2743
382.26988
382.26988
382.2743
382.32125
382.33308
382.36413
382.39669
382.46287
382.49416
382.72289
383.42043
386.97949
386.25701
386.02
386.00269
385.92714
385.88805
385.84692
385.83549
385.76604
385.76077
385.76078
385.76604
385.8355
385.84693
385.88806
385.92715
386.00271
386.02002
386.25703
386.97952
390.67071
389.9743
389.74809
389.75698
389.6718
389.62547
389.57401
389.565
389.46892
389.46339
389.46339
389.46892
389.565
389.57402
389.62548
389.67181
389.757
389.74811
389.97433
390.67073
394.38277
393.78824
393.60308
393.65287
393.56015
393.506
393.44497
393.44146
393.31789
393.31325
393.31325
393.31789
393.44147
393.44498
393.50601
393.56016
393.65289
393.6031
393.78826
394.38279
397.93311
397.55108
397.45886
397.56385
397.47427
397.41001
397.33947
397.34583
397.19911
397.19722
397.19722
397.19911
397.34583
397.33948
397.41002
397.47428
397.56387
397.45888
397.55111
397.93314
401.00369
401.00561
401.09085
401.27158
401.20569
401.12939
401.05065
401.07311
400.91418
400.918
400.918
400.91418
401.07311
401.05065
401.1294
401.20571
401.2716
401.09088
401.00564
401.00373
403.03445
403.70468
404.09763
404.40737
404.38656
404.31069
404.23409
404.28142
404.1281
404.14186
404.14186
404.1281
404.28142
404.2341
404.3107
404.38658
404.4074
404.09767
403.70473
403.03453
403.0824
404.89637
405.80548
406.33354
406.40699
406.34792
406.30051
406.38432
406.26042
406.28956
406.28956
406.26042
406.38432
406.30053
406.34794
406.40702
406.33358
405.80553
404.89646
403.08254
399.68057
403.29259
405.08844
406.02435
406.2664
406.27847
406.30561
406.43973
406.37208
406.42293
406.42293
406.37209
406.43975
406.30563
406.27851
406.26645
406.02442
405.08854
403.29276
399.68084
390.78815
397.03449
400.32303
401.88268
402.36843
402.60962
402.77339
402.97242
402.98685
403.06543
403.06543
402.98687
402.97245
402.77343
402.60968
402.36851
401.88279
400.32319
397.03479
390.78862
374.48823
383.63203
389.24561
391.69203
392.71444
393.15506
393.59805
393.88931
394.00573
394.1153
394.11531
394.00576
393.88936
393.59812
393.15515
392.71457
391.69221
389.24588
383.6325
374.48885
357.24863
363.83108
369.96987
373.23756
375.17172
375.99209
376.40973
377.03748
377.27317
377.40995
377.40996
377.27321
377.03755
376.40982
375.99221
375.17188
373.23778
369.97017
363.83147
357.24872
349.60473
351.20798
353.02002
354.22553
354.95666
355.47471
355.84255
357.05687
357.25732
357.35092
357.35092
357.25733
357.0569
355.84257
355.47475
354.9567
354.22559
353.02009
351.20803
349.60476
344.81983
344.84757
345.31817
345.87437
346.35677
346.75922
347.12736
347.92228
348.18871
348.27456
348.27456
348.18871
347.92229
347.12737
346.75924
346.35679
345.87439
345.31819
344.84759
344.81985
340.56093
340.72542
341.06938
341.48332
341.87696
342.21437
342.47399
342.54803
342.67245
342.73679
342.73679
342.67246
342.54803
342.474
342.21438
341.87697
341.48333
341.0694
340.72544
340.56095
336.74634
336.97239
337.2866
337.63553
337.97226
338.26703
338.49995
338.65143
338.76426
338.82251
338.82252
338.76427
338.65144
338.49995
338.26704
337.97227
337.63554
337.28661
336.97241
336.74636
333.40856
333.66587
333.98596
334.31315
334.62025
334.88728
335.10291
335.26
335.36625
335.41985
335.41985
335.36625
335.26001
335.10292
334.88729
334.62026
334.31316
333.98597
333.66589
333.40858
330.61167
330.87414
331.20035
331.52333
331.81741
332.06908
332.2715
332.42218
332.52222
332.57215
332.57215
332.52223
332.42218
332.27151
332.06909
331.81742
331.52334
331.20037
330.87416
330.6117
328.41907
328.66439
328.9825
329.30028
329.58768
329.83149
330.02637
330.17126
330.26704
330.31462
330.31462
330.26705
330.17127
330.02638
329.8315
329.58769
329.30029
328.98251
328.66441
328.41909
326.8922
327.10673
327.40255
327.708
327.98826
328.22709
328.41816
328.56016
328.65385
328.70037
328.70037
328.65386
328.56017
328.41817
328.2271
327.98828
327.70801
327.40256
327.10675
326.89222
326.09533
326.28014
326.55177
326.84313
327.11602
327.35116
327.54043
327.68153
327.77476
327.82107
327.82107
327.77476
327.68153
327.54043
327.35117
327.11603
326.84314
326.55179
326.28016
326.09535
)
;

boundaryField
{
    Wall
    {
        type            zeroGradient;
    }
    frontAndBack
    {
        type            empty;
    }
    atmosphere
    {
        type            zeroGradient;
    }
}


// ************************************************************************* //
