/*--------------------------------*- C++ -*----------------------------------*\
| =========                 |                                                 |
| \\      /  F ield         | OpenFOAM: The Open Source CFD Toolbox           |
|  \\    /   O peration     | Version:  3.0.1                                 |
|   \\  /    A nd           | Web:      www.OpenFOAM.org                      |
|    \\/     M anipulation  |                                                 |
\*---------------------------------------------------------------------------*/
FoamFile
{
    version     2.0;
    format      ascii;
    class       volVectorField;
    location    "33";
    object      U;
}
// * * * * * * * * * * * * * * * * * * * * * * * * * * * * * * * * * * * * * //

dimensions      [0 1 -1 0 0 0 0];

internalField   nonuniform List<vector> 
800
(
(8.9602297e-06 0.00022751761 0)
(1.1207308e-05 0.00023143462 0)
(1.3494037e-05 0.00023418792 0)
(1.371774e-05 0.00023588867 0)
(1.2502051e-05 0.0002368383 0)
(1.0599812e-05 0.00023733422 0)
(8.3832123e-06 0.00023757468 0)
(6.0288622e-06 0.00023768066 0)
(3.6244322e-06 0.00023772203 0)
(1.2072082e-06 0.0002377351 0)
(-1.2120539e-06 0.00023773503 0)
(-3.6291895e-06 0.00023772183 0)
(-6.0334543e-06 0.00023768033 0)
(-8.3875602e-06 0.00023757423 0)
(-1.0603841e-05 0.00023733368 0)
(-1.2505677e-05 0.00023683767 0)
(-1.3720845e-05 0.00023588795 0)
(-1.3496463e-05 0.00023418707 0)
(-1.1208939e-05 0.00023143365 0)
(-8.9613862e-06 0.00022751657 0)
(6.963938e-06 0.00035716507 0)
(9.2242629e-06 0.00036379972 0)
(1.227263e-05 0.00036830097 0)
(1.2963891e-05 0.00037102564 0)
(1.2060607e-05 0.00037255513 0)
(1.0369877e-05 0.00037336169 0)
(8.2808434e-06 0.00037375605 0)
(5.9935399e-06 0.000373931 0)
(3.6175835e-06 0.00037399925 0)
(1.2073498e-06 0.00037402052 0)
(-1.2119288e-06 0.00037402044 0)
(-3.6220769e-06 0.00037399899 0)
(-5.9978658e-06 0.00037393057 0)
(-8.2849193e-06 0.00037375547 0)
(-1.0373624e-05 0.00037336097 0)
(-1.2063938e-05 0.00037255427 0)
(-1.2966699e-05 0.00037102463 0)
(-1.2274775e-05 0.00036829978 0)
(-9.2256419e-06 0.00036379834 0)
(-6.9648923e-06 0.00035716356 0)
(7.2358568e-06 0.00060164485 0)
(9.3383099e-06 0.00061203365 0)
(1.193903e-05 0.00061908879 0)
(1.2516095e-05 0.00062343123 0)
(1.1674471e-05 0.00062593238 0)
(1.0088187e-05 0.00062728048 0)
(8.0939984e-06 0.00062795352 0)
(5.8800164e-06 0.0006282596 0)
(3.5579281e-06 0.00062838276 0)
(1.1890467e-06 0.00062842263 0)
(-1.1930642e-06 0.00062842252 0)
(-3.5618711e-06 0.00062838243 0)
(-5.8838056e-06 0.00062825905 0)
(-8.0975564e-06 0.00062795276 0)
(-1.0091441e-05 0.00062727951 0)
(-1.1677339e-05 0.00062593119 0)
(-1.2518484e-05 0.00062342979 0)
(-1.1940823e-05 0.00061908706 0)
(-9.3394277e-06 0.00061203162 0)
(-7.236604e-06 0.0006016426 0)
(7.5585645e-06 0.00086067286 0)
(9.5780258e-06 0.00087401669 0)
(1.192978e-05 0.00088330851 0)
(1.2347468e-05 0.00088919133 0)
(1.1458591e-05 0.00089266734 0)
(9.8879087e-06 0.00089458161 0)
(7.9353545e-06 0.00089556598 0)
(5.7695195e-06 0.00089603471 0)
(3.4939001e-06 0.00089623636 0)
(1.1683691e-06 0.00089630734 0)
(-1.1717195e-06 0.0008963072 0)
(-3.4971847e-06 0.00089623593 0)
(-5.772673e-06 0.000896034 0)
(-7.9383044e-06 0.00089556499 0)
(-9.8905796e-06 0.00089458035 0)
(-1.146092e-05 0.00089266589 0)
(-1.2349389e-05 0.00088918957 0)
(-1.19312e-05 0.0008833064 0)
(-9.578885e-06 0.00087401423 0)
(-7.5591159e-06 0.00086067016 0)
(7.4883578e-06 0.001117547 0)
(9.5791367e-06 0.0011343098 0)
(1.204165e-05 0.0011458274 0)
(1.2352802e-05 0.0011531317 0)
(1.1373886e-05 0.0011574823 0)
(9.7641397e-06 0.0011599288 0)
(7.8200448e-06 0.0011612231 0)
(5.6826362e-06 0.0011618624 0)
(3.4410544e-06 0.0011621515 0)
(1.1509279e-06 0.0011622591 0)
(-1.1536031e-06 0.0011622589 0)
(-3.4436763e-06 0.0011621511 0)
(-5.6851451e-06 0.0011618616 0)
(-7.8223726e-06 0.001161222 0)
(-9.7661271e-06 0.0011599274 0)
(-1.1375576e-05 0.0011574806 0)
(-1.2354248e-05 0.0011531296 0)
(-1.20427e-05 0.0011458249 0)
(-9.5797367e-06 0.0011343069 0)
(-7.4887185e-06 0.0011175439 0)
(7.5133252e-06 0.0013769985 0)
(9.6312569e-06 0.0013975405 0)
(1.2097005e-05 0.0014113332 0)
(1.2343609e-05 0.0014200155 0)
(1.133241e-05 0.0014251829 0)
(9.7214566e-06 0.0014281097 0)
(7.7773143e-06 0.0014296745 0)
(5.6458692e-06 0.0014304581 0)
(3.4170191e-06 0.0014308191 0)
(1.1428541e-06 0.001430956 0)
(-1.1448387e-06 0.0014309558 0)
(-3.4189617e-06 0.0014308186 0)
(-5.6477234e-06 0.0014304572 0)
(-7.7790358e-06 0.0014296733 0)
(-9.7229892e-06 0.0014281081 0)
(-1.1333714e-05 0.0014251808 0)
(-1.2344654e-05 0.0014200129 0)
(-1.2097739e-05 0.0014113303 0)
(-9.6316493e-06 0.0013975372 0)
(-7.513543e-06 0.001376995 0)
(7.5923576e-06 0.0016407652 0)
(9.7355465e-06 0.0016650196 0)
(1.2188017e-05 0.0016811627 0)
(1.2378149e-05 0.0016912704 0)
(1.1324174e-05 0.0016972701 0)
(9.6925428e-06 0.0017006504 0)
(7.7416177e-06 0.0017024521 0)
(5.6137427e-06 0.001703355 0)
(3.395458e-06 0.001703772 0)
(1.1354948e-06 0.0017039307 0)
(-1.1369034e-06 0.0017039305 0)
(-3.3968328e-06 0.0017037714 0)
(-5.6150494e-06 0.0017033539 0)
(-7.7428231e-06 0.0017024507 0)
(-9.693607e-06 0.0017006485 0)
(-1.132506e-05 0.0016972678 0)
(-1.2378832e-05 0.0016912677 0)
(-1.2188474e-05 0.0016811595 0)
(-9.7357659e-06 0.001665016 0)
(-7.5924588e-06 0.0016407614 0)
(7.6848242e-06 0.0019070327 0)
(9.8542366e-06 0.0019350049 0)
(1.231095e-05 0.0019535174 0)
(1.2456738e-05 0.0019650594 0)
(1.1361933e-05 0.0019718892 0)
(9.7047906e-06 0.0019757285 0)
(7.7399523e-06 0.0019777744 0)
(5.6068116e-06 0.0019788022 0)
(3.3892192e-06 0.0019792794 0)
(1.1332456e-06 0.0019794621 0)
(-1.1341287e-06 0.0019794619 0)
(-3.3900755e-06 0.0019792788 0)
(-5.6076222e-06 0.0019788011 0)
(-7.7406873e-06 0.0019777729 0)
(-9.7054193e-06 0.0019757265 0)
(-1.1362436e-05 0.0019718868 0)
(-1.2457101e-05 0.0019650565 0)
(-1.2311163e-05 0.0019535141 0)
(-9.8543055e-06 0.0019350013 0)
(-7.6848303e-06 0.0019070289 0)
(7.7926072e-06 0.0021749736 0)
(9.9889239e-06 0.0022067097 0)
(1.2464779e-05 0.0022276234 0)
(1.2577633e-05 0.0022406141 0)
(1.1444403e-05 0.0022482758 0)
(9.7588479e-06 0.0022525711 0)
(7.7738178e-06 0.0022548572 0)
(5.6265808e-06 0.0022560064 0)
(3.3994089e-06 0.0022565414 0)
(1.1365207e-06 0.002256747 0)
(-1.1369097e-06 0.0022567468 0)
(-3.399776e-06 0.0022565407 0)
(-5.6269198e-06 0.0022560053 0)
(-7.7741099e-06 0.0022548557 0)
(-9.759074e-06 0.0022525691 0)
(-1.1444552e-05 0.0022482733 0)
(-1.2577705e-05 0.0022406111 0)
(-1.2464779e-05 0.0022276201 0)
(-9.9888701e-06 0.002206706 0)
(-7.7925467e-06 0.0021749697 0)
(7.9337147e-06 0.0024433429 0)
(1.0161882e-05 0.002478868 0)
(1.2667284e-05 0.0025022694 0)
(1.2749946e-05 0.0025167596 0)
(1.1575685e-05 0.0025252787 0)
(9.8565578e-06 0.0025300453 0)
(7.8440693e-06 0.0025325817 0)
(5.6734628e-06 0.002533859 0)
(3.4262384e-06 0.0025344562 0)
(1.1453999e-06 0.0025346868 0)
(-1.1452998e-06 0.0025346866 0)
(-3.4261308e-06 0.0025344555 0)
(-5.6733444e-06 0.0025338578 0)
(-7.8439364e-06 0.00253258 0)
(-9.8564019e-06 0.0025300431 0)
(-1.1575509e-05 0.002525276 0)
(-1.2749758e-05 0.0025167565 0)
(-1.2667101e-05 0.0025022659 0)
(-1.0161732e-05 0.0024788642 0)
(-7.9336114e-06 0.0024433389 0)
(8.0789616e-06 0.0027125267 0)
(1.0392374e-05 0.0027519515 0)
(1.3005177e-05 0.0027778339 0)
(1.3028282e-05 0.0027938087 0)
(1.1791916e-05 0.0028031694 0)
(1.0026188e-05 0.0028083901 0)
(7.972374e-06 0.0028111611 0)
(5.7626373e-06 0.0028125539 0)
(3.4787165e-06 0.0028132043 0)
(1.1628632e-06 0.0028134554 0)
(-1.1623229e-06 0.0028134552 0)
(-3.4781762e-06 0.0028132036 0)
(-5.7621038e-06 0.0028125527 0)
(-7.9718594e-06 0.0028111594 0)
(-1.0025701e-05 0.002808388 0)
(-1.1791466e-05 0.0028031668 0)
(-1.3027883e-05 0.0027938056 0)
(-1.3004857e-05 0.0027778304 0)
(-1.0392169e-05 0.0027519478 0)
(-8.0788513e-06 0.0027125228 0)
(8.3563622e-06 0.0029842065 0)
(1.0707539e-05 0.0030276102 0)
(1.3338116e-05 0.0030559485 0)
(1.3314559e-05 0.0030733842 0)
(1.2022578e-05 0.0030835735 0)
(1.0209079e-05 0.0030892339 0)
(8.1114193e-06 0.003092223 0)
(5.8593297e-06 0.0030937173 0)
(3.5355188e-06 0.0030944115 0)
(1.1817364e-06 0.0030946781 0)
(-1.1807254e-06 0.0030946779 0)
(-3.5345225e-06 0.0030944108 0)
(-5.8583645e-06 0.0030937161 0)
(-8.1105093e-06 0.0030922214 0)
(-1.020824e-05 0.0030892319 0)
(-1.2021827e-05 0.003083571 0)
(-1.3313936e-05 0.0030733813 0)
(-1.3337656e-05 0.0030559453 0)
(-1.0707266e-05 0.0030276066 0)
(-8.3562343e-06 0.0029842027 0)
(8.7373889e-06 0.0032591607 0)
(1.1109051e-05 0.0033065393 0)
(1.3729355e-05 0.0033373912 0)
(1.3659369e-05 0.0033563129 0)
(1.2309751e-05 0.0033673396 0)
(1.0434091e-05 0.0033734457 0)
(8.2781447e-06 0.003376654 0)
(5.9740397e-06 0.0033782521 0)
(3.602527e-06 0.0033789929 0)
(1.2037984e-06 0.003379276 0)
(-1.2023108e-06 0.0033792758 0)
(-3.6010716e-06 0.0033789922 0)
(-5.9726392e-06 0.003378251 0)
(-8.2768285e-06 0.0033766525 0)
(-1.0432892e-05 0.0033734437 0)
(-1.2308705e-05 0.0033673372 0)
(-1.3658513e-05 0.0033563102 0)
(-1.3728733e-05 0.0033373881 0)
(-1.11087e-05 0.0033065359 0)
(-8.7372344e-06 0.0032591571 0)
(9.2387773e-06 0.0035381077 0)
(1.1618431e-05 0.0035894817 0)
(1.4182005e-05 0.0036228525 0)
(1.4046955e-05 0.0036432395 0)
(1.2633394e-05 0.0036550753 0)
(1.0683321e-05 0.0036616019 0)
(8.4584017e-06 0.0036650154 0)
(6.0989549e-06 0.0036667094 0)
(3.6753488e-06 0.0036674932 0)
(1.2272603e-06 0.0036677899 0)
(-1.2252924e-06 0.0036677897 0)
(-3.6734222e-06 0.0036674926 0)
(-6.0971069e-06 0.0036667083 0)
(-8.4566745e-06 0.003665014 0)
(-1.0681762e-05 0.0036616001 0)
(-1.2632046e-05 0.0036550731 0)
(-1.4045856e-05 0.003643237 0)
(-1.4181208e-05 0.0036228496 0)
(-1.1617985e-05 0.0035894785 0)
(-9.23857e-06 0.0035381043 0)
(9.8155818e-06 0.0038206806 0)
(1.2200225e-05 0.0038760341 0)
(1.4678051e-05 0.0039119624 0)
(1.4453359e-05 0.0039338157 0)
(1.2969067e-05 0.0039464508 0)
(1.0938372e-05 0.0039533967 0)
(8.6416683e-06 0.0039570277 0)
(6.2260905e-06 0.0039588293 0)
(3.7484849e-06 0.0039596668 0)
(1.2497932e-06 0.0039599814 0)
(-1.2473387e-06 0.0039599812 0)
(-3.746087e-06 0.0039596662 0)
(-6.2237944e-06 0.0039588283 0)
(-8.6395286e-06 0.0039570263 0)
(-1.0936442e-05 0.003953395 0)
(-1.2967399e-05 0.0039464488 0)
(-1.4452002e-05 0.0039338134 0)
(-1.4677062e-05 0.0039119598 0)
(-1.2199662e-05 0.0038760312 0)
(-9.8152907e-06 0.0038206774 0)
(1.036767e-05 0.0041095864 0)
(1.2824719e-05 0.0041689902 0)
(1.5285518e-05 0.004207361 0)
(1.4917896e-05 0.0042305649 0)
(1.334866e-05 0.0042438937 0)
(1.123532e-05 0.0042511803 0)
(8.8613568e-06 0.004254972 0)
(6.381158e-06 0.0042568404 0)
(3.8382147e-06 0.0042577084 0)
(1.2764256e-06 0.0042580299 0)
(-1.2735265e-06 0.0042580297 0)
(-3.8353762e-06 0.0042577079 0)
(-6.378445e-06 0.0042568396 0)
(-8.8588296e-06 0.0042549708 0)
(-1.1233042e-05 0.0042511788 0)
(-1.3346692e-05 0.0042438919 0)
(-1.4916288e-05 0.0042305628 0)
(-1.5284323e-05 0.0042073587 0)
(-1.2824023e-05 0.0041689877 0)
(-1.0367282e-05 0.0041095837 0)
(1.096059e-05 0.0044064556 0)
(1.3419566e-05 0.0044699559 0)
(1.5736663e-05 0.0045107525 0)
(1.5221112e-05 0.0045352565 0)
(1.3584896e-05 0.0045492328 0)
(1.1415339e-05 0.004556829 0)
(8.9874166e-06 0.0045607588 0)
(6.4699312e-06 0.0045626823 0)
(3.8901007e-06 0.0045635809 0)
(1.289893e-06 0.0045639099 0)
(-1.2865049e-06 0.0045639098 0)
(-3.8867898e-06 0.0045635804 0)
(-6.4667698e-06 0.0045626814 0)
(-8.9844785e-06 0.0045607576 0)
(-1.1412693e-05 0.0045568276 0)
(-1.3582601e-05 0.0045492311 0)
(-1.5219228e-05 0.0045352546 0)
(-1.5735255e-05 0.0045107504 0)
(-1.3418732e-05 0.0044699536 0)
(-1.0960091e-05 0.0044064532 0)
(1.1499081e-05 0.0047124492 0)
(1.4057315e-05 0.0047801124 0)
(1.6292713e-05 0.0048232324 0)
(1.5550016e-05 0.0048489252 0)
(1.3831321e-05 0.0048634433 0)
(1.1601661e-05 0.0048712524 0)
(9.1159664e-06 0.0048752415 0)
(6.5704495e-06 0.0048771659 0)
(3.9564791e-06 0.0048780613 0)
(1.3076259e-06 0.0048783843 0)
(-1.3038958e-06 0.0048783841 0)
(-3.9528319e-06 0.0048780609 0)
(-6.5669628e-06 0.0048771652 0)
(-9.1127074e-06 0.0048752406 0)
(-1.1598713e-05 0.0048712513 0)
(-1.3828761e-05 0.004863442 0)
(-1.55479e-05 0.0048489237 0)
(-1.6291121e-05 0.0048232309 0)
(-1.4056389e-05 0.0047801107 0)
(-1.149852e-05 0.0047124474 0)
(1.2076759e-05 0.0050314802 0)
(1.4627679e-05 0.0051033122 0)
(1.6580608e-05 0.0051485313 0)
(1.5602303e-05 0.0051752091 0)
(1.3800004e-05 0.0051900897 0)
(1.1523377e-05 0.0051979546 0)
(9.0229611e-06 0.0052018794 0)
(6.5144788e-06 0.0052037146 0)
(3.9360751e-06 0.0052045418 0)
(1.2990807e-06 0.0052048302 0)
(-1.2948591e-06 0.0052048301 0)
(-3.9319441e-06 0.0052045416 0)
(-6.5105368e-06 0.0052037144 0)
(-9.0192834e-06 0.0052018791 0)
(-1.1520053e-05 0.0051979541 0)
(-1.3797128e-05 0.0051900892 0)
(-1.5599947e-05 0.0051752085 0)
(-1.6578857e-05 0.0051485307 0)
(-1.4626667e-05 0.0051033115 0)
(-1.2076149e-05 0.0050314795 0)
(1.2591315e-05 0.0053649724 0)
(1.5113785e-05 0.0054408519 0)
(1.6692845e-05 0.0054880827 0)
(1.5437814e-05 0.0055156259 0)
(1.3533658e-05 0.0055307721 0)
(1.1212419e-05 0.0055386296 0)
(8.7355137e-06 0.0055424557 0)
(6.3190956e-06 0.0055441795 0)
(3.8377215e-06 0.0055449196 0)
(1.2677618e-06 0.0055451646 0)
(-1.2630325e-06 0.0055451646 0)
(-3.8331009e-06 0.0055449196 0)
(-6.3146842e-06 0.0055441795 0)
(-8.7313963e-06 0.0055424556 0)
(-1.1208699e-05 0.0055386296 0)
(-1.3530448e-05 0.0055307721 0)
(-1.5435202e-05 0.005515626 0)
(-1.669093e-05 0.0054880828 0)
(-1.5112707e-05 0.0054408521 0)
(-1.2590686e-05 0.0053649726 0)
(1.2979714e-05 0.0057146497 0)
(1.5436699e-05 0.0057944939 0)
(1.6531787e-05 0.0058435039 0)
(1.4959887e-05 0.0058716768 0)
(1.2946542e-05 0.0058868882 0)
(1.060387e-05 0.005894603 0)
(8.2015234e-06 0.0058982435 0)
(5.938198e-06 0.0058997908 0)
(3.6296781e-06 0.0059003973 0)
(1.2035846e-06 0.0059005755 0)
(-1.1983392e-06 0.0059005756 0)
(-3.6245511e-06 0.0059003974 0)
(-5.933292e-06 0.0058997911 0)
(-8.1969337e-06 0.005898244 0)
(-1.059973e-05 0.0058946036 0)
(-1.2942983e-05 0.0058868889 0)
(-1.4957002e-05 0.0058716777 0)
(-1.6529696e-05 0.0058435048 0)
(-1.5435542e-05 0.005794495 0)
(-1.297906e-05 0.0057146508 0)
(1.3168792e-05 0.0060831916 0)
(1.5502134e-05 0.0061668848 0)
(1.597426e-05 0.0062174005 0)
(1.404482e-05 0.0062459306 0)
(1.1938592e-05 0.0062609772 0)
(9.6319087e-06 0.0062683838 0)
(7.3717383e-06 0.006271728 0)
(5.3307598e-06 0.0062730218 0)
(3.2849013e-06 0.0062734507 0)
(1.0969021e-06 0.0062735393 0)
(-1.0911142e-06 0.0062735394 0)
(-3.2792349e-06 0.006273451 0)
(-5.32533e-06 0.0062730224 0)
(-7.3666423e-06 0.0062717289 0)
(-9.6273118e-06 0.0062683849 0)
(-1.1934631e-05 0.0062609786 0)
(-1.4041605e-05 0.0062459323 0)
(-1.5971947e-05 0.0062174024 0)
(-1.5500873e-05 0.0061668868 0)
(-1.3168101e-05 0.0060831936 0)
(1.3063244e-05 0.006473435 0)
(1.5183069e-05 0.006560849 0)
(1.4862351e-05 0.0066125847 0)
(1.254478e-05 0.0066411615 0)
(1.0389664e-05 0.0066558042 0)
(8.2041485e-06 0.0066626865 0)
(6.1807572e-06 0.006665578 0)
(4.4581699e-06 0.0066665205 0)
(2.7839267e-06 0.0066667264 0)
(9.3985776e-07 0.0066667032 0)
(-9.3350413e-07 0.0066667034 0)
(-2.7777129e-06 0.006666727 0)
(-4.4521938e-06 0.0066665213 0)
(-6.1750897e-06 0.0066655793 0)
(-8.1990258e-06 0.0066626882 0)
(-1.038523e-05 0.0066558063 0)
(-1.2541173e-05 0.0066411641 0)
(-1.4859773e-05 0.0066125877 0)
(-1.5181703e-05 0.0065608521 0)
(-1.3062515e-05 0.0064734379 0)
(1.2551288e-05 0.0068882132 0)
(1.4314825e-05 0.006979265 0)
(1.2981026e-05 0.0070319825 0)
(1.0276426e-05 0.007060303 0)
(8.150687e-06 0.0070742917 0)
(6.1797124e-06 0.0070803903 0)
(4.5344813e-06 0.007082634 0)
(3.2775587e-06 0.0070831135 0)
(2.1101222e-06 0.007083045 0)
(7.2487512e-07 0.0070828886 0)
(-7.178993e-07 0.0070828888 0)
(-2.1033532e-06 0.0070830458 0)
(-3.2710244e-06 0.0070831146 0)
(-4.5281585e-06 0.0070826356 0)
(-6.1740192e-06 0.0070803925 0)
(-8.1456942e-06 0.0070742944 0)
(-1.0272323e-05 0.0070603064 0)
(-1.2978122e-05 0.0070319864 0)
(-1.4313392e-05 0.006979269 0)
(-1.2550571e-05 0.0068882168 0)
(1.1510251e-05 0.0073299888 0)
(1.2686467e-05 0.0074248058 0)
(1.006658e-05 0.0074784228 0)
(7.015305e-06 0.0075062906 0)
(5.0390401e-06 0.0075193487 0)
(3.4030248e-06 0.0075244218 0)
(2.3397281e-06 0.007525823 0)
(1.7485479e-06 0.0075257381 0)
(1.246599e-06 0.0075253389 0)
(4.4629635e-07 0.0075250358 0)
(-4.3867244e-07 0.0075250361 0)
(-1.2393772e-06 0.0075253397 0)
(-1.741597e-06 0.0075257396 0)
(-2.3327802e-06 0.0075258251 0)
(-3.396704e-06 0.0075244246 0)
(-5.0333751e-06 0.0075193522 0)
(-7.0105876e-06 0.0075062952 0)
(-1.0063335e-05 0.007478428 0)
(-1.2685031e-05 0.0074248113 0)
(-1.15096e-05 0.0073299936 0)
(9.8563393e-06 0.007800063 0)
(1.0061761e-05 0.0078993663 0)
(5.8239906e-06 0.0079541663 0)
(2.4972331e-06 0.0079815988 0)
(8.5984946e-07 0.00799344 0)
(-2.2070397e-07 0.007997299 0)
(-4.5244809e-07 0.007997718 0)
(-1.4370552e-07 0.0079969834 0)
(1.8939597e-07 0.0079962145 0)
(1.0581086e-07 0.0079957586 0)
(-9.7726042e-08 0.007995759 0)
(-1.8149584e-07 0.0079962154 0)
(1.5139546e-07 0.0079969853 0)
(4.5997133e-07 0.0079977206 0)
(2.2770303e-07 0.0079973026 0)
(-8.5329698e-07 0.0079934447 0)
(-2.4916166e-06 0.0079816046 0)
(-5.8200623e-06 0.0079541732 0)
(-1.0059916e-05 0.0078993736 0)
(-9.8554317e-06 0.0078000685 0)
(7.6261474e-06 0.0082968474 0)
(6.2394858e-06 0.0084026965 0)
(-8.9486829e-08 0.0084598099 0)
(-3.5761797e-06 0.0084870893 0)
(-4.5902496e-06 0.0084976798 0)
(-4.7013066e-06 0.0085002324 0)
(-3.8174624e-06 0.0084996081 0)
(-2.3812766e-06 0.0084981732 0)
(-1.0460365e-06 0.008497048 0)
(-2.9269916e-07 0.008496463 0)
(3.0134266e-07 0.0084964634 0)
(1.0544935e-06 0.0084970493 0)
(2.3896046e-06 0.0084981757 0)
(3.825774e-06 0.0084996117 0)
(4.7091647e-06 0.0085002372 0)
(4.597574e-06 0.0084976863 0)
(3.5827846e-06 0.0084870973 0)
(9.4596604e-08 0.0084598197 0)
(-6.2367425e-06 0.0084027074 0)
(-7.624384e-06 0.0082968564 0)
(4.9599321e-06 0.0088128662 0)
(1.1941044e-06 0.0089301935 0)
(-8.0070736e-06 0.0089922595 0)
(-1.1383205e-05 0.009020285 0)
(-1.126527e-05 0.0090301558 0)
(-9.9398936e-06 0.0090316697 0)
(-7.6396764e-06 0.0090300084 0)
(-4.8627435e-06 0.0090278804 0)
(-2.3762537e-06 0.0090264548 0)
(-7.1766197e-07 0.0090257694 0)
(7.2704092e-07 0.0090257699 0)
(2.3856191e-06 0.0090264563 0)
(4.8721153e-06 0.0090278827 0)
(7.6489652e-06 0.0090300118 0)
(9.9489665e-06 0.0090316745 0)
(1.1274065e-05 0.0090301625 0)
(1.1391373e-05 0.0090202935 0)
(8.0140197e-06 0.0089922702 0)
(-1.1898279e-06 0.0089302067 0)
(-4.9569423e-06 0.0088128789 0)
(2.1305618e-06 0.0093307943 0)
(-4.7310803e-06 0.0094695527 0)
(-1.7928372e-05 0.0095417531 0)
(-2.0607459e-05 0.0095728509 0)
(-1.8598546e-05 0.0095833682 0)
(-1.5573276e-05 0.0095850552 0)
(-1.1760317e-05 0.009582846 0)
(-7.4484281e-06 0.0095798849 0)
(-3.7349036e-06 0.0095782418 0)
(-1.1590025e-06 0.0095775241 0)
(1.1688386e-06 0.0095775245 0)
(3.7444585e-06 0.0095782431 0)
(7.4578953e-06 0.0095798869 0)
(1.1770258e-05 0.009582849 0)
(1.5583284e-05 0.0095850592 0)
(1.860814e-05 0.0095833743 0)
(2.0616492e-05 0.0095728592 0)
(1.7937055e-05 0.0095417648 0)
(4.737323e-06 0.0094695674 0)
(-2.1258001e-06 0.0093308104 0)
(-8.814143e-07 0.0098243077 0)
(-1.0635792e-05 0.0099981468 0)
(-2.8559888e-05 0.010088882 0)
(-2.9728968e-05 0.010127509 0)
(-2.4999831e-05 0.010140646 0)
(-2.0323226e-05 0.010144699 0)
(-1.5871423e-05 0.010144267 0)
(-1.0186812e-05 0.01014084 0)
(-4.985055e-06 0.010139192 0)
(-1.5478444e-06 0.010138546 0)
(1.5579752e-06 0.010138546 0)
(4.9951907e-06 0.010139193 0)
(1.0196995e-05 0.010140843 0)
(1.5881583e-05 0.01014427 0)
(2.0333898e-05 0.010144704 0)
(2.5010694e-05 0.010140653 0)
(2.9739769e-05 0.010127519 0)
(2.8570429e-05 0.010088896 0)
(1.0645032e-05 0.0099981674 0)
(8.8947771e-07 0.0098243309 0)
(-9.6841119e-06 0.010324953 0)
(-1.8904437e-05 0.010515847 0)
(-3.6395039e-05 0.010605623 0)
(-3.6373204e-05 0.010654253 0)
(-2.8888375e-05 0.010677235 0)
(-2.134364e-05 0.01068543 0)
(-1.786369e-05 0.010688165 0)
(-1.2584009e-05 0.01068898 0)
(-5.9754194e-06 0.010688067 0)
(-1.8548151e-06 0.010687597 0)
(1.8654606e-06 0.010687597 0)
(5.9860542e-06 0.010688068 0)
(1.2594744e-05 0.010688982 0)
(1.7874289e-05 0.010688168 0)
(2.1354551e-05 0.010685435 0)
(2.8900142e-05 0.010677243 0)
(3.6385346e-05 0.010654264 0)
(3.6409575e-05 0.010605637 0)
(1.8918017e-05 0.010515867 0)
(9.6937588e-06 0.010324988 0)
(-8.4916789e-05 0.010751047 0)
(-9.7357822e-05 0.010994515 0)
(-6.62542e-05 0.011120717 0)
(-3.6748216e-05 0.011187899 0)
(-2.5568962e-05 0.011218834 0)
(-1.8585514e-05 0.011229752 0)
(-1.39189e-05 0.011232657 0)
(-1.0125761e-05 0.011236829 0)
(-6.0899871e-06 0.011236549 0)
(-2.0210562e-06 0.011236246 0)
(2.0321859e-06 0.011236246 0)
(6.1008108e-06 0.01123655 0)
(1.0136698e-05 0.01123683 0)
(1.3930657e-05 0.011232659 0)
(1.8598635e-05 0.011229756 0)
(2.5582091e-05 0.01121884 0)
(3.6760283e-05 0.011187907 0)
(6.6266729e-05 0.01112073 0)
(9.7376573e-05 0.010994531 0)
(8.4931256e-05 0.010751076 0)
(0.00028693914 0.010947148 0)
(0.00010583428 0.011478122 0)
(2.1087996e-05 0.011606631 0)
(-2.6983464e-06 0.011662128 0)
(-1.1853757e-05 0.011683746 0)
(-8.8663278e-06 0.011692445 0)
(-7.1403515e-06 0.011691458 0)
(-5.9603498e-06 0.01168559 0)
(-4.4256565e-06 0.011683787 0)
(-1.6559679e-06 0.011683197 0)
(1.6677955e-06 0.011683197 0)
(4.4366037e-06 0.011683788 0)
(5.9716831e-06 0.011685591 0)
(7.1524637e-06 0.011691458 0)
(8.8794017e-06 0.011692445 0)
(1.1865718e-05 0.011683745 0)
(2.7102675e-06 0.011662129 0)
(-2.1076107e-05 0.011606634 0)
(-0.00010582319 0.011478131 0)
(-0.0002869173 0.010947213 0)
(0.0011779156 0.009702721 0)
(0.0012650431 0.011580346 0)
(0.0007351251 0.011817723 0)
(0.00040623198 0.011907018 0)
(0.00022218512 0.011946499 0)
(0.0001352086 0.011964533 0)
(8.2675552e-05 0.011964835 0)
(4.4053171e-05 0.011948329 0)
(2.2726154e-05 0.011948147 0)
(7.0130512e-06 0.011948753 0)
(-7.0040401e-06 0.011948753 0)
(-2.2717606e-05 0.011948148 0)
(-4.4044245e-05 0.011948335 0)
(-8.2666349e-05 0.011964835 0)
(-0.00013520007 0.011964536 0)
(-0.0002221795 0.011946501 0)
(-0.0004062272 0.011907027 0)
(-0.00073511921 0.011817744 0)
(-0.0012650207 0.011580383 0)
(-0.0011778665 0.0097028615 0)
(0.0011918072 0.0078992589 0)
(0.0022047811 0.011185151 0)
(0.0022396851 0.011798708 0)
(0.0017809909 0.011929116 0)
(0.0012568923 0.011941244 0)
(0.00089040182 0.011923587 0)
(0.00059772148 0.011889768 0)
(0.00038513266 0.011853601 0)
(0.00021548397 0.011829879 0)
(7.0117233e-05 0.011818133 0)
(-7.0118459e-05 0.011818136 0)
(-0.00021548522 0.011829887 0)
(-0.00038513293 0.011853613 0)
(-0.00059772264 0.011889778 0)
(-0.00089040815 0.0119236 0)
(-0.0012568925 0.011941259 0)
(-0.0017809872 0.011929143 0)
(-0.0022396701 0.011798738 0)
(-0.0022047509 0.011185217 0)
(-0.0011917792 0.0078993634 0)
(0.00085666474 0.0062337828 0)
(0.0020558796 0.01044407 0)
(0.0024880447 0.011803339 0)
(0.002329654 0.012150529 0)
(0.0018923581 0.012229487 0)
(0.0014592542 0.012169855 0)
(0.001051011 0.012088968 0)
(0.00069545968 0.012006432 0)
(0.00039909573 0.011939896 0)
(0.0001321718 0.011904121 0)
(-0.00013218181 0.011904124 0)
(-0.00039910568 0.011939905 0)
(-0.0006954696 0.012006445 0)
(-0.0010510233 0.01208898 0)
(-0.0014592693 0.012169868 0)
(-0.0018923546 0.012229504 0)
(-0.0023296507 0.012150544 0)
(-0.0024880737 0.011803355 0)
(-0.0020558455 0.010444077 0)
(-0.00085663681 0.0062338755 0)
(0.00053463311 0.0049538497 0)
(0.0015981824 0.0095833214 0)
(0.0021867419 0.011577435 0)
(0.0022476707 0.012322018 0)
(0.0019906094 0.012547783 0)
(0.001634422 0.012535853 0)
(0.001243766 0.012429251 0)
(0.00085477331 0.012316433 0)
(0.0004968441 0.012222893 0)
(0.00016659187 0.012168791 0)
(-0.00016660736 0.012168795 0)
(-0.00049685925 0.012222901 0)
(-0.00085478878 0.012316443 0)
(-0.001243784 0.012429261 0)
(-0.0016344429 0.012535865 0)
(-0.0019906153 0.012547794 0)
(-0.0022476733 0.012322022 0)
(-0.0021867638 0.011577445 0)
(-0.0015982031 0.0095833821 0)
(-0.000534651 0.0049539403 0)
(0.00031136337 0.004084818 0)
(0.0011253034 0.0087834526 0)
(0.0017182202 0.011206086 0)
(0.0018985412 0.01232054 0)
(0.0017976294 0.01276575 0)
(0.0015572746 0.012858596 0)
(0.0012351995 0.012783458 0)
(0.0008808226 0.012662633 0)
(0.00052348055 0.012557623 0)
(0.0001764143 0.012495626 0)
(-0.00017643379 0.012495629 0)
(-0.00052349979 0.012557629 0)
(-0.00088084193 0.012662641 0)
(-0.00123522 0.012783466 0)
(-0.001557299 0.012858604 0)
(-0.001797641 0.012765758 0)
(-0.0018985514 0.01232054 0)
(-0.0017182421 0.011206099 0)
(-0.0011253199 0.0087834997 0)
(-0.00031137423 0.0040849035 0)
(0.00017952152 0.003501605 0)
(0.00074009152 0.0081152541 0)
(0.0012492368 0.010804783 0)
(0.0014872535 0.012217622 0)
(0.0014978734 0.01287727 0)
(0.0013527119 0.013094903 0)
(0.0011099099 0.013083056 0)
(0.0008141676 0.012984472 0)
(0.00049422562 0.012882277 0)
(0.00016863963 0.012821007 0)
(-0.00016866096 0.012821009 0)
(-0.00049424683 0.012882283 0)
(-0.0008141889 0.01298448 0)
(-0.0011099318 0.013083064 0)
(-0.0013527365 0.01309491 0)
(-0.0014978945 0.012877279 0)
(-0.0014872674 0.012217621 0)
(-0.0012492563 0.010804794 0)
(-0.0007401124 0.0081152891 0)
(-0.00017953016 0.0035016608 0)
(0.0001162797 0.0030725177 0)
(0.00049122924 0.0075597917 0)
(0.00089726492 0.010413965 0)
(0.0011358097 0.012059423 0)
(0.0011984627 0.012908294 0)
(0.0011201179 0.013266242 0)
(0.00094392167 0.01335251 0)
(0.00070880703 0.013313435 0)
(0.00043797889 0.013242208 0)
(0.00015080134 0.013194559 0)
(-0.00015082302 0.013194562 0)
(-0.00043800007 0.013242214 0)
(-0.0007088287 0.013313443 0)
(-0.00094394412 0.013352519 0)
(-0.0011201415 0.01326625 0)
(-0.0011984863 0.012908303 0)
(-0.0011358308 0.012059428 0)
(-0.00089728422 0.010413972 0)
(-0.00049124943 0.0075598198 0)
(-0.00011628953 0.0030725575 0)
)
;

boundaryField
{
    Wall
    {
        type            fixedValue;
        value           uniform (0 0 0);
    }
    frontAndBack
    {
        type            empty;
    }
    atmosphere
    {
        type            pressureInletOutletVelocity;
        value           nonuniform List<vector> 
20
(
(0.0001162797 0.0030725177 0)
(0.00049122924 0.0075597917 0)
(0.00089726492 0.010413965 0)
(0.0011358097 0.012059423 0)
(0.0011984627 0.012908294 0)
(0.0011201179 0.013266242 0)
(0.00094392167 0.01335251 0)
(0.00070880703 0.013313435 0)
(0.00043797889 0.013242208 0)
(0.00015080134 0.013194559 0)
(-0.00015082302 0.013194562 0)
(-0.00043800007 0.013242214 0)
(-0.0007088287 0.013313443 0)
(-0.00094394412 0.013352519 0)
(-0.0011201415 0.01326625 0)
(-0.0011984863 0.012908303 0)
(-0.0011358308 0.012059428 0)
(-0.00089728422 0.010413972 0)
(-0.00049124943 0.0075598198 0)
(-0.00011628953 0.0030725575 0)
)
;
    }
}


// ************************************************************************* //
