/*--------------------------------*- C++ -*----------------------------------*\
| =========                 |                                                 |
| \\      /  F ield         | OpenFOAM: The Open Source CFD Toolbox           |
|  \\    /   O peration     | Version:  3.0.1                                 |
|   \\  /    A nd           | Web:      www.OpenFOAM.org                      |
|    \\/     M anipulation  |                                                 |
\*---------------------------------------------------------------------------*/
FoamFile
{
    version     2.0;
    format      ascii;
    class       volScalarField;
    location    "33";
    object      wBA_l;
}
// * * * * * * * * * * * * * * * * * * * * * * * * * * * * * * * * * * * * * //

dimensions      [0 0 0 0 0 0 0];

internalField   nonuniform List<scalar> 
800
(
0.04124667
0.041244671
0.041243513
0.041243235
0.041243152
0.041243097
0.041243058
0.041243032
0.041243017
0.041243011
0.041243011
0.041243017
0.041243032
0.041243058
0.041243097
0.041243152
0.041243235
0.041243513
0.041244671
0.04124667
0.041768229
0.041746072
0.041739738
0.041738122
0.041737787
0.041737755
0.041737782
0.041737806
0.041737817
0.04173782
0.04173782
0.041737817
0.041737806
0.041737783
0.041737756
0.041737787
0.041738123
0.041739739
0.041746074
0.041768231
0.042060636
0.042028592
0.042018771
0.042016102
0.042015398
0.042015217
0.042015164
0.042015136
0.042015114
0.042015102
0.042015102
0.042015114
0.042015137
0.042015165
0.042015217
0.042015399
0.042016103
0.042018772
0.042028594
0.042060639
0.042183711
0.042150554
0.042139956
0.042137271
0.042136579
0.04213637
0.04213626
0.042136172
0.042136103
0.042136065
0.042136065
0.042136103
0.042136172
0.04213626
0.04213637
0.042136579
0.042137271
0.042139957
0.042150555
0.042183712
0.042141528
0.042113907
0.042104974
0.042103199
0.042102923
0.042102794
0.042102642
0.042102486
0.042102358
0.042102289
0.042102289
0.042102358
0.042102486
0.042102642
0.042102793
0.042102923
0.042103198
0.042104974
0.042113907
0.042141529
0.041939647
0.041924435
0.041918772
0.041918447
0.041918753
0.041918839
0.041918722
0.041918536
0.041918368
0.041918275
0.041918275
0.041918368
0.041918536
0.041918722
0.041918838
0.041918752
0.041918446
0.041918771
0.041924434
0.041939645
0.041593234
0.041596164
0.041595425
0.041597077
0.041598159
0.041598469
0.041598353
0.041598105
0.041597873
0.041597744
0.041597744
0.041597873
0.041598104
0.041598352
0.041598467
0.041598157
0.041597075
0.041595422
0.041596161
0.041593231
0.041117192
0.041143115
0.041148722
0.041152746
0.041154711
0.041155274
0.041155171
0.041154865
0.041154571
0.041154408
0.041154407
0.04115457
0.041154863
0.041155169
0.041155272
0.041154708
0.041152742
0.041148718
0.041143111
0.041117187
0.040529159
0.04058197
0.040595155
0.04060182
0.040604705
0.040605514
0.040605408
0.040605035
0.040604674
0.040604473
0.040604473
0.040604673
0.040605033
0.040605405
0.040605511
0.040604701
0.040601815
0.04059515
0.040581964
0.040529152
0.039847725
0.039930326
0.039952127
0.039961586
0.039965369
0.039966389
0.039966247
0.039965787
0.039965345
0.039965101
0.039965101
0.039965343
0.039965784
0.039966244
0.039966385
0.039965365
0.03996158
0.039952121
0.039930319
0.039847717
0.039089693
0.039204075
0.039235612
0.039248029
0.039252726
0.039253961
0.039253779
0.039253237
0.039252718
0.039252434
0.039252433
0.039252716
0.039253234
0.039253776
0.039253956
0.03925272
0.039248022
0.039235605
0.039204067
0.039089684
0.038272511
0.038420654
0.038462638
0.038478005
0.038483579
0.03848497
0.038484683
0.038484018
0.038483398
0.038483059
0.038483059
0.038483396
0.038484015
0.038484679
0.038484965
0.038483573
0.038477997
0.03846263
0.038420645
0.038272502
0.037399451
0.037582755
0.037636771
0.037655199
0.037661328
0.037662687
0.037662281
0.037661491
0.037660775
0.037660378
0.037660377
0.037660773
0.037661487
0.037662277
0.037662682
0.037661321
0.037655191
0.037636762
0.037582747
0.037399442
0.036495748
0.036714911
0.036781502
0.036803124
0.036809847
0.036811051
0.036810585
0.036809639
0.036808822
0.03680836
0.036808359
0.03680882
0.036809635
0.036810581
0.036811045
0.03680984
0.036803116
0.036781494
0.036714902
0.036495738
0.035573575
0.035829622
0.035909465
0.035934575
0.035941854
0.03594292
0.035942282
0.035941135
0.035940204
0.035939677
0.035939677
0.035940202
0.035941131
0.035942277
0.035942914
0.035941847
0.035934567
0.035909457
0.035829613
0.035573566
0.034634715
0.03492988
0.035024335
0.035053562
0.035061701
0.035062733
0.035061819
0.035060494
0.03505948
0.035058913
0.035058912
0.035059478
0.035060491
0.035061814
0.035062727
0.035061694
0.035053554
0.035024326
0.034929871
0.034634706
0.033685781
0.034023139
0.034133578
0.034167555
0.034176815
0.034177689
0.034176296
0.034174698
0.034173545
0.034172913
0.034172912
0.034173543
0.034174695
0.034176292
0.034177684
0.034176809
0.034167548
0.03413357
0.034023131
0.033685773
0.032726671
0.033109067
0.033238061
0.033277999
0.033288932
0.033289765
0.033287945
0.033286116
0.033284886
0.033284199
0.033284198
0.033284884
0.033286112
0.03328794
0.03328976
0.033288926
0.033277992
0.033238054
0.033109059
0.032726664
0.031760157
0.032191329
0.032341558
0.032388788
0.032401762
0.032402472
0.032400072
0.032397853
0.032396479
0.03239568
0.03239568
0.032396477
0.03239785
0.032400068
0.032402467
0.032401756
0.032388782
0.032341552
0.032191322
0.031760151
0.030785623
0.031269807
0.031445269
0.031501846
0.031517589
0.031518326
0.031515303
0.031512591
0.031511073
0.031510129
0.031510128
0.031511071
0.031512588
0.0315153
0.031518321
0.031517584
0.031501841
0.031445263
0.031269801
0.030785619
0.029799022
0.030341508
0.030547282
0.030615972
0.030635515
0.030636497
0.030632761
0.030629388
0.030627689
0.030626552
0.030626551
0.030627687
0.030629385
0.030632758
0.030636493
0.03063551
0.030615967
0.030547277
0.030341503
0.029799019
0.028794299
0.029401629
0.029644189
0.029728713
0.029753581
0.029755182
0.029750634
0.029746393
0.029744422
0.029743037
0.029743037
0.029744421
0.02974639
0.029750631
0.029755178
0.029753577
0.029728709
0.029644185
0.029401625
0.028794297
0.027762743
0.028443053
0.028730583
0.028835892
0.028868272
0.028871117
0.028865697
0.028860335
0.028857923
0.028856218
0.028856217
0.028857921
0.028860332
0.028865694
0.028871114
0.028868269
0.028835889
0.02873058
0.028443051
0.027762744
0.026692637
0.027456039
0.027798898
0.027931568
0.027974571
0.0279797
0.027973399
0.027966607
0.027963498
0.027961361
0.02796136
0.027963497
0.027966605
0.027973397
0.027979697
0.027974569
0.027931566
0.027798896
0.02745604
0.02669264
0.025568544
0.026427667
0.02683906
0.027007695
0.02706586
0.02707483
0.027067729
0.027059134
0.027054973
0.02705223
0.027052229
0.027054972
0.027059132
0.027067727
0.027074828
0.027065858
0.027007695
0.02683906
0.02642767
0.02556855
0.024370007
0.025340747
0.02583756
0.026053673
0.026133394
0.0261487
0.026141086
0.02613024
0.026124553
0.026120935
0.026120935
0.026124552
0.026130238
0.026141084
0.026148698
0.026133393
0.026053673
0.025837562
0.025340752
0.024370017
0.023069881
0.024172628
0.024776382
0.025055468
0.025166
0.025191414
0.025184018
0.025170398
0.025162535
0.025157639
0.025157639
0.025162534
0.025170396
0.025184016
0.025191413
0.025166
0.02505547
0.024776386
0.024172638
0.023069897
0.021632314
0.022892362
0.023630965
0.023994931
0.024149712
0.024191071
0.024185409
0.024168447
0.024157497
0.024150711
0.024150711
0.024157496
0.024168445
0.024185408
0.024191071
0.024149713
0.023994934
0.023630971
0.022892377
0.021632339
0.020010138
0.021457994
0.02236884
0.022847973
0.023065533
0.023133551
0.023132582
0.023111761
0.023096418
0.023086821
0.02308682
0.023096417
0.023111759
0.023132581
0.023133552
0.023065535
0.022847978
0.02236885
0.021458016
0.020010174
0.018137287
0.019810766
0.020944292
0.021580749
0.021890614
0.021999991
0.022010417
0.021985591
0.021964058
0.021950268
0.021950267
0.021964057
0.02198559
0.022010417
0.021999992
0.021890617
0.021580756
0.020944307
0.019810797
0.018137339
0.015868197
0.017847297
0.01928273
0.020140568
0.020589716
0.020768902
0.020798811
0.0207706
0.020740509
0.020720462
0.020720462
0.020740508
0.0207706
0.020798812
0.020768904
0.020589721
0.020140578
0.019282752
0.017847343
0.015868275
0.013252858
0.015404288
0.017201542
0.018377454
0.019042408
0.019340647
0.019414018
0.019387682
0.019346416
0.019317092
0.019317092
0.019346416
0.019387683
0.019414021
0.019340652
0.019042416
0.018377469
0.017201571
0.015404346
0.013252956
0.010032589
0.012565667
0.01480858
0.016403762
0.017381555
0.017866028
0.018013244
0.017987556
0.017927432
0.017881562
0.017881561
0.017927432
0.017987556
0.018013246
0.017866032
0.017381562
0.016403779
0.014808618
0.01256574
0.010032717
0.0063487994
0.0092901006
0.011882245
0.013920676
0.015338895
0.016124916
0.0164312
0.01644718
0.016368617
0.016299871
0.016299871
0.016368619
0.016447184
0.016431205
0.016124923
0.015338909
0.013920703
0.011882294
0.0092901792
0.0063489302
0.0030411327
0.0063162275
0.008999808
0.011314019
0.013064774
0.014177494
0.014664272
0.014736031
0.01463733
0.014537471
0.014537471
0.014637332
0.014736034
0.014664276
0.014177499
0.013064785
0.011314044
0.0089998569
0.0063162961
0.0030412286
0.001026107
0.0039944327
0.0066420697
0.009012851
0.010958878
0.012278888
0.012922303
0.013043088
0.012923821
0.012789311
0.012789312
0.012923825
0.013043093
0.012922307
0.012278891
0.010958886
0.0090128732
0.0066421041
0.0039944795
0.0010261555
0.000242029
0.0023690701
0.0048343881
0.0071645681
0.0091466882
0.010545057
0.011261529
0.011408202
0.011267233
0.011103564
0.011103565
0.011267237
0.011408207
0.011261532
0.010545056
0.0091466912
0.0071645789
0.0048344058
0.002369095
0.00024204505
4.1624947e-05
0.001315417
0.0034901687
0.0057084703
0.0076355098
0.0090208143
0.0097388955
0.0098846457
0.0097292954
0.0095477243
0.0095477261
0.0097292996
0.00988465
0.009738896
0.0090208104
0.0076355061
0.0057084708
0.0034901741
0.0013154298
4.1628445e-05
5.5891697e-06
0.00068203511
0.0024990652
0.0045441291
0.0063643466
0.0076769804
0.0083532469
0.0084811111
0.0083187792
0.0081335541
0.0081335556
0.0083187826
0.008481114
0.0083532458
0.0076769739
0.0063643382
0.0045441226
0.0024990632
0.00068204067
5.5897288e-06
6.2683269e-07
0.00033103721
0.0017626702
0.003595278
0.0052704576
0.0064774984
0.0070899863
0.0071949878
0.0070349882
0.0068581379
0.0068581389
0.0070349906
0.0071949896
0.0070899843
0.0064774908
0.0052704467
0.0035952682
0.0017626652
0.00033103939
6.2690171e-07
)
;

boundaryField
{
    Wall
    {
        type            zeroGradient;
    }
    frontAndBack
    {
        type            empty;
    }
    atmosphere
    {
        type            zeroGradient;
    }
}


// ************************************************************************* //
