/*--------------------------------*- C++ -*----------------------------------*\
| =========                 |                                                 |
| \\      /  F ield         | OpenFOAM: The Open Source CFD Toolbox           |
|  \\    /   O peration     | Version:  3.0.1                                 |
|   \\  /    A nd           | Web:      www.OpenFOAM.org                      |
|    \\/     M anipulation  |                                                 |
\*---------------------------------------------------------------------------*/
FoamFile
{
    version     2.0;
    format      ascii;
    class       volScalarField;
    location    "33";
    object      wBA_g;
}
// * * * * * * * * * * * * * * * * * * * * * * * * * * * * * * * * * * * * * //

dimensions      [0 0 0 0 0 0 0];

internalField   nonuniform List<scalar> 
800
(
0.049593486
0.049594359
0.049593693
0.049593525
0.049593502
0.049593496
0.049593497
0.049593504
0.049593512
0.049593517
0.049593517
0.049593512
0.049593505
0.049593497
0.049593496
0.049593502
0.049593525
0.049593693
0.04959436
0.049593486
0.052396673
0.052329792
0.052309124
0.052302082
0.052299614
0.052298822
0.052298638
0.052298642
0.05229868
0.052298707
0.052298707
0.052298681
0.052298643
0.052298639
0.052298824
0.052299616
0.052302084
0.052309128
0.052329797
0.052396682
0.054454011
0.054358547
0.054331921
0.054319816
0.054315141
0.054313395
0.05431279
0.054312609
0.054312565
0.054312558
0.054312559
0.054312565
0.05431261
0.054312792
0.054313397
0.054315144
0.054319819
0.054331926
0.054358553
0.054454022
0.055865596
0.05575828
0.055736194
0.055722524
0.055717143
0.055715042
0.055714208
0.055713897
0.055713771
0.055713729
0.055713729
0.055713771
0.055713897
0.055714209
0.055715043
0.055717144
0.055722526
0.055736197
0.055758284
0.055865603
0.056681842
0.05657844
0.056564953
0.056554738
0.056550003
0.05654812
0.05654729
0.056546957
0.056546789
0.056546727
0.056546727
0.056546789
0.056546957
0.056547289
0.056548119
0.056550002
0.056554737
0.056564952
0.05657844
0.056681844
0.056958799
0.056876309
0.056870621
0.056868455
0.056865006
0.056863789
0.05686322
0.056863018
0.056862885
0.056862841
0.056862841
0.056862883
0.056863015
0.056863217
0.056863785
0.056865002
0.05686845
0.056870616
0.056876304
0.056958793
0.056772778
0.056725597
0.056725264
0.05673427
0.056732339
0.056731859
0.056731567
0.056731511
0.056731415
0.056731394
0.056731393
0.056731412
0.056731507
0.056731562
0.056731852
0.056732331
0.05673426
0.056725254
0.056725586
0.056772764
0.056206319
0.056204349
0.056207035
0.056227985
0.056227251
0.056227391
0.05622734
0.056227433
0.056227377
0.056227388
0.056227387
0.056227373
0.056227427
0.056227332
0.056227381
0.056227238
0.056227971
0.05620702
0.056204333
0.056206299
0.055349273
0.055396014
0.055400448
0.055431698
0.055431913
0.0554323
0.055432305
0.055432461
0.055432404
0.055432433
0.055432432
0.0554324
0.055432454
0.055432294
0.055432286
0.055431897
0.05543168
0.055400429
0.055395992
0.055349247
0.054293971
0.054387119
0.054392563
0.054430372
0.054432013
0.054432527
0.05443226
0.054432306
0.054432155
0.054432166
0.054432165
0.05443215
0.054432297
0.054432247
0.054432511
0.054431994
0.054430351
0.05439254
0.054387093
0.05429394
0.053126356
0.053259863
0.05326555
0.053304696
0.053309475
0.053310984
0.053310033
0.05330974
0.053309376
0.053309321
0.053309319
0.053309371
0.05330973
0.053310019
0.053310966
0.053309454
0.053304671
0.053265523
0.053259835
0.053126323
0.051927444
0.05209488
0.052098739
0.052132637
0.052143965
0.052148357
0.052146078
0.052145053
0.052144255
0.052144033
0.052144031
0.052144249
0.052145043
0.052146064
0.052148338
0.052143942
0.052132611
0.05209871
0.052094849
0.051927409
0.05076658
0.050962672
0.050962053
0.050983563
0.051007168
0.051017023
0.051012616
0.051010349
0.051009102
0.051008567
0.051008565
0.051009096
0.051010339
0.051012601
0.051017004
0.051007144
0.050983535
0.050962023
0.05096264
0.050766544
0.049699606
0.049922002
0.049913888
0.049916242
0.049959594
0.049977192
0.049969621
0.049965391
0.049964572
0.049963501
0.049963499
0.049964566
0.049965381
0.049969606
0.049977172
0.04995957
0.049916214
0.049913858
0.04992197
0.049699571
0.0487717
0.049021159
0.049003312
0.0489814
0.049051936
0.049078344
0.049066103
0.049058928
0.049061048
0.049059509
0.049059508
0.049061042
0.049058918
0.049066088
0.049078325
0.049051912
0.048981372
0.049003283
0.049021128
0.048771666
0.04800741
0.048287548
0.04826011
0.048211845
0.048314986
0.04834936
0.048330522
0.04831925
0.04832854
0.048327759
0.048327757
0.048328535
0.048319241
0.048330508
0.048349342
0.048314963
0.048211818
0.048260082
0.048287518
0.048007377
0.047426227
0.047742945
0.047708361
0.047634811
0.047772079
0.047811004
0.047783051
0.047766132
0.047787231
0.047790189
0.047790188
0.047787227
0.047766125
0.047783039
0.047810987
0.047772058
0.047634786
0.047708334
0.047742916
0.047426196
0.047027756
0.04738781
0.047352372
0.047257966
0.047427922
0.047466293
0.047426849
0.047402724
0.047439223
0.047450663
0.047450662
0.047439219
0.047402717
0.047426837
0.047466277
0.047427902
0.047257942
0.047352346
0.047387782
0.047027725
0.046807772
0.047220129
0.047191663
0.04708182
0.047281444
0.047312583
0.047259108
0.047225871
0.047278704
0.04730402
0.047304019
0.0472787
0.047225864
0.047259097
0.047312568
0.047281425
0.047081797
0.047191639
0.047220103
0.046807743
0.046753577
0.047229408
0.047217597
0.047097343
0.047325113
0.047342482
0.04727279
0.047228648
0.047296009
0.047339958
0.047339957
0.047296005
0.047228642
0.04727278
0.047342467
0.047325096
0.047097322
0.047217574
0.047229383
0.046753549
0.0468441
0.047398297
0.047413925
0.047287175
0.047544076
0.047542172
0.047454205
0.047397487
0.047475652
0.047541091
0.04754109
0.047475649
0.047397481
0.047454195
0.047542158
0.047544059
0.047287155
0.047413903
0.047398271
0.046844071
0.047051076
0.047703491
0.047759094
0.047629984
0.047919072
0.047894281
0.047785688
0.047714935
0.047800032
0.047887277
0.047887277
0.047800029
0.047714929
0.047785678
0.047894268
0.047919056
0.047629964
0.047759072
0.047703466
0.047051046
0.04733581
0.04811363
0.048225066
0.048100166
0.048425568
0.048375891
0.04824386
0.04815774
0.048247099
0.048353922
0.048353922
0.048247096
0.048157734
0.04824385
0.048375878
0.048425552
0.048100146
0.048225044
0.048113604
0.04733578
0.047644089
0.048587565
0.04877623
0.048667295
0.049031993
0.048957681
0.048799191
0.048696296
0.048788553
0.048910651
0.048910651
0.04878855
0.04869629
0.048799181
0.048957668
0.049031978
0.048667277
0.048776209
0.04858754
0.047644059
0.047903286
0.049071004
0.049367649
0.049296555
0.049698143
0.04960521
0.04941735
0.049296055
0.049390182
0.049521904
0.049521903
0.04939018
0.049296051
0.049417341
0.049605198
0.049698128
0.049296538
0.049367628
0.04907098
0.047903259
0.048020444
0.049494069
0.04994368
0.049941669
0.050372357
0.050273618
0.050053765
0.049912244
0.050006343
0.05014145
0.050141449
0.050006341
0.04991224
0.050053757
0.050273607
0.050372344
0.049941653
0.049943661
0.049494047
0.048020423
0.047862171
0.049753753
0.05042232
0.050527006
0.050974905
0.050891177
0.050637086
0.050473366
0.050563939
0.050696257
0.050696256
0.050563937
0.050473363
0.050637079
0.050891167
0.050974893
0.050526993
0.050422304
0.049753737
0.04786216
0.047210078
0.049683388
0.050665933
0.050910484
0.051370355
0.051324833
0.051035228
0.050847363
0.050929288
0.051053163
0.051053163
0.050929287
0.050847362
0.051035223
0.051324827
0.051370347
0.050910476
0.050665922
0.049683382
0.047210084
0.045715846
0.048997093
0.05042768
0.050849236
0.051340502
0.051346336
0.051021826
0.050808264
0.050875326
0.050985931
0.050985931
0.050875326
0.050808264
0.051021824
0.051346332
0.051340499
0.050849233
0.050427677
0.048997102
0.045715881
0.042881376
0.047271791
0.049319189
0.049985156
0.050534125
0.050620099
0.050261133
0.050020826
0.050066629
0.050160211
0.050160211
0.050066632
0.05002083
0.050261135
0.0506201
0.050534128
0.04998516
0.049319199
0.047271826
0.042881457
0.037848157
0.043801107
0.046805137
0.047844521
0.048465381
0.048645558
0.048319183
0.048044412
0.048062873
0.048136872
0.048136873
0.048062877
0.048044418
0.04831919
0.048645565
0.048465391
0.047844535
0.046805168
0.043801187
0.03784831
0.030306331
0.037343436
0.04156834
0.043279681
0.044190192
0.044491165
0.044237903
0.044090693
0.044083806
0.044139833
0.044139836
0.044083813
0.044090706
0.044237919
0.044491182
0.044190215
0.043279716
0.0415684
0.037343556
0.03030654
0.021763129
0.028427806
0.033280321
0.035646058
0.036880848
0.037370934
0.0372361
0.037362398
0.037363389
0.03741067
0.037410674
0.037363399
0.037362414
0.03723612
0.037370958
0.036880878
0.035646107
0.033280409
0.028427963
0.021763394
0.013278368
0.019613279
0.024468483
0.027269339
0.028810061
0.029486248
0.029486652
0.029387136
0.029360954
0.029392905
0.02939291
0.029360968
0.02938716
0.029486679
0.029486281
0.028810108
0.027269407
0.024468591
0.01961344
0.013278625
0.0063626975
0.012451958
0.016906673
0.019851108
0.021520609
0.022331505
0.022400631
0.022252181
0.02218089
0.022182241
0.022182248
0.022180906
0.022252207
0.022400658
0.022331534
0.021520647
0.019851169
0.016906774
0.012452094
0.0063628835
0.002256364
0.0072595101
0.011196929
0.013966154
0.015663782
0.01649196
0.016615661
0.016442321
0.016315682
0.016276775
0.016276782
0.0163157
0.016442346
0.016615687
0.016491986
0.015663816
0.013966207
0.011197001
0.0072596026
0.0022564619
0.00058629884
0.003893634
0.0071417087
0.0096043874
0.011187783
0.011974642
0.012110886
0.011940709
0.011779313
0.01171058
0.011710587
0.011779329
0.011940732
0.012110908
0.011974662
0.011187808
0.0096044216
0.0071417509
0.0038936853
0.00058633449
0.00011525696
0.0019240688
0.0044009919
0.0064790764
0.0078750544
0.0085874918
0.0087265706
0.0085756298
0.0084115764
0.0083303315
0.0083303371
0.0084115902
0.0085756488
0.0087265882
0.0085875064
0.0078750698
0.0064790951
0.0044010137
0.0019240953
0.00011526588
1.8127525e-05
0.00087934161
0.0026280915
0.0042885768
0.0054675259
0.0060865482
0.0062232728
0.0061034616
0.0059569335
0.0058788399
0.0058788443
0.0059569444
0.0061034762
0.0062232859
0.0060865578
0.0054675342
0.0042885854
0.0026281009
0.00087935325
1.8129207e-05
2.4113891e-06
0.00037422555
0.0015226883
0.0027873288
0.0037417078
0.0042610788
0.0043907841
0.0043047512
0.00418644
0.0041199486
0.0041199519
0.0041864481
0.004304762
0.0043907936
0.004261085
0.0037417115
0.0027873316
0.0015226915
0.00037423001
2.4116392e-06
)
;

boundaryField
{
    Wall
    {
        type            zeroGradient;
    }
    frontAndBack
    {
        type            empty;
    }
    atmosphere
    {
        type            zeroGradient;
    }
}


// ************************************************************************* //
