/*--------------------------------*- C++ -*----------------------------------*\
| =========                 |                                                 |
| \\      /  F ield         | OpenFOAM: The Open Source CFD Toolbox           |
|  \\    /   O peration     | Version:  3.0.1                                 |
|   \\  /    A nd           | Web:      www.OpenFOAM.org                      |
|    \\/     M anipulation  |                                                 |
\*---------------------------------------------------------------------------*/
FoamFile
{
    version     2.0;
    format      ascii;
    class       volScalarField;
    location    "33";
    object      wBA_l_0;
}
// * * * * * * * * * * * * * * * * * * * * * * * * * * * * * * * * * * * * * //

dimensions      [0 0 0 0 0 0 0];

internalField   nonuniform List<scalar> 
800
(
0.041304331
0.041302307
0.041301216
0.041300963
0.041300887
0.041300835
0.041300796
0.041300771
0.041300756
0.041300749
0.041300749
0.041300756
0.041300771
0.041300796
0.041300835
0.041300887
0.041300963
0.041301216
0.041302307
0.041304331
0.041824056
0.041801644
0.04179535
0.041793743
0.041793404
0.041793372
0.041793401
0.041793425
0.041793437
0.041793441
0.041793441
0.041793437
0.041793425
0.041793401
0.041793373
0.041793405
0.041793743
0.041795351
0.041801645
0.041824059
0.04211782
0.042085645
0.042075867
0.042073206
0.0420725
0.042072317
0.042072264
0.042072236
0.042072213
0.0420722
0.0420722
0.042072214
0.042072236
0.042072265
0.042072318
0.0420725
0.042073207
0.042075868
0.042085646
0.042117823
0.042240495
0.042207251
0.042196702
0.042194025
0.04219333
0.042193122
0.042193012
0.042192923
0.042192853
0.042192815
0.042192815
0.042192853
0.042192923
0.042193012
0.042193122
0.042193331
0.042194025
0.042196703
0.042207252
0.042240497
0.042196306
0.042168618
0.042159795
0.042158041
0.042157771
0.042157638
0.042157482
0.042157323
0.042157193
0.042157123
0.042157122
0.042157193
0.042157323
0.042157481
0.042157637
0.042157771
0.042158041
0.042159794
0.042168619
0.042196306
0.041991045
0.04197589
0.04197035
0.041970042
0.041970344
0.04197043
0.041970312
0.041970125
0.041969956
0.041969863
0.041969863
0.041969956
0.041970125
0.041970312
0.041970429
0.041970343
0.041970041
0.041970348
0.041975889
0.041991043
0.04164047
0.041643603
0.041643012
0.041644684
0.041645761
0.041646064
0.041645943
0.04164569
0.041645455
0.041645324
0.041645324
0.041645454
0.041645689
0.041645941
0.041646063
0.041645759
0.041644682
0.041643009
0.0416436
0.041640467
0.041159519
0.041185795
0.041191578
0.041195623
0.04119758
0.041198133
0.041198021
0.041197708
0.04119741
0.041197245
0.041197244
0.041197409
0.041197707
0.041198019
0.04119813
0.041197577
0.04119562
0.041191574
0.041185791
0.041159514
0.040566001
0.040619327
0.040632718
0.040639404
0.040642275
0.040643069
0.040642951
0.040642569
0.040642203
0.040642
0.040641999
0.040642202
0.040642567
0.040642948
0.040643065
0.040642271
0.040639399
0.040632713
0.040619321
0.040565994
0.039878801
0.039962096
0.039984131
0.039993604
0.039997363
0.03999836
0.0399982
0.039997728
0.039997278
0.039997031
0.039997031
0.039997277
0.039997725
0.039998197
0.039998356
0.039997359
0.039993599
0.039984125
0.039962089
0.039878793
0.039114663
0.03922986
0.039261702
0.039274135
0.039278802
0.039280012
0.039279812
0.039279257
0.039278731
0.039278444
0.039278443
0.039278729
0.039279254
0.039279808
0.039280007
0.039278796
0.039274128
0.039261695
0.039229852
0.039114654
0.038291321
0.038440455
0.038482779
0.03849815
0.038503682
0.038505037
0.038504725
0.038504043
0.038503413
0.03850307
0.03850307
0.038503412
0.03850404
0.038504721
0.038505031
0.038503676
0.038498143
0.038482771
0.038440447
0.038291311
0.037412286
0.037596719
0.037651123
0.037669553
0.037675625
0.037676939
0.037676504
0.037675695
0.037674969
0.037674566
0.037674565
0.037674967
0.037675691
0.037676499
0.037676933
0.037675618
0.037669546
0.037651115
0.037596711
0.037412276
0.036502794
0.036723233
0.036790255
0.03681188
0.03681854
0.036819691
0.036819195
0.036818227
0.0368174
0.036816932
0.036816931
0.036817398
0.036818224
0.03681919
0.036819686
0.036818534
0.036811873
0.036790247
0.036723224
0.036502784
0.035575187
0.03583271
0.035913032
0.035938147
0.035945354
0.035946358
0.035945679
0.035944505
0.03594356
0.035943026
0.035943026
0.035943558
0.035944502
0.035945674
0.035946353
0.035945348
0.035938139
0.035913024
0.035832702
0.035575178
0.034630628
0.034927436
0.035022495
0.035051757
0.035059841
0.035060818
0.035059862
0.035058514
0.03505749
0.035056917
0.035056916
0.035057488
0.035058511
0.035059857
0.035060812
0.035059834
0.03505175
0.035022487
0.034927428
0.034630619
0.033675109
0.034014378
0.03412558
0.034159665
0.034168921
0.034169773
0.034168363
0.034166763
0.034165618
0.034164987
0.034164986
0.034165616
0.034166759
0.034168358
0.034169767
0.034168915
0.034159658
0.034125573
0.034014371
0.033675101
0.032711057
0.033095838
0.033225506
0.033265532
0.033276402
0.033277134
0.033275227
0.033273343
0.033272084
0.033271382
0.033271381
0.033272082
0.03327334
0.033275222
0.033277129
0.033276396
0.033265525
0.033225498
0.033095831
0.03271105
0.031739558
0.032173397
0.032324569
0.032372018
0.032384995
0.032385639
0.032383176
0.032380921
0.032379534
0.032378726
0.032378726
0.032379532
0.032380917
0.032383172
0.032385634
0.03238499
0.032372012
0.032324562
0.032173391
0.031739552
0.030759421
0.031246659
0.03142334
0.031480267
0.031496057
0.031496733
0.031493643
0.031490885
0.031489356
0.0314884
0.031488399
0.031489354
0.031490882
0.031493639
0.031496729
0.031496052
0.031480262
0.031423334
0.031246653
0.030759417
0.029766918
0.030312927
0.030520294
0.030589522
0.030609183
0.030610118
0.030606307
0.030602878
0.030601166
0.030600015
0.030600014
0.030601165
0.030602875
0.030606304
0.030610114
0.030609178
0.030589518
0.030520289
0.030312922
0.029766915
0.028755788
0.029367218
0.029611867
0.0296972
0.029722296
0.029723874
0.029719246
0.029714936
0.029712947
0.029711545
0.029711545
0.029712946
0.029714933
0.029719243
0.029723871
0.029722292
0.029697196
0.029611862
0.029367215
0.028755786
0.027717059
0.028402189
0.028692465
0.028798967
0.028831741
0.028834612
0.028829106
0.028823657
0.028821218
0.028819491
0.02881949
0.028821216
0.028823654
0.028829103
0.028834609
0.028831738
0.028798964
0.028692462
0.028402187
0.027717059
0.026638684
0.027407812
0.027754291
0.02788869
0.027932341
0.027937577
0.027931192
0.027924288
0.027921135
0.027918967
0.027918966
0.027921133
0.027924286
0.02793119
0.027937574
0.027932338
0.027888688
0.027754289
0.027407812
0.026638687
0.025504785
0.026370786
0.026786968
0.026958079
0.027017281
0.027026488
0.02701931
0.027010573
0.027006341
0.027003553
0.027003553
0.02700634
0.02701057
0.027019308
0.027026486
0.027017279
0.026958078
0.026786968
0.026370788
0.025504791
0.024294302
0.025273401
0.025776571
0.025996216
0.026077554
0.02609332
0.026085654
0.026074626
0.026068828
0.026065143
0.026065142
0.026068827
0.026074624
0.026085652
0.026093318
0.026077553
0.025996216
0.025776573
0.025273406
0.024294312
0.022979265
0.024092315
0.024704506
0.024988645
0.025101677
0.025127905
0.025120522
0.02510667
0.025098636
0.025093635
0.025093635
0.025098635
0.025106668
0.025120521
0.025127904
0.025101677
0.024988647
0.02470451
0.024092325
0.022979281
0.021522714
0.022795495
0.023545415
0.023916679
0.024075296
0.024118052
0.024112545
0.02409529
0.024084078
0.024077127
0.024077127
0.024084077
0.024095288
0.024112544
0.024118052
0.024075297
0.023916682
0.023545422
0.02279551
0.021522739
0.019875955
0.021339541
0.022265755
0.022755413
0.022978814
0.023049291
0.023048768
0.023027592
0.023011847
0.023001988
0.023001987
0.023011846
0.023027591
0.023048767
0.023049291
0.022978816
0.022755418
0.022265765
0.021339562
0.019875992
0.017968566
0.019663414
0.020817947
0.021469682
0.021788729
0.021902248
0.021913677
0.02188846
0.021866322
0.021852117
0.021852116
0.021866321
0.021888459
0.021913677
0.02190225
0.021788732
0.021469689
0.020817961
0.019663446
0.017968622
0.015646611
0.017652073
0.019120355
0.020002164
0.020466252
0.02065318
0.020685408
0.02065662
0.020625679
0.020604995
0.020604994
0.020625678
0.020656619
0.020685409
0.020653183
0.020466257
0.020002175
0.019120377
0.017652122
0.015646689
0.012988742
0.01515947
0.016988098
0.018191064
0.01887616
0.019186079
0.019263791
0.019239286
0.019196671
0.019166258
0.019166258
0.019196672
0.019239287
0.019263794
0.019186084
0.018876168
0.018191079
0.016988127
0.015159527
0.01298884
0.0096908153
0.012261891
0.014549607
0.016195558
0.017213021
0.017721148
0.017878023
0.017859273
0.017797358
0.017749668
0.017749668
0.017797358
0.017859273
0.017878025
0.017721152
0.017213027
0.016195575
0.014549645
0.012261964
0.0096909439
0.0059889472
0.0089761582
0.011581041
0.013658238
0.015113023
0.015926077
0.016248538
0.016265863
0.016184603
0.01611294
0.01611294
0.016184604
0.016265866
0.016248543
0.015926084
0.015113039
0.013658265
0.01158109
0.0089762352
0.0059890745
0.0027723335
0.0060543486
0.008740132
0.011063928
0.012838544
0.013977941
0.014474773
0.014550807
0.014449561
0.014346455
0.014346456
0.014449563
0.01455081
0.014474777
0.013977946
0.012838555
0.011063951
0.0087401801
0.0060544148
0.0027724233
0.00090086395
0.0038030868
0.0064408176
0.0088024366
0.010755368
0.01208059
0.012730828
0.012849927
0.012727472
0.012589731
0.012589732
0.012727476
0.012849932
0.012730832
0.012080593
0.010755374
0.008802459
0.0064408495
0.0038031303
0.00090090752
0.00020522009
0.0022411317
0.0046831114
0.007002365
0.0089750937
0.010366251
0.011077445
0.01122056
0.011075618
0.010909835
0.010909837
0.011075622
0.011220565
0.011077447
0.010366251
0.0089750952
0.007002375
0.0046831274
0.0022411548
0.00020523388
3.4319614e-05
0.0012359655
0.0033779995
0.0055791706
0.0074900437
0.0088606375
0.0095667783
0.0097058277
0.009548205
0.0093658482
0.00936585
0.009548209
0.0097058318
0.0095667785
0.0088606333
0.0074900394
0.0055791692
0.0033780041
0.0012359771
3.4322522e-05
4.5170806e-06
0.00063662378
0.0024153089
0.0044375062
0.0062372901
0.0075304033
0.0081918533
0.0083121145
0.0081482998
0.0079640932
0.0079640946
0.008148303
0.0083121172
0.008191852
0.0075303968
0.0062372813
0.0044374993
0.002415306
0.0006366287
4.5175333e-06
5.0090617e-07
0.00030741032
0.0017000117
0.0035053515
0.0051562926
0.0063413484
0.0069373613
0.0070351827
0.0068750382
0.0067004375
0.0067004386
0.0068750403
0.0070351843
0.0069373593
0.0063413409
0.0051562816
0.0035053416
0.0017000067
0.00030741219
5.0096076e-07
)
;

boundaryField
{
    Wall
    {
        type            zeroGradient;
    }
    frontAndBack
    {
        type            empty;
    }
    atmosphere
    {
        type            zeroGradient;
    }
}


// ************************************************************************* //
