/*--------------------------------*- C++ -*----------------------------------*\
| =========                 |                                                 |
| \\      /  F ield         | OpenFOAM: The Open Source CFD Toolbox           |
|  \\    /   O peration     | Version:  3.0.1                                 |
|   \\  /    A nd           | Web:      www.OpenFOAM.org                      |
|    \\/     M anipulation  |                                                 |
\*---------------------------------------------------------------------------*/
FoamFile
{
    version     2.0;
    format      ascii;
    class       volScalarField;
    location    "33";
    object      wCO2_g;
}
// * * * * * * * * * * * * * * * * * * * * * * * * * * * * * * * * * * * * * //

dimensions      [0 0 0 0 0 0 0];

internalField   nonuniform List<scalar> 
800
(
0.017786696
0.017787734
0.01778761
0.017787558
0.017787547
0.017787542
0.017787541
0.017787544
0.017787547
0.017787549
0.017787549
0.017787547
0.017787544
0.017787541
0.017787542
0.017787547
0.017787559
0.01778761
0.017787734
0.017786696
0.018005606
0.018006467
0.018006409
0.018006335
0.018006242
0.018006158
0.018006099
0.018006064
0.018006044
0.018006035
0.018006035
0.018006044
0.018006064
0.018006099
0.018006158
0.018006242
0.018006335
0.018006409
0.018006467
0.018005606
0.01820504
0.01820459
0.018204557
0.01820421
0.018203909
0.018203696
0.018203565
0.01820349
0.018203451
0.018203434
0.018203434
0.018203451
0.01820349
0.018203565
0.018203696
0.018203909
0.01820421
0.018204557
0.01820459
0.01820504
0.018416279
0.018413343
0.018413393
0.018412803
0.018412318
0.018412006
0.018411825
0.01841173
0.018411683
0.018411664
0.018411664
0.018411683
0.01841173
0.018411825
0.018412006
0.018412318
0.018412803
0.018413393
0.018413343
0.018416279
0.018644002
0.018636629
0.018636562
0.018635796
0.018635142
0.018634734
0.018634507
0.018634398
0.018634348
0.01863433
0.01863433
0.018634348
0.018634398
0.018634507
0.018634734
0.018635143
0.018635796
0.018636562
0.01863663
0.018644002
0.018891043
0.018877761
0.018876953
0.018875957
0.018875042
0.018874541
0.018874288
0.018874182
0.018874141
0.01887413
0.01887413
0.018874141
0.018874183
0.018874288
0.018874541
0.018875042
0.018875957
0.018876954
0.018877762
0.018891044
0.019161836
0.01914122
0.019139043
0.019137776
0.019136527
0.019135878
0.019135565
0.019135444
0.0191354
0.019135391
0.019135391
0.019135401
0.019135444
0.019135565
0.019135878
0.019136527
0.019137776
0.019139044
0.019141221
0.019161837
0.019457798
0.019428921
0.019424653
0.01942304
0.01942138
0.019420543
0.019420152
0.019420007
0.019419957
0.019419949
0.019419949
0.019419957
0.019420007
0.019420152
0.019420544
0.019421381
0.019423041
0.019424654
0.019428922
0.019457798
0.019778212
0.019740768
0.019733613
0.019731547
0.019729433
0.019728365
0.019727864
0.019727675
0.019727609
0.019727596
0.019727596
0.019727609
0.019727676
0.019727865
0.019728366
0.019729434
0.019731548
0.019733614
0.019740769
0.019778213
0.020120936
0.020075521
0.020064669
0.020062008
0.020059469
0.020058149
0.020057494
0.020057232
0.020057132
0.020057107
0.020057107
0.020057133
0.020057232
0.020057495
0.02005815
0.02005947
0.020062009
0.02006467
0.020075522
0.020120937
0.020480707
0.020428891
0.020413788
0.020410428
0.020407624
0.020406115
0.020405271
0.020404914
0.020404771
0.020404729
0.020404729
0.020404771
0.020404914
0.020405272
0.020406115
0.020407625
0.020410429
0.020413789
0.020428893
0.020480708
0.020852123
0.020796751
0.02077696
0.020772729
0.020769911
0.020768322
0.020767216
0.020766714
0.020766505
0.020766433
0.020766433
0.020766506
0.020766714
0.020767217
0.020768323
0.020769912
0.02077273
0.020776962
0.020796752
0.020852124
0.021241041
0.021185773
0.021160738
0.021155435
0.021153353
0.021152054
0.021150586
0.021149872
0.02114959
0.021149468
0.021149469
0.02114959
0.021149873
0.021150587
0.021152055
0.021153354
0.021155436
0.021160739
0.021185775
0.021241042
0.02162686
0.021577737
0.021548813
0.021542297
0.021541522
0.021540842
0.021538802
0.021537797
0.021537454
0.021537264
0.021537264
0.021537454
0.021537798
0.021538802
0.021540843
0.021541524
0.021542298
0.021548814
0.021577738
0.021626861
0.022001391
0.021965707
0.021935348
0.021927567
0.021928857
0.021928938
0.021926197
0.021924785
0.021924398
0.02192415
0.02192415
0.021924399
0.021924786
0.021926198
0.021928939
0.021928858
0.021927568
0.02193535
0.021965708
0.022001392
0.022356624
0.022341854
0.022313605
0.022304884
0.022308926
0.022309833
0.022306265
0.022304322
0.022303941
0.022303755
0.022303755
0.022303941
0.022304323
0.022306266
0.022309833
0.022308927
0.022304885
0.022313606
0.022341855
0.022356625
0.022685605
0.022700683
0.022678795
0.022669943
0.022677256
0.022678791
0.022673946
0.022671246
0.022670865
0.022671018
0.022671018
0.022670865
0.022671246
0.022673946
0.022678792
0.022677257
0.022669944
0.022678795
0.022700683
0.022685605
0.022973396
0.023029175
0.023019268
0.023012111
0.023023593
0.023025427
0.023018719
0.023015117
0.023014738
0.023015734
0.023015734
0.023014738
0.023015116
0.023018719
0.023025426
0.023023593
0.023012111
0.023019268
0.023029175
0.022973395
0.023205238
0.02331479
0.023322993
0.023320058
0.023336738
0.023338087
0.023328706
0.023323957
0.023323357
0.0233258
0.0233258
0.023323357
0.023323956
0.023328705
0.023338087
0.023336737
0.023320058
0.023322992
0.023314789
0.023205237
0.02336473
0.023542536
0.0235761
0.023580757
0.023603922
0.023603994
0.023591334
0.02358527
0.023584135
0.023588656
0.023588656
0.023584134
0.023585269
0.023591333
0.023603993
0.023603921
0.023580756
0.023576099
0.023542535
0.023364727
0.023433377
0.023695508
0.023762744
0.023778883
0.023809882
0.023808114
0.023791893
0.02378436
0.023782431
0.023789523
0.023789523
0.02378243
0.023784359
0.023791891
0.023808113
0.023809881
0.023778881
0.023762742
0.023695506
0.023433374
0.023390716
0.023754863
0.023865547
0.023897533
0.023938021
0.023934267
0.023914593
0.023905459
0.023902843
0.023912755
0.023912754
0.023902843
0.023905457
0.023914591
0.023934265
0.023938019
0.023897531
0.023865545
0.02375486
0.023390713
0.023213104
0.023698517
0.023864412
0.023917183
0.023969611
0.023964181
0.02394129
0.023930423
0.023927789
0.023940469
0.023940469
0.023927787
0.023930422
0.023941288
0.023964179
0.023969608
0.023917181
0.02386441
0.023698514
0.023213101
0.022872005
0.023499855
0.023735287
0.023814692
0.023882674
0.023876354
0.023850421
0.02383768
0.023836177
0.023851285
0.023851284
0.023836176
0.023837678
0.023850419
0.023876352
0.023882671
0.02381469
0.023735285
0.023499853
0.022872004
0.022331709
0.023125979
0.02344806
0.023562192
0.023649965
0.023644683
0.023616131
0.023601359
0.023602294
0.02361924
0.02361924
0.023602293
0.023601357
0.023616129
0.02364468
0.023649962
0.023562189
0.023448058
0.023125979
0.022331711
0.021547609
0.022535801
0.022964608
0.023125329
0.023237035
0.023236934
0.023206957
0.023189997
0.023194384
0.023212402
0.023212401
0.023194383
0.023189995
0.023206955
0.023236932
0.023237033
0.023125327
0.022964607
0.022535804
0.021547616
0.020465494
0.021677843
0.02223728
0.022459416
0.022600578
0.022611613
0.022582331
0.02256305
0.022571233
0.02258944
0.022589439
0.022571232
0.022563049
0.022582329
0.022611612
0.022600577
0.022459416
0.022237282
0.021677851
0.020465508
0.019022775
0.020487093
0.021205808
0.021506642
0.021685117
0.021715408
0.021689478
0.021667809
0.021679251
0.021696698
0.021696698
0.021679251
0.021667808
0.021689477
0.021715407
0.021685117
0.021506645
0.021205813
0.020487107
0.019022799
0.017155018
0.018889265
0.019798332
0.020194643
0.020421944
0.020480991
0.020460999
0.020437013
0.020450304
0.020466018
0.020466018
0.020450303
0.020437013
0.020460999
0.020480992
0.020421946
0.020194648
0.019798342
0.018889288
0.017155055
0.014808817
0.016813927
0.017936309
0.018444944
0.018734748
0.018832027
0.018820691
0.018794791
0.018807912
0.018820971
0.018820971
0.018807912
0.018794791
0.018820692
0.018832029
0.018734752
0.018444952
0.017936325
0.016813959
0.014808869
0.011939105
0.01419612
0.015553256
0.016191242
0.016545176
0.016687456
0.016698913
0.016671694
0.016682635
0.016692363
0.016692363
0.016682636
0.016671695
0.016698916
0.01668746
0.016545182
0.016191252
0.015553278
0.014196163
0.011939171
0.0087846008
0.011049843
0.012559525
0.013329557
0.013767909
0.013945652
0.013982733
0.013991955
0.013999635
0.014005892
0.014005892
0.013999637
0.013991958
0.013982737
0.013945657
0.013767918
0.013329571
0.012559551
0.011049889
0.008784672
0.0059944613
0.007892399
0.0093340413
0.010124408
0.01056768
0.01075143
0.01079473
0.010877051
0.010879068
0.010881449
0.01088145
0.01087907
0.010877054
0.010794735
0.010751436
0.010567689
0.010124423
0.009334069
0.0078924477
0.0059945398
0.0035614283
0.0052664792
0.0065925997
0.0074044107
0.0078760388
0.0080827539
0.0081384688
0.0081441206
0.0081378891
0.0081350764
0.0081350775
0.0081378919
0.0081441261
0.0081384752
0.0080827616
0.0078760506
0.007404429
0.0065926295
0.0052665244
0.0035614994
0.0016889804
0.0033039061
0.0044914695
0.0053044578
0.0057875915
0.0060232911
0.0060816373
0.0060665532
0.0060473125
0.0060360926
0.006036094
0.0060473161
0.0060665589
0.006081643
0.0060232972
0.0057876002
0.005304473
0.004491496
0.0033039426
0.0016890303
0.00059952846
0.0019351974
0.0029901092
0.0037531617
0.0042410182
0.0044850879
0.0045509356
0.0045252311
0.0044908377
0.0044692544
0.004469256
0.0044908416
0.0045252368
0.0045509411
0.0044850933
0.0042410256
0.0037531745
0.0029901274
0.0019352217
0.00059955454
0.00015719439
0.0010594585
0.0019494405
0.0026413101
0.003104641
0.0033444394
0.0034108656
0.0033827099
0.0033383632
0.003309362
0.0033093635
0.003338367
0.0033827151
0.0034108703
0.0033444434
0.0031046462
0.002641318
0.0019494509
0.0010594718
0.00015720394
3.1370961e-05
0.00054261169
0.0012471932
0.0018507579
0.0022719997
0.002497641
0.0025628329
0.002536254
0.0024898767
0.0024578964
0.0024578977
0.00248988
0.0025362583
0.0025628366
0.0024976437
0.0022720025
0.0018507617
0.0012471983
0.00054261857
3.1373382e-05
5.0338058e-06
0.00026054783
0.00078427253
0.0012888489
0.0016590561
0.001863332
0.0019255967
0.0019036241
0.001860346
0.0018295434
0.0018295445
0.0018603487
0.0019036275
0.0019255994
0.0018633336
0.0016590573
0.0012888502
0.0007842744
0.00026055087
5.0342704e-06
6.8629086e-07
0.00011782458
0.00048428755
0.00089065099
0.0012052004
0.0013844
0.0014422883
0.0014260771
0.0013890735
0.0013618967
0.0013618976
0.0013890755
0.0014260797
0.0014422903
0.0013844009
0.0012052005
0.00089065091
0.00048428787
0.00011782577
6.8636138e-07
)
;

boundaryField
{
    Wall
    {
        type            zeroGradient;
    }
    frontAndBack
    {
        type            empty;
    }
    atmosphere
    {
        type            zeroGradient;
    }
}


// ************************************************************************* //
