/*--------------------------------*- C++ -*----------------------------------*\
| =========                 |                                                 |
| \\      /  F ield         | OpenFOAM: The Open Source CFD Toolbox           |
|  \\    /   O peration     | Version:  3.0.1                                 |
|   \\  /    A nd           | Web:      www.OpenFOAM.org                      |
|    \\/     M anipulation  |                                                 |
\*---------------------------------------------------------------------------*/
FoamFile
{
    version     2.0;
    format      ascii;
    class       volScalarField;
    location    "33";
    object      wCO2_l;
}
// * * * * * * * * * * * * * * * * * * * * * * * * * * * * * * * * * * * * * //

dimensions      [0 0 0 0 0 0 0];

internalField   nonuniform List<scalar> 
800
(
0.003820759
0.0038210647
0.003821081
0.0038210756
0.00382107
0.0038210653
0.0038210625
0.0038210614
0.0038210611
0.003821061
0.003821061
0.0038210611
0.0038210614
0.0038210625
0.0038210653
0.00382107
0.0038210757
0.003821081
0.0038210647
0.0038207589
0.0038305924
0.0038316926
0.003832387
0.0038327389
0.0038328896
0.0038329363
0.0038329387
0.0038329269
0.0038329148
0.0038329076
0.0038329076
0.0038329147
0.0038329268
0.0038329386
0.0038329362
0.0038328895
0.0038327387
0.0038323868
0.0038316923
0.003830592
0.0038810156
0.0038810024
0.0038813202
0.0038817193
0.0038819105
0.0038819767
0.0038819849
0.0038819723
0.0038819576
0.0038819486
0.0038819486
0.0038819576
0.0038819722
0.0038819848
0.0038819767
0.0038819104
0.0038817192
0.00388132
0.0038810021
0.0038810151
0.0039760988
0.0039734294
0.0039727744
0.0039730275
0.0039731783
0.0039732418
0.0039732561
0.0039732495
0.003973239
0.0039732319
0.0039732319
0.003973239
0.0039732495
0.0039732561
0.0039732418
0.0039731784
0.0039730275
0.0039727744
0.0039734293
0.0039760985
0.004115431
0.0041081509
0.0041060905
0.0041059065
0.0041059443
0.0041059778
0.0041059908
0.0041059909
0.0041059871
0.0041059836
0.0041059836
0.0041059872
0.004105991
0.004105991
0.004105978
0.0041059446
0.0041059068
0.0041060907
0.0041081512
0.0041154312
0.0043009099
0.0042867896
0.0042828609
0.0042818503
0.004281685
0.0042816654
0.0042816745
0.004281684
0.0042816907
0.0042816929
0.004281693
0.0042816909
0.0042816843
0.0042816749
0.0042816659
0.0042816856
0.0042818509
0.0042828616
0.0042867902
0.0043009106
0.004536969
0.0045131884
0.0045068945
0.0045046613
0.0045042144
0.0045041098
0.0045041032
0.0045041183
0.0045041346
0.0045041424
0.0045041425
0.0045041349
0.0045041188
0.0045041039
0.0045041106
0.0045042154
0.0045046624
0.0045068957
0.0045131896
0.0045369703
0.004829556
0.0047926253
0.0047832494
0.0047794188
0.0047786184
0.0047784053
0.0047783777
0.0047783985
0.0047784262
0.0047784406
0.0047784408
0.0047784267
0.0047783992
0.0047783787
0.0047784065
0.0047786198
0.0047794204
0.0047832511
0.0047926271
0.004829558
0.0051865629
0.0051324034
0.0051188652
0.0051130988
0.005111843
0.0051115033
0.0051114489
0.0051114746
0.0051115154
0.0051115371
0.0051115373
0.0051115161
0.0051114756
0.0051114503
0.0051115049
0.005111845
0.005113101
0.0051188676
0.0051324059
0.0051865656
0.0056170703
0.0055409645
0.0055217496
0.0055137557
0.0055118668
0.005511354
0.0055112645
0.0055112921
0.0055113476
0.005511377
0.0055113773
0.0055113484
0.0055112934
0.0055112664
0.0055113562
0.0055118694
0.0055137585
0.0055217527
0.0055409677
0.0056170738
0.0061313641
0.0060279634
0.0060011354
0.0059906895
0.0059878793
0.0059870689
0.0059869356
0.0059869637
0.0059870397
0.0059870789
0.0059870792
0.0059870407
0.0059869654
0.0059869379
0.0059870717
0.0059878825
0.0059906931
0.0060011392
0.0060279674
0.0061313683
0.0067402541
0.0066037685
0.0065669765
0.0065539049
0.0065496679
0.0065483052
0.0065481043
0.0065481228
0.0065482277
0.0065482776
0.006548278
0.006548229
0.0065481248
0.0065481071
0.0065483085
0.0065496718
0.0065539093
0.0065669812
0.0066037733
0.0067402593
0.0074417981
0.0072661245
0.0072176208
0.0072018732
0.0071949989
0.0071925435
0.0071922741
0.0071922868
0.0071924151
0.0071924817
0.0071924822
0.0071924165
0.0071922891
0.0071922773
0.0071925475
0.0071950035
0.0072018784
0.0072176264
0.0072661302
0.0074418043
0.0082582059
0.0080356248
0.007972526
0.0079539712
0.0079431394
0.0079390525
0.007938818
0.0079388106
0.0079388083
0.0079389035
0.0079389041
0.00793881
0.0079388133
0.0079388217
0.0079390571
0.0079431447
0.0079539771
0.0079725323
0.0080356314
0.0082582133
0.0091996473
0.0089219486
0.0088414298
0.008819811
0.0088032295
0.0087971561
0.0087969158
0.0087968817
0.0087962708
0.0087963859
0.0087963865
0.0087962726
0.0087968848
0.00879692
0.0087971612
0.0088032354
0.0088198178
0.008841437
0.0089219562
0.0091996557
0.01026764
0.0099281884
0.0098277616
0.009802637
0.0097787849
0.009770549
0.0097702049
0.0097701961
0.0097680688
0.0097680884
0.009768089
0.0097680707
0.0097701993
0.0097702094
0.0097705546
0.0097787914
0.0098026444
0.0098277695
0.0099281968
0.010267649
0.011464774
0.011057986
0.010934989
0.010905551
0.010873295
0.010862774
0.010862124
0.01086222
0.010857265
0.010856846
0.010856847
0.010857267
0.010862223
0.010862129
0.01086278
0.010873302
0.010905559
0.010934997
0.011057995
0.011464784
0.012793943
0.012314846
0.012166451
0.012131747
0.012090421
0.012077559
0.012076293
0.01207667
0.012067378
0.012065942
0.012065943
0.01206738
0.012076673
0.012076298
0.012077565
0.012090428
0.012131755
0.01216646
0.012314855
0.012793953
0.014259834
0.013704737
0.013527503
0.013486568
0.013435554
0.013420141
0.013417716
0.013418563
0.013403315
0.013400101
0.013400102
0.013403317
0.013418567
0.013417721
0.013420147
0.013435561
0.013486576
0.013527512
0.013704746
0.014259844
0.015866338
0.015233402
0.015023761
0.014976064
0.014914236
0.014896018
0.014891943
0.014893554
0.014870886
0.014865155
0.014865156
0.014870888
0.014893557
0.014891948
0.014896024
0.014914243
0.014976072
0.01502377
0.015233412
0.015866347
0.017615548
0.016906018
0.016660506
0.016605714
0.016530837
0.016509564
0.016503646
0.016506396
0.016475287
0.016466504
0.016466504
0.016475289
0.016506399
0.01650365
0.016509569
0.016530843
0.016605721
0.016660514
0.016906026
0.017615556
0.019507745
0.01872677
0.01844268
0.018380106
0.018289229
0.018264305
0.018256847
0.018261189
0.018221423
0.018209403
0.018209404
0.018221424
0.018261192
0.018256851
0.01826431
0.018289234
0.018380113
0.018442686
0.018726777
0.01950775
0.021540557
0.020697345
0.020373789
0.020301269
0.020192137
0.020162204
0.020153123
0.020159593
0.0201121
0.020097087
0.020097087
0.020112101
0.020159595
0.020153126
0.020162208
0.020192141
0.020301274
0.020373795
0.02069735
0.02154056
0.023703848
0.022813139
0.022452828
0.02236537
0.022238251
0.022200154
0.022188247
0.022197529
0.02214464
0.022127312
0.022127313
0.022144641
0.02219753
0.022188249
0.022200157
0.022238254
0.022365374
0.022452831
0.022813141
0.023703848
0.025964717
0.025054396
0.024663697
0.024556381
0.024412815
0.02436242
0.024346659
0.024359715
0.024305253
0.024286715
0.024286715
0.024305253
0.024359716
0.02434666
0.024362422
0.024412817
0.024556383
0.024663698
0.025054396
0.025964716
0.028241003
0.027369079
0.026958781
0.026835779
0.026674186
0.026610775
0.026593097
0.026611282
0.026560388
0.026542147
0.026542148
0.026560388
0.026611282
0.026593098
0.026610776
0.026674187
0.02683578
0.02695878
0.027369077
0.028241002
0.03036566
0.029645565
0.029240905
0.029114338
0.028940357
0.028861057
0.028848421
0.028873528
0.02883221
0.028816129
0.028816129
0.02883221
0.028873528
0.028848422
0.028861058
0.028940358
0.029114339
0.029240905
0.029645565
0.030365666
0.032045991
0.031644389
0.03131544
0.031225717
0.031047763
0.030962177
0.030966051
0.031000106
0.03097448
0.030962607
0.030962608
0.03097448
0.031000106
0.030966053
0.030962179
0.031047765
0.03122572
0.031315444
0.031644398
0.032046013
0.032829083
0.0329834
0.032873281
0.032861754
0.032693652
0.032638286
0.03267101
0.032715447
0.032710308
0.032704393
0.032704393
0.032710309
0.032715449
0.032671014
0.032638291
0.032693658
0.032861761
0.032873294
0.032983427
0.032829135
0.032092184
0.033071866
0.03341006
0.033535956
0.033488826
0.033446652
0.033517537
0.033571563
0.033588092
0.033588608
0.033588609
0.033588094
0.033571568
0.033517544
0.033446661
0.033488838
0.033535972
0.033410087
0.03307192
0.032092274
0.028810388
0.031285835
0.032278815
0.032666913
0.032854528
0.032935533
0.032956057
0.033016379
0.033049113
0.033053728
0.03305373
0.033049117
0.033016386
0.032956067
0.032935545
0.032854546
0.032666939
0.032278859
0.031285918
0.028810519
0.021178233
0.026332482
0.028592597
0.029526507
0.029961603
0.030204228
0.030349316
0.030382425
0.030418024
0.030420993
0.030420995
0.030418029
0.030382434
0.030349329
0.030204243
0.029961625
0.029526541
0.028592652
0.026332577
0.021178386
0.014325005
0.018514531
0.021247457
0.02260888
0.023320287
0.023650713
0.023823998
0.024402492
0.024417521
0.024407847
0.024407849
0.024417527
0.024402501
0.02382401
0.023650727
0.023320307
0.022608914
0.021247517
0.018514636
0.014325181
0.0084606842
0.012269194
0.015033493
0.016660486
0.017588163
0.01802915
0.018230403
0.01835507
0.018343249
0.018317513
0.018317516
0.018343256
0.018355083
0.018230417
0.018029167
0.017588189
0.016660526
0.015033558
0.012269294
0.0084608475
0.0040052219
0.0077173148
0.010337856
0.012112153
0.013169866
0.013726277
0.013932713
0.013956625
0.013913256
0.013867583
0.013867587
0.013913264
0.013956637
0.013932725
0.01372629
0.013169884
0.012112186
0.010337915
0.0077173967
0.0040053379
0.0014231989
0.0045679798
0.0069982156
0.0087606356
0.0099089145
0.010527867
0.010755221
0.010744066
0.010666225
0.010597611
0.010597614
0.010666234
0.010744078
0.010755232
0.010527877
0.0099089299
0.0087606634
0.0069982557
0.0045680347
0.0014232601
0.00037422642
0.0025484179
0.004675857
0.0063465879
0.0074957588
0.0081361874
0.0083688454
0.0083456587
0.0082437329
0.0081586575
0.008158661
0.0082437411
0.0083456698
0.0083688548
0.0081361952
0.0074957692
0.0063466046
0.0046758798
0.002548448
0.00037424901
7.5002495e-05
0.0013414991
0.0030911432
0.0046083762
0.0056987435
0.0063254154
0.0065551937
0.0065295114
0.0064200428
0.0063280283
0.0063280315
0.00642005
0.0065295206
0.006555201
0.0063254201
0.0056987485
0.0046083837
0.0030911538
0.0013415148
7.5008255e-05
1.2103686e-05
0.00066731862
0.0020245152
0.0033456708
0.0043420763
0.0049284826
0.0051477612
0.0051257668
0.0050198465
0.0049303741
0.0049303768
0.0050198524
0.0051257741
0.0051477666
0.0049284849
0.0043420773
0.0033456723
0.0020245184
0.00066732562
1.2104798e-05
1.6624987e-06
0.00031471855
0.0013106379
0.0024218614
0.0033021844
0.0038328813
0.0040361745
0.0040207271
0.0039261718
0.0038453176
0.0038453197
0.0039261765
0.0040207327
0.0040361783
0.0038328821
0.003302183
0.0024218596
0.0013106375
0.00031472132
1.6626685e-06
)
;

boundaryField
{
    Wall
    {
        type            zeroGradient;
    }
    frontAndBack
    {
        type            empty;
    }
    atmosphere
    {
        type            zeroGradient;
    }
}


// ************************************************************************* //
