/*--------------------------------*- C++ -*----------------------------------*\
| =========                 |                                                 |
| \\      /  F ield         | OpenFOAM: The Open Source CFD Toolbox           |
|  \\    /   O peration     | Version:  3.0.1                                 |
|   \\  /    A nd           | Web:      www.OpenFOAM.org                      |
|    \\/     M anipulation  |                                                 |
\*---------------------------------------------------------------------------*/
FoamFile
{
    version     2.0;
    format      ascii;
    class       volScalarField;
    location    "33";
    object      weight1;
}
// * * * * * * * * * * * * * * * * * * * * * * * * * * * * * * * * * * * * * //

dimensions      [0 0 0 0 0 0 0];

internalField   nonuniform List<scalar> 
800
(
9.9919106e+12
9.9919106e+12
9.9919105e+12
9.9919105e+12
9.9919105e+12
9.9919105e+12
9.9919105e+12
9.9919105e+12
9.9919105e+12
9.9919105e+12
9.9919105e+12
9.9919105e+12
9.9919105e+12
9.9919105e+12
9.9919105e+12
9.9919105e+12
9.9919105e+12
9.9919105e+12
9.9919106e+12
9.9919106e+12
9.99243e+12
9.9923743e+12
9.9923635e+12
9.9923615e+12
9.9923614e+12
9.9923615e+12
9.9923615e+12
9.9923615e+12
9.9923614e+12
9.9923614e+12
9.9923614e+12
9.9923614e+12
9.9923615e+12
9.9923615e+12
9.9923615e+12
9.9923614e+12
9.9923615e+12
9.9923635e+12
9.9923743e+12
9.99243e+12
9.9406209e+12
9.9422363e+12
9.9430083e+12
9.9433026e+12
9.9434016e+12
9.9434247e+12
9.9434211e+12
9.9434113e+12
9.9434029e+12
9.9433984e+12
9.9433984e+12
9.9434028e+12
9.9434112e+12
9.943421e+12
9.9434246e+12
9.9434014e+12
9.9433024e+12
9.9430081e+12
9.9422361e+12
9.9406205e+12
9.8450337e+12
9.8497402e+12
9.851763e+12
9.8525306e+12
9.8527985e+12
9.852866e+12
9.8528617e+12
9.852839e+12
9.8528184e+12
9.8528072e+12
9.8528072e+12
9.8528183e+12
9.8528388e+12
9.8528614e+12
9.8528658e+12
9.8527982e+12
9.8525302e+12
9.8517625e+12
9.8497396e+12
9.8450328e+12
9.7131773e+12
9.7221335e+12
9.7257077e+12
9.7270501e+12
9.727523e+12
9.7276443e+12
9.7276394e+12
9.7276014e+12
9.7275661e+12
9.7275467e+12
9.7275467e+12
9.7275659e+12
9.7276011e+12
9.727639e+12
9.7276438e+12
9.7275225e+12
9.7270494e+12
9.7257069e+12
9.7221325e+12
9.7131759e+12
9.5516885e+12
9.5657139e+12
9.5710522e+12
9.573033e+12
9.5737255e+12
9.5739006e+12
9.5738923e+12
9.5738357e+12
9.5737832e+12
9.5737544e+12
9.5737544e+12
9.573783e+12
9.5738353e+12
9.5738918e+12
9.5738998e+12
9.5737246e+12
9.573032e+12
9.571051e+12
9.5657124e+12
9.5516866e+12
9.3664517e+12
9.3861322e+12
9.3933645e+12
9.3960205e+12
9.3969315e+12
9.3971541e+12
9.3971371e+12
9.397058e+12
9.396986e+12
9.3969466e+12
9.3969465e+12
9.3969857e+12
9.3970575e+12
9.3971364e+12
9.3971532e+12
9.3969304e+12
9.3960192e+12
9.3933629e+12
9.3861304e+12
9.3664494e+12
9.1632406e+12
9.1888599e+12
9.1980178e+12
9.2013581e+12
9.2024673e+12
9.2027231e+12
9.2026893e+12
9.2025831e+12
9.2024891e+12
9.202438e+12
9.2024379e+12
9.2024887e+12
9.2025825e+12
9.2026884e+12
9.2027221e+12
9.202466e+12
9.2013566e+12
9.198016e+12
9.1888578e+12
9.1632381e+12
8.939073e+12
8.9725902e+12
8.9840785e+12
8.9881471e+12
8.9894788e+12
8.9897726e+12
8.9897211e+12
8.9895854e+12
8.9894671e+12
8.9894031e+12
8.989403e+12
8.9894666e+12
8.9895847e+12
8.9897201e+12
8.9897713e+12
8.9894772e+12
8.9881453e+12
8.9840764e+12
8.9725879e+12
8.9390702e+12
8.6959676e+12
8.7381139e+12
8.7522055e+12
8.7570029e+12
8.7585255e+12
8.758846e+12
8.7587768e+12
8.7586123e+12
8.7584695e+12
8.7583926e+12
8.7583925e+12
8.758469e+12
8.7586114e+12
8.7587756e+12
8.7588446e+12
8.7585238e+12
8.757001e+12
8.7522033e+12
8.7381114e+12
8.6959648e+12
8.4307587e+12
8.482393e+12
8.4996863e+12
8.505222e+12
8.5068331e+12
8.5071404e+12
8.5070662e+12
8.5068813e+12
8.506717e+12
8.5066288e+12
8.5066286e+12
8.5067165e+12
8.5068804e+12
8.5070649e+12
8.5071388e+12
8.5068313e+12
8.5052199e+12
8.4996839e+12
8.4823905e+12
8.4307559e+12
8.1461906e+12
8.2066873e+12
8.2275577e+12
8.233832e+12
8.2352893e+12
8.2354613e+12
8.235403e+12
8.2352138e+12
8.2350335e+12
8.2349374e+12
8.2349372e+12
8.2350329e+12
8.2352128e+12
8.2354016e+12
8.2354597e+12
8.2352874e+12
8.2338299e+12
8.2275553e+12
8.2066848e+12
8.1461879e+12
7.8491114e+12
7.9172045e+12
7.9416224e+12
7.9486769e+12
7.9496971e+12
7.9495848e+12
7.9495684e+12
7.9493969e+12
7.9491912e+12
7.9490925e+12
7.9490924e+12
7.9491906e+12
7.9493959e+12
7.9495671e+12
7.9495831e+12
7.9496952e+12
7.9486748e+12
7.9416201e+12
7.9172021e+12
7.8491088e+12
7.5445054e+12
7.6182437e+12
7.6458965e+12
7.6538161e+12
7.6538936e+12
7.6532137e+12
7.6533394e+12
7.653219e+12
7.6529554e+12
7.652862e+12
7.6528618e+12
7.6529548e+12
7.653218e+12
7.6533381e+12
7.6532122e+12
7.6538919e+12
7.6538142e+12
7.6458944e+12
7.6182415e+12
7.544503e+12
7.2413635e+12
7.3196267e+12
7.3494018e+12
7.3582358e+12
7.3573203e+12
7.3561603e+12
7.3565331e+12
7.356494e+12
7.3561454e+12
7.3560413e+12
7.3560411e+12
7.3561449e+12
7.3564931e+12
7.3565319e+12
7.3561589e+12
7.3573187e+12
7.358234e+12
7.3493998e+12
7.3196248e+12
7.2413613e+12
6.9423615e+12
7.025392e+12
7.0566358e+12
7.0663785e+12
7.0647279e+12
7.0633975e+12
7.0639911e+12
7.0640352e+12
7.0636096e+12
7.063429e+12
7.0634288e+12
7.063609e+12
7.0640344e+12
7.06399e+12
7.0633962e+12
7.0647264e+12
7.0663769e+12
7.056634e+12
7.0253902e+12
6.9423596e+12
6.6479541e+12
6.7362822e+12
6.7689153e+12
6.779526e+12
6.7775316e+12
6.7763101e+12
6.7771436e+12
6.777257e+12
6.7767895e+12
6.7764207e+12
6.7764205e+12
6.776789e+12
6.7772562e+12
6.7771425e+12
6.7763089e+12
6.7775302e+12
6.7795246e+12
6.7689138e+12
6.7362806e+12
6.6479524e+12
6.3585141e+12
6.4526123e+12
6.4869292e+12
6.4983463e+12
6.4963845e+12
6.495542e+12
6.4966984e+12
6.4968822e+12
6.4964526e+12
6.4957713e+12
6.4957712e+12
6.4964521e+12
6.4968815e+12
6.4966975e+12
6.4955409e+12
6.4963833e+12
6.498345e+12
6.4869278e+12
6.452611e+12
6.3585126e+12
6.0739613e+12
6.1742662e+12
6.2108529e+12
6.2230406e+12
6.2213994e+12
6.2211958e+12
6.222757e+12
6.2230407e+12
6.2227938e+12
6.2217169e+12
6.2217167e+12
6.2227934e+12
6.2230401e+12
6.2227562e+12
6.2211949e+12
6.2213983e+12
6.2230395e+12
6.2108518e+12
6.1742651e+12
6.0739602e+12
5.7933513e+12
5.9003642e+12
5.9400146e+12
5.9530157e+12
5.9519497e+12
5.9525558e+12
5.9545305e+12
5.9549622e+12
5.9550753e+12
5.9536064e+12
5.9536063e+12
5.9550749e+12
5.9549616e+12
5.9545298e+12
5.9525551e+12
5.9519488e+12
5.9530148e+12
5.9400136e+12
5.9003633e+12
5.7933505e+12
5.5144739e+12
5.6289024e+12
5.6724711e+12
5.6864468e+12
5.6862705e+12
5.6876936e+12
5.6899926e+12
5.6906215e+12
5.6912152e+12
5.6894593e+12
5.6894592e+12
5.6912149e+12
5.690621e+12
5.689992e+12
5.6876929e+12
5.6862698e+12
5.6864461e+12
5.6724703e+12
5.6289018e+12
5.5144733e+12
5.2336235e+12
5.356603e+12
5.4048384e+12
5.4200003e+12
5.4210514e+12
5.4232131e+12
5.4256981e+12
5.4265631e+12
5.42764e+12
5.4257828e+12
5.4257827e+12
5.4276397e+12
5.4265626e+12
5.4256976e+12
5.4232125e+12
5.4210508e+12
5.4199997e+12
5.4048378e+12
5.3566026e+12
5.2336232e+12
4.9456124e+12
5.0789667e+12
5.1324122e+12
5.1489527e+12
5.1514601e+12
5.1543065e+12
5.1569627e+12
5.1580855e+12
5.1595745e+12
5.1578429e+12
5.1578428e+12
5.1595742e+12
5.1580851e+12
5.1569622e+12
5.154306e+12
5.1514596e+12
5.1489522e+12
5.1324118e+12
5.0789666e+12
4.9456124e+12
4.6445053e+12
4.7908273e+12
4.8499362e+12
4.8681037e+12
4.8722253e+12
4.8758128e+12
4.8787718e+12
4.8801324e+12
4.8819985e+12
4.8806168e+12
4.8806167e+12
4.8819983e+12
4.880132e+12
4.8787714e+12
4.8758124e+12
4.8722248e+12
4.8681033e+12
4.849936e+12
4.7908274e+12
4.6445056e+12
4.325431e+12
4.4880072e+12
4.5538508e+12
4.5741423e+12
4.5805013e+12
4.5848698e+12
4.5881964e+12
4.5896717e+12
4.5919577e+12
4.5911008e+12
4.5911008e+12
4.5919575e+12
4.5896714e+12
4.588196e+12
4.5848694e+12
4.5805009e+12
4.574142e+12
4.5538508e+12
4.4880076e+12
4.3254318e+12
3.9870494e+12
4.1697896e+12
4.2450918e+12
4.2691606e+12
4.2793452e+12
4.2845878e+12
4.2881833e+12
4.2894955e+12
4.2922282e+12
4.2919633e+12
4.2919632e+12
4.292228e+12
4.2894951e+12
4.2881829e+12
4.2845874e+12
4.2793449e+12
4.2691604e+12
4.245092e+12
4.1697904e+12
3.9870508e+12
3.6315817e+12
3.8392568e+12
3.9289437e+12
3.9607479e+12
3.977019e+12
3.983869e+12
3.9877824e+12
3.988609e+12
3.9917235e+12
3.991957e+12
3.9919569e+12
3.9917233e+12
3.9886087e+12
3.9877821e+12
3.9838686e+12
3.9770187e+12
3.9607478e+12
3.9289441e+12
3.8392582e+12
3.6315841e+12
3.2590423e+12
3.4970752e+12
3.6078439e+12
3.6527396e+12
3.6772749e+12
3.6874132e+12
3.6921545e+12
3.6923814e+12
3.6957621e+12
3.6962407e+12
3.6962406e+12
3.6957619e+12
3.6923811e+12
3.6921541e+12
3.6874129e+12
3.6772747e+12
3.6527397e+12
3.6078447e+12
3.4970775e+12
3.2590462e+12
2.8620784e+12
3.1340468e+12
3.2730612e+12
3.3351896e+12
3.3694793e+12
3.3853709e+12
3.3916089e+12
3.3913989e+12
3.3948379e+12
3.395243e+12
3.3952429e+12
3.3948377e+12
3.3913986e+12
3.3916087e+12
3.3853707e+12
3.3694794e+12
3.3351901e+12
3.2730626e+12
3.1340503e+12
2.8620843e+12
2.4310183e+12
2.7352257e+12
2.9072649e+12
2.9887407e+12
3.0354322e+12
3.0580555e+12
3.0660755e+12
3.0656992e+12
3.0688143e+12
3.0688842e+12
3.0688841e+12
3.0688142e+12
3.0656991e+12
3.0660755e+12
3.0580556e+12
3.0354326e+12
2.9887417e+12
2.9072671e+12
2.7352307e+12
2.4310261e+12
1.9656991e+12
2.2924276e+12
2.4972914e+12
2.5998016e+12
2.6599283e+12
2.6911196e+12
2.7005484e+12
2.7002465e+12
2.7026283e+12
2.7022229e+12
2.7022229e+12
2.7026283e+12
2.7002465e+12
2.7005486e+12
2.6911199e+12
2.659929e+12
2.5998029e+12
2.4972943e+12
2.2924337e+12
1.9657087e+12
0
1.8110927e+12
2.0442735e+12
2.1688721e+12
2.2409892e+12
2.2797281e+12
2.2934577e+12
2.293981e+12
2.2954265e+12
2.294529e+12
2.294529e+12
2.2954265e+12
2.2939812e+12
2.2934581e+12
2.2797286e+12
2.2409901e+12
2.1688739e+12
2.044277e+12
1.8110999e+12
0
0
0
0
0
0
0
0
1.8596907e+12
1.8602313e+12
1.8589453e+12
1.8589453e+12
1.8602315e+12
1.8596913e+12
0
0
0
0
0
0
0
0
0
0
0
0
0
0
0
0
0
0
0
0
0
0
0
0
0
0
0
0
0
0
0
0
0
0
0
0
0
0
0
0
0
0
0
0
0
0
0
0
0
0
0
0
0
0
0
0
0
0
0
0
0
0
0
0
0
0
0
0
0
0
0
0
0
0
0
0
0
0
0
0
0
0
0
0
0
0
0
0
0
0
0
0
0
0
0
0
0
0
0
0
0
0
0
0
0
0
0
0
0
0
0
0
0
0
0
0
0
0
0
0
0
0
0
0
0
0
0
0
0
0
0
0
0
0
0
0
0
0
0
0
0
0
0
0
0
0
0
)
;

boundaryField
{
    Wall
    {
        type            zeroGradient;
    }
    frontAndBack
    {
        type            empty;
    }
    atmosphere
    {
        type            zeroGradient;
    }
}


// ************************************************************************* //
