/*--------------------------------*- C++ -*----------------------------------*\
| =========                 |                                                 |
| \\      /  F ield         | OpenFOAM: The Open Source CFD Toolbox           |
|  \\    /   O peration     | Version:  3.0.1                                 |
|   \\  /    A nd           | Web:      www.OpenFOAM.org                      |
|    \\/     M anipulation  |                                                 |
\*---------------------------------------------------------------------------*/
FoamFile
{
    version     2.0;
    format      ascii;
    class       volScalarField;
    location    "33";
    object      weight0;
}
// * * * * * * * * * * * * * * * * * * * * * * * * * * * * * * * * * * * * * //

dimensions      [0 0 0 0 0 0 0];

internalField   nonuniform List<scalar> 
800
(
8.0893724e+09
8.0894191e+09
8.0894651e+09
8.0894821e+09
8.0894894e+09
8.0894942e+09
8.0894977e+09
8.0895006e+09
8.0895026e+09
8.0895036e+09
8.0895036e+09
8.0895025e+09
8.0895006e+09
8.0894977e+09
8.0894941e+09
8.0894894e+09
8.089482e+09
8.0894651e+09
8.0894191e+09
8.0893723e+09
7.5700261e+09
7.6257406e+09
7.6364559e+09
7.6385004e+09
7.6386249e+09
7.6385106e+09
7.638477e+09
7.6385225e+09
7.6385881e+09
7.6386307e+09
7.6386306e+09
7.6385879e+09
7.6385222e+09
7.6384766e+09
7.63851e+09
7.6386241e+09
7.6384995e+09
7.6364547e+09
7.6257392e+09
7.5700234e+09
7.4714857e+09
7.5293193e+09
7.5460948e+09
7.5490845e+09
7.5497109e+09
7.5499563e+09
7.5501965e+09
7.5504395e+09
7.550632e+09
7.5507374e+09
7.5507373e+09
7.5506319e+09
7.5504392e+09
7.5501962e+09
7.5499558e+09
7.5497103e+09
7.5490838e+09
7.546094e+09
7.5293182e+09
7.4714837e+09
7.4740587e+09
7.524825e+09
7.5424757e+09
7.5457997e+09
7.5469191e+09
7.5475208e+09
7.5479678e+09
7.5483173e+09
7.5485599e+09
7.548685e+09
7.5486848e+09
7.5485598e+09
7.548317e+09
7.5479673e+09
7.5475202e+09
7.5469185e+09
7.545799e+09
7.5424748e+09
7.5248239e+09
7.4740568e+09
7.2034373e+09
7.268724e+09
7.288233e+09
7.29264e+09
7.2948418e+09
7.2958909e+09
7.2964303e+09
7.2967268e+09
7.2968906e+09
7.2969655e+09
7.2969652e+09
7.29689e+09
7.2967259e+09
7.296429e+09
7.2958892e+09
7.2948399e+09
7.2926377e+09
7.2882302e+09
7.2687207e+09
7.2034324e+09
6.270986e+09
6.4033373e+09
6.4330845e+09
6.4397845e+09
6.4444158e+09
6.4462906e+09
6.4469079e+09
6.4470291e+09
6.4469997e+09
6.4469597e+09
6.4469593e+09
6.4469982e+09
6.4470267e+09
6.4469045e+09
6.4462864e+09
6.4444107e+09
6.4397784e+09
6.4330774e+09
6.403329e+09
6.2709744e+09
4.2327367e+09
4.5277722e+09
4.58904e+09
4.600053e+09
4.6097417e+09
4.6134393e+09
4.6144097e+09
4.6143886e+09
4.614133e+09
4.6139518e+09
4.6139508e+09
4.6141299e+09
4.6143835e+09
4.6144025e+09
4.6134303e+09
4.6097308e+09
4.6000402e+09
4.5890255e+09
4.5277556e+09
4.2327142e+09
45614148
7.818966e+08
9.4279049e+08
9.6503949e+08
9.8808445e+08
9.9736525e+08
1.0001629e+09
1.0005585e+09
1.000246e+09
9.9997728e+08
9.99975e+08
1.0002391e+09
1.0005472e+09
1.0001471e+09
9.9734535e+08
9.880607e+08
9.6501225e+08
9.4276023e+08
7.8186255e+08
45567508
8.1513427e+08
5.012302e+08
4.3479596e+08
4.2795127e+08
4.2072907e+08
4.1719777e+08
4.1594161e+08
4.1560195e+08
4.1559999e+08
4.1563599e+08
4.1563672e+08
4.1560224e+08
4.1560565e+08
4.1594673e+08
4.1720425e+08
4.207367e+08
4.2796001e+08
4.348055e+08
5.0124139e+08
8.1515224e+08
8.0892334e+09
6.3931274e+09
5.900473e+09
5.8634299e+09
5.8367908e+09
5.8176528e+09
5.8067904e+09
5.802635e+09
5.8015943e+09
5.8012865e+09
5.8012909e+09
5.8016075e+09
5.8026569e+09
5.8068202e+09
5.8176907e+09
5.8368343e+09
5.8634788e+09
5.9005248e+09
6.3931838e+09
8.0893026e+09
2.8086335e+10
2.4503997e+10
2.3073405e+10
2.2999705e+10
2.3038141e+10
2.3032473e+10
2.2995456e+10
2.2977737e+10
2.2971373e+10
2.2968578e+10
2.2968587e+10
2.2971399e+10
2.2977782e+10
2.2995516e+10
2.3032549e+10
2.3038226e+10
2.2999799e+10
2.3073502e+10
2.4504097e+10
2.8086438e+10
6.066543e+10
5.6150034e+10
5.3523064e+10
5.3427633e+10
5.3762556e+10
5.3886804e+10
5.380137e+10
5.3754098e+10
5.3735251e+10
5.3725818e+10
5.3725827e+10
5.373528e+10
5.375415e+10
5.3801437e+10
5.3886889e+10
5.3762646e+10
5.3427733e+10
5.3523162e+10
5.6150129e+10
6.0665517e+10
1.0117318e+11
9.7306743e+10
9.3673828e+10
9.3549119e+10
9.4465982e+10
9.4870559e+10
9.4710948e+10
9.4613453e+10
9.4589092e+10
9.4567005e+10
9.456701e+10
9.4589111e+10
9.4613489e+10
9.4710992e+10
9.4870615e+10
9.4466037e+10
9.354918e+10
9.3673882e+10
9.7306789e+10
1.0117322e+11
1.4650515e+11
1.4554722e+11
1.4144462e+11
1.4126635e+11
1.4328488e+11
1.4425828e+11
1.4392331e+11
1.4374352e+11
1.4374462e+11
1.4370028e+11
1.4370027e+11
1.4374462e+11
1.4374352e+11
1.4392331e+11
1.4425828e+11
1.4328486e+11
1.4126634e+11
1.4144459e+11
1.4554719e+11
1.4650513e+11
1.8908316e+11
1.9249448e+11
1.8932857e+11
1.8914349e+11
1.9234678e+11
1.938086e+11
1.9319058e+11
1.9289882e+11
1.9295206e+11
1.9289846e+11
1.9289844e+11
1.9295203e+11
1.9289878e+11
1.9319052e+11
1.9380853e+11
1.9234671e+11
1.8914342e+11
1.8932848e+11
1.9249438e+11
1.890831e+11
2.2754204e+11
2.3542751e+11
2.342269e+11
2.3418361e+11
2.3836101e+11
2.4000729e+11
2.3912498e+11
2.3871589e+11
2.388147e+11
2.3881437e+11
2.3881435e+11
2.3881465e+11
2.387158e+11
2.3912487e+11
2.4000717e+11
2.3836088e+11
2.3418348e+11
2.3422675e+11
2.3542736e+11
2.2754194e+11
2.6238538e+11
2.7460379e+11
2.759239e+11
2.7627249e+11
2.811029e+11
2.8265972e+11
2.8148016e+11
2.8095844e+11
2.8107014e+11
2.8123287e+11
2.8123283e+11
2.8107007e+11
2.8095832e+11
2.8148001e+11
2.8265955e+11
2.8110273e+11
2.7627232e+11
2.759237e+11
2.746036e+11
2.6238523e+11
2.9384547e+11
3.103751e+11
3.1451789e+11
3.1561276e+11
3.2082073e+11
3.2202486e+11
3.2044424e+11
3.1979248e+11
3.198384e+11
3.2028719e+11
3.2028715e+11
3.1983831e+11
3.1979232e+11
3.2044405e+11
3.2202465e+11
3.2082052e+11
3.1561255e+11
3.1451765e+11
3.1037486e+11
2.9384525e+11
3.2222119e+11
3.4316588e+11
3.5028241e+11
3.5255464e+11
3.5799758e+11
3.5860311e+11
3.5651421e+11
3.5567852e+11
3.5551043e+11
3.5632702e+11
3.5632697e+11
3.5551032e+11
3.5567832e+11
3.5651399e+11
3.5860286e+11
3.5799733e+11
3.525544e+11
3.5028212e+11
3.4316559e+11
3.2222091e+11
3.4829134e+11
3.7381301e+11
3.8401483e+11
3.8794074e+11
3.9357115e+11
3.9343729e+11
3.9080368e+11
3.8970263e+11
3.8913238e+11
3.9030918e+11
3.9030912e+11
3.8913225e+11
3.897024e+11
3.9080344e+11
3.9343701e+11
3.9357088e+11
3.8794047e+11
3.840145e+11
3.7381268e+11
3.4829104e+11
3.7369376e+11
4.039107e+11
4.174531e+11
4.2354329e+11
4.2933867e+11
4.2851646e+11
4.2540055e+11
4.239423e+11
4.2282959e+11
4.2425352e+11
4.2425346e+11
4.2282946e+11
4.2394206e+11
4.254003e+11
4.2851619e+11
4.293384e+11
4.2354302e+11
4.1745277e+11
4.0391036e+11
3.7369349e+11
4.0112884e+11
4.3594017e+11
4.5343415e+11
4.6234136e+11
4.683714e+11
4.6704001e+11
4.6355843e+11
4.6165172e+11
4.5996416e+11
4.6143532e+11
4.6143526e+11
4.5996402e+11
4.6165148e+11
4.6355819e+11
4.6703975e+11
4.6837115e+11
4.6234113e+11
4.5343384e+11
4.3593987e+11
4.0112867e+11
4.3429745e+11
4.7318347e+11
4.9575243e+11
5.083957e+11
5.1499406e+11
5.1337006e+11
5.0952554e+11
5.0708602e+11
5.0485224e+11
5.061214e+11
5.0612133e+11
5.0485211e+11
5.0708579e+11
5.0952533e+11
5.1336986e+11
5.1499387e+11
5.0839555e+11
4.957522e+11
4.7318328e+11
4.3429744e+11
4.770704e+11
5.1910456e+11
5.4834645e+11
5.659112e+11
5.7368981e+11
5.7197186e+11
5.676415e+11
5.6461579e+11
5.6181048e+11
5.6261959e+11
5.6261952e+11
5.6181036e+11
5.6461557e+11
5.6764134e+11
5.7197173e+11
5.7368972e+11
5.6591117e+11
5.4834635e+11
5.1910453e+11
4.7707062e+11
5.3154e+11
5.7557588e+11
6.1296656e+11
6.3682333e+11
6.4620425e+11
6.447529e+11
6.3992077e+11
6.3634811e+11
6.3284371e+11
6.3296885e+11
6.3296878e+11
6.3284361e+11
6.3634792e+11
6.3992068e+11
6.4475287e+11
6.4620427e+11
6.3682345e+11
6.1296662e+11
5.7557608e+11
5.3154048e+11
5.9537146e+11
6.4023224e+11
6.8624693e+11
7.1717971e+11
7.2801172e+11
7.2734862e+11
7.2222886e+11
7.1829305e+11
7.1394659e+11
7.132504e+11
7.1325033e+11
7.139465e+11
7.1829288e+11
7.2222884e+11
7.2734869e+11
7.2801186e+11
7.1717998e+11
6.8624718e+11
6.4023268e+11
5.9537219e+11
6.6150118e+11
7.0583363e+11
7.5959733e+11
7.9686928e+11
8.0888778e+11
8.0922147e+11
8.0398779e+11
7.9991254e+11
7.9463219e+11
7.9310887e+11
7.931088e+11
7.9463212e+11
7.999124e+11
8.0398783e+11
8.0922164e+11
8.0888803e+11
7.9686966e+11
7.5959776e+11
7.0583431e+11
6.615021e+11
7.2351838e+11
7.6605033e+11
8.2606169e+11
8.6860923e+11
8.8243486e+11
8.8351834e+11
8.7806112e+11
8.7387074e+11
8.675611e+11
8.6532331e+11
8.6532324e+11
8.6756103e+11
8.7387059e+11
8.7806119e+11
8.8351853e+11
8.8243514e+11
8.6860966e+11
8.260622e+11
7.6605114e+11
7.2351942e+11
7.8041862e+11
8.2225974e+11
8.8812892e+11
9.3756982e+11
9.5578002e+11
9.5728967e+11
9.5164014e+11
9.4711969e+11
9.3971037e+11
9.3687764e+11
9.3687756e+11
9.3971028e+11
9.4711951e+11
9.5164016e+11
9.5728981e+11
9.5578022e+11
9.3757019e+11
8.8812942e+11
8.2226059e+11
7.8041988e+11
8.3131648e+11
8.7917896e+11
9.544738e+11
1.0165875e+12
1.0423175e+12
1.0467175e+12
1.0418001e+12
1.0367351e+12
1.0282468e+12
1.024794e+12
1.0247939e+12
1.0282466e+12
1.0367349e+12
1.0418001e+12
1.0467175e+12
1.0423176e+12
1.0165878e+12
9.5447433e+11
8.7918004e+11
8.3131846e+11
8.6474963e+11
9.3141941e+11
1.0266011e+12
1.1105087e+12
1.1508641e+12
1.1614932e+12
1.1601063e+12
1.1545459e+12
1.1449508e+12
1.1406106e+12
1.1406105e+12
1.1449507e+12
1.1545456e+12
1.1601062e+12
1.1614931e+12
1.1508642e+12
1.1105091e+12
1.026602e+12
9.3142126e+11
8.6475327e+11
0
9.5549205e+11
1.0879619e+12
1.2068409e+12
1.2753492e+12
1.3011596e+12
1.3042379e+12
1.298467e+12
1.2874862e+12
1.2816914e+12
1.2816913e+12
1.287486e+12
1.2984667e+12
1.3042377e+12
1.3011596e+12
1.2753493e+12
1.2068415e+12
1.0879634e+12
9.5549529e+11
0
0
0
0
0
0
0
0
1.4487378e+12
1.4358602e+12
1.4276587e+12
1.4276586e+12
1.4358599e+12
1.4487375e+12
0
0
0
0
0
0
0
0
0
0
0
0
0
0
0
0
0
0
0
0
0
0
0
0
0
0
0
0
0
0
0
0
0
0
0
0
0
0
0
0
0
0
0
0
0
0
0
0
0
0
0
0
0
0
0
0
0
0
0
0
0
0
0
0
0
0
0
0
0
0
0
0
0
0
0
0
0
0
0
0
0
0
0
0
0
0
0
0
0
0
0
0
0
0
0
0
0
0
0
0
0
0
0
0
0
0
0
0
0
0
0
0
0
0
0
0
0
0
0
0
0
0
0
0
0
0
0
0
0
0
0
0
0
0
0
0
0
0
0
0
0
0
0
0
0
0
0
)
;

boundaryField
{
    Wall
    {
        type            zeroGradient;
    }
    frontAndBack
    {
        type            empty;
    }
    atmosphere
    {
        type            zeroGradient;
    }
}


// ************************************************************************* //
