/*--------------------------------*- C++ -*----------------------------------*\
| =========                 |                                                 |
| \\      /  F ield         | OpenFOAM: The Open Source CFD Toolbox           |
|  \\    /   O peration     | Version:  3.0.1                                 |
|   \\  /    A nd           | Web:      www.OpenFOAM.org                      |
|    \\/     M anipulation  |                                                 |
\*---------------------------------------------------------------------------*/
FoamFile
{
    version     2.0;
    format      ascii;
    class       volScalarField;
    location    "33";
    object      XOH;
}
// * * * * * * * * * * * * * * * * * * * * * * * * * * * * * * * * * * * * * //

dimensions      [0 0 0 0 0 0 0];

internalField   nonuniform List<scalar> 
800
(
0.23218139
0.23220981
0.23221588
0.23221684
0.23221699
0.23221706
0.23221715
0.23221725
0.23221733
0.23221737
0.23221737
0.23221733
0.23221725
0.23221715
0.23221706
0.23221699
0.23221684
0.23221588
0.23220981
0.23218139
0.22761361
0.22785456
0.22792038
0.22793931
0.22794396
0.22794447
0.22794402
0.22794354
0.22794324
0.2279431
0.2279431
0.22794324
0.22794354
0.22794401
0.22794447
0.22794396
0.2279393
0.22792037
0.22785454
0.22761358
0.22340864
0.22378635
0.22391167
0.22394964
0.22396019
0.22396221
0.22396192
0.2239613
0.22396085
0.22396064
0.22396064
0.22396085
0.2239613
0.22396192
0.2239622
0.22396018
0.22394963
0.22391165
0.22378633
0.2234086
0.21964237
0.22013548
0.22030972
0.22036331
0.22037875
0.22038216
0.22038218
0.22038159
0.22038111
0.22038088
0.22038087
0.22038111
0.22038158
0.22038217
0.22038214
0.22037873
0.22036329
0.22030969
0.22013545
0.21964232
0.2163358
0.21692409
0.21713894
0.2172047
0.21722354
0.21722774
0.21722791
0.2172273
0.2172268
0.21722656
0.21722656
0.2172268
0.21722729
0.2172279
0.21722773
0.21722352
0.21720468
0.21713891
0.21692405
0.21633574
0.21350597
0.21416732
0.21441658
0.21449161
0.21451241
0.21451672
0.21451672
0.21451597
0.21451541
0.21451514
0.21451514
0.2145154
0.21451596
0.21451671
0.21451671
0.21451239
0.21449159
0.21441655
0.21416728
0.21350591
0.21116281
0.21187584
0.21215411
0.21223607
0.21225758
0.21226132
0.21226083
0.21225976
0.21225905
0.21225872
0.21225872
0.21225904
0.21225975
0.21226082
0.2122613
0.21225756
0.21223605
0.21215409
0.21187581
0.21116276
0.20930998
0.21005533
0.21035714
0.21044409
0.21046523
0.21046776
0.21046644
0.21046486
0.21046391
0.21046348
0.21046348
0.21046391
0.21046486
0.21046643
0.21046774
0.21046521
0.21044407
0.21035712
0.2100553
0.20930994
0.20794673
0.20870782
0.20902714
0.20911763
0.20913754
0.20913831
0.20913584
0.20913356
0.20913228
0.20913169
0.20913169
0.20913227
0.20913356
0.20913583
0.2091383
0.20913753
0.20911762
0.20902712
0.2087078
0.2079467
0.20706837
0.2078323
0.20816222
0.20825539
0.20827347
0.20827201
0.2082681
0.20826493
0.20826321
0.20826242
0.20826242
0.2082632
0.20826493
0.20826809
0.208272
0.20827346
0.20825538
0.2081622
0.20783229
0.20706834
0.20666657
0.20742491
0.20775773
0.20785342
0.20786941
0.20786535
0.20785972
0.20785549
0.20785323
0.20785219
0.20785219
0.20785323
0.20785548
0.20785971
0.20786534
0.2078694
0.20785342
0.20775772
0.2074249
0.20666656
0.20672954
0.20747877
0.20780671
0.20790571
0.20791943
0.20791251
0.20790495
0.2078995
0.20789665
0.20789532
0.20789532
0.20789665
0.2078995
0.20790495
0.20791251
0.20791942
0.20790571
0.20780671
0.20747877
0.20672954
0.2072407
0.20798219
0.20829899
0.20840305
0.20841399
0.20840414
0.20839456
0.20838779
0.20838433
0.20838269
0.20838269
0.20838433
0.20838779
0.20839456
0.20840414
0.20841399
0.20840305
0.208299
0.2079822
0.20724071
0.20817728
0.20891692
0.20922027
0.20933185
0.20933862
0.20932606
0.20931454
0.20930645
0.20930215
0.2093002
0.2093002
0.20930215
0.20930645
0.20931454
0.20932607
0.20933863
0.20933187
0.20922028
0.20891694
0.20817729
0.20950506
0.2102542
0.21054788
0.21066993
0.21067036
0.21065576
0.21064276
0.21063354
0.21062716
0.21062494
0.21062494
0.21062716
0.21063354
0.21064277
0.21065577
0.21067037
0.21066995
0.2105479
0.21025423
0.20950509
0.21117299
0.21195059
0.2122459
0.21238212
0.21237406
0.21235902
0.2123452
0.21233531
0.21232382
0.21232142
0.21232142
0.21232382
0.21233532
0.21234521
0.21235903
0.21237408
0.21238215
0.21224593
0.21195062
0.21117303
0.21310722
0.21394406
0.21425989
0.21441606
0.21439912
0.21438602
0.21437137
0.2143617
0.21434017
0.21433768
0.21433768
0.21434017
0.2143617
0.21437138
0.21438603
0.21439914
0.21441609
0.21425993
0.2139441
0.21310727
0.21520551
0.21614959
0.21651184
0.21669775
0.21667526
0.21666629
0.21664922
0.21664126
0.21660313
0.21660078
0.21660079
0.21660313
0.21664126
0.21664923
0.21666631
0.21667528
0.21669778
0.21651188
0.21614963
0.21520555
0.21733041
0.21845171
0.21889369
0.21912556
0.21910516
0.21910144
0.21907882
0.21907489
0.21901207
0.21901038
0.21901038
0.21901207
0.21907489
0.21907883
0.21910146
0.21910518
0.2191256
0.21889373
0.21845176
0.21733046
0.21929639
0.22069278
0.2212574
0.2215602
0.22155219
0.22155432
0.22152285
0.22152628
0.22142972
0.22142965
0.22142965
0.22142972
0.22152628
0.22152287
0.22155434
0.22155222
0.22156024
0.22125744
0.22069283
0.21929645
0.22084771
0.2226561
0.22340046
0.22380809
0.22382286
0.22383349
0.22379245
0.22380784
0.22366947
0.22367267
0.22367267
0.22366947
0.22380784
0.22379246
0.22383351
0.22382289
0.22380813
0.22340051
0.22265616
0.22084776
0.22162733
0.22403795
0.22504149
0.22559663
0.22564521
0.2256703
0.22562525
0.22565888
0.22547525
0.22548427
0.22548427
0.22547525
0.22565888
0.22562526
0.22567032
0.22564524
0.22559667
0.22504153
0.224038
0.22162739
0.22113924
0.22440853
0.22578573
0.22653878
0.22664024
0.22668994
0.22665144
0.22671165
0.2264881
0.22650658
0.22650658
0.2264881
0.22671165
0.22665145
0.22668996
0.22664027
0.22653882
0.22578578
0.2244086
0.22113932
0.21869044
0.22315804
0.22507876
0.22608407
0.22627942
0.22636557
0.22634531
0.22644269
0.22619629
0.22622913
0.22622913
0.22619629
0.22644269
0.22634532
0.22636559
0.22627946
0.22608412
0.22507882
0.22315813
0.21869056
0.21330329
0.21942069
0.22212729
0.22345353
0.22381036
0.22395066
0.22396384
0.22411091
0.22387071
0.22392399
0.22392399
0.22387072
0.22411092
0.22396386
0.22395069
0.22381041
0.2234536
0.22212737
0.21942082
0.21330346
0.20363165
0.21198752
0.21580675
0.21757135
0.21816947
0.21841074
0.21848579
0.21869609
0.2185
0.21858046
0.21858047
0.21850001
0.2186961
0.21848581
0.21841079
0.21816953
0.21757143
0.21580687
0.21198771
0.20363192
0.18798534
0.19927537
0.20462558
0.2069847
0.20794022
0.20835078
0.20853205
0.20881694
0.2087047
0.20881821
0.20881822
0.20870471
0.20881696
0.20853209
0.20835085
0.20794031
0.20698483
0.20462575
0.19927566
0.18798576
0.16465157
0.1794451
0.18679225
0.18993357
0.1914041
0.19207719
0.19241045
0.19277226
0.1927739
0.19292208
0.19292208
0.19277392
0.19277229
0.19241052
0.19207728
0.19140423
0.18993374
0.1867925
0.17944553
0.16465215
0.13282948
0.15109855
0.16071387
0.1647627
0.16689752
0.16794584
0.16845049
0.16887164
0.1689926
0.16916774
0.16916775
0.16899264
0.1688717
0.16845058
0.16794596
0.16689768
0.16476292
0.1607142
0.1510991
0.13283017
0.093949024
0.114884
0.12624334
0.13112242
0.1337679
0.13534196
0.13603122
0.13647027
0.13667458
0.13685339
0.1368534
0.13667462
0.13647033
0.13603132
0.13534209
0.13376808
0.13112268
0.12624371
0.11488457
0.093949626
0.050014374
0.073535666
0.086189288
0.091438379
0.093915502
0.095565452
0.097031749
0.097497302
0.097709503
0.097854891
0.097854901
0.097709536
0.097497359
0.097031832
0.09556556
0.09391565
0.091438582
0.086189574
0.073536049
0.050014694
1e-150
0.028826043
0.04112933
0.046841726
0.050751722
0.051747258
0.052811567
0.055387126
0.055526201
0.055609923
0.055609929
0.055526217
0.055387155
0.05281161
0.05174731
0.050751794
0.046841827
0.041129465
0.028826188
1e-150
1e-150
1e-150
1e-150
1e-150
1e-150
1e-150
1e-150
0.0064471098
0.006463189
0.0064729062
0.006472907
0.0064631912
0.0064471137
1e-150
1e-150
1e-150
1e-150
1e-150
1e-150
1e-150
1e-150
1e-150
1e-150
1e-150
1e-150
1e-150
1e-150
1e-150
1e-150
1e-150
1e-150
1e-150
1e-150
1e-150
1e-150
1e-150
1e-150
1e-150
1e-150
1e-150
1e-150
1e-150
1e-150
1e-150
1e-150
1e-150
1e-150
1e-150
1e-150
1e-150
1e-150
1e-150
1e-150
1e-150
1e-150
1e-150
1e-150
1e-150
1e-150
1e-150
1e-150
1e-150
1e-150
1e-150
1e-150
1e-150
1e-150
1e-150
1e-150
1e-150
1e-150
1e-150
1e-150
1e-150
1e-150
1e-150
1e-150
1e-150
1e-150
1e-150
1e-150
1e-150
1e-150
1e-150
1e-150
1e-150
1e-150
1e-150
1e-150
1e-150
1e-150
1e-150
1e-150
1e-150
1e-150
1e-150
1e-150
1e-150
1e-150
1e-150
1e-150
1e-150
1e-150
1e-150
1e-150
1e-150
1e-150
1e-150
1e-150
1e-150
1e-150
1e-150
1e-150
1e-150
1e-150
1e-150
1e-150
1e-150
1e-150
1e-150
1e-150
1e-150
1e-150
1e-150
1e-150
1e-150
1e-150
1e-150
1e-150
1e-150
1e-150
1e-150
1e-150
1e-150
1e-150
1e-150
1e-150
1e-150
1e-150
1e-150
1e-150
1e-150
1e-150
1e-150
1e-150
1e-150
1e-150
1e-150
1e-150
1e-150
1e-150
1e-150
1e-150
1e-150
1e-150
1e-150
1e-150
1e-150
1e-150
1e-150
)
;

boundaryField
{
    Wall
    {
        type            zeroGradient;
    }
    frontAndBack
    {
        type            empty;
    }
    atmosphere
    {
        type            zeroGradient;
    }
}


// ************************************************************************* //
