/*--------------------------------*- C++ -*----------------------------------*\
| =========                 |                                                 |
| \\      /  F ield         | OpenFOAM: The Open Source CFD Toolbox           |
|  \\    /   O peration     | Version:  3.0.1                                 |
|   \\  /    A nd           | Web:      www.OpenFOAM.org                      |
|    \\/     M anipulation  |                                                 |
\*---------------------------------------------------------------------------*/
FoamFile
{
    version     2.0;
    format      ascii;
    class       volScalarField;
    location    "33";
    object      XW;
}
// * * * * * * * * * * * * * * * * * * * * * * * * * * * * * * * * * * * * * //

dimensions      [0 0 0 0 0 0 0];

internalField   nonuniform List<scalar> 
800
(
0.80969434
0.80973654
0.80974538
0.80974676
0.80974698
0.80974708
0.80974722
0.80974737
0.80974748
0.80974753
0.80974754
0.80974748
0.80974737
0.80974722
0.80974708
0.80974698
0.80974676
0.80974538
0.80973654
0.80969434
0.80182558
0.8022279
0.80233567
0.80236685
0.80237475
0.80237584
0.8023753
0.80237468
0.80237428
0.80237409
0.80237409
0.80237427
0.80237467
0.8023753
0.80237583
0.80237473
0.80236684
0.80233566
0.80222788
0.80182554
0.79428135
0.79493365
0.79514636
0.79521125
0.79522976
0.79523374
0.79523366
0.79523289
0.7952323
0.79523202
0.79523202
0.7952323
0.79523288
0.79523365
0.79523372
0.79522974
0.79521122
0.79514633
0.7949336
0.79428127
0.78719675
0.78807988
0.78838469
0.78847916
0.78850719
0.78851398
0.78851461
0.78851394
0.78851333
0.78851302
0.78851302
0.78851332
0.78851393
0.78851459
0.78851395
0.78850716
0.78847913
0.78838465
0.78807982
0.78719666
0.78062075
0.78171602
0.78210313
0.78222275
0.78225824
0.78226697
0.78226802
0.78226737
0.78226673
0.7822664
0.7822664
0.78226672
0.78226736
0.782268
0.78226694
0.78225821
0.78222271
0.78210308
0.78171595
0.78062065
0.77459437
0.77587828
0.77634103
0.77648219
0.77652309
0.7765327
0.77653368
0.77653282
0.77653205
0.77653166
0.77653166
0.77653204
0.7765328
0.77653366
0.77653267
0.77652306
0.77648214
0.77634098
0.7758782
0.77459427
0.76914249
0.77059211
0.77112506
0.77128498
0.77132954
0.77133895
0.77133931
0.77133793
0.77133689
0.77133638
0.77133638
0.77133688
0.77133792
0.77133929
0.77133892
0.7713295
0.77128494
0.77112501
0.77059204
0.76914239
0.76427374
0.7658696
0.76646744
0.76664395
0.7666906
0.76669881
0.76669799
0.76669577
0.76669429
0.76669358
0.76669358
0.76669428
0.76669575
0.76669797
0.76669878
0.76669056
0.7666439
0.76646739
0.76586954
0.76427365
0.75998334
0.76171098
0.7623682
0.76255993
0.76260746
0.76261358
0.76261106
0.76260768
0.76260559
0.76260461
0.7626046
0.76260559
0.76260766
0.76261104
0.76261356
0.76260742
0.76255989
0.76236815
0.76171092
0.75998327
0.75625326
0.75810507
0.75881581
0.75902239
0.75907003
0.75907335
0.75906867
0.75906382
0.75906097
0.75905961
0.75905961
0.75906096
0.7590638
0.75906865
0.75907332
0.75907
0.75902235
0.75881577
0.75810502
0.75625319
0.75305231
0.75502927
0.75578761
0.75600991
0.7560575
0.75605751
0.75605032
0.75604376
0.75603999
0.7560382
0.7560382
0.75603998
0.75604374
0.7560503
0.75605749
0.75605747
0.75600989
0.75578758
0.75502924
0.75305226
0.75033697
0.75244983
0.75325088
0.7534914
0.75353921
0.75353573
0.75352583
0.75351738
0.7535126
0.75351031
0.75351031
0.75351259
0.75351737
0.75352581
0.75353572
0.75353919
0.75349138
0.75325086
0.75244981
0.75033694
0.74804964
0.75031935
0.75116148
0.75142454
0.75147289
0.7514662
0.75145367
0.75144333
0.75143754
0.75143473
0.75143473
0.75143753
0.75144331
0.75145366
0.75146619
0.75147287
0.75142453
0.75116146
0.75031934
0.74804963
0.7461182
0.74857568
0.74946378
0.7497553
0.74980392
0.74979496
0.74978024
0.74976822
0.7497613
0.74975801
0.74975801
0.74976129
0.74976821
0.74978023
0.74979495
0.74980391
0.7497553
0.74946378
0.74857568
0.7461182
0.74444608
0.74713417
0.74808271
0.74840993
0.74845812
0.74844871
0.74843297
0.7484199
0.74841077
0.74840709
0.74840709
0.74841076
0.74841989
0.74843297
0.7484487
0.74845812
0.74840994
0.74808272
0.74713419
0.74444609
0.74291064
0.74588635
0.74692168
0.74729352
0.74734101
0.74733447
0.74731954
0.74730653
0.74729231
0.74728841
0.74728841
0.74729231
0.74730653
0.74731954
0.74733447
0.74734101
0.74729353
0.7469217
0.74588637
0.74291067
0.74135107
0.74469178
0.74585296
0.74628177
0.74633093
0.74633221
0.74631962
0.74630851
0.74628435
0.74628054
0.74628054
0.74628435
0.7463085
0.74631961
0.74633221
0.74633094
0.74628179
0.74585299
0.74469181
0.7413511
0.73955657
0.74336896
0.74470799
0.74521225
0.74527068
0.74528529
0.74527532
0.74526891
0.74522849
0.74522541
0.74522541
0.74522849
0.7452689
0.74527532
0.7452853
0.74527069
0.74521228
0.74470802
0.74336901
0.73955661
0.73725123
0.74168083
0.74326452
0.74387215
0.74395408
0.74398727
0.74397885
0.74398117
0.74391703
0.74391589
0.74391589
0.74391702
0.74398117
0.74397885
0.74398727
0.7439541
0.74387218
0.74326456
0.74168088
0.73725127
0.73406815
0.73931193
0.74122689
0.74197895
0.74210481
0.74216212
0.74215424
0.74217087
0.74207505
0.74207788
0.74207788
0.74207504
0.74217086
0.74215424
0.74216213
0.74210483
0.74197898
0.74122693
0.73931199
0.73406821
0.72950491
0.73583368
0.73819574
0.73914879
0.73934364
0.73943428
0.73942917
0.7394676
0.73933365
0.73934357
0.73934357
0.73933365
0.73946759
0.73942917
0.73943429
0.73934366
0.73914882
0.73819579
0.73583374
0.72950498
0.72285461
0.73064726
0.733618
0.73484766
0.73514227
0.73528224
0.73529053
0.73536094
0.7351878
0.73520935
0.73520935
0.73518779
0.73536093
0.73529053
0.73528225
0.7351423
0.7348477
0.73361805
0.73064734
0.7228547
0.71310485
0.72289558
0.7267093
0.72831625
0.72875594
0.72897185
0.72901436
0.72913056
0.72892731
0.72896687
0.72896687
0.7289273
0.72913056
0.72901437
0.72897187
0.72875597
0.7283163
0.72670937
0.72289568
0.71310498
0.69877872
0.71132832
0.71633826
0.71845551
0.71911938
0.71945091
0.71955712
0.71973742
0.71952715
0.71959332
0.71959332
0.71952715
0.71973741
0.71955713
0.71945093
0.71911942
0.71845558
0.71633835
0.71132847
0.69877892
0.67768837
0.69409279
0.70083839
0.70365207
0.70467452
0.70518226
0.7053924
0.70565988
0.70548104
0.70558491
0.70558491
0.70548105
0.70565988
0.70539242
0.70518231
0.70467459
0.70365217
0.70083854
0.69409302
0.67768871
0.64661229
0.66843135
0.67773388
0.68153142
0.68311588
0.68391041
0.68428444
0.68466669
0.68457098
0.68472585
0.68472585
0.68457099
0.68466671
0.68428448
0.68391048
0.68311599
0.68153158
0.67773411
0.66843173
0.64661285
0.60102096
0.63034505
0.64342254
0.64862997
0.65108158
0.65235365
0.65297232
0.65349786
0.65354327
0.65376278
0.65376278
0.6535433
0.6534979
0.6529724
0.65235376
0.65108174
0.64863021
0.6434229
0.63034566
0.60102184
0.53521936
0.57451793
0.59298341
0.60013573
0.6039483
0.60594577
0.6068895
0.60757702
0.60781292
0.60810567
0.60810569
0.60781296
0.60757709
0.60688963
0.60594595
0.60394854
0.60013608
0.59298394
0.57451886
0.53522065
0.44373479
0.49506126
0.52053006
0.53031496
0.53617377
0.53914097
0.54044923
0.54128618
0.54172855
0.54208809
0.54208811
0.54172861
0.54128629
0.54044941
0.53914121
0.53617411
0.53031545
0.52053081
0.49506253
0.44373644
0.32446083
0.38918461
0.42173996
0.43475222
0.44236043
0.4471287
0.44886289
0.44979022
0.45038256
0.45076999
0.45077001
0.45038265
0.44979037
0.44886311
0.44712899
0.44236084
0.43475281
0.42174085
0.38918602
0.3244624
0.17711456
0.25758121
0.29847832
0.31435415
0.32174763
0.32700056
0.33176479
0.33284242
0.33343643
0.33377192
0.33377195
0.33343651
0.33284256
0.33176498
0.32700082
0.321748
0.31435466
0.29847907
0.25758224
0.17711546
1e-150
0.10314518
0.14611913
0.16550837
0.17892274
0.18216715
0.18578052
0.19480692
0.19520255
0.19540496
0.19540497
0.19520259
0.194807
0.18578063
0.18216728
0.17892292
0.16550864
0.14611951
0.10314559
1e-150
1e-150
1e-150
1e-150
1e-150
1e-150
1e-150
1e-150
0.023013853
0.023058843
0.023082662
0.023082664
0.02305885
0.023013863
1e-150
1e-150
1e-150
1e-150
1e-150
1e-150
1e-150
1e-150
1e-150
1e-150
1e-150
1e-150
1e-150
1e-150
1e-150
1e-150
1e-150
1e-150
1e-150
1e-150
1e-150
1e-150
1e-150
1e-150
1e-150
1e-150
1e-150
1e-150
1e-150
1e-150
1e-150
1e-150
1e-150
1e-150
1e-150
1e-150
1e-150
1e-150
1e-150
1e-150
1e-150
1e-150
1e-150
1e-150
1e-150
1e-150
1e-150
1e-150
1e-150
1e-150
1e-150
1e-150
1e-150
1e-150
1e-150
1e-150
1e-150
1e-150
1e-150
1e-150
1e-150
1e-150
1e-150
1e-150
1e-150
1e-150
1e-150
1e-150
1e-150
1e-150
1e-150
1e-150
1e-150
1e-150
1e-150
1e-150
1e-150
1e-150
1e-150
1e-150
1e-150
1e-150
1e-150
1e-150
1e-150
1e-150
1e-150
1e-150
1e-150
1e-150
1e-150
1e-150
1e-150
1e-150
1e-150
1e-150
1e-150
1e-150
1e-150
1e-150
1e-150
1e-150
1e-150
1e-150
1e-150
1e-150
1e-150
1e-150
1e-150
1e-150
1e-150
1e-150
1e-150
1e-150
1e-150
1e-150
1e-150
1e-150
1e-150
1e-150
1e-150
1e-150
1e-150
1e-150
1e-150
1e-150
1e-150
1e-150
1e-150
1e-150
1e-150
1e-150
1e-150
1e-150
1e-150
1e-150
1e-150
1e-150
1e-150
1e-150
1e-150
1e-150
1e-150
1e-150
1e-150
1e-150
1e-150
)
;

boundaryField
{
    Wall
    {
        type            zeroGradient;
    }
    frontAndBack
    {
        type            empty;
    }
    atmosphere
    {
        type            zeroGradient;
    }
}


// ************************************************************************* //
