/*--------------------------------*- C++ -*----------------------------------*\
| =========                 |                                                 |
| \\      /  F ield         | OpenFOAM: The Open Source CFD Toolbox           |
|  \\    /   O peration     | Version:  3.0.1                                 |
|   \\  /    A nd           | Web:      www.OpenFOAM.org                      |
|    \\/     M anipulation  |                                                 |
\*---------------------------------------------------------------------------*/
FoamFile
{
    version     2.0;
    format      ascii;
    class       volScalarField;
    location    "24";
    object      alpha.gas;
}
// * * * * * * * * * * * * * * * * * * * * * * * * * * * * * * * * * * * * * //

dimensions      [0 0 0 0 0 0 0];

internalField   nonuniform List<scalar> 
800
(
2.4978033e-28
2.2978489e-25
4.4193506e-22
8.6386341e-22
8.0254544e-24
1.0676584e-21
9.3174884e-22
5.6825513e-23
1.550081e-25
1.7936455e-28
3.0498235e-23
2.9694795e-23
2.9341702e-25
6.9106328e-23
6.7951187e-23
1.5976525e-27
3.029027e-32
1.2299522e-35
2.4242694e-39
4.5041516e-43
2.3665169e-12
5.394114e-13
3.8707818e-11
1.396502e-11
5.8940098e-13
1.8322847e-11
1.4450172e-11
1.7386169e-11
3.5339631e-11
8.8749338e-11
4.4598053e-11
4.4393864e-11
2.4012754e-11
1.4236105e-11
1.342545e-11
2.6131924e-12
4.1387355e-16
7.5053428e-14
7.479114e-12
1.0314506e-14
6.0585608e-07
5.5750452e-07
5.4686589e-07
5.4604646e-07
5.4684072e-07
5.4786904e-07
5.4860562e-07
5.4907616e-07
5.4934615e-07
5.4949345e-07
5.4946449e-07
5.4935236e-07
5.4908092e-07
5.4860598e-07
5.4786671e-07
5.4684294e-07
5.4603813e-07
5.4684142e-07
5.575101e-07
6.0585604e-07
2.7601605e-06
2.5300215e-06
2.4821588e-06
2.479957e-06
2.4841529e-06
2.4888804e-06
2.4922101e-06
2.4942543e-06
2.4953935e-06
2.495911e-06
2.4958859e-06
2.4953999e-06
2.4942601e-06
2.4922125e-06
2.4888805e-06
2.4841572e-06
2.4799518e-06
2.4821395e-06
2.5300284e-06
2.7601637e-06
7.473821e-06
6.8270414e-06
6.6950867e-06
6.692473e-06
6.7056499e-06
6.7187989e-06
6.7277823e-06
6.7330819e-06
6.7359756e-06
6.737218e-06
6.7371944e-06
6.7359836e-06
6.7330898e-06
6.7277878e-06
6.7188016e-06
6.705657e-06
6.6924695e-06
6.6950697e-06
6.8270495e-06
7.4738268e-06
1.5714688e-05
1.4302742e-05
1.4015056e-05
1.4015861e-05
1.4047699e-05
1.4076346e-05
1.409505e-05
1.41056e-05
1.4111151e-05
1.4113413e-05
1.4113391e-05
1.4111161e-05
1.410561e-05
1.4095058e-05
1.407635e-05
1.4047707e-05
1.4015856e-05
1.4015038e-05
1.4302749e-05
1.5714696e-05
2.8433052e-05
2.5773546e-05
2.5220535e-05
2.5230794e-05
2.5298053e-05
2.5351355e-05
2.5384107e-05
2.5401555e-05
2.5410193e-05
2.5413485e-05
2.5413463e-05
2.5410203e-05
2.5401565e-05
2.5384116e-05
2.5351358e-05
2.5298058e-05
2.5230783e-05
2.5220514e-05
2.577355e-05
2.843306e-05
4.6853161e-05
4.2219662e-05
4.1266712e-05
4.128939e-05
4.1404652e-05
4.1494813e-05
4.1544139e-05
4.1568377e-05
4.1579247e-05
4.1582942e-05
4.1582921e-05
4.1579256e-05
4.1568386e-05
4.1544142e-05
4.1494809e-05
4.1404649e-05
4.1289368e-05
4.1266683e-05
4.221966e-05
4.685317e-05
7.3605006e-05
6.5559012e-05
6.4074527e-05
6.4093247e-05
6.4271625e-05
6.4396161e-05
6.4456588e-05
6.4483677e-05
6.4493527e-05
6.4495824e-05
6.4495804e-05
6.4493533e-05
6.448368e-05
6.4456582e-05
6.4396144e-05
6.4271607e-05
6.4093208e-05
6.4074485e-05
6.5559001e-05
7.3605011e-05
0.00011762452
0.00010225738
9.9734773e-05
9.9621353e-05
9.9840593e-05
9.9982469e-05
0.00010003374
0.00010005058
0.00010005152
0.00010004838
0.00010004836
0.00010005153
0.00010005057
0.00010003372
9.9982428e-05
9.9840547e-05
9.9621282e-05
9.9734702e-05
0.00010225734
0.00011762451
0.00022046428
0.00018204339
0.00017518605
0.00017408229
0.00017394497
0.0001738844
0.00017379931
0.00017373496
0.00017369828
0.0001736733
0.00017367328
0.00017369827
0.00017373494
0.00017379925
0.0001738843
0.00017394484
0.00017408212
0.00017518589
0.00018204325
0.00022046414
0.00066611003
0.00049974236
0.0004629149
0.00045290861
0.00044809812
0.00044566929
0.0004443069
0.0004435387
0.00044328387
0.00044310782
0.00044310777
0.0004432838
0.00044353855
0.00044430662
0.00044566884
0.00044809755
0.00045290792
0.00046291414
0.00049974147
0.00066610879
0.0051759185
0.0033328581
0.002899429
0.0027554768
0.0026808834
0.0026429387
0.0026229917
0.0026117618
0.0026055233
0.0026029753
0.0026029748
0.0026055222
0.0026117596
0.0026229881
0.0026429337
0.002680877
0.0027554688
0.0028994197
0.0033328449
0.0051758933
0.13307964
0.079803663
0.06668457
0.062191663
0.059720698
0.058450037
0.057769722
0.057400292
0.057113095
0.057035419
0.057035405
0.057113048
0.057400216
0.057769599
0.058449871
0.059720488
0.062191414
0.066684259
0.079803244
0.13307883
0.7486687
0.65738727
0.62429353
0.61062288
0.6027137
0.59854754
0.59626357
0.59503504
0.59404511
0.59380262
0.59380258
0.59404493
0.59503478
0.59626315
0.59854699
0.60271301
0.61062208
0.62429266
0.65738627
0.74866772
0.98595395
0.9748352
0.96975895
0.96757726
0.96628743
0.96559649
0.96520966
0.96500232
0.96482284
0.9647843
0.96478429
0.9648228
0.96500228
0.96520959
0.9655964
0.96628731
0.96757713
0.96975881
0.97483506
0.98595385
0.99990625
0.99972863
0.99962648
0.99958625
0.99956388
0.99955217
0.99954565
0.99954223
0.99953873
0.99953818
0.99953818
0.99953873
0.99954223
0.99954565
0.99955217
0.99956388
0.99958625
0.99962647
0.99972862
0.99990625
0.99999996
0.99999973
0.99999952
0.99999944
0.99999941
0.9999994
0.99999939
0.99999939
0.99999938
0.99999938
0.99999938
0.99999938
0.99999939
0.99999939
0.9999994
0.99999941
0.99999944
0.99999952
0.99999973
0.99999996
1
1
1
1
1
1
1
1
1
1
1
1
1
1
1
1
1
1
1
1
1
1
1
1
1
1
1
1
1
1
1
1
1
1
1
1
1
1
1
1
1
1
1
1
1
1
1
1
1
1
1
1
1
1
1
1
1
1
1
1
1
1
1
1
1
1
1
1
1
1
1
1
1
1
1
1
1
1
1
1
1
1
1
1
1
1
1
1
1
1
1
1
1
1
1
1
1
1
1
1
1
1
1
1
1
1
1
1
1
1
1
1
1
1
1
1
1
1
1
1
1
1
1
1
1
1
1
1
1
1
1
1
1
1
1
1
1
1
1
1
1
1
1
1
1
1
1
1
1
1
1
1
1
1
1
1
1
1
1
1
1
1
1
1
1
1
1
1
1
1
1
1
1
1
1
1
1
1
1
1
1
1
1
1
1
1
1
1
1
1
1
1
1
1
1
1
1
1
1
1
1
1
1
1
1
1
1
1
1
1
1
1
1
1
1
1
1
1
1
1
1
1
1
1
1
1
1
1
1
1
1
1
1
1
1
1
1
1
1
1
1
1
1
1
1
1
1
1
1
1
1
1
1
1
1
1
1
1
1
1
1
1
1
1
1
1
1
1
1
1
1
1
1
1
1
1
1
1
1
1
1
1
1
1
1
1
1
1
1
1
1
1
1
1
1
1
1
1
1
1
1
1
1
1
1
1
1
1
1
1
1
1
1
1
1
1
1
1
1
1
1
1
1
1
1
1
1
1
1
1
1
1
1
1
1
1
1
1
1
1
1
1
1
1
1
1
1
1
1
1
1
1
1
1
1
1
1
1
1
1
1
1
1
1
1
1
1
1
1
1
1
1
1
1
1
1
1
1
1
1
1
1
1
1
1
1
1
1
1
1
1
1
1
1
1
1
1
1
1
1
1
1
1
1
1
1
1
1
1
1
1
1
1
1
1
1
1
1
1
1
1
1
1
1
1
1
1
1
1
1
1
1
1
1
1
1
1
1
1
1
)
;

boundaryField
{
    Wall
    {
        type            zeroGradient;
    }
    frontAndBack
    {
        type            empty;
    }
    atmosphere
    {
        type            zeroGradient;
    }
}


// ************************************************************************* //
