/*--------------------------------*- C++ -*----------------------------------*\
| =========                 |                                                 |
| \\      /  F ield         | OpenFOAM: The Open Source CFD Toolbox           |
|  \\    /   O peration     | Version:  3.0.1                                 |
|   \\  /    A nd           | Web:      www.OpenFOAM.org                      |
|    \\/     M anipulation  |                                                 |
\*---------------------------------------------------------------------------*/
FoamFile
{
    version     2.0;
    format      ascii;
    class       volScalarField;
    location    "24";
    object      g1_BA;
}
// * * * * * * * * * * * * * * * * * * * * * * * * * * * * * * * * * * * * * //

dimensions      [0 0 0 0 0 0 0];

internalField   nonuniform List<scalar> 
800
(
0.38968194
0.38979935
0.38981923
0.38982181
0.38982242
0.38982301
0.38982371
0.38982433
0.38982478
0.389825
0.38982501
0.38982478
0.38982433
0.38982371
0.38982302
0.38982242
0.38982182
0.38981924
0.38979935
0.38968195
0.35138224
0.3528217
0.35312419
0.35316206
0.35314966
0.35313581
0.35312838
0.35312591
0.35312573
0.35312603
0.35312604
0.35312573
0.35312591
0.35312838
0.3531358
0.35314965
0.35316205
0.35312418
0.35282168
0.3513822
0.30777671
0.31014767
0.31078341
0.31088589
0.31087576
0.31085411
0.31084104
0.31083605
0.31083519
0.31083548
0.31083548
0.31083518
0.31083603
0.31084103
0.31085409
0.31087573
0.31088587
0.31078339
0.31014765
0.30777666
0.26619773
0.26927788
0.27017795
0.2703235
0.2703119
0.27028159
0.27026253
0.27025426
0.27025208
0.27025195
0.27025195
0.27025207
0.27025424
0.27026251
0.27028157
0.27031188
0.27032348
0.27017793
0.26927786
0.2661977
0.22997313
0.23348625
0.23459111
0.23476727
0.23474873
0.23470669
0.23467982
0.23466655
0.23466182
0.23466057
0.23466057
0.23466181
0.23466653
0.23467981
0.23470667
0.23474871
0.23476727
0.23459111
0.23348625
0.22997312
0.19945568
0.20325134
0.20456063
0.20477052
0.20474491
0.20469044
0.20465507
0.20463594
0.20462814
0.20462541
0.20462541
0.20462813
0.20463593
0.20465506
0.20469045
0.20474492
0.20477054
0.20456065
0.20325137
0.19945571
0.17329133
0.17743502
0.1788741
0.17913197
0.17910495
0.17904063
0.17899821
0.17897397
0.17896357
0.17895948
0.17895948
0.17896357
0.17897397
0.17899821
0.17904065
0.17910497
0.17913201
0.17887415
0.17743508
0.17329138
0.14913582
0.15387682
0.15534859
0.15568231
0.15566529
0.15559885
0.15555457
0.15552879
0.15551794
0.15551342
0.15551342
0.15551794
0.15552879
0.15555459
0.15559889
0.15566533
0.15568237
0.15534866
0.15387689
0.14913588
0.12410105
0.1297461
0.13123899
0.13169231
0.13171529
0.13165972
0.13162521
0.13160602
0.13159941
0.13159668
0.13159668
0.13159941
0.13160602
0.13162523
0.13165975
0.13171534
0.13169238
0.13123906
0.12974618
0.12410112
0.095433074
0.10213288
0.10374272
0.10436672
0.10448032
0.10447579
0.10447288
0.10447382
0.10447904
0.10448178
0.10448179
0.10447904
0.10447382
0.1044729
0.10447583
0.10448037
0.10436679
0.10374278
0.10213295
0.095433128
0.061429681
0.06881781
0.070658928
0.071496878
0.071813937
0.071914664
0.071972188
0.072010234
0.072035926
0.07204826
0.072048259
0.072035923
0.072010231
0.071972196
0.071914686
0.071813971
0.071496925
0.070658973
0.068817855
0.061429708
0.024576854
0.0309321
0.033182713
0.034212175
0.034361659
0.034547049
0.034663102
0.034740234
0.034811711
0.034835574
0.034835572
0.034811708
0.034740229
0.034663104
0.03454706
0.034361676
0.0342122
0.033182736
0.030932123
0.024576867
0
0
0.00065753226
0.0011825731
0.0014091982
0.0015681638
0.0016729502
0.0017684241
0.0020028365
0.002051641
0.0020516401
0.0020028349
0.0017684214
0.0016729508
0.001568168
0.0014092053
0.001182583
0.00065754121
0
0
0
0
0
0
0
0
0
0
0
0
0
0
0
0
0
0
0
0
0
0
0
0
0
0
0
0
0
0
0
0
0
0
0
0
0
0
0
0
0
0
0
0
0
0
0
0
0
0
0
0
0
0
0
0
0
0
0
0
0
0
0
0
0
0
0
0
0
0
0
0
0
0
0
0
0
0
0
0
0
0
0
0
0
0
0
0
0
0
0
0
0
0
0
0
0
0
0
0
0
0
0
0
0
0
0
0
0
0
0
0
0
0
0
0
0
0
0
0
0
0
0
0
0
0
0
0
0
0
0
0
0
0
0
0
0
0
0
0
0
0
0
0
0
0
0
0
0
0
0
0
0
0
0
0
0
0
0
0
0
0
0
0
0
0
0
0
0
0
0
0
0
0
0
0
0
0
0
0
0
0
0
0
0
0
0
0
0
0
0
0
0
0
0
0
0
0
0
0
0
0
0
0
0
0
0
0
0
0
0
0
0
0
0
0
0
0
0
0
0
0
0
0
0
0
0
0
0
0
0
0
0
0
0
0
0
0
0
0
0
0
0
0
0
0
0
0
0
0
0
0
0
0
0
0
0
0
0
0
0
0
0
0
0
0
0
0
0
0
0
0
0
0
0
0
0
0
0
0
0
0
0
0
0
0
0
0
0
0
0
0
0
0
0
0
0
0
0
0
0
0
0
0
0
0
0
0
0
0
0
0
0
0
0
0
0
0
0
0
0
0
0
0
0
0
0
0
0
0
0
0
0
0
0
0
0
0
0
0
0
0
0
0
0
0
0
0
0
0
0
0
0
0
0
0
0
0
0
0
0
0
0
0
0
0
0
0
0
0
0
0
0
0
0
0
0
0
0
0
0
0
0
0
0
0
0
0
0
0
0
0
0
0
0
0
0
0
0
0
0
0
0
0
0
0
0
0
0
0
0
0
0
0
0
0
0
0
0
0
0
0
0
0
0
0
0
0
0
0
0
0
0
0
0
0
0
0
0
0
0
0
0
0
0
0
0
0
0
0
0
0
0
0
0
0
0
0
0
0
0
0
0
0
0
0
0
0
0
0
0
0
0
0
0
0
0
0
0
0
0
0
0
0
0
0
0
0
0
0
0
0
0
0
0
0
0
0
0
0
0
0
0
0
0
0
0
0
0
0
0
0
0
0
0
0
0
0
0
0
0
0
0
0
0
0
0
0
0
0
0
0
0
0
0
0
0
0
0
0
0
0
)
;

boundaryField
{
    Wall
    {
        type            zeroGradient;
    }
    frontAndBack
    {
        type            empty;
    }
    atmosphere
    {
        type            zeroGradient;
    }
}


// ************************************************************************* //
