/*--------------------------------*- C++ -*----------------------------------*\
| =========                 |                                                 |
| \\      /  F ield         | OpenFOAM: The Open Source CFD Toolbox           |
|  \\    /   O peration     | Version:  3.0.1                                 |
|   \\  /    A nd           | Web:      www.OpenFOAM.org                      |
|    \\/     M anipulation  |                                                 |
\*---------------------------------------------------------------------------*/
FoamFile
{
    version     2.0;
    format      ascii;
    class       volScalarField;
    location    "24";
    object      g1_CO2;
}
// * * * * * * * * * * * * * * * * * * * * * * * * * * * * * * * * * * * * * //

dimensions      [0 0 0 0 0 0 0];

internalField   nonuniform List<scalar> 
800
(
0.48254555
0.48258103
0.48258782
0.48258879
0.48258905
0.48258929
0.48258956
0.48258979
0.48258995
0.48259004
0.48259004
0.48258995
0.48258979
0.48258956
0.48258929
0.48258905
0.48258879
0.48258783
0.48258103
0.48254555
0.5016629
0.50158379
0.50162619
0.50163291
0.50162135
0.50160521
0.50159089
0.50158035
0.50157366
0.50157044
0.50157044
0.50157366
0.50158035
0.50159089
0.5016052
0.50162133
0.50163289
0.50162616
0.50158376
0.50166286
0.52462933
0.52430901
0.52429904
0.52430874
0.52429276
0.52426877
0.52424676
0.52423023
0.52421955
0.52421433
0.52421433
0.52421954
0.52423022
0.52424675
0.52426875
0.52429273
0.52430871
0.524299
0.52430897
0.52462929
0.55620315
0.55525552
0.55515768
0.5551753
0.55515847
0.55513235
0.555107
0.55508772
0.55507502
0.55506879
0.55506879
0.55507502
0.55508772
0.55510699
0.55513233
0.55515844
0.55517526
0.55515764
0.55525549
0.55620312
0.60097366
0.59881387
0.59856519
0.59849442
0.59846991
0.59843914
0.59840907
0.59838614
0.59837081
0.59836332
0.59836332
0.59837081
0.59838614
0.59840906
0.59843912
0.59846989
0.5984944
0.59856517
0.59881386
0.60097366
0.66195623
0.65793967
0.65748971
0.65729164
0.6572458
0.65720039
0.6571595
0.65712903
0.6571086
0.65709871
0.65709871
0.65710861
0.65712903
0.6571595
0.65720039
0.6572458
0.65729164
0.65748972
0.65793968
0.66195624
0.74042499
0.73417615
0.7332589
0.73294473
0.73285243
0.73277367
0.73270946
0.73266306
0.73263254
0.73261789
0.73261789
0.73263255
0.73266307
0.73270947
0.73277369
0.73285244
0.73294474
0.73325892
0.73417618
0.74042502
0.83609437
0.82779887
0.82598507
0.82553888
0.82536528
0.82522214
0.82511358
0.82503736
0.82498876
0.82496561
0.82496562
0.82498877
0.82503738
0.82511359
0.82522216
0.8253653
0.82553891
0.8259851
0.82779891
0.83609441
0.94635224
0.93725061
0.93410458
0.9334309
0.93352497
0.93326859
0.93308183
0.93295551
0.93287742
0.93284054
0.93284054
0.93287743
0.93295552
0.93308184
0.93326862
0.93352499
0.93343093
0.93410461
0.93725065
0.94635229
1.0606334
1.0560093
1.0510387
1.0499674
1.0504108
1.0512976
1.0509825
1.0507792
1.0506577
1.0506012
1.0506012
1.0506577
1.0507792
1.0509825
1.0512976
1.0504108
1.0499674
1.0510387
1.0560093
1.0606334
1.144507
1.1537464
1.1514271
1.1497977
1.1536268
1.1554854
1.1549777
1.1546716
1.1544954
1.1544163
1.1544163
1.1544954
1.1546716
1.1549777
1.1554854
1.1536268
1.1497977
1.1514271
1.1537463
1.1445069
1.0920236
1.1377237
1.1525119
1.1503356
1.1645254
1.166631
1.166098
1.1658003
1.1656926
1.1656268
1.1656268
1.1656926
1.1658002
1.166098
1.1666309
1.1645254
1.1503356
1.1525118
1.1377235
1.0920234
0.7180168
0.77588949
0.79751362
0.79706944
0.81283975
0.81602236
0.8162246
0.81644545
0.84648403
0.84653445
0.84653443
0.84648397
0.81644536
0.81622447
0.81602221
0.81283955
0.79706921
0.79751336
0.77588918
0.71801643
0.41564811
0.46644662
0.48428121
0.48813996
0.49863762
0.5013875
0.50190724
0.5023054
0.50506102
0.50519383
0.50519382
0.50506097
0.50230531
0.50190711
0.50138733
0.49863742
0.48813972
0.48428096
0.46644634
0.41564786
0
0
0
0
0
0
0
0
0
0
0
0
0
0
0
0
0
0
0
0
0
0
0
0
0
0
0
0
0
0
0
0
0
0
0
0
0
0
0
0
0
0
0
0
0
0
0
0
0
0
0
0
0
0
0
0
0
0
0
0
0
0
0
0
0
0
0
0
0
0
0
0
0
0
0
0
0
0
0
0
0
0
0
0
0
0
0
0
0
0
0
0
0
0
0
0
0
0
0
0
0
0
0
0
0
0
0
0
0
0
0
0
0
0
0
0
0
0
0
0
0
0
0
0
0
0
0
0
0
0
0
0
0
0
0
0
0
0
0
0
0
0
0
0
0
0
0
0
0
0
0
0
0
0
0
0
0
0
0
0
0
0
0
0
0
0
0
0
0
0
0
0
0
0
0
0
0
0
0
0
0
0
0
0
0
0
0
0
0
0
0
0
0
0
0
0
0
0
0
0
0
0
0
0
0
0
0
0
0
0
0
0
0
0
0
0
0
0
0
0
0
0
0
0
0
0
0
0
0
0
0
0
0
0
0
0
0
0
0
0
0
0
0
0
0
0
0
0
0
0
0
0
0
0
0
0
0
0
0
0
0
0
0
0
0
0
0
0
0
0
0
0
0
0
0
0
0
0
0
0
0
0
0
0
0
0
0
0
0
0
0
0
0
0
0
0
0
0
0
0
0
0
0
0
0
0
0
0
0
0
0
0
0
0
0
0
0
0
0
0
0
0
0
0
0
0
0
0
0
0
0
0
0
0
0
0
0
0
0
0
0
0
0
0
0
0
0
0
0
0
0
0
0
0
0
0
0
0
0
0
0
0
0
0
0
0
0
0
0
0
0
0
0
0
0
0
0
0
0
0
0
0
0
0
0
0
0
0
0
0
0
0
0
0
0
0
0
0
0
0
0
0
0
0
0
0
0
0
0
0
0
0
0
0
0
0
0
0
0
0
0
0
0
0
0
0
0
0
0
0
0
0
0
0
0
0
0
0
0
0
0
0
0
0
0
0
0
0
0
0
0
0
0
0
0
0
0
0
0
0
0
0
0
0
0
0
0
0
0
0
0
0
0
0
0
0
0
0
0
0
0
0
0
0
0
0
0
0
0
0
0
0
0
0
0
0
0
0
0
0
0
0
0
0
0
0
0
0
0
0
0
0
0
0
0
0
0
0
0
0
)
;

boundaryField
{
    Wall
    {
        type            zeroGradient;
    }
    frontAndBack
    {
        type            empty;
    }
    atmosphere
    {
        type            zeroGradient;
    }
}


// ************************************************************************* //
