/*--------------------------------*- C++ -*----------------------------------*\
| =========                 |                                                 |
| \\      /  F ield         | OpenFOAM: The Open Source CFD Toolbox           |
|  \\    /   O peration     | Version:  3.0.1                                 |
|   \\  /    A nd           | Web:      www.OpenFOAM.org                      |
|    \\/     M anipulation  |                                                 |
\*---------------------------------------------------------------------------*/
FoamFile
{
    version     2.0;
    format      ascii;
    class       volScalarField;
    location    "24";
    object      M0;
}
// * * * * * * * * * * * * * * * * * * * * * * * * * * * * * * * * * * * * * //

dimensions      [0 0 0 0 0 0 0];

internalField   nonuniform List<scalar> 
800
(
9.0635776e+11
9.062961e+11
9.0628944e+11
9.0628992e+11
9.0629076e+11
9.0629137e+11
9.0629172e+11
9.0629193e+11
9.0629205e+11
9.0629212e+11
9.0629211e+11
9.0629205e+11
9.0629193e+11
9.0629172e+11
9.0629136e+11
9.0629076e+11
9.0628991e+11
9.0628943e+11
9.062961e+11
9.0635776e+11
9.3489674e+11
9.336343e+11
9.3341933e+11
9.3339786e+11
9.3340928e+11
9.3341823e+11
9.3342115e+11
9.3342046e+11
9.3341876e+11
9.3341759e+11
9.3341758e+11
9.3341876e+11
9.3342046e+11
9.3342115e+11
9.3341823e+11
9.3340928e+11
9.3339786e+11
9.3341933e+11
9.3363431e+11
9.3489676e+11
9.4686262e+11
9.4529192e+11
9.4485852e+11
9.4481267e+11
9.4481816e+11
9.4482297e+11
9.4482108e+11
9.448158e+11
9.4481064e+11
9.4480763e+11
9.4480763e+11
9.4481064e+11
9.4481581e+11
9.4482108e+11
9.4482297e+11
9.4481816e+11
9.4481266e+11
9.4485851e+11
9.4529192e+11
9.4686263e+11
9.4227747e+11
9.4086583e+11
9.4031747e+11
9.4026487e+11
9.4026458e+11
9.4026221e+11
9.4025328e+11
9.4024232e+11
9.4023329e+11
9.4022833e+11
9.4022832e+11
9.4023329e+11
9.4024231e+11
9.4025327e+11
9.4026219e+11
9.4026456e+11
9.4026485e+11
9.4031745e+11
9.408658e+11
9.4227746e+11
9.2375479e+11
9.2285596e+11
9.2228066e+11
9.221296e+11
9.2212539e+11
9.2211628e+11
9.221008e+11
9.220848e+11
9.2207245e+11
9.2206586e+11
9.2206585e+11
9.2207245e+11
9.2208479e+11
9.2210078e+11
9.2211625e+11
9.2212536e+11
9.2212956e+11
9.2228062e+11
9.2285592e+11
9.2375476e+11
8.9593678e+11
8.955494e+11
8.9500878e+11
8.9472119e+11
8.9471612e+11
8.947032e+11
8.9468353e+11
8.946643e+11
8.9464988e+11
8.9464228e+11
8.9464228e+11
8.9464987e+11
8.9466428e+11
8.946835e+11
8.9470317e+11
8.9471608e+11
8.9472114e+11
8.9500874e+11
8.9554935e+11
8.9593675e+11
8.6423432e+11
8.6399114e+11
8.636319e+11
8.6324127e+11
8.6324011e+11
8.6322745e+11
8.6320691e+11
8.6318679e+11
8.6317175e+11
8.6316383e+11
8.6316383e+11
8.6317175e+11
8.6318678e+11
8.6320689e+11
8.6322742e+11
8.6324008e+11
8.6324123e+11
8.6363186e+11
8.639911e+11
8.6423429e+11
8.3391587e+11
8.3343731e+11
8.3321269e+11
8.3278884e+11
8.3280106e+11
8.3279315e+11
8.327747e+11
8.3275539e+11
8.3274054e+11
8.3273255e+11
8.3273255e+11
8.3274054e+11
8.3275538e+11
8.3277469e+11
8.3279313e+11
8.3280104e+11
8.3278882e+11
8.3321266e+11
8.3343729e+11
8.3391586e+11
8.1036153e+11
8.089455e+11
8.089041e+11
8.0852568e+11
8.0822525e+11
8.082288e+11
8.0821283e+11
8.0819337e+11
8.0817751e+11
8.0816855e+11
8.0816855e+11
8.0817751e+11
8.0819338e+11
8.0821283e+11
8.082288e+11
8.0822526e+11
8.0852568e+11
8.0890409e+11
8.089455e+11
8.1036154e+11
8.0013609e+11
7.9616042e+11
7.964557e+11
7.9620918e+11
7.9552951e+11
7.9503274e+11
7.9501085e+11
7.9498338e+11
7.9496071e+11
7.9494751e+11
7.9494751e+11
7.9496072e+11
7.9498339e+11
7.9501087e+11
7.9503277e+11
7.9552954e+11
7.9620921e+11
7.9645573e+11
7.9616046e+11
8.0013616e+11
8.1196455e+11
8.0417988e+11
8.0412232e+11
8.0412207e+11
8.0247605e+11
8.0145056e+11
8.0139168e+11
8.0133242e+11
8.0128755e+11
8.0126178e+11
8.0126179e+11
8.0128757e+11
8.0133245e+11
8.0139172e+11
8.0145062e+11
8.0247612e+11
8.0412215e+11
8.041224e+11
8.0417998e+11
8.119647e+11
8.5690521e+11
8.4486345e+11
8.4378603e+11
8.4427828e+11
8.4107586e+11
8.3968307e+11
8.3950128e+11
8.3934819e+11
8.3923653e+11
8.391784e+11
8.3917841e+11
8.3923655e+11
8.3934823e+11
8.3950136e+11
8.3968316e+11
8.4107598e+11
8.4427842e+11
8.4378617e+11
8.4486364e+11
8.5690547e+11
9.3652469e+11
9.2433199e+11
9.250903e+11
9.2635563e+11
9.2265556e+11
9.2094631e+11
9.2048326e+11
9.201141e+11
9.1965178e+11
9.1952217e+11
9.1952217e+11
9.1965181e+11
9.2011415e+11
9.2048336e+11
9.2094646e+11
9.2265574e+11
9.2635587e+11
9.2509052e+11
9.2433228e+11
9.3652508e+11
1.0359239e+12
1.0301471e+12
1.0367588e+12
1.0406399e+12
1.0379055e+12
1.036073e+12
1.0351336e+12
1.0343698e+12
1.0323961e+12
1.0321335e+12
1.0321335e+12
1.0323961e+12
1.0343698e+12
1.0351337e+12
1.0360732e+12
1.0379058e+12
1.0406402e+12
1.036759e+12
1.0301474e+12
1.0359244e+12
1.1242321e+12
1.1469951e+12
1.1718727e+12
1.1845252e+12
1.1856332e+12
1.1842433e+12
1.1825334e+12
1.1810263e+12
1.1782723e+12
1.1777535e+12
1.1777535e+12
1.1782722e+12
1.1810262e+12
1.1825334e+12
1.1842434e+12
1.1856335e+12
1.1845255e+12
1.171873e+12
1.1469955e+12
1.1242326e+12
1.0896891e+12
1.1698045e+12
1.2317151e+12
1.2654928e+12
1.2764224e+12
1.2771838e+12
1.2744847e+12
1.2715573e+12
1.2683517e+12
1.2672776e+12
1.2672775e+12
1.2683516e+12
1.2715571e+12
1.2744846e+12
1.2771839e+12
1.2764226e+12
1.2654931e+12
1.2317154e+12
1.1698049e+12
1.0896898e+12
8.6805287e+11
1.0616578e+12
1.1786456e+12
1.2455555e+12
1.2738393e+12
1.2796718e+12
1.2760142e+12
1.2706377e+12
1.2660969e+12
1.2639141e+12
1.263914e+12
1.2660966e+12
1.2706373e+12
1.276014e+12
1.2796717e+12
1.2738393e+12
1.2455557e+12
1.1786457e+12
1.0616581e+12
8.6805369e+11
4.945735e+11
8.4521149e+11
1.0268225e+12
1.1282195e+12
1.1743371e+12
1.1856313e+12
1.1804638e+12
1.17141e+12
1.1640486e+12
1.1600788e+12
1.1600785e+12
1.1640481e+12
1.1714093e+12
1.1804633e+12
1.185631e+12
1.1743369e+12
1.1282195e+12
1.0268225e+12
8.4521168e+11
4.9457422e+11
1.8643965e+11
5.8430226e+11
8.1476534e+11
9.4420297e+11
1.0043599e+12
1.019804e+12
1.0128577e+12
9.9985987e+11
9.8903958e+11
9.8301257e+11
9.8301221e+11
9.8903892e+11
9.9985898e+11
1.012857e+12
1.0198035e+12
1.0043595e+12
9.4420273e+11
8.1476516e+11
5.843023e+11
1.8643999e+11
4.9566669e+10
3.5149086e+11
5.8975406e+11
7.3251338e+11
8.0086763e+11
8.1937434e+11
8.1188101e+11
7.9662187e+11
7.8347604e+11
7.7602618e+11
7.7602577e+11
7.8347522e+11
7.9662078e+11
8.1188015e+11
8.1937368e+11
8.0086712e+11
7.3251302e+11
5.897538e+11
3.514908e+11
4.9566764e+10
1.0428497e+10
1.8638748e+11
3.9165575e+11
5.2918453e+11
5.9854977e+11
6.1898596e+11
6.1281721e+11
5.9798214e+11
5.8469535e+11
5.770474e+11
5.7704697e+11
5.8469447e+11
5.9798097e+11
6.1281625e+11
6.1898519e+11
5.9854918e+11
5.2918414e+11
3.9165548e+11
1.863874e+11
1.0428515e+10
1.8912061e+09
8.8833609e+10
2.4075498e+11
3.5817879e+11
4.217261e+11
4.4246425e+11
4.3877501e+11
4.2647772e+11
4.1494765e+11
4.0820216e+11
4.0820175e+11
4.1494682e+11
4.264766e+11
4.3877406e+11
4.4246349e+11
4.2172552e+11
3.5817843e+11
2.4075477e+11
8.8833559e+10
1.8912093e+09
3.1124962e+08
3.8824015e+10
1.3832345e+11
2.2870187e+11
2.8179649e+11
3.0103698e+11
2.9985228e+11
2.9092966e+11
2.8207506e+11
2.7680075e+11
2.7680041e+11
2.8207434e+11
2.9092868e+11
2.9985143e+11
3.010363e+11
2.81796e+11
2.2870159e+11
1.383233e+11
3.8823991e+10
3.1125017e+08
47923559
1.581974e+10
7.494192e+10
1.3866012e+11
1.7955817e+11
1.9592962e+11
1.9654413e+11
1.9077446e+11
1.8461491e+11
1.8086899e+11
1.8086871e+11
1.8461433e+11
1.9077366e+11
1.9654344e+11
1.9592908e+11
1.7955779e+11
1.3865993e+11
7.4941832e+10
1.5819732e+10
47923661
7029346.7
6.0841128e+09
3.8569966e+10
8.0271819e+10
1.0961389e+11
1.2249095e+11
1.2403001e+11
1.2067707e+11
1.1673142e+11
1.1427202e+11
1.1427182e+11
1.1673099e+11
1.2067646e+11
1.2402948e+11
1.2249054e+11
1.0961361e+11
8.0271699e+10
3.8569921e+10
6.0841111e+09
7029365.7
992835.21
2.2277171e+09
1.8965641e+10
4.4569638e+10
6.4348835e+10
7.3795194e+10
7.5565003e+10
7.3819685e+10
7.1466627e+10
6.9955486e+10
6.9955344e+10
7.1466317e+10
7.381925e+10
7.5564621e+10
7.3794904e+10
6.4348643e+10
4.4569568e+10
1.8965621e+10
2.2277173e+09
992838.75
135897.26
7.8136366e+08
8.9496932e+09
2.381717e+10
3.6433336e+10
4.294855e+10
4.4539691e+10
4.3744215e+10
4.2429033e+10
4.155277e+10
4.1552674e+10
4.2428823e+10
4.3743919e+10
4.453943e+10
4.2948355e+10
3.6433211e+10
2.381713e+10
8.9496852e+09
7.8136404e+08
135897.89
18095.412
2.6369653e+08
4.0669743e+09
1.2282868e+10
1.9940349e+10
2.4193689e+10
2.5438902e+10
2.5143788e+10
2.4452691e+10
2.3970463e+10
2.3970402e+10
2.4452555e+10
2.5143596e+10
2.5438732e+10
2.4193563e+10
1.9940271e+10
1.2282846e+10
4.0669714e+09
2.6369678e+08
18095.517
2349.3242
85911566
1.7846333e+09
6.1265409e+09
1.0569032e+10
1.3211675e+10
1.4097003e+10
1.4032861e+10
1.3691519e+10
1.3438766e+10
1.3438729e+10
1.3691434e+10
1.4032742e+10
1.4096896e+10
1.3211598e+10
1.0568985e+10
6.1265293e+09
1.7846325e+09
85911690
2349.3409
297.81171
27089815
7.5789909e+08
2.9608562e+09
5.433263e+09
7.0028023e+09
7.5874718e+09
7.6110704e+09
7.4532846e+09
7.3268728e+09
7.3268509e+09
7.4532337e+09
7.6109994e+09
7.5874079e+09
7.0027566e+09
5.4332361e+09
2.9608502e+09
7.5789897e+08
27089868
297.81431
36.908594
8284354
3.1208229e+08
1.3885698e+09
2.7124867e+09
3.6068181e+09
3.9702619e+09
4.0148849e+09
3.9473495e+09
3.8869957e+09
3.8869833e+09
3.9473202e+09
4.014844e+09
3.9702249e+09
3.6067919e+09
2.7124718e+09
1.3885667e+09
3.1208234e+08
8284375.1
36.908707
4.6908432
2461218.1
1.2479987e+08
6.3276402e+08
1.316577e+09
1.8069387e+09
2.0214717e+09
2.0613577e+09
2.0352162e+09
2.0077418e+09
2.007735e+09
2.0351999e+09
2.0613349e+09
2.021451e+09
1.8069242e+09
1.3165689e+09
6.3276246e+08
1.2479992e+08
2461226
4.6871119
2.5618106
711405.72
48534235
2.8051037e+08
6.2192323e+08
8.8129348e+08
1.0022888e+09
1.0308609e+09
1.0222262e+09
1.0103401e+09
1.0103365e+09
1.0222174e+09
1.0308487e+09
1.0022776e+09
8.8128565e+08
6.2191902e+08
2.8050961e+08
48534273
711408.4
2.5626561
2.4417574
200391.79
18378124
1.2110065e+08
2.8618063e+08
4.1881086e+08
4.8431298e+08
5.0247877e+08
5.0049343e+08
4.95638e+08
4.9563616e+08
5.0048881e+08
5.0247237e+08
4.8430708e+08
4.1880675e+08
2.861785e+08
1.2110028e+08
18378144
200392.26
2.4422709
0.9612017
55159.831
6783607.4
50962051
1.2838838e+08
1.94077e+08
2.2823501e+08
2.3889201e+08
2.3902592e+08
2.3717599e+08
2.3717507e+08
2.3902357e+08
2.3888877e+08
2.2823199e+08
1.940749e+08
1.2838732e+08
50961873
6783612.5
55159.639
0.96128222
0.27107098
14841.21
2443399.6
20923338
56199614
87762046
1.04969e+08
1.1085042e+08
1.1141965e+08
1.1077835e+08
1.107779e+08
1.1141848e+08
1.1084881e+08
1.049675e+08
87761004
56199107
20923250
2443400.2
14841.032
0.27070391
0.06220745
3903.6111
859515.61
8387943.6
24020510
38753779
47146315
50234221
50724293
50533593
50533379
50723730
50233447
47145585
38753274
24020269
8387900.5
859515.29
3903.5395
0.062124385
0.011665428
1003.6153
295506.29
3285752.4
10031660
16721645
20692512
22246018
22566589
22526925
22526825
22566323
22245654
20692166
16721405
10031548
3285731.8
295505.86
1003.5878
0.011668832
0.0014868704
252.11053
99366.625
1258526
4096217.7
7054550.5
8880059.3
9632684.6
9816572.1
9818977.8
9818932.1
9816449.3
9632517
8879898.7
7054438.6
4096166.4
1258516.4
99366.329
252.10096
0.0014892478
0.00015601518
61.947626
32701.978
471642.99
1636343.3
2911640
3728219.3
4080617.9
4177686.1
4187065.7
4187045.3
4177630.8
4080542.5
3728146.3
2911588.9
1636320.4
471638.59
32701.826
61.944648
0.00015594205
)
;

boundaryField
{
    Wall
    {
        type            zeroGradient;
    }
    frontAndBack
    {
        type            empty;
    }
    atmosphere
    {
        type            zeroGradient;
    }
}


// ************************************************************************* //
