/*--------------------------------*- C++ -*----------------------------------*\
| =========                 |                                                 |
| \\      /  F ield         | OpenFOAM: The Open Source CFD Toolbox           |
|  \\    /   O peration     | Version:  3.0.1                                 |
|   \\  /    A nd           | Web:      www.OpenFOAM.org                      |
|    \\/     M anipulation  |                                                 |
\*---------------------------------------------------------------------------*/
FoamFile
{
    version     2.0;
    format      ascii;
    class       volScalarField;
    location    "24";
    object      M1;
}
// * * * * * * * * * * * * * * * * * * * * * * * * * * * * * * * * * * * * * //

dimensions      [0 0 0 0 0 0 0];

internalField   nonuniform List<scalar> 
800
(
0.90936422
0.90937039
0.90937106
0.90937101
0.90937092
0.90937086
0.90937083
0.90937081
0.90937079
0.90937079
0.90937079
0.90937079
0.90937081
0.90937083
0.90937086
0.90937092
0.90937101
0.90937106
0.90937039
0.90936422
0.90651033
0.90663657
0.90665807
0.90666021
0.90665907
0.90665818
0.90665788
0.90665795
0.90665812
0.90665824
0.90665824
0.90665812
0.90665795
0.90665788
0.90665818
0.90665907
0.90666021
0.90665807
0.90663657
0.90651032
0.90375697
0.90394743
0.90400107
0.90400752
0.9040067
0.90400565
0.90400541
0.90400569
0.90400609
0.90400634
0.90400634
0.90400609
0.90400569
0.90400541
0.90400565
0.90400669
0.90400752
0.90400107
0.90394743
0.90375697
0.90135431
0.90159193
0.90167266
0.9016815
0.90168056
0.90167923
0.90167898
0.90167941
0.90167998
0.90168035
0.90168035
0.90167998
0.90167941
0.90167898
0.90167922
0.90168056
0.9016815
0.90167266
0.90159193
0.9013543
0.89931342
0.89958681
0.899689
0.89971013
0.89970833
0.89970627
0.89970577
0.89970621
0.89970686
0.8997073
0.8997073
0.89970686
0.89970621
0.89970577
0.89970627
0.89970833
0.89971013
0.899689
0.89958681
0.89931342
0.8974073
0.89774102
0.89786144
0.89790032
0.89789675
0.89789339
0.8978923
0.89789254
0.89789318
0.89789364
0.89789364
0.89789318
0.89789254
0.8978923
0.89789339
0.89789675
0.89790032
0.89786144
0.89774102
0.8974073
0.89522582
0.89569542
0.8958218
0.89587719
0.89587085
0.89586554
0.89586354
0.89586342
0.89586398
0.89586443
0.89586443
0.89586397
0.89586342
0.89586354
0.89586554
0.89587085
0.89587719
0.8958218
0.89569542
0.89522582
0.89220839
0.89291083
0.89306053
0.89312833
0.89311763
0.89310982
0.89310677
0.89310632
0.89310689
0.89310741
0.89310741
0.89310689
0.89310632
0.89310676
0.89310982
0.89311762
0.89312833
0.89306053
0.89291083
0.89220839
0.88753388
0.88864652
0.88883684
0.88891497
0.88894719
0.88893592
0.88893226
0.88893208
0.8889331
0.88893391
0.88893391
0.8889331
0.88893207
0.88893225
0.88893592
0.88894718
0.88891497
0.88883684
0.88864651
0.88753387
0.8798347
0.88175087
0.88200714
0.88209979
0.8821957
0.88225914
0.88225715
0.88225899
0.88226161
0.88226331
0.8822633
0.88226161
0.88225899
0.88225715
0.88225913
0.88219569
0.88209978
0.88200713
0.88175086
0.87983468
0.86674777
0.86998608
0.87052498
0.87065229
0.87092825
0.87108722
0.87109261
0.87110065
0.87110733
0.87111121
0.87111121
0.87110732
0.87110064
0.8710926
0.8710872
0.87092823
0.87065227
0.87052496
0.86998606
0.86674774
0.84422571
0.84953302
0.85074599
0.85095994
0.85158808
0.8518392
0.85186703
0.85189148
0.85190865
0.85191768
0.85191768
0.85190864
0.85189147
0.85186701
0.85183918
0.85158806
0.85095991
0.85074596
0.84953299
0.84422565
0.80743475
0.8154214
0.81745505
0.81797072
0.81890961
0.81927646
0.8193538
0.81941304
0.81948934
0.81950867
0.81950867
0.81948933
0.81941301
0.81935377
0.81927643
0.81890957
0.81797068
0.817455
0.81542135
0.80743467
0.75076
0.76283888
0.76644037
0.76758264
0.76881168
0.76930885
0.7694594
0.76956817
0.76996762
0.77000167
0.77000166
0.7699676
0.76956815
0.76945936
0.7693088
0.76881162
0.76758257
0.7664403
0.7628388
0.75075991
0.66242862
0.6803317
0.68688796
0.68925949
0.69085206
0.6914836
0.69171325
0.69186001
0.69242583
0.69246566
0.69246565
0.69242581
0.69185998
0.69171321
0.69148354
0.69085199
0.68925942
0.68688789
0.68033163
0.66242856
0.53897781
0.56991971
0.58332241
0.5883988
0.5906164
0.59125602
0.59139571
0.59143845
0.59188963
0.59188386
0.59188385
0.59188962
0.59143841
0.59139566
0.59125596
0.59061633
0.58839872
0.58332233
0.56991964
0.53897782
0.37066619
0.43661945
0.46287018
0.47281089
0.47595031
0.47615297
0.47559006
0.47504262
0.47495011
0.47474906
0.47474905
0.47495008
0.47504257
0.47558999
0.47615289
0.47595022
0.47281079
0.46287007
0.43661938
0.37066631
0.18554966
0.29703759
0.34057898
0.35737537
0.36208381
0.36161356
0.35972285
0.35795607
0.35688517
0.35625117
0.35625115
0.35688513
0.35795599
0.35972276
0.36161345
0.36208369
0.35737524
0.34057885
0.29703752
0.18554981
0.062300287
0.17589105
0.23014387
0.25308081
0.26002227
0.25956515
0.25671046
0.25382468
0.25180685
0.25070889
0.25070885
0.25180678
0.25382457
0.25671034
0.25956502
0.26002213
0.25308067
0.23014374
0.17589098
0.062300362
0.014898867
0.090800668
0.14251637
0.16760792
0.17628751
0.17656729
0.17369055
0.17044339
0.16800559
0.16668037
0.16668033
0.1680055
0.17044327
0.17369042
0.17656716
0.17628738
0.1676078
0.14251627
0.090800616
0.014898884
0.0028387166
0.041515058
0.08131531
0.10404741
0.11307395
0.11421786
0.11202251
0.10916647
0.10689758
0.10564556
0.10564552
0.10689749
0.10916635
0.11202239
0.11421774
0.11307384
0.10404732
0.08131524
0.041515028
0.0028387194
0.00046838538
0.017178397
0.043161793
0.060872058
0.068893535
0.070553274
0.069225481
0.067121046
0.065353594
0.06435945
0.064359415
0.065353517
0.067120941
0.069225378
0.070553182
0.068893457
0.060871998
0.043161754
0.017178384
0.00046838581
7.0381749e-05
0.0065681808
0.021536844
0.03378732
0.040069677
0.041796779
0.041172334
0.039818209
0.038608691
0.037913725
0.037913698
0.038608632
0.039818127
0.041172256
0.041796714
0.040069627
0.033787287
0.021536826
0.0065681771
7.038182e-05
9.9233721e-06
0.0023589089
0.010195871
0.017907357
0.022355763
0.023842137
0.023653726
0.022873706
0.022124076
0.021683006
0.021682987
0.022124034
0.022873647
0.023653672
0.023842094
0.022355734
0.017907342
0.010195865
0.0023589085
9.9233863e-06
1.3364365e-06
0.00080505382
0.0046129404
0.0091115304
0.012014876
0.013139311
0.013162886
0.012755481
0.012326358
0.012066951
0.012066938
0.01232633
0.012755441
0.013162851
0.013139285
0.01201486
0.0091115251
0.0046129393
0.00080505415
1.3364392e-06
1.7376411e-07
0.00026315739
0.0020053022
0.0044693527
0.0062409145
0.0070138914
0.0071095918
0.0069162626
0.0066864952
0.0065431651
0.0065431569
0.0066864772
0.0069162375
0.0071095699
0.007013876
0.0062409068
0.0044693516
0.0020053027
0.0002631577
1.737646e-07
2.1951308e-08
8.2834331e-05
0.00084087376
0.0021200432
0.0031410482
0.0036338296
0.0037327075
0.00365032
0.0035343454
0.0034592583
0.0034592533
0.0035343345
0.0036503048
0.0037326945
0.003633821
0.0031410446
0.0021200436
0.00084087445
8.28345e-05
2.195139e-08
2.7045772e-09
2.5201026e-05
0.00034109842
0.00097476748
0.0015347157
0.0018299594
0.0019070775
0.0018767431
0.0018213213
0.0017837935
0.0017837906
0.0018213148
0.0018767343
0.0019070701
0.0018299548
0.0015347141
0.00097476806
0.00034109892
2.5201101e-05
2.7045899e-09
3.257332e-10
7.4299211e-06
0.0001341437
0.00043519571
0.00072903365
0.00089680572
0.00094897402
0.00094047965
0.00091536809
0.0008974009
0.00089739927
0.00091536449
0.00094047473
0.00094896997
0.00089680332
0.00072903295
0.0004351962
0.000134144
7.4299513e-06
3.2573507e-10
3.8400689e-11
2.1269298e-06
5.123221e-05
0.00018893308
0.00033708991
0.00042810568
0.00046025582
0.00045961039
0.00044883772
0.00044057584
0.00044057497
0.00044883577
0.00045960774
0.00046025367
0.00042810447
0.00033708962
0.00018893339
5.1232366e-05
2.1269408e-06
3.840096e-11
4.4354082e-12
5.9207234e-07
1.9028433e-05
7.9850906e-05
0.00015186317
0.00019923115
0.00021771552
0.00021915117
0.00021479792
0.00021114394
0.00021114349
0.00021479691
0.00021914979
0.00021771441
0.00019923056
0.00015186305
7.9851084e-05
1.9028508e-05
5.9207617e-07
4.4354393e-12
5.1034151e-13
1.6046175e-07
6.8811837e-06
3.2888198e-05
6.6718255e-05
9.0456499e-05
0.00010050679
0.0001020076
0.00010036885
9.8813958e-05
9.8813732e-05
0.00010036834
0.0001020069
0.00010050624
9.0456212e-05
6.671821e-05
3.288829e-05
6.8812173e-06
1.6046302e-07
5.1021377e-13
1.5247089e-13
4.2382131e-08
2.4253417e-06
1.3212404e-05
2.8606479e-05
4.0095816e-05
4.5308611e-05
4.6375031e-05
4.5813721e-05
4.517756e-05
4.517745e-05
4.5813469e-05
4.6374687e-05
4.530834e-05
4.0095681e-05
2.8606461e-05
1.3212449e-05
2.425356e-06
4.2382527e-08
1.5259487e-13
1.2033361e-13
1.0921908e-08
8.339412e-07
5.1816137e-06
1.1979243e-05
1.7362837e-05
1.9957423e-05
2.0603142e-05
2.0437824e-05
2.0188095e-05
2.0188043e-05
2.0437704e-05
2.0602978e-05
1.9957294e-05
1.7362774e-05
1.1979235e-05
5.1816341e-06
8.3394702e-07
1.0922011e-08
1.203992e-13
4.3341029e-14
2.7516345e-09
2.7998289e-07
1.9852843e-06
4.9027424e-06
7.3498583e-06
8.5945275e-06
8.9499139e-06
8.9154109e-06
8.8217231e-06
8.8216993e-06
8.9153549e-06
8.9498372e-06
8.5944673e-06
7.3498293e-06
4.9027389e-06
1.9852932e-06
2.79985e-07
2.7516521e-09
4.3355861e-14
1.1240638e-14
6.7784865e-10
9.1863606e-08
7.4365495e-07
1.962352e-06
3.0432572e-06
3.6206332e-06
3.8034715e-06
3.8049289e-06
3.7715751e-06
3.7715644e-06
3.8049035e-06
3.8034364e-06
3.6206057e-06
3.043244e-06
1.9623503e-06
7.4365842e-07
9.1864338e-08
6.7784973e-10
1.1227662e-14
2.3738229e-15
1.632862e-10
2.9475913e-08
2.7253263e-07
7.686274e-07
1.23326e-06
1.4929251e-06
1.5821789e-06
1.5895811e-06
1.5784563e-06
1.5784516e-06
1.5895698e-06
1.5821632e-06
1.4929127e-06
1.2332541e-06
7.6862647e-07
2.7253392e-07
2.9476158e-08
1.6328598e-10
2.3711638e-15
4.1044853e-16
3.8460033e-11
9.2553036e-09
9.7778339e-08
2.9479483e-07
4.8941219e-07
6.0286762e-07
6.4458426e-07
6.5040029e-07
6.4701105e-07
6.4700897e-07
6.5039533e-07
6.4457738e-07
6.0286215e-07
4.8940954e-07
2.9479433e-07
9.7778787e-08
9.2553806e-09
3.8459786e-11
4.1066972e-16
4.8577913e-17
8.8551031e-12
2.8457353e-09
3.4364643e-08
1.1077426e-07
1.9030002e-07
2.3854466e-07
2.5732487e-07
2.60776e-07
2.5988776e-07
2.5988688e-07
2.6077386e-07
2.5732191e-07
2.3854228e-07
1.9029884e-07
1.1077399e-07
3.4364785e-08
2.8457578e-09
8.8549936e-12
4.8672536e-17
4.7190053e-18
1.9946528e-12
8.5735777e-10
1.1838184e-08
4.0804965e-08
7.2539943e-08
9.253523e-08
1.0071281e-07
1.0250963e-07
1.0234709e-07
1.0234672e-07
1.0250874e-07
1.0071156e-07
9.2534211e-08
7.2539421e-08
4.080483e-08
1.1838225e-08
8.5736408e-10
1.9946165e-12
4.7185853e-18
)
;

boundaryField
{
    Wall
    {
        type            zeroGradient;
    }
    frontAndBack
    {
        type            empty;
    }
    atmosphere
    {
        type            zeroGradient;
    }
}


// ************************************************************************* //
