/*--------------------------------*- C++ -*----------------------------------*\
| =========                 |                                                 |
| \\      /  F ield         | OpenFOAM: The Open Source CFD Toolbox           |
|  \\    /   O peration     | Version:  3.0.1                                 |
|   \\  /    A nd           | Web:      www.OpenFOAM.org                      |
|    \\/     M anipulation  |                                                 |
\*---------------------------------------------------------------------------*/
FoamFile
{
    version     2.0;
    format      ascii;
    class       volScalarField;
    location    "24";
    object      M3;
}
// * * * * * * * * * * * * * * * * * * * * * * * * * * * * * * * * * * * * * //

dimensions      [0 0 0 0 0 0 0];

internalField   nonuniform List<scalar> 
800
(
8.9555594e-25
8.9570338e-25
8.9572003e-25
8.9571944e-25
8.957179e-25
8.9571682e-25
8.9571626e-25
8.9571596e-25
8.957158e-25
8.9571571e-25
8.9571573e-25
8.957158e-25
8.9571596e-25
8.9571627e-25
8.9571684e-25
8.9571791e-25
8.9571946e-25
8.9572006e-25
8.9570339e-25
8.9555595e-25
8.3506133e-25
8.3761266e-25
8.380542e-25
8.380975e-25
8.3807285e-25
8.3805331e-25
8.3804636e-25
8.3804711e-25
8.3805017e-25
8.3805237e-25
8.3805238e-25
8.3805017e-25
8.380471e-25
8.3804636e-25
8.3805331e-25
8.3807285e-25
8.380975e-25
8.380542e-25
8.3761265e-25
8.3506128e-25
8.080403e-25
8.1114223e-25
8.1200736e-25
8.1209869e-25
8.1208404e-25
8.1207073e-25
8.1207164e-25
8.1208022e-25
8.1208934e-25
8.1209481e-25
8.1209481e-25
8.1208934e-25
8.1208021e-25
8.1207164e-25
8.1207073e-25
8.1208404e-25
8.120987e-25
8.1200737e-25
8.1114223e-25
8.0804027e-25
8.1139253e-25
8.1434099e-25
8.1548131e-25
8.1559062e-25
8.1558479e-25
8.1558287e-25
8.1559602e-25
8.1561505e-25
8.1563151e-25
8.1564074e-25
8.1564075e-25
8.1563151e-25
8.1561505e-25
8.1559603e-25
8.155829e-25
8.1558482e-25
8.1559067e-25
8.1548136e-25
8.1434103e-25
8.1139255e-25
8.4143919e-25
8.4365273e-25
8.4496493e-25
8.4530003e-25
8.4529812e-25
8.4530641e-25
8.4533173e-25
8.453612e-25
8.4538496e-25
8.4539794e-25
8.4539795e-25
8.4538498e-25
8.4536121e-25
8.4533176e-25
8.4530646e-25
8.4529818e-25
8.4530011e-25
8.4496501e-25
8.4365281e-25
8.4143925e-25
8.9265716e-25
8.9415024e-25
8.9556227e-25
8.9626329e-25
8.9625566e-25
8.9626712e-25
8.9630055e-25
8.9633798e-25
8.9636762e-25
8.9638365e-25
8.9638367e-25
8.9636764e-25
8.9633801e-25
8.963006e-25
8.9626719e-25
8.9625574e-25
8.9626339e-25
8.9556238e-25
8.9415033e-25
8.9265723e-25
9.5730913e-25
9.5896874e-25
9.601314e-25
9.6119158e-25
9.6115994e-25
9.6116132e-25
9.6119421e-25
9.6123425e-25
9.6126681e-25
9.6128459e-25
9.612846e-25
9.6126683e-25
9.6123428e-25
9.6119426e-25
9.611614e-25
9.6116001e-25
9.6119168e-25
9.6013151e-25
9.5896883e-25
9.573092e-25
1.0252913e-24
1.0282574e-24
1.0292905e-24
1.0305947e-24
1.0305035e-24
1.0304733e-24
1.030492e-24
1.030527e-24
1.0305586e-24
1.0305765e-24
1.0305765e-24
1.0305586e-24
1.030527e-24
1.0304921e-24
1.0304733e-24
1.0305036e-24
1.0305948e-24
1.0292906e-24
1.0282574e-24
1.0252914e-24
1.0822212e-24
1.0889969e-24
1.0897933e-24
1.0911859e-24
1.0920697e-24
1.0919701e-24
1.0919586e-24
1.0919814e-24
1.0920095e-24
1.0920269e-24
1.0920269e-24
1.0920095e-24
1.0919814e-24
1.0919586e-24
1.0919702e-24
1.0920697e-24
1.091186e-24
1.0897933e-24
1.088997e-24
1.0822211e-24
1.1067466e-24
1.1230704e-24
1.1233547e-24
1.1247018e-24
1.1268677e-24
1.1283126e-24
1.1282656e-24
1.1282788e-24
1.1283071e-24
1.1283265e-24
1.1283265e-24
1.1283071e-24
1.1282787e-24
1.1282655e-24
1.1283125e-24
1.1268676e-24
1.1247018e-24
1.1233547e-24
1.1230704e-24
1.1067465e-24
1.0725003e-24
1.1024024e-24
1.1049029e-24
1.1061829e-24
1.1113867e-24
1.1143711e-24
1.1143214e-24
1.1143513e-24
1.1143965e-24
1.114427e-24
1.114427e-24
1.1143964e-24
1.1143512e-24
1.1143213e-24
1.114371e-24
1.1113866e-24
1.1061828e-24
1.1049028e-24
1.1024022e-24
1.0725e-24
9.5661363e-25
9.9963247e-25
1.0076191e-24
1.0089502e-24
1.01801e-24
1.0216524e-24
1.0217196e-24
1.0218422e-24
1.021965e-24
1.0220277e-24
1.0220277e-24
1.021965e-24
1.0218421e-24
1.0217195e-24
1.0216523e-24
1.0180098e-24
1.00895e-24
1.0076189e-24
9.9963218e-25
9.5661322e-25
7.790723e-25
8.2370427e-25
8.3300055e-25
8.3486219e-25
8.4390285e-25
8.4751828e-25
8.4783067e-25
8.4812592e-25
8.4885041e-25
8.4896586e-25
8.4896584e-25
8.4885034e-25
8.481258e-25
8.4783051e-25
8.4751808e-25
8.4390261e-25
8.3486192e-25
8.3300026e-25
8.237039e-25
7.7907185e-25
5.8562822e-25
6.2742006e-25
6.3680045e-25
6.3947527e-25
6.4658395e-25
6.4967137e-25
6.5019921e-25
6.5063488e-25
6.5258775e-25
6.5274416e-25
6.5274414e-25
6.5258769e-25
6.5063478e-25
6.5019906e-25
6.4967118e-25
6.4658371e-25
6.39475e-25
6.3680016e-25
6.2741972e-25
5.8562783e-25
3.8972316e-25
4.196239e-25
4.2654073e-25
4.2909725e-25
4.3369514e-25
4.3593855e-25
4.3659244e-25
4.3707727e-25
4.3918295e-25
4.3933901e-25
4.39339e-25
4.3918292e-25
4.370772e-25
4.3659234e-25
4.3593842e-25
4.3369497e-25
4.2909705e-25
4.2654053e-25
4.1962367e-25
3.8972292e-25
2.4286648e-25
2.643813e-25
2.6967405e-25
2.716838e-25
2.7448575e-25
2.760145e-25
2.76694e-25
2.7717875e-25
2.7867813e-25
2.7882178e-25
2.7882177e-25
2.7867812e-25
2.7717871e-25
2.7669394e-25
2.7601442e-25
2.7448564e-25
2.7168367e-25
2.6967392e-25
2.6438116e-25
2.4286638e-25
1.3048435e-25
1.5473103e-25
1.6054868e-25
1.6195615e-25
1.6313928e-25
1.6377024e-25
1.6411567e-25
1.6439409e-25
1.6512457e-25
1.6521432e-25
1.6521432e-25
1.6512457e-25
1.6439406e-25
1.6411563e-25
1.6377018e-25
1.631392e-25
1.6195605e-25
1.6054858e-25
1.5473094e-25
1.3048434e-25
5.1482313e-26
8.1189692e-26
8.9807581e-26
9.1880621e-26
9.2297808e-26
9.2142268e-26
9.1925835e-26
9.179496e-26
9.1916448e-26
9.1881531e-26
9.1881528e-26
9.1916442e-26
9.1794938e-26
9.1925799e-26
9.2142216e-26
9.2297742e-26
9.1880545e-26
8.9807504e-26
8.1189634e-26
5.1482334e-26
1.3678086e-26
3.6988407e-26
4.6390106e-26
4.930685e-26
4.9793444e-26
4.9428196e-26
4.8932927e-26
4.8539946e-26
4.833777e-26
4.8206737e-26
4.8206734e-26
4.833776e-26
4.8539925e-26
4.8932896e-26
4.9428153e-26
4.9793393e-26
4.9306794e-26
4.6390052e-26
3.6988373e-26
1.3678096e-26
2.5853018e-27
1.4596123e-26
2.1965918e-26
2.4878976e-26
2.5565807e-26
2.5340368e-26
2.4887759e-26
2.447764e-26
2.4203024e-26
2.4052777e-26
2.4052774e-26
2.4203014e-26
2.4477622e-26
2.4887734e-26
2.5340337e-26
2.5565772e-26
2.4878939e-26
2.1965885e-26
1.4596105e-26
2.5853036e-27
3.8721844e-28
5.0728585e-27
9.5665156e-27
1.1795513e-26
1.2486737e-26
1.2438501e-26
1.2149983e-26
1.1851375e-26
1.1632143e-26
1.1513689e-26
1.1513686e-26
1.1632135e-26
1.1851362e-26
1.2149966e-26
1.2438481e-26
1.2486715e-26
1.1795492e-26
9.5664988e-27
5.0728505e-27
3.872186e-28
4.9828163e-29
1.5897559e-27
3.8678537e-27
5.2745678e-27
5.8125345e-27
5.8590499e-27
5.7147758e-27
5.5391535e-27
5.4015358e-27
5.3262253e-27
5.3262231e-27
5.4015305e-27
5.5391453e-27
5.7147655e-27
5.8590384e-27
5.8125225e-27
5.2745569e-27
3.8678462e-27
1.5897531e-27
4.9828174e-29
5.7874158e-30
4.5923622e-28
1.4673485e-27
2.2373839e-27
2.5874201e-27
2.6553447e-27
2.5973236e-27
2.5084596e-27
2.4342126e-27
2.3927582e-27
2.3927568e-27
2.4342094e-27
2.5084548e-27
2.5973179e-27
2.6553386e-27
2.5874142e-27
2.237379e-27
1.4673456e-27
4.5923542e-28
5.7874173e-30
6.2505187e-31
1.2436549e-28
5.2727801e-28
9.0553553e-28
1.1054567e-27
1.1607372e-27
1.143082e-27
1.1031307e-27
1.0672097e-27
1.0466623e-27
1.0466616e-27
1.067208e-27
1.1031281e-27
1.1430791e-27
1.1607342e-27
1.1054541e-27
9.0553357e-28
5.2727703e-28
1.2436531e-28
6.2505236e-31
6.3928982e-32
3.1943645e-29
1.8077804e-28
3.5139992e-28
4.547657e-28
4.9041828e-28
4.8782778e-28
4.7162197e-28
4.5566606e-28
4.4627581e-28
4.4627546e-28
4.556652e-28
4.7162069e-28
4.8782636e-28
4.9041692e-28
4.547646e-28
3.5139921e-28
1.8077776e-28
3.1943615e-29
6.3929081e-32
6.262528e-33
7.8424049e-30
5.9444224e-29
1.3122943e-28
1.8059051e-28
2.0058287e-28
2.0205348e-28
1.9610678e-28
1.8950955e-28
1.8549445e-28
1.8549428e-28
1.8950914e-28
1.9610618e-28
2.0205283e-28
2.0058228e-28
1.8059008e-28
1.312292e-28
5.9444155e-29
7.842403e-30
6.2625442e-33
5.9179071e-34
1.849774e-30
1.8814718e-29
4.7287049e-29
6.935198e-29
7.9504311e-29
8.1261585e-29
7.9311537e-29
7.6752695e-29
7.5131446e-29
7.5131367e-29
7.6752508e-29
7.9311263e-29
8.1261303e-29
7.9504066e-29
6.9351821e-29
4.728698e-29
1.8814706e-29
1.849775e-30
5.9179283e-34
5.4192512e-35
4.2062069e-31
5.7464107e-30
1.6471923e-29
2.5789674e-29
3.0562294e-29
3.1742108e-29
3.1193519e-29
3.0259042e-29
2.9637179e-29
2.9637144e-29
3.0258959e-29
3.1193401e-29
3.174199e-29
3.0562197e-29
2.5789619e-29
1.6471904e-29
5.7464102e-30
4.2062128e-31
5.4192752e-35
4.8235098e-36
9.2427331e-32
1.6966008e-30
5.5541565e-30
9.2953321e-30
1.1400274e-29
1.2044417e-29
1.1928949e-29
1.160751e-29
1.1380095e-29
1.138008e-29
1.1607475e-29
1.1928901e-29
1.204437e-29
1.1400238e-29
9.295314e-30
5.554153e-30
1.6966018e-30
9.2427545e-32
4.8235338e-36
4.1812496e-37
1.9660127e-32
4.8486338e-31
1.8146709e-30
3.2495717e-30
4.1282188e-30
4.4401042e-30
4.4350228e-30
4.3312008e-30
4.2517448e-30
4.251739e-30
4.3311868e-30
4.4350038e-30
4.4400862e-30
4.1282058e-30
3.2495662e-30
1.8146707e-30
4.8486404e-31
1.9660192e-32
4.1812728e-37
3.5347077e-38
4.0531667e-33
1.3426446e-31
5.7494628e-31
1.1025073e-30
1.4517384e-30
1.5904675e-30
1.6029777e-30
1.5717388e-30
1.5451932e-30
1.545191e-30
1.5717334e-30
1.6029705e-30
1.5904608e-30
1.451734e-30
1.1025058e-30
5.7494657e-31
1.3426476e-31
4.0531848e-33
3.5347305e-38
2.9217906e-39
8.1067285e-34
3.6055221e-32
1.7676447e-31
3.6320421e-31
4.9595822e-31
5.5368836e-31
5.6327286e-31
5.546617e-31
5.4618357e-31
5.4618274e-31
5.546597e-31
5.6327023e-31
5.5368598e-31
4.9595674e-31
3.6320386e-31
1.7676468e-31
3.6055336e-32
8.1067759e-34
2.9217538e-39
3.8838641e-40
1.5742666e-34
9.3961715e-33
5.2766238e-32
1.1623514e-31
1.6465947e-31
1.8737842e-31
1.9245482e-31
1.9035952e-31
1.8777488e-31
1.8777458e-31
1.903588e-31
1.9245389e-31
1.8737761e-31
1.64659e-31
1.1623508e-31
5.2766345e-32
9.3962117e-33
1.5742783e-34
3.890623e-40
2.1649916e-40
2.9704795e-35
2.3778455e-33
1.530189e-32
3.6152294e-32
5.314612e-32
6.1660966e-32
6.3951031e-32
6.354537e-32
6.2795572e-32
6.2795472e-32
6.354512e-32
6.3950716e-32
6.1660695e-32
5.3145975e-32
3.6152292e-32
1.5301934e-32
2.3778586e-33
2.970504e-35
2.1680567e-40
5.8229692e-41
5.4546443e-36
5.846847e-34
4.3130214e-33
1.093293e-32
1.6682579e-32
1.9736761e-32
2.0672367e-32
2.0637294e-32
2.0431466e-32
2.0431433e-32
2.063721e-32
2.0672263e-32
1.9736673e-32
1.6682536e-32
1.0932934e-32
4.3130377e-33
5.8468843e-34
5.4546814e-36
5.8291359e-41
1.1121202e-41
9.7489295e-37
1.397751e-34
1.1821639e-33
3.2160787e-33
5.0948285e-33
6.1470424e-33
6.5026523e-33
6.5223191e-33
6.4693808e-33
6.4693702e-33
6.5222918e-33
6.5026189e-33
6.1470147e-33
5.094816e-33
3.2160814e-33
1.1821693e-33
1.3977612e-34
9.7489741e-37
1.1114186e-41
1.7121702e-42
1.6958977e-37
3.2501832e-35
3.1524291e-34
9.2064626e-34
1.5144023e-33
1.8635441e-33
1.9911119e-33
2.0066431e-33
1.994123e-33
1.9941196e-33
2.0066345e-33
1.9911013e-33
1.8635355e-33
1.5143987e-33
9.2064736e-34
3.1524453e-34
3.2502098e-35
1.6959051e-37
1.7113548e-42
2.1502553e-43
2.8710896e-38
7.3544703e-36
8.1823883e-35
2.5657964e-34
4.3830045e-34
5.5012321e-34
5.9369291e-34
6.0118389e-34
5.9856884e-34
5.985678e-34
6.0118119e-34
5.9368964e-34
5.5012056e-34
4.3829938e-34
2.5658e-34
8.1824349e-35
7.3545353e-36
2.8710977e-38
2.1533373e-43
1.8713871e-44
4.7291845e-39
1.6201412e-36
2.0681127e-35
6.9646238e-35
1.2356525e-34
1.581957e-34
1.7244521e-34
1.7545739e-34
1.7502699e-34
1.7502667e-34
1.7545655e-34
1.7244421e-34
1.5819489e-34
1.2356493e-34
6.9646342e-35
2.0681251e-35
1.6201562e-36
4.7291889e-39
1.8775591e-44
1.2992802e-45
7.5827204e-40
3.4762317e-37
5.0923416e-36
1.8420445e-35
3.3946005e-35
4.4331554e-35
4.8812241e-35
4.9902882e-35
4.9875328e-35
4.9875237e-35
4.9902636e-35
4.881194e-35
4.433131e-35
3.3945905e-35
1.8420471e-35
5.0923727e-36
3.4762649e-37
7.5827127e-40
1.3007722e-45
)
;

boundaryField
{
    Wall
    {
        type            zeroGradient;
    }
    frontAndBack
    {
        type            empty;
    }
    atmosphere
    {
        type            zeroGradient;
    }
}


// ************************************************************************* //
