/*--------------------------------*- C++ -*----------------------------------*\
| =========                 |                                                 |
| \\      /  F ield         | OpenFOAM: The Open Source CFD Toolbox           |
|  \\    /   O peration     | Version:  3.0.1                                 |
|   \\  /    A nd           | Web:      www.OpenFOAM.org                      |
|    \\/     M anipulation  |                                                 |
\*---------------------------------------------------------------------------*/
FoamFile
{
    version     2.0;
    format      ascii;
    class       volScalarField;
    location    "24";
    object      mOne;
}
// * * * * * * * * * * * * * * * * * * * * * * * * * * * * * * * * * * * * * //

dimensions      [0 0 0 0 0 0 0];

internalField   nonuniform List<scalar> 
800
(
10.033171
10.033921
10.034003
10.033997
10.033986
10.033979
10.033975
10.033972
10.033971
10.03397
10.03397
10.033971
10.033972
10.033975
10.033979
10.033987
10.033997
10.034003
10.033922
10.033171
9.6963685
9.7108318
9.7132986
9.713545
9.713414
9.7133112
9.7132777
9.7132856
9.7133052
9.7133186
9.7133187
9.7133051
9.7132856
9.7132777
9.7133113
9.713414
9.713545
9.7132986
9.7108318
9.6963682
9.3903629
9.4109661
9.4167827
9.4174829
9.4173932
9.4172799
9.4172542
9.4172846
9.4173272
9.4173548
9.4173548
9.4173272
9.4172845
9.4172542
9.4172799
9.4173931
9.4174828
9.4167826
9.410966
9.3903625
9.13729
9.1617681
9.1701114
9.1710255
9.1709289
9.1707906
9.1707647
9.1708096
9.1708686
9.1709065
9.1709066
9.1708686
9.1708095
9.1707646
9.1707904
9.1709287
9.1710254
9.1701113
9.161768
9.1372897
8.9318102
8.9588509
8.9689968
8.9710966
8.9709178
8.9707127
8.9706631
8.9707068
8.970772
8.9708153
8.9708154
8.9707719
8.9707067
8.970663
8.9707127
8.9709177
8.9710966
8.9689968
8.9588509
8.93181
8.7472823
8.7790918
8.7906218
8.7943504
8.794008
8.7936849
8.7935809
8.7936041
8.7936651
8.7937092
8.7937092
8.793665
8.793604
8.7935808
8.7936848
8.7940079
8.7943504
8.7906219
8.7790919
8.7472822
8.5443364
8.5873067
8.5989371
8.6040432
8.6034587
8.6029692
8.6027851
8.6027736
8.6028248
8.6028672
8.6028672
8.6028247
8.6027734
8.602785
8.6029691
8.6034587
8.6040432
8.5989371
8.5873067
8.5443362
8.2771603
8.3380122
8.3510846
8.3570167
8.3560796
8.3553965
8.355129
8.3550902
8.3551399
8.355185
8.355185
8.3551398
8.35509
8.3551288
8.3553964
8.3560794
8.3570166
8.3510846
8.3380122
8.2771599
7.8915665
7.9804105
7.995786
8.0021131
8.0047247
8.0038113
8.0035141
8.0034996
8.0035826
8.0036478
8.0036478
8.0035824
8.0034993
8.0035138
8.003811
8.0047245
8.0021129
7.9957858
7.9804102
7.8915659
7.3218701
7.4567221
7.4750891
7.481749
7.4886546
7.4932282
7.4930849
7.4932178
7.4934067
7.4935287
7.4935287
7.4934065
7.4932173
7.4930844
7.4932277
7.4886541
7.4817485
7.4750886
7.4567213
7.3218689
6.5045648
6.6914842
6.7234976
6.7310992
6.7476286
6.7571826
6.7575071
6.7579909
6.7583931
6.7586269
6.7586268
6.7583928
6.7579903
6.7575064
6.7571819
6.7476278
6.7310984
6.7234966
6.691483
6.504563
5.4195444
5.6459766
5.6999876
5.7096055
5.7380033
5.7494237
5.7506918
5.7518063
5.752589
5.7530007
5.7530005
5.7525886
5.7518056
5.7506909
5.7494227
5.7380023
5.7096043
5.6999863
5.645975
5.4195422
4.1930449
4.4177463
4.4781027
4.4936218
4.5221043
4.5333136
4.5356824
4.5374983
4.5398392
4.5404324
4.5404323
4.5398388
4.5374976
4.5356815
4.5333126
4.5221031
4.4936204
4.4781012
4.4177446
4.1930428
3.0121971
3.2165427
3.2815618
3.3026045
3.325478
3.3348
3.3376308
3.3396783
3.347214
3.3478576
3.3478575
3.3472137
3.3396778
3.3376301
3.3347992
3.3254769
3.3026033
3.2815606
3.2165414
3.0121956
1.9623365
2.1282427
2.193745
2.2181192
2.2346972
2.2413188
2.2437333
2.2452783
2.2512483
2.2516694
2.2516693
2.2512481
2.2452779
2.2437329
2.2413182
2.2346966
2.2181185
2.1937442
2.1282419
1.9623359
1.169093
1.3251472
1.3999371
1.4295362
1.4426968
1.4465192
1.4473556
1.4476116
1.4503175
1.4502829
1.4502828
1.4503175
1.4476114
1.4473553
1.4465188
1.4426964
1.4295357
1.3999366
1.3251469
1.169093
0.58898184
0.77499914
0.86174731
0.89685255
0.908216
0.90895424
0.90690511
0.90491656
0.9045809
0.9038519
0.90385185
0.90458081
0.90491637
0.90690487
0.90895394
0.90821566
0.89685216
0.86174694
0.77499892
0.58898215
0.22782195
0.42255117
0.51648184
0.55611838
0.56760405
0.56644931
0.56182366
0.55752582
0.55493228
0.55340089
0.55340083
0.55493217
0.55752562
0.56182343
0.56644904
0.56760376
0.55611806
0.51648154
0.42255102
0.22782217
0.066439486
0.21343179
0.29894399
0.33883292
0.35139202
0.35055771
0.34537074
0.34016762
0.33655328
0.33459477
0.33459471
0.33655315
0.34016743
0.34537052
0.35055748
0.35139177
0.33883267
0.29894377
0.21343169
0.066439571
0.0151242
0.099868823
0.16620303
0.20135694
0.21401582
0.21442832
0.21020037
0.20546325
0.20193116
0.20001973
0.20001968
0.20193103
0.20546306
0.21020018
0.21442812
0.21401563
0.20135677
0.16620288
0.099868761
0.015124218
0.0028467978
0.043313208
0.088512751
0.11613049
0.12748972
0.12894576
0.12615467
0.12254419
0.11969241
0.11812494
0.11812489
0.1196923
0.12254403
0.12615452
0.12894561
0.12748958
0.11613038
0.088512669
0.043313175
0.0028468007
0.00046860487
0.017478652
0.045108768
0.064817641
0.07399104
0.075908895
0.074374061
0.071950435
0.069923335
0.068786512
0.068786472
0.069923248
0.071950314
0.074373942
0.075908789
0.07399095
0.064817573
0.045108726
0.017478639
0.0004686053
7.0386703e-05
0.0066116071
0.022010889
0.034968822
0.041742276
0.043619953
0.042940286
0.041469448
0.040159184
0.039407822
0.039407793
0.04015912
0.04146936
0.042940201
0.043619882
0.041742222
0.034968787
0.02201087
0.0066116033
7.0386774e-05
9.9234706e-06
0.0023644865
0.010300898
0.018233877
0.022866972
0.024424469
0.02422678
0.02340916
0.022624625
0.022163579
0.022163559
0.022624581
0.023409098
0.024226723
0.024424424
0.022866942
0.018233862
0.010300892
0.0023644861
9.9234848e-06
1.3364383e-06
0.00080570245
0.0046343183
0.0091953137
0.012160988
0.013314251
0.013338459
0.012920285
0.012480194
0.012214341
0.012214327
0.012480165
0.012920245
0.013338423
0.013314224
0.012160973
0.0091953084
0.0046343171
0.00080570279
1.336441e-06
1.7376414e-07
0.00026322666
0.0020093316
0.0044894175
0.0062801081
0.0070634335
0.0071605
0.0069644304
0.0067315054
0.0065862601
0.0065862518
0.0067314871
0.006964405
0.0071604779
0.007063418
0.0062801003
0.0044894164
0.002009332
0.00026322697
1.7376463e-07
2.1951308e-08
8.2841194e-05
0.00084158142
0.0021245473
0.0031509455
0.0036470825
0.0037466928
0.0036636937
0.0035468813
0.0034712663
0.0034712613
0.0035468703
0.0036636784
0.0037466797
0.0036470738
0.0031509418
0.0021245477
0.00084158211
8.2841362e-05
2.195139e-08
2.7045772e-09
2.5201661e-05
0.00034121481
0.00097571858
0.0015370747
0.0018333143
0.0019107214
0.0018802719
0.0018246445
0.0017869811
0.0017869782
0.0018246381
0.0018802631
0.001910714
0.0018333096
0.0015370731
0.00097571916
0.0003412153
2.5201736e-05
2.7045899e-09
3.257332e-10
7.4299763e-06
0.0001341617
0.00043538519
0.00072956553
0.00089761071
0.00094987542
0.00094136498
0.00091620676
0.00089820695
0.00089820532
0.00091620315
0.00094136006
0.00094987137
0.0008976083
0.00072956483
0.00043538568
0.000134162
7.4300065e-06
3.2573507e-10
3.8400689e-11
2.1269343e-06
5.1234835e-05
0.00018896878
0.00033720358
0.00042828903
0.00046046775
0.00045982172
0.00044903926
0.00044077003
0.00044076916
0.00044903732
0.00045981907
0.0004604656
0.00042828783
0.00033720329
0.00018896909
5.1234991e-05
2.1269454e-06
3.840096e-11
4.4354082e-12
5.9207269e-07
1.9028795e-05
7.9857283e-05
0.00015188624
0.00019927086
0.00021776293
0.00021919921
0.00021484407
0.00021118854
0.00021118808
0.00021484305
0.00021919783
0.00021776182
0.00019927026
0.00015188612
7.985746e-05
1.902887e-05
5.9207652e-07
4.4354393e-12
5.1034151e-13
1.6046178e-07
6.881231e-06
3.288928e-05
6.6722707e-05
9.0464682e-05
0.0001005169
0.000102018
0.00010037892
9.8823724e-05
9.8823497e-05
0.00010037841
0.00010201731
0.00010051634
9.0464395e-05
6.6722662e-05
3.2889372e-05
6.8812647e-06
1.6046304e-07
5.1021377e-13
1.5247089e-13
4.2382133e-08
2.4253476e-06
1.3212578e-05
2.8607298e-05
4.0097424e-05
4.5310664e-05
4.6377181e-05
4.581582e-05
4.5179602e-05
4.5179491e-05
4.5815568e-05
4.6376837e-05
4.5310393e-05
4.0097289e-05
2.8607279e-05
1.3212623e-05
2.4253619e-06
4.2382529e-08
1.5259487e-13
1.2033361e-13
1.0921908e-08
8.3394189e-07
5.1816405e-06
1.1979386e-05
1.7363138e-05
1.9957821e-05
2.0603567e-05
2.0438242e-05
2.0188503e-05
2.0188451e-05
2.0438121e-05
2.0603402e-05
1.9957693e-05
1.7363075e-05
1.1979378e-05
5.1816609e-06
8.3394772e-07
1.0922011e-08
1.203992e-13
4.3341029e-14
2.7516345e-09
2.7998297e-07
1.9852883e-06
4.9027665e-06
7.3499123e-06
8.5946013e-06
8.949994e-06
8.9154904e-06
8.8218009e-06
8.8217771e-06
8.9154344e-06
8.9499173e-06
8.5945412e-06
7.3498833e-06
4.9027629e-06
1.9852971e-06
2.7998508e-07
2.7516521e-09
4.3355861e-14
1.1240638e-14
6.7784865e-10
9.1863614e-08
7.436555e-07
1.9623559e-06
3.0432665e-06
3.6206463e-06
3.8034859e-06
3.8049434e-06
3.7715893e-06
3.7715786e-06
3.804918e-06
3.8034509e-06
3.6206188e-06
3.0432533e-06
1.9623542e-06
7.4365898e-07
9.1864347e-08
6.7784973e-10
1.1227662e-14
2.3738229e-15
1.632862e-10
2.9475913e-08
2.725327e-07
7.6862799e-07
1.2332615e-06
1.4929273e-06
1.5821814e-06
1.5895837e-06
1.5784588e-06
1.578454e-06
1.5895723e-06
1.5821657e-06
1.4929149e-06
1.2332556e-06
7.6862706e-07
2.7253399e-07
2.9476159e-08
1.6328598e-10
2.3711638e-15
4.1044853e-16
3.8460033e-11
9.2553037e-09
9.7778348e-08
2.9479492e-07
4.8941243e-07
6.0286799e-07
6.4458468e-07
6.5040071e-07
6.4701147e-07
6.4700939e-07
6.5039575e-07
6.445778e-07
6.0286252e-07
4.8940978e-07
2.9479441e-07
9.7778797e-08
9.2553807e-09
3.8459786e-11
4.1066972e-16
4.8577913e-17
8.8551031e-12
2.8457353e-09
3.4364645e-08
1.1077427e-07
1.9030006e-07
2.3854471e-07
2.5732493e-07
2.6077606e-07
2.5988783e-07
2.5988695e-07
2.6077393e-07
2.5732198e-07
2.3854234e-07
1.9029887e-07
1.10774e-07
3.4364786e-08
2.8457578e-09
8.8549936e-12
4.8672536e-17
4.7190053e-18
1.9946528e-12
8.5735777e-10
1.1838184e-08
4.0804967e-08
7.2539948e-08
9.2535238e-08
1.0071282e-07
1.0250964e-07
1.023471e-07
1.0234673e-07
1.0250875e-07
1.0071158e-07
9.2534219e-08
7.2539426e-08
4.0804832e-08
1.1838225e-08
8.5736408e-10
1.9946165e-12
4.7185853e-18
)
;

boundaryField
{
    Wall
    {
        type            zeroGradient;
    }
    frontAndBack
    {
        type            empty;
    }
    atmosphere
    {
        type            zeroGradient;
    }
}


// ************************************************************************* //
