/*--------------------------------*- C++ -*----------------------------------*\
| =========                 |                                                 |
| \\      /  F ield         | OpenFOAM: The Open Source CFD Toolbox           |
|  \\    /   O peration     | Version:  3.0.1                                 |
|   \\  /    A nd           | Web:      www.OpenFOAM.org                      |
|    \\/     M anipulation  |                                                 |
\*---------------------------------------------------------------------------*/
FoamFile
{
    version     2.0;
    format      ascii;
    class       volScalarField;
    location    "24";
    object      mThree;
}
// * * * * * * * * * * * * * * * * * * * * * * * * * * * * * * * * * * * * * //

dimensions      [0 0 0 0 0 0 0];

internalField   nonuniform List<scalar> 
800
(
9.8808217e-24
9.8831207e-24
9.8833771e-24
9.8833653e-24
9.8833392e-24
9.8833206e-24
9.8833106e-24
9.8833051e-24
9.8833019e-24
9.8833003e-24
9.8833005e-24
9.883302e-24
9.8833051e-24
9.8833108e-24
9.883321e-24
9.8833394e-24
9.8833657e-24
9.8833776e-24
9.8831209e-24
9.8808219e-24
8.9321237e-24
8.9715283e-24
8.9783249e-24
8.9789952e-24
8.9786214e-24
8.9783259e-24
8.9782234e-24
8.978238e-24
8.9782872e-24
8.978322e-24
8.9783222e-24
8.9782872e-24
8.9782379e-24
8.9782234e-24
8.9783259e-24
8.9786214e-24
8.9789953e-24
8.9783249e-24
8.9715282e-24
8.932123e-24
8.3958319e-24
8.4447742e-24
8.4585042e-24
8.4600242e-24
8.4597988e-24
8.4595681e-24
8.4595567e-24
8.4596708e-24
8.4598004e-24
8.4598797e-24
8.4598798e-24
8.4598003e-24
8.4596706e-24
8.4595567e-24
8.4595681e-24
8.4597987e-24
8.4600243e-24
8.4585043e-24
8.4447742e-24
8.3958313e-24
8.2253214e-24
8.2751443e-24
8.2935358e-24
8.295393e-24
8.2952549e-24
8.2951226e-24
8.2952352e-24
8.2954654e-24
8.2956809e-24
8.2958057e-24
8.2958058e-24
8.2956809e-24
8.2954653e-24
8.2952352e-24
8.2951227e-24
8.295255e-24
8.2953934e-24
8.2935362e-24
8.2751446e-24
8.2253213e-24
8.3570144e-24
8.4018118e-24
8.4234526e-24
8.4285682e-24
8.4283981e-24
8.4283074e-24
8.4285178e-24
8.4288486e-24
8.4291407e-24
8.4293067e-24
8.4293069e-24
8.4291408e-24
8.4288487e-24
8.4285181e-24
8.4283078e-24
8.4283986e-24
8.428569e-24
8.4234535e-24
8.4018125e-24
8.3570147e-24
8.7009814e-24
8.7439773e-24
8.7681115e-24
8.7783167e-24
8.7779352e-24
8.7777578e-24
8.7779919e-24
8.7783793e-24
8.7787242e-24
8.7789208e-24
8.778921e-24
8.7787244e-24
8.7783794e-24
8.7779923e-24
8.7777584e-24
8.7779359e-24
8.7783177e-24
8.7681126e-24
8.7439783e-24
8.7009819e-24
9.1368803e-24
9.1939274e-24
9.2162409e-24
9.2313254e-24
9.2304598e-24
9.2300026e-24
9.2301414e-24
9.2305148e-24
9.2308767e-24
9.2310882e-24
9.2310883e-24
9.2308768e-24
9.230515e-24
9.2301418e-24
9.2300032e-24
9.2304605e-24
9.2313265e-24
9.216242e-24
9.1939284e-24
9.1368808e-24
9.511792e-24
9.6018799e-24
9.6249822e-24
9.6432918e-24
9.6414731e-24
9.640486e-24
9.6403859e-24
9.640673e-24
9.6410198e-24
9.6412341e-24
9.6412342e-24
9.6410198e-24
9.6406729e-24
9.6403861e-24
9.6404864e-24
9.6414735e-24
9.6432925e-24
9.624983e-24
9.6018806e-24
9.5117922e-24
9.6226415e-24
9.7796395e-24
9.8035473e-24
9.8229792e-24
9.8337868e-24
9.831893e-24
9.8314649e-24
9.8316544e-24
9.8319979e-24
9.8322259e-24
9.8322259e-24
9.8319977e-24
9.8316541e-24
9.8314646e-24
9.8318929e-24
9.8337866e-24
9.8229793e-24
9.8035474e-24
9.7796394e-24
9.6226406e-24
9.2102016e-24
9.4974946e-24
9.5205314e-24
9.5394388e-24
9.5655904e-24
9.583016e-24
9.5824552e-24
9.5827173e-24
9.5831711e-24
9.5834738e-24
9.5834737e-24
9.5831706e-24
9.5827165e-24
9.5824543e-24
9.5830151e-24
9.5655894e-24
9.5394379e-24
9.5205305e-24
9.4974933e-24
9.2101992e-24
8.0486478e-24
8.4791106e-24
8.5337149e-24
8.5520099e-24
8.6106116e-24
8.6443803e-24
8.6443559e-24
8.645127e-24
8.6459261e-24
8.6464232e-24
8.646423e-24
8.6459253e-24
8.6451258e-24
8.6443545e-24
8.6443787e-24
8.6106097e-24
8.5520081e-24
8.5337128e-24
8.4791079e-24
8.0486438e-24
6.1410237e-24
6.643534e-24
6.7510354e-24
6.7696578e-24
6.8593548e-24
6.8955651e-24
6.8973141e-24
6.8992805e-24
6.9009099e-24
6.901754e-24
6.9017538e-24
6.9009091e-24
6.8992792e-24
6.8973123e-24
6.8955631e-24
6.8593524e-24
6.7696552e-24
6.7510326e-24
6.6435304e-24
6.1410189e-24
4.0457575e-24
4.4626207e-24
4.5632625e-24
4.5864171e-24
4.6601196e-24
4.6895844e-24
4.6933213e-24
4.6964958e-24
4.7024948e-24
4.703638e-24
4.7036378e-24
4.702494e-24
4.6964946e-24
4.6933196e-24
4.6895824e-24
4.6601173e-24
4.5864145e-24
4.5632597e-24
4.4626174e-24
4.0457535e-24
2.3496558e-24
2.6455435e-24
2.7265005e-24
2.7514092e-24
2.7967846e-24
2.8161955e-24
2.8203241e-24
2.8235461e-24
2.8369386e-24
2.8380386e-24
2.8380385e-24
2.8369381e-24
2.8235453e-24
2.820323e-24
2.8161941e-24
2.7967829e-24
2.7514073e-24
2.7264985e-24
2.6455412e-24
2.3496534e-24
1.1544911e-24
1.3126854e-24
1.3622623e-24
1.3808861e-24
1.4028725e-24
1.4130158e-24
1.4161895e-24
1.4184373e-24
1.4278928e-24
1.4285852e-24
1.4285851e-24
1.4278926e-24
1.418437e-24
1.4161889e-24
1.4130151e-24
1.4028716e-24
1.3808851e-24
1.3622613e-24
1.3126844e-24
1.1544902e-24
5.2679998e-25
6.1472543e-25
6.4720076e-25
6.6006563e-25
6.7048545e-25
6.7527478e-25
6.7716862e-25
6.7842593e-25
6.8284991e-25
6.8319224e-25
6.831922e-25
6.8284986e-25
6.7842576e-25
6.7716839e-25
6.7527447e-25
6.7048506e-25
6.6006518e-25
6.4720032e-25
6.1472502e-25
5.2679977e-25
2.0733726e-25
2.7464744e-25
2.9890108e-25
3.0720694e-25
3.1130499e-25
3.126299e-25
3.1295302e-25
3.1315702e-25
3.1449311e-25
3.1454359e-25
3.1454358e-25
3.1449308e-25
3.1315694e-25
3.129529e-25
3.1262973e-25
3.1130478e-25
3.0720669e-25
2.9890084e-25
2.7464725e-25
2.0733728e-25
6.3211114e-26
1.1549649e-25
1.3619157e-25
1.4297712e-25
1.4468642e-25
1.4433619e-25
1.4357194e-25
1.4297302e-25
1.4292385e-25
1.4272885e-25
1.4272884e-25
1.4292383e-25
1.4297297e-25
1.4357187e-25
1.4433609e-25
1.4468629e-25
1.4297698e-25
1.3619142e-25
1.154964e-25
6.3211151e-26
1.4586851e-26
4.4882909e-26
6.0258149e-26
6.6013634e-26
6.7290463e-26
6.6755631e-26
6.5832928e-26
6.5051665e-26
6.4606005e-26
6.4336459e-26
6.4336451e-26
6.4605986e-26
6.5051626e-26
6.5832876e-26
6.6755562e-26
6.7290381e-26
6.6013547e-26
6.0258069e-26
4.4882864e-26
1.4586863e-26
2.6244024e-27
1.6053821e-26
2.561672e-26
2.9888531e-26
3.1037295e-26
3.077406e-26
3.0119175e-26
2.9506895e-26
2.9090369e-26
2.8863807e-26
2.8863802e-26
2.9090353e-26
2.9506869e-26
3.0119141e-26
3.0774017e-26
3.1037247e-26
2.9888482e-26
2.5616679e-26
1.60538e-26
2.6244043e-27
3.8832078e-28
5.2925803e-27
1.0413274e-26
1.3165332e-26
1.4078668e-26
1.4042393e-26
1.368276e-26
1.3303692e-26
1.3024423e-26
1.2873743e-26
1.2873739e-26
1.3024412e-26
1.3303675e-26
1.3682739e-26
1.4042369e-26
1.4078641e-26
1.3165307e-26
1.0413255e-26
5.2925717e-27
3.8832093e-28
4.9851512e-29
1.6175427e-27
4.0423278e-27
5.6164528e-27
6.24261e-27
6.3038039e-27
6.1398069e-27
5.937698e-27
5.7792292e-27
5.6925977e-27
5.6925952e-27
5.779223e-27
5.9376885e-27
6.1397951e-27
6.3037909e-27
6.2425966e-27
5.6164408e-27
4.0423198e-27
1.6175398e-27
4.9851524e-29
5.7878232e-30
4.6227251e-28
1.4996461e-27
2.3156226e-27
2.6954249e-27
2.7711707e-27
2.7088535e-27
2.612484e-27
2.5319686e-27
2.4870515e-27
2.4870501e-27
2.5319651e-27
2.6124788e-27
2.7088472e-27
2.7711642e-27
2.6954186e-27
2.3156174e-27
1.4996431e-27
4.622717e-28
5.7878247e-30
6.2505807e-31
1.2465955e-28
5.3270945e-28
9.2204696e-28
1.1307352e-27
1.1890876e-27
1.1707752e-27
1.128954e-27
1.091355e-27
1.0698601e-27
1.0698593e-27
1.0913532e-27
1.1289513e-27
1.1707721e-27
1.1890845e-27
1.1307324e-27
9.2204495e-28
5.3270846e-28
1.2465937e-28
6.2505856e-31
6.3929067e-32
3.1969382e-29
1.8161582e-28
3.5463115e-28
4.602961e-28
4.9694783e-28
4.9433465e-28
4.7771546e-28
4.6135286e-28
4.5172678e-28
4.5172642e-28
4.6135198e-28
4.7771414e-28
4.943332e-28
4.9694644e-28
4.6029498e-28
3.5463044e-28
1.8161554e-28
3.1969352e-29
6.3929166e-32
6.2625291e-33
7.8444692e-30
5.9563667e-29
1.3181857e-28
1.8172464e-28
2.0199968e-28
2.0350028e-28
1.9747255e-28
1.9078523e-28
1.8671616e-28
1.8671599e-28
1.9078481e-28
1.9747194e-28
2.0349963e-28
2.0199908e-28
1.8172421e-28
1.3181834e-28
5.9563598e-29
7.8444674e-30
6.2625453e-33
5.9179072e-34
1.8499272e-30
1.8830553e-29
4.7387512e-29
6.9570504e-29
7.979427e-29
8.1566048e-29
7.960211e-29
7.7024928e-29
7.5392247e-29
7.5392168e-29
7.7024739e-29
7.9601834e-29
8.1565763e-29
7.9794024e-29
6.9570344e-29
4.7387444e-29
1.883054e-29
1.8499282e-30
5.9179284e-34
5.4192512e-35
4.2063129e-31
5.7483715e-30
1.6487995e-29
2.5829315e-29
3.0618324e-29
3.1802758e-29
3.1252171e-29
3.0314254e-29
2.969014e-29
2.9690105e-29
3.0314171e-29
3.1252053e-29
3.180264e-29
3.0618227e-29
2.5829259e-29
1.6487976e-29
5.748371e-30
4.2063188e-31
5.4192752e-35
4.8235098e-36
9.2428017e-32
1.6968284e-30
5.5565747e-30
9.3021136e-30
1.1410507e-29
1.2055858e-29
1.1940178e-29
1.1618144e-29
1.1390316e-29
1.1390302e-29
1.161811e-29
1.194013e-29
1.2055811e-29
1.1410471e-29
9.3020956e-30
5.5565712e-30
1.6968294e-30
9.2428232e-32
4.8235338e-36
4.1812496e-37
1.9660168e-32
4.8488822e-31
1.8150138e-30
3.2506675e-30
4.1299869e-30
4.4421487e-30
4.4370621e-30
4.3331457e-30
4.2536188e-30
4.253613e-30
4.3331317e-30
4.4370431e-30
4.4421307e-30
4.1299739e-30
3.250662e-30
1.8150136e-30
4.8488888e-31
1.9660234e-32
4.1812728e-37
3.5347077e-38
4.0531691e-33
1.3426702e-31
5.7499219e-31
1.1026747e-30
1.4520277e-30
1.5908138e-30
1.603329e-30
1.5720765e-30
1.5455195e-30
1.5455173e-30
1.5720711e-30
1.6033218e-30
1.5908072e-30
1.4520233e-30
1.1026732e-30
5.7499249e-31
1.3426731e-31
4.0531872e-33
3.5347305e-38
2.9217906e-39
8.1067298e-34
3.6055469e-32
1.7677028e-31
3.6322844e-31
4.9600309e-31
5.5374401e-31
5.6333032e-31
5.5471737e-31
5.4623754e-31
5.4623671e-31
5.5471538e-31
5.633277e-31
5.5374164e-31
4.960016e-31
3.6322809e-31
1.767705e-31
3.6055584e-32
8.1067772e-34
2.9217538e-39
3.8838641e-40
1.5742667e-34
9.3961943e-33
5.2766935e-32
1.1623847e-31
1.6466607e-31
1.8738691e-31
1.9246374e-31
1.9036825e-31
1.8778336e-31
1.8778306e-31
1.9036753e-31
1.9246282e-31
1.873861e-31
1.646656e-31
1.162384e-31
5.2767042e-32
9.3962345e-33
1.5742784e-34
3.890623e-40
2.1649916e-40
2.9704796e-35
2.3778475e-33
1.530197e-32
3.6152727e-32
5.3147043e-32
6.1662197e-32
6.3952349e-32
6.3546668e-32
6.279684e-32
6.2796739e-32
6.3546419e-32
6.3952034e-32
6.1661925e-32
5.3146898e-32
3.6152725e-32
1.5302014e-32
2.3778606e-33
2.970504e-35
2.1680567e-40
5.8229692e-41
5.4546443e-36
5.8468486e-34
4.3130299e-33
1.0932984e-32
1.6682701e-32
1.9736931e-32
2.0672552e-32
2.0637478e-32
2.0431646e-32
2.0431613e-32
2.0637394e-32
2.0672449e-32
1.9736843e-32
1.6682658e-32
1.0932988e-32
4.3130463e-33
5.846886e-34
5.4546814e-36
5.8291359e-41
1.1121202e-41
9.7489295e-37
1.3977512e-34
1.1821648e-33
3.216085e-33
5.094844e-33
6.1470647e-33
6.5026771e-33
6.5223439e-33
6.4694052e-33
6.4693946e-33
6.5223166e-33
6.5026437e-33
6.147037e-33
5.0948315e-33
3.2160878e-33
1.1821701e-33
1.3977613e-34
9.7489741e-37
1.1114186e-41
1.7121702e-42
1.6958977e-37
3.2501833e-35
3.1524299e-34
9.2064697e-34
1.5144042e-33
1.8635469e-33
1.991115e-33
2.0066463e-33
1.9941261e-33
1.9941228e-33
2.0066377e-33
1.9911045e-33
1.8635383e-33
1.5144006e-33
9.2064807e-34
3.1524462e-34
3.2502099e-35
1.6959051e-37
1.7113548e-42
2.1502553e-43
2.8710896e-38
7.3544704e-36
8.1823891e-35
2.5657972e-34
4.3830066e-34
5.5012355e-34
5.936933e-34
6.0118429e-34
5.9856923e-34
5.9856818e-34
6.0118158e-34
5.9369002e-34
5.5012089e-34
4.3829959e-34
2.5658008e-34
8.1824357e-35
7.3545353e-36
2.8710977e-38
2.1533373e-43
1.8713871e-44
4.7291845e-39
1.6201412e-36
2.0681128e-35
6.9646246e-35
1.2356528e-34
1.5819574e-34
1.7244525e-34
1.7545743e-34
1.7502703e-34
1.7502672e-34
1.754566e-34
1.7244425e-34
1.5819493e-34
1.2356495e-34
6.964635e-35
2.0681251e-35
1.6201562e-36
4.7291889e-39
1.8775591e-44
1.2992802e-45
7.5827204e-40
3.4762317e-37
5.0923417e-36
1.8420446e-35
3.3946008e-35
4.4331558e-35
4.8812245e-35
4.9902888e-35
4.9875334e-35
4.9875242e-35
4.9902641e-35
4.8811945e-35
4.4331314e-35
3.3945908e-35
1.8420472e-35
5.0923727e-36
3.4762649e-37
7.5827127e-40
1.3007722e-45
)
;

boundaryField
{
    Wall
    {
        type            zeroGradient;
    }
    frontAndBack
    {
        type            empty;
    }
    atmosphere
    {
        type            zeroGradient;
    }
}


// ************************************************************************* //
