/*--------------------------------*- C++ -*----------------------------------*\
| =========                 |                                                 |
| \\      /  F ield         | OpenFOAM: The Open Source CFD Toolbox           |
|  \\    /   O peration     | Version:  3.0.1                                 |
|   \\  /    A nd           | Web:      www.OpenFOAM.org                      |
|    \\/     M anipulation  |                                                 |
\*---------------------------------------------------------------------------*/
FoamFile
{
    version     2.0;
    format      ascii;
    class       volScalarField;
    location    "24";
    object      mTwo;
}
// * * * * * * * * * * * * * * * * * * * * * * * * * * * * * * * * * * * * * //

dimensions      [0 0 0 0 0 0 0];

internalField   nonuniform List<scalar> 
800
(
1.0055004e-11
1.0056507e-11
1.005667e-11
1.0056658e-11
1.0056637e-11
1.0056623e-11
1.0056614e-11
1.0056609e-11
1.0056606e-11
1.0056604e-11
1.0056604e-11
1.0056606e-11
1.0056609e-11
1.0056614e-11
1.0056623e-11
1.0056638e-11
1.0056658e-11
1.005667e-11
1.0056508e-11
1.0055004e-11
9.3982588e-12
9.4257731e-12
9.4304936e-12
9.4309586e-12
9.4306983e-12
9.4304929e-12
9.4304221e-12
9.4304327e-12
9.4304672e-12
9.4304916e-12
9.4304917e-12
9.4304672e-12
9.4304326e-12
9.4304221e-12
9.430493e-12
9.4306983e-12
9.4309586e-12
9.4304936e-12
9.425773e-12
9.3982583e-12
8.9630929e-12
8.9989209e-12
9.0089223e-12
9.0100621e-12
9.0099004e-12
9.0097239e-12
9.0097051e-12
9.0097794e-12
9.009868e-12
9.0099231e-12
9.0099231e-12
9.009868e-12
9.0097793e-12
9.009705e-12
9.0097238e-12
9.0099003e-12
9.0100622e-12
9.0089224e-12
8.9989208e-12
8.9630925e-12
8.7442486e-12
8.7824402e-12
8.7960725e-12
8.7974885e-12
8.7973707e-12
8.7972344e-12
8.7972807e-12
8.7974231e-12
8.7975645e-12
8.7976484e-12
8.7976484e-12
8.7975645e-12
8.797423e-12
8.7972807e-12
8.7972344e-12
8.7973707e-12
8.7974887e-12
8.7960727e-12
8.7824403e-12
8.7442484e-12
8.7053223e-12
8.7419339e-12
8.7580077e-12
8.7616418e-12
8.761468e-12
8.761321e-12
8.7614051e-12
8.7615971e-12
8.7617797e-12
8.7618865e-12
8.7618866e-12
8.7617796e-12
8.7615971e-12
8.7614052e-12
8.7613212e-12
8.7614682e-12
8.7616422e-12
8.7580081e-12
8.7419343e-12
8.7053224e-12
8.7817847e-12
8.8194838e-12
8.8373245e-12
8.8442226e-12
8.8438615e-12
8.8436117e-12
8.8436776e-12
8.8438839e-12
8.8440877e-12
8.8442085e-12
8.8442086e-12
8.8440877e-12
8.8438839e-12
8.8436777e-12
8.843612e-12
8.8438618e-12
8.8442231e-12
8.8373251e-12
8.8194843e-12
8.781785e-12
8.8883781e-12
8.938155e-12
8.9549932e-12
8.9648211e-12
8.9641045e-12
8.9636332e-12
8.9636073e-12
8.9637834e-12
8.9639857e-12
8.9641103e-12
8.9641104e-12
8.9639857e-12
8.9637834e-12
8.9636074e-12
8.9636335e-12
8.9641048e-12
8.9648217e-12
8.9549938e-12
8.9381555e-12
8.8883783e-12
8.9250821e-12
8.9993239e-12
9.0171575e-12
9.0287864e-12
9.0274403e-12
9.026621e-12
9.026435e-12
9.0265502e-12
9.0267396e-12
9.026864e-12
9.026864e-12
9.0267396e-12
9.0265501e-12
9.026435e-12
9.0266211e-12
9.0274404e-12
9.0287868e-12
9.0171579e-12
8.9993242e-12
8.925082e-12
8.7697252e-12
8.8892075e-12
8.9085968e-12
8.9208423e-12
8.9271164e-12
8.9257611e-12
8.9254089e-12
8.9254889e-12
8.9256906e-12
8.9258296e-12
8.9258296e-12
8.9256904e-12
8.9254885e-12
8.9254086e-12
8.9257608e-12
8.9271162e-12
8.9208422e-12
8.9085968e-12
8.8892073e-12
8.7697245e-12
8.27227e-12
8.4756213e-12
8.4963467e-12
8.5085094e-12
8.523941e-12
8.5342694e-12
8.5339473e-12
8.5341416e-12
8.5344503e-12
8.5346531e-12
8.534653e-12
8.5344499e-12
8.534141e-12
8.5339466e-12
8.5342687e-12
8.5239403e-12
8.5085087e-12
8.496346e-12
8.4756203e-12
8.2722683e-12
7.2952807e-12
7.5933995e-12
7.6362214e-12
7.6487027e-12
7.684184e-12
7.7046465e-12
7.7048379e-12
7.7054649e-12
7.7060528e-12
7.7064079e-12
7.7064078e-12
7.7060522e-12
7.705464e-12
7.7048369e-12
7.7046453e-12
7.6841827e-12
7.6487014e-12
7.6362199e-12
7.5933976e-12
7.2952779e-12
5.8182903e-12
6.1761461e-12
6.2560259e-12
6.2699022e-12
6.3270168e-12
6.3499584e-12
6.3515095e-12
6.3530579e-12
6.3542561e-12
6.3548789e-12
6.3548787e-12
6.3542555e-12
6.3530569e-12
6.3515082e-12
6.3499569e-12
6.3270151e-12
6.2699003e-12
6.2560238e-12
6.1761435e-12
5.8182868e-12
4.1500404e-12
4.473639e-12
4.554574e-12
4.5742216e-12
4.6254378e-12
4.6457244e-12
4.6488822e-12
4.6514467e-12
4.6556527e-12
4.6565405e-12
4.6565403e-12
4.6556522e-12
4.6514457e-12
4.6488809e-12
4.6457229e-12
4.625436e-12
4.5742196e-12
4.5545718e-12
4.4736365e-12
4.1500373e-12
2.6740147e-12
2.9312692e-12
3.0052493e-12
3.028639e-12
3.0639644e-12
3.0788155e-12
3.0825195e-12
3.085324e-12
3.0966882e-12
3.0976158e-12
3.0976157e-12
3.0966878e-12
3.0853233e-12
3.0825185e-12
3.0788143e-12
3.063963e-12
3.0286373e-12
3.0052475e-12
2.9312673e-12
2.6740126e-12
1.5106677e-12
1.6741157e-12
1.729728e-12
1.7505661e-12
1.7707038e-12
1.7796587e-12
1.7827954e-12
1.7849579e-12
1.7935544e-12
1.7941985e-12
1.7941984e-12
1.7935542e-12
1.7849576e-12
1.7827948e-12
1.779658e-12
1.7707029e-12
1.7505652e-12
1.729727e-12
1.6741147e-12
1.5106669e-12
7.927539e-13
9.0788652e-13
9.5523322e-13
9.7359616e-13
9.8517598e-13
9.8988484e-13
9.9171151e-13
9.9285855e-13
9.9706061e-13
9.9734617e-13
9.9734612e-13
9.9706055e-13
9.9285834e-13
9.9171124e-13
9.8988446e-13
9.8517553e-13
9.7359563e-13
9.5523271e-13
9.0788606e-13
7.9275373e-13
3.5785362e-13
4.6938965e-13
5.1466679e-13
5.3108646e-13
5.3729922e-13
5.3845412e-13
5.3818688e-13
5.3787127e-13
5.3891548e-13
5.3878267e-13
5.3878264e-13
5.3891544e-13
5.3787114e-13
5.381867e-13
5.3845387e-13
5.3729892e-13
5.3108611e-13
5.1466646e-13
4.693894e-13
3.5785372e-13
1.2547824e-13
2.284891e-13
2.7325076e-13
2.8974611e-13
2.9395912e-13
2.9311384e-13
2.9114727e-13
2.8948468e-13
2.8877369e-13
2.8820811e-13
2.8820809e-13
2.8877364e-13
2.8948458e-13
2.9114713e-13
2.9311365e-13
2.939589e-13
2.8974587e-13
2.7325052e-13
2.2848895e-13
1.2547833e-13
3.3489803e-14
1.0341655e-13
1.4111279e-13
1.5680644e-13
1.6094077e-13
1.5999957e-13
1.5771248e-13
1.5562787e-13
1.5429058e-13
1.5354137e-13
1.5354135e-13
1.5429052e-13
1.5562778e-13
1.5771237e-13
1.5999943e-13
1.609406e-13
1.5680627e-13
1.4111264e-13
1.0341646e-13
3.3489835e-14
7.0274297e-15
4.3458073e-14
7.0312374e-14
8.3338373e-14
8.7414422e-14
8.7082907e-14
8.5310842e-14
8.3514157e-14
8.2230665e-14
8.1537339e-14
8.1537321e-14
8.2230618e-14
8.3514084e-14
8.5310754e-14
8.7082805e-14
8.7414312e-14
8.3338264e-14
7.0312284e-14
4.3458029e-14
7.0274359e-15
1.2255237e-15
1.6980879e-14
3.3684669e-14
4.3215348e-14
4.6753181e-14
4.6947546e-14
4.585632e-14
4.4590824e-14
4.3624075e-14
4.3097878e-14
4.3097863e-14
4.3624039e-14
4.459077e-14
4.5856257e-14
4.6947478e-14
4.6753111e-14
4.3215284e-14
3.3684622e-14
1.6980858e-14
1.2255244e-15
1.8757346e-16
6.2006358e-15
1.5502076e-14
2.1788022e-14
2.4500831e-14
2.4936764e-14
2.4376308e-14
2.3597174e-14
2.2964706e-14
2.2614087e-14
2.2614076e-14
2.2964681e-14
2.3597137e-14
2.4376266e-14
2.4936721e-14
2.450079e-14
2.1787987e-14
1.5502054e-14
6.2006278e-15
1.8757356e-16
2.6267982e-17
2.132844e-15
6.8592966e-15
1.0664577e-14
1.2543395e-14
1.3001437e-14
1.2765041e-14
1.2332146e-14
1.1957111e-14
1.1744481e-14
1.1744474e-14
1.1957094e-14
1.2332122e-14
1.2765015e-14
1.3001412e-14
1.2543373e-14
1.066456e-14
6.859287e-15
2.1328415e-15
2.6267998e-17
3.4604616e-18
6.9707744e-16
2.9237456e-15
5.0667688e-15
6.2641537e-15
6.6378766e-15
6.566289e-15
6.3458537e-15
6.1397843e-15
6.0199329e-15
6.0199284e-15
6.1397738e-15
6.3458386e-15
6.5662733e-15
6.6378623e-15
6.2641424e-15
5.0667613e-15
2.923742e-15
6.9707689e-16
3.4604653e-18
4.3632813e-19
2.1812194e-16
1.2033785e-15
2.3378078e-15
3.0497975e-15
3.3139336e-15
3.3113489e-15
3.207919e-15
3.1016564e-15
3.0380337e-15
3.038031e-15
3.1016502e-15
3.2079101e-15
3.3113399e-15
3.313926e-15
3.0497921e-15
2.3378049e-15
1.2033774e-15
2.1812189e-16
4.3632886e-19
5.3214722e-20
6.5734903e-17
4.794021e-16
1.0484681e-15
1.4475342e-15
1.6166583e-15
1.6350139e-15
1.5904504e-15
1.5386324e-15
1.5065487e-15
1.5065471e-15
1.5386288e-15
1.5904453e-15
1.635009e-15
1.6166544e-15
1.4475318e-15
1.0484671e-15
4.7940192e-16
6.5734938e-17
5.3214855e-20
6.317356e-21
1.9163421e-17
1.8525084e-16
4.5750865e-16
6.6997506e-16
7.7042141e-16
7.8983629e-16
7.7248237e-16
7.4848011e-16
7.3301978e-16
7.3301892e-16
7.4847813e-16
7.7247959e-16
7.8983371e-16
7.7041946e-16
6.6997404e-16
4.5750842e-16
1.8525088e-16
1.9163447e-17
6.3173772e-21
7.3277124e-22
5.421173e-18
6.9561473e-17
1.9443131e-16
3.0251897e-16
3.5865257e-16
3.7314765e-16
3.6729709e-16
3.5671379e-16
3.4956556e-16
3.495651e-16
3.5671272e-16
3.6729562e-16
3.7314633e-16
3.5865164e-16
3.0251856e-16
1.944313e-16
6.9561533e-17
5.4211856e-18
7.3277431e-22
8.3236707e-23
1.4915203e-18
2.5419871e-17
8.0547484e-17
1.3333192e-16
1.6312957e-16
1.7238356e-16
1.7089724e-16
1.6645495e-16
1.6327474e-16
1.632745e-16
1.664544e-16
1.7089649e-16
1.7238291e-16
1.6312914e-16
1.3333177e-16
8.0547526e-17
2.5419913e-17
1.4915254e-18
8.3237123e-23
9.271808e-24
3.9974629e-19
9.0511693e-18
3.2554893e-17
5.7390073e-17
7.2515385e-17
7.7876496e-17
7.7799109e-17
7.6028253e-17
7.4664293e-17
7.4664174e-17
7.6027978e-17
7.7798741e-17
7.7876181e-17
7.2515195e-17
5.7390023e-17
3.2554931e-17
9.051192e-18
3.9974811e-19
9.271864e-24
1.0136614e-24
1.0449206e-19
3.143421e-18
1.2846462e-17
2.4137575e-17
3.1515242e-17
3.441056e-17
3.4653519e-17
3.3986964e-17
3.3422437e-17
3.3422379e-17
3.3986832e-17
3.4653343e-17
3.4410413e-17
3.1515159e-17
2.4137561e-17
1.2846485e-17
3.1434317e-18
1.0449267e-19
1.0136682e-24
1.0977379e-25
2.6664435e-20
1.0657098e-18
4.9527708e-18
9.925054e-18
1.3396004e-17
1.4875413e-17
1.5104991e-17
1.4870865e-17
1.4645336e-17
1.464531e-17
1.4870803e-17
1.5104908e-17
1.4875346e-17
1.3395969e-17
9.9250514e-18
4.9527834e-18
1.0657146e-18
2.666463e-20
1.0975996e-25
2.4644781e-26
6.647558e-21
3.5296958e-19
1.8667269e-18
3.9918688e-18
5.5715302e-18
6.2933323e-18
6.4446738e-18
6.3697869e-18
6.2828775e-18
6.2828653e-18
6.3697584e-18
6.4446362e-18
6.2933023e-18
5.5715156e-18
3.9918689e-18
1.8667331e-18
3.5297156e-19
6.6476172e-21
2.4668359e-26
1.6892504e-26
1.6204612e-21
1.1428388e-19
6.8822903e-19
1.5712275e-18
2.2683161e-18
2.6066655e-18
2.6922972e-18
2.6717302e-18
2.6394815e-18
2.6394761e-18
2.6717176e-18
2.6922804e-18
2.6066524e-18
2.2683101e-18
1.571228e-18
6.8823187e-19
1.1428466e-19
1.6204764e-21
1.6904482e-26
5.7502258e-27
3.8687713e-22
3.6195448e-20
2.4833653e-19
6.055231e-19
9.043774e-19
1.0574306e-18
1.1016383e-18
1.0976864e-18
1.086202e-18
1.0861997e-18
1.0976809e-18
1.101631e-18
1.057425e-18
9.0437495e-19
6.0552342e-19
2.4833776e-19
3.6195722e-20
3.8687993e-22
5.752946e-27
1.4197165e-27
9.0464647e-23
1.1220813e-20
8.7746748e-20
2.2858817e-19
3.5326469e-19
4.2029599e-19
4.4168543e-19
4.4191337e-19
4.3801069e-19
4.3800971e-19
4.4191102e-19
4.4168231e-19
4.202936e-19
3.5326369e-19
2.2858834e-19
8.7747227e-20
1.1220906e-20
9.0464978e-23
1.4182192e-27
2.8603302e-28
2.0717003e-23
3.406451e-21
3.0375953e-20
8.4568378e-20
1.3525105e-19
1.6374696e-19
1.7358651e-19
1.7439521e-19
1.7314228e-19
1.7314187e-19
1.7439423e-19
1.7358519e-19
1.6374596e-19
1.3525064e-19
8.4568439e-20
3.0376132e-20
3.4064813e-21
2.0717041e-23
2.8574394e-28
4.72855e-29
4.645617e-24
1.0131891e-21
1.0307247e-20
3.0675468e-20
5.0775725e-20
6.2558219e-20
6.6899398e-20
6.7490359e-20
6.711741e-20
6.7117239e-20
6.7489953e-20
6.6898852e-20
6.2557805e-20
5.0775557e-20
3.0675486e-20
1.030731e-20
1.0131985e-21
4.645609e-24
4.7317073e-29
5.3753508e-30
1.0197281e-24
2.9538656e-22
3.4298114e-21
1.0914248e-20
1.8699509e-20
2.3445925e-20
2.5293417e-20
2.5623156e-20
2.55243e-20
2.5524231e-20
2.5622991e-20
2.5293194e-20
2.3445755e-20
1.8699439e-20
1.0914251e-20
3.4298325e-21
2.9538928e-22
1.0197221e-24
5.3867868e-30
5.0106173e-31
2.1923839e-25
8.4452159e-23
1.1197237e-21
3.8106824e-21
6.7583861e-21
8.6238178e-21
9.3852826e-21
9.5473254e-21
9.5264948e-21
9.5264676e-21
9.54726e-21
9.3851931e-21
8.6237488e-21
6.7583565e-21
3.8106816e-21
1.1197303e-21
8.4452924e-23
2.1923618e-25
5.0110895e-31
)
;

boundaryField
{
    Wall
    {
        type            zeroGradient;
    }
    frontAndBack
    {
        type            empty;
    }
    atmosphere
    {
        type            zeroGradient;
    }
}


// ************************************************************************* //
