/*--------------------------------*- C++ -*----------------------------------*\
| =========                 |                                                 |
| \\      /  F ield         | OpenFOAM: The Open Source CFD Toolbox           |
|  \\    /   O peration     | Version:  3.0.1                                 |
|   \\  /    A nd           | Web:      www.OpenFOAM.org                      |
|    \\/     M anipulation  |                                                 |
\*---------------------------------------------------------------------------*/
FoamFile
{
    version     2.0;
    format      ascii;
    class       volScalarField;
    location    "24";
    object      mZero;
}
// * * * * * * * * * * * * * * * * * * * * * * * * * * * * * * * * * * * * * //

dimensions      [0 0 0 0 0 0 0];

internalField   nonuniform List<scalar> 
800
(
1e+13
1e+13
1e+13
1e+13
1e+13
1e+13
1e+13
1e+13
1e+13
1e+13
1e+13
1e+13
1e+13
1e+13
1e+13
1e+13
1e+13
1e+13
1e+13
1e+13
1e+13
1e+13
1e+13
1e+13
1e+13
1e+13
1e+13
1e+13
1e+13
1e+13
1e+13
1e+13
1e+13
1e+13
1e+13
1e+13
1e+13
1e+13
1e+13
1e+13
9.8382462e+12
9.8414022e+12
9.8423859e+12
9.8425699e+12
9.8425423e+12
9.8424854e+12
9.8424414e+12
9.8424151e+12
9.8424016e+12
9.8423963e+12
9.8423963e+12
9.8424016e+12
9.8424151e+12
9.8424413e+12
9.8424853e+12
9.8425422e+12
9.8425697e+12
9.8423857e+12
9.841402e+12
9.838246e+12
9.55214e+12
9.5608603e+12
9.5631334e+12
9.563458e+12
9.5633641e+12
9.56321e+12
9.5630948e+12
9.5630256e+12
9.5629892e+12
9.5629745e+12
9.5629744e+12
9.5629892e+12
9.5630255e+12
9.5630946e+12
9.5632097e+12
9.5633639e+12
9.5634577e+12
9.5631331e+12
9.56086e+12
9.5521396e+12
9.1745572e+12
9.1905849e+12
9.194213e+12
9.1946433e+12
9.1944365e+12
9.1941565e+12
9.1939564e+12
9.1938372e+12
9.1937742e+12
9.1937484e+12
9.1937484e+12
9.193774e+12
9.1938369e+12
9.1939561e+12
9.1941562e+12
9.1944361e+12
9.1946428e+12
9.1942125e+12
9.1905845e+12
9.1745568e+12
8.7329488e+12
8.7576598e+12
8.7626925e+12
8.7632128e+12
8.7628568e+12
8.7624412e+12
8.7621555e+12
8.7619879e+12
8.7619013e+12
8.7618664e+12
8.7618663e+12
8.7619012e+12
8.7619876e+12
8.7621552e+12
8.7624409e+12
8.7628564e+12
8.7632124e+12
8.7626921e+12
8.7576594e+12
8.7329483e+12
8.2485431e+12
8.283348e+12
8.2899483e+12
8.2906065e+12
8.2900908e+12
8.2895467e+12
8.2891905e+12
8.2889873e+12
8.2888871e+12
8.2888477e+12
8.2888476e+12
8.2888869e+12
8.288987e+12
8.2891901e+12
8.2895463e+12
8.2900904e+12
8.2906061e+12
8.2899479e+12
8.2833477e+12
8.2485426e+12
7.7363712e+12
7.7826478e+12
7.7914423e+12
7.7924191e+12
7.7917529e+12
7.7911101e+12
7.7907148e+12
7.7905017e+12
7.7904043e+12
7.7903671e+12
7.7903671e+12
7.7904042e+12
7.7905015e+12
7.7907145e+12
7.7911098e+12
7.7917526e+12
7.7924188e+12
7.791442e+12
7.7826476e+12
7.7363708e+12
7.2053835e+12
7.2646626e+12
7.2767282e+12
7.2784396e+12
7.2778459e+12
7.2771396e+12
7.2767556e+12
7.2765687e+12
7.2764929e+12
7.276465e+12
7.276465e+12
7.2764928e+12
7.2765685e+12
7.2767554e+12
7.2771394e+12
7.2778457e+12
7.2784394e+12
7.2767279e+12
7.2646624e+12
7.205383e+12
6.6586286e+12
6.7329074e+12
6.750033e+12
6.7532464e+12
6.7529752e+12
6.7523945e+12
6.7520947e+12
6.7519669e+12
6.7519247e+12
6.7519095e+12
6.7519095e+12
6.7519245e+12
6.7519667e+12
6.7520944e+12
6.7523943e+12
6.752975e+12
6.7532463e+12
6.7500328e+12
6.7329072e+12
6.6586282e+12
6.0934406e+12
6.1853369e+12
6.2106368e+12
6.2167475e+12
6.2172864e+12
6.2169984e+12
6.2168017e+12
6.2167296e+12
6.2167038e+12
6.2166912e+12
6.2166912e+12
6.2167037e+12
6.2167294e+12
6.2168014e+12
6.2169982e+12
6.2172863e+12
6.2167474e+12
6.2106366e+12
6.1853367e+12
6.0934402e+12
5.500941e+12
5.6149427e+12
5.653356e+12
5.6647742e+12
5.6671719e+12
5.6673767e+12
5.6672144e+12
5.6671163e+12
5.6670193e+12
5.6669723e+12
5.6669722e+12
5.6670192e+12
5.667116e+12
5.6672142e+12
5.6673766e+12
5.6671718e+12
5.6647742e+12
5.6533558e+12
5.6149426e+12
5.5009409e+12
4.8634148e+12
5.0077962e+12
5.0677396e+12
5.0890475e+12
5.0950002e+12
5.0958848e+12
5.095503e+12
5.0951302e+12
5.094723e+12
5.0945504e+12
5.0945503e+12
5.0947227e+12
5.0951299e+12
5.0955027e+12
5.0958846e+12
5.0950001e+12
5.0890475e+12
5.0677395e+12
5.0077962e+12
4.8634149e+12
4.1563309e+12
4.3436591e+12
4.4389467e+12
4.4774618e+12
4.4894375e+12
4.4911692e+12
4.4900274e+12
4.4888321e+12
4.4880467e+12
4.4875694e+12
4.4875693e+12
4.4880464e+12
4.4888317e+12
4.4900271e+12
4.491169e+12
4.4894374e+12
4.4774619e+12
4.4389466e+12
4.3436593e+12
4.1563314e+12
3.3303537e+12
3.588079e+12
3.7426627e+12
3.8119434e+12
3.8351646e+12
3.8385099e+12
3.8358229e+12
3.8327589e+12
3.8308556e+12
3.829665e+12
3.8296647e+12
3.8308553e+12
3.8327583e+12
3.8358226e+12
3.8385097e+12
3.8351645e+12
3.8119435e+12
3.7426627e+12
3.5880795e+12
3.3303548e+12
2.363637e+12
2.7199676e+12
2.9560389e+12
3.0745606e+12
3.117913e+12
3.1246548e+12
3.1191172e+12
3.1122785e+12
3.1078644e+12
3.1051887e+12
3.1051884e+12
3.107864e+12
3.1122777e+12
3.1191168e+12
3.1246545e+12
3.1179128e+12
3.0745606e+12
2.9560389e+12
2.7199681e+12
2.3636385e+12
1.3793203e+12
1.8844417e+12
2.1943402e+12
2.3626352e+12
2.4307605e+12
2.4428349e+12
2.433238e+12
2.4204589e+12
2.4113839e+12
2.4063053e+12
2.406305e+12
2.4113833e+12
2.4204579e+12
2.4332373e+12
2.4428344e+12
2.4307602e+12
2.362635e+12
2.19434e+12
1.884442e+12
1.3793218e+12
6.072482e+11
1.2023566e+12
1.5571577e+12
1.7556432e+12
1.8408956e+12
1.8572313e+12
1.8436762e+12
1.8245013e+12
1.8100167e+12
1.8020674e+12
1.8020669e+12
1.8100158e+12
1.8245e+12
1.8436753e+12
1.8572306e+12
1.840895e+12
1.7556427e+12
1.5571573e+12
1.2023567e+12
6.072492e+11
1.988266e+11
7.0901094e+11
1.0583345e+12
1.26413e+12
1.3572839e+12
1.3773042e+12
1.3626691e+12
1.3399798e+12
1.3219041e+12
1.3119234e+12
1.3119229e+12
1.3219031e+12
1.3399784e+12
1.362668e+12
1.3773033e+12
1.3572832e+12
1.2641295e+12
1.0583341e+12
7.0901092e+11
1.9882699e+11
5.0316325e+10
3.8659384e+11
6.8777298e+11
8.8001003e+11
9.7226598e+11
9.950714e+11
9.825387e+11
9.6029839e+11
9.4168426e+11
9.3124673e+11
9.3124619e+11
9.4168318e+11
9.6029692e+11
9.8253751e+11
9.9507044e+11
9.7226521e+11
8.8000947e+11
6.8777258e+11
3.8659376e+11
5.0316423e+10
1.0458184e+10
1.9446052e+11
4.2632228e+11
5.9063899e+11
6.7485872e+11
6.9880157e+11
6.9012696e+11
6.7126138e+11
6.5467894e+11
6.4521109e+11
6.4521058e+11
6.546779e+11
6.7125997e+11
6.9012578e+11
6.9880062e+11
6.7485797e+11
5.9063849e+11
4.2632195e+11
1.9446043e+11
1.0458203e+10
1.8920923e+09
9.0386301e+10
2.5161515e+11
3.813951e+11
4.5293006e+11
4.7605122e+11
4.7140849e+11
4.5716298e+11
4.4396217e+11
4.3628096e+11
4.3628051e+11
4.4396125e+11
4.5716172e+11
4.7140741e+11
4.7605036e+11
4.529294e+11
3.8139468e+11
2.5161491e+11
9.0386249e+10
1.8920955e+09
3.1127153e+08
3.9080705e+10
1.4136807e+11
2.366993e+11
2.9355932e+11
3.1416819e+11
3.1272802e+11
3.0299436e+11
2.9340296e+11
2.8770887e+11
2.877085e+11
2.9340219e+11
3.029933e+11
3.1272711e+11
3.1416747e+11
2.9355879e+11
2.36699e+11
1.4136791e+11
3.908068e+10
3.1127208e+08
47924035
1.5857145e+10
7.5713889e+10
1.4118843e+11
1.8366412e+11
2.007151e+11
2.0130577e+11
1.9524033e+11
1.8879175e+11
1.8487769e+11
1.8487741e+11
1.8879115e+11
1.952395e+11
2.0130504e+11
2.0071453e+11
1.8366372e+11
1.4118824e+11
7.5713799e+10
1.5857137e+10
47924137
7029356.1
6.0890148e+09
3.8748711e+10
8.1009943e+10
1.1094691e+11
1.2412183e+11
1.2568438e+11
1.2223625e+11
1.1818825e+11
1.1566778e+11
1.1566757e+11
1.1818781e+11
1.2223563e+11
1.2568384e+11
1.2412141e+11
1.1094662e+11
8.1009822e+10
3.8748666e+10
6.089013e+09
7029375.1
992835.38
2.2283035e+09
1.9003749e+10
4.476973e+10
6.4752953e+10
7.4316441e+10
7.6106086e+10
7.4333797e+10
7.1947705e+10
7.0416231e+10
7.0416087e+10
7.1947392e+10
7.4333358e+10
7.61057e+10
7.4316148e+10
6.4752759e+10
4.4769659e+10
1.9003729e+10
2.2283037e+09
992838.92
135897.27
7.8142839e+08
8.9572251e+09
2.3867771e+10
3.6548135e+10
4.3105187e+10
4.4706567e+10
4.390448e+10
4.2579524e+10
4.169701e+10
4.1696915e+10
4.2579312e+10
4.3904182e+10
4.4706305e+10
4.3104991e+10
3.654801e+10
2.3867731e+10
8.9572171e+09
7.8142877e+08
135897.89
18095.412
2.6370318e+08
4.068362e+09
1.2294853e+10
1.9970999e+10
2.4238043e+10
2.5487509e+10
2.5191065e+10
2.4497309e+10
2.4013298e+10
2.4013237e+10
2.4497172e+10
2.5190873e+10
2.5487338e+10
2.4237918e+10
1.997092e+10
1.2294831e+10
4.0683591e+09
2.6370343e+08
18095.517
2349.3242
85912204
1.7848727e+09
6.1292083e+09
1.0576743e+10
1.3223534e+10
1.4110393e+10
1.4046071e+10
1.3704063e+10
1.3450837e+10
1.34508e+10
1.3703978e+10
1.4045951e+10
1.4110286e+10
1.3223457e+10
1.0576696e+10
6.1291967e+09
1.7848719e+09
85912328
2349.3409
297.81171
27089872
7.5793792e+08
2.9614157e+09
5.4350952e+09
7.0058016e+09
7.5909656e+09
7.6145701e+09
7.4566314e+09
7.3301023e+09
7.3300804e+09
7.4565805e+09
7.614499e+09
7.5909017e+09
7.0057558e+09
5.4350682e+09
2.9614097e+09
7.579378e+08
27089926
297.81431
36.908594
8284358.9
3.1208823e+08
1.3886807e+09
2.7128987e+09
3.6075368e+09
3.9711265e+09
4.0157649e+09
3.9481976e+09
3.8878166e+09
3.8878042e+09
3.9481683e+09
4.015724e+09
3.9710895e+09
3.6075106e+09
2.7128837e+09
1.3886776e+09
3.1208827e+08
8284380
36.908707
4.6908432
2461218.5
1.2480073e+08
6.3278483e+08
1.3166648e+09
1.8071022e+09
2.0216749e+09
2.061568e+09
2.0354205e+09
2.0079402e+09
2.0079334e+09
2.0354042e+09
2.0615452e+09
2.0216542e+09
1.8070876e+09
1.3166568e+09
6.3278327e+08
1.2480078e+08
2461226.4
4.6871119
2.5618106
711405.75
48534353
2.8051408e+08
6.2194102e+08
8.8132882e+08
1.0023342e+09
1.0309087e+09
1.0222731e+09
1.0103857e+09
1.0103821e+09
1.0222642e+09
1.0308965e+09
1.002323e+09
8.8132098e+08
6.2193681e+08
2.8051331e+08
48534391
711408.43
2.5626561
2.4417574
200391.79
18378139
1.2110128e+08
2.8618406e+08
4.1881813e+08
4.8432265e+08
5.0248912e+08
5.0050366e+08
4.95648e+08
4.9564617e+08
5.0049904e+08
5.0248273e+08
4.8431675e+08
4.1881402e+08
2.8618192e+08
1.211009e+08
18378159
200392.26
2.4422709
0.9612017
55159.831
6783609.3
50962152
1.2838901e+08
1.9407843e+08
2.2823697e+08
2.3889415e+08
2.3902805e+08
2.3717808e+08
2.3717717e+08
2.390257e+08
2.388909e+08
2.2823396e+08
1.9407633e+08
1.2838795e+08
50961974
6783614.4
55159.64
0.96128222
0.27107098
14841.21
2443399.8
20923354
56199725
87762313
1.0496938e+08
1.1085084e+08
1.1142007e+08
1.1077876e+08
1.1077832e+08
1.1141891e+08
1.1084923e+08
1.0496788e+08
87761271
56199217
20923265
2443400.5
14841.032
0.27070391
0.06220745
3903.6111
859515.64
8387945.8
24020528
38753827
47146386
50234300
50724373
50533673
50533459
50723811
50233527
47145655
38753322
24020287
8387902.8
859515.31
3903.5395
0.062124385
0.011665428
1003.6153
295506.29
3285752.7
10031663
16721654
20692524
22246032
22566604
22526939
22526839
22566338
22245668
20692178
16721413
10031551
3285732.2
295505.86
1003.5878
0.011668832
0.0014868704
252.11053
99366.626
1258526.1
4096218.1
7054551.8
8880061.5
9632687.1
9816574.6
9818980.3
9818934.6
9816451.8
9632519.5
8879900.8
7054439.9
4096166.9
1258516.4
99366.329
252.10096
0.0014892478
0.00015601518
61.947626
32701.978
471642.99
1636343.4
2911640.2
3728219.7
4080618.3
4177686.5
4187066.1
4187045.7
4177631.3
4080542.9
3728146.7
2911589.1
1636320.4
471638.6
32701.826
61.944648
0.00015594205
)
;

boundaryField
{
    Wall
    {
        type            zeroGradient;
    }
    frontAndBack
    {
        type            empty;
    }
    atmosphere
    {
        type            zeroGradient;
    }
}


// ************************************************************************* //
