/*--------------------------------*- C++ -*----------------------------------*\
| =========                 |                                                 |
| \\      /  F ield         | OpenFOAM: The Open Source CFD Toolbox           |
|  \\    /   O peration     | Version:  3.0.1                                 |
|   \\  /    A nd           | Web:      www.OpenFOAM.org                      |
|    \\/     M anipulation  |                                                 |
\*---------------------------------------------------------------------------*/
FoamFile
{
    version     2.0;
    format      ascii;
    class       volScalarField;
    location    "24";
    object      node1;
}
// * * * * * * * * * * * * * * * * * * * * * * * * * * * * * * * * * * * * * //

dimensions      [0 0 0 0 0 0 0];

internalField   nonuniform List<scalar> 
800
(
1.0003141e-12
1.0003886e-12
1.0003966e-12
1.000396e-12
1.000395e-12
1.0003943e-12
1.0003938e-12
1.0003936e-12
1.0003934e-12
1.0003933e-12
1.0003933e-12
1.0003934e-12
1.0003936e-12
1.0003938e-12
1.0003943e-12
1.000395e-12
1.000396e-12
1.0003966e-12
1.0003886e-12
1.0003141e-12
9.6583987e-13
9.6733997e-13
9.6759251e-13
9.6761824e-13
9.6760581e-13
9.6759629e-13
9.6759367e-13
9.6759508e-13
9.6759745e-13
9.67599e-13
9.6759901e-13
9.6759744e-13
9.6759507e-13
9.6759367e-13
9.6759629e-13
9.676058e-13
9.6761824e-13
9.6759251e-13
9.6733997e-13
9.6583984e-13
9.5035002e-13
9.5215883e-13
9.526771e-13
9.5273325e-13
9.5272859e-13
9.5272414e-13
9.527271e-13
9.5273374e-13
9.5274005e-13
9.527437e-13
9.5274371e-13
9.5274005e-13
9.5273374e-13
9.527271e-13
9.5272414e-13
9.5272859e-13
9.5273326e-13
9.5267711e-13
9.5215883e-13
9.5035e-13
9.5251906e-13
9.5419557e-13
9.5483775e-13
9.5490008e-13
9.5489948e-13
9.5490071e-13
9.5490975e-13
9.5492153e-13
9.5493142e-13
9.5493691e-13
9.5493691e-13
9.5493142e-13
9.5492153e-13
9.5490976e-13
9.5490072e-13
9.5489949e-13
9.5490011e-13
9.5483778e-13
9.5419559e-13
9.5251907e-13
9.6958043e-13
9.7080786e-13
9.7152253e-13
9.7170641e-13
9.7170885e-13
9.7171635e-13
9.7173228e-13
9.7174974e-13
9.7176352e-13
9.7177098e-13
9.7177099e-13
9.7176353e-13
9.7174975e-13
9.717323e-13
9.7171638e-13
9.7170888e-13
9.7170645e-13
9.7152258e-13
9.708079e-13
9.6958046e-13
9.9785381e-13
9.9862984e-13
9.9936363e-13
9.9973248e-13
9.9973347e-13
9.9974382e-13
9.9976443e-13
9.9978609e-13
9.9980284e-13
9.9981181e-13
9.9981182e-13
9.9980285e-13
9.9978611e-13
9.9976446e-13
9.9974385e-13
9.9973351e-13
9.9973254e-13
9.9936368e-13
9.9862989e-13
9.9785385e-13
1.0325941e-12
1.0333649e-12
1.0339315e-12
1.0344685e-12
1.0344596e-12
1.0344666e-12
1.0344876e-12
1.0345107e-12
1.0345289e-12
1.0345386e-12
1.0345386e-12
1.0345289e-12
1.0345108e-12
1.0344877e-12
1.0344667e-12
1.0344596e-12
1.0344685e-12
1.0339315e-12
1.0333649e-12
1.0325941e-12
1.0682337e-12
1.069532e-12
1.0699966e-12
1.0706317e-12
1.0705953e-12
1.0705889e-12
1.0706039e-12
1.0706248e-12
1.0706424e-12
1.0706521e-12
1.0706522e-12
1.0706424e-12
1.0706248e-12
1.070604e-12
1.070589e-12
1.0705953e-12
1.0706317e-12
1.0699966e-12
1.069532e-12
1.0682337e-12
1.0977453e-12
1.1007294e-12
1.1010356e-12
1.1016854e-12
1.1021299e-12
1.102092e-12
1.1020935e-12
1.1021088e-12
1.1021248e-12
1.1021343e-12
1.1021343e-12
1.1021248e-12
1.1021088e-12
1.1020935e-12
1.102092e-12
1.1021299e-12
1.1016855e-12
1.1010356e-12
1.1007294e-12
1.0977453e-12
1.1114535e-12
1.1188212e-12
1.1188244e-12
1.1194258e-12
1.1204744e-12
1.1211905e-12
1.1211758e-12
1.1211868e-12
1.1212029e-12
1.1212135e-12
1.1212135e-12
1.1212029e-12
1.1211868e-12
1.1211758e-12
1.1211905e-12
1.1204744e-12
1.1194258e-12
1.1188244e-12
1.1188212e-12
1.1114534e-12
1.0976988e-12
1.1114051e-12
1.1123994e-12
1.1129519e-12
1.1154655e-12
1.1169091e-12
1.1168913e-12
1.1169091e-12
1.1169328e-12
1.1169484e-12
1.1169484e-12
1.1169328e-12
1.1169091e-12
1.1168912e-12
1.116909e-12
1.1154654e-12
1.1129518e-12
1.1123993e-12
1.111405e-12
1.0976986e-12
1.045332e-12
1.0657844e-12
1.069351e-12
1.0699308e-12
1.074402e-12
1.0762054e-12
1.076236e-12
1.0762947e-12
1.0763548e-12
1.0763852e-12
1.0763852e-12
1.0763547e-12
1.0762947e-12
1.076236e-12
1.0762053e-12
1.0744019e-12
1.0699307e-12
1.0693509e-12
1.0657842e-12
1.0453318e-12
9.621642e-13
9.8473137e-13
9.8902825e-13
9.8983826e-13
9.9457501e-13
9.9650586e-13
9.9664635e-13
9.9678656e-13
9.9689084e-13
9.9694802e-13
9.9694802e-13
9.9689081e-13
9.967865e-13
9.9664628e-13
9.9650576e-13
9.9457489e-13
9.8983813e-13
9.890281e-13
9.8473118e-13
9.6216396e-13
8.6396378e-13
8.8761382e-13
8.9227073e-13
8.9354272e-13
8.977075e-13
8.9957317e-13
8.9983228e-13
9.0005691e-13
9.0110305e-13
9.0118713e-13
9.0118712e-13
9.0110302e-13
9.0005686e-13
8.998322e-13
8.9957307e-13
8.9770737e-13
8.9354257e-13
8.9227057e-13
8.8761363e-13
8.6396355e-13
0
0
0
0
0
0
0
0
0
0
0
0
0
0
0
0
0
0
0
0
0
0
0
0
0
0
0
0
0
0
0
0
0
0
0
0
0
0
0
0
0
0
0
0
0
0
0
0
0
0
0
0
0
0
0
0
0
0
0
0
0
0
0
0
0
0
0
0
0
0
0
0
0
0
0
0
0
0
0
0
0
0
0
0
0
0
0
0
0
0
0
0
0
0
0
0
0
0
0
0
0
0
0
0
0
0
0
0
0
0
0
0
0
0
0
0
0
0
0
0
0
0
0
0
0
0
0
0
0
0
0
0
0
0
0
0
0
0
0
0
0
0
0
0
0
0
0
0
0
0
0
0
0
0
0
0
0
0
0
0
0
0
0
0
0
0
0
0
0
0
0
0
0
0
0
0
0
0
0
0
0
0
0
0
0
0
0
0
0
0
0
0
0
0
0
0
0
0
0
0
0
0
0
0
0
0
0
0
0
0
0
0
0
0
0
0
0
0
0
0
0
0
0
0
0
0
0
0
0
0
0
0
0
0
0
0
0
0
0
0
0
0
0
0
0
0
0
0
0
0
0
0
0
0
0
0
0
0
0
0
0
0
0
0
0
0
0
0
0
0
0
0
0
0
0
0
0
0
0
0
0
0
0
0
0
0
0
0
0
0
0
0
0
0
0
0
0
0
0
0
0
0
0
0
0
0
0
0
0
0
0
0
0
0
0
0
0
0
0
0
0
0
0
0
0
0
0
0
0
0
0
0
0
0
0
0
0
0
0
0
0
0
0
0
0
0
0
0
0
0
0
0
0
0
0
0
0
0
0
0
0
0
0
0
0
0
0
0
0
0
0
0
0
0
0
0
0
0
0
0
0
0
0
0
0
0
0
0
0
0
0
0
0
0
0
0
0
0
0
0
0
0
0
0
0
0
0
0
0
0
0
0
0
0
0
0
0
0
0
0
0
0
0
0
0
0
0
0
0
0
0
0
0
0
0
0
0
0
0
0
0
0
0
0
0
0
0
0
0
0
0
0
0
0
0
0
0
0
0
0
0
0
0
0
0
0
0
0
0
0
0
0
0
0
0
0
0
0
0
0
0
0
0
0
0
0
0
0
0
0
0
0
0
0
0
0
0
0
0
0
0
0
0
0
0
0
0
0
0
0
0
0
0
0
0
0
0
0
0
0
)
;

boundaryField
{
    Wall
    {
        type            zeroGradient;
    }
    frontAndBack
    {
        type            empty;
    }
    atmosphere
    {
        type            zeroGradient;
    }
}


// ************************************************************************* //
