/*--------------------------------*- C++ -*----------------------------------*\
| =========                 |                                                 |
| \\      /  F ield         | OpenFOAM: The Open Source CFD Toolbox           |
|  \\    /   O peration     | Version:  3.0.1                                 |
|   \\  /    A nd           | Web:      www.OpenFOAM.org                      |
|    \\/     M anipulation  |                                                 |
\*---------------------------------------------------------------------------*/
FoamFile
{
    version     2.0;
    format      ascii;
    class       surfaceScalarField;
    location    "24";
    object      phi;
}
// * * * * * * * * * * * * * * * * * * * * * * * * * * * * * * * * * * * * * //

dimensions      [0 3 -1 0 0 0 0];

internalField   nonuniform List<scalar> 
1540
(
3.452136e-10
1.8737311e-08
4.085103e-10
1.9029076e-08
3.7803832e-10
1.9124037e-08
3.1493168e-10
1.9156511e-08
2.4779547e-10
1.9160413e-08
1.8653172e-10
1.9154574e-08
1.3280651e-10
1.9147148e-08
8.5200452e-11
1.9141151e-08
4.1602194e-11
1.9137236e-08
-4.3325819e-14
1.9135331e-08
-4.168954e-11
1.9135331e-08
-8.5288222e-11
1.9137233e-08
-1.3289495e-10
1.9141147e-08
-1.8662112e-10
1.9147143e-08
-2.4788473e-10
1.9154568e-08
-3.15019e-10
1.9160408e-08
-3.7811961e-10
1.9156505e-08
-4.0858025e-10
1.9124028e-08
-3.4526788e-10
1.9029067e-08
1.8737279e-08
1.9048181e-10
3.7848844e-08
3.1758137e-10
3.8206628e-08
3.2720914e-10
3.842486e-08
2.8848192e-10
3.8506201e-08
2.3465025e-10
3.8524842e-08
1.8010228e-10
3.8519235e-08
1.2958251e-10
3.8507403e-08
8.3553094e-11
3.8496665e-08
4.0895723e-11
3.8489233e-08
-3.2839755e-14
3.8485534e-08
-4.0961856e-11
3.8485533e-08
-8.3619468e-11
3.8489229e-08
-1.296483e-10
3.8496657e-08
-1.8016696e-10
3.8507394e-08
-2.3471268e-10
3.8519225e-08
-2.8854065e-10
3.8524832e-08
-3.272623e-10
3.8506191e-08
-3.1762682e-10
3.8424849e-08
-1.9050878e-10
3.8206612e-08
3.7848807e-08
2.7887623e-10
5.7084156e-08
3.3056772e-10
5.7675639e-08
3.1290122e-10
5.7967326e-08
2.6719327e-10
5.8077583e-08
2.1462079e-10
5.8102431e-08
1.6392584e-10
5.8093972e-08
1.1772339e-10
5.8076816e-08
7.5836874e-11
5.8061172e-08
3.7092935e-11
5.8050232e-08
-3.8479774e-14
5.8044748e-08
-3.7169873e-11
5.8044746e-08
-7.5912892e-11
5.8050227e-08
-1.1779607e-10
5.8061161e-08
-1.6399394e-10
5.8076802e-08
-2.1468225e-10
5.8093956e-08
-2.6724719e-10
5.8102417e-08
-3.1294552e-10
5.8077569e-08
-3.3059953e-10
5.7967311e-08
-2.7889161e-10
5.7675619e-08
5.708412e-08
2.7761604e-10
7.6659204e-08
3.2199992e-10
7.7483912e-08
2.9092125e-10
7.7853285e-08
2.4005085e-10
7.7989487e-08
1.8806683e-10
7.8014595e-08
1.4142926e-10
7.7999448e-08
1.0060088e-10
7.7975304e-08
6.4450221e-11
7.7954125e-08
3.1445816e-11
7.79395e-08
-4.2893417e-14
7.7932241e-08
-3.1531565e-11
7.7932239e-08
-6.4536925e-11
7.7939496e-08
-1.0067738e-10
7.7954106e-08
-1.4149746e-10
7.7975285e-08
-1.8812731e-10
7.7999428e-08
-2.401012e-10
7.8014575e-08
-2.9095799e-10
7.7989465e-08
-3.22022e-10
7.7853262e-08
-2.7761993e-10
7.7483884e-08
7.6659168e-08
2.592358e-10
9.6852908e-08
3.0055731e-10
9.7884215e-08
2.6226809e-10
9.8332438e-08
2.061033e-10
9.8487968e-08
1.5522716e-10
9.8506568e-08
1.1358108e-10
9.8480447e-08
7.9460206e-11
9.8447242e-08
5.0511225e-11
9.8419757e-08
2.4539636e-11
9.8401436e-08
-4.6436267e-14
9.8392447e-08
-2.4629583e-11
9.8392443e-08
-5.0585674e-11
9.8401421e-08
-7.9539339e-11
9.8419747e-08
-1.1365212e-10
9.8447223e-08
-1.5528653e-10
9.8480423e-08
-2.0614618e-10
9.8506538e-08
-2.6229766e-10
9.8487939e-08
-3.0057065e-10
9.8332405e-08
-2.5923268e-10
9.7884176e-08
9.6852866e-08
2.6937696e-10
1.1801338e-07
2.8453571e-10
1.1926285e-07
2.3117241e-10
1.1976801e-07
1.6510644e-10
1.1992797e-07
1.1530513e-10
1.1992861e-07
8.0359092e-11
1.1988543e-07
5.4846494e-11
1.1984089e-07
3.4504045e-11
1.1980681e-07
1.6756014e-11
1.1978499e-07
-4.9635768e-14
1.1977461e-07
-1.6854349e-11
1.1977461e-07
-3.4600116e-11
1.1978498e-07
-5.4930435e-11
1.198068e-07
-8.0429943e-11
1.1984087e-07
-1.1536166e-10
1.198854e-07
-1.6514943e-10
1.1992857e-07
-2.3119759e-10
1.1992793e-07
-2.8454388e-10
1.1976797e-07
-2.693683e-10
1.192628e-07
1.1801333e-07
2.8803659e-10
1.4059152e-07
2.6130718e-10
1.4205296e-07
1.8723401e-10
1.4259944e-07
1.0918362e-10
1.4274632e-07
6.4371146e-11
1.4271114e-07
4.1205628e-11
1.4264362e-07
2.7413175e-11
1.4258739e-07
1.7502365e-11
1.4254769e-07
8.7481341e-12
1.4252359e-07
-5.0950185e-14
1.425127e-07
-8.847694e-12
1.4251269e-07
-1.7598112e-11
1.4252358e-07
-2.749966e-11
1.4254767e-07
-4.1274556e-11
1.4258736e-07
-6.4424966e-11
1.4264359e-07
-1.092208e-10
1.4271109e-07
-1.8725562e-10
1.4274627e-07
-2.6131604e-10
1.4259938e-07
-2.8803565e-10
1.420529e-07
1.4059145e-07
2.8593708e-10
1.6506789e-07
2.1911651e-10
1.6673052e-07
1.1704452e-10
1.6727498e-07
2.8672101e-11
1.6738578e-07
-9.9236965e-13
1.6732681e-07
-3.9354548e-12
1.6722878e-07
-1.1814814e-12
1.6716409e-07
1.0838862e-12
1.6712276e-07
1.5200935e-12
1.6709908e-07
-5.1251264e-14
1.6708947e-07
-1.6220922e-12
1.6708947e-07
-1.174974e-12
1.6709907e-07
1.106289e-12
1.6712274e-07
3.8665668e-12
1.6716407e-07
9.3833786e-13
1.6722874e-07
-2.8711187e-11
1.6732676e-07
-1.1706887e-10
1.6738573e-07
-2.1912605e-10
1.6727491e-07
-2.8594283e-10
1.6673044e-07
1.650678e-07
2.3377732e-10
1.9187056e-07
1.284901e-10
1.9375123e-07
1.0582587e-11
1.942249e-07
-7.1135455e-11
1.9427414e-07
-8.5088856e-11
1.9415943e-07
-5.1572772e-11
1.9407686e-07
-2.7290219e-11
1.9401821e-07
-1.1353305e-11
1.9398256e-07
-2.7458568e-12
1.939643e-07
-5.0187736e-14
1.9395956e-07
2.6514158e-12
1.9395955e-07
1.125817e-11
1.9396429e-07
2.7203742e-11
1.9398254e-07
5.1501088e-11
1.9401818e-07
8.5031588e-11
1.9407682e-07
7.1094042e-11
1.9415938e-07
-1.0608598e-11
1.9427407e-07
-1.2850504e-10
1.9422483e-07
-2.3378656e-10
1.9375116e-07
1.9187047e-07
9.5262589e-11
2.213642e-07
-6.3778363e-11
2.2328241e-07
-1.5524112e-10
2.2369578e-07
-2.0966218e-10
2.2368249e-07
-1.5186899e-10
2.2354514e-07
-8.903274e-11
2.234733e-07
-4.1753181e-11
2.2342614e-07
-1.3952144e-11
2.234061e-07
-1.2825095e-12
2.2339989e-07
-4.9437825e-14
2.2340483e-07
1.1852688e-12
2.2340482e-07
1.3860894e-11
2.2339988e-07
4.1668218e-11
2.2340608e-07
8.8959961e-11
2.234261e-07
1.5180977e-10
2.2347326e-07
2.0961706e-10
2.2354509e-07
1.5520999e-10
2.2368243e-07
6.3759413e-11
2.2369571e-07
-9.5272042e-11
2.2328234e-07
2.2136412e-07
-1.5474293e-10
2.5375224e-07
-3.8310443e-10
2.5546073e-07
-3.9370178e-10
2.5574693e-07
-3.7173645e-10
2.5567461e-07
-2.1872126e-10
2.5556104e-07
-1.1344044e-10
2.5551495e-07
-3.85504e-11
2.5549225e-07
-1.3722877e-12
2.5550328e-07
8.867254e-12
2.5551877e-07
-4.7238616e-14
2.5553945e-07
-8.954476e-12
2.5553944e-07
1.283945e-12
2.5551877e-07
3.8468774e-11
2.5550327e-07
1.1336884e-10
2.5549223e-07
2.1866137e-10
2.5551491e-07
3.7169e-10
2.55561e-07
3.9366898e-10
2.5567457e-07
3.8308379e-10
2.5574687e-07
1.5473441e-10
2.5546067e-07
2.5375218e-07
-6.4554932e-10
2.8919732e-07
-8.5883764e-10
2.904348e-07
-7.105356e-10
2.90454e-07
-5.3947242e-10
2.9040749e-07
-2.9239255e-10
2.903509e-07
-1.251935e-10
2.9035991e-07
-1.857641e-11
2.9038126e-07
3.0954171e-11
2.9043453e-07
2.5244455e-11
2.9048069e-07
-4.3238644e-14
2.9051477e-07
-2.5341394e-11
2.9051477e-07
-3.1035946e-11
2.9048069e-07
1.8500797e-11
2.9043453e-07
1.2512554e-10
2.9038125e-07
2.9233485e-10
2.903599e-07
5.3942677e-10
2.9035088e-07
7.1050343e-10
2.9040746e-07
8.588176e-10
2.9045397e-07
6.455404e-10
2.9043477e-07
2.8919731e-07
-1.4958658e-09
3.2252921e-07
-1.5312299e-09
3.2226188e-07
-1.0083968e-09
3.2222579e-07
-7.1091966e-10
3.2224914e-07
-3.4724174e-10
3.2240958e-07
-1.1714824e-10
3.2253351e-07
2.978369e-12
3.2262295e-07
7.7191336e-11
3.2269755e-07
3.4874605e-11
3.2288322e-07
-3.4305853e-14
3.2290739e-07
-3.4941416e-11
3.229074e-07
-7.725807e-11
3.2288323e-07
-3.0456717e-12
3.2269757e-07
1.1708755e-10
3.2262296e-07
3.4718927e-10
3.2253352e-07
7.10878e-10
3.2240959e-07
1.0083686e-09
3.2224914e-07
1.5312134e-09
3.2222579e-07
1.4958575e-09
3.2226189e-07
3.2252924e-07
-2.4704931e-09
3.5887777e-07
-1.8468716e-09
3.5791944e-07
-1.0902341e-09
3.582391e-07
-7.0045155e-10
3.5858151e-07
-3.1573418e-10
3.5910738e-07
-6.0888704e-11
3.5940237e-07
6.6370456e-11
3.5958295e-07
1.5037088e-10
3.5968057e-07
6.7695338e-11
3.5965665e-07
-2.7757338e-14
3.5966413e-07
-6.7748004e-11
3.5966413e-07
-1.5043335e-10
3.5965668e-07
-6.642377e-11
3.596806e-07
6.0832699e-11
3.5958299e-07
3.1568672e-10
3.5940241e-07
7.004131e-10
3.5910742e-07
1.0902109e-09
3.5858154e-07
1.8468606e-09
3.5823915e-07
2.4704917e-09
3.5791951e-07
3.5887792e-07
1.1779094e-11
3.5280584e-07
-1.3907455e-10
3.5635279e-07
-9.7025484e-11
3.5830931e-07
-3.7147582e-11
3.5939147e-07
5.7750885e-11
3.6035006e-07
1.6758651e-10
3.6085194e-07
1.9844057e-10
3.6121091e-07
1.9124782e-10
3.6139771e-07
9.1317201e-11
3.6147687e-07
-2.7334012e-14
3.6148583e-07
-9.1369695e-11
3.6148584e-07
-1.9130992e-10
3.6147693e-07
-1.9849908e-10
3.6139776e-07
-1.6763989e-10
3.6121099e-07
-5.779528e-11
3.6085202e-07
3.7128827e-11
3.6035014e-07
9.7000552e-11
3.5939159e-07
1.3906553e-10
3.5830942e-07
-1.1765582e-11
3.5635293e-07
3.5280607e-07
1.9884824e-08
3.277299e-07
1.2522411e-08
3.5716172e-07
7.3865336e-09
3.5660216e-07
4.5951164e-09
3.5523458e-07
3.0688645e-09
3.5481068e-07
2.1313917e-09
3.5464601e-07
1.4773664e-09
3.5467159e-07
9.454035e-10
3.5470536e-07
4.6408837e-10
3.547022e-07
-5.4300944e-14
3.5468668e-07
-4.6420162e-10
3.5468671e-07
-9.455099e-10
3.5470226e-07
-1.4774723e-09
3.5470543e-07
-2.1314906e-09
3.5467168e-07
-3.0689535e-09
3.546461e-07
-4.5951992e-09
3.5481077e-07
-7.3865909e-09
3.5523468e-07
-1.2522443e-08
3.5660226e-07
-1.9884802e-08
3.571618e-07
3.2773014e-07
6.0471261e-08
2.6696109e-07
6.2657087e-08
3.5446186e-07
5.0336669e-08
3.6833842e-07
3.7407103e-08
3.6755469e-07
2.6970913e-08
3.6461565e-07
1.8980972e-08
3.6198956e-07
1.2853113e-08
3.6014243e-07
7.979772e-09
3.5891497e-07
3.8090665e-09
3.5820277e-07
-1.524565e-13
3.5782417e-07
-3.8093534e-09
3.5782419e-07
-7.9800842e-09
3.5820282e-07
-1.285339e-08
3.5891501e-07
-1.8981216e-08
3.6014249e-07
-2.6971169e-08
3.6198964e-07
-3.7407348e-08
3.6461574e-07
-5.0336869e-08
3.6755473e-07
-6.2657238e-08
3.6833846e-07
-6.0471412e-08
3.5446195e-07
2.6696126e-07
5.4503213e-08
2.1245647e-07
7.2531837e-08
3.3642852e-07
6.9196779e-08
3.7166724e-07
5.7983243e-08
3.7876156e-07
4.537358e-08
3.7721852e-07
3.3738255e-08
3.7361791e-07
2.3663141e-08
3.7021048e-07
1.4972672e-08
3.6759836e-07
7.2450937e-09
3.6592319e-07
-1.0716256e-13
3.6506217e-07
-7.2452867e-09
3.6506218e-07
-1.497287e-08
3.6592321e-07
-2.3663347e-08
3.6759836e-07
-3.3738453e-08
3.702105e-07
-4.5373716e-08
3.7361792e-07
-5.7983382e-08
3.7721851e-07
-6.9196907e-08
3.7876157e-07
-7.2531963e-08
3.7166724e-07
-5.4503337e-08
3.3642861e-07
2.1245662e-07
3.8719159e-08
1.7373715e-07
6.0750717e-08
3.1439681e-07
6.5154951e-08
3.6726292e-07
5.9620104e-08
3.8429638e-07
4.982918e-08
3.8700946e-07
3.8880789e-08
3.8456632e-07
2.820286e-08
3.8088853e-07
1.8234093e-08
3.7756726e-07
8.9352108e-09
3.7522223e-07
-6.1282249e-14
3.7399758e-07
-8.9353109e-09
3.7399759e-07
-1.823418e-08
3.7522221e-07
-2.8202943e-08
3.7756722e-07
-3.888089e-08
3.8088847e-07
-4.9829231e-08
3.8456629e-07
-5.962019e-08
3.8700944e-07
-6.515503e-08
3.8429636e-07
-6.0750818e-08
3.6726292e-07
-3.8719251e-08
3.1439691e-07
1.7373726e-07
2.4702191e-08
1.4903478e-07
4.474066e-08
2.9435823e-07
5.29419e-08
3.590616e-07
5.2179931e-08
3.850583e-07
4.6175443e-08
3.9301395e-07
3.7640526e-08
3.9310127e-07
2.8196013e-08
3.9033306e-07
1.8637201e-08
3.8712618e-07
9.2504291e-09
3.8460909e-07
-2.3895387e-14
3.8324813e-07
-9.2504699e-09
3.8324811e-07
-1.8637233e-08
3.8460902e-07
-2.8196037e-08
3.8712608e-07
-3.7640545e-08
3.9033298e-07
-4.6175439e-08
3.9310119e-07
-5.2179923e-08
3.9301389e-07
-5.2941918e-08
3.8505825e-07
-4.474071e-08
3.5906159e-07
-2.4702243e-08
2.9435831e-07
1.4903492e-07
1.4861284e-08
1.3417342e-07
3.0709842e-08
2.785096e-07
3.9686841e-08
3.5008457e-07
4.1783545e-08
3.8296156e-07
3.8913499e-08
3.9588401e-07
3.2999344e-08
3.9901547e-07
2.5461828e-08
3.9787065e-07
1.7183204e-08
3.9540486e-07
8.633113e-09
3.9315922e-07
7.5820571e-15
3.9188134e-07
-8.63313e-09
3.918813e-07
-1.7183188e-08
3.9315916e-07
-2.5461812e-08
3.9540476e-07
-3.2999303e-08
3.9787051e-07
-3.8913452e-08
3.9901536e-07
-4.1783511e-08
3.9588393e-07
-3.9686807e-08
3.829615e-07
-3.0709837e-08
3.5008458e-07
-1.4861302e-08
2.7850967e-07
1.3417353e-07
8.7248984e-09
1.2544848e-07
2.0239139e-08
2.6699538e-07
2.8290069e-08
3.4203363e-07
3.1594181e-08
3.7965746e-07
3.0805878e-08
3.9667234e-07
2.7073926e-08
4.0274747e-07
2.145979e-08
4.0348479e-07
1.4758831e-08
4.0210585e-07
7.4978045e-09
4.0042027e-07
1.5089708e-14
3.9937916e-07
-7.4977852e-09
3.993791e-07
-1.4758792e-08
4.0042017e-07
-2.1459732e-08
4.0210572e-07
-2.7073854e-08
4.0348463e-07
-3.0805814e-08
4.0274734e-07
-3.1594112e-08
3.9667225e-07
-2.8290041e-08
3.796574e-07
-2.0239119e-08
3.4203364e-07
-8.7248959e-09
2.6699545e-07
1.2544858e-07
5.1101827e-09
1.2033831e-07
1.3034025e-08
2.5907155e-07
1.9495584e-08
3.3557211e-07
2.2940507e-08
3.7621252e-07
2.3308276e-08
3.9630455e-07
2.1155459e-08
4.0490031e-07
1.7182638e-08
4.0745759e-07
1.2021464e-08
4.0726702e-07
6.1691095e-09
4.0627261e-07
1.4885693e-14
4.055482e-07
-6.1690614e-09
4.0554818e-07
-1.2021412e-08
4.0627252e-07
-1.7182557e-08
4.0726689e-07
-2.1155376e-08
4.0745747e-07
-2.3308192e-08
4.0490019e-07
-2.2940404e-08
3.963045e-07
-1.9495512e-08
3.7621249e-07
-1.3034012e-08
3.3557213e-07
-5.1101626e-09
2.5907163e-07
1.2033841e-07
3.0110633e-09
1.1732727e-07
8.2725974e-09
2.5381004e-07
1.3102537e-08
3.3074221e-07
1.6145041e-08
3.7317003e-07
1.702244e-08
3.9542713e-07
1.5907829e-08
4.0601489e-07
1.3210016e-08
4.1015538e-07
9.3869399e-09
4.1109005e-07
4.8610808e-09
4.1079838e-07
3.1367698e-14
4.1040922e-07
-4.8610261e-09
4.1040919e-07
-9.3868508e-09
4.1079832e-07
-1.320992e-08
4.1108993e-07
-1.5907723e-08
4.1015528e-07
-1.7022326e-08
4.0601483e-07
-1.6144937e-08
3.9542712e-07
-1.3102472e-08
3.7317006e-07
-8.2725596e-09
3.3074225e-07
-3.0110468e-09
2.5381015e-07
1.1732739e-07
1.7833868e-09
1.155439e-07
5.1891985e-09
2.5040432e-07
8.6243174e-09
3.2730711e-07
1.1069216e-08
3.7072517e-07
1.2068386e-08
3.9442798e-07
1.1582887e-08
4.0650038e-07
9.8158405e-09
4.1192238e-07
7.0753204e-09
4.1383051e-07
3.6947055e-09
4.1417895e-07
2.4421711e-14
4.1410385e-07
-3.6946146e-09
4.1410383e-07
-7.0752252e-09
4.1417886e-07
-9.8157397e-09
4.138304e-07
-1.1582772e-08
4.1192231e-07
-1.2068257e-08
4.0650033e-07
-1.1069119e-08
3.9442795e-07
-8.6242381e-09
3.7072517e-07
-5.1891283e-09
3.2730716e-07
-1.7833524e-09
2.5040443e-07
1.1554403e-07
1.0559855e-09
1.1448796e-07
3.215394e-09
2.4824495e-07
5.5680604e-09
3.2495448e-07
7.4119971e-09
3.6888122e-07
8.3326802e-09
3.9350733e-07
8.1969912e-09
4.0663605e-07
7.0785418e-09
4.1304081e-07
5.1702057e-09
4.1573879e-07
2.7208481e-09
4.1662824e-07
2.7625679e-14
4.1682458e-07
-2.720771e-09
4.1682455e-07
-5.1701153e-09
4.1662819e-07
-7.0784325e-09
4.157387e-07
-8.1968712e-09
4.1304075e-07
-8.3325524e-09
4.0663601e-07
-7.4119097e-09
3.9350732e-07
-5.5679716e-09
3.6888126e-07
-3.2153248e-09
3.2495454e-07
-1.0559307e-09
2.4824506e-07
1.1448809e-07
6.1994081e-10
1.1386807e-07
1.9623335e-09
2.4690256e-07
3.52436e-09
3.2339246e-07
4.8508833e-09
3.6755474e-07
5.6115609e-09
3.9274667e-07
5.6495732e-09
4.0659801e-07
4.9661053e-09
4.1372426e-07
3.6727907e-09
4.1703205e-07
1.9469579e-09
4.1835403e-07
1.4799414e-14
4.1877148e-07
-1.9468896e-09
4.1877147e-07
-3.6726943e-09
4.1835397e-07
-4.9660008e-09
4.1703199e-07
-5.6494734e-09
4.1372422e-07
-5.6114717e-09
4.0659798e-07
-4.8508006e-09
3.9274666e-07
-3.5242871e-09
3.6755478e-07
-1.9622812e-09
3.2339258e-07
-6.1989861e-10
2.4690274e-07
1.1386824e-07
3.5699788e-10
1.135111e-07
1.1735434e-09
2.4608604e-07
2.1818898e-09
3.2238412e-07
3.1003945e-09
3.6663623e-07
3.6864198e-09
3.9216066e-07
3.7951914e-09
4.0648921e-07
3.3936357e-09
4.1412581e-07
2.5401644e-09
4.178855e-07
1.3560746e-09
4.195381e-07
1.1549378e-14
4.2012747e-07
-1.3559866e-09
4.2012747e-07
-2.54008e-09
4.1953806e-07
-3.393575e-09
4.1788545e-07
-3.7951344e-09
4.1412576e-07
-3.6863678e-09
4.064892e-07
-3.1003592e-09
3.9216068e-07
-2.181864e-09
3.6663632e-07
-1.173553e-09
3.2238427e-07
-3.5699293e-10
2.4608621e-07
1.1351126e-07
1.9864671e-10
1.133125e-07
6.8219671e-10
2.4560251e-07
1.3153327e-09
3.21751e-07
1.9305534e-09
3.6602103e-07
2.3595546e-09
3.9173165e-07
2.4838947e-09
4.0636492e-07
2.2591405e-09
4.1435053e-07
1.7112065e-09
4.1843344e-07
9.1988751e-10
4.2032942e-07
3.3569827e-14
4.2104735e-07
-9.1984171e-10
4.2104732e-07
-1.7111533e-09
4.2032936e-07
-2.2590946e-09
4.1843337e-07
-2.4838425e-09
4.1435051e-07
-2.3595467e-09
4.0636494e-07
-1.9305266e-09
3.9173168e-07
-1.3153192e-09
3.6602112e-07
-6.8219395e-10
3.2175117e-07
-1.9863412e-10
2.4560269e-07
1.1331264e-07
1.0430809e-10
1.1320819e-07
3.8057351e-10
2.4532624e-07
7.6623963e-10
3.2136535e-07
1.16571e-09
3.656216e-07
1.467348e-09
3.9143003e-07
1.5811037e-09
4.0625119e-07
1.4635497e-09
4.1446811e-07
1.1221832e-09
4.1877481e-07
6.0754403e-10
4.2084405e-07
1.792288e-14
4.2165489e-07
-6.0752861e-10
4.2165488e-07
-1.1221619e-09
4.2084402e-07
-1.4635285e-09
4.1877476e-07
-1.5810831e-09
4.1446808e-07
-1.4673291e-09
4.062512e-07
-1.1656848e-09
3.9143006e-07
-7.6624162e-10
3.6562171e-07
-3.8057438e-10
3.2136554e-07
-1.0429373e-10
2.4532646e-07
1.1320838e-07
4.9214547e-11
1.1315897e-07
1.9914274e-10
2.4517632e-07
4.2578786e-10
3.2113871e-07
6.7718152e-10
3.653702e-07
8.8202893e-10
3.9122524e-07
9.7550015e-10
4.0615776e-07
9.2044878e-10
4.1452318e-07
7.1505557e-10
4.189802e-07
3.9007579e-10
4.2116904e-07
4.4212633e-15
4.22045e-07
-3.9007264e-10
4.2204498e-07
-7.150722e-10
4.21169e-07
-9.2043974e-10
4.1898015e-07
-9.7549255e-10
4.1452316e-07
-8.8201429e-10
4.0615773e-07
-6.7719993e-10
3.9122527e-07
-4.2580197e-10
3.6537034e-07
-1.9915631e-10
3.2113891e-07
-4.9208211e-11
2.4517656e-07
1.1315919e-07
1.80783e-11
1.131409e-07
9.3045948e-11
2.4510134e-07
2.2020126e-10
3.2101158e-07
3.731764e-10
3.6521729e-07
5.0791726e-10
3.9109046e-07
5.7980697e-10
4.0608592e-07
5.594625e-10
4.1454355e-07
4.4119004e-10
4.1909854e-07
2.4273583e-10
4.2136754e-07
-2.251754e-14
4.2228781e-07
-2.4277304e-10
4.2228778e-07
-4.412076e-10
4.2136749e-07
-5.5950251e-10
4.1909845e-07
-5.7983003e-10
4.1454351e-07
-5.0795745e-10
4.0608591e-07
-3.7317662e-10
3.9109054e-07
-2.2024085e-10
3.6521743e-07
-9.307848e-11
3.2101181e-07
-1.8080705e-11
2.4510159e-07
1.131411e-07
1.1797764e-12
1.1313972e-07
3.3488729e-11
2.4506904e-07
1.0032032e-10
3.2094477e-07
1.8973385e-10
3.6512786e-07
2.7575318e-10
3.9100448e-07
3.2849406e-10
4.060332e-07
3.2617045e-10
4.145459e-07
2.6197602e-10
4.1916271e-07
1.4563212e-10
4.214839e-07
-3.3445376e-14
4.2243346e-07
-1.4566167e-10
4.2243344e-07
-2.6203103e-10
4.2148386e-07
-3.2621069e-10
4.1916267e-07
-3.2854236e-10
4.1454588e-07
-2.7578171e-10
4.0603318e-07
-1.8979308e-10
3.9100455e-07
-1.003455e-10
3.6512801e-07
-3.3498824e-11
3.2094499e-07
-1.1933371e-12
2.4506929e-07
1.1313994e-07
-6.429344e-12
1.1314614e-07
2.0150412e-12
2.4506061e-07
3.3686707e-11
3.209131e-07
8.3463061e-11
3.6507813e-07
1.3664495e-10
3.9095134e-07
1.7398283e-10
4.0599586e-07
1.7993809e-10
4.1453999e-07
1.481545e-10
4.1919451e-07
8.3452602e-11
4.215486e-07
-4.5211824e-14
4.2251699e-07
-8.3518935e-11
4.2251697e-07
-1.4822088e-10
4.2154857e-07
-1.7999849e-10
4.1919447e-07
-1.7405324e-10
4.1453994e-07
-1.3671331e-10
4.0599585e-07
-8.3519759e-11
3.9095141e-07
-3.373755e-11
3.6507825e-07
-2.0274199e-12
3.2091332e-07
6.4308172e-12
2.4506087e-07
1.1314638e-07
-8.8015757e-12
1.1315494e-07
-1.2117994e-11
2.450639e-07
-4.5741012e-13
3.2090145e-07
2.5434353e-11
3.6505221e-07
5.7124004e-11
3.9091962e-07
8.2776529e-11
4.0597024e-07
9.1589304e-11
4.1453116e-07
7.8320756e-11
4.1920778e-07
4.4995524e-11
4.2158197e-07
-5.3760508e-14
4.2256205e-07
-4.5085536e-11
4.2256206e-07
-7.8432651e-11
4.2158196e-07
-9.1674663e-11
4.1920777e-07
-8.2848477e-11
4.1453116e-07
-5.7216673e-11
4.0597026e-07
-2.5491041e-11
3.9091969e-07
4.0946345e-13
3.6505235e-07
1.2087774e-11
3.2090166e-07
8.8005123e-12
2.4506417e-07
1.131552e-07
-8.4946366e-12
1.1316344e-07
-1.6325612e-11
2.4507173e-07
-1.5201314e-11
3.2090033e-07
-3.3780865e-12
3.6504039e-07
1.4824021e-11
3.9090144e-07
3.1899131e-11
4.0595317e-07
4.0767901e-11
4.1452231e-07
3.73345e-11
4.192112e-07
2.2152688e-11
4.2159716e-07
-7.020043e-14
4.2258429e-07
-2.2275889e-11
4.2258427e-07
-3.7481299e-11
4.2159714e-07
-4.0872554e-11
4.1921118e-07
-3.1987697e-11
4.1452229e-07
-1.4925599e-11
4.0595317e-07
3.3032983e-12
3.9090151e-07
1.5150495e-11
3.6504052e-07
1.6293851e-11
3.2090056e-07
8.5047234e-12
2.45072e-07
1.131637e-07
-6.8489126e-12
1.131703e-07
-1.4938813e-11
2.4507982e-07
-1.8416597e-11
3.2090378e-07
-1.4543899e-11
3.6503649e-07
-4.9122761e-12
3.908918e-07
6.0708015e-12
4.0594219e-07
1.3621274e-11
4.1451477e-07
1.4779668e-11
4.1921002e-07
9.3859826e-12
4.2160257e-07
-8.7826234e-14
4.2259375e-07
-9.5299284e-12
4.2259374e-07
-1.4923908e-11
4.2160256e-07
-1.375592e-11
4.1921e-07
-6.1855263e-12
4.1451474e-07
4.8037207e-12
4.0594219e-07
1.4482333e-11
3.9089186e-07
1.8381889e-11
3.6503663e-07
1.4952571e-11
3.20904e-07
6.8864134e-12
2.4508012e-07
1.1317059e-07
-4.5700383e-12
1.1317486e-07
-1.057924e-11
2.4508581e-07
-1.5193584e-11
3.2090838e-07
-1.5417478e-11
3.6503672e-07
-1.1156359e-11
3.908875e-07
-4.6829682e-12
4.059357e-07
1.0482714e-12
4.1450907e-07
3.682296e-12
4.1920735e-07
2.9149181e-12
4.2160336e-07
-9.0068799e-14
4.2259672e-07
-3.0750733e-12
4.2259672e-07
-3.8509453e-12
4.2160332e-07
-1.1791594e-12
4.1920733e-07
4.5273206e-12
4.1450903e-07
1.1052672e-11
4.0593569e-07
1.5349638e-11
3.9088756e-07
1.516324e-11
3.6503685e-07
1.0595509e-11
3.209086e-07
4.6035828e-12
2.450861e-07
1.131752e-07
-1.7813942e-12
1.1317665e-07
-4.8285559e-12
2.4508883e-07
-8.8219569e-12
3.2091238e-07
-1.084717e-11
3.6503875e-07
-9.8064906e-12
3.9088647e-07
-6.62522e-12
4.059325e-07
-3.0685476e-12
4.1450549e-07
-5.9254049e-13
4.192049e-07
2.2964155e-13
4.2160252e-07
-1.0138674e-13
4.2259704e-07
-3.948578e-13
4.2259704e-07
3.9992758e-13
4.2160251e-07
2.878826e-12
4.1920487e-07
6.4737958e-12
4.1450548e-07
9.6967522e-12
4.0593248e-07
1.0782063e-11
3.9088651e-07
8.7785533e-12
3.6503883e-07
4.827797e-12
3.2091258e-07
1.8168898e-12
2.4508915e-07
1.1317702e-07
7.4454949e-13
-8.5083445e-14
-2.7824825e-12
-5.0564942e-12
-5.5419653e-12
-4.4702801e-12
-2.699993e-12
-1.2174488e-12
-3.8974325e-13
-1.1146326e-13
1.9071604e-13
1.0037041e-12
2.5164773e-12
4.3092761e-12
5.4404327e-12
4.9723047e-12
2.7679172e-12
9.9067978e-14
-7.1402384e-13
)
;

boundaryField
{
    Wall
    {
        type            calculated;
        value           uniform 0;
    }
    frontAndBack
    {
        type            empty;
        value           nonuniform 0();
    }
    atmosphere
    {
        type            calculated;
        value           nonuniform List<scalar> 
20
(
1.131759e-07
2.4508969e-07
3.209151e-07
3.65041e-07
3.9088698e-07
4.0593144e-07
4.1450378e-07
4.1920338e-07
4.216017e-07
4.2259675e-07
4.2259677e-07
4.2160171e-07
4.1920337e-07
4.1450369e-07
4.0593134e-07
3.9088695e-07
3.6504105e-07
3.2091527e-07
2.4508999e-07
1.131763e-07
)
;
    }
}


// ************************************************************************* //
