/*--------------------------------*- C++ -*----------------------------------*\
| =========                 |                                                 |
| \\      /  F ield         | OpenFOAM: The Open Source CFD Toolbox           |
|  \\    /   O peration     | Version:  3.0.1                                 |
|   \\  /    A nd           | Web:      www.OpenFOAM.org                      |
|    \\/     M anipulation  |                                                 |
\*---------------------------------------------------------------------------*/
FoamFile
{
    version     2.0;
    format      ascii;
    class       volScalarField;
    location    "24";
    object      Psi2;
}
// * * * * * * * * * * * * * * * * * * * * * * * * * * * * * * * * * * * * * //

dimensions      [0 -2 2 0 0 0 0];

internalField   nonuniform List<scalar> 
800
(
0.0010189264
0.0010188587
0.0010188515
0.001018852
0.0010188529
0.0010188536
0.001018854
0.0010188542
0.0010188544
0.0010188544
0.0010188544
0.0010188544
0.0010188542
0.001018854
0.0010188536
0.0010188529
0.001018852
0.0010188514
0.0010188587
0.0010189263
0.0010506391
0.0010492446
0.0010490078
0.0010489842
0.0010489968
0.0010490065
0.0010490096
0.0010490088
0.0010490068
0.0010490055
0.0010490055
0.0010490068
0.0010490088
0.0010490096
0.0010490065
0.0010489968
0.0010489842
0.0010490078
0.0010492446
0.0010506391
0.0010811399
0.0010790388
0.0010784477
0.0010783769
0.0010783859
0.0010783972
0.0010783996
0.0010783963
0.0010783918
0.001078389
0.001078389
0.0010783918
0.0010783963
0.0010783996
0.0010783972
0.001078386
0.0010783769
0.0010784477
0.0010790389
0.0010811399
0.00110771
0.0011050894
0.0011041997
0.0011041029
0.0011041131
0.0011041276
0.00110413
0.001104125
0.0011041185
0.0011041144
0.0011041144
0.0011041185
0.001104125
0.00110413
0.0011041276
0.0011041132
0.0011041029
0.0011041997
0.0011050894
0.00110771
0.0011302976
0.0011272793
0.0011261523
0.0011259184
0.0011259382
0.0011259606
0.0011259658
0.0011259606
0.0011259532
0.0011259483
0.0011259483
0.0011259532
0.0011259606
0.0011259658
0.0011259606
0.0011259382
0.0011259184
0.0011261523
0.0011272792
0.0011302976
0.0011515002
0.0011478019
0.0011464719
0.0011460402
0.0011460795
0.0011461163
0.0011461279
0.0011461249
0.0011461176
0.0011461124
0.0011461124
0.0011461176
0.0011461249
0.0011461279
0.0011461163
0.0011460795
0.0011460402
0.0011464719
0.0011478019
0.0011515002
0.0011759573
0.0011707255
0.0011693282
0.0011687131
0.0011687827
0.0011688407
0.0011688622
0.0011688632
0.0011688567
0.0011688515
0.0011688515
0.0011688567
0.0011688632
0.0011688622
0.0011688408
0.0011687827
0.0011687131
0.0011693282
0.0011707255
0.0011759573
0.0012100106
0.0012021537
0.0012004876
0.0011997339
0.0011998513
0.0011999365
0.0011999692
0.0011999733
0.0011999665
0.0011999606
0.0011999606
0.0011999665
0.0011999734
0.0011999693
0.0011999365
0.0011998514
0.0011997339
0.0012004876
0.0012021537
0.0012100106
0.0012629972
0.0012505072
0.0012483739
0.0012475021
0.0012471304
0.0012472527
0.0012472911
0.0012472915
0.0012472791
0.0012472697
0.0012472697
0.0012472791
0.0012472915
0.0012472912
0.0012472527
0.0012471304
0.0012475022
0.001248374
0.0012505073
0.0012629973
0.0013505544
0.0013289712
0.0013260718
0.0013250294
0.0013239408
0.0013232116
0.0013232288
0.0013232049
0.0013231736
0.0013231538
0.0013231538
0.0013231736
0.0013232049
0.0013232288
0.0013232116
0.0013239409
0.0013250294
0.0013260719
0.0013289713
0.0013505546
0.0014997995
0.001463265
0.0014571142
0.0014556623
0.0014525352
0.0014507354
0.0014506642
0.0014505673
0.0014504883
0.001450443
0.001450443
0.0014504884
0.0014505674
0.0014506644
0.0014507355
0.0014525353
0.0014556624
0.0014571143
0.0014632653
0.0014997999
0.0017567345
0.0016969817
0.0016832205
0.0016807428
0.0016736991
0.0016708682
0.0016705335
0.0016702453
0.0016700445
0.0016699398
0.0016699399
0.0016700446
0.0016702455
0.0016705337
0.0016708685
0.0016736993
0.0016807431
0.0016832209
0.0016969821
0.0017567351
0.0021725082
0.0020829378
0.0020600711
0.0020540651
0.0020437141
0.0020396135
0.0020387157
0.0020380347
0.0020377524
0.0020375313
0.0020375313
0.0020377525
0.0020380349
0.0020387161
0.0020396139
0.0020437146
0.0020540656
0.0020600716
0.0020829384
0.0021725091
0.0028144163
0.0026784167
0.0026375154
0.0026243316
0.0026108529
0.0026053418
0.0026036287
0.002602399
0.0025977604
0.0025973781
0.0025973782
0.0025977606
0.0026023993
0.0026036291
0.0026053424
0.0026108535
0.0026243323
0.0026375162
0.0026784175
0.0028144173
0.0038082706
0.0036058344
0.0035307362
0.0035033901
0.0034857895
0.0034788444
0.0034762917
0.0034746759
0.0034683052
0.0034678706
0.0034678707
0.0034683054
0.0034746763
0.0034762922
0.003478845
0.0034857902
0.0035033909
0.0035307371
0.0036058352
0.0038082713
0.0051936646
0.0048397878
0.004686451
0.0046282827
0.0046037294
0.0045969623
0.0045956858
0.0045954264
0.0045907177
0.0045908498
0.0045908499
0.0045907179
0.0045954268
0.0045956863
0.004596963
0.0046037302
0.0046282836
0.0046864519
0.0048397886
0.0051936645
0.0070674959
0.0063119606
0.0060140233
0.0059015714
0.0058669216
0.0058654504
0.005872493
0.0058791922
0.0058808749
0.0058833046
0.0058833047
0.0058808752
0.0058791929
0.0058724938
0.0058654513
0.0058669227
0.0059015726
0.0060140246
0.0063119614
0.0070674946
0.009067415
0.007833495
0.0073485327
0.0071610802
0.0071088881
0.0071146233
0.00713628
0.0071565047
0.0071690221
0.0071762844
0.0071762847
0.0071690227
0.0071565056
0.0071362811
0.0071146245
0.0071088894
0.0071610817
0.0073485342
0.0078334959
0.0090674134
0.010344979
0.009131915
0.0085405474
0.0082888669
0.0082124877
0.0082174856
0.0082490085
0.0082809668
0.0083034658
0.008315658
0.0083156583
0.0083034666
0.0082809681
0.0082490099
0.008217487
0.0082124892
0.0082888685
0.0085405488
0.0091319158
0.010344979
0.010819136
0.010028802
0.0094754936
0.0092045049
0.0091102169
0.0091068707
0.0091378859
0.0091730573
0.0091995602
0.0092139568
0.0092139573
0.0091995612
0.0091730587
0.0091378874
0.0091068722
0.0091102183
0.0092045062
0.0094754947
0.010028803
0.010819136
0.010936975
0.010540734
0.010121304
0.009879107
0.0097822821
0.0097696619
0.0097928915
0.0098233211
0.0098475629
0.009860943
0.0098609434
0.0098475638
0.0098233224
0.0097928928
0.0097696632
0.0097822832
0.009879108
0.010121305
0.010540734
0.010936975
0.0109598
0.01079047
0.010519952
0.010333387
0.010248291
0.010230392
0.010244203
0.010266335
0.010284975
0.010295465
0.010295466
0.010284976
0.010266336
0.010244204
0.010230393
0.010248292
0.010333388
0.010519953
0.01079047
0.0109598
0.010963595
0.010898286
0.010743972
0.010616142
0.010550125
0.010531766
0.01053813
0.010552219
0.010564843
0.010572103
0.010572103
0.010564844
0.01055222
0.010538131
0.010531767
0.010550125
0.010616142
0.010743972
0.010898286
0.010963595
0.010964168
0.010940717
0.010860585
0.010780768
0.010734404
0.010718774
0.01072061
0.01072865
0.010736407
0.010740976
0.010740976
0.010736408
0.01072865
0.010720611
0.010718775
0.010734404
0.010780769
0.010860585
0.010940717
0.010964168
0.010964248
0.010956272
0.010917614
0.010871383
0.010841339
0.010829619
0.010829298
0.01083346
0.010837868
0.010840536
0.010840536
0.010837868
0.010833461
0.010829298
0.010829619
0.010841339
0.010871383
0.010917614
0.010956272
0.010964248
0.010964259
0.010961664
0.01094409
0.010918931
0.010900718
0.010892722
0.010891694
0.010893651
0.010895996
0.01089746
0.010897461
0.010895996
0.010893652
0.010891694
0.010892722
0.010900718
0.010918931
0.01094409
0.010961664
0.010964259
0.010964261
0.010963448
0.010955846
0.010942864
0.01093243
0.010927367
0.010926332
0.010927158
0.010928334
0.010929097
0.010929097
0.010928334
0.010927158
0.010926332
0.010927367
0.01093243
0.010942864
0.010955846
0.010963448
0.010964261
0.010964261
0.010964015
0.010960865
0.01095447
0.010948781
0.010945766
0.010944969
0.010945269
0.010945828
0.010946207
0.010946207
0.010945828
0.010945269
0.010944969
0.010945766
0.010948781
0.01095447
0.010960865
0.010964015
0.010964261
0.010964261
0.010964189
0.010962932
0.010959911
0.010956941
0.010955238
0.010954704
0.010954786
0.010955038
0.010955218
0.010955218
0.010955038
0.010954786
0.010954704
0.010955238
0.010956941
0.010959911
0.010962932
0.010964189
0.010964261
0.010964261
0.01096424
0.010963756
0.010962381
0.010960892
0.010959973
0.010959647
0.010959651
0.010959758
0.010959841
0.010959841
0.010959758
0.010959651
0.010959647
0.010959973
0.010960892
0.010962381
0.010963756
0.01096424
0.010964261
0.010964261
0.010964255
0.010964074
0.01096347
0.01096275
0.010962275
0.010962088
0.010962073
0.010962116
0.010962152
0.010962152
0.010962116
0.010962073
0.010962088
0.010962275
0.01096275
0.01096347
0.010964074
0.010964255
0.010964261
0.010964261
0.010964259
0.010964194
0.010963937
0.0109636
0.010963363
0.010963262
0.010963247
0.010963263
0.010963279
0.010963279
0.010963263
0.010963247
0.010963262
0.010963363
0.0109636
0.010963937
0.010964194
0.010964259
0.010964261
0.010964261
0.010964261
0.010964237
0.010964131
0.010963979
0.010963865
0.010963813
0.010963802
0.010963808
0.010963814
0.010963814
0.010963808
0.010963802
0.010963813
0.010963865
0.010963979
0.010964131
0.010964237
0.010964261
0.010964261
0.010964261
0.010964261
0.010964253
0.01096421
0.010964143
0.01096409
0.010964065
0.010964058
0.01096406
0.010964062
0.010964062
0.01096406
0.010964058
0.010964065
0.01096409
0.010964143
0.01096421
0.010964253
0.010964261
0.010964261
0.010964261
0.010964261
0.010964258
0.010964242
0.010964213
0.010964189
0.010964177
0.010964173
0.010964174
0.010964174
0.010964174
0.010964174
0.010964173
0.010964177
0.010964189
0.010964213
0.010964242
0.010964258
0.010964261
0.010964261
0.010964261
0.010964261
0.01096426
0.010964254
0.010964242
0.010964231
0.010964226
0.010964224
0.010964224
0.010964224
0.010964224
0.010964224
0.010964224
0.010964226
0.010964231
0.010964242
0.010964254
0.01096426
0.010964261
0.010964261
0.010964261
0.010964261
0.010964261
0.010964258
0.010964254
0.010964249
0.010964247
0.010964246
0.010964246
0.010964246
0.010964246
0.010964246
0.010964246
0.010964247
0.010964249
0.010964254
0.010964258
0.010964261
0.010964261
0.010964261
0.010964261
0.010964261
0.010964261
0.01096426
0.010964258
0.010964256
0.010964255
0.010964255
0.010964255
0.010964255
0.010964255
0.010964255
0.010964255
0.010964255
0.010964256
0.010964258
0.01096426
0.010964261
0.010964261
0.010964261
0.010964261
0.010964261
0.010964261
0.010964261
0.01096426
0.010964259
0.010964259
0.010964259
0.010964258
0.010964258
0.010964258
0.010964258
0.010964259
0.010964259
0.010964259
0.01096426
0.010964261
0.010964261
0.010964261
0.010964261
0.010964261
0.010964261
0.010964261
0.010964261
0.010964261
0.01096426
0.01096426
0.01096426
0.01096426
0.01096426
0.01096426
0.01096426
0.01096426
0.01096426
0.01096426
0.010964261
0.010964261
0.010964261
0.010964261
0.010964261
)
;

boundaryField
{
    Wall
    {
        type            calculated;
        value           nonuniform List<scalar> 
100
(
9.9999997e-21
9.9999997e-21
9.9999997e-21
9.9999997e-21
9.9999997e-21
9.9999997e-21
9.9999997e-21
9.9999997e-21
9.9999997e-21
9.9999997e-21
9.9999997e-21
9.9999998e-21
9.9999998e-21
9.9999999e-21
1e-20
1e-20
1e-20
1e-20
1e-20
1e-20
1e-20
1e-20
1e-20
1e-20
1e-20
1e-20
1e-20
1e-20
1e-20
1e-20
1e-20
1e-20
1e-20
1e-20
1e-20
1e-20
1e-20
1e-20
1e-20
1e-20
9.9999997e-21
9.9999997e-21
9.9999997e-21
9.9999997e-21
9.9999997e-21
9.9999997e-21
9.9999997e-21
9.9999997e-21
9.9999997e-21
9.9999997e-21
9.9999997e-21
9.9999998e-21
9.9999998e-21
9.9999999e-21
1e-20
1e-20
1e-20
1e-20
1e-20
1e-20
1e-20
1e-20
1e-20
1e-20
1e-20
1e-20
1e-20
1e-20
1e-20
1e-20
1e-20
1e-20
1e-20
1e-20
1e-20
1e-20
1e-20
1e-20
1e-20
1e-20
9.9999997e-21
9.9999997e-21
9.9999997e-21
9.9999997e-21
9.9999997e-21
9.9999997e-21
9.9999997e-21
9.9999997e-21
9.9999997e-21
9.9999997e-21
9.9999997e-21
9.9999997e-21
9.9999997e-21
9.9999997e-21
9.9999997e-21
9.9999997e-21
9.9999997e-21
9.9999997e-21
9.9999997e-21
9.9999997e-21
)
;
    }
    frontAndBack
    {
        type            empty;
    }
    atmosphere
    {
        type            calculated;
        value           uniform 1e-20;
    }
}


// ************************************************************************* //
