/*--------------------------------*- C++ -*----------------------------------*\
| =========                 |                                                 |
| \\      /  F ield         | OpenFOAM: The Open Source CFD Toolbox           |
|  \\    /   O peration     | Version:  3.0.1                                 |
|   \\  /    A nd           | Web:      www.OpenFOAM.org                      |
|    \\/     M anipulation  |                                                 |
\*---------------------------------------------------------------------------*/
FoamFile
{
    version     2.0;
    format      ascii;
    class       volScalarField;
    location    "24";
    object      rho;
}
// * * * * * * * * * * * * * * * * * * * * * * * * * * * * * * * * * * * * * //

dimensions      [1 -3 0 0 0 0 0];

internalField   nonuniform List<scalar> 
800
(
101.89264
101.88588
101.88515
101.8852
101.8853
101.88536
101.8854
101.88543
101.88544
101.88545
101.88545
101.88544
101.88543
101.8854
101.88536
101.8853
101.8852
101.88515
101.88588
101.89264
105.06391
104.92447
104.90078
104.89843
104.89968
104.90066
104.90097
104.90088
104.90068
104.90055
104.90055
104.90069
104.90088
104.90097
104.90066
104.89968
104.89843
104.90078
104.92447
105.06391
108.11393
107.90383
107.84472
107.83764
107.83854
107.83967
107.8399
107.83957
107.83913
107.83884
107.83884
107.83913
107.83958
107.8399
107.83967
107.83854
107.83764
107.84472
107.90383
108.11393
110.7707
110.50866
110.4197
110.41002
110.41105
110.41249
110.41273
110.41223
110.41158
110.41117
110.41117
110.41158
110.41223
110.41274
110.41249
110.41105
110.41002
110.4197
110.50866
110.77071
113.02893
112.72717
112.61449
112.5911
112.59307
112.59532
112.59583
112.59531
112.59457
112.59408
112.59408
112.59457
112.59532
112.59583
112.59532
112.59307
112.5911
112.61449
112.72717
113.02893
115.14823
114.77857
114.64561
114.60244
114.60636
114.61004
114.61119
114.61089
114.61016
114.60965
114.60965
114.61017
114.61089
114.61119
114.61004
114.60636
114.60244
114.64561
114.77857
115.14824
117.59242
117.06956
116.92991
116.86839
116.87535
116.88115
116.88329
116.88338
116.88273
116.88221
116.88221
116.88274
116.88338
116.88329
116.88115
116.87535
116.86839
116.92991
117.06956
117.59243
120.99545
120.21035
120.04386
119.96849
119.98022
119.98872
119.99199
119.9924
119.99172
119.99112
119.99112
119.99172
119.9924
119.99199
119.98872
119.98022
119.96849
120.04386
120.21035
120.99545
126.29051
125.04261
124.82947
124.7423
124.7051
124.71732
124.72115
124.72119
124.71995
124.719
124.719
124.71995
124.72119
124.72116
124.71732
124.70511
124.7423
124.82948
125.04261
126.29052
135.0397
132.88366
132.59407
132.48986
132.38099
132.30805
132.30976
132.30737
132.30424
132.30226
132.30226
132.30425
132.30738
132.30977
132.30806
132.381
132.48987
132.59408
132.88367
135.03972
149.94716
146.30009
145.6861
145.5411
145.22846
145.04853
145.04142
145.03174
145.02385
145.01932
145.01932
145.02385
145.03175
145.04144
145.04854
145.22848
145.54111
145.68612
146.30011
149.94719
175.55723
169.61397
168.24469
167.9987
167.29545
167.0129
166.97967
166.95099
166.93095
166.92052
166.92053
166.93096
166.95101
166.97969
167.01292
167.29548
167.99873
168.24473
169.61401
175.55729
216.13256
207.60357
205.41329
204.84383
203.82674
203.42547
203.33997
203.27432
203.24743
203.22589
203.22589
203.24744
203.27434
203.34001
203.42551
203.82678
204.84388
205.41335
207.60364
216.13265
244.14718
246.56269
246.24341
246.18664
245.56476
245.3761
245.3911
245.37093
245.00796
244.992
244.99201
245.00799
245.37099
245.39118
245.37619
245.56488
246.18677
246.24356
246.56288
244.14749
96.612165
124.32934
133.4012
137.14674
139.2089
140.37732
141.06608
141.42624
141.5104
141.57656
141.57658
141.51047
141.42635
141.06624
140.37754
139.20917
137.14705
133.40153
124.32973
96.612551
8.4781909
13.349033
15.336032
16.167252
16.679899
16.973878
17.146798
17.240929
17.30663
17.324739
17.324743
17.306645
17.240951
17.146834
16.973924
16.679956
16.167316
15.336098
13.349103
8.4782432
1.2661436
1.3709648
1.4241905
1.4436812
1.4553428
1.4621339
1.4662713
1.4685816
1.4707133
1.4711471
1.4711472
1.4707137
1.4685822
1.4662722
1.4621351
1.4553442
1.4436828
1.4241921
1.3709663
1.2661444
1.2000324
1.2002126
1.2003515
1.2003975
1.2004184
1.2004285
1.2004342
1.2004372
1.2004413
1.2004416
1.2004416
1.2004413
1.2004372
1.2004342
1.2004285
1.2004184
1.2003975
1.2003515
1.2002126
1.2000324
1.2000004
1.2000004
1.2000004
1.2000003
1.2000004
1.2000004
1.2000004
1.2000004
1.2000004
1.2000004
1.2000004
1.2000004
1.2000004
1.2000004
1.2000004
1.2000004
1.2000003
1.2000004
1.2000004
1.2000004
1.2000001
1.2000004
1.2000005
1.2000005
1.2000005
1.2000006
1.2000006
1.2000006
1.2000006
1.2000006
1.2000006
1.2000006
1.2000006
1.2000006
1.2000006
1.2000005
1.2000005
1.2000005
1.2000004
1.2000001
1.2
1.2000003
1.2000004
1.2000005
1.2000006
1.2000006
1.2000006
1.2000006
1.2000006
1.2000006
1.2000006
1.2000006
1.2000006
1.2000006
1.2000006
1.2000006
1.2000005
1.2000004
1.2000003
1.2
1.2
1.2000001
1.2000003
1.2000004
1.2000005
1.2000006
1.2000006
1.2000006
1.2000006
1.2000006
1.2000006
1.2000006
1.2000006
1.2000006
1.2000006
1.2000005
1.2000004
1.2000003
1.2000001
1.2
1.2
1.2000001
1.2000002
1.2000004
1.2000004
1.2000005
1.2000005
1.2000005
1.2000005
1.2000005
1.2000005
1.2000005
1.2000005
1.2000005
1.2000005
1.2000004
1.2000004
1.2000002
1.2000001
1.2
1.2
1.2
1.2000002
1.2000003
1.2000003
1.2000004
1.2000004
1.2000004
1.2000004
1.2000004
1.2000004
1.2000004
1.2000004
1.2000004
1.2000004
1.2000003
1.2000003
1.2000002
1.2
1.2
1.2
1.2
1.2000001
1.2000002
1.2000003
1.2000003
1.2000003
1.2000003
1.2000003
1.2000003
1.2000003
1.2000003
1.2000003
1.2000003
1.2000003
1.2000003
1.2000002
1.2000001
1.2
1.2
1.2
1.2
1.2000001
1.2000001
1.2000002
1.2000002
1.2000002
1.2000002
1.2000002
1.2000002
1.2000002
1.2000002
1.2000002
1.2000002
1.2000002
1.2000002
1.2000001
1.2000001
1.2
1.2
1.2
1.2
1.2
1.2000001
1.2000001
1.2000001
1.2000001
1.2000001
1.2000001
1.2000001
1.2000001
1.2000001
1.2000001
1.2000001
1.2000001
1.2000001
1.2000001
1.2
1.2
1.2
1.2
1.2
1.2
1.2
1.2000001
1.2000001
1.2000001
1.2000001
1.2000001
1.2000001
1.2000001
1.2000001
1.2000001
1.2000001
1.2000001
1.2000001
1.2
1.2
1.2
1.2
1.2
1.2
1.2
1.2
1.2
1.2
1.2000001
1.2000001
1.2000001
1.2000001
1.2000001
1.2000001
1.2000001
1.2000001
1.2
1.2
1.2
1.2
1.2
1.2
1.2
1.2
1.2
1.2
1.2
1.2
1.2
1.2
1.2
1.2
1.2
1.2
1.2
1.2
1.2
1.2
1.2
1.2
1.2
1.2
1.2
1.2
1.2
1.2
1.2
1.2
1.2
1.2
1.2
1.2
1.2
1.2
1.2
1.2
1.2
1.2
1.2
1.2
1.2
1.2
1.2
1.2
1.2
1.2
1.2
1.2
1.2
1.2
1.2
1.2
1.2
1.2
1.2
1.2
1.2
1.2
1.2
1.2
1.2
1.2
1.2
1.2
1.2
1.2
1.2
1.2
1.2
1.2
1.2
1.2
1.2
1.2
1.2
1.2
1.2
1.2
1.2
1.2
1.2
1.2
1.2
1.2
1.2
1.2
1.2
1.2
1.2
1.2
1.2
1.2
1.2
1.2
1.2
1.2
1.2
1.2
1.2
1.2
1.2
1.2
1.2
1.2
1.2
1.2
1.2
1.2
1.2
1.2
1.2
1.2
1.2
1.2
1.2
1.2
1.2
1.2
1.2
1.2
1.2
1.2
1.2
1.2
1.2
1.2
1.2
1.2
1.2
1.2
1.2
1.2
1.2
1.2
1.2
1.2
1.2
1.2
1.2
1.2
1.2
1.2
1.2
1.2
1.2
1.2
1.2
1.2
1.2
1.2
1.2
1.2
1.2
1.2
1.2
1.2
1.2
1.2
1.2
1.2
1.2
1.2
1.2
1.2
1.2
1.2
1.2
1.2
1.2
1.2
1.2
1.2
1.2
1.2
1.2
1.2
1.2
1.2
1.2
1.2
1.2
1.2
1.2
1.2
1.2
1.2
1.2
1.2
1.2
1.2
1.2
1.2
1.2
1.2
1.2
1.2
1.2
1.2
1.2
1.2
1.2
1.2
1.2
1.2
1.2
1.2
1.2
1.2
1.2
1.2
1.2
1.2
1.2
1.2
1.2
1.2
1.2
1.2
1.2
1.2
1.2
1.2
)
;

boundaryField
{
    Wall
    {
        type            calculated;
        value           nonuniform List<scalar> 
100
(
1e-15
2.8408202e-12
7.270273e-07
3.3121926e-06
8.9685852e-06
1.8857626e-05
3.4119662e-05
5.6223793e-05
8.8326007e-05
0.00014114943
0.00026455713
0.00079933204
0.0062111022
0.15969557
0.89840244
1.1831447
1.1998875
1.2
1.2
1.2
1.2
1.2
1.2
1.2
1.2
1.2
1.2
1.2
1.2
1.2
1.2
1.2
1.2
1.2
1.2
1.2
1.2
1.2
1.2
1.2
1e-15
1.3377407e-14
7.2702725e-07
3.3121964e-06
8.9685922e-06
1.8857635e-05
3.4119672e-05
5.6223804e-05
8.8326013e-05
0.00014114941
0.00026455697
0.00079933055
0.006211072
0.15969459
0.89840127
1.1831446
1.1998875
1.2
1.2
1.2
1.2
1.2
1.2
1.2
1.2
1.2
1.2
1.2
1.2
1.2
1.2
1.2
1.2
1.2
1.2
1.2
1.2
1.2
1.2
1.2
1e-15
1e-15
1.0000005e-15
1.000001e-15
1e-15
1.0000013e-15
1.0000011e-15
1.0000001e-15
1e-15
1e-15
1e-15
1e-15
1e-15
1.0000001e-15
1.0000001e-15
1e-15
1e-15
1e-15
1e-15
1e-15
)
;
    }
    frontAndBack
    {
        type            empty;
    }
    atmosphere
    {
        type            calculated;
        value           nonuniform List<scalar> 
20
(
1.2
1.2
1.2
1.2
1.2
1.2
1.2
1.2
1.2
1.2
1.2
1.2
1.2
1.2
1.2
1.2
1.2
1.2
1.2
1.2
)
;
    }
}


// ************************************************************************* //
