/*--------------------------------*- C++ -*----------------------------------*\
| =========                 |                                                 |
| \\      /  F ield         | OpenFOAM: The Open Source CFD Toolbox           |
|  \\    /   O peration     | Version:  3.0.1                                 |
|   \\  /    A nd           | Web:      www.OpenFOAM.org                      |
|    \\/     M anipulation  |                                                 |
\*---------------------------------------------------------------------------*/
FoamFile
{
    version     2.0;
    format      ascii;
    class       volScalarField;
    location    "24";
    object      rho_foam;
}
// * * * * * * * * * * * * * * * * * * * * * * * * * * * * * * * * * * * * * //

dimensions      [1 -3 0 0 0 0 0];

internalField   nonuniform List<scalar> 
800
(
101.89264
101.88588
101.88515
101.8852
101.8853
101.88536
101.8854
101.88543
101.88544
101.88545
101.88545
101.88544
101.88543
101.8854
101.88536
101.8853
101.8852
101.88515
101.88588
101.89264
105.06391
104.92447
104.90078
104.89843
104.89968
104.90066
104.90097
104.90088
104.90069
104.90055
104.90055
104.90069
104.90088
104.90097
104.90066
104.89968
104.89843
104.90078
104.92447
105.06391
108.11399
107.90389
107.84478
107.83769
107.8386
107.83973
107.83996
107.83963
107.83919
107.8389
107.8389
107.83919
107.83963
107.83996
107.83973
107.8386
107.83769
107.84478
107.90389
108.114
110.771
110.50894
110.41997
110.41029
110.41132
110.41276
110.41301
110.4125
110.41186
110.41144
110.41144
110.41186
110.4125
110.41301
110.41276
110.41132
110.41029
110.41998
110.50894
110.77101
113.02976
112.72793
112.61524
112.59184
112.59382
112.59606
112.59658
112.59606
112.59532
112.59483
112.59483
112.59532
112.59607
112.59658
112.59607
112.59382
112.59184
112.61524
112.72793
113.02976
115.15003
114.7802
114.6472
114.60403
114.60795
114.61163
114.61279
114.61249
114.61177
114.61125
114.61125
114.61177
114.61249
114.61279
114.61164
114.60795
114.60403
114.6472
114.7802
115.15003
117.59573
117.07255
116.93283
116.87131
116.87827
116.88408
116.88622
116.88632
116.88567
116.88515
116.88515
116.88568
116.88632
116.88623
116.88408
116.87827
116.87131
116.93283
117.07255
117.59574
121.00106
120.21537
120.04877
119.9734
119.98514
119.99365
119.99693
119.99734
119.99666
119.99606
119.99606
119.99666
119.99734
119.99693
119.99365
119.98514
119.9734
120.04877
120.21537
121.00107
126.29972
125.05072
124.8374
124.75022
124.71304
124.72527
124.72912
124.72915
124.72791
124.72697
124.72697
124.72792
124.72916
124.72912
124.72528
124.71305
124.75022
124.8374
125.05073
126.29973
135.05544
132.89713
132.60718
132.50294
132.39409
132.32116
132.32288
132.32049
132.31736
132.31538
132.31538
132.31736
132.3205
132.32289
132.32117
132.3941
132.50295
132.60719
132.89714
135.05546
149.97996
146.32651
145.71142
145.56623
145.25352
145.07354
145.06643
145.05673
145.04883
145.0443
145.0443
145.04884
145.05674
145.06644
145.07356
145.25354
145.56625
145.71144
146.32653
149.97999
175.67345
169.69818
168.32206
168.07428
167.36991
167.08683
167.05336
167.02454
167.00445
166.99399
166.99399
167.00446
167.02456
167.05338
167.08685
167.36994
168.07431
168.32209
169.69822
175.67351
217.25082
208.29378
206.00711
205.40652
204.37141
203.96135
203.87158
203.80347
203.77524
203.75313
203.75313
203.77526
203.8035
203.87161
203.96139
204.37146
205.40657
206.00717
208.29385
217.25091
281.44163
267.84168
263.75154
262.43316
261.08529
260.53419
260.36287
260.2399
259.77604
259.73781
259.73782
259.77606
260.23993
260.36291
260.53424
261.08536
262.43323
263.75162
267.84176
281.44173
380.82707
360.58344
353.07362
350.33901
348.57895
347.88444
347.62917
347.46759
346.83052
346.78706
346.78707
346.83054
347.46763
347.62922
347.8845
348.57902
350.33909
353.07371
360.58352
380.82713
519.36646
483.97878
468.6451
462.82827
460.37294
459.69623
459.56858
459.54264
459.07177
459.08498
459.085
459.07179
459.54268
459.56863
459.6963
460.37302
462.82836
468.64519
483.97886
519.36645
706.74959
631.19606
601.40233
590.15714
586.69216
586.54504
587.24931
587.91922
588.08749
588.33046
588.33047
588.08752
587.91929
587.24938
586.54513
586.69227
590.15726
601.40246
631.19614
706.74946
906.7415
783.3495
734.85327
716.10802
710.88881
711.46233
713.628
715.65047
716.90221
717.62844
717.62847
716.90227
715.65056
713.62811
711.46245
710.88894
716.10817
734.85342
783.34959
906.74134
1034.4979
913.19151
854.05474
828.88669
821.24877
821.74856
824.90085
828.09668
830.34658
831.5658
831.56584
830.34667
828.09681
824.90099
821.7487
821.24892
828.88685
854.05488
913.19158
1034.4979
1081.9136
1002.8802
947.54936
920.45049
911.02169
910.68707
913.78859
917.30573
919.95602
921.39568
921.39573
919.95612
917.30587
913.78874
910.68722
911.02183
920.45062
947.54947
1002.8803
1081.9136
1093.6975
1054.0734
1012.1304
987.9107
978.22821
976.96619
979.28915
982.33211
984.75629
986.0943
986.09434
984.75638
982.33225
979.28929
976.96632
978.22832
987.9108
1012.1305
1054.0734
1093.6975
1095.98
1079.047
1051.9952
1033.3387
1024.8291
1023.0392
1024.4203
1026.6335
1028.4975
1029.5465
1029.5466
1028.4976
1026.6336
1024.4204
1023.0393
1024.8292
1033.3388
1051.9953
1079.047
1095.98
1096.3595
1089.8286
1074.3972
1061.6142
1055.0125
1053.1766
1053.813
1055.2219
1056.4843
1057.2103
1057.2103
1056.4844
1055.222
1053.8131
1053.1767
1055.0125
1061.6142
1074.3972
1089.8286
1096.3595
1096.4168
1094.0717
1086.0585
1078.0768
1073.4404
1071.8774
1072.061
1072.865
1073.6407
1074.0976
1074.0976
1073.6408
1072.865
1072.0611
1071.8775
1073.4404
1078.0769
1086.0585
1094.0717
1096.4168
1096.4248
1095.6272
1091.7614
1087.1383
1084.1339
1082.9619
1082.9298
1083.346
1083.7868
1084.0536
1084.0536
1083.7868
1083.3461
1082.9298
1082.9619
1084.1339
1087.1383
1091.7614
1095.6272
1096.4248
1096.4259
1096.1664
1094.409
1091.8931
1090.0718
1089.2722
1089.1694
1089.3651
1089.5996
1089.746
1089.7461
1089.5996
1089.3652
1089.1694
1089.2722
1090.0718
1091.8931
1094.409
1096.1664
1096.4259
1096.4261
1096.3448
1095.5846
1094.2864
1093.243
1092.7367
1092.6332
1092.7158
1092.8334
1092.9097
1092.9097
1092.8334
1092.7158
1092.6332
1092.7367
1093.243
1094.2864
1095.5846
1096.3448
1096.4261
1096.4261
1096.4015
1096.0865
1095.447
1094.8781
1094.5766
1094.4969
1094.5269
1094.5828
1094.6207
1094.6207
1094.5828
1094.5269
1094.4969
1094.5766
1094.8781
1095.447
1096.0865
1096.4015
1096.4261
1096.4261
1096.4189
1096.2932
1095.9911
1095.6941
1095.5238
1095.4704
1095.4786
1095.5038
1095.5218
1095.5218
1095.5038
1095.4786
1095.4704
1095.5238
1095.6941
1095.9911
1096.2932
1096.4189
1096.4261
1096.4261
1096.424
1096.3756
1096.2381
1096.0892
1095.9973
1095.9647
1095.9651
1095.9758
1095.9841
1095.9841
1095.9758
1095.9651
1095.9647
1095.9973
1096.0892
1096.2381
1096.3756
1096.424
1096.4261
1096.4261
1096.4255
1096.4074
1096.347
1096.275
1096.2275
1096.2088
1096.2073
1096.2116
1096.2152
1096.2152
1096.2116
1096.2073
1096.2088
1096.2275
1096.275
1096.347
1096.4074
1096.4255
1096.4261
1096.4261
1096.4259
1096.4194
1096.3937
1096.36
1096.3363
1096.3262
1096.3247
1096.3263
1096.3279
1096.3279
1096.3263
1096.3247
1096.3262
1096.3363
1096.36
1096.3937
1096.4194
1096.4259
1096.4261
1096.4261
1096.4261
1096.4237
1096.4131
1096.3979
1096.3865
1096.3813
1096.3802
1096.3808
1096.3814
1096.3814
1096.3808
1096.3802
1096.3813
1096.3865
1096.3979
1096.4131
1096.4237
1096.4261
1096.4261
1096.4261
1096.4261
1096.4253
1096.421
1096.4143
1096.409
1096.4065
1096.4058
1096.406
1096.4062
1096.4062
1096.406
1096.4058
1096.4065
1096.409
1096.4143
1096.421
1096.4253
1096.4261
1096.4261
1096.4261
1096.4261
1096.4258
1096.4242
1096.4213
1096.4189
1096.4177
1096.4173
1096.4174
1096.4174
1096.4174
1096.4174
1096.4173
1096.4177
1096.4189
1096.4213
1096.4242
1096.4258
1096.4261
1096.4261
1096.4261
1096.4261
1096.426
1096.4254
1096.4242
1096.4231
1096.4226
1096.4224
1096.4224
1096.4224
1096.4224
1096.4224
1096.4224
1096.4226
1096.4231
1096.4242
1096.4254
1096.426
1096.4261
1096.4261
1096.4261
1096.4261
1096.4261
1096.4258
1096.4254
1096.4249
1096.4247
1096.4246
1096.4246
1096.4246
1096.4246
1096.4246
1096.4246
1096.4247
1096.4249
1096.4254
1096.4258
1096.4261
1096.4261
1096.4261
1096.4261
1096.4261
1096.4261
1096.426
1096.4258
1096.4256
1096.4255
1096.4255
1096.4255
1096.4255
1096.4255
1096.4255
1096.4255
1096.4255
1096.4256
1096.4258
1096.426
1096.4261
1096.4261
1096.4261
1096.4261
1096.4261
1096.4261
1096.4261
1096.426
1096.4259
1096.4259
1096.4259
1096.4258
1096.4258
1096.4258
1096.4258
1096.4259
1096.4259
1096.4259
1096.426
1096.4261
1096.4261
1096.4261
1096.4261
1096.4261
1096.4261
1096.4261
1096.4261
1096.4261
1096.426
1096.426
1096.426
1096.426
1096.426
1096.426
1096.426
1096.426
1096.426
1096.426
1096.4261
1096.4261
1096.4261
1096.4261
1096.4261
)
;

boundaryField
{
    Wall
    {
        type            zeroGradient;
    }
    frontAndBack
    {
        type            empty;
    }
    atmosphere
    {
        type            zeroGradient;
    }
}


// ************************************************************************* //
