/*--------------------------------*- C++ -*----------------------------------*\
| =========                 |                                                 |
| \\      /  F ield         | OpenFOAM: The Open Source CFD Toolbox           |
|  \\    /   O peration     | Version:  3.0.1                                 |
|   \\  /    A nd           | Web:      www.OpenFOAM.org                      |
|    \\/     M anipulation  |                                                 |
\*---------------------------------------------------------------------------*/
FoamFile
{
    version     2.0;
    format      ascii;
    class       volScalarField;
    location    "24";
    object      thermalConductivity;
}
// * * * * * * * * * * * * * * * * * * * * * * * * * * * * * * * * * * * * * //

dimensions      [0 2 -1 0 0 0 0];

internalField   nonuniform List<scalar> 
800
(
0.021169481
0.02116879
0.021168716
0.021168722
0.021168731
0.021168738
0.021168742
0.021168745
0.021168746
0.021168747
0.021168747
0.021168746
0.021168745
0.021168742
0.021168738
0.021168731
0.021168721
0.021168716
0.02116879
0.021169481
0.021498089
0.021483645
0.0214812
0.021480959
0.021481089
0.021481189
0.021481219
0.021481209
0.021481188
0.021481174
0.021481174
0.021481188
0.021481209
0.021481219
0.021481189
0.021481089
0.021480959
0.0214812
0.021483645
0.021498089
0.021815661
0.021793809
0.021787659
0.021786928
0.021787021
0.021787136
0.021787158
0.021787122
0.021787074
0.021787043
0.021787043
0.021787074
0.021787122
0.021787158
0.021787136
0.021787021
0.021786928
0.02178766
0.021793809
0.021815661
0.022093781
0.022066396
0.022057096
0.022056093
0.0220562
0.022056348
0.022056371
0.022056315
0.022056246
0.022056202
0.022056202
0.022056246
0.022056315
0.022056371
0.022056349
0.0220562
0.022056093
0.022057096
0.022066396
0.022093782
0.022331974
0.022300258
0.022288429
0.022285958
0.022286166
0.022286399
0.022286449
0.022286391
0.022286311
0.022286259
0.022286259
0.022286311
0.022286392
0.022286449
0.022286399
0.022286166
0.022285958
0.022288429
0.022300258
0.022331974
0.022558038
0.022518854
0.022504836
0.022500244
0.022500659
0.022501043
0.022501161
0.022501125
0.022501046
0.02250099
0.02250099
0.022501046
0.022501125
0.022501161
0.022501043
0.022500659
0.022500244
0.022504836
0.022518854
0.022558038
0.022822049
0.022766056
0.022751273
0.022744705
0.022745443
0.022746053
0.022746274
0.022746279
0.022746207
0.02274615
0.02274615
0.022746207
0.022746279
0.022746274
0.022746053
0.022745443
0.022744705
0.022751272
0.022766056
0.022822049
0.023193533
0.023108647
0.023090793
0.023082707
0.023083959
0.023084857
0.023085195
0.023085231
0.023085152
0.023085085
0.023085085
0.023085152
0.023085231
0.023085196
0.023084857
0.023083959
0.023082707
0.023090793
0.023108647
0.023193534
0.023777573
0.023640998
0.023617773
0.023608329
0.023604143
0.023605439
0.023605831
0.023605819
0.023605674
0.023605567
0.023605567
0.023605674
0.023605819
0.023605832
0.02360544
0.023604143
0.023608329
0.023617774
0.023640999
0.023777574
0.024756479
0.024516256
0.024483989
0.024472478
0.024460269
0.024451967
0.024452107
0.02445181
0.024451445
0.024451218
0.024451218
0.024451446
0.024451811
0.024452108
0.024451968
0.02446027
0.024472479
0.02448399
0.024516257
0.024756482
0.0264624
0.026045353
0.025974635
0.025958049
0.025922254
0.025901679
0.02590077
0.025899606
0.025898673
0.025898144
0.025898144
0.025898674
0.025899608
0.025900771
0.02590168
0.025922256
0.025958051
0.025974637
0.026045356
0.026462404
0.029498157
0.028790151
0.02862687
0.028597078
0.028514322
0.028480985
0.028476832
0.028473315
0.028470882
0.028469623
0.028469624
0.028470883
0.028473317
0.028476835
0.028480988
0.028514326
0.028597081
0.028626874
0.028790156
0.029498164
0.034632233
0.033507978
0.033222618
0.033145293
0.033018673
0.032967972
0.032956509
0.032947892
0.032943138
0.03294038
0.032940381
0.03294314
0.032947895
0.032956513
0.032967976
0.033018679
0.033145299
0.033222625
0.033507986
0.034632244
0.043211556
0.04133967
0.040778506
0.040595872
0.040417979
0.040344719
0.040321444
0.040304847
0.040238745
0.040233627
0.040233628
0.040238748
0.040304851
0.04032145
0.040344726
0.040417988
0.040595881
0.040778516
0.041339681
0.043211569
0.024
0.024
0.024
0.024
0.024
0.024
0.024
0.024
0.024
0.024
0.024
0.024
0.024
0.024
0.024
0.024
0.024
0.024
0.024
0.024
0.024
0.024
0.024
0.024
0.024
0.024
0.024
0.024
0.024
0.024
0.024
0.024
0.024
0.024
0.024
0.024
0.024
0.024
0.024
0.024
0.024
0.024
0.024
0.024
0.024
0.024
0.024
0.024
0.024
0.024
0.024
0.024
0.024
0.024
0.024
0.024
0.024
0.024
0.024
0.024
0.024
0.024
0.024
0.024
0.024
0.024
0.024
0.024
0.024
0.024
0.024
0.024
0.024
0.024
0.024
0.024
0.024
0.024
0.024
0.024
0.024
0.024
0.024
0.024
0.024
0.024
0.024
0.024
0.024
0.024
0.024
0.024
0.024
0.024
0.024
0.024
0.024
0.024
0.024
0.024
0.024
0.024
0.024
0.024
0.024
0.024
0.024
0.024
0.024
0.024
0.024
0.024
0.024
0.024
0.024
0.024
0.024
0.024
0.024
0.024
0.024
0.024
0.024
0.024
0.024
0.024
0.024
0.024
0.024
0.024
0.024
0.024
0.024
0.024
0.024
0.024
0.024
0.024
0.024
0.024
0.024
0.024
0.024
0.024
0.024
0.024
0.024
0.024
0.024
0.024
0.024
0.024
0.024
0.024
0.024
0.024
0.024
0.024
0.024
0.024
0.024
0.024
0.024
0.024
0.024
0.024
0.024
0.024
0.024
0.024
0.024
0.024
0.024
0.024
0.024
0.024
0.024
0.024
0.024
0.024
0.024
0.024
0.024
0.024
0.024
0.024
0.024
0.024
0.024
0.024
0.024
0.024
0.024
0.024
0.024
0.024
0.024
0.024
0.024
0.024
0.024
0.024
0.024
0.024
0.024
0.024
0.024
0.024
0.024
0.024
0.024
0.024
0.024
0.024
0.024
0.024
0.024
0.024
0.024
0.024
0.024
0.024
0.024
0.024
0.024
0.024
0.024
0.024
0.024
0.024
0.024
0.024
0.024
0.024
0.024
0.024
0.024
0.024
0.024
0.024
0.024
0.024
0.024
0.024
0.024
0.024
0.024
0.024
0.024
0.024
0.024
0.024
0.024
0.024
0.024
0.024
0.024
0.024
0.024
0.024
0.024
0.024
0.024
0.024
0.024
0.024
0.024
0.024
0.024
0.024
0.024
0.024
0.024
0.024
0.024
0.024
0.024
0.024
0.024
0.024
0.024
0.024
0.024
0.024
0.024
0.024
0.024
0.024
0.024
0.024
0.024
0.024
0.024
0.024
0.024
0.024
0.024
0.024
0.024
0.024
0.024
0.024
0.024
0.024
0.024
0.024
0.024
0.024
0.024
0.024
0.024
0.024
0.024
0.024
0.024
0.024
0.024
0.024
0.024
0.024
0.024
0.024
0.024
0.024
0.024
0.024
0.024
0.024
0.024
0.024
0.024
0.024
0.024
0.024
0.024
0.024
0.024
0.024
0.024
0.024
0.024
0.024
0.024
0.024
0.024
0.024
0.024
0.024
0.024
0.024
0.024
0.024
0.024
0.024
0.024
0.024
0.024
0.024
0.024
0.024
0.024
0.024
0.024
0.024
0.024
0.024
0.024
0.024
0.024
0.024
0.024
0.024
0.024
0.024
0.024
0.024
0.024
0.024
0.024
0.024
0.024
0.024
0.024
0.024
0.024
0.024
0.024
0.024
0.024
0.024
0.024
0.024
0.024
0.024
0.024
0.024
0.024
0.024
0.024
0.024
0.024
0.024
0.024
0.024
0.024
0.024
0.024
0.024
0.024
0.024
0.024
0.024
0.024
0.024
0.024
0.024
0.024
0.024
0.024
0.024
0.024
0.024
0.024
0.024
0.024
0.024
0.024
0.024
0.024
0.024
0.024
0.024
0.024
0.024
0.024
0.024
0.024
0.024
0.024
0.024
0.024
0.024
0.024
0.024
0.024
0.024
0.024
0.024
0.024
0.024
0.024
0.024
0.024
0.024
0.024
0.024
0.024
0.024
0.024
0.024
0.024
0.024
0.024
0.024
0.024
0.024
0.024
0.024
0.024
0.024
0.024
0.024
0.024
0.024
0.024
0.024
0.024
0.024
0.024
0.024
0.024
0.024
0.024
0.024
0.024
0.024
0.024
0.024
0.024
0.024
0.024
0.024
0.024
0.024
0.024
0.024
0.024
0.024
0.024
0.024
0.024
0.024
0.024
0.024
0.024
0.024
0.024
0.024
0.024
0.024
0.024
0.024
0.024
0.024
0.024
0.024
0.024
0.024
0.024
0.024
)
;

boundaryField
{
    Wall
    {
        type            calculated;
        value           uniform 0.024;
    }
    frontAndBack
    {
        type            empty;
    }
    atmosphere
    {
        type            calculated;
        value           uniform 0.024;
    }
}


// ************************************************************************* //
