/*--------------------------------*- C++ -*----------------------------------*\
| =========                 |                                                 |
| \\      /  F ield         | OpenFOAM: The Open Source CFD Toolbox           |
|  \\    /   O peration     | Version:  3.0.1                                 |
|   \\  /    A nd           | Web:      www.OpenFOAM.org                      |
|    \\/     M anipulation  |                                                 |
\*---------------------------------------------------------------------------*/
FoamFile
{
    version     2.0;
    format      ascii;
    class       volScalarField;
    location    "24";
    object      thermalDiff_gas;
}
// * * * * * * * * * * * * * * * * * * * * * * * * * * * * * * * * * * * * * //

dimensions      [0 2 -1 0 0 0 0];

internalField   nonuniform List<scalar> 
800
(
0.00028938403
0.00028939224
0.0002893936
0.00028939377
0.0002893938
0.00028939384
0.00028939389
0.00028939393
0.00028939396
0.00028939398
0.00028939398
0.00028939396
0.00028939393
0.00028939389
0.00028939384
0.0002893938
0.00028939377
0.0002893936
0.00028939224
0.00028938403
0.0002865076
0.00028661234
0.00028663393
0.00028663673
0.000286636
0.00028663515
0.00028663474
0.00028663466
0.0002866347
0.00028663475
0.00028663475
0.0002866347
0.00028663466
0.00028663474
0.00028663515
0.000286636
0.00028663673
0.00028663393
0.00028661233
0.0002865076
0.00028411392
0.00028427335
0.00028431536
0.00028432211
0.00028432173
0.00028432064
0.00028432007
0.00028431996
0.00028432005
0.00028432014
0.00028432014
0.00028432005
0.00028431996
0.00028432007
0.00028432064
0.00028432173
0.00028432211
0.00028431536
0.00028427335
0.00028411392
0.00028231076
0.00028250978
0.0002825686
0.00028257839
0.00028257814
0.00028257673
0.00028257597
0.00028257578
0.00028257586
0.00028257596
0.00028257596
0.00028257586
0.00028257578
0.00028257597
0.00028257673
0.00028257814
0.00028257839
0.0002825686
0.00028250978
0.00028231076
0.00028112768
0.00028134869
0.00028142415
0.00028143699
0.00028143666
0.00028143468
0.00028143356
0.00028143314
0.00028143313
0.00028143318
0.00028143318
0.00028143313
0.00028143314
0.00028143356
0.00028143468
0.00028143666
0.00028143699
0.00028142415
0.0002813487
0.00028112768
0.00028051766
0.00028074897
0.00028084489
0.00028086178
0.00028086142
0.00028085868
0.00028085701
0.0002808562
0.00028085599
0.00028085595
0.00028085596
0.000280856
0.0002808562
0.00028085701
0.00028085868
0.00028086142
0.00028086178
0.00028084489
0.00028074897
0.00028051766
0.00028034869
0.00028059577
0.0002807083
0.00028073125
0.00028073143
0.00028072792
0.00028072562
0.00028072433
0.00028072387
0.0002807237
0.0002807237
0.00028072387
0.00028072433
0.00028072563
0.00028072792
0.00028073143
0.00028073126
0.00028070831
0.00028059577
0.0002803487
0.00028038276
0.00028067627
0.00028079597
0.00028082875
0.00028083058
0.00028082675
0.00028082404
0.00028082238
0.00028082175
0.00028082147
0.00028082147
0.00028082175
0.00028082238
0.00028082404
0.00028082675
0.00028083058
0.00028082876
0.00028079598
0.00028067628
0.00028038277
0.00028023657
0.0002806365
0.00028076123
0.00028081067
0.00028081715
0.00028081409
0.00028081192
0.00028081056
0.00028081017
0.00028080998
0.00028080998
0.00028081017
0.00028081056
0.00028081193
0.0002808141
0.00028081715
0.00028081068
0.00028076124
0.00028063652
0.00028023659
0.00027933206
0.00027992824
0.00028007465
0.00028015267
0.00028017153
0.00028017351
0.00028017465
0.0002801754
0.00028017633
0.00028017677
0.00028017677
0.00028017633
0.0002801754
0.00028017466
0.00028017351
0.00028017153
0.00028015268
0.00028007466
0.00027992826
0.00027933207
0.0002767469
0.00027766479
0.00027787522
0.00027800526
0.00027806165
0.00027808048
0.00027809183
0.00027809889
0.00027810354
0.00027810573
0.00027810573
0.00027810354
0.0002780989
0.00027809183
0.00027808048
0.00027806166
0.00027800527
0.00027787523
0.0002776648
0.00027674691
0.00027109649
0.00027238843
0.00027283082
0.00027306818
0.00027309354
0.00027314215
0.00027317381
0.0002731946
0.00027321446
0.00027322092
0.00027322092
0.00027321446
0.0002731946
0.00027317381
0.00027314216
0.00027309355
0.00027306819
0.00027283082
0.00027238844
0.0002710965
0.00026159362
0.00026291114
0.00026359815
0.00026379097
0.00026389103
0.00026397332
0.00026403179
0.00026408621
0.00026422475
0.00026425295
0.00026425295
0.00026422476
0.00026408621
0.00026403179
0.00026397333
0.00026389104
0.00026379097
0.00026359816
0.00026291115
0.00026159362
0.0002546478
0.00025478037
0.00025490038
0.00025499776
0.00025507178
0.00025512938
0.00025517696
0.00025521547
0.00025520982
0.00025522531
0.00025522531
0.00025520982
0.00025521547
0.00025517695
0.00025512938
0.00025507178
0.00025499775
0.00025490038
0.00025478036
0.00025464779
0.00025068421
0.00025069384
0.00025074052
0.00025080082
0.00025085936
0.0002509109
0.00025095413
0.00025098705
0.00025100454
0.00025101571
0.00025101571
0.00025100454
0.00025098705
0.00025095412
0.0002509109
0.00025085935
0.00025080081
0.00025074051
0.00025069383
0.0002506842
0.00024836231
0.00024838956
0.00024843841
0.00024849639
0.0002485534
0.00024860424
0.00024864679
0.00024867947
0.00024870063
0.00024871182
0.00024871182
0.00024870063
0.00024867947
0.00024864678
0.00024860424
0.0002485534
0.00024849639
0.00024843841
0.00024838956
0.00024836231
0.00024622264
0.00024626975
0.00024632874
0.00024639042
0.00024644859
0.00024649959
0.00024654175
0.00024657405
0.00024659575
0.00024660683
0.00024660683
0.00024659575
0.00024657405
0.00024654174
0.00024649959
0.00024644859
0.00024639042
0.00024632873
0.00024626974
0.00024622264
0.00024426059
0.0002443316
0.00024440891
0.0002444806
0.00024454339
0.00024459608
0.00024463837
0.00024467021
0.00024469152
0.00024470225
0.00024470225
0.00024469152
0.00024467021
0.00024463837
0.00024459608
0.00024454339
0.0002444806
0.00024440891
0.00024433159
0.00024426059
0.00024248065
0.00024256884
0.00024266497
0.00024275014
0.00024282092
0.00024287766
0.00024292156
0.0002429537
0.00024297482
0.00024298531
0.00024298531
0.00024297482
0.0002429537
0.00024292156
0.00024287766
0.00024282091
0.00024275014
0.00024266496
0.00024256883
0.00024248065
0.00024087832
0.00024097498
0.00024108497
0.0002411828
0.00024126274
0.00024132523
0.00024137228
0.00024140587
0.00024142751
0.00024143811
0.00024143811
0.00024142751
0.00024140587
0.00024137228
0.00024132523
0.00024126274
0.00024118279
0.00024108496
0.00024097498
0.00024087832
0.0002394421
0.00023954041
0.00023965784
0.00023976486
0.00023985291
0.00023992144
0.00023997245
0.00024000836
0.00024003119
0.00024004228
0.00024004228
0.00024003119
0.00024000836
0.00023997244
0.00023992143
0.00023985291
0.00023976486
0.00023965784
0.00023954041
0.0002394421
0.00023815748
0.00023825313
0.00023837239
0.00023848432
0.00023857806
0.00023865162
0.00023870648
0.00023874501
0.00023876939
0.00023878118
0.00023878118
0.00023876939
0.00023874501
0.00023870648
0.00023865162
0.00023857805
0.00023848432
0.00023837239
0.00023825313
0.00023815748
0.00023700953
0.00023710017
0.00023721714
0.00023733003
0.00023742657
0.00023750346
0.00023756132
0.00023760215
0.00023762804
0.00023764058
0.00023764058
0.00023762804
0.00023760215
0.00023756132
0.00023750346
0.00023742657
0.00023733003
0.00023721714
0.00023710017
0.00023700953
0.00023598413
0.00023606866
0.00023618066
0.00023629137
0.00023638802
0.00023646625
0.00023652586
0.00023656829
0.00023659535
0.0002366085
0.0002366085
0.00023659535
0.00023656829
0.00023652586
0.00023646625
0.00023638802
0.00023629137
0.00023618066
0.00023606866
0.00023598413
0.0002350684
0.00023514644
0.00023525188
0.0002353582
0.00023545271
0.00023553043
0.00023559042
0.00023563357
0.00023566128
0.00023567479
0.00023567479
0.00023566128
0.00023563357
0.00023559042
0.00023553043
0.00023545271
0.0002353582
0.00023525188
0.00023514644
0.0002350684
0.00023425083
0.00023432237
0.00023442045
0.00023452093
0.00023461162
0.00023468727
0.00023474639
0.00023478933
0.00023481712
0.00023483073
0.00023483073
0.00023481712
0.00023478933
0.00023474639
0.00023468727
0.00023461162
0.00023452093
0.00023442046
0.00023432237
0.00023425083
0.00023352119
0.00023358642
0.00023367685
0.00023377063
0.00023385637
0.00023392876
0.00023398596
0.00023402789
0.00023405521
0.00023406865
0.00023406865
0.00023405521
0.00023402789
0.00023398596
0.00023392876
0.00023385637
0.00023377063
0.00023367685
0.00023358642
0.0002335212
0.00023287052
0.00023292973
0.00023301251
0.00023309919
0.00023317926
0.00023324757
0.00023330204
0.0002333423
0.00023336869
0.00023338172
0.00023338172
0.00023336869
0.0002333423
0.00023330204
0.00023324757
0.00023317926
0.00023309919
0.00023301251
0.00023292973
0.00023287052
0.00023229096
0.0002323445
0.00023241982
0.0002324993
0.00023257333
0.00023263702
0.00023268822
0.00023272631
0.00023275142
0.00023276386
0.00023276386
0.00023275142
0.00023272631
0.00023268822
0.00023263702
0.00023257334
0.0002324993
0.00023241982
0.0002323445
0.00023229096
0.00023177574
0.00023182395
0.00023189212
0.00023196449
0.00023203235
0.00023209113
0.00023213871
0.00023217431
0.00023219788
0.00023220959
0.00023220959
0.00023219788
0.00023217431
0.00023213871
0.00023209114
0.00023203235
0.00023196449
0.00023189212
0.00023182395
0.00023177574
0.00023131905
0.00023136226
0.00023142363
0.00023148909
0.00023155083
0.00023160461
0.00023164838
0.00023168129
0.00023170316
0.00023171406
0.00023171406
0.00023170316
0.00023168129
0.00023164838
0.00023160461
0.00023155083
0.0002314891
0.00023142363
0.00023136226
0.00023131905
0.00023091598
0.00023095452
0.00023100944
0.00023106829
0.00023112405
0.00023117286
0.00023121277
0.00023124291
0.000231263
0.00023127303
0.00023127303
0.000231263
0.00023124291
0.00023121277
0.00023117286
0.00023112405
0.00023106829
0.00023100944
0.00023095452
0.00023091598
0.0002305625
0.00023059665
0.00023064549
0.00023069803
0.00023074803
0.00023079199
0.00023082809
0.00023085545
0.00023087375
0.00023088289
0.00023088289
0.00023087375
0.00023085545
0.00023082809
0.00023079199
0.00023074803
0.00023069803
0.00023064549
0.00023059666
0.00023056251
0.0002302554
0.00023028542
0.00023032852
0.00023037508
0.00023041958
0.00023045889
0.0002304913
0.00023051595
0.00023053247
0.00023054075
0.00023054075
0.00023053247
0.00023051595
0.0002304913
0.00023045889
0.00023041959
0.00023037508
0.00023032852
0.00023028542
0.0002302554
0.0002299923
0.00023001842
0.0002300561
0.00023009702
0.00023013634
0.00023017123
0.00023020012
0.00023022218
0.00023023701
0.00023024446
0.00023024446
0.00023023701
0.00023022218
0.00023020012
0.00023017123
0.00023013634
0.00023009702
0.0002300561
0.00023001842
0.0002299923
0.00022977165
0.00022979409
0.00022982668
0.00022986233
0.0002298968
0.00022992758
0.0002299532
0.00022997284
0.0002299861
0.00022999276
0.00022999276
0.0002299861
0.00022997285
0.0002299532
0.00022992758
0.0002298968
0.00022986233
0.00022982668
0.00022979409
0.00022977165
0.00022959281
0.00022961177
0.00022963964
0.00022967043
0.00022970048
0.00022972753
0.0002297502
0.00022976767
0.0002297795
0.00022978546
0.00022978546
0.0002297795
0.00022976767
0.0002297502
0.00022972753
0.00022970049
0.00022967043
0.00022963964
0.00022961177
0.00022959281
0.00022945603
0.0002294718
0.0002294954
0.00022952189
0.00022954809
0.00022957191
0.00022959205
0.00022960767
0.00022961829
0.00022962366
0.00022962366
0.00022961829
0.00022960767
0.00022959205
0.00022957192
0.00022954809
0.00022952189
0.0002294954
0.0002294718
0.00022945603
0.00022936254
0.00022937553
0.00022939558
0.00022941859
0.00022944174
0.00022946305
0.00022948124
0.00022949544
0.00022950515
0.00022951007
0.00022951007
0.00022950515
0.00022949544
0.00022948124
0.00022946305
0.00022944174
0.00022941859
0.00022939558
0.00022937553
0.00022936254
0.00022931443
0.0002293255
0.00022934324
0.00022936409
0.00022938539
0.00022940522
0.00022942227
0.00022943566
0.00022944485
0.00022944951
0.00022944951
0.00022944485
0.00022943566
0.00022942227
0.00022940522
0.00022938539
0.00022936409
0.00022934324
0.0002293255
0.00022931443
)
;

boundaryField
{
    Wall
    {
        type            calculated;
        value           uniform 0.1;
    }
    frontAndBack
    {
        type            empty;
    }
    atmosphere
    {
        type            calculated;
        value           uniform 0.1;
    }
}


// ************************************************************************* //
