/*--------------------------------*- C++ -*----------------------------------*\
| =========                 |                                                 |
| \\      /  F ield         | OpenFOAM: The Open Source CFD Toolbox           |
|  \\    /   O peration     | Version:  3.0.1                                 |
|   \\  /    A nd           | Web:      www.OpenFOAM.org                      |
|    \\/     M anipulation  |                                                 |
\*---------------------------------------------------------------------------*/
FoamFile
{
    version     2.0;
    format      ascii;
    class       volScalarField;
    location    "24";
    object      thermalDiffusivity;
}
// * * * * * * * * * * * * * * * * * * * * * * * * * * * * * * * * * * * * * //

dimensions      [0 2 -1 0 0 0 0];

internalField   nonuniform List<scalar> 
800
(
1.1499929e-07
1.1500312e-07
1.1500353e-07
1.150035e-07
1.1500345e-07
1.1500341e-07
1.1500339e-07
1.1500337e-07
1.1500337e-07
1.1500336e-07
1.1500336e-07
1.1500337e-07
1.1500337e-07
1.1500339e-07
1.1500341e-07
1.1500345e-07
1.150035e-07
1.1500353e-07
1.1500312e-07
1.1499929e-07
1.1324301e-07
1.1331758e-07
1.1333024e-07
1.1333148e-07
1.133308e-07
1.1333029e-07
1.1333013e-07
1.1333018e-07
1.133303e-07
1.1333038e-07
1.1333037e-07
1.133303e-07
1.1333018e-07
1.1333013e-07
1.1333029e-07
1.133308e-07
1.1333147e-07
1.1333022e-07
1.1331758e-07
1.1324301e-07
1.1183291e-07
1.1192473e-07
1.119515e-07
1.1195482e-07
1.1195459e-07
1.1195432e-07
1.1195442e-07
1.1195473e-07
1.1195504e-07
1.1195523e-07
1.1195522e-07
1.1195504e-07
1.1195473e-07
1.1195442e-07
1.1195432e-07
1.1195459e-07
1.1195481e-07
1.1195149e-07
1.1192473e-07
1.1183291e-07
1.1113887e-07
1.111992e-07
1.1122836e-07
1.1123235e-07
1.1123305e-07
1.112337e-07
1.1123454e-07
1.1123537e-07
1.1123601e-07
1.1123636e-07
1.1123635e-07
1.1123601e-07
1.1123537e-07
1.1123454e-07
1.112337e-07
1.1123305e-07
1.1123235e-07
1.1122835e-07
1.111992e-07
1.1113887e-07
1.1140407e-07
1.1136151e-07
1.1137648e-07
1.1138662e-07
1.1138941e-07
1.1139209e-07
1.1139439e-07
1.1139612e-07
1.1139729e-07
1.1139787e-07
1.1139786e-07
1.1139729e-07
1.1139613e-07
1.1139439e-07
1.1139209e-07
1.1138942e-07
1.1138662e-07
1.1137647e-07
1.1136151e-07
1.1140407e-07
1.1275407e-07
1.1252411e-07
1.1250322e-07
1.1252288e-07
1.1253008e-07
1.1253648e-07
1.1254121e-07
1.1254431e-07
1.125462e-07
1.1254707e-07
1.1254706e-07
1.125462e-07
1.1254432e-07
1.1254122e-07
1.1253648e-07
1.1253008e-07
1.1252288e-07
1.1250322e-07
1.1252412e-07
1.1275407e-07
1.15252e-07
1.1473404e-07
1.1464052e-07
1.1467013e-07
1.1468607e-07
1.1469851e-07
1.1470676e-07
1.147116e-07
1.147143e-07
1.1471545e-07
1.1471544e-07
1.1471431e-07
1.1471161e-07
1.1470676e-07
1.1469851e-07
1.1468607e-07
1.1467013e-07
1.1464051e-07
1.1473404e-07
1.15252e-07
1.1900881e-07
1.1803522e-07
1.178392e-07
1.1787707e-07
1.1790483e-07
1.1792664e-07
1.1793911e-07
1.1794571e-07
1.1794903e-07
1.179503e-07
1.179503e-07
1.1794903e-07
1.1794571e-07
1.1793911e-07
1.1792663e-07
1.1790483e-07
1.1787706e-07
1.1783919e-07
1.1803522e-07
1.1900881e-07
1.2447488e-07
1.2270033e-07
1.2237008e-07
1.224104e-07
1.2247504e-07
1.2250542e-07
1.2252091e-07
1.2252847e-07
1.225317e-07
1.225327e-07
1.2253269e-07
1.225317e-07
1.2252847e-07
1.2252091e-07
1.2250541e-07
1.2247503e-07
1.2241038e-07
1.2237006e-07
1.2270032e-07
1.2447488e-07
1.3375779e-07
1.3020342e-07
1.2960505e-07
1.2961435e-07
1.2971299e-07
1.2977702e-07
1.2979109e-07
1.2979674e-07
1.2979816e-07
1.2979798e-07
1.2979798e-07
1.2979816e-07
1.2979674e-07
1.2979108e-07
1.2977701e-07
1.2971298e-07
1.2961432e-07
1.2960503e-07
1.302034e-07
1.3375778e-07
1.578153e-07
1.4825033e-07
1.4654195e-07
1.4629534e-07
1.4634793e-07
1.4638111e-07
1.463615e-07
1.4634749e-07
1.4634022e-07
1.4633486e-07
1.4633485e-07
1.4634022e-07
1.4634748e-07
1.4636148e-07
1.4638108e-07
1.4634789e-07
1.4629529e-07
1.465419e-07
1.4825028e-07
1.5781525e-07
2.7227604e-07
2.2882344e-07
2.1924267e-07
2.1666593e-07
2.1548975e-07
2.1489936e-07
2.145478e-07
2.1435264e-07
2.1429559e-07
2.142523e-07
2.1425229e-07
2.1429557e-07
2.143526e-07
2.1454772e-07
2.1489924e-07
2.1548959e-07
2.1666574e-07
2.1924246e-07
2.2882319e-07
2.722757e-07
1.4403745e-06
9.6360381e-07
8.5190565e-07
8.1456656e-07
7.9526803e-07
7.855176e-07
7.8041675e-07
7.7760203e-07
7.7632001e-07
7.7572268e-07
7.7572256e-07
7.7631971e-07
7.7760143e-07
7.8041582e-07
7.8551626e-07
7.9526634e-07
8.1456447e-07
8.5190322e-07
9.6360035e-07
1.4403679e-06
3.3960685e-05
2.0409522e-05
1.7076292e-05
1.5937534e-05
1.5312125e-05
1.499151e-05
1.4820755e-05
1.4728732e-05
1.4655156e-05
1.4636224e-05
1.4636221e-05
1.4655144e-05
1.4728712e-05
1.4820723e-05
1.4991468e-05
1.5312071e-05
1.593747e-05
1.7076212e-05
2.0409415e-05
3.3960476e-05
0.00025068421
0.00025069384
0.00025074052
0.00025080082
0.00025085936
0.0002509109
0.00025095413
0.00025098705
0.00025100454
0.00025101571
0.00025101571
0.00025100454
0.00025098705
0.00025095412
0.0002509109
0.00025085935
0.00025080081
0.00025074051
0.00025069383
0.0002506842
0.00024836231
0.00024838956
0.00024843841
0.00024849639
0.0002485534
0.00024860424
0.00024864679
0.00024867947
0.00024870063
0.00024871182
0.00024871182
0.00024870063
0.00024867947
0.00024864678
0.00024860424
0.0002485534
0.00024849639
0.00024843841
0.00024838956
0.00024836231
0.00024622264
0.00024626975
0.00024632874
0.00024639042
0.00024644859
0.00024649959
0.00024654175
0.00024657405
0.00024659575
0.00024660683
0.00024660683
0.00024659575
0.00024657405
0.00024654174
0.00024649959
0.00024644859
0.00024639042
0.00024632873
0.00024626974
0.00024622264
0.00024426059
0.0002443316
0.00024440891
0.0002444806
0.00024454339
0.00024459608
0.00024463837
0.00024467021
0.00024469152
0.00024470225
0.00024470225
0.00024469152
0.00024467021
0.00024463837
0.00024459608
0.00024454339
0.0002444806
0.00024440891
0.00024433159
0.00024426059
0.00024248065
0.00024256884
0.00024266497
0.00024275014
0.00024282092
0.00024287766
0.00024292156
0.0002429537
0.00024297482
0.00024298531
0.00024298531
0.00024297482
0.0002429537
0.00024292156
0.00024287766
0.00024282091
0.00024275014
0.00024266496
0.00024256883
0.00024248065
0.00024087832
0.00024097498
0.00024108497
0.0002411828
0.00024126274
0.00024132523
0.00024137228
0.00024140587
0.00024142751
0.00024143811
0.00024143811
0.00024142751
0.00024140587
0.00024137228
0.00024132523
0.00024126274
0.00024118279
0.00024108496
0.00024097498
0.00024087832
0.0002394421
0.00023954041
0.00023965784
0.00023976486
0.00023985291
0.00023992144
0.00023997245
0.00024000836
0.00024003119
0.00024004228
0.00024004228
0.00024003119
0.00024000836
0.00023997244
0.00023992143
0.00023985291
0.00023976486
0.00023965784
0.00023954041
0.0002394421
0.00023815748
0.00023825313
0.00023837239
0.00023848432
0.00023857806
0.00023865162
0.00023870648
0.00023874501
0.00023876939
0.00023878118
0.00023878118
0.00023876939
0.00023874501
0.00023870648
0.00023865162
0.00023857805
0.00023848432
0.00023837239
0.00023825313
0.00023815748
0.00023700953
0.00023710017
0.00023721714
0.00023733003
0.00023742657
0.00023750346
0.00023756132
0.00023760215
0.00023762804
0.00023764058
0.00023764058
0.00023762804
0.00023760215
0.00023756132
0.00023750346
0.00023742657
0.00023733003
0.00023721714
0.00023710017
0.00023700953
0.00023598413
0.00023606866
0.00023618066
0.00023629137
0.00023638802
0.00023646625
0.00023652586
0.00023656829
0.00023659535
0.0002366085
0.0002366085
0.00023659535
0.00023656829
0.00023652586
0.00023646625
0.00023638802
0.00023629137
0.00023618066
0.00023606866
0.00023598413
0.0002350684
0.00023514644
0.00023525188
0.0002353582
0.00023545271
0.00023553043
0.00023559042
0.00023563357
0.00023566128
0.00023567479
0.00023567479
0.00023566128
0.00023563357
0.00023559042
0.00023553043
0.00023545271
0.0002353582
0.00023525188
0.00023514644
0.0002350684
0.00023425083
0.00023432237
0.00023442045
0.00023452093
0.00023461162
0.00023468727
0.00023474639
0.00023478933
0.00023481712
0.00023483073
0.00023483073
0.00023481712
0.00023478933
0.00023474639
0.00023468727
0.00023461162
0.00023452093
0.00023442046
0.00023432237
0.00023425083
0.00023352119
0.00023358642
0.00023367685
0.00023377063
0.00023385637
0.00023392876
0.00023398596
0.00023402789
0.00023405521
0.00023406865
0.00023406865
0.00023405521
0.00023402789
0.00023398596
0.00023392876
0.00023385637
0.00023377063
0.00023367685
0.00023358642
0.0002335212
0.00023287052
0.00023292973
0.00023301251
0.00023309919
0.00023317926
0.00023324757
0.00023330204
0.0002333423
0.00023336869
0.00023338172
0.00023338172
0.00023336869
0.0002333423
0.00023330204
0.00023324757
0.00023317926
0.00023309919
0.00023301251
0.00023292973
0.00023287052
0.00023229096
0.0002323445
0.00023241982
0.0002324993
0.00023257333
0.00023263702
0.00023268822
0.00023272631
0.00023275142
0.00023276386
0.00023276386
0.00023275142
0.00023272631
0.00023268822
0.00023263702
0.00023257334
0.0002324993
0.00023241982
0.0002323445
0.00023229096
0.00023177574
0.00023182395
0.00023189212
0.00023196449
0.00023203235
0.00023209113
0.00023213871
0.00023217431
0.00023219788
0.00023220959
0.00023220959
0.00023219788
0.00023217431
0.00023213871
0.00023209114
0.00023203235
0.00023196449
0.00023189212
0.00023182395
0.00023177574
0.00023131905
0.00023136226
0.00023142363
0.00023148909
0.00023155083
0.00023160461
0.00023164838
0.00023168129
0.00023170316
0.00023171406
0.00023171406
0.00023170316
0.00023168129
0.00023164838
0.00023160461
0.00023155083
0.0002314891
0.00023142363
0.00023136226
0.00023131905
0.00023091598
0.00023095452
0.00023100944
0.00023106829
0.00023112405
0.00023117286
0.00023121277
0.00023124291
0.000231263
0.00023127303
0.00023127303
0.000231263
0.00023124291
0.00023121277
0.00023117286
0.00023112405
0.00023106829
0.00023100944
0.00023095452
0.00023091598
0.0002305625
0.00023059665
0.00023064549
0.00023069803
0.00023074803
0.00023079199
0.00023082809
0.00023085545
0.00023087375
0.00023088289
0.00023088289
0.00023087375
0.00023085545
0.00023082809
0.00023079199
0.00023074803
0.00023069803
0.00023064549
0.00023059666
0.00023056251
0.0002302554
0.00023028542
0.00023032852
0.00023037508
0.00023041958
0.00023045889
0.0002304913
0.00023051595
0.00023053247
0.00023054075
0.00023054075
0.00023053247
0.00023051595
0.0002304913
0.00023045889
0.00023041959
0.00023037508
0.00023032852
0.00023028542
0.0002302554
0.0002299923
0.00023001842
0.0002300561
0.00023009702
0.00023013634
0.00023017123
0.00023020012
0.00023022218
0.00023023701
0.00023024446
0.00023024446
0.00023023701
0.00023022218
0.00023020012
0.00023017123
0.00023013634
0.00023009702
0.0002300561
0.00023001842
0.0002299923
0.00022977165
0.00022979409
0.00022982668
0.00022986233
0.0002298968
0.00022992758
0.0002299532
0.00022997284
0.0002299861
0.00022999276
0.00022999276
0.0002299861
0.00022997285
0.0002299532
0.00022992758
0.0002298968
0.00022986233
0.00022982668
0.00022979409
0.00022977165
0.00022959281
0.00022961177
0.00022963964
0.00022967043
0.00022970048
0.00022972753
0.0002297502
0.00022976767
0.0002297795
0.00022978546
0.00022978546
0.0002297795
0.00022976767
0.0002297502
0.00022972753
0.00022970049
0.00022967043
0.00022963964
0.00022961177
0.00022959281
0.00022945603
0.0002294718
0.0002294954
0.00022952189
0.00022954809
0.00022957191
0.00022959205
0.00022960767
0.00022961829
0.00022962366
0.00022962366
0.00022961829
0.00022960767
0.00022959205
0.00022957192
0.00022954809
0.00022952189
0.0002294954
0.0002294718
0.00022945603
0.00022936254
0.00022937553
0.00022939558
0.00022941859
0.00022944174
0.00022946305
0.00022948124
0.00022949544
0.00022950515
0.00022951007
0.00022951007
0.00022950515
0.00022949544
0.00022948124
0.00022946305
0.00022944174
0.00022941859
0.00022939558
0.00022937553
0.00022936254
0.00022931443
0.0002293255
0.00022934324
0.00022936409
0.00022938539
0.00022940522
0.00022942227
0.00022943566
0.00022944485
0.00022944951
0.00022944951
0.00022944485
0.00022943566
0.00022942227
0.00022940522
0.00022938539
0.00022936409
0.00022934324
0.0002293255
0.00022931443
)
;

boundaryField
{
    Wall
    {
        type            calculated;
        value           uniform 4e-05;
    }
    frontAndBack
    {
        type            empty;
    }
    atmosphere
    {
        type            calculated;
        value           uniform 4e-05;
    }
}


// ************************************************************************* //
