/*--------------------------------*- C++ -*----------------------------------*\
| =========                 |                                                 |
| \\      /  F ield         | OpenFOAM: The Open Source CFD Toolbox           |
|  \\    /   O peration     | Version:  3.0.1                                 |
|   \\  /    A nd           | Web:      www.OpenFOAM.org                      |
|    \\/     M anipulation  |                                                 |
\*---------------------------------------------------------------------------*/
FoamFile
{
    version     2.0;
    format      ascii;
    class       volScalarField;
    location    "24";
    object      thermalDiff_foam;
}
// * * * * * * * * * * * * * * * * * * * * * * * * * * * * * * * * * * * * * //

dimensions      [0 2 -1 0 0 0 0];

internalField   nonuniform List<scalar> 
800
(
1.1499929e-07
1.1500312e-07
1.1500353e-07
1.150035e-07
1.1500345e-07
1.1500341e-07
1.1500339e-07
1.1500337e-07
1.1500337e-07
1.1500336e-07
1.1500336e-07
1.1500337e-07
1.1500337e-07
1.1500339e-07
1.1500341e-07
1.1500345e-07
1.150035e-07
1.1500353e-07
1.1500312e-07
1.1499929e-07
1.1324301e-07
1.1331758e-07
1.1333022e-07
1.1333147e-07
1.133308e-07
1.1333028e-07
1.1333013e-07
1.1333018e-07
1.1333029e-07
1.1333036e-07
1.1333036e-07
1.1333029e-07
1.1333018e-07
1.1333013e-07
1.1333028e-07
1.133308e-07
1.1333147e-07
1.1333022e-07
1.1331758e-07
1.1324301e-07
1.1166084e-07
1.1176631e-07
1.1179608e-07
1.1179962e-07
1.1179917e-07
1.1179861e-07
1.1179851e-07
1.1179868e-07
1.1179891e-07
1.1179906e-07
1.1179906e-07
1.1179891e-07
1.1179868e-07
1.1179851e-07
1.1179861e-07
1.1179917e-07
1.1179962e-07
1.1179608e-07
1.1176631e-07
1.1166084e-07
1.1035995e-07
1.1048472e-07
1.1052725e-07
1.1053185e-07
1.1053136e-07
1.1053068e-07
1.1053058e-07
1.1053083e-07
1.1053115e-07
1.1053135e-07
1.1053135e-07
1.1053115e-07
1.1053083e-07
1.1053058e-07
1.1053068e-07
1.1053135e-07
1.1053185e-07
1.1052725e-07
1.1048472e-07
1.1035995e-07
1.0930379e-07
1.0944147e-07
1.0949305e-07
1.0950384e-07
1.0950293e-07
1.0950192e-07
1.095017e-07
1.0950195e-07
1.095023e-07
1.0950253e-07
1.0950253e-07
1.095023e-07
1.0950195e-07
1.095017e-07
1.0950192e-07
1.0950293e-07
1.0950384e-07
1.0949305e-07
1.0944148e-07
1.0930379e-07
1.0834752e-07
1.0851018e-07
1.0856869e-07
1.0858788e-07
1.0858615e-07
1.0858454e-07
1.0858405e-07
1.085842e-07
1.0858453e-07
1.0858476e-07
1.0858476e-07
1.0858453e-07
1.085842e-07
1.0858405e-07
1.0858454e-07
1.0858615e-07
1.0858789e-07
1.0856869e-07
1.0851019e-07
1.0834752e-07
1.0728388e-07
1.0750486e-07
1.0756362e-07
1.0758977e-07
1.0758683e-07
1.075844e-07
1.0758352e-07
1.075835e-07
1.0758379e-07
1.0758402e-07
1.0758402e-07
1.0758379e-07
1.075835e-07
1.0758352e-07
1.075844e-07
1.0758683e-07
1.0758977e-07
1.0756362e-07
1.0750487e-07
1.0728388e-07
1.0587695e-07
1.0618964e-07
1.0625606e-07
1.0628621e-07
1.0628154e-07
1.0627819e-07
1.0627693e-07
1.062768e-07
1.0627709e-07
1.0627734e-07
1.0627734e-07
1.0627709e-07
1.062768e-07
1.0627693e-07
1.0627819e-07
1.0628154e-07
1.0628621e-07
1.0625606e-07
1.0618964e-07
1.0587695e-07
1.0385571e-07
1.0430891e-07
1.0438712e-07
1.0441902e-07
1.0443318e-07
1.0442879e-07
1.0442747e-07
1.0442751e-07
1.04428e-07
1.0442836e-07
1.0442836e-07
1.04428e-07
1.0442751e-07
1.0442746e-07
1.0442879e-07
1.0443318e-07
1.0441902e-07
1.0438712e-07
1.0430891e-07
1.0385571e-07
1.0091336e-07
1.0158908e-07
1.0168201e-07
1.0171529e-07
1.0175066e-07
1.0177476e-07
1.0177435e-07
1.0177521e-07
1.0177627e-07
1.0177693e-07
1.0177693e-07
1.0177627e-07
1.0177521e-07
1.0177435e-07
1.0177475e-07
1.0175066e-07
1.0171529e-07
1.0168201e-07
1.0158907e-07
1.0091335e-07
9.6823839e-08
9.7721077e-08
9.7879236e-08
9.7916592e-08
9.7997552e-08
9.8044302e-08
9.8046371e-08
9.8049019e-08
9.8051144e-08
9.8052349e-08
9.8052349e-08
9.8051142e-08
9.8049016e-08
9.8046368e-08
9.8044298e-08
9.7997548e-08
9.7916588e-08
9.7879231e-08
9.7721071e-08
9.682383e-08
9.1757067e-08
9.2745748e-08
9.298827e-08
9.3033138e-08
9.315879e-08
9.3209835e-08
9.3216211e-08
9.3221613e-08
9.3225352e-08
9.3227287e-08
9.3227287e-08
9.3225351e-08
9.322161e-08
9.3216207e-08
9.3209831e-08
9.3158785e-08
9.3033132e-08
9.2988264e-08
9.274574e-08
9.1757057e-08
8.6836697e-08
8.7650408e-08
8.7876324e-08
8.7938989e-08
8.8042965e-08
8.808508e-08
8.8094641e-08
8.8101836e-08
8.8105809e-08
8.8108116e-08
8.8108115e-08
8.8105808e-08
8.8101834e-08
8.8094637e-08
8.8085076e-08
8.804296e-08
8.7938983e-08
8.7876318e-08
8.7650401e-08
8.6836689e-08
8.3336695e-08
8.3803265e-08
8.3968314e-08
8.4024775e-08
8.4081109e-08
8.4104698e-08
8.4112241e-08
8.4117634e-08
8.413923e-08
8.414091e-08
8.414091e-08
8.413923e-08
8.4117633e-08
8.4112239e-08
8.4104696e-08
8.4081106e-08
8.4024772e-08
8.3968311e-08
8.3803262e-08
8.3336692e-08
0.00025068421
0.00025069384
0.00025074052
0.00025080082
0.00025085936
0.0002509109
0.00025095413
0.00025098705
0.00025100454
0.00025101571
0.00025101571
0.00025100454
0.00025098705
0.00025095412
0.0002509109
0.00025085935
0.00025080081
0.00025074051
0.00025069383
0.0002506842
0.00024836231
0.00024838956
0.00024843841
0.00024849639
0.0002485534
0.00024860424
0.00024864679
0.00024867947
0.00024870063
0.00024871182
0.00024871182
0.00024870063
0.00024867947
0.00024864678
0.00024860424
0.0002485534
0.00024849639
0.00024843841
0.00024838956
0.00024836231
0.00024622264
0.00024626975
0.00024632874
0.00024639042
0.00024644859
0.00024649959
0.00024654175
0.00024657405
0.00024659575
0.00024660683
0.00024660683
0.00024659575
0.00024657405
0.00024654174
0.00024649959
0.00024644859
0.00024639042
0.00024632873
0.00024626974
0.00024622264
0.00024426059
0.0002443316
0.00024440891
0.0002444806
0.00024454339
0.00024459608
0.00024463837
0.00024467021
0.00024469152
0.00024470225
0.00024470225
0.00024469152
0.00024467021
0.00024463837
0.00024459608
0.00024454339
0.0002444806
0.00024440891
0.00024433159
0.00024426059
0.00024248065
0.00024256884
0.00024266497
0.00024275014
0.00024282092
0.00024287766
0.00024292156
0.0002429537
0.00024297482
0.00024298531
0.00024298531
0.00024297482
0.0002429537
0.00024292156
0.00024287766
0.00024282091
0.00024275014
0.00024266496
0.00024256883
0.00024248065
0.00024087832
0.00024097498
0.00024108497
0.0002411828
0.00024126274
0.00024132523
0.00024137228
0.00024140587
0.00024142751
0.00024143811
0.00024143811
0.00024142751
0.00024140587
0.00024137228
0.00024132523
0.00024126274
0.00024118279
0.00024108496
0.00024097498
0.00024087832
0.0002394421
0.00023954041
0.00023965784
0.00023976486
0.00023985291
0.00023992144
0.00023997245
0.00024000836
0.00024003119
0.00024004228
0.00024004228
0.00024003119
0.00024000836
0.00023997244
0.00023992143
0.00023985291
0.00023976486
0.00023965784
0.00023954041
0.0002394421
0.00023815748
0.00023825313
0.00023837239
0.00023848432
0.00023857806
0.00023865162
0.00023870648
0.00023874501
0.00023876939
0.00023878118
0.00023878118
0.00023876939
0.00023874501
0.00023870648
0.00023865162
0.00023857805
0.00023848432
0.00023837239
0.00023825313
0.00023815748
0.00023700953
0.00023710017
0.00023721714
0.00023733003
0.00023742657
0.00023750346
0.00023756132
0.00023760215
0.00023762804
0.00023764058
0.00023764058
0.00023762804
0.00023760215
0.00023756132
0.00023750346
0.00023742657
0.00023733003
0.00023721714
0.00023710017
0.00023700953
0.00023598413
0.00023606866
0.00023618066
0.00023629137
0.00023638802
0.00023646625
0.00023652586
0.00023656829
0.00023659535
0.0002366085
0.0002366085
0.00023659535
0.00023656829
0.00023652586
0.00023646625
0.00023638802
0.00023629137
0.00023618066
0.00023606866
0.00023598413
0.0002350684
0.00023514644
0.00023525188
0.0002353582
0.00023545271
0.00023553043
0.00023559042
0.00023563357
0.00023566128
0.00023567479
0.00023567479
0.00023566128
0.00023563357
0.00023559042
0.00023553043
0.00023545271
0.0002353582
0.00023525188
0.00023514644
0.0002350684
0.00023425083
0.00023432237
0.00023442045
0.00023452093
0.00023461162
0.00023468727
0.00023474639
0.00023478933
0.00023481712
0.00023483073
0.00023483073
0.00023481712
0.00023478933
0.00023474639
0.00023468727
0.00023461162
0.00023452093
0.00023442046
0.00023432237
0.00023425083
0.00023352119
0.00023358642
0.00023367685
0.00023377063
0.00023385637
0.00023392876
0.00023398596
0.00023402789
0.00023405521
0.00023406865
0.00023406865
0.00023405521
0.00023402789
0.00023398596
0.00023392876
0.00023385637
0.00023377063
0.00023367685
0.00023358642
0.0002335212
0.00023287052
0.00023292973
0.00023301251
0.00023309919
0.00023317926
0.00023324757
0.00023330204
0.0002333423
0.00023336869
0.00023338172
0.00023338172
0.00023336869
0.0002333423
0.00023330204
0.00023324757
0.00023317926
0.00023309919
0.00023301251
0.00023292973
0.00023287052
0.00023229096
0.0002323445
0.00023241982
0.0002324993
0.00023257333
0.00023263702
0.00023268822
0.00023272631
0.00023275142
0.00023276386
0.00023276386
0.00023275142
0.00023272631
0.00023268822
0.00023263702
0.00023257334
0.0002324993
0.00023241982
0.0002323445
0.00023229096
0.00023177574
0.00023182395
0.00023189212
0.00023196449
0.00023203235
0.00023209113
0.00023213871
0.00023217431
0.00023219788
0.00023220959
0.00023220959
0.00023219788
0.00023217431
0.00023213871
0.00023209114
0.00023203235
0.00023196449
0.00023189212
0.00023182395
0.00023177574
0.00023131905
0.00023136226
0.00023142363
0.00023148909
0.00023155083
0.00023160461
0.00023164838
0.00023168129
0.00023170316
0.00023171406
0.00023171406
0.00023170316
0.00023168129
0.00023164838
0.00023160461
0.00023155083
0.0002314891
0.00023142363
0.00023136226
0.00023131905
0.00023091598
0.00023095452
0.00023100944
0.00023106829
0.00023112405
0.00023117286
0.00023121277
0.00023124291
0.000231263
0.00023127303
0.00023127303
0.000231263
0.00023124291
0.00023121277
0.00023117286
0.00023112405
0.00023106829
0.00023100944
0.00023095452
0.00023091598
0.0002305625
0.00023059665
0.00023064549
0.00023069803
0.00023074803
0.00023079199
0.00023082809
0.00023085545
0.00023087375
0.00023088289
0.00023088289
0.00023087375
0.00023085545
0.00023082809
0.00023079199
0.00023074803
0.00023069803
0.00023064549
0.00023059666
0.00023056251
0.0002302554
0.00023028542
0.00023032852
0.00023037508
0.00023041958
0.00023045889
0.0002304913
0.00023051595
0.00023053247
0.00023054075
0.00023054075
0.00023053247
0.00023051595
0.0002304913
0.00023045889
0.00023041959
0.00023037508
0.00023032852
0.00023028542
0.0002302554
0.0002299923
0.00023001842
0.0002300561
0.00023009702
0.00023013634
0.00023017123
0.00023020012
0.00023022218
0.00023023701
0.00023024446
0.00023024446
0.00023023701
0.00023022218
0.00023020012
0.00023017123
0.00023013634
0.00023009702
0.0002300561
0.00023001842
0.0002299923
0.00022977165
0.00022979409
0.00022982668
0.00022986233
0.0002298968
0.00022992758
0.0002299532
0.00022997284
0.0002299861
0.00022999276
0.00022999276
0.0002299861
0.00022997285
0.0002299532
0.00022992758
0.0002298968
0.00022986233
0.00022982668
0.00022979409
0.00022977165
0.00022959281
0.00022961177
0.00022963964
0.00022967043
0.00022970048
0.00022972753
0.0002297502
0.00022976767
0.0002297795
0.00022978546
0.00022978546
0.0002297795
0.00022976767
0.0002297502
0.00022972753
0.00022970049
0.00022967043
0.00022963964
0.00022961177
0.00022959281
0.00022945603
0.0002294718
0.0002294954
0.00022952189
0.00022954809
0.00022957191
0.00022959205
0.00022960767
0.00022961829
0.00022962366
0.00022962366
0.00022961829
0.00022960767
0.00022959205
0.00022957192
0.00022954809
0.00022952189
0.0002294954
0.0002294718
0.00022945603
0.00022936254
0.00022937553
0.00022939558
0.00022941859
0.00022944174
0.00022946305
0.00022948124
0.00022949544
0.00022950515
0.00022951007
0.00022951007
0.00022950515
0.00022949544
0.00022948124
0.00022946305
0.00022944174
0.00022941859
0.00022939558
0.00022937553
0.00022936254
0.00022931443
0.0002293255
0.00022934324
0.00022936409
0.00022938539
0.00022940522
0.00022942227
0.00022943566
0.00022944485
0.00022944951
0.00022944951
0.00022944485
0.00022943566
0.00022942227
0.00022940522
0.00022938539
0.00022936409
0.00022934324
0.0002293255
0.00022931443
)
;

boundaryField
{
    Wall
    {
        type            calculated;
        value           uniform 4e-05;
    }
    frontAndBack
    {
        type            empty;
    }
    atmosphere
    {
        type            calculated;
        value           uniform 4e-05;
    }
}


// ************************************************************************* //
