/*--------------------------------*- C++ -*----------------------------------*\
| =========                 |                                                 |
| \\      /  F ield         | OpenFOAM: The Open Source CFD Toolbox           |
|  \\    /   O peration     | Version:  3.0.1                                 |
|   \\  /    A nd           | Web:      www.OpenFOAM.org                      |
|    \\/     M anipulation  |                                                 |
\*---------------------------------------------------------------------------*/
FoamFile
{
    version     2.0;
    format      ascii;
    class       volScalarField;
    location    "24";
    object      TS;
}
// * * * * * * * * * * * * * * * * * * * * * * * * * * * * * * * * * * * * * //

dimensions      [0 0 0 1 0 0 0];

internalField   nonuniform List<scalar> 
800
(
338.45925
338.46451
338.46538
338.46549
338.46551
338.46554
338.46557
338.46559
338.46561
338.46562
338.46562
338.46561
338.46559
338.46557
338.46554
338.46551
338.46549
338.46538
338.46451
338.45925
336.63481
336.70158
336.71538
336.71719
336.71673
336.71618
336.71592
336.71586
336.71588
336.71591
336.71591
336.71588
336.71586
336.71592
336.71618
336.71673
336.71719
336.71538
336.70158
336.63481
335.1129
335.21472
335.24161
335.24596
335.24572
335.24502
335.24464
335.24457
335.24462
335.24467
335.24467
335.24462
335.24457
335.24464
335.24501
335.24572
335.24596
335.24161
335.21472
335.1129
333.96415
334.0914
334.12909
334.13539
334.13524
334.13434
334.13384
334.13371
334.13375
334.13381
334.13381
334.13375
334.13371
334.13384
334.13434
334.13524
334.13539
334.12909
334.0914
333.96415
333.20965
333.35105
333.39938
333.40764
333.40743
333.40616
333.40543
333.40516
333.40514
333.40518
333.40518
333.40514
333.40516
333.40543
333.40616
333.40743
333.40764
333.39938
333.35105
333.20965
332.82182
332.96971
333.03107
333.04189
333.04167
333.03991
333.03883
333.03831
333.03817
333.03814
333.03814
333.03817
333.03831
333.03883
333.03991
333.04167
333.04189
333.03107
332.96972
332.82182
332.71916
332.87667
332.94862
332.96328
332.96338
332.96112
332.95964
332.9588
332.9585
332.95838
332.95839
332.9585
332.9588
332.95964
332.96112
332.96338
332.96328
332.94862
332.87667
332.71916
332.75332
332.93951
333.01601
333.03688
333.038
333.03552
333.03376
333.03268
333.03226
333.03208
333.03208
333.03226
333.03268
333.03376
333.03552
333.03801
333.03688
333.01602
332.93952
332.75333
332.68511
332.93769
333.01713
333.04849
333.0525
333.05047
333.04901
333.04809
333.04781
333.04768
333.04768
333.04781
333.04809
333.04901
333.05047
333.05251
333.0485
333.01714
332.93769
332.68512
332.15385
332.52971
332.62219
332.67155
332.68325
332.68431
332.68488
332.68524
332.68576
332.68601
332.68601
332.68577
332.68524
332.68488
332.68431
332.68326
332.67156
332.6222
332.52972
332.15386
330.58335
331.16255
331.29448
331.37663
331.41162
331.4231
331.42998
331.43426
331.43709
331.43843
331.43843
331.43709
331.43427
331.42999
331.4231
331.41162
331.37664
331.29449
331.16256
330.58335
327.09725
327.91703
328.19555
328.3454
328.36053
328.39079
328.41046
328.4234
328.43575
328.43979
328.43979
328.43575
328.4234
328.41046
328.39079
328.36053
328.34541
328.19556
327.91703
327.09725
321.04557
321.92906
322.37947
322.50649
322.57058
322.62418
322.66199
322.6966
322.78121
322.79883
322.79883
322.78121
322.6966
322.662
322.62418
322.57058
322.50649
322.37947
321.92907
321.04557
316.19679
316.28292
316.359
316.42051
316.46779
316.50509
316.53575
316.56008
316.55399
316.56339
316.56339
316.55399
316.56008
316.53575
316.50509
316.46778
316.42051
316.359
316.28291
316.19679
313.55859
313.56697
313.59757
313.6364
313.67426
313.70773
313.73564
313.7565
313.76695
313.7737
313.7737
313.76695
313.7565
313.73564
313.70773
313.67426
313.6364
313.59757
313.56697
313.55859
312.03476
312.05244
312.08384
312.12116
312.15809
312.19113
312.2187
312.23964
312.25292
312.25988
312.25988
312.25292
312.23963
312.2187
312.19113
312.15808
312.12116
312.08383
312.05244
312.03476
310.62301
310.65291
310.69077
310.73066
310.76853
310.80183
310.82934
310.85029
310.86423
310.8713
310.8713
310.86423
310.85029
310.82934
310.80183
310.76852
310.73066
310.69076
310.65291
310.62301
309.32297
309.36889
309.41893
309.46555
309.50657
309.54112
309.56887
309.58972
309.60362
309.61059
309.61059
309.60362
309.58972
309.56887
309.54112
309.50657
309.46554
309.41893
309.36889
309.32297
308.14006
308.1979
308.26078
308.31652
308.36294
308.40025
308.42915
308.45031
308.46419
308.47108
308.47108
308.46419
308.45031
308.42915
308.40025
308.36294
308.31652
308.26077
308.19789
308.14005
307.07314
307.13709
307.2096
307.27402
307.32666
307.36785
307.39889
307.42106
307.43534
307.44233
307.44233
307.43534
307.42106
307.39889
307.36785
307.32666
307.27402
307.2096
307.13709
307.07314
306.11564
306.18103
306.25889
306.3297
306.3879
306.43318
306.4669
306.49064
306.50574
306.51307
306.51307
306.50574
306.49064
306.4669
306.43318
306.3879
306.32969
306.25889
306.18103
306.11564
305.25846
305.32229
305.40166
305.476
305.53817
305.58692
305.62325
305.64877
305.66491
305.67272
305.67272
305.66491
305.64876
305.62325
305.58692
305.53817
305.476
305.40166
305.32229
305.25846
304.49192
304.55253
304.6306
304.70579
304.77001
304.82109
304.8595
304.88659
304.90377
304.91208
304.91208
304.90377
304.88659
304.8595
304.82109
304.77001
304.70579
304.6306
304.55253
304.49192
303.80676
303.86338
303.93827
304.0122
304.07663
304.12873
304.16839
304.19661
304.21459
304.22333
304.22333
304.21459
304.19661
304.16839
304.12873
304.07663
304.01219
303.93827
303.86338
303.80676
303.19451
303.24684
303.31746
303.38858
303.45172
303.50359
303.54359
303.57234
303.59079
303.59979
303.59979
303.59079
303.57234
303.54359
303.50359
303.45172
303.38858
303.31746
303.24684
303.19451
302.64758
302.69559
302.76138
302.82868
302.88938
302.93995
302.97945
303.00812
303.02666
303.03574
303.03574
303.02666
303.00812
302.97945
302.93995
302.88938
302.82868
302.76138
302.6956
302.64758
302.15923
302.20304
302.26375
302.32665
302.38411
302.43258
302.47086
302.4989
302.51716
302.52614
302.52614
302.51716
302.4989
302.47086
302.43258
302.38411
302.32665
302.26375
302.20304
302.15923
301.72352
301.76332
301.81894
301.87714
301.93087
301.97666
302.01316
302.04013
302.05779
302.06652
302.06652
302.05779
302.04013
302.01316
301.97666
301.93087
301.87714
301.81894
301.76332
301.72352
301.33527
301.37128
301.42193
301.47534
301.52506
301.56781
301.60215
301.6277
301.64453
301.65287
301.65287
301.64453
301.6277
301.60215
301.56781
301.52506
301.47534
301.42193
301.37128
301.33527
300.98999
301.02243
301.0683
301.11696
301.16258
301.20207
301.23402
301.25792
301.27374
301.2816
301.2816
301.27374
301.25792
301.23402
301.20208
301.16258
301.11697
301.0683
301.02244
300.98999
300.68383
300.71292
300.75423
300.79828
300.83981
300.87597
300.90539
300.92751
300.9422
300.94952
300.94952
300.9422
300.92751
300.90539
300.87597
300.83981
300.79828
300.75423
300.71292
300.68383
300.41353
300.43948
300.47647
300.51609
300.55362
300.58646
300.61331
300.63357
300.64708
300.65383
300.65383
300.64708
300.63357
300.61331
300.58646
300.55362
300.51609
300.47647
300.43948
300.41353
300.1764
300.19941
300.23232
300.26771
300.30138
300.33098
300.35527
300.37369
300.386
300.39215
300.39215
300.386
300.37369
300.35527
300.33098
300.30138
300.26771
300.23232
300.19942
300.1764
299.97033
299.99057
300.01961
300.05099
300.08097
300.10745
300.12927
300.14587
300.157
300.16257
300.16257
300.157
300.14587
300.12927
300.10745
300.08097
300.05099
300.01961
299.99057
299.97033
299.79373
299.81134
299.83675
299.86434
299.89084
299.91435
299.93382
299.94868
299.95867
299.96368
299.96368
299.95867
299.94868
299.93382
299.91435
299.89084
299.86434
299.83675
299.81135
299.79373
299.64559
299.66072
299.68271
299.70675
299.72999
299.75074
299.76801
299.78125
299.79018
299.79467
299.79467
299.79018
299.78125
299.76801
299.75074
299.72999
299.70675
299.68271
299.66072
299.64559
299.52549
299.53828
299.55708
299.57785
299.59812
299.61636
299.63165
299.64343
299.6514
299.65542
299.65542
299.6514
299.64343
299.63165
299.61636
299.59812
299.57785
299.55708
299.53828
299.52549
299.43362
299.44425
299.46018
299.47805
299.49573
299.5118
299.52538
299.53591
299.54307
299.54669
299.54669
299.54308
299.53591
299.52538
299.5118
299.49573
299.47805
299.46018
299.44426
299.43362
299.3708
299.37957
299.3931
299.40863
299.42425
299.43863
299.4509
299.46048
299.46703
299.47035
299.47035
299.46703
299.46048
299.4509
299.43863
299.42425
299.40863
299.3931
299.37958
299.3708
299.33848
299.34596
299.35793
299.372
299.38637
299.39975
299.41125
299.42029
299.42648
299.42963
299.42963
299.42648
299.42029
299.41125
299.39975
299.38637
299.372
299.35793
299.34596
299.33848
)
;

boundaryField
{
    Wall
    {
        type            zeroGradient;
    }
    frontAndBack
    {
        type            empty;
    }
    atmosphere
    {
        type            zeroGradient;
    }
}


// ************************************************************************* //
