/*--------------------------------*- C++ -*----------------------------------*\
| =========                 |                                                 |
| \\      /  F ield         | OpenFOAM: The Open Source CFD Toolbox           |
|  \\    /   O peration     | Version:  3.0.1                                 |
|   \\  /    A nd           | Web:      www.OpenFOAM.org                      |
|    \\/     M anipulation  |                                                 |
\*---------------------------------------------------------------------------*/
FoamFile
{
    version     2.0;
    format      ascii;
    class       volVectorField;
    location    "24";
    object      U;
}
// * * * * * * * * * * * * * * * * * * * * * * * * * * * * * * * * * * * * * //

dimensions      [0 1 -1 0 0 0 0];

internalField   nonuniform List<vector> 
800
(
(5.9424574e-06 0.00029459987 0)
(7.6343038e-06 0.00029683665 0)
(8.2021844e-06 0.00029806423 0)
(7.0494894e-06 0.0002984554 0)
(5.6068268e-06 0.00029844407 0)
(4.2948264e-06 0.00029830663 0)
(3.1490888e-06 0.00029816305 0)
(2.1470478e-06 0.00029805391 0)
(1.2482216e-06 0.00029798499 0)
(4.090608e-07 0.00029795235 0)
(-4.1079236e-07 0.00029795235 0)
(-1.2499556e-06 0.00029798497 0)
(-2.1487958e-06 0.00029805388 0)
(-3.1508615e-06 0.000298163 0)
(-4.2966112e-06 0.00029830655 0)
(-5.6085813e-06 0.00029844396 0)
(-7.0511234e-06 0.00029845522 0)
(-8.2036994e-06 0.000298064 0)
(-7.6355754e-06 0.00029683649 0)
(-5.9435085e-06 0.0002945993 0)
(3.5241218e-06 0.00052253469 0)
(5.0585749e-06 0.00052882154 0)
(6.8264313e-06 0.00053181507 0)
(6.294106e-06 0.00053290039 0)
(5.2233144e-06 0.00053311814 0)
(4.10997e-06 0.00053301525 0)
(3.0587305e-06 0.00053283881 0)
(2.1012469e-06 0.00053268572 0)
(1.2258427e-06 0.0005325823 0)
(4.02377e-07 0.00053253135 0)
(-4.0369008e-07 0.00053253133 0)
(-1.2271537e-06 0.00053258223 0)
(-2.1025585e-06 0.00053268561 0)
(-3.0600372e-06 0.00053283868 0)
(-4.1112471e-06 0.00053301509 0)
(-5.224526e-06 0.00053311799 0)
(-6.2951947e-06 0.00053290021 0)
(-6.8273328e-06 0.00053181481 0)
(-5.0594282e-06 0.00052882123 0)
(-3.5248585e-06 0.00052253382 0)
(4.8250277e-06 0.00094136846 0)
(6.1815671e-06 0.00095292545 0)
(6.7284556e-06 0.00095818558 0)
(5.8805161e-06 0.00096017401 0)
(4.7956065e-06 0.00096064927 0)
(3.7460784e-06 0.00096053135 0)
(2.778605e-06 0.00096025283 0)
(1.9063226e-06 0.0009599939 0)
(1.1112245e-06 0.00095981204 0)
(3.6445315e-07 0.00095972057 0)
(-3.6599184e-07 0.00095972054 0)
(-1.1127374e-06 0.00095981196 0)
(-1.9077984e-06 0.00095999372 0)
(-2.780022e-06 0.00096025261 0)
(-3.747386e-06 0.00096053111 0)
(-4.7967632e-06 0.00096064904 0)
(-5.881493e-06 0.00096017378 0)
(-6.7291837e-06 0.00095818532 0)
(-6.1820269e-06 0.00095292508 0)
(-4.8252608e-06 0.00094136779 0)
(5.0240238e-06 0.0013379195 0)
(6.1736826e-06 0.0013522657 0)
(6.3541378e-06 0.0013589125 0)
(5.3377539e-06 0.001361426 0)
(4.2305646e-06 0.0013619637 0)
(3.2417546e-06 0.0013617497 0)
(2.3752369e-06 0.0013613459 0)
(1.6190243e-06 0.00136098 0)
(9.4061469e-07 0.0013607241 0)
(3.0799764e-07 0.001360596 0)
(-3.0971916e-07 0.001360596 0)
(-9.4232749e-07 0.001360724 0)
(-1.6206707e-06 0.0013609797 0)
(-2.3767466e-06 0.0013613456 0)
(-3.2430801e-06 0.0013617494 0)
(-4.2316748e-06 0.0013619634 0)
(-5.3386293e-06 0.0013614256 0)
(-6.3547084e-06 0.0013589122 0)
(-6.1739159e-06 0.0013522652 0)
(-5.0239649e-06 0.0013379188 0)
(4.8147817e-06 0.0017319275 0)
(5.8175675e-06 0.0017502009 0)
(5.8171741e-06 0.0017583967 0)
(4.667595e-06 0.001761368 0)
(3.524737e-06 0.0017618535 0)
(2.6178195e-06 0.0017614703 0)
(1.8808644e-06 0.0017609071 0)
(1.2683775e-06 0.0017604221 0)
(7.3309266e-07 0.0017600913 0)
(2.3966849e-07 0.0017599274 0)
(-2.4148259e-07 0.0017599274 0)
(-7.3499443e-07 0.0017600911 0)
(-1.2701703e-06 0.0017604218 0)
(-1.8823779e-06 0.0017609067 0)
(-2.6191176e-06 0.0017614698 0)
(-3.5257857e-06 0.0017618531 0)
(-4.6683704e-06 0.0017613675 0)
(-5.81759e-06 0.0017583961 0)
(-5.8176068e-06 0.0017502002 0)
(-4.8144815e-06 0.0017319267 0)
(4.9099717e-06 0.0021425368 0)
(5.7986246e-06 0.002165231 0)
(5.2902239e-06 0.0021748653 0)
(3.8872349e-06 0.0021781018 0)
(2.6650115e-06 0.0021783445 0)
(1.8733086e-06 0.0021776843 0)
(1.3037815e-06 0.002176915 0)
(8.6719361e-07 0.0021762962 0)
(4.9979936e-07 0.0021758898 0)
(1.6334189e-07 0.002175693 0)
(-1.6531102e-07 0.0021756929 0)
(-5.0172872e-07 0.0021758895 0)
(-8.6897927e-07 0.0021762959 0)
(-1.305357e-06 0.0021769146 0)
(-1.8746099e-06 0.0021776838 0)
(-2.6660029e-06 0.0021783439 0)
(-3.887915e-06 0.0021781011 0)
(-5.2905299e-06 0.0021748645 0)
(-5.7985465e-06 0.0021652301 0)
(-4.9095186e-06 0.0021425359 0)
(5.1431848e-06 0.0025782341 0)
(5.8800253e-06 0.002605166 0)
(4.5223746e-06 0.0026158502 0)
(2.8156545e-06 0.0026190157 0)
(1.5407659e-06 0.0026187275 0)
(9.7376572e-07 0.0026176143 0)
(6.4928192e-07 0.0026165962 0)
(4.328678e-07 0.0026158435 0)
(2.5629435e-07 0.0026153726 0)
(8.5596409e-08 0.0026151535 0)
(-8.7647553e-08 0.0026151534 0)
(-2.5823181e-07 0.0026153724 0)
(-4.346499e-07 0.0026158431 0)
(-6.5090037e-07 0.0026165956 0)
(-9.7505409e-07 0.0026176136 0)
(-1.5417251e-06 0.0026187267 0)
(-2.8162832e-06 0.0026190148 0)
(-4.5226542e-06 0.0026158492 0)
(-5.8799118e-06 0.0026051648 0)
(-5.1426355e-06 0.0025782329 0)
(4.9452963e-06 0.0030475112 0)
(5.6189708e-06 0.0030784378 0)
(3.2466752e-06 0.0030895167 0)
(1.2362445e-06 0.0030922035 0)
(-2.3691688e-08 0.0030912742 0)
(-1.4441915e-07 0.0030895902 0)
(-5.6091116e-08 0.0030883296 0)
(3.7244382e-09 0.0030874842 0)
(3.2681176e-08 0.0030869863 0)
(1.8137357e-08 0.0030867708 0)
(-2.0197649e-08 0.0030867707 0)
(-3.4615366e-08 0.003086986 0)
(-5.5506565e-09 0.0030874838 0)
(5.4437465e-08 0.003088329 0)
(1.4316029e-07 0.0030895895 0)
(2.2731973e-08 0.0030912732 0)
(-1.2368841e-06 0.0030922025 0)
(-3.2470011e-06 0.0030895154 0)
(-5.6189436e-06 0.0030784363 0)
(-4.9448037e-06 0.0030475097 0)
(3.7299194e-06 0.0035599694 0)
(4.4035288e-06 0.003594845 0)
(9.7828188e-07 0.0036052555 0)
(-8.9503758e-07 0.0036069035 0)
(-1.9237049e-06 0.0036050876 0)
(-1.4322465e-06 0.0036032029 0)
(-7.3199493e-07 0.0036018928 0)
(-3.4424715e-07 0.0036010729 0)
(-1.1853742e-07 0.0036006306 0)
(-1.8944482e-08 0.0036004737 0)
(1.6885418e-08 0.0036004736 0)
(1.1658053e-07 0.0036006303 0)
(3.4247707e-07 0.0036010724 0)
(7.3037355e-07 0.0036018921 0)
(1.4309573e-06 0.0036032021 0)
(1.9227049e-06 0.0036050866 0)
(8.9434302e-07 0.0036069023 0)
(-9.7866288e-07 0.0036052541 0)
(-4.4036564e-06 0.0035948435 0)
(-3.7296326e-06 0.0035599677 0)
(1.1649345e-06 0.0041249725 0)
(1.6149682e-06 0.0041621089 0)
(-3.0190977e-06 0.0041711407 0)
(-4.0177814e-06 0.0041713658 0)
(-4.0128437e-06 0.0041686549 0)
(-2.3681179e-06 0.0041669057 0)
(-1.1431377e-06 0.0041657445 0)
(-4.8185677e-07 0.0041651287 0)
(-1.1129448e-07 0.0041648673 0)
(8.3915604e-09 0.0041648593 0)
(-1.0386454e-08 0.0041648592 0)
(1.0937735e-07 0.0041648671 0)
(4.8012206e-07 0.0041651283 0)
(1.141547e-06 0.0041657438 0)
(2.3667866e-06 0.0041669049 0)
(4.0117887e-06 0.0041686538 0)
(4.017018e-06 0.0041713646 0)
(3.0186686e-06 0.0041711393 0)
(-1.6152497e-06 0.0041621074 0)
(-1.1648937e-06 0.0041249708 0)
(-4.828751e-06 0.004749783 0)
(-4.448518e-06 0.0047859899 0)
(-8.6376015e-06 0.0047927372 0)
(-8.0216846e-06 0.0047914482 0)
(-6.258533e-06 0.0047884716 0)
(-3.0254869e-06 0.0047870396 0)
(-1.2291587e-06 0.0047862106 0)
(-2.9969349e-07 0.0047860526 0)
(1.4181024e-07 0.0047860916 0)
(1.3893355e-07 0.0047863414 0)
(-1.408003e-07 0.0047863413 0)
(-1.4359796e-07 0.0047860915 0)
(2.9800383e-07 0.0047860522 0)
(1.2276048e-06 0.00478621 0)
(3.0241568e-06 0.0047870388 0)
(6.2574589e-06 0.0047884706 0)
(8.0208975e-06 0.0047914471 0)
(8.6371386e-06 0.004792736 0)
(4.4481564e-06 0.0047859886 0)
(4.8286486e-06 0.0047497817 0)
(-1.5567346e-05 0.0054339471 0)
(-1.5946479e-05 0.0054669766 0)
(-1.6229945e-05 0.0054697673 0)
(-1.2618895e-05 0.0054680496 0)
(-8.5630107e-06 0.0054658786 0)
(-3.5634657e-06 0.0054652785 0)
(-9.5307369e-07 0.0054651457 0)
(2.3110803e-07 0.005465674 0)
(6.3376031e-07 0.005466158 0)
(3.8785949e-07 0.0054666403 0)
(-3.8950813e-07 0.0054666403 0)
(-6.3529925e-07 0.0054661579 0)
(-2.3272946e-07 0.0054656738 0)
(9.5161047e-07 0.0054651453 0)
(3.5622018e-06 0.0054652781 0)
(8.561965e-06 0.005465878 0)
(1.2618115e-05 0.0054680489 0)
(1.6229461e-05 0.0054697665 0)
(1.5946143e-05 0.0054669757 0)
(1.5567249e-05 0.0054339465 0)
(-2.9419538e-05 0.00608339 0)
(-3.3460346e-05 0.0061103359 0)
(-2.5231859e-05 0.0061124827 0)
(-1.6650459e-05 0.0061128062 0)
(-1.0674673e-05 0.0061142475 0)
(-3.8496199e-06 0.0061157959 0)
(-3.6964092e-07 0.0061170219 0)
(8.7424338e-07 0.0061183921 0)
(1.0827747e-06 0.006120772 0)
(6.1759792e-07 0.0061213854 0)
(-6.1898297e-07 0.0061213855 0)
(-1.0840988e-06 0.0061207719 0)
(-8.7562831e-07 0.0061183922 0)
(3.6834507e-07 0.0061170218 0)
(3.8484779e-06 0.0061157958 0)
(1.0673714e-05 0.0061142473 0)
(1.6649758e-05 0.006112806 0)
(2.5231424e-05 0.0061124825 0)
(3.3460157e-05 0.0061103356 0)
(2.9419561e-05 0.0060833902 0)
(-4.2626853e-05 0.0066157569 0)
(-4.8343045e-05 0.0066458185 0)
(-2.8530473e-05 0.0066538251 0)
(-1.6747051e-05 0.0066595375 0)
(-1.0175976e-05 0.0066676582 0)
(-3.0419514e-06 0.006672923 0)
(6.1033034e-07 0.0066762079 0)
(2.4788026e-06 0.0066785791 0)
(2.3749946e-06 0.0066810552 0)
(7.6212451e-07 0.0066817068 0)
(-7.6328836e-07 0.0066817069 0)
(-2.3761057e-06 0.0066810554 0)
(-2.4799727e-06 0.0066785793 0)
(-6.1151297e-07 0.0066762082 0)
(3.0409288e-06 0.0066729232 0)
(1.0175081e-05 0.0066676583 0)
(1.6746419e-05 0.0066595374 0)
(2.8530101e-05 0.0066538251 0)
(4.8342971e-05 0.0066458185 0)
(4.2626964e-05 0.0066157575 0)
(-2.9433715e-06 0.007136866 0)
(-1.2912418e-06 0.0071342176 0)
(-3.3560231e-06 0.0071342496 0)
(-1.0859265e-06 0.0071392801 0)
(-2.3805158e-07 0.007150026 0)
(3.1419833e-06 0.0071565521 0)
(4.4775281e-06 0.0071607076 0)
(4.0585786e-06 0.0071631776 0)
(2.7981441e-06 0.0071625993 0)
(1.1011071e-06 0.0071629595 0)
(-1.1022575e-06 0.0071629596 0)
(-2.7992636e-06 0.0071625996 0)
(-4.0597477e-06 0.0071631778 0)
(-4.478737e-06 0.0071607079 0)
(-3.1430277e-06 0.0071565522 0)
(2.3704472e-07 0.007150026 0)
(1.0851928e-06 0.00713928 0)
(3.3556441e-06 0.0071342496 0)
(1.2913084e-06 0.0071342176 0)
(2.9436745e-06 0.0071368671 0)
(0.00027525417 0.0072733802 0)
(0.00033098291 0.0074621618 0)
(0.00020668247 0.0074722415 0)
(0.00012566739 0.0074772653 0)
(7.9484847e-05 0.0074904597 0)
(5.4487219e-05 0.0074987773 0)
(3.7816399e-05 0.0075055574 0)
(2.4580424e-05 0.0075094052 0)
(1.3901895e-05 0.0075093097 0)
(4.8246041e-06 0.0075098283 0)
(-4.8268233e-06 0.0075098284 0)
(-1.3904126e-05 0.0075093106 0)
(-2.4582648e-05 0.007509406 0)
(-3.781853e-05 0.0075055585 0)
(-5.4489177e-05 0.0074987783 0)
(-7.9486659e-05 0.0074904606 0)
(-0.00012566886 0.0074772668 0)
(-0.00020668339 0.0074722429 0)
(-0.0003309829 0.0074621636 0)
(-0.00027525357 0.0072733848 0)
(0.00079696403 0.0060717656 0)
(0.0013320488 0.0072680821 0)
(0.001160391 0.0073503735 0)
(0.00088083643 0.0073067273 0)
(0.00063834349 0.007271261 0)
(0.00045370431 0.0072484892 0)
(0.00031389941 0.007237447 0)
(0.00020500686 0.0072312504 0)
(0.00011584456 0.0072287666 0)
(3.7905352e-05 0.0072268622 0)
(-3.7911342e-05 0.0072268628 0)
(-0.00011585052 0.0072287683 0)
(-0.00020501279 0.0072312525 0)
(-0.00031390477 0.0072374497 0)
(-0.00045370918 0.0072484921 0)
(-0.00063834862 0.0072712641 0)
(-0.00088084098 0.0073067302 0)
(-0.0011603942 0.007350377 0)
(-0.0013320516 0.0072680854 0)
(-0.00079696476 0.0060717737 0)
(0.00067573773 0.0047342778 0)
(0.0013964528 0.0069005304 0)
(0.0014753273 0.0073852018 0)
(0.0012906751 0.0074303734 0)
(0.0010341254 0.0073714094 0)
(0.00078566151 0.0073010937 0)
(0.00056790465 0.0072450229 0)
(0.00038130037 0.0072054628 0)
(0.0002189471 0.0071816423 0)
(7.2049325e-05 0.0071692508 0)
(-7.2053432e-05 0.0071692513 0)
(-0.00021895116 0.0071816435 0)
(-0.0003813043 0.0072054638 0)
(-0.00056790862 0.0072450241 0)
(-0.00078566542 0.0073010956 0)
(-0.0010341275 0.0073714113 0)
(-0.0012906772 0.0074303756 0)
(-0.0014753309 0.0073852028 0)
(-0.0013964546 0.006900533 0)
(-0.00067573793 0.0047342799 0)
(0.0004299089 0.0038010468 0)
(0.0010873658 0.0065024417 0)
(0.0013219576 0.0074011162 0)
(0.0012790332 0.0076402044 0)
(0.0011055031 0.0076435519 0)
(0.00088817553 0.0075752354 0)
(0.00066804757 0.0074985758 0)
(0.00046082141 0.0074355709 0)
(0.00026904344 0.007393215 0)
(8.9295215e-05 0.007371374 0)
(-8.9297544e-05 0.0073713742 0)
(-0.00026904534 0.0073932148 0)
(-0.00046082343 0.0074355706 0)
(-0.0006680491 0.0074985756 0)
(-0.00088817668 0.0075752354 0)
(-0.0011055046 0.0076435521 0)
(-0.0012790347 0.0076402037 0)
(-0.0013219594 0.0074011162 0)
(-0.0010873677 0.0065024439 0)
(-0.00042990987 0.0038010496 0)
(0.00024245752 0.0031857395 0)
(0.00074511982 0.006078538 0)
(0.0010296539 0.0072767293 0)
(0.0010853743 0.0077140054 0)
(0.0010008535 0.0078192868 0)
(0.00084517961 0.0077913949 0)
(0.00065997591 0.007722548 0)
(0.00046756521 0.007653892 0)
(0.00027769049 0.0076030202 0)
(9.295559e-05 0.0075760972 0)
(-9.2956564e-05 0.007576097 0)
(-0.00027769143 0.0076030194 0)
(-0.00046756549 0.0076538903 0)
(-0.00065997606 0.0077225469 0)
(-0.00084517993 0.0077913933 0)
(-0.0010008533 0.0078192854 0)
(-0.0010853742 0.0077140045 0)
(-0.0010296545 0.0072767293 0)
(-0.00074512082 0.0060785397 0)
(-0.00024245809 0.0031857425 0)
(0.00012913487 0.0028051819 0)
(0.00047473184 0.0057125864 0)
(0.00074199983 0.0070927858 0)
(0.0008451506 0.0076907848 0)
(0.00082590968 0.0079021949 0)
(0.0007295332 0.0079334828 0)
(0.00058954403 0.0078921016 0)
(0.00042824018 0.007833108 0)
(0.00025850926 0.0077837679 0)
(8.7200141e-05 0.0077564925 0)
(-8.7200179e-05 0.0077564918 0)
(-0.00025850959 0.0077837665 0)
(-0.00042823959 0.0078331061 0)
(-0.00058954304 0.0078920991 0)
(-0.00072953262 0.0079334808 0)
(-0.00082590887 0.0079021935 0)
(-0.00084514969 0.0076907836 0)
(-0.00074199915 0.0070927857 0)
(-0.00047473199 0.0057125877 0)
(-0.00012913511 0.0028051843 0)
(6.7844048e-05 0.0025800418 0)
(0.00029097274 0.0054388537 0)
(0.00050958883 0.0069159178 0)
(0.00062275496 0.0076293016 0)
(0.00064144479 0.0079328668 0)
(0.00059015121 0.0080260959 0)
(0.00049201108 0.0080215338 0)
(0.00036567267 0.0079820023 0)
(0.00022406084 0.0079416865 0)
(7.6064656e-05 0.0079179232 0)
(-7.6064394e-05 0.0079179222 0)
(-0.00022406014 0.007941685 0)
(-0.00036567143 0.0079820003 0)
(-0.00049200981 0.0080215307 0)
(-0.00059014983 0.0080260935 0)
(-0.00064144348 0.0079328651 0)
(-0.00062275385 0.0076293004 0)
(-0.00050958806 0.006915918 0)
(-0.00029097254 0.0054388549 0)
(-6.7844092e-05 0.0025800438 0)
(3.623168e-05 0.0024484029 0)
(0.00017558688 0.0052478486 0)
(0.00033923383 0.0067692333 0)
(0.00044150169 0.0075583428 0)
(0.00047690714 0.0079337241 0)
(0.00045526976 0.0080825671 0)
(0.00039045313 0.0081161604 0)
(0.00029629246 0.0081003269 0)
(0.00018404789 0.0080731527 0)
(6.2831884e-05 0.0080552457 0)
(-6.2831121e-05 0.0080552448 0)
(-0.00018404688 0.008073151 0)
(-0.0002962911 0.0081003242 0)
(-0.00039045142 0.0081161576 0)
(-0.00045526799 0.0080825646 0)
(-0.00047690526 0.0079337227 0)
(-0.00044149988 0.007558342 0)
(-0.00033923276 0.0067692338 0)
(-0.00017558656 0.0052478501 0)
(-3.6231564e-05 0.002448405 0)
(1.9863352e-05 0.0023710862 0)
(0.00010550688 0.0051195543 0)
(0.00022090609 0.0066567041 0)
(0.00030392153 0.0074918481 0)
(0.00034271492 0.007919039 0)
(0.00033834089 0.0081132386 0)
(0.00029776273 0.0081814395 0)
(0.0002302772 0.0081893565 0)
(0.00014482227 0.0081765885 0)
(4.9679587e-05 0.0081654391 0)
(-4.967856e-05 0.0081654386 0)
(-0.00014482084 0.0081765868 0)
(-0.0002302753 0.0081893541 0)
(-0.00029776066 0.0081814374 0)
(-0.00033833865 0.0081132368 0)
(-0.00034271271 0.0079190385 0)
(-0.00030391976 0.0074918482 0)
(-0.00022090484 0.006656705 0)
(-0.00010550633 0.0051195563 0)
(-1.9863209e-05 0.0023710886 0)
(1.1122636e-05 0.0023253835 0)
(6.3282894e-05 0.0050357499 0)
(0.00014131714 0.0065751492 0)
(0.00020414309 0.0074364187 0)
(0.00023935036 0.0078988565 0)
(0.00024368549 0.0081276207 0)
(0.00021961781 0.0082246357 0)
(0.00017283066 0.0082538378 0)
(0.00010993945 0.0082547767 0)
(3.7877771e-05 0.0082502795 0)
(-3.7876473e-05 0.0082502791 0)
(-0.00010993756 0.0082547751 0)
(-0.00017282864 0.0082538356 0)
(-0.00021961561 0.0082246341 0)
(-0.00024368301 0.0081276196 0)
(-0.00023934806 0.0078988561 0)
(-0.00020414128 0.0074364193 0)
(-0.00014131545 0.0065751503 0)
(-6.328182e-05 0.0050357521 0)
(-1.11223e-05 0.0023253859 0)
(6.2854484e-06 0.0022983062 0)
(3.7786427e-05 0.004982215 0)
(8.89149e-05 0.0065185373 0)
(0.00013410739 0.0073936315 0)
(0.00016294129 0.0078789404 0)
(0.00017069645 0.0081327263 0)
(0.00015728076 0.008252305 0)
(0.00012579951 0.0082992184 0)
(8.0875238e-05 0.0083120845 0)
(2.7977345e-05 0.0083135163 0)
(-2.7976108e-05 0.0083135158 0)
(-8.0873511e-05 0.0083120831 0)
(-0.00012579746 0.0082992164 0)
(-0.00015727844 0.0082523036 0)
(-0.00017069392 0.0081327254 0)
(-0.00016293905 0.0078789402 0)
(-0.00013410567 0.0073936319 0)
(-8.891321e-05 0.0065185389 0)
(-3.778505e-05 0.0049822173 0)
(-6.2848654e-06 0.0022983088 0)
(3.5264873e-06 0.0022823343 0)
(2.2324574e-05 0.0049486778 0)
(5.4955891e-05 0.006480527 0)
(8.6194913e-05 0.0073623222 0)
(0.00010826046 0.007861861 0)
(0.00011650456 0.0081330183 0)
(0.00010962115 0.008269443 0)
(8.9036725e-05 0.0083303004 0)
(5.7817191e-05 0.0083529136 0)
(2.0078865e-05 0.0083592889 0)
(-2.0077855e-05 0.0083592885 0)
(-5.7815497e-05 0.0083529125 0)
(-8.9034697e-05 0.0083302988 0)
(-0.00010961906 0.0082694419 0)
(-0.00011650245 0.0081330177 0)
(-0.0001082589 0.0078618607 0)
(-8.6193452e-05 0.0073623232 0)
(-5.4954401e-05 0.0064805281 0)
(-2.2323622e-05 0.0049486799 0)
(-3.5259723e-06 0.002282337 0)
(1.9250988e-06 0.0022730436 0)
(1.2935469e-05 0.0049280876 0)
(3.3249617e-05 0.006455722 0)
(5.4128709e-05 0.0073403299 0)
(7.0186609e-05 0.0078483693 0)
(7.7521315e-05 0.0081311518 0)
(7.4434942e-05 0.0082796641 0)
(6.1362188e-05 0.0083510219 0)
(4.0234065e-05 0.0083812193 0)
(1.4027186e-05 0.0083915097 0)
(-1.4026058e-05 0.0083915095 0)
(-4.0232311e-05 0.0083812184 0)
(-6.1360674e-05 0.0083510206 0)
(-7.4433567e-05 0.0082796632 0)
(-7.7520244e-05 0.0081311513 0)
(-7.0185416e-05 0.0078483697 0)
(-5.4128633e-05 0.0073403308 0)
(-3.3249778e-05 0.0064557241 0)
(-1.2934941e-05 0.0049280907 0)
(-1.9250342e-06 0.0022730467 0)
(9.9074645e-07 0.0022677843 0)
(7.2546039e-06 0.0049157491 0)
(1.9569538e-05 0.0064399756 0)
(3.3104446e-05 0.0073254111 0)
(4.4327816e-05 0.007838305 0)
(5.0251167e-05 0.0081286066 0)
(4.9237735e-05 0.0082854939 0)
(4.119343e-05 0.0083644662 0)
(2.7269836e-05 0.0084003298 0)
(9.5456108e-06 0.0084135933 0)
(-9.5443995e-06 0.0084135929 0)
(-2.7268787e-05 0.0084003289 0)
(-4.1192314e-05 0.008364465 0)
(-4.9236718e-05 0.0082854932 0)
(-5.0250076e-05 0.0081286067 0)
(-4.4328047e-05 0.0078383051 0)
(-3.310464e-05 0.0073254125 0)
(-1.9568725e-05 0.0064399796 0)
(-7.254316e-06 0.0049157533 0)
(-9.9056188e-07 0.0022677877 0)
(4.5272435e-07 0.0022649379 0)
(3.8574198e-06 0.0049085841 0)
(1.108811e-05 0.0064302637 0)
(1.9597932e-05 0.0073156092 0)
(2.7175615e-05 0.0078311217 0)
(3.1666643e-05 0.0081261246 0)
(3.1688659e-05 0.0082886298 0)
(2.6918003e-05 0.0083729416 0)
(1.7995417e-05 0.0084128921 0)
(6.3258836e-06 0.0084283333 0)
(-6.3253288e-06 0.0084283329 0)
(-1.7995032e-05 0.0084128912 0)
(-2.6917447e-05 0.0083729404 0)
(-3.1687704e-05 0.0082886294 0)
(-3.1666729e-05 0.008126125 0)
(-2.7175832e-05 0.0078311218 0)
(-1.9597292e-05 0.0073156118 0)
(-1.1087882e-05 0.0064302675 0)
(-3.8571998e-06 0.0049085882 0)
(-4.5250631e-07 0.0022649412 0)
(1.511682e-07 0.0022635144 0)
(1.8664087e-06 0.004904599 0)
(5.9386544e-06 0.0064244656 0)
(1.1115465e-05 0.0073093619 0)
(1.6070047e-05 0.0078261808 0)
(1.932044e-05 0.0081240148 0)
(1.97875e-05 0.0082901722 0)
(1.7087421e-05 0.0083781131 0)
(1.1543872e-05 0.0084209189 0)
(4.0768828e-06 0.0084379049 0)
(-4.0767953e-06 0.0084379045 0)
(-1.1544e-05 0.0084209182 0)
(-1.7087396e-05 0.008378112 0)
(-1.9786745e-05 0.0082901717 0)
(-1.9320765e-05 0.0081240146 0)
(-1.6070705e-05 0.0078261818 0)
(-1.1115326e-05 0.0073093644 0)
(-5.938758e-06 0.0064244695 0)
(-1.8663767e-06 0.0049046035 0)
(-1.5104336e-07 0.0022635185 0)
(-9.8215789e-09 0.0022629085 0)
(7.3605146e-07 0.0049025264 0)
(2.8964101e-06 0.0064211454 0)
(5.9268502e-06 0.0073055076 0)
(9.0649271e-06 0.0078228902 0)
(1.1330712e-05 0.0081223565 0)
(1.192839e-05 0.008290812 0)
(1.0497703e-05 0.0083811462 0)
(7.1767109e-06 0.0084258881 0)
(2.5479627e-06 0.0084439374 0)
(-2.5487767e-06 0.0084439369 0)
(-7.1772651e-06 0.0084258872 0)
(-1.0498188e-05 0.0083811448 0)
(-1.1928447e-05 0.0082908114 0)
(-1.1331879e-05 0.008122356 0)
(-9.0659141e-06 0.0078228913 0)
(-5.9268286e-06 0.0073055103 0)
(-2.8970034e-06 0.0064211497 0)
(-7.3622686e-07 0.0049025313 0)
(9.9802161e-09 0.0022629127 0)
(-8.5358575e-08 0.002262757 0)
(1.2831953e-07 0.0049015626 0)
(1.1667948e-06 0.0064193494 0)
(2.8552855e-06 0.0073032161 0)
(4.7772048e-06 0.0078207649 0)
(6.3072419e-06 0.0081211196 0)
(6.8825725e-06 0.0082909701 0)
(6.2015162e-06 0.0083828343 0)
(4.3008167e-06 0.0084288511 0)
(1.5367694e-06 0.0084476115 0)
(-1.5378044e-06 0.008447611 0)
(-4.3016589e-06 0.0084288502 0)
(-6.2023793e-06 0.0083828331 0)
(-6.8829333e-06 0.0082909695 0)
(-6.3084582e-06 0.0081211194 0)
(-4.7786753e-06 0.0078207662 0)
(-2.8557857e-06 0.0073032192 0)
(-1.1670173e-06 0.0064193538 0)
(-1.2829443e-07 0.0049015674 0)
(8.5494807e-08 0.0022627612 0)
(-1.0930969e-07 0.0022628407 0)
(-1.6654027e-07 0.0049012133 0)
(2.3786483e-07 0.0064184553 0)
(1.1158397e-06 0.0073019149 0)
(2.2495304e-06 0.0078194345 0)
(3.2527643e-06 0.0081202326 0)
(3.7428189e-06 0.0082908942 0)
(3.4832415e-06 0.0083837044 0)
(2.4615264e-06 0.0084305356 0)
(8.8674844e-07 0.0084497579 0)
(-8.8830688e-07 0.0084497576 0)
(-2.4628358e-06 0.0084305348 0)
(-3.4844916e-06 0.0083837037 0)
(-3.7435877e-06 0.0082908935 0)
(-3.2545936e-06 0.0081202324 0)
(-2.2512907e-06 0.0078194361 0)
(-1.1165928e-06 0.0073019175 0)
(-2.3855488e-07 0.0064184597 0)
(1.6658899e-07 0.0049012182 0)
(1.0947688e-07 0.0022628454 0)
(-1.0181125e-07 0.0022630063 0)
(-2.7578815e-07 0.0049012088 0)
(-2.1050321e-07 0.0064180706 0)
(1.9566272e-07 0.0073012154 0)
(8.3428497e-07 0.0078186292 0)
(1.474467e-06 0.0081196167 0)
(1.8619268e-06 0.008290724 0)
(1.8228181e-06 0.0083840978 0)
(1.324487e-06 0.0084314323 0)
(4.8280006e-07 0.0084509459 0)
(-4.8479234e-07 0.0084509458 0)
(-1.3265297e-06 0.008431432 0)
(-1.8248024e-06 0.0083840972 0)
(-1.8632875e-06 0.0082907235 0)
(-1.4759315e-06 0.0081196167 0)
(-8.3628323e-07 0.007818631 0)
(-1.9689557e-07 0.0073012184 0)
(2.1003017e-07 0.0064180752 0)
(2.7566321e-07 0.0049012141 0)
(1.0196528e-07 0.0022630114 0)
(-8.2838944e-08 0.0022631871 0)
(-2.7925488e-07 0.0049013452 0)
(-3.7249522e-07 0.0064179815 0)
(-2.3125266e-07 0.0073008716 0)
(1.0526253e-07 0.0078181592 0)
(5.0095612e-07 0.008119202 0)
(7.9162026e-07 0.0082905355 0)
(8.5379772e-07 0.0083842294 0)
(6.5034392e-07 0.0084318642 0)
(2.4134233e-07 0.0084515552 0)
(-2.4399914e-07 0.008451555 0)
(-6.530554e-07 0.0084318639 0)
(-8.5633138e-07 0.0083842291 0)
(-7.9351039e-07 0.0082905354 0)
(-5.0276689e-07 0.0081192022 0)
(-1.070368e-07 0.0078181604 0)
(2.2981144e-07 0.0073008748 0)
(3.7165591e-07 0.0064179863 0)
(2.7922521e-07 0.0049013511 0)
(8.3042425e-08 0.0022631925 0)
(-5.9747691e-08 0.0022633575 0)
(-2.2820767e-07 0.0049015314 0)
(-3.6958615e-07 0.0064180386 0)
(-3.649829e-07 0.0073007504 0)
(-2.0999492e-07 0.0078179094 0)
(2.2568181e-08 0.0081189396 0)
(2.2942573e-07 0.0082903758 0)
(3.2467988e-07 0.0083842403 0)
(2.7402342e-07 0.0084320461 0)
(1.0512607e-07 0.0084518411 0)
(-1.0836332e-07 0.0084518408 0)
(-2.7690843e-07 0.0084320457 0)
(-3.2749025e-07 0.0083842399 0)
(-2.3194826e-07 0.0082903755 0)
(-2.4842985e-08 0.0081189398 0)
(2.0825396e-07 0.0078179105 0)
(3.6400865e-07 0.0073007529 0)
(3.6946631e-07 0.006418043 0)
(2.2885933e-07 0.0049015372 0)
(6.0202595e-08 0.0022633631 0)
(-3.4024542e-08 0.0022634536 0)
(-1.4943491e-07 0.0049016663 0)
(-2.7706496e-07 0.0064181198 0)
(-3.3150771e-07 0.0073007177 0)
(-2.8182666e-07 0.0078177726 0)
(-1.5825576e-07 0.0081187612 0)
(-2.2455982e-08 0.0082902309 0)
(6.7758226e-08 0.0083841797 0)
(8.3742407e-08 0.0084320777 0)
(3.5103136e-08 0.0084519303 0)
(-3.8534996e-08 0.0084519302 0)
(-8.6996561e-08 0.0084320771 0)
(-7.0874419e-08 0.0083841793 0)
(1.9423779e-08 0.0082902303 0)
(1.5563901e-07 0.0081187612 0)
(2.8007042e-07 0.0078177738 0)
(3.3050867e-07 0.0073007203 0)
(2.7703254e-07 0.0064181239 0)
(1.5011805e-07 0.004901672 0)
(3.4474983e-08 0.0022634598 0)
(-4.906101e-09 0.0022629942 0)
(-5.6577049e-08 0.0049012539 0)
(-1.4226945e-07 0.0064177437 0)
(-2.1287375e-07 0.0073002997 0)
(-2.2050927e-07 0.0078172878 0)
(-1.6900754e-07 0.0081182344 0)
(-9.2125497e-08 0.008289705 0)
(-2.6659518e-08 0.0083836905 0)
(5.3125049e-09 0.0084316346 0)
(4.7384048e-09 0.0084515181 0)
(-8.5099431e-09 0.0084515182 0)
(-8.9281067e-09 0.0084316342 0)
(2.2886064e-08 0.00838369 0)
(8.8634891e-08 0.0082897044 0)
(1.6638355e-07 0.0081182341 0)
(2.1872255e-07 0.0078172889 0)
(2.1175967e-07 0.0073003017 0)
(1.4193577e-07 0.0064177478 0)
(5.7150005e-08 0.0049012597 0)
(5.3608607e-09 0.0022630011 0)
(1.9335493e-08 0.0022636234 0)
(2.0727138e-08 0.0049018938 0)
(-2.6017075e-08 0.0064183992 0)
(-8.7561818e-08 0.0073009175 0)
(-1.1680775e-07 0.0078178384 0)
(-1.0599784e-07 0.0081187294 0)
(-7.1378372e-08 0.0082901773 0)
(-3.4918534e-08 0.0083841704 0)
(-1.1573e-08 0.0084321361 0)
(-3.1732495e-09 0.008452037 0)
(-9.7668038e-10 0.0084520372 0)
(7.5351326e-09 0.0084321361 0)
(3.0911255e-08 0.0083841699 0)
(6.7832039e-08 0.0082901762 0)
(1.033971e-07 0.008118728 0)
(1.1492122e-07 0.0078178384 0)
(8.656793e-08 0.0073009186 0)
(2.6117117e-08 0.0064184027 0)
(-2.0071207e-08 0.0049018996 0)
(-1.8902991e-08 0.002263631 0)
)
;

boundaryField
{
    Wall
    {
        type            fixedValue;
        value           uniform (0 0 0);
    }
    frontAndBack
    {
        type            empty;
    }
    atmosphere
    {
        type            pressureInletOutletVelocity;
        value           nonuniform List<vector> 
20
(
(1.9335493e-08 0.0022636234 0)
(2.0727138e-08 0.0049018938 0)
(-2.6017075e-08 0.0064183992 0)
(-8.7561818e-08 0.0073009175 0)
(-1.1680775e-07 0.0078178384 0)
(-1.0599784e-07 0.0081187294 0)
(-7.1378372e-08 0.0082901773 0)
(-3.4918534e-08 0.0083841704 0)
(-1.1573e-08 0.0084321361 0)
(-3.1732495e-09 0.008452037 0)
(-9.7668038e-10 0.0084520372 0)
(7.5351326e-09 0.0084321361 0)
(3.0911255e-08 0.0083841699 0)
(6.7832039e-08 0.0082901762 0)
(1.033971e-07 0.008118728 0)
(1.1492122e-07 0.0078178384 0)
(8.656793e-08 0.0073009186 0)
(2.6117117e-08 0.0064184027 0)
(-2.0071207e-08 0.0049018996 0)
(-1.8902991e-08 0.002263631 0)
)
;
    }
}


// ************************************************************************* //
