/*--------------------------------*- C++ -*----------------------------------*\
| =========                 |                                                 |
| \\      /  F ield         | OpenFOAM: The Open Source CFD Toolbox           |
|  \\    /   O peration     | Version:  3.0.1                                 |
|   \\  /    A nd           | Web:      www.OpenFOAM.org                      |
|    \\/     M anipulation  |                                                 |
\*---------------------------------------------------------------------------*/
FoamFile
{
    version     2.0;
    format      ascii;
    class       volScalarField;
    location    "24";
    object      wBA_g;
}
// * * * * * * * * * * * * * * * * * * * * * * * * * * * * * * * * * * * * * //

dimensions      [0 0 0 0 0 0 0];

internalField   nonuniform List<scalar> 
800
(
0.045515593
0.045518846
0.045519494
0.045519647
0.045519729
0.045519795
0.04551985
0.045519892
0.04551992
0.045519934
0.045519934
0.04551992
0.045519892
0.04551985
0.045519796
0.045519729
0.045519647
0.045519494
0.045518846
0.045515593
0.049129306
0.049107302
0.049101272
0.049099775
0.049099022
0.04909852
0.04909813
0.049097833
0.049097633
0.049097533
0.049097533
0.049097633
0.049097833
0.049098129
0.049098519
0.049099021
0.049099774
0.049101271
0.049107301
0.049129305
0.050696122
0.050682546
0.050705801
0.050704083
0.050702562
0.050701475
0.050700744
0.050700297
0.050700036
0.050699918
0.050699918
0.050700035
0.050700295
0.050700742
0.050701472
0.050702559
0.05070408
0.050705798
0.050682542
0.050696117
0.05053475
0.05055541
0.050602744
0.050600864
0.050598775
0.050597328
0.050596456
0.050596098
0.050595939
0.050595899
0.050595899
0.050595937
0.050596094
0.050596451
0.050597323
0.050598769
0.050600857
0.050602737
0.050555403
0.050534741
0.049087617
0.049163528
0.049213777
0.04923726
0.049233835
0.049231855
0.049230865
0.049230723
0.049230759
0.049230866
0.049230865
0.049230757
0.049230719
0.049230858
0.049231847
0.049233826
0.049237249
0.049213766
0.049163517
0.049087604
0.046857471
0.047014206
0.047041862
0.047091456
0.047084598
0.047081224
0.047079742
0.047079664
0.047079828
0.047080072
0.047080071
0.047079825
0.047079658
0.047079733
0.047081214
0.047084586
0.047091443
0.04704185
0.047014193
0.046857455
0.044315661
0.044569215
0.044563357
0.044619758
0.044606276
0.044599913
0.044597087
0.044596568
0.044596585
0.044596844
0.044596843
0.044596581
0.044596562
0.044597077
0.044599901
0.044606263
0.044619744
0.044563343
0.044569199
0.044315642
0.041848333
0.042147791
0.042154939
0.042194362
0.042170248
0.042158614
0.042153119
0.042151323
0.04215071
0.042150755
0.042150754
0.042150706
0.042151316
0.042153109
0.042158601
0.042170234
0.042194345
0.042154922
0.042147773
0.041848311
0.039600634
0.039960604
0.039966306
0.039969132
0.040011651
0.039991598
0.039981579
0.03997729
0.039975329
0.039974811
0.03997481
0.039975326
0.039977284
0.039981569
0.039991585
0.040011636
0.039969115
0.039966288
0.039960585
0.039600611
0.037245448
0.037932017
0.037870465
0.037823442
0.037921889
0.038022369
0.038005561
0.037997219
0.037992986
0.037991464
0.037991463
0.037992982
0.037997214
0.038005552
0.038022357
0.037921875
0.037823425
0.037870447
0.037931996
0.037245425
0.033941685
0.035124521
0.035200777
0.035100742
0.035404631
0.035574304
0.035547597
0.035533528
0.035526075
0.035523141
0.035523141
0.035526072
0.035533524
0.03554759
0.035574294
0.03540462
0.035100729
0.035200762
0.035124504
0.033941666
0.027457133
0.029563075
0.030092391
0.029946234
0.030716698
0.030870697
0.030840375
0.0308241
0.030816913
0.030813515
0.030813515
0.030816912
0.030824098
0.030840371
0.030870691
0.03071669
0.029946225
0.03009238
0.029563061
0.027457117
0.014176615
0.015890473
0.017313332
0.017271942
0.017871237
0.018002296
0.017993665
0.01798964
0.018856439
0.018853736
0.018853735
0.018856438
0.017989638
0.017993662
0.018002292
0.017871232
0.017271935
0.017313325
0.015890463
0.014176604
0.0073781939
0.0083459048
0.0086955872
0.0087031291
0.0090262556
0.0091168705
0.0091197494
0.0091233508
0.009227146
0.0092285207
0.0092285205
0.0092271452
0.0091233494
0.0091197471
0.0091168674
0.0090262516
0.0087031243
0.0086955819
0.0083458986
0.0073781875
0.003958702
0.004479788
0.0046440365
0.0046719866
0.0048228095
0.0048767355
0.0048820865
0.0048862116
0.0049010777
0.0049024024
0.0049024022
0.0049010772
0.0048862107
0.0048820851
0.0048767336
0.004822807
0.0046719836
0.0046440333
0.0044797845
0.003958699
0.0020204465
0.0023392915
0.0024626629
0.002500602
0.0025654741
0.0025925789
0.0025962798
0.0025985193
0.0026015102
0.0026020468
0.0026020467
0.0026015101
0.0025985187
0.002596279
0.0025925778
0.0025654726
0.0025006003
0.0024626612
0.0023392898
0.0020204455
0.0009028061
0.0011835359
0.0012981755
0.0013394652
0.0013673477
0.0013770003
0.0013761429
0.0013748652
0.0013747064
0.0013741787
0.0013741786
0.0013747062
0.0013748648
0.0013761424
0.0013769995
0.0013673468
0.0013394641
0.0012981745
0.001183535
0.00090280611
0.00031601666
0.00057328617
0.00068795945
0.000732883
0.00074907216
0.00075000674
0.00074493307
0.00074021466
0.00073737457
0.00073571649
0.00073571641
0.00073737441
0.00074021433
0.00074493267
0.00075000623
0.00074907157
0.00073288231
0.00068795879
0.00057328571
0.00031601682
8.3995974e-05
0.00026172686
0.00036077298
0.00040507218
0.00041928879
0.00041853097
0.00041249935
0.00040658715
0.00040254602
0.00040036332
0.00040036325
0.00040254585
0.00040658687
0.00041249904
0.00041853059
0.00041928838
0.00040507174
0.00036077258
0.00026172663
8.3996049e-05
1.738182e-05
0.00011205775
0.00018495272
0.00022283598
0.00023626735
0.00023646486
0.00023161965
0.00022635463
0.00022248742
0.00022040389
0.00022040382
0.00022248726
0.0002263544
0.0002316194
0.00023646459
0.00023626707
0.00022283571
0.0001849525
0.00011205764
1.7381836e-05
2.950714e-06
4.4839897e-05
9.1938834e-05
0.00012061708
0.00013224982
0.0001335331
0.00013041474
0.00012652973
0.00012350375
0.00012184987
0.00012184981
0.00012350362
0.00012652955
0.00013041455
0.00013353292
0.00013224964
0.00012061693
9.1938719e-05
4.4839849e-05
2.9507165e-06
4.3384213e-07
1.6767589e-05
4.4065469e-05
6.3721673e-05
7.2809152e-05
7.4582572e-05
7.2902224e-05
7.0379578e-05
6.8299756e-05
6.714088e-05
6.7140838e-05
6.8299661e-05
7.0379444e-05
7.2902091e-05
7.4582449e-05
7.2809045e-05
6.3721588e-05
4.4065416e-05
1.6767571e-05
4.3384249e-07
5.7664486e-08
5.8832826e-06
2.0295037e-05
3.2681798e-05
3.9160778e-05
4.0890206e-05
4.0147648e-05
3.8665932e-05
3.7366941e-05
3.6627396e-05
3.6627366e-05
3.7366874e-05
3.8665838e-05
4.0147558e-05
4.0890129e-05
3.9160717e-05
3.2681757e-05
2.0295015e-05
5.8832777e-06
5.7664541e-08
7.1352952e-09
1.9489746e-06
8.9700129e-06
1.6221654e-05
2.0489546e-05
2.1893654e-05
2.166108e-05
2.086383e-05
2.0113141e-05
1.9675522e-05
1.9675502e-05
2.0113096e-05
2.0863768e-05
2.1661022e-05
2.1893607e-05
2.0489513e-05
1.6221636e-05
8.9700052e-06
1.9489738e-06
7.1353056e-09
8.3767853e-10
6.1343592e-07
3.8052788e-06
7.7799852e-06
1.0402542e-05
1.1411048e-05
1.1406878e-05
1.1012436e-05
1.0606843e-05
1.0364029e-05
1.0364017e-05
1.0606815e-05
1.1012396e-05
1.1406843e-05
1.1411021e-05
1.0402526e-05
7.7799792e-06
3.805277e-06
6.1343604e-07
8.3768034e-10
9.4432733e-11
1.8443968e-07
1.5511072e-06
3.6037471e-06
5.1181572e-06
5.7783733e-06
5.8487463e-06
5.6699775e-06
5.463837e-06
5.3365879e-06
5.3365802e-06
5.4638201e-06
5.6699537e-06
5.8487256e-06
5.7783586e-06
5.1181495e-06
3.6037455e-06
1.5511072e-06
1.8443986e-07
9.4433027e-11
1.0299996e-11
5.3200208e-08
6.0843178e-07
1.6125682e-06
2.439203e-06
2.8399925e-06
2.9155924e-06
2.8424201e-06
2.7435179e-06
2.6802188e-06
2.6802143e-06
2.7435082e-06
2.8424063e-06
2.9155806e-06
2.8399847e-06
2.4391994e-06
1.6125682e-06
6.0843213e-07
5.3200305e-08
1.0300039e-11
1.0921416e-12
1.4769203e-08
2.3003573e-07
6.9749219e-07
1.1260584e-06
1.3542052e-06
1.4119278e-06
1.3858445e-06
1.3409822e-06
1.3109902e-06
1.3109878e-06
1.3409768e-06
1.3858369e-06
1.4119214e-06
1.3542011e-06
1.1260567e-06
6.9749247e-07
2.3003601e-07
1.4769245e-08
1.0921473e-12
1.1290413e-13
3.9559655e-09
8.3958752e-08
2.9186107e-07
5.037432e-07
6.2647954e-07
6.6401799e-07
6.5674788e-07
6.3751513e-07
6.2394748e-07
6.2394618e-07
6.3751223e-07
6.5674384e-07
6.6401464e-07
6.2647751e-07
5.0374247e-07
2.9186134e-07
8.3958918e-08
3.9559809e-09
1.1290484e-13
1.1399163e-14
1.0242727e-09
2.9624064e-08
1.1825632e-07
2.1848938e-07
2.8125327e-07
3.0327151e-07
3.0244422e-07
2.9467211e-07
2.8880342e-07
2.8880276e-07
2.9467062e-07
3.0244215e-07
3.0326982e-07
2.812523e-07
2.1848906e-07
1.1825649e-07
2.9624147e-08
1.0242778e-09
1.1399248e-14
1.1251301e-15
2.5673582e-10
1.0117972e-08
4.6439578e-08
9.1940289e-08
1.2258611e-07
1.3454503e-07
1.3535607e-07
1.3241344e-07
1.2998461e-07
1.2998428e-07
1.3241272e-07
1.3535505e-07
1.3454421e-07
1.2258565e-07
9.1940155e-08
4.6439668e-08
1.0118009e-08
2.5673742e-10
1.1251392e-15
1.0983718e-16
6.2371384e-11
3.3490465e-09
1.7691543e-08
3.7561139e-08
5.1899876e-08
5.8003289e-08
5.8884755e-08
5.7853662e-08
5.6892116e-08
5.6891963e-08
5.7853317e-08
5.8884271e-08
5.80029e-08
5.1899665e-08
3.7561082e-08
1.7691587e-08
3.3490618e-09
6.2371861e-11
1.0981951e-16
3.0938046e-17
1.4701192e-11
1.0754533e-09
6.5439692e-09
1.4908689e-08
2.1356302e-08
2.4310437e-08
2.4910618e-08
2.4584736e-08
2.42211e-08
2.422103e-08
2.4584577e-08
2.4910394e-08
2.4310259e-08
2.1356209e-08
1.4908666e-08
6.5439887e-09
1.0754594e-09
1.4701325e-11
3.0985494e-17
2.9729964e-17
3.3656213e-12
3.3537567e-10
2.3522498e-09
5.7533124e-09
8.5464648e-09
9.9110552e-09
1.0252359e-08
1.0165138e-08
1.0034152e-08
1.0034121e-08
1.0165067e-08
1.0252259e-08
9.9109763e-09
8.5464239e-09
5.7533023e-09
2.352258e-09
3.3537791e-10
3.3656526e-12
2.9754336e-17
1.0021044e-17
7.5015765e-13
1.0165935e-10
8.2232468e-10
2.1601249e-09
3.3282674e-09
3.9326009e-09
4.1071924e-09
4.0914908e-09
4.0467882e-09
4.0467752e-09
4.0914604e-09
4.1071496e-09
3.9325667e-09
3.32825e-09
2.1601205e-09
8.2232786e-10
1.0166008e-10
7.5016177e-13
1.0026127e-17
2.3336843e-18
1.6282428e-13
2.9981896e-11
2.7980659e-10
7.8961888e-10
1.2620921e-09
1.519584e-09
1.6024529e-09
1.6039694e-09
1.5896534e-09
1.589648e-09
1.6039566e-09
1.602435e-09
1.5195696e-09
1.2620848e-09
7.8961705e-10
2.798077e-10
2.9982125e-11
1.6282423e-13
2.3321939e-18
4.3636924e-19
3.4415154e-14
8.6097964e-12
9.2738187e-11
2.8120394e-10
4.6630465e-10
5.7214639e-10
6.0923778e-10
6.1276156e-10
6.0853705e-10
6.0853488e-10
6.1275636e-10
6.0923045e-10
5.7214048e-10
4.6630167e-10
2.8120314e-10
9.2738551e-11
8.6098654e-12
3.4415065e-14
4.3625589e-19
6.6700462e-20
7.0819134e-15
2.4091642e-12
2.9960387e-11
9.7627165e-11
1.679632e-10
2.1002769e-10
2.258355e-10
2.2824722e-10
2.271428e-10
2.2714194e-10
2.2824515e-10
2.2583258e-10
2.1002532e-10
1.67962e-10
9.7626818e-11
2.9960496e-11
2.4091835e-12
7.0818602e-15
6.6783383e-20
7.1491716e-21
1.418093e-15
6.5734197e-13
9.4409342e-12
3.3062173e-11
5.9016966e-11
7.5210318e-11
8.1665849e-11
8.294188e-11
8.2712722e-11
8.2712392e-11
8.2941073e-11
8.1664714e-11
7.5209386e-11
5.9016484e-11
3.3062026e-11
9.4409629e-12
6.5734697e-13
1.4180711e-15
7.1726513e-21
5.8546526e-22
2.7648959e-16
1.7501814e-13
2.9036356e-12
1.0928466e-11
2.0239565e-11
2.6287365e-11
2.8824715e-11
2.9418987e-11
2.9399289e-11
2.9399166e-11
2.9418681e-11
2.8824285e-11
2.6287007e-11
2.0239376e-11
1.0928406e-11
2.9036417e-12
1.7501938e-13
2.7648364e-16
5.8604225e-22
)
;

boundaryField
{
    Wall
    {
        type            zeroGradient;
    }
    frontAndBack
    {
        type            empty;
    }
    atmosphere
    {
        type            zeroGradient;
    }
}


// ************************************************************************* //
