/*--------------------------------*- C++ -*----------------------------------*\
| =========                 |                                                 |
| \\      /  F ield         | OpenFOAM: The Open Source CFD Toolbox           |
|  \\    /   O peration     | Version:  3.0.1                                 |
|   \\  /    A nd           | Web:      www.OpenFOAM.org                      |
|    \\/     M anipulation  |                                                 |
\*---------------------------------------------------------------------------*/
FoamFile
{
    version     2.0;
    format      ascii;
    class       volScalarField;
    location    "24";
    object      wBA_l_0;
}
// * * * * * * * * * * * * * * * * * * * * * * * * * * * * * * * * * * * * * //

dimensions      [0 0 0 0 0 0 0];

internalField   nonuniform List<scalar> 
800
(
0.051765
0.051763717
0.051763555
0.051763547
0.05176355
0.051763549
0.051763546
0.051763543
0.05176354
0.051763539
0.051763539
0.05176354
0.051763543
0.051763546
0.051763549
0.05176355
0.051763547
0.051763555
0.051763717
0.051764999
0.052492861
0.052470563
0.052466318
0.052465579
0.052465509
0.052465483
0.052465412
0.052465321
0.052465244
0.052465201
0.052465201
0.052465244
0.052465321
0.052465412
0.052465483
0.052465509
0.052465579
0.052466318
0.052470563
0.052492861
0.052305244
0.05228994
0.052287086
0.052286466
0.052286077
0.052285714
0.052285383
0.052285121
0.052284942
0.052284852
0.052284852
0.052284942
0.052285121
0.052285383
0.052285713
0.052286076
0.052286466
0.052287085
0.052289939
0.052305243
0.051347953
0.051357775
0.051359761
0.051359622
0.051358822
0.051357962
0.051357267
0.051356781
0.051356479
0.051356337
0.051356337
0.051356478
0.05135678
0.051357266
0.051357961
0.051358821
0.051359621
0.05135976
0.051357773
0.051347951
0.049778803
0.049828159
0.049836589
0.049836829
0.049835441
0.049833957
0.049832838
0.049832109
0.049831677
0.049831483
0.049831482
0.049831676
0.049832108
0.049832837
0.049833955
0.049835439
0.049836827
0.049836587
0.049828157
0.0497788
0.047750209
0.047849663
0.047865493
0.047866182
0.047864015
0.047861839
0.047860288
0.047859325
0.047858782
0.047858547
0.047858547
0.047858781
0.047859324
0.047860286
0.047861837
0.047864013
0.04786618
0.047865491
0.047849661
0.047750207
0.045392857
0.045550878
0.045576065
0.045577518
0.04557446
0.045571588
0.045569662
0.045568523
0.045567917
0.045567667
0.045567666
0.045567917
0.045568522
0.04556966
0.045571586
0.045574458
0.045577516
0.045576063
0.045550876
0.045392855
0.042807127
0.0430313
0.043069563
0.043072628
0.043068865
0.0430654
0.043063233
0.043062038
0.043061449
0.043061216
0.043061215
0.043061448
0.043062036
0.043063232
0.043065399
0.043068863
0.043072626
0.043069561
0.043031298
0.042807124
0.040058025
0.040356374
0.040413567
0.040420247
0.040416653
0.040412864
0.040410703
0.040409628
0.040409153
0.040408973
0.040408973
0.040409152
0.040409627
0.040410701
0.040412863
0.040416652
0.040420245
0.040413565
0.040356372
0.040058022
0.037170639
0.037554826
0.037639651
0.037653818
0.037651697
0.037648641
0.037646899
0.037646136
0.037645849
0.037645748
0.037645747
0.037645848
0.037646134
0.037646898
0.037648639
0.037651695
0.037653816
0.037639649
0.037554824
0.037170637
0.034126636
0.034613979
0.034741771
0.034770743
0.034773255
0.034772079
0.034770957
0.034770563
0.034770421
0.034770367
0.034770367
0.03477042
0.034770561
0.034770956
0.034772077
0.034773254
0.034770742
0.034741769
0.034613977
0.034126634
0.030857715
0.031472899
0.031670698
0.031727942
0.031740898
0.031742615
0.031742092
0.031741862
0.031741524
0.031741381
0.031741381
0.031741523
0.031741861
0.03174209
0.031742614
0.031740897
0.031727941
0.031670696
0.031472898
0.030857714
0.027282938
0.028066467
0.028378486
0.028488411
0.028518095
0.028523991
0.028523272
0.028522255
0.028520227
0.028519593
0.028519592
0.028520226
0.028522253
0.02852327
0.028523989
0.028518094
0.028488411
0.028378485
0.028066467
0.027282938
0.023191315
0.024197582
0.024699181
0.024901203
0.024962333
0.024973005
0.024969243
0.024964662
0.024963157
0.024961163
0.024961163
0.024963156
0.024964659
0.024969241
0.024973004
0.024962332
0.024901203
0.02469918
0.024197583
0.023191318
0.018595226
0.019953029
0.020771112
0.021135481
0.02125499
0.021272251
0.021259368
0.021244533
0.021235855
0.021230045
0.021230043
0.021235854
0.021244529
0.021259366
0.021272249
0.021254989
0.021135481
0.020771112
0.019953032
0.018595232
0.013123367
0.015044924
0.016334417
0.016978989
0.0172117
0.017246964
0.017217663
0.017181906
0.017159052
0.017145121
0.01714512
0.01715905
0.017181902
0.01721766
0.017246962
0.017211699
0.016978989
0.016334417
0.015044927
0.013123376
0.0074733688
0.010249524
0.011960916
0.012887645
0.01325834
0.013320618
0.013266077
0.013195775
0.013146418
0.013118875
0.013118873
0.013146414
0.013195769
0.013266073
0.013320615
0.013258338
0.012887643
0.011960916
0.010249526
0.0074733778
0.0031134479
0.0063804158
0.00833168
0.0094202984
0.0098815876
0.0099631786
0.0098830065
0.0097748105
0.0096941237
0.0096500915
0.0096500889
0.009694119
0.0097748037
0.0098830014
0.0099631747
0.0098815846
0.009420296
0.0083316781
0.0063804167
0.0031134533
0.0009329471
0.0036435473
0.0055339605
0.0066488879
0.0071469222
0.007245422
0.0071575217
0.0070290686
0.0069281623
0.0068728086
0.0068728057
0.0069281567
0.0070290609
0.0071575157
0.0072454172
0.0071469183
0.0066488849
0.0055339582
0.0036435472
0.000932949
0.0002101227
0.0019057653
0.0034955489
0.0045178023
0.005003266
0.0051152264
0.005039598
0.0049150136
0.0048123524
0.0047551858
0.0047551829
0.0048123465
0.0049150057
0.0050395915
0.0051152212
0.005003262
0.0045177994
0.0034955468
0.0019057649
0.00021012313
3.8109874e-05
0.00090900051
0.0020922101
0.0029444876
0.0033787955
0.003496069
0.0034434871
0.0033399091
0.0032504214
0.0031997037
0.0031997009
0.0032504158
0.0033399016
0.0034434809
0.003496064
0.0033787916
0.002944485
0.0020922085
0.00090900011
3.8109943e-05
5.9429013e-06
0.00039592374
0.0011834395
0.0018355164
0.0021951158
0.0023073363
0.0022785467
0.0022024664
0.0021332802
0.0020933375
0.0020933352
0.0021332754
0.0022024599
0.002278541
0.0023073318
0.0021951124
0.0018355143
0.0011834383
0.0003959235
5.9429118e-06
8.3673237e-07
0.00015870261
0.00063219534
0.0010927489
0.0013696524
0.0014678855
0.0014575555
0.0014073311
0.0013588305
0.0013302742
0.0013302724
0.0013588266
0.0014073257
0.0014575508
0.0014678818
0.0013696498
0.0010927474
0.0006321946
0.00015870251
8.367339e-07
1.0980067e-07
5.9147201e-05
0.00031938846
0.00062118085
0.00082021475
0.00089929625
0.00090030711
0.00087026956
0.00083900589
0.00082019046
0.00082018907
0.00083900296
0.00087026543
0.00090030354
0.00089929348
0.00082021279
0.00062117991
0.00031938804
5.9147168e-05
1.0980091e-07
1.3689508e-08
2.0695562e-05
0.00015301588
0.00033744693
0.00047147288
0.00053040296
0.00053662906
0.00052035239
0.00050165487
0.0004901109
0.00049010992
0.00050165279
0.00052034943
0.00053662649
0.00053040098
0.00047147153
0.00033744638
0.00015301567
2.0695555e-05
1.3689545e-08
1.6397071e-09
6.8528967e-06
6.9749662e-05
0.0001754301
0.00026030305
0.00030121414
0.00030859186
0.00030067813
0.00029024609
0.00028360391
0.00028360327
0.00029024468
0.00030067612
0.0003085901
0.00030121281
0.00026030217
0.00017542979
6.9749574e-05
6.8528965e-06
1.639713e-09
1.8987322e-10
2.1606925e-06
3.0352025e-05
8.7431285e-05
0.00013817169
0.00016478942
0.00017122854
0.00016787338
0.00016242785
0.00015882611
0.0001588257
0.00016242694
0.00016787209
0.00017122741
0.00016478857
0.00013817114
8.7431118e-05
3.035199e-05
2.1606932e-06
1.8987411e-10
2.1329206e-11
6.5170151e-07
1.2647656e-05
4.184882e-05
7.0594972e-05
8.69117e-05
9.1708727e-05
9.0566864e-05
8.7906292e-05
8.6059622e-05
8.6059377e-05
8.7905737e-05
9.0566075e-05
9.1708027e-05
8.6911186e-05
7.0594649e-05
4.1848732e-05
1.2647643e-05
6.51702e-07
2.1329337e-11
2.3285899e-12
1.8870067e-07
5.0604064e-06
1.9271765e-05
3.475901e-05
4.4226793e-05
4.7437671e-05
4.7226692e-05
4.6013043e-05
4.5116046e-05
4.5115905e-05
4.6012719e-05
4.7226234e-05
4.7437261e-05
4.4226496e-05
3.4758829e-05
1.927172e-05
5.0604026e-06
1.887009e-07
2.3286082e-12
2.4729975e-13
5.2596844e-08
1.9486253e-06
8.5526252e-06
1.6512804e-05
2.1733982e-05
2.3713602e-05
2.3813726e-05
2.3300349e-05
2.2887283e-05
2.2887205e-05
2.3300167e-05
2.3813471e-05
2.3713372e-05
2.1733818e-05
1.6512706e-05
8.5526032e-06
1.9486243e-06
5.2596933e-08
2.4730226e-13
2.5575589e-14
1.4143863e-08
7.2362e-07
3.6633025e-06
7.5776481e-06
1.0323676e-05
1.1464211e-05
1.1617873e-05
1.141945e-05
1.1239246e-05
1.1239205e-05
1.1419353e-05
1.1617736e-05
1.1464087e-05
1.0323588e-05
7.5775973e-06
3.6632918e-06
7.236198e-07
1.4143894e-08
2.5575622e-14
2.7983457e-15
3.6762224e-09
2.5958785e-07
1.5164712e-06
3.3626349e-06
4.7441562e-06
5.3639757e-06
5.487224e-06
5.4194237e-06
5.345135e-06
5.3451146e-06
5.4193739e-06
5.4871541e-06
5.3639116e-06
4.7441114e-06
3.3626097e-06
1.5164661e-06
2.5958785e-07
3.6762326e-09
2.7946095e-15
2.365467e-15
9.2503451e-10
9.0095869e-08
6.0745915e-07
1.4444277e-06
2.1109991e-06
2.4308084e-06
2.5106648e-06
2.491936e-06
2.463151e-06
2.4631411e-06
2.4919113e-06
2.5106303e-06
2.4307765e-06
2.110977e-06
1.4444156e-06
6.0745683e-07
9.0095891e-08
9.2503751e-10
2.3669769e-15
2.2913697e-15
2.2576099e-10
3.0293307e-08
2.3572295e-07
6.0115886e-07
9.1028772e-07
1.0677153e-06
1.1135847e-06
1.1108653e-06
1.1004889e-06
1.1004843e-06
1.1108535e-06
1.1135682e-06
1.0677e-06
9.1027709e-07
6.0115327e-07
2.3572191e-07
3.0293321e-08
2.2576124e-10
2.2920194e-15
7.7933718e-16
5.3627922e-11
9.8794791e-09
8.8699235e-08
2.4262496e-07
3.8068725e-07
4.5489382e-07
4.7911805e-07
4.8039226e-07
4.7698234e-07
4.7698026e-07
4.8038678e-07
4.7911048e-07
4.5488669e-07
3.8068232e-07
2.4262245e-07
8.8698781e-08
9.8794783e-09
5.3627547e-11
7.793874e-16
1.8657094e-16
1.2401075e-11
3.1287357e-09
3.2394032e-08
9.5034032e-08
1.5451629e-07
1.8810918e-07
2.0009018e-07
2.016544e-07
2.0067865e-07
2.0067774e-07
2.0165195e-07
2.0008681e-07
1.8810598e-07
1.5451408e-07
9.5032947e-08
3.2393831e-08
3.1287331e-09
1.2400842e-11
1.8630442e-16
3.6105636e-17
2.7913289e-12
9.6297577e-10
1.1492182e-08
3.6152709e-08
6.0910618e-08
7.55503e-08
8.1159962e-08
8.2216062e-08
8.2004485e-08
8.2004091e-08
8.2214999e-08
8.1158501e-08
7.5548901e-08
6.0909651e-08
3.615225e-08
1.1492096e-08
9.6297405e-10
2.7912501e-12
3.6055918e-17
5.6676882e-18
6.1133633e-13
2.8827683e-10
3.9632231e-09
1.336656e-08
2.333479e-08
2.9488581e-08
3.199245e-08
3.2575676e-08
3.2565564e-08
3.2565399e-08
3.2575227e-08
3.1991837e-08
2.9487989e-08
2.3334379e-08
1.336637e-08
3.9631874e-09
2.8827587e-10
6.1131068e-13
5.6694173e-18
5.8942472e-19
1.3016235e-13
8.3996746e-11
1.3295177e-09
4.8060574e-09
8.6929906e-09
1.1192169e-08
1.2262723e-08
1.2550398e-08
1.2574802e-08
1.2574735e-08
1.2550214e-08
1.2262473e-08
1.1191926e-08
8.6928209e-09
4.8059813e-09
1.3295032e-09
8.3996296e-11
1.3015488e-13
5.904172e-19
4.8237243e-20
2.697353e-14
2.3838072e-11
4.3411965e-10
1.6815252e-09
3.1508964e-09
4.1328948e-09
4.5729004e-09
4.704103e-09
4.7237976e-09
4.7237714e-09
4.7040299e-09
4.5728012e-09
4.1327973e-09
3.1508281e-09
1.6814954e-09
4.3411399e-10
2.383789e-11
2.6971561e-14
4.8193554e-20
)
;

boundaryField
{
    Wall
    {
        type            zeroGradient;
    }
    frontAndBack
    {
        type            empty;
    }
    atmosphere
    {
        type            zeroGradient;
    }
}


// ************************************************************************* //
