/*--------------------------------*- C++ -*----------------------------------*\
| =========                 |                                                 |
| \\      /  F ield         | OpenFOAM: The Open Source CFD Toolbox           |
|  \\    /   O peration     | Version:  3.0.1                                 |
|   \\  /    A nd           | Web:      www.OpenFOAM.org                      |
|    \\/     M anipulation  |                                                 |
\*---------------------------------------------------------------------------*/
FoamFile
{
    version     2.0;
    format      ascii;
    class       volScalarField;
    location    "24";
    object      wBA_l;
}
// * * * * * * * * * * * * * * * * * * * * * * * * * * * * * * * * * * * * * //

dimensions      [0 0 0 0 0 0 0];

internalField   nonuniform List<scalar> 
800
(
0.051721894
0.051720599
0.051720435
0.051720427
0.05172043
0.051720429
0.051720426
0.051720423
0.05172042
0.051720419
0.051720419
0.05172042
0.051720423
0.051720426
0.051720429
0.05172043
0.051720427
0.051720435
0.051720599
0.051721893
0.052451163
0.05242875
0.052424474
0.05242373
0.052423661
0.052423638
0.052423569
0.05242348
0.052423403
0.05242336
0.05242336
0.052423403
0.05242348
0.052423569
0.052423638
0.052423661
0.05242373
0.052424475
0.05242875
0.052451163
0.05227221
0.052256616
0.052253692
0.052253063
0.052252677
0.052252319
0.052251992
0.052251731
0.052251553
0.052251464
0.052251464
0.052251552
0.052251731
0.052251992
0.052252319
0.052252677
0.052253062
0.052253691
0.052256615
0.052272209
0.051328592
0.051337908
0.051339795
0.051339655
0.051338865
0.051338013
0.051337321
0.051336836
0.051336534
0.051336392
0.051336391
0.051336533
0.051336836
0.05133732
0.051338012
0.051338864
0.051339654
0.051339793
0.051337907
0.05132859
0.04977608
0.049824709
0.04983303
0.049833285
0.049831915
0.04983044
0.049829324
0.049828594
0.04982816
0.049827965
0.049827965
0.04982816
0.049828593
0.049829323
0.049830438
0.049831913
0.049833283
0.049833028
0.049824707
0.049776077
0.047765585
0.047864073
0.047879792
0.047880506
0.047878363
0.047876197
0.047874646
0.04787368
0.047873133
0.047872896
0.047872896
0.047873132
0.047873678
0.047874644
0.047876195
0.047878361
0.047880504
0.047879789
0.047864071
0.047765582
0.045426959
0.045583727
0.045608773
0.045610249
0.045607215
0.045604348
0.045602416
0.04560127
0.045600658
0.045600404
0.045600404
0.045600657
0.045601269
0.045602414
0.045604346
0.045607213
0.045610246
0.04560877
0.045583725
0.045426956
0.042860427
0.043082981
0.043120995
0.043124051
0.043120304
0.043116833
0.043114651
0.043113443
0.043112844
0.043112607
0.043112606
0.043112844
0.043113441
0.04311465
0.043116831
0.043120302
0.043124049
0.043120993
0.043082979
0.042860424
0.040131499
0.040427744
0.040484453
0.040491026
0.040487397
0.040483597
0.040481408
0.040480314
0.040479826
0.040479642
0.040479641
0.040479825
0.040480313
0.040481407
0.040483595
0.040487395
0.040491024
0.040484451
0.040427742
0.040131497
0.037266455
0.037647777
0.037731694
0.037745545
0.037743327
0.037740203
0.03773842
0.037737631
0.037737334
0.037737231
0.037737231
0.037737333
0.03773763
0.037738418
0.037740201
0.037743326
0.037745544
0.037731692
0.037647775
0.037266452
0.034249013
0.034732304
0.034858306
0.034886557
0.034888794
0.034887496
0.034886321
0.034885906
0.03488577
0.034885724
0.034885724
0.034885769
0.034885904
0.03488632
0.034887495
0.034888793
0.034886556
0.034858304
0.034732302
0.034249011
0.031012993
0.031623133
0.031817697
0.031873453
0.031886017
0.031887561
0.03188698
0.03188675
0.031886528
0.031886411
0.03188641
0.031886527
0.031886749
0.031886978
0.031887559
0.031886016
0.031873452
0.031817695
0.031623132
0.031012992
0.027480794
0.028255443
0.028561122
0.028667884
0.028696706
0.02870235
0.028701614
0.028700643
0.028700111
0.028699499
0.028699498
0.028700109
0.028700641
0.028701613
0.028702349
0.028696705
0.028667884
0.028561121
0.028255443
0.027480794
0.023436822
0.024433493
0.024924543
0.025121391
0.025180986
0.025191614
0.025188167
0.025183879
0.025182416
0.025180516
0.025180515
0.025182415
0.025183876
0.025188165
0.025191613
0.025180985
0.025121391
0.024924542
0.024433494
0.023436825
0.018905968
0.0202351
0.021030602
0.021383688
0.021499292
0.021516189
0.02150401
0.021489914
0.021481719
0.021476163
0.021476162
0.021481717
0.021489911
0.021504008
0.021516188
0.021499292
0.021383688
0.021030602
0.020235103
0.018905974
0.013492842
0.015373021
0.016636493
0.017265003
0.017491423
0.017526018
0.017498148
0.017463968
0.017442138
0.017428768
0.017428767
0.017442136
0.017463964
0.017498146
0.017526016
0.017491422
0.017265003
0.016636494
0.015373025
0.013492851
0.0078263951
0.010544194
0.012238027
0.013156094
0.013523397
0.013586057
0.013533763
0.013465798
0.013418135
0.013391446
0.013391444
0.013418132
0.013465793
0.01353376
0.013586055
0.013523395
0.013156092
0.012238026
0.010544197
0.0078264043
0.0033352936
0.0066078783
0.0085594996
0.009648853
0.010111164
0.010194125
0.010115751
0.010009328
0.0099300585
0.0098867324
0.0098867298
0.009930054
0.010009322
0.010115746
0.010194121
0.010111161
0.0096488506
0.0085594979
0.0066078793
0.0033352992
0.0010212448
0.0037990406
0.0057102612
0.0068351159
0.0073378794
0.0074380225
0.0073504892
0.0072221376
0.0071214251
0.0070661488
0.0070661459
0.0071214196
0.00722213
0.0073504834
0.0074380177
0.0073378757
0.006835113
0.005710259
0.0037990406
0.001021247
0.00023405856
0.0020019168
0.0036246815
0.0046635826
0.0051565627
0.005270381
0.0051938964
0.0050678198
0.0049640344
0.0049062393
0.0049062364
0.0049640285
0.0050678119
0.00519389
0.0052703758
0.0051565586
0.0046635797
0.0036246794
0.0020019165
0.00023405904
4.2996081e-05
0.00096245689
0.002181325
0.0030535097
0.0034970234
0.0036165149
0.0035625646
0.003456633
0.0033652143
0.0033134107
0.0033134079
0.0033652086
0.0034566254
0.0035625583
0.0036165098
0.0034970194
0.0030535071
0.0021813234
0.00096245651
4.2996165e-05
6.7655229e-06
0.00042251137
0.0012410404
0.001912947
0.0022822655
0.0023970834
0.0023670376
0.0022885001
0.0022171892
0.002176032
0.0021760297
0.0022171843
0.0022884935
0.0023670319
0.0023970789
0.0022822621
0.0019129449
0.0012410392
0.00042251114
6.7655355e-06
9.5882345e-07
0.00017062089
0.00066695558
0.0011447862
0.0014308515
0.0015318884
0.0015207349
0.0014684359
0.0014180478
0.0013883936
0.0013883916
0.0014180438
0.0014684304
0.0015207301
0.0015318847
0.0014308488
0.0011447847
0.00066695481
0.00017062078
9.588253e-07
1.2647395e-07
6.4029275e-05
0.00033898529
0.00065424151
0.00086110445
0.00094292003
0.00094358079
0.00091203469
0.0008793148
0.00085963613
0.0008596347
0.00087931178
0.00091203046
0.00094357713
0.00094291717
0.00086110244
0.00065424054
0.00033898486
6.402924e-05
1.2647423e-07
1.5838804e-08
2.2548678e-05
0.00016337306
0.0003573247
0.00049747426
0.00055881478
0.00056504611
0.0005478002
0.00052809409
0.0005159392
0.00051593818
0.00052809193
0.00054779715
0.00056504345
0.00055881274
0.00049747287
0.00035732414
0.00016337284
2.2548671e-05
1.5838848e-08
1.9050762e-09
7.5121883e-06
7.4905662e-05
0.0001867661
0.00027605848
0.00031890649
0.0003264841
0.00031801587
0.00030694553
0.0002999066
0.00029990593
0.00030694406
0.00031801379
0.00032648228
0.00031890512
0.00027605757
0.00018676577
7.4905569e-05
7.5121882e-06
1.9050831e-09
2.2151066e-10
2.3824514e-06
3.2781628e-05
9.3580036e-05
0.00014728494
0.00017533453
0.00018203563
0.00017839999
0.00017258163
0.00016874065
0.00016874022
0.00017258069
0.00017839864
0.00018203444
0.00017533365
0.00014728437
9.3579861e-05
3.2781591e-05
2.3824522e-06
2.215117e-10
2.4987164e-11
7.226698e-07
1.3736246e-05
4.5030002e-05
7.5636615e-05
9.2935577e-05
9.7975867e-05
9.6712419e-05
9.3849806e-05
9.1868171e-05
9.1867911e-05
9.3849223e-05
9.671159e-05
9.7975132e-05
9.2935038e-05
7.5636276e-05
4.5029908e-05
1.3736233e-05
7.2267036e-07
2.4987317e-11
2.7396728e-12
2.1041014e-07
5.5259828e-06
2.0845908e-05
3.7431903e-05
4.752963e-05
5.0930575e-05
5.0678787e-05
4.9363393e-05
4.8394817e-05
4.8394668e-05
4.936305e-05
5.0678302e-05
5.0930141e-05
4.7529317e-05
3.7431711e-05
2.0845861e-05
5.5259786e-06
2.104104e-07
2.7396942e-12
2.9225018e-13
5.8967076e-08
2.1393203e-06
9.2994674e-06
1.7873372e-05
2.3474663e-05
2.5586621e-05
2.5680964e-05
2.5120083e-05
2.4671227e-05
2.4671144e-05
2.511989e-05
2.5680692e-05
2.5586377e-05
2.3474489e-05
1.7873268e-05
9.299444e-06
2.1393192e-06
5.8967177e-08
2.9225308e-13
3.0359843e-14
1.5941762e-08
7.9862747e-07
4.0037889e-06
8.2437649e-06
1.1206732e-05
1.2431673e-05
1.2591301e-05
1.2372479e-05
1.2175383e-05
1.2175339e-05
1.2372376e-05
1.2591155e-05
1.243154e-05
1.1206639e-05
8.2437106e-06
4.0037775e-06
7.9862727e-07
1.5941798e-08
3.0359937e-14
3.2896081e-15
4.1653694e-09
2.8798631e-07
1.6659229e-06
3.6768071e-06
5.175954e-06
5.8458758e-06
5.9767905e-06
5.9010809e-06
5.8192717e-06
5.8192496e-06
5.9010273e-06
5.9767153e-06
5.845807e-06
5.1759058e-06
3.67678e-06
1.6659175e-06
2.8798631e-07
4.1653811e-09
3.2859542e-15
2.3748019e-15
1.0535598e-09
1.0046565e-07
6.7072603e-07
1.5873842e-06
2.3147706e-06
2.6625441e-06
2.7484283e-06
2.7270515e-06
2.6951174e-06
2.6951066e-06
2.7270248e-06
2.7483908e-06
2.6625096e-06
2.3147467e-06
1.5873712e-06
6.7072355e-07
1.0046567e-07
1.0535633e-09
2.3761987e-15
2.5696201e-15
2.5842421e-10
3.3951546e-08
2.6159204e-07
6.6399811e-07
1.0032028e-06
1.1754115e-06
1.2251993e-06
1.2218136e-06
1.210205e-06
1.2102e-06
1.2218007e-06
1.2251814e-06
1.1753949e-06
1.0031912e-06
6.6399204e-07
2.6159092e-07
3.3951563e-08
2.5842462e-10
2.570352e-15
9.0190914e-16
6.1690713e-11
1.112812e-08
9.892973e-08
2.6934051e-07
4.2166777e-07
5.0331254e-07
5.298106e-07
5.3104901e-07
5.2719449e-07
5.271922e-07
5.3104303e-07
5.2980231e-07
5.0330476e-07
4.2166239e-07
2.6933778e-07
9.8929238e-08
1.1128121e-08
6.1690319e-11
9.0196086e-16
2.1943336e-16
1.4336446e-11
3.5417222e-09
3.6311734e-08
1.0603094e-07
1.7201678e-07
2.0918756e-07
2.2238472e-07
2.2405198e-07
2.2293227e-07
2.2293126e-07
2.2404929e-07
2.2238101e-07
2.0918405e-07
1.7201436e-07
1.0602975e-07
3.6311516e-08
3.5417197e-09
1.433619e-11
2.1919717e-16
4.2994784e-17
3.2429411e-12
1.0954786e-09
1.2946534e-08
4.0539739e-08
6.8153334e-08
8.4443339e-08
9.0662679e-08
9.1813708e-08
9.1563056e-08
9.1562619e-08
9.1812532e-08
9.0661066e-08
8.4441798e-08
6.8152272e-08
4.0539232e-08
1.294644e-08
1.0954768e-09
3.2428581e-12
4.2960245e-17
6.8567432e-18
7.1374877e-13
3.2955498e-10
4.4870858e-09
1.5064242e-08
2.6242137e-08
3.3127761e-08
3.5921009e-08
3.6564655e-08
3.6547694e-08
3.6547511e-08
3.6564157e-08
3.5920328e-08
3.3127106e-08
2.6241683e-08
1.5064032e-08
4.4870467e-09
3.2955398e-10
7.1372166e-13
6.8612503e-18
7.4316308e-19
1.5271681e-13
9.6493673e-11
1.5127677e-09
5.4438498e-09
9.8258508e-09
1.2637687e-08
1.3839148e-08
1.4159583e-08
1.4184998e-08
1.4184924e-08
1.4159378e-08
1.3838869e-08
1.2637416e-08
9.8256623e-09
5.4437653e-09
1.5127518e-09
9.6493191e-11
1.527085e-13
7.450498e-19
5.9911466e-20
3.1794273e-14
2.7517953e-11
4.9641948e-10
1.9143139e-09
3.5796936e-09
4.6906118e-09
5.1873215e-09
5.3346118e-09
5.3561731e-09
5.3561436e-09
5.3345298e-09
5.1872102e-09
4.6905029e-09
3.5796174e-09
1.9142807e-09
4.964132e-10
2.7517756e-11
3.1792117e-14
5.9890166e-20
)
;

boundaryField
{
    Wall
    {
        type            zeroGradient;
    }
    frontAndBack
    {
        type            empty;
    }
    atmosphere
    {
        type            zeroGradient;
    }
}


// ************************************************************************* //
