/*--------------------------------*- C++ -*----------------------------------*\
| =========                 |                                                 |
| \\      /  F ield         | OpenFOAM: The Open Source CFD Toolbox           |
|  \\    /   O peration     | Version:  3.0.1                                 |
|   \\  /    A nd           | Web:      www.OpenFOAM.org                      |
|    \\/     M anipulation  |                                                 |
\*---------------------------------------------------------------------------*/
FoamFile
{
    version     2.0;
    format      ascii;
    class       volScalarField;
    location    "24";
    object      wCO2_l;
}
// * * * * * * * * * * * * * * * * * * * * * * * * * * * * * * * * * * * * * //

dimensions      [0 0 0 0 0 0 0];

internalField   nonuniform List<scalar> 
800
(
0.003363708
0.0033638117
0.0033638291
0.0033638318
0.0033638327
0.0033638335
0.0033638342
0.0033638349
0.0033638353
0.0033638355
0.0033638355
0.0033638353
0.0033638349
0.0033638342
0.0033638335
0.0033638327
0.0033638318
0.0033638291
0.0033638117
0.003363708
0.0033117692
0.0033132477
0.0033138626
0.0033139696
0.0033139301
0.0033138606
0.0033138013
0.0033137604
0.0033137361
0.0033137248
0.0033137248
0.0033137361
0.0033137604
0.0033138012
0.0033138605
0.00331393
0.0033139695
0.0033138625
0.0033132476
0.003311769
0.0034288558
0.0034276778
0.0034267224
0.0034268153
0.0034267989
0.0034267374
0.0034266739
0.0034266238
0.0034265908
0.0034265744
0.0034265745
0.0034265909
0.0034266238
0.003426674
0.0034267374
0.0034267989
0.0034268154
0.0034267224
0.0034276778
0.0034288559
0.0037252976
0.0037166827
0.0037137269
0.0037138205
0.0037138458
0.0037138256
0.0037137802
0.0037137309
0.0037136938
0.0037136734
0.0037136735
0.0037136939
0.0037137311
0.0037137804
0.0037138258
0.003713846
0.0037138208
0.0037137272
0.003716683
0.003725298
0.0042288693
0.0042057984
0.0042010305
0.0041993889
0.0041994865
0.004199527
0.0041995038
0.0041994489
0.0041994012
0.0041993723
0.0041993724
0.0041994014
0.0041994492
0.0041995042
0.0041995275
0.0041994871
0.0041993896
0.0042010312
0.0042057991
0.0042288702
0.0049731464
0.0049256824
0.0049197917
0.0049156669
0.004915933
0.0049160531
0.0049160476
0.0049159695
0.004915895
0.0049158469
0.004915847
0.0049158954
0.0049159701
0.0049160483
0.004916054
0.004915934
0.004915668
0.0049197928
0.0049256835
0.0049731478
0.0059872745
0.0059050751
0.0058964944
0.0058905265
0.0058911594
0.0058914088
0.0058914162
0.0058912888
0.0058911642
0.005891082
0.0058910822
0.0058911647
0.0058912896
0.0058914173
0.0058914101
0.0058911608
0.0058905281
0.005896496
0.0059050768
0.0059872765
0.0072841683
0.0071650273
0.0071454476
0.0071391708
0.0071405993
0.0071410771
0.0071411017
0.0071408968
0.0071406979
0.0071405666
0.0071405668
0.0071406985
0.0071408978
0.007141103
0.0071410788
0.0071406012
0.0071391729
0.0071454498
0.0071650296
0.0072841711
0.0088561972
0.0087025687
0.0086671256
0.0086624255
0.0086591682
0.0086601074
0.0086601705
0.0086598857
0.0086596092
0.0086594255
0.0086594258
0.0086596099
0.0086598868
0.008660172
0.0086601094
0.0086591705
0.008662428
0.0086671283
0.0087025717
0.0088562008
0.010670519
0.010482762
0.010434384
0.010433362
0.010424982
0.010418354
0.010418509
0.010418225
0.010417937
0.010417734
0.010417734
0.010417937
0.010418226
0.01041851
0.010418356
0.010424984
0.010433364
0.010434387
0.010482765
0.010670523
0.01260156
0.012410414
0.01235014
0.01235492
0.012334948
0.012322473
0.012323057
0.012323066
0.012322976
0.012322861
0.012322861
0.012322976
0.012323067
0.012323058
0.012322475
0.012334951
0.012354923
0.012350143
0.012410417
0.012601564
0.014331031
0.014181756
0.014157451
0.014171102
0.014112528
0.014100658
0.014102383
0.014103265
0.014103772
0.01410395
0.01410395
0.014103772
0.014103265
0.014102383
0.014100659
0.014112529
0.014171103
0.014157453
0.014181758
0.014331032
0.01511745
0.01517495
0.015246621
0.015243555
0.015213351
0.015208188
0.015212553
0.015215432
0.015216174
0.015217037
0.015217037
0.015216174
0.015215432
0.015212552
0.015208187
0.01521335
0.015243555
0.01524662
0.01517495
0.015117448
0.01364307
0.014185395
0.014372682
0.014444526
0.014470017
0.014475771
0.014483737
0.014489251
0.014503023
0.01450477
0.014504769
0.014503022
0.01448925
0.014483736
0.014475769
0.014470015
0.014444524
0.01437268
0.014185393
0.013643068
0.0094786608
0.010180323
0.010484181
0.010600044
0.01065129
0.010662743
0.010669415
0.010673227
0.010718234
0.010719216
0.010719216
0.010718234
0.010673226
0.010669414
0.010662742
0.010651289
0.010600042
0.01048418
0.010180322
0.0094786607
0.0059348624
0.0067139993
0.0071167242
0.0072830034
0.0073480814
0.0073591129
0.0073593711
0.0073573676
0.0073827752
0.0073816012
0.0073816009
0.0073827749
0.0073573668
0.0073593703
0.0073591118
0.0073480801
0.0072830019
0.0071167228
0.0067139986
0.005934864
0.0031332646
0.0041014747
0.0045889606
0.004801814
0.0048749832
0.0048796525
0.0048668756
0.0048537379
0.0048551928
0.0048503819
0.0048503815
0.0048551924
0.004853737
0.0048668747
0.0048796514
0.0048749819
0.0048018125
0.0045889592
0.0041014742
0.0031332668
0.001266223
0.0023252621
0.0028637725
0.0031082124
0.0031886721
0.0031877989
0.0031622349
0.0031367079
0.0031221066
0.0031127725
0.0031127721
0.0031221059
0.0031367068
0.0031622338
0.0031877977
0.0031886708
0.0031082109
0.0028637712
0.0023252616
0.0012662244
0.00038233732
0.0012189152
0.0017223274
0.0019711494
0.0020585854
0.0020602668
0.00203129
0.0020000907
0.0019781953
0.001966122
0.0019661215
0.0019781944
0.0020000895
0.0020312888
0.0020602656
0.0020585842
0.0019711482
0.0017223263
0.0012189148
0.00038233788
8.9055528e-05
0.00059104155
0.00099397718
0.0012174374
0.0013047215
0.0013128128
0.0012885341
0.001259248
0.0012370065
0.00122486
0.0012248596
0.0012370056
0.0012592468
0.0012885329
0.0013128117
0.0013047204
0.0012174364
0.00099397643
0.00059104127
8.9055658e-05
1.6957817e-05
0.00026504342
0.00054902075
0.00072905721
0.00080770249
0.00082099879
0.00080451569
0.00078137735
0.00076274552
0.00075242507
0.0007524247
0.00076274471
0.00078137624
0.00080451466
0.00082099786
0.00080770167
0.00072905655
0.00054902029
0.00026504326
1.695784e-05
2.7977467e-06
0.00011024063
0.00028987099
0.0004221511
0.00048663388
0.00050196694
0.0004927097
0.00047658609
0.00046284236
0.0004550789
0.00045507859
0.0004628417
0.00047658517
0.00049270885
0.00050196622
0.00048663329
0.00042215068
0.00028987074
0.00011024056
2.7977502e-06
4.1822486e-07
4.2824186e-05
0.00014631109
0.00023603366
0.00028471241
0.00029923459
0.00029513794
0.00028498082
0.00027576478
0.00027044478
0.00027044454
0.00027576426
0.00028498011
0.00029513729
0.00029923406
0.00028471202
0.00023603342
0.00014631097
4.2824164e-05
4.1822542e-07
5.8364285e-08
1.5669197e-05
7.0694089e-05
0.00012739406
0.00016157134
0.0001736172
0.00017255196
0.00016669587
0.00016097603
0.00015759494
0.00015759477
0.00016097565
0.00016669535
0.0001725515
0.00017361685
0.0001615711
0.00012739394
7.0694039e-05
1.5669194e-05
5.8364385e-08
7.7463207e-09
5.4432017e-06
3.2766013e-05
6.6400973e-05
8.8900247e-05
9.7946227e-05
9.8322557e-05
9.5220681e-05
9.1899182e-05
8.9882781e-05
8.9882661e-05
9.1898926e-05
9.5220322e-05
9.8322244e-05
9.7945994e-05
8.8900107e-05
6.6400924e-05
3.2765998e-05
5.4432034e-06
7.7463385e-09
9.8886961e-10
1.8068114e-06
1.4602308e-05
3.3451457e-05
4.7431153e-05
5.3703552e-05
5.4555649e-05
5.3052826e-05
5.1236157e-05
5.0098841e-05
5.0098763e-05
5.1235988e-05
5.3052589e-05
5.4555445e-05
5.3703406e-05
4.7431072e-05
3.3451439e-05
1.4602307e-05
1.8068132e-06
9.8887268e-10
1.2223856e-10
5.7591366e-07
6.2716466e-06
1.6305292e-05
2.4548301e-05
2.8616006e-05
2.9462988e-05
2.8808008e-05
2.7868571e-05
2.7258612e-05
2.7258563e-05
2.7868465e-05
2.8807858e-05
2.9462861e-05
2.8615918e-05
2.4548256e-05
1.6305287e-05
6.2716487e-06
5.7591461e-07
1.2223906e-10
1.469147e-11
1.7692003e-07
2.6014755e-06
7.698477e-06
1.2331874e-05
1.4821319e-05
1.5484526e-05
1.5238864e-05
1.477882e-05
1.4466622e-05
1.4466593e-05
1.4778755e-05
1.5238774e-05
1.5484449e-05
1.4821268e-05
1.2331849e-05
7.6984762e-06
2.6014776e-06
1.7692047e-07
1.4691545e-11
1.7209884e-12
5.252396e-08
1.0440985e-06
3.5247662e-06
6.0170059e-06
7.4643239e-06
7.9202044e-06
7.851512e-06
7.6382975e-06
7.4854316e-06
7.4854147e-06
7.6382599e-06
7.8514596e-06
7.9201601e-06
7.4642951e-06
6.0169926e-06
3.5247668e-06
1.0441e-06
5.2524135e-08
1.7209991e-12
1.9678938e-13
1.5100916e-08
4.0611286e-07
1.566646e-06
2.8535624e-06
3.6569579e-06
3.9436358e-06
3.9403421e-06
3.8471249e-06
3.7754229e-06
3.7754135e-06
3.8471038e-06
3.9403128e-06
3.9436111e-06
3.6569423e-06
2.8535554e-06
1.5666466e-06
4.0611365e-07
1.510098e-08
1.9679087e-13
2.1988905e-14
4.2114264e-09
1.5330125e-07
6.7665031e-07
1.3163324e-06
1.7438257e-06
1.9121991e-06
1.9265548e-06
1.8883939e-06
1.8561649e-06
1.8561599e-06
1.8883825e-06
1.926539e-06
1.9121857e-06
1.7438174e-06
1.3163288e-06
6.7665071e-07
1.5330164e-07
4.2114484e-09
2.198906e-14
2.4533325e-15
1.1408375e-09
5.6231053e-08
2.8426217e-07
5.9105309e-07
8.0980876e-07
9.0329975e-07
9.1797599e-07
9.035675e-07
8.8969555e-07
8.8969297e-07
9.0356157e-07
9.1796772e-07
9.0329276e-07
8.0980445e-07
5.9105128e-07
2.8426238e-07
5.6231233e-08
1.1408447e-09
2.4525239e-15
8.4185114e-16
3.0053348e-10
2.0064093e-08
1.1625612e-07
2.585073e-07
3.6644349e-07
4.1591051e-07
4.2643482e-07
4.2157907e-07
4.1587372e-07
4.1587243e-07
4.2157606e-07
4.2643061e-07
4.1590696e-07
3.6644133e-07
2.5850641e-07
1.1625622e-07
2.0064171e-08
3.0053571e-10
8.4253898e-16
8.0782588e-16
7.7089582e-11
6.9712551e-09
4.6324364e-08
1.1020364e-07
1.6166866e-07
1.8674745e-07
1.9321245e-07
1.9187381e-07
1.8964082e-07
1.896402e-07
1.9187233e-07
1.9321039e-07
1.867457e-07
1.616676e-07
1.1020321e-07
4.6324407e-08
6.9712868e-09
7.7090127e-11
8.0822504e-16
2.9948146e-16
1.9302573e-11
2.3608019e-09
1.7998234e-08
4.5822077e-08
6.9579995e-08
8.1812184e-08
8.5424035e-08
8.522288e-08
8.439738e-08
8.439709e-08
8.5222173e-08
8.5423053e-08
8.1811339e-08
6.9579485e-08
4.5821872e-08
1.7998249e-08
2.3608128e-09
1.9302622e-11
2.9956278e-16
7.7892792e-17
4.7193771e-12
7.7997349e-10
6.8231955e-09
1.8594036e-08
2.9229527e-08
3.4987333e-08
3.6871757e-08
3.6956896e-08
3.6672566e-08
3.6672434e-08
3.6956568e-08
3.6871301e-08
3.4986937e-08
2.9229288e-08
1.8593941e-08
6.8231987e-09
7.7997704e-10
4.7193564e-12
7.782575e-17
1.6372715e-17
1.1267345e-12
2.5158351e-10
2.5257096e-09
7.3679331e-09
1.1991351e-08
1.461337e-08
1.5544707e-08
1.5654225e-08
1.5565468e-08
1.5565408e-08
1.5654076e-08
1.55445e-08
1.4613189e-08
1.1991241e-08
7.3678893e-09
2.5257093e-09
2.515846e-10
1.1267252e-12
1.6363341e-17
2.8186829e-18
2.6264213e-13
7.9279654e-11
9.1344489e-10
2.8525534e-09
4.8066884e-09
5.9641321e-09
6.4039654e-09
6.479796e-09
6.4563188e-09
6.4562927e-09
6.4797299e-09
6.4038738e-09
5.9640513e-09
4.806639e-09
2.8525336e-09
9.1344405e-10
7.9279949e-11
2.6263818e-13
2.8211811e-18
3.3788275e-19
5.9748239e-14
2.4423088e-11
3.2294974e-10
1.079604e-09
1.8835151e-09
2.3796083e-09
2.5792316e-09
2.6222704e-09
2.6181817e-09
2.6181706e-09
2.6222417e-09
2.579192e-09
2.3795729e-09
1.8834933e-09
1.0795952e-09
3.2294907e-10
2.4423152e-11
5.9746755e-14
3.3880851e-19
3.1309036e-20
1.3275134e-14
7.3599868e-12
1.1168078e-10
3.9962471e-10
7.2183955e-10
9.2858319e-10
1.0160079e-09
1.0379268e-09
1.0384638e-09
1.0384591e-09
1.0379147e-09
1.0159912e-09
9.2856808e-10
7.2183009e-10
3.996209e-10
1.1168038e-10
7.3599967e-12
1.3274698e-14
3.1320798e-20
)
;

boundaryField
{
    Wall
    {
        type            zeroGradient;
    }
    frontAndBack
    {
        type            empty;
    }
    atmosphere
    {
        type            zeroGradient;
    }
}


// ************************************************************************* //
