/*--------------------------------*- C++ -*----------------------------------*\
| =========                 |                                                 |
| \\      /  F ield         | OpenFOAM: The Open Source CFD Toolbox           |
|  \\    /   O peration     | Version:  3.0.1                                 |
|   \\  /    A nd           | Web:      www.OpenFOAM.org                      |
|    \\/     M anipulation  |                                                 |
\*---------------------------------------------------------------------------*/
FoamFile
{
    version     2.0;
    format      ascii;
    class       volScalarField;
    location    "24";
    object      wCO2_g;
}
// * * * * * * * * * * * * * * * * * * * * * * * * * * * * * * * * * * * * * //

dimensions      [0 0 0 0 0 0 0];

internalField   nonuniform List<scalar> 
800
(
0.011843198
0.011843762
0.011843857
0.011843887
0.011843906
0.011843921
0.011843933
0.011843941
0.011843947
0.01184395
0.01184395
0.011843947
0.011843941
0.011843933
0.011843921
0.011843906
0.011843887
0.011843857
0.011843762
0.011843198
0.011886203
0.011892437
0.01189336
0.011893396
0.011893299
0.011893239
0.011893221
0.011893224
0.011893234
0.011893241
0.011893241
0.011893234
0.011893224
0.011893221
0.011893239
0.011893299
0.011893396
0.01189336
0.011892437
0.011886202
0.011934498
0.011942313
0.011945582
0.011945747
0.011945652
0.011945602
0.011945612
0.011945649
0.011945686
0.011945708
0.011945708
0.011945686
0.011945649
0.011945612
0.011945602
0.011945652
0.011945747
0.011945582
0.011942313
0.011934498
0.011993758
0.012002395
0.012007798
0.012008051
0.012007943
0.012007905
0.012007947
0.012008025
0.012008094
0.012008133
0.012008133
0.012008094
0.012008025
0.012007947
0.012007905
0.012007943
0.012008051
0.012007798
0.012002395
0.011993757
0.012048694
0.012058819
0.012065831
0.012067724
0.012067524
0.012067446
0.012067491
0.012067593
0.012067684
0.012067737
0.012067737
0.012067684
0.012067593
0.012067491
0.012067445
0.012067523
0.012067724
0.012065831
0.012058819
0.012048693
0.012065056
0.012081836
0.012090024
0.012094288
0.012093861
0.012093651
0.012093645
0.012093739
0.012093835
0.012093896
0.012093896
0.012093835
0.012093739
0.012093645
0.012093651
0.012093861
0.012094288
0.012090024
0.012081836
0.012065055
0.011995753
0.012029571
0.0120376
0.012043827
0.012043009
0.012042557
0.012042437
0.012042487
0.012042571
0.012042632
0.012042632
0.012042571
0.012042486
0.012042436
0.012042557
0.012043009
0.012043827
0.0120376
0.01202957
0.011995753
0.011785764
0.011847156
0.011857518
0.011864758
0.011863412
0.011862621
0.011862343
0.011862335
0.011862408
0.01186247
0.011862469
0.011862407
0.011862335
0.011862343
0.01186262
0.011863412
0.011864758
0.011857518
0.011847156
0.011785763
0.01136615
0.011470692
0.011485205
0.011492674
0.011496412
0.011495248
0.011494843
0.011494822
0.011494916
0.011494997
0.011494997
0.011494916
0.011494821
0.011494843
0.011495247
0.011496411
0.011492673
0.011485204
0.011470691
0.011366148
0.010645631
0.01082169
0.010841576
0.010849134
0.010859227
0.010866085
0.010865776
0.010865894
0.010866104
0.010866251
0.01086625
0.010866103
0.010865893
0.010865775
0.010866084
0.010859226
0.010849133
0.010841575
0.010821688
0.010645629
0.0095274481
0.0097876117
0.0098289754
0.0098376703
0.0098620663
0.0098764154
0.0098766393
0.0098771879
0.0098776726
0.0098779674
0.0098779672
0.0098776721
0.009877187
0.0098766382
0.009876414
0.0098620647
0.0098376686
0.0098289736
0.0097876096
0.0095274452
0.0079673321
0.0082964016
0.0083731281
0.0083851357
0.0084278991
0.0084449112
0.0084464753
0.0084479312
0.0084489804
0.0084495376
0.0084495373
0.0084489798
0.0084479301
0.0084464739
0.0084449096
0.0084278973
0.0083851336
0.0083731258
0.008296399
0.0079673287
0.0061486614
0.0064834834
0.0065721772
0.0065940492
0.0066362928
0.0066529115
0.0066562961
0.0066588892
0.0066625385
0.0066633683
0.0066633681
0.0066625379
0.0066588881
0.0066562947
0.0066529099
0.0066362909
0.006594047
0.0065721749
0.0064834808
0.0061486582
0.004345188
0.0046527437
0.0047495875
0.0047810355
0.0048144615
0.0048282138
0.0048325488
0.0048356479
0.0048472975
0.0048482482
0.0048482481
0.004847297
0.0048356471
0.0048325477
0.0048282125
0.0048144599
0.0047810337
0.0047495856
0.0046527418
0.0043451859
0.0027686145
0.00300516
0.0030975654
0.0031321086
0.0031552023
0.0031644764
0.003168124
0.0031704642
0.0031798688
0.0031804976
0.0031804975
0.0031798685
0.0031704636
0.0031681233
0.0031644755
0.0031552013
0.0031321074
0.0030975642
0.0030051589
0.0027686137
0.0016100139
0.0018240793
0.0019275458
0.0019685166
0.0019866047
0.0019919019
0.001993365
0.0019939425
0.0019979045
0.001997912
0.0019979118
0.0019979044
0.0019939422
0.0019933645
0.0019919014
0.001986604
0.0019685159
0.0019275451
0.0018240789
0.001610014
0.00078266656
0.0010303296
0.0011477345
0.0011952355
0.0012103435
0.0012111755
0.0012085147
0.0012059571
0.0012054289
0.0012044828
0.0012044827
0.0012054288
0.0012059568
0.0012085143
0.0012111751
0.001210343
0.001195235
0.001147734
0.0010303293
0.000782667
0.00028398309
0.00053934615
0.0006636736
0.00071592958
0.00073052361
0.00072844279
0.00072204202
0.00071623478
0.00071265103
0.00071060513
0.00071060506
0.00071265089
0.00071623452
0.00072204172
0.00072844245
0.00073052324
0.00071592916
0.00066367322
0.00053934596
0.00028398338
7.4974137e-05
0.00025940175
0.00036928373
0.00042056718
0.00043617324
0.00043443573
0.00042727107
0.0004202769
0.00041542697
0.00041283456
0.00041283448
0.00041542681
0.00042027664
0.00042727081
0.00043443543
0.00043617293
0.00042056687
0.00036928345
0.00025940162
7.497424e-05
1.4960192e-05
0.0001143892
0.00019630804
0.00024011272
0.00025553133
0.00025551005
0.00024977699
0.00024355864
0.00023896395
0.00023649884
0.00023649877
0.00023896378
0.00024355841
0.00024977675
0.00025550981
0.0002555311
0.00024011251
0.00019630787
0.00011438913
1.4960212e-05
2.4092913e-06
4.6196486e-05
9.92912e-05
0.00013238934
0.00014584816
0.00014725294
0.00014356418
0.0001389843
0.00013541107
0.00013346185
0.00013346179
0.00013541094
0.00013898411
0.00014356399
0.00014725276
0.000145848
0.00013238921
9.9291109e-05
4.6196453e-05
2.4092942e-06
3.3404321e-07
1.7150691e-05
4.7693847e-05
7.0227991e-05
8.0707991e-05
8.273002e-05
8.0756831e-05
7.7808843e-05
7.5378535e-05
7.4025988e-05
7.4025941e-05
7.5378431e-05
7.78087e-05
8.0756692e-05
8.2729898e-05
8.0707891e-05
7.0227918e-05
4.7693804e-05
1.7150679e-05
3.3404357e-07
4.1881359e-08
5.9038272e-06
2.1759547e-05
3.5778356e-05
4.3176085e-05
4.5151519e-05
4.4295238e-05
4.2591264e-05
4.1097655e-05
4.0248034e-05
4.0248e-05
4.1097582e-05
4.2591162e-05
4.4295143e-05
4.5151441e-05
4.3176027e-05
3.577832e-05
2.175953e-05
5.9038244e-06
4.1881408e-08
4.9046141e-09
1.9035702e-06
9.4455919e-06
1.750046e-05
2.2298374e-05
2.3886339e-05
2.3628695e-05
2.2732356e-05
2.1887293e-05
2.1394859e-05
2.1394837e-05
2.1887245e-05
2.2732288e-05
2.3628634e-05
2.3886292e-05
2.2298344e-05
1.7500446e-05
9.4455867e-06
1.9035701e-06
4.9046215e-09
5.4717872e-10
5.8018639e-07
3.9116003e-06
8.2237467e-06
1.1112959e-05
1.2234567e-05
1.2237072e-05
1.1806096e-05
1.136095e-05
1.1094364e-05
1.1094351e-05
1.136092e-05
1.1806054e-05
1.2237035e-05
1.223454e-05
1.1112944e-05
8.2237427e-06
3.9115996e-06
5.8018674e-07
5.4717983e-10
5.8830967e-11
1.6837581e-07
1.5498834e-06
3.7168787e-06
5.3457374e-06
6.0643602e-06
6.1464437e-06
5.9577856e-06
5.7379613e-06
5.6020593e-06
5.6020511e-06
5.7379434e-06
5.9577605e-06
6.1464222e-06
6.0643454e-06
5.3457305e-06
3.7168782e-06
1.549884e-06
1.6837604e-07
5.8831129e-11
6.1358892e-12
4.6777557e-08
5.8921925e-07
1.6179745e-06
2.4834842e-06
2.9089487e-06
2.9926697e-06
2.9186906e-06
2.8165123e-06
2.7509057e-06
2.750901e-06
2.8165022e-06
2.9186763e-06
2.9926577e-06
2.908941e-06
2.4834811e-06
1.617975e-06
5.8921981e-07
4.6777666e-08
6.1359116e-12
6.2302084e-13
1.2488776e-08
2.1545741e-07
6.7930812e-07
1.115145e-06
1.3507352e-06
1.4123013e-06
1.3874212e-06
1.3426368e-06
1.3125282e-06
1.3125257e-06
1.3426313e-06
1.3874135e-06
1.4122949e-06
1.3507313e-06
1.1151436e-06
6.7930865e-07
2.1545777e-07
1.2488818e-08
6.2302383e-13
6.1701117e-14
3.2131689e-09
7.5939639e-08
2.7546089e-07
4.8439217e-07
6.0743324e-07
6.4609065e-07
6.3985639e-07
6.2135472e-07
6.081843e-07
6.0818301e-07
6.2135185e-07
6.398524e-07
6.4608739e-07
6.0743134e-07
4.843916e-07
2.7546126e-07
7.5939828e-08
3.2131835e-09
6.1701498e-14
5.9653186e-15
7.9829534e-10
2.5844774e-08
1.0802106e-07
2.0372805e-07
2.6471744e-07
2.8661869e-07
2.8632383e-07
2.791414e-07
2.7364126e-07
2.7364062e-07
2.7913997e-07
2.8632184e-07
2.8661708e-07
2.6471655e-07
2.0372782e-07
1.0802127e-07
2.5844861e-08
7.9829997e-10
5.9653664e-15
5.6328845e-16
1.9181551e-10
8.5061864e-09
4.1013515e-08
8.3039028e-08
1.1186972e-07
1.2335743e-07
1.2435453e-07
1.217534e-07
1.1955911e-07
1.195588e-07
1.2175271e-07
1.2435357e-07
1.2335666e-07
1.1186931e-07
8.303893e-08
4.1013616e-08
8.5062235e-09
1.9181689e-10
5.6329295e-16
5.3296065e-17
4.4630657e-11
2.7110039e-09
1.5093531e-08
3.2830064e-08
4.5876888e-08
5.1536951e-08
5.2442272e-08
5.1576577e-08
5.0740626e-08
5.0740486e-08
5.1576261e-08
5.2441831e-08
5.15366e-08
4.5876705e-08
3.2830022e-08
1.5093577e-08
2.7110184e-09
4.4631047e-11
5.3275364e-17
2.0051197e-17
1.0066288e-11
8.3766752e-10
5.3894162e-09
1.2600482e-08
1.8269984e-08
2.0913726e-08
2.1485419e-08
2.12292e-08
2.0925616e-08
2.0925554e-08
2.1229059e-08
2.1485221e-08
2.0913569e-08
1.8269904e-08
1.2600465e-08
5.3894353e-09
8.3767294e-10
1.0066391e-11
2.0073557e-17
1.9036028e-17
2.2034762e-12
2.5120499e-10
1.8689319e-09
4.6987614e-09
7.0706103e-09
8.2486615e-09
8.5565931e-09
8.4948373e-09
8.3901216e-09
8.3900954e-09
8.4947762e-09
8.5565077e-09
8.2485936e-09
7.0705759e-09
4.6987538e-09
1.8689394e-09
2.5120689e-10
2.203499e-12
1.9046576e-17
6.0085917e-18
4.6934846e-13
7.3189215e-11
6.2999339e-10
1.7037352e-09
2.6610822e-09
3.1641781e-09
3.3145138e-09
3.3065082e-09
3.2724309e-09
3.2724202e-09
3.3064827e-09
3.3144779e-09
3.1641494e-09
2.6610677e-09
1.7037318e-09
6.2999609e-10
7.3189805e-11
4.6935111e-13
6.0101585e-18
1.3107526e-18
9.729934e-14
2.0739233e-11
2.0660555e-10
6.0113338e-10
9.7464037e-10
1.1812726e-09
1.2496101e-09
1.2526851e-09
1.2423511e-09
1.2423468e-09
1.2526747e-09
1.2495954e-09
1.1812608e-09
9.7463442e-10
6.0113189e-10
2.0660643e-10
2.0739407e-11
9.7299194e-14
1.3095842e-18
2.2995913e-19
1.9629719e-14
5.7204542e-12
6.5974693e-11
2.0654092e-10
3.4762296e-10
4.2947104e-10
4.5881682e-10
4.622114e-10
4.5936222e-10
4.5936051e-10
4.6220726e-10
4.5881099e-10
4.294663e-10
3.4762055e-10
2.0654026e-10
6.5974953e-11
5.7205029e-12
1.962961e-14
2.2982393e-19
3.2866977e-20
3.8532003e-15
1.5371757e-12
2.0529411e-11
6.9153635e-11
1.2081914e-10
1.5215565e-10
1.6416663e-10
1.6620073e-10
1.655268e-10
1.6552614e-10
1.6619913e-10
1.6416437e-10
1.5215379e-10
1.2081818e-10
6.9153348e-11
2.052948e-11
1.5371883e-12
3.8531489e-15
3.2895898e-20
3.2114424e-21
7.355554e-16
4.0274783e-13
6.2296212e-12
2.2578136e-11
4.0945099e-11
5.2563055e-11
5.7276253e-11
5.8274696e-11
5.8162539e-11
5.8162295e-11
5.8274089e-11
5.7275401e-11
5.2562343e-11
4.0944721e-11
2.2578016e-11
6.2296361e-12
4.0275077e-13
7.355374e-16
3.2206134e-21
2.3208869e-22
1.3666603e-16
1.0297406e-13
1.8447792e-12
7.1928873e-12
1.3538497e-11
1.7716131e-11
1.9496765e-11
1.9935825e-11
1.9940305e-11
1.9940216e-11
1.9935602e-11
1.9496451e-11
1.7715865e-11
1.3538352e-11
7.1928388e-12
1.844781e-12
1.029747e-13
1.3666146e-16
2.3208146e-22
)
;

boundaryField
{
    Wall
    {
        type            zeroGradient;
    }
    frontAndBack
    {
        type            empty;
    }
    atmosphere
    {
        type            zeroGradient;
    }
}


// ************************************************************************* //
