/*--------------------------------*- C++ -*----------------------------------*\
| =========                 |                                                 |
| \\      /  F ield         | OpenFOAM: The Open Source CFD Toolbox           |
|  \\    /   O peration     | Version:  3.0.1                                 |
|   \\  /    A nd           | Web:      www.OpenFOAM.org                      |
|    \\/     M anipulation  |                                                 |
\*---------------------------------------------------------------------------*/
FoamFile
{
    version     2.0;
    format      ascii;
    class       volScalarField;
    location    "24";
    object      weight0;
}
// * * * * * * * * * * * * * * * * * * * * * * * * * * * * * * * * * * * * * //

dimensions      [0 0 0 0 0 0 0];

internalField   nonuniform List<scalar> 
800
(
1.1324755e+10
1.1325709e+10
1.1325914e+10
1.1325965e+10
1.1325994e+10
1.1326018e+10
1.1326038e+10
1.1326053e+10
1.1326063e+10
1.1326068e+10
1.1326068e+10
1.1326063e+10
1.1326053e+10
1.1326038e+10
1.1326018e+10
1.1325994e+10
1.1325966e+10
1.1325914e+10
1.132571e+10
1.1324755e+10
3.8294641e+09
4.4125912e+09
4.4861214e+09
4.5005713e+09
4.5070034e+09
4.5133245e+09
4.5194978e+09
4.5246673e+09
4.5282769e+09
4.530117e+09
4.5301166e+09
4.5282764e+09
4.5246666e+09
4.519497e+09
4.5133239e+09
4.5070036e+09
4.5005726e+09
4.4861234e+09
4.4125935e+09
3.8294611e+09
2397.8613
2.9403198e+08
5.4494607e+08
5.8001187e+08
5.9712967e+08
6.1033977e+08
6.214185e+08
6.3005974e+08
6.3592024e+08
6.3887706e+08
6.3887605e+08
6.359189e+08
6.3005781e+08
6.2141598e+08
6.1033696e+08
5.9712773e+08
5.8001097e+08
5.4494586e+08
2.9403176e+08
2397.9692
2967155.3
1679919.7
1298210
1249439.4
1226304.6
1210696.6
1198636
1189555.4
1183464.8
1180402
1180403.6
1183467.8
1189560
1198642.2
1210704.9
1226312.5
1249447.5
1298217.8
1679929.2
2967179.3
54134550
41329025
37975694
37329200
37064261
36903963
36788614
36704195
36647702
36619242
36619264
36647759
36704287
36788738
36904107
37064417
37329369
37975859
41329202
54134823
4.6126257e+08
3.854206e+08
3.7287898e+08
3.7008227e+08
3.6833271e+08
3.6725658e+08
3.6652957e+08
3.6601753e+08
3.6568307e+08
3.655157e+08
3.6551587e+08
3.6568351e+08
3.6601824e+08
3.6653052e+08
3.6725766e+08
3.6833389e+08
3.7008355e+08
3.728802e+08
3.8542183e+08
4.6126424e+08
2.4899075e+09
2.1880599e+09
2.155969e+09
2.1505891e+09
2.1415101e+09
2.1350723e+09
2.1306977e+09
2.1276532e+09
2.1257179e+09
2.1247465e+09
2.1247473e+09
2.1257201e+09
2.1276568e+09
2.1307025e+09
2.1350777e+09
2.1415159e+09
2.1505955e+09
2.155975e+09
2.1880656e+09
2.4899153e+09
9.8943204e+09
9.0299002e+09
8.9869835e+09
9.0030061e+09
8.9721804e+09
8.9425719e+09
8.9212261e+09
8.9063121e+09
8.8968952e+09
8.8920696e+09
8.8920726e+09
8.8969031e+09
8.9063253e+09
8.9212442e+09
8.9425922e+09
8.9722022e+09
9.0030313e+09
8.9870058e+09
9.0299218e+09
9.8943514e+09
3.0582131e+10
2.8841274e+10
2.8867588e+10
2.9036194e+10
2.8946907e+10
2.8854149e+10
2.8776127e+10
2.8721492e+10
2.8686872e+10
2.8668749e+10
2.8668756e+10
2.8686894e+10
2.8721526e+10
2.8776178e+10
2.8854207e+10
2.8946971e+10
2.9036271e+10
2.8867654e+10
2.8841343e+10
3.0582233e+10
7.7573062e+10
7.4436762e+10
7.4932645e+10
7.563386e+10
7.5399958e+10
7.494422e+10
7.4717918e+10
7.4560133e+10
7.4460088e+10
7.4407136e+10
7.4407151e+10
7.4460132e+10
7.4560201e+10
7.4718028e+10
7.494435e+10
7.5400109e+10
7.5634049e+10
7.4932808e+10
7.4436942e+10
7.7573333e+10
1.714896e+11
1.6737491e+11
1.6860416e+11
1.7066223e+11
1.6980891e+11
1.6872214e+11
1.6815476e+11
1.6775863e+11
1.6750929e+11
1.6737732e+11
1.6737734e+11
1.6750936e+11
1.6775873e+11
1.6815495e+11
1.6872239e+11
1.698092e+11
1.7066261e+11
1.6860449e+11
1.673753e+11
1.7149018e+11
3.2598463e+11
3.263948e+11
3.3116537e+11
3.3627331e+11
3.3424316e+11
3.3275678e+11
3.3151028e+11
3.3063174e+11
3.3008397e+11
3.2979718e+11
3.297972e+11
3.3008405e+11
3.3063186e+11
3.3151056e+11
3.3275717e+11
3.3424364e+11
3.3627394e+11
3.3116593e+11
3.2639549e+11
3.2598559e+11
5.2102812e+11
5.3814695e+11
5.5734874e+11
5.6625385e+11
5.6556509e+11
5.6410733e+11
5.6180889e+11
5.6013554e+11
5.5914342e+11
5.5860247e+11
5.5860246e+11
5.5914349e+11
5.601356e+11
5.618092e+11
5.6410781e+11
5.6556571e+11
5.6625469e+11
5.5734949e+11
5.3814787e+11
5.2102935e+11
6.9908488e+11
7.5341254e+11
7.9743005e+11
8.1814623e+11
8.2276024e+11
8.2206868e+11
8.1848408e+11
8.1567571e+11
8.0930853e+11
8.0838411e+11
8.0838404e+11
8.093085e+11
8.1567561e+11
8.1848429e+11
8.2206911e+11
8.2276085e+11
8.1814709e+11
7.9743081e+11
7.5341353e+11
6.9908617e+11
0
0
0
0
0
0
0
0
0
0
0
0
0
0
0
0
0
0
0
0
0
0
0
0
0
0
0
0
0
0
0
0
0
0
0
0
0
0
0
0
0
0
0
0
0
0
0
0
0
0
0
0
0
0
0
0
0
0
0
0
0
0
0
0
0
0
0
0
0
0
0
0
0
0
0
0
0
0
0
0
0
0
0
0
0
0
0
0
0
0
0
0
0
0
0
0
0
0
0
0
0
0
0
0
0
0
0
0
0
0
0
0
0
0
0
0
0
0
0
0
0
0
0
0
0
0
0
0
0
0
0
0
0
0
0
0
0
0
0
0
0
0
0
0
0
0
0
0
0
0
0
0
0
0
0
0
0
0
0
0
0
0
0
0
0
0
0
0
0
0
0
0
0
0
0
0
0
0
0
0
0
0
0
0
0
0
0
0
0
0
0
0
0
0
0
0
0
0
0
0
0
0
0
0
0
0
0
0
0
0
0
0
0
0
0
0
0
0
0
0
0
0
0
0
0
0
0
0
0
0
0
0
0
0
0
0
0
0
0
0
0
0
0
0
0
0
0
0
0
0
0
0
0
0
0
0
0
0
0
0
0
0
0
0
0
0
0
0
0
0
0
0
0
0
0
0
0
0
0
0
0
0
0
0
0
0
0
0
0
0
0
0
0
0
0
0
0
0
0
0
0
0
0
0
0
0
0
0
0
0
0
0
0
0
0
0
0
0
0
0
0
0
0
0
0
0
0
0
0
0
0
0
0
0
0
0
0
0
0
0
0
0
0
0
0
0
0
0
0
0
0
0
0
0
0
0
0
0
0
0
0
0
0
0
0
0
0
0
0
0
0
0
0
0
0
0
0
0
0
0
0
0
0
0
0
0
0
0
0
0
0
0
0
0
0
0
0
0
0
0
0
0
0
0
0
0
0
0
0
0
0
0
0
0
0
0
0
0
0
0
0
0
0
0
0
0
0
0
0
0
0
0
0
0
0
0
0
0
0
0
0
0
0
0
0
0
0
0
0
0
0
0
0
0
0
0
0
0
0
0
0
0
0
0
0
0
0
0
0
0
0
0
0
0
0
0
0
0
0
0
0
0
0
0
0
0
0
0
0
0
0
0
0
0
0
0
0
0
0
0
0
0
0
0
0
0
0
0
0
0
0
0
0
0
0
0
0
0
0
0
)
;

boundaryField
{
    Wall
    {
        type            zeroGradient;
    }
    frontAndBack
    {
        type            empty;
    }
    atmosphere
    {
        type            zeroGradient;
    }
}


// ************************************************************************* //
