/*--------------------------------*- C++ -*----------------------------------*\
| =========                 |                                                 |
| \\      /  F ield         | OpenFOAM: The Open Source CFD Toolbox           |
|  \\    /   O peration     | Version:  3.0.1                                 |
|   \\  /    A nd           | Web:      www.OpenFOAM.org                      |
|    \\/     M anipulation  |                                                 |
\*---------------------------------------------------------------------------*/
FoamFile
{
    version     2.0;
    format      ascii;
    class       volScalarField;
    location    "24";
    object      weight1;
}
// * * * * * * * * * * * * * * * * * * * * * * * * * * * * * * * * * * * * * //

dimensions      [0 0 0 0 0 0 0];

internalField   nonuniform List<scalar> 
800
(
9.9886752e+12
9.9886743e+12
9.9886741e+12
9.988674e+12
9.988674e+12
9.988674e+12
9.988674e+12
9.9886739e+12
9.9886739e+12
9.9886739e+12
9.9886739e+12
9.9886739e+12
9.9886739e+12
9.988674e+12
9.988674e+12
9.988674e+12
9.988674e+12
9.9886741e+12
9.9886743e+12
9.9886752e+12
9.9961705e+12
9.9955874e+12
9.9955139e+12
9.9954994e+12
9.995493e+12
9.9954867e+12
9.9954805e+12
9.9954753e+12
9.9954717e+12
9.9954699e+12
9.9954699e+12
9.9954717e+12
9.9954753e+12
9.9954805e+12
9.9954867e+12
9.995493e+12
9.9954994e+12
9.9955139e+12
9.9955874e+12
9.9961705e+12
9.8370832e+12
9.8399573e+12
9.8406906e+12
9.8408384e+12
9.840793e+12
9.8407227e+12
9.8406678e+12
9.840633e+12
9.8406138e+12
9.8406056e+12
9.8406056e+12
9.8406138e+12
9.840633e+12
9.8406677e+12
9.8407226e+12
9.8407929e+12
9.8408383e+12
9.8406904e+12
9.8399571e+12
9.837083e+12
9.5490348e+12
9.5577858e+12
9.5600578e+12
9.5603781e+12
9.5602824e+12
9.5601278e+12
9.5600129e+12
9.5599442e+12
9.5599082e+12
9.5598937e+12
9.5598936e+12
9.5599081e+12
9.559944e+12
9.5600127e+12
9.5601275e+12
9.5602821e+12
9.5603778e+12
9.5600575e+12
9.5577855e+12
9.5490344e+12
9.1690054e+12
9.1850952e+12
9.1887204e+12
9.1891435e+12
9.1889339e+12
9.1886536e+12
9.1884543e+12
9.1883361e+12
9.1882739e+12
9.1882486e+12
9.1882486e+12
9.1882738e+12
9.1883359e+12
9.188454e+12
9.1886533e+12
9.1889335e+12
9.1891431e+12
9.18872e+12
9.1850949e+12
9.169005e+12
8.7243641e+12
8.7492272e+12
8.7542615e+12
8.7547738e+12
8.7544157e+12
8.7540013e+12
8.7537178e+12
8.7535524e+12
8.7534675e+12
8.7534334e+12
8.7534334e+12
8.7534673e+12
8.7535522e+12
8.7537175e+12
8.7540009e+12
8.7544153e+12
8.7547734e+12
8.7542611e+12
8.7492269e+12
8.7243636e+12
8.2351957e+12
8.2704182e+12
8.27704e+12
8.2776929e+12
8.2771833e+12
8.2766473e+12
8.2762985e+12
8.2761011e+12
8.2760049e+12
8.2759674e+12
8.2759674e+12
8.2760047e+12
8.2761008e+12
8.2762981e+12
8.2766469e+12
8.2771829e+12
8.2776925e+12
8.2770397e+12
8.2704179e+12
8.2351953e+12
7.7128006e+12
7.7601117e+12
7.7689557e+12
7.769912e+12
7.7692772e+12
7.7686687e+12
7.7682997e+12
7.7681057e+12
7.7680206e+12
7.7679896e+12
7.7679896e+12
7.7680204e+12
7.7681055e+12
7.7682994e+12
7.7686683e+12
7.7692769e+12
7.7699117e+12
7.7689554e+12
7.7601115e+12
7.7128002e+12
7.1581538e+12
7.2194213e+12
7.2315103e+12
7.2330671e+12
7.2325723e+12
7.2319677e+12
7.2316693e+12
7.2315428e+12
7.2315054e+12
7.2314973e+12
7.2314972e+12
7.2315052e+12
7.2315426e+12
7.231669e+12
7.2319674e+12
7.232572e+12
7.2330669e+12
7.23151e+12
7.219421e+12
7.1581533e+12
6.5611302e+12
6.6389039e+12
6.6556747e+12
6.6582397e+12
6.6582279e+12
6.6581171e+12
6.6580537e+12
6.6580906e+12
6.6581525e+12
6.6581918e+12
6.6581918e+12
6.6581523e+12
6.6580903e+12
6.6580533e+12
6.6581168e+12
6.6582276e+12
6.6582394e+12
6.6556744e+12
6.6389035e+12
6.5611295e+12
5.8981841e+12
5.9947426e+12
6.0191232e+12
6.0233031e+12
6.0247464e+12
6.0255661e+12
6.025947e+12
6.0262768e+12
6.0265035e+12
6.0266233e+12
6.0266233e+12
6.0265032e+12
6.0262765e+12
6.0259466e+12
6.0255657e+12
6.024746e+12
6.0233027e+12
6.0191227e+12
5.994742e+12
5.8981832e+12
5.1463859e+12
5.2608777e+12
5.295138e+12
5.3017179e+12
5.3062509e+12
5.3079715e+12
5.3090602e+12
5.3098397e+12
5.3102887e+12
5.310526e+12
5.3105258e+12
5.3102885e+12
5.3098393e+12
5.3090597e+12
5.3079709e+12
5.3062503e+12
5.3017172e+12
5.2951373e+12
5.2608768e+12
5.1463848e+12
4.3073109e+12
4.436132e+12
4.4780809e+12
4.4910371e+12
4.4978828e+12
4.5002608e+12
4.5021622e+12
4.5034425e+12
4.5040134e+12
4.5043723e+12
4.5043722e+12
4.5040132e+12
4.503442e+12
4.5021617e+12
4.5002602e+12
4.497882e+12
4.4910363e+12
4.47808e+12
4.4361311e+12
4.3073098e+12
3.413807e+12
3.5495916e+12
3.6030657e+12
3.6219207e+12
3.6296339e+12
3.6320934e+12
3.6344771e+12
3.6360278e+12
3.6415542e+12
3.6419777e+12
3.6419776e+12
3.6415539e+12
3.6360274e+12
3.6344765e+12
3.6320927e+12
3.6296332e+12
3.6219199e+12
3.6030649e+12
3.5495908e+12
3.4138062e+12
0
0
0
0
0
0
0
0
0
0
0
0
0
0
0
0
0
0
0
0
0
0
0
0
0
0
0
0
0
0
0
0
0
0
0
0
0
0
0
0
0
0
0
0
0
0
0
0
0
0
0
0
0
0
0
0
0
0
0
0
0
0
0
0
0
0
0
0
0
0
0
0
0
0
0
0
0
0
0
0
0
0
0
0
0
0
0
0
0
0
0
0
0
0
0
0
0
0
0
0
0
0
0
0
0
0
0
0
0
0
0
0
0
0
0
0
0
0
0
0
0
0
0
0
0
0
0
0
0
0
0
0
0
0
0
0
0
0
0
0
0
0
0
0
0
0
0
0
0
0
0
0
0
0
0
0
0
0
0
0
0
0
0
0
0
0
0
0
0
0
0
0
0
0
0
0
0
0
0
0
0
0
0
0
0
0
0
0
0
0
0
0
0
0
0
0
0
0
0
0
0
0
0
0
0
0
0
0
0
0
0
0
0
0
0
0
0
0
0
0
0
0
0
0
0
0
0
0
0
0
0
0
0
0
0
0
0
0
0
0
0
0
0
0
0
0
0
0
0
0
0
0
0
0
0
0
0
0
0
0
0
0
0
0
0
0
0
0
0
0
0
0
0
0
0
0
0
0
0
0
0
0
0
0
0
0
0
0
0
0
0
0
0
0
0
0
0
0
0
0
0
0
0
0
0
0
0
0
0
0
0
0
0
0
0
0
0
0
0
0
0
0
0
0
0
0
0
0
0
0
0
0
0
0
0
0
0
0
0
0
0
0
0
0
0
0
0
0
0
0
0
0
0
0
0
0
0
0
0
0
0
0
0
0
0
0
0
0
0
0
0
0
0
0
0
0
0
0
0
0
0
0
0
0
0
0
0
0
0
0
0
0
0
0
0
0
0
0
0
0
0
0
0
0
0
0
0
0
0
0
0
0
0
0
0
0
0
0
0
0
0
0
0
0
0
0
0
0
0
0
0
0
0
0
0
0
0
0
0
0
0
0
0
0
0
0
0
0
0
0
0
0
0
0
0
0
0
0
0
0
0
0
0
0
0
0
0
0
0
0
0
0
0
0
0
0
0
0
0
0
0
0
0
0
0
0
0
0
0
0
0
0
0
0
0
0
0
0
0
0
0
0
0
0
0
0
0
0
0
0
0
0
0
0
0
0
0
0
0
0
)
;

boundaryField
{
    Wall
    {
        type            zeroGradient;
    }
    frontAndBack
    {
        type            empty;
    }
    atmosphere
    {
        type            zeroGradient;
    }
}


// ************************************************************************* //
