/*--------------------------------*- C++ -*----------------------------------*\
| =========                 |                                                 |
| \\      /  F ield         | OpenFOAM: The Open Source CFD Toolbox           |
|  \\    /   O peration     | Version:  3.0.1                                 |
|   \\  /    A nd           | Web:      www.OpenFOAM.org                      |
|    \\/     M anipulation  |                                                 |
\*---------------------------------------------------------------------------*/
FoamFile
{
    version     2.0;
    format      ascii;
    class       volScalarField;
    location    "24";
    object      XOH;
}
// * * * * * * * * * * * * * * * * * * * * * * * * * * * * * * * * * * * * * //

dimensions      [0 0 0 0 0 0 0];

internalField   nonuniform List<scalar> 
800
(
0.13093627
0.13094441
0.13094549
0.13094562
0.13094566
0.1309457
0.13094574
0.13094578
0.1309458
0.13094581
0.13094581
0.1309458
0.13094578
0.13094574
0.1309457
0.13094566
0.13094562
0.13094549
0.13094441
0.13093627
0.12426519
0.12445172
0.12448516
0.12449009
0.1244899
0.12448958
0.12448979
0.12449028
0.12449076
0.12449104
0.12449104
0.12449076
0.12449028
0.12448979
0.12448958
0.1244899
0.12449009
0.12448516
0.12445172
0.12426518
0.11835322
0.11864632
0.11871261
0.11872436
0.11872534
0.11872518
0.11872557
0.11872632
0.11872705
0.11872748
0.11872748
0.11872705
0.11872632
0.11872556
0.11872518
0.11872534
0.11872435
0.11871261
0.11864632
0.11835321
0.11302337
0.11341663
0.11350936
0.11352559
0.11352712
0.11352672
0.11352702
0.1135278
0.11352863
0.11352913
0.11352913
0.11352863
0.1135278
0.11352701
0.11352672
0.11352712
0.11352559
0.11350936
0.11341663
0.11302336
0.10805835
0.10855348
0.1086723
0.10869311
0.10869482
0.10869389
0.10869393
0.1086946
0.10869544
0.10869596
0.10869596
0.10869544
0.1086946
0.10869393
0.10869389
0.10869482
0.10869311
0.1086723
0.10855348
0.10805835
0.10318223
0.10379447
0.10394352
0.10397018
0.10397225
0.10397083
0.10397065
0.10397123
0.10397211
0.10397265
0.10397265
0.10397211
0.10397123
0.10397064
0.10397083
0.10397225
0.10397018
0.10394352
0.10379447
0.10318223
0.098062867
0.098825512
0.099010573
0.099045034
0.099048044
0.09904655
0.099046495
0.099047269
0.099048391
0.09904906
0.09904906
0.09904839
0.099047267
0.099046494
0.099046549
0.099048045
0.099045036
0.099010576
0.098825515
0.098062869
0.092311335
0.093270936
0.093505931
0.093550706
0.093555083
0.093554372
0.093555229
0.093556848
0.093558646
0.093559659
0.093559659
0.093558645
0.093556846
0.093555228
0.093554372
0.093555083
0.093550708
0.093505934
0.093270939
0.092311336
0.085475625
0.086684572
0.086994812
0.087052938
0.087061461
0.087062437
0.087065716
0.087069361
0.087072582
0.087074318
0.087074318
0.087072581
0.087069358
0.087065713
0.087062436
0.087061461
0.087052939
0.086994814
0.086684573
0.085475623
0.077036997
0.078544374
0.078967104
0.079041036
0.079056742
0.079063477
0.079071978
0.079079488
0.079085221
0.079088233
0.079088233
0.079085219
0.079079484
0.079071975
0.079063474
0.07905674
0.079041034
0.078967103
0.078544371
0.077036989
0.066422755
0.068261502
0.068841961
0.068932814
0.068965841
0.06898448
0.069001855
0.069015511
0.069024944
0.069029847
0.069029846
0.069024941
0.069015506
0.06900185
0.068984474
0.068965836
0.068932808
0.068841954
0.068261493
0.06642274
0.053036787
0.055341229
0.056002396
0.056111865
0.056284113
0.056318574
0.056347
0.056368231
0.05638216
0.056389299
0.056389298
0.056382157
0.056368226
0.056346993
0.056318567
0.056284104
0.056111856
0.056002386
0.055341216
0.053036768
0.036366805
0.039387785
0.039939378
0.040347385
0.04059524
0.040640761
0.040675638
0.040702916
0.040730903
0.040740796
0.040740795
0.040730901
0.040702912
0.040675632
0.040640755
0.040595232
0.040347376
0.039939367
0.039387773
0.036366791
0.016230005
0.01950465
0.020580892
0.020865101
0.02102298
0.021058974
0.021085965
0.021108532
0.021903726
0.021913108
0.021913108
0.021903725
0.021108531
0.021085964
0.021058972
0.021022977
0.020865096
0.020580887
0.019504645
0.016230001
1e-150
1e-150
1e-150
1e-150
1e-150
1e-150
1e-150
1e-150
1e-150
1e-150
1e-150
1e-150
1e-150
1e-150
1e-150
1e-150
1e-150
1e-150
1e-150
1e-150
1e-150
1e-150
1e-150
1e-150
1e-150
1e-150
1e-150
1e-150
1e-150
1e-150
1e-150
1e-150
1e-150
1e-150
1e-150
1e-150
1e-150
1e-150
1e-150
1e-150
1e-150
1e-150
1e-150
1e-150
1e-150
1e-150
1e-150
1e-150
1e-150
1e-150
1e-150
1e-150
1e-150
1e-150
1e-150
1e-150
1e-150
1e-150
1e-150
1e-150
1e-150
1e-150
1e-150
1e-150
1e-150
1e-150
1e-150
1e-150
1e-150
1e-150
1e-150
1e-150
1e-150
1e-150
1e-150
1e-150
1e-150
1e-150
1e-150
1e-150
1e-150
1e-150
1e-150
1e-150
1e-150
1e-150
1e-150
1e-150
1e-150
1e-150
1e-150
1e-150
1e-150
1e-150
1e-150
1e-150
1e-150
1e-150
1e-150
1e-150
1e-150
1e-150
1e-150
1e-150
1e-150
1e-150
1e-150
1e-150
1e-150
1e-150
1e-150
1e-150
1e-150
1e-150
1e-150
1e-150
1e-150
1e-150
1e-150
1e-150
1e-150
1e-150
1e-150
1e-150
1e-150
1e-150
1e-150
1e-150
1e-150
1e-150
1e-150
1e-150
1e-150
1e-150
1e-150
1e-150
1e-150
1e-150
1e-150
1e-150
1e-150
1e-150
1e-150
1e-150
1e-150
1e-150
1e-150
1e-150
1e-150
1e-150
1e-150
1e-150
1e-150
1e-150
1e-150
1e-150
1e-150
1e-150
1e-150
1e-150
1e-150
1e-150
1e-150
1e-150
1e-150
1e-150
1e-150
1e-150
1e-150
1e-150
1e-150
1e-150
1e-150
1e-150
1e-150
1e-150
1e-150
1e-150
1e-150
1e-150
1e-150
1e-150
1e-150
1e-150
1e-150
1e-150
1e-150
1e-150
1e-150
1e-150
1e-150
1e-150
1e-150
1e-150
1e-150
1e-150
1e-150
1e-150
1e-150
1e-150
1e-150
1e-150
1e-150
1e-150
1e-150
1e-150
1e-150
1e-150
1e-150
1e-150
1e-150
1e-150
1e-150
1e-150
1e-150
1e-150
1e-150
1e-150
1e-150
1e-150
1e-150
1e-150
1e-150
1e-150
1e-150
1e-150
1e-150
1e-150
1e-150
1e-150
1e-150
1e-150
1e-150
1e-150
1e-150
1e-150
1e-150
1e-150
1e-150
1e-150
1e-150
1e-150
1e-150
1e-150
1e-150
1e-150
1e-150
1e-150
1e-150
1e-150
1e-150
1e-150
1e-150
1e-150
1e-150
1e-150
1e-150
1e-150
1e-150
1e-150
1e-150
1e-150
1e-150
1e-150
1e-150
1e-150
1e-150
1e-150
1e-150
1e-150
1e-150
1e-150
1e-150
1e-150
1e-150
1e-150
1e-150
1e-150
1e-150
1e-150
1e-150
1e-150
1e-150
1e-150
1e-150
1e-150
1e-150
1e-150
1e-150
1e-150
1e-150
1e-150
1e-150
1e-150
1e-150
1e-150
1e-150
1e-150
1e-150
1e-150
1e-150
1e-150
1e-150
1e-150
1e-150
1e-150
1e-150
1e-150
1e-150
1e-150
1e-150
1e-150
1e-150
1e-150
1e-150
1e-150
1e-150
1e-150
1e-150
1e-150
1e-150
1e-150
1e-150
1e-150
1e-150
1e-150
1e-150
1e-150
1e-150
1e-150
1e-150
1e-150
1e-150
1e-150
1e-150
1e-150
1e-150
1e-150
1e-150
1e-150
1e-150
1e-150
1e-150
1e-150
1e-150
1e-150
1e-150
1e-150
1e-150
1e-150
1e-150
1e-150
1e-150
1e-150
1e-150
1e-150
1e-150
1e-150
1e-150
1e-150
1e-150
1e-150
1e-150
1e-150
1e-150
1e-150
1e-150
1e-150
1e-150
1e-150
1e-150
1e-150
1e-150
1e-150
1e-150
1e-150
1e-150
1e-150
1e-150
1e-150
1e-150
1e-150
1e-150
1e-150
1e-150
1e-150
1e-150
1e-150
1e-150
1e-150
1e-150
1e-150
1e-150
1e-150
1e-150
1e-150
1e-150
1e-150
1e-150
1e-150
1e-150
1e-150
1e-150
1e-150
1e-150
1e-150
1e-150
1e-150
1e-150
1e-150
1e-150
1e-150
1e-150
1e-150
1e-150
1e-150
1e-150
1e-150
1e-150
1e-150
1e-150
1e-150
1e-150
1e-150
1e-150
1e-150
1e-150
1e-150
1e-150
1e-150
1e-150
1e-150
1e-150
1e-150
1e-150
1e-150
1e-150
1e-150
1e-150
1e-150
1e-150
1e-150
1e-150
1e-150
1e-150
1e-150
1e-150
1e-150
1e-150
1e-150
1e-150
1e-150
1e-150
1e-150
1e-150
1e-150
1e-150
1e-150
1e-150
1e-150
1e-150
1e-150
1e-150
1e-150
1e-150
1e-150
1e-150
1e-150
1e-150
1e-150
1e-150
1e-150
1e-150
1e-150
1e-150
1e-150
1e-150
1e-150
1e-150
1e-150
1e-150
1e-150
1e-150
1e-150
1e-150
1e-150
1e-150
1e-150
1e-150
1e-150
1e-150
1e-150
1e-150
1e-150
1e-150
1e-150
1e-150
1e-150
1e-150
1e-150
1e-150
1e-150
1e-150
1e-150
1e-150
1e-150
1e-150
1e-150
1e-150
1e-150
1e-150
1e-150
1e-150
1e-150
1e-150
1e-150
1e-150
1e-150
1e-150
1e-150
)
;

boundaryField
{
    Wall
    {
        type            zeroGradient;
    }
    frontAndBack
    {
        type            empty;
    }
    atmosphere
    {
        type            zeroGradient;
    }
}


// ************************************************************************* //
