/*--------------------------------*- C++ -*----------------------------------*\
| =========                 |                                                 |
| \\      /  F ield         | OpenFOAM: The Open Source CFD Toolbox           |
|  \\    /   O peration     | Version:  3.0.1                                 |
|   \\  /    A nd           | Web:      www.OpenFOAM.org                      |
|    \\/     M anipulation  |                                                 |
\*---------------------------------------------------------------------------*/
FoamFile
{
    version     2.0;
    format      ascii;
    class       volScalarField;
    location    "24";
    object      XW;
}
// * * * * * * * * * * * * * * * * * * * * * * * * * * * * * * * * * * * * * //

dimensions      [0 0 0 0 0 0 0];

internalField   nonuniform List<scalar> 
800
(
0.57050301
0.57052315
0.57052574
0.57052605
0.57052615
0.57052624
0.57052634
0.57052642
0.57052647
0.57052649
0.5705265
0.57052647
0.57052642
0.57052634
0.57052624
0.57052615
0.57052605
0.57052574
0.57052315
0.57050301
0.55218955
0.55270238
0.55279375
0.55280762
0.55280751
0.552807
0.55280783
0.55280936
0.55281078
0.55281159
0.55281159
0.55281078
0.55280936
0.55280783
0.552807
0.5528075
0.55280762
0.55279375
0.55270237
0.55218954
0.53478356
0.53563973
0.53583011
0.53586451
0.53586787
0.53586776
0.53586907
0.53587136
0.53587352
0.53587479
0.53587479
0.53587352
0.53587136
0.53586906
0.53586775
0.53586787
0.5358645
0.5358301
0.53563972
0.53478355
0.517798
0.51902352
0.51930147
0.5193505
0.51935551
0.51935447
0.51935538
0.51935773
0.51936019
0.51936167
0.51936167
0.51936018
0.51935772
0.51935538
0.51935446
0.5193555
0.51935049
0.51930147
0.51902351
0.51779799
0.50056618
0.5022197
0.5025897
0.50265472
0.50266037
0.50265746
0.50265749
0.50265951
0.50266205
0.50266363
0.50266363
0.50266205
0.5026595
0.50265748
0.50265745
0.50266036
0.50265472
0.5025897
0.5022197
0.50056617
0.48218455
0.4843735
0.48485273
0.48493861
0.48494535
0.48494077
0.48494015
0.48494208
0.48494495
0.48494674
0.48494674
0.48494494
0.48494207
0.48494014
0.48494076
0.48494534
0.48493861
0.48485273
0.4843735
0.48218454
0.46149455
0.46438934
0.46501534
0.46512888
0.46513827
0.46513344
0.46513355
0.46513658
0.46514066
0.46514311
0.46514311
0.46514065
0.46513657
0.46513354
0.46513343
0.46513827
0.46512887
0.46501534
0.46438934
0.46149455
0.43705298
0.4408708
0.44173105
0.44188061
0.44189287
0.44189065
0.44189449
0.44190127
0.44190834
0.44191237
0.44191236
0.44190833
0.44190126
0.44189448
0.44189064
0.44189286
0.44188061
0.44173105
0.4408708
0.43705297
0.40705811
0.41204631
0.41328378
0.41347959
0.413504
0.41350701
0.41352039
0.41353559
0.41354867
0.41355582
0.41355581
0.41354866
0.41353557
0.41352037
0.413507
0.41350399
0.41347958
0.41328377
0.4120463
0.40705808
0.36919162
0.37561947
0.37743397
0.37768459
0.37773067
0.37775399
0.377788
0.37781895
0.37784244
0.37785494
0.37785494
0.37784242
0.37781893
0.37778798
0.37775397
0.37773065
0.37768457
0.37743394
0.37561944
0.36919157
0.32068071
0.32877956
0.33140894
0.33172047
0.33182415
0.33189208
0.33196161
0.33201772
0.33205653
0.33207698
0.33207697
0.33205651
0.33201769
0.33196158
0.33189205
0.33182411
0.33172043
0.3314089
0.3287795
0.32068063
0.25839506
0.26900419
0.27203871
0.27242386
0.27324796
0.27338214
0.27349858
0.27358711
0.2736444
0.27367451
0.2736745
0.27364439
0.27358709
0.27349855
0.2733821
0.27324791
0.27242381
0.27203865
0.26900412
0.25839497
0.17911119
0.19365834
0.19619794
0.19811925
0.19933733
0.19952734
0.19967577
0.19979222
0.19990094
0.19994267
0.19994267
0.19990093
0.19979221
0.19967575
0.19952731
0.19933729
0.1981192
0.19619789
0.19365828
0.17911112
0.080666408
0.096844463
0.10213631
0.10349655
0.10427352
0.10443139
0.10455037
0.10465007
0.10861565
0.10865671
0.10865671
0.10861565
0.10465006
0.10455036
0.10443138
0.1042735
0.10349653
0.10213628
0.096844437
0.080666389
1e-150
1e-150
1e-150
1e-150
1e-150
1e-150
1e-150
1e-150
1e-150
1e-150
1e-150
1e-150
1e-150
1e-150
1e-150
1e-150
1e-150
1e-150
1e-150
1e-150
1e-150
1e-150
1e-150
1e-150
1e-150
1e-150
1e-150
1e-150
1e-150
1e-150
1e-150
1e-150
1e-150
1e-150
1e-150
1e-150
1e-150
1e-150
1e-150
1e-150
1e-150
1e-150
1e-150
1e-150
1e-150
1e-150
1e-150
1e-150
1e-150
1e-150
1e-150
1e-150
1e-150
1e-150
1e-150
1e-150
1e-150
1e-150
1e-150
1e-150
1e-150
1e-150
1e-150
1e-150
1e-150
1e-150
1e-150
1e-150
1e-150
1e-150
1e-150
1e-150
1e-150
1e-150
1e-150
1e-150
1e-150
1e-150
1e-150
1e-150
1e-150
1e-150
1e-150
1e-150
1e-150
1e-150
1e-150
1e-150
1e-150
1e-150
1e-150
1e-150
1e-150
1e-150
1e-150
1e-150
1e-150
1e-150
1e-150
1e-150
1e-150
1e-150
1e-150
1e-150
1e-150
1e-150
1e-150
1e-150
1e-150
1e-150
1e-150
1e-150
1e-150
1e-150
1e-150
1e-150
1e-150
1e-150
1e-150
1e-150
1e-150
1e-150
1e-150
1e-150
1e-150
1e-150
1e-150
1e-150
1e-150
1e-150
1e-150
1e-150
1e-150
1e-150
1e-150
1e-150
1e-150
1e-150
1e-150
1e-150
1e-150
1e-150
1e-150
1e-150
1e-150
1e-150
1e-150
1e-150
1e-150
1e-150
1e-150
1e-150
1e-150
1e-150
1e-150
1e-150
1e-150
1e-150
1e-150
1e-150
1e-150
1e-150
1e-150
1e-150
1e-150
1e-150
1e-150
1e-150
1e-150
1e-150
1e-150
1e-150
1e-150
1e-150
1e-150
1e-150
1e-150
1e-150
1e-150
1e-150
1e-150
1e-150
1e-150
1e-150
1e-150
1e-150
1e-150
1e-150
1e-150
1e-150
1e-150
1e-150
1e-150
1e-150
1e-150
1e-150
1e-150
1e-150
1e-150
1e-150
1e-150
1e-150
1e-150
1e-150
1e-150
1e-150
1e-150
1e-150
1e-150
1e-150
1e-150
1e-150
1e-150
1e-150
1e-150
1e-150
1e-150
1e-150
1e-150
1e-150
1e-150
1e-150
1e-150
1e-150
1e-150
1e-150
1e-150
1e-150
1e-150
1e-150
1e-150
1e-150
1e-150
1e-150
1e-150
1e-150
1e-150
1e-150
1e-150
1e-150
1e-150
1e-150
1e-150
1e-150
1e-150
1e-150
1e-150
1e-150
1e-150
1e-150
1e-150
1e-150
1e-150
1e-150
1e-150
1e-150
1e-150
1e-150
1e-150
1e-150
1e-150
1e-150
1e-150
1e-150
1e-150
1e-150
1e-150
1e-150
1e-150
1e-150
1e-150
1e-150
1e-150
1e-150
1e-150
1e-150
1e-150
1e-150
1e-150
1e-150
1e-150
1e-150
1e-150
1e-150
1e-150
1e-150
1e-150
1e-150
1e-150
1e-150
1e-150
1e-150
1e-150
1e-150
1e-150
1e-150
1e-150
1e-150
1e-150
1e-150
1e-150
1e-150
1e-150
1e-150
1e-150
1e-150
1e-150
1e-150
1e-150
1e-150
1e-150
1e-150
1e-150
1e-150
1e-150
1e-150
1e-150
1e-150
1e-150
1e-150
1e-150
1e-150
1e-150
1e-150
1e-150
1e-150
1e-150
1e-150
1e-150
1e-150
1e-150
1e-150
1e-150
1e-150
1e-150
1e-150
1e-150
1e-150
1e-150
1e-150
1e-150
1e-150
1e-150
1e-150
1e-150
1e-150
1e-150
1e-150
1e-150
1e-150
1e-150
1e-150
1e-150
1e-150
1e-150
1e-150
1e-150
1e-150
1e-150
1e-150
1e-150
1e-150
1e-150
1e-150
1e-150
1e-150
1e-150
1e-150
1e-150
1e-150
1e-150
1e-150
1e-150
1e-150
1e-150
1e-150
1e-150
1e-150
1e-150
1e-150
1e-150
1e-150
1e-150
1e-150
1e-150
1e-150
1e-150
1e-150
1e-150
1e-150
1e-150
1e-150
1e-150
1e-150
1e-150
1e-150
1e-150
1e-150
1e-150
1e-150
1e-150
1e-150
1e-150
1e-150
1e-150
1e-150
1e-150
1e-150
1e-150
1e-150
1e-150
1e-150
1e-150
1e-150
1e-150
1e-150
1e-150
1e-150
1e-150
1e-150
1e-150
1e-150
1e-150
1e-150
1e-150
1e-150
1e-150
1e-150
1e-150
1e-150
1e-150
1e-150
1e-150
1e-150
1e-150
1e-150
1e-150
1e-150
1e-150
1e-150
1e-150
1e-150
1e-150
1e-150
1e-150
1e-150
1e-150
1e-150
1e-150
1e-150
1e-150
1e-150
1e-150
1e-150
1e-150
1e-150
1e-150
1e-150
1e-150
1e-150
1e-150
1e-150
1e-150
1e-150
1e-150
1e-150
1e-150
1e-150
1e-150
1e-150
1e-150
1e-150
1e-150
1e-150
1e-150
1e-150
1e-150
1e-150
1e-150
1e-150
1e-150
1e-150
1e-150
1e-150
1e-150
1e-150
1e-150
1e-150
1e-150
1e-150
1e-150
1e-150
1e-150
1e-150
1e-150
1e-150
1e-150
1e-150
1e-150
1e-150
1e-150
1e-150
1e-150
1e-150
1e-150
1e-150
1e-150
1e-150
1e-150
1e-150
1e-150
1e-150
1e-150
1e-150
1e-150
1e-150
1e-150
1e-150
1e-150
1e-150
)
;

boundaryField
{
    Wall
    {
        type            zeroGradient;
    }
    frontAndBack
    {
        type            empty;
    }
    atmosphere
    {
        type            zeroGradient;
    }
}


// ************************************************************************* //
