/*--------------------------------*- C++ -*----------------------------------*\
| =========                 |                                                 |
| \\      /  F ield         | OpenFOAM: The Open Source CFD Toolbox           |
|  \\    /   O peration     | Version:  3.0.1                                 |
|   \\  /    A nd           | Web:      www.OpenFOAM.org                      |
|    \\/     M anipulation  |                                                 |
\*---------------------------------------------------------------------------*/
FoamFile
{
    version     2.0;
    format      ascii;
    class       volScalarField;
    location    "32";
    object      alpha.gas;
}
// * * * * * * * * * * * * * * * * * * * * * * * * * * * * * * * * * * * * * //

dimensions      [0 0 0 0 0 0 0];

internalField   nonuniform List<scalar> 
800
(
2.0253957e-28
2.2509996e-25
4.3130257e-22
8.5061689e-22
2.1198875e-23
1.0466244e-21
9.2673105e-22
6.3180324e-23
4.5922142e-25
1.4292983e-27
3.0287947e-23
2.93439e-23
8.2193879e-25
6.861822e-23
6.6599685e-23
1.5402153e-27
4.7025401e-32
2.0357141e-35
4.0123884e-39
7.4813322e-43
1.4030807e-12
3.2535939e-13
2.231496e-11
8.3714004e-12
4.5933457e-13
1.0552907e-11
8.4473147e-12
1.0124388e-11
2.0553667e-11
5.1673612e-11
2.600626e-11
2.5825934e-11
1.3957485e-11
8.2948781e-12
7.74764e-12
1.5016343e-12
1.398532e-15
1.0488224e-13
4.3533734e-12
6.1153724e-15
1.4234003e-08
1.3499031e-08
1.3078786e-08
1.304816e-08
1.2984298e-08
1.2987729e-08
1.2997989e-08
1.3012775e-08
1.3030374e-08
1.3058184e-08
1.3039457e-08
1.3034244e-08
1.3015611e-08
1.2997931e-08
1.2985757e-08
1.298515e-08
1.304216e-08
1.3062805e-08
1.3502148e-08
1.4233292e-08
5.4068198e-08
4.7217117e-08
4.481799e-08
4.4003068e-08
4.3778685e-08
4.375493e-08
4.3783737e-08
4.3824743e-08
4.386137e-08
4.3894341e-08
4.388045e-08
4.3864308e-08
4.382696e-08
4.3783837e-08
4.3753671e-08
4.3779583e-08
4.3998893e-08
4.4806362e-08
4.7220108e-08
5.406839e-08
1.4608063e-07
1.2876369e-07
1.2208252e-07
1.2013098e-07
1.1956475e-07
1.1950609e-07
1.1959148e-07
1.1970195e-07
1.197915e-07
1.1985168e-07
1.198379e-07
1.1979455e-07
1.197044e-07
1.1959189e-07
1.1950527e-07
1.1956619e-07
1.2012743e-07
1.2207167e-07
1.2876788e-07
1.4608223e-07
3.0328907e-07
2.6796166e-07
2.5320793e-07
2.4928569e-07
2.4818165e-07
2.4808333e-07
2.4827188e-07
2.4850108e-07
2.4868016e-07
2.4878624e-07
2.487725e-07
2.4868342e-07
2.485039e-07
2.4827279e-07
2.4808317e-07
2.4818392e-07
2.4928307e-07
2.5319826e-07
2.6796766e-07
3.0329273e-07
5.4391162e-07
4.8140548e-07
4.5275906e-07
4.4557663e-07
4.437217e-07
4.4359708e-07
4.4395713e-07
4.4437126e-07
4.4468778e-07
4.4486365e-07
4.448501e-07
4.4469133e-07
4.443746e-07
4.4395878e-07
4.4359789e-07
4.4372515e-07
4.4557535e-07
4.5275116e-07
4.8141388e-07
5.439179e-07
8.8468074e-07
7.8538115e-07
7.3454209e-07
7.2220012e-07
7.1939157e-07
7.1928817e-07
7.1991683e-07
7.2060199e-07
7.2111657e-07
7.2139212e-07
7.2137879e-07
7.2112052e-07
7.2060604e-07
7.1991947e-07
7.1929024e-07
7.1939653e-07
7.2220055e-07
7.3453642e-07
7.8539247e-07
8.8469005e-07
1.3408414e-06
1.1956734e-06
1.11098e-06
1.0905742e-06
1.086645e-06
1.0866585e-06
1.0876859e-06
1.0887491e-06
1.0895354e-06
1.0899463e-06
1.0899332e-06
1.0895399e-06
1.088754e-06
1.0876898e-06
1.0866621e-06
1.0866518e-06
1.0905766e-06
1.1109769e-06
1.195688e-06
1.3408539e-06
1.925524e-06
1.7227398e-06
1.5924316e-06
1.5603969e-06
1.5550651e-06
1.5553632e-06
1.5569593e-06
1.5585277e-06
1.5596718e-06
1.5602592e-06
1.5602464e-06
1.5596768e-06
1.5585336e-06
1.5569646e-06
1.5553685e-06
1.5550741e-06
1.5604015e-06
1.5924314e-06
1.7227574e-06
1.9255393e-06
2.6419088e-06
2.3752159e-06
2.1996399e-06
2.13968e-06
2.1319952e-06
2.132965e-06
2.1352262e-06
2.1374337e-06
2.1390335e-06
2.139844e-06
2.1398315e-06
2.1390393e-06
2.1374408e-06
2.1352331e-06
2.1329723e-06
2.1320063e-06
2.1396869e-06
2.1996437e-06
2.3752363e-06
2.6419264e-06
3.5088941e-06
3.249546e-06
2.9574984e-06
2.8349741e-06
2.8251666e-06
2.824124e-06
2.8263059e-06
2.8300609e-06
2.832247e-06
2.8333307e-06
2.8333186e-06
2.8322536e-06
2.8300692e-06
2.8263145e-06
2.8241333e-06
2.8251797e-06
2.8349825e-06
2.9575044e-06
3.2495732e-06
3.5089137e-06
4.5379149e-06
4.2645936e-06
3.7588829e-06
3.6217299e-06
3.6016196e-06
3.589391e-06
3.634405e-06
3.6377607e-06
3.6393748e-06
3.6407878e-06
3.640776e-06
3.6393821e-06
3.6377703e-06
3.6344148e-06
3.5893993e-06
3.6016465e-06
3.621745e-06
3.7588901e-06
4.2646144e-06
4.5379353e-06
5.649555e-06
4.9497342e-06
4.5614116e-06
4.5229547e-06
4.5202144e-06
5.1398203e-06
4.8764337e-06
4.555838e-06
4.5586082e-06
4.5604795e-06
4.5604681e-06
4.5586162e-06
4.5558516e-06
4.8764215e-06
5.1399116e-06
4.5201758e-06
4.5229595e-06
4.5614238e-06
4.9497512e-06
5.6495739e-06
7.9353508e-06
6.1065071e-06
5.5621566e-06
5.7278624e-06
8.7283743e-06
8.6668255e-06
5.7505782e-06
5.5740864e-06
5.5818343e-06
5.5841214e-06
5.5841104e-06
5.5818428e-06
5.5740953e-06
5.7509757e-06
8.6661136e-06
8.7279589e-06
5.7278175e-06
5.5621904e-06
6.1065583e-06
7.9354409e-06
9.9329056e-06
2.0974061e-05
1.077999e-05
1.1830567e-05
1.4631253e-05
7.9415988e-06
6.3628279e-06
6.69347e-06
6.6986567e-06
6.70136e-06
6.7013493e-06
6.6986656e-06
6.6934955e-06
6.3627259e-06
7.944962e-06
1.463156e-05
1.1829857e-05
1.0779742e-05
2.0974607e-05
9.9329855e-06
2.0538397e-05
3.3073543e-05
3.25022e-05
2.8902933e-05
1.3331315e-05
7.9268642e-06
7.8135745e-06
7.8877379e-06
7.8960176e-06
7.8992991e-06
7.8992887e-06
7.8960269e-06
7.887713e-06
7.81235e-06
7.9298609e-06
1.3331903e-05
2.8903382e-05
3.2502184e-05
3.3073717e-05
2.0538446e-05
3.307372e-05
3.3073631e-05
3.3073465e-05
2.3620435e-05
1.1313724e-05
1.1508158e-05
9.4190651e-06
9.1476718e-06
9.1576456e-06
9.1616404e-06
9.1616303e-06
9.157656e-06
9.1477139e-06
9.4149678e-06
1.1494569e-05
1.1314028e-05
2.362228e-05
3.3073639e-05
3.3073805e-05
3.3073894e-05
3.3073631e-05
3.3073465e-05
3.2384387e-05
1.144077e-05
1.1312965e-05
1.2093344e-05
1.0240127e-05
1.0468394e-05
1.0465765e-05
1.0470299e-05
1.0470289e-05
1.0465774e-05
1.0468255e-05
1.0243171e-05
1.2081754e-05
1.1313268e-05
1.1441273e-05
3.2384163e-05
3.3073638e-05
3.3073805e-05
3.3073464e-05
3.307355e-05
1.5178241e-05
1.1312968e-05
1.1312639e-05
1.1345666e-05
1.2550504e-05
1.1786342e-05
1.1802072e-05
1.1807506e-05
1.1807497e-05
1.1802083e-05
1.1786473e-05
1.2543646e-05
1.1345305e-05
1.131298e-05
1.1313271e-05
1.5177799e-05
3.3073724e-05
3.3073638e-05
3.3073388e-05
2.9606293e-05
1.2961393e-05
1.1313599e-05
1.2985038e-05
1.1343142e-05
1.2881782e-05
1.3144501e-05
1.315145e-05
1.3157205e-05
1.3157196e-05
1.3151458e-05
1.3145017e-05
1.2887419e-05
1.1342746e-05
1.2976447e-05
1.1313903e-05
1.2963049e-05
2.9605088e-05
3.3073561e-05
2.2274493e-05
1.8975521e-05
1.9124558e-05
1.1314284e-05
1.8729103e-05
1.7516275e-05
1.5695794e-05
1.4487357e-05
1.4498437e-05
1.4504708e-05
1.4504698e-05
1.4498443e-05
1.4487443e-05
1.5713853e-05
1.7535424e-05
1.873687e-05
1.1314587e-05
1.91255e-05
1.8982768e-05
2.2282429e-05
1.4173797e-05
1.3535268e-05
1.9144795e-05
1.1315379e-05
1.8730664e-05
1.8729161e-05
1.5763328e-05
1.5802085e-05
1.5821928e-05
1.5828597e-05
1.5828588e-05
1.5821935e-05
1.5801612e-05
1.5756184e-05
1.8736928e-05
1.8738434e-05
1.1315684e-05
1.9145704e-05
1.353145e-05
1.4169193e-05
1.3149958e-05
1.2792169e-05
1.7124621e-05
1.1315635e-05
1.2847458e-05
1.6061194e-05
1.7563115e-05
1.7078319e-05
1.7085929e-05
1.7093298e-05
1.709329e-05
1.708594e-05
1.7078975e-05
1.7560549e-05
1.6068243e-05
1.2831893e-05
1.131594e-05
1.711982e-05
1.2788628e-05
1.3146505e-05
1.2792282e-05
1.2024561e-05
1.1316765e-05
1.1315847e-05
1.1316732e-05
1.1722015e-05
1.6976387e-05
1.8346801e-05
1.8364307e-05
1.8370284e-05
1.8370275e-05
1.8364316e-05
1.8346199e-05
1.6972607e-05
1.1714522e-05
1.1317037e-05
1.1316151e-05
1.1317069e-05
1.2021255e-05
1.2788741e-05
1.9595151e-05
1.4620013e-05
1.1769747e-05
1.2369958e-05
1.2001564e-05
1.6220993e-05
1.9440687e-05
2.0429871e-05
2.0435543e-05
2.0431179e-05
2.043117e-05
2.0435548e-05
2.0429782e-05
1.9439766e-05
1.6216088e-05
1.1997732e-05
1.2366493e-05
1.1768063e-05
1.4618576e-05
1.9593201e-05
0.00012298242
4.4006324e-05
2.6445531e-05
2.7941814e-05
2.55702e-05
2.8580853e-05
2.9700762e-05
2.9766429e-05
2.9587125e-05
2.9494379e-05
2.949436e-05
2.9587097e-05
2.9766385e-05
2.9700337e-05
2.8578735e-05
2.5573865e-05
2.7938661e-05
2.6446935e-05
4.4006687e-05
0.00012297701
0.0020013253
0.00052275944
0.00021517091
0.00016656242
0.00014263941
0.00013493588
0.00013073293
0.00012827426
0.00012589937
0.00012469507
0.00012469492
0.00012589888
0.00012827344
0.00013073168
0.00013493439
0.00014264267
0.00016655984
0.000215167
0.00052272932
0.0020011445
0.081293761
0.014024097
0.0046834036
0.0030472211
0.0024379907
0.0021772652
0.0020604001
0.0020003395
0.0019500393
0.0019246231
0.0019246196
0.0019500286
0.0020003195
0.0020603694
0.0021772254
0.0024379371
0.003047136
0.0046832023
0.014022972
0.0812855
0.68043553
0.35500728
0.19825277
0.1420685
0.114981
0.10265775
0.09700279
0.093970293
0.091262322
0.089890883
0.089890677
0.091261703
0.093969204
0.09700124
0.10265578
0.11497841
0.14206446
0.19824663
0.35499509
0.68041815
0.98014563
0.90247958
0.81955419
0.77600285
0.7456902
0.72838969
0.71991508
0.7152024
0.71086465
0.70863665
0.70863631
0.71086363
0.71520065
0.71991267
0.72838675
0.74568668
0.77599919
0.81954986
0.90247479
0.9801436
0.99986802
0.99795786
0.99341405
0.98986299
0.98716696
0.98555641
0.98474442
0.98428991
0.98385749
0.98363328
0.98363325
0.98385739
0.98428973
0.98474418
0.98555612
0.98716664
0.98986265
0.99341373
0.99795768
0.999868
0.99999996
0.99999647
0.99997695
0.99995245
0.99992936
0.99991373
0.99990565
0.99990123
0.99989679
0.99989447
0.99989447
0.99989679
0.99990123
0.99990565
0.99991372
0.99992936
0.99995245
0.99997694
0.99999647
0.99999996
1
1
1
0.99999999
0.99999998
0.99999997
0.99999996
0.99999996
0.99999996
0.99999996
0.99999996
0.99999996
0.99999996
0.99999996
0.99999997
0.99999998
0.99999999
1
1
1
1
1
1
1
1
1
1
1
1
1
1
1
1
1
1
1
1
1
1
1
1
1
1
1
1
1
1
1
1
1
1
1
1
1
1
1
1
1
1
1
1
1
1
1
1
1
1
1
1
1
1
1
1
1
1
1
1
1
1
1
1
1
1
1
1
1
1
1
1
1
1
1
1
1
1
1
1
1
1
1
1
1
1
1
1
1
1
1
1
1
1
1
1
1
1
1
1
1
1
1
1
1
1
1
1
1
1
1
1
1
1
1
1
1
1
1
1
1
1
1
)
;

boundaryField
{
    Wall
    {
        type            zeroGradient;
    }
    frontAndBack
    {
        type            empty;
    }
    atmosphere
    {
        type            zeroGradient;
    }
}


// ************************************************************************* //
