/*--------------------------------*- C++ -*----------------------------------*\
| =========                 |                                                 |
| \\      /  F ield         | OpenFOAM: The Open Source CFD Toolbox           |
|  \\    /   O peration     | Version:  3.0.1                                 |
|   \\  /    A nd           | Web:      www.OpenFOAM.org                      |
|    \\/     M anipulation  |                                                 |
\*---------------------------------------------------------------------------*/
FoamFile
{
    version     2.0;
    format      ascii;
    class       volScalarField;
    location    "32";
    object      g1_BA;
}
// * * * * * * * * * * * * * * * * * * * * * * * * * * * * * * * * * * * * * //

dimensions      [0 0 0 0 0 0 0];

internalField   nonuniform List<scalar> 
800
(
0.55043463
0.55042658
0.55042716
0.55042761
0.55042772
0.55042771
0.55042766
0.55042763
0.5504276
0.55042759
0.55042759
0.5504276
0.55042763
0.55042766
0.55042771
0.55042771
0.55042761
0.55042716
0.55042658
0.55043463
0.55706804
0.55682691
0.55678003
0.55676827
0.55676549
0.55676472
0.55676423
0.55676376
0.55676336
0.55676313
0.55676313
0.55676336
0.55676376
0.55676424
0.55676472
0.5567655
0.55676827
0.55678004
0.55682692
0.55706805
0.5570024
0.55683674
0.55683328
0.55684046
0.55684321
0.55684249
0.55684026
0.55683789
0.55683609
0.55683514
0.55683514
0.55683608
0.55683789
0.55684025
0.55684248
0.5568432
0.55684046
0.55683327
0.55683673
0.55700238
0.55117715
0.55128484
0.55139279
0.55144289
0.55145945
0.55146099
0.5514571
0.55145239
0.55144872
0.5514468
0.55144679
0.55144871
0.55145238
0.55145708
0.55146096
0.55145942
0.55144285
0.55139275
0.55128479
0.55117707
0.54052906
0.54106732
0.54132829
0.54143431
0.54146903
0.54147388
0.54146835
0.54146104
0.54145525
0.54145221
0.5414522
0.54145523
0.54146102
0.54146832
0.54147384
0.54146898
0.54143424
0.54132821
0.54106722
0.54052893
0.52600706
0.52707811
0.52751541
0.52768325
0.52773731
0.52774535
0.52773785
0.52772766
0.52771953
0.52771527
0.52771527
0.52771951
0.52772762
0.5277378
0.52774528
0.52773723
0.52768315
0.52751529
0.52707797
0.52600687
0.5085183
0.51017775
0.51079944
0.51102965
0.51110171
0.51111187
0.51110177
0.51108834
0.5110777
0.51107216
0.51107215
0.51107768
0.51108829
0.5111017
0.51111178
0.5111016
0.51102952
0.51079929
0.51017757
0.50851807
0.48881226
0.49112485
0.49193723
0.49222761
0.49231584
0.49232682
0.49231345
0.4922964
0.49228307
0.49227615
0.49227613
0.49228303
0.49229634
0.49231336
0.49232671
0.49231571
0.49222746
0.49193705
0.49112465
0.48881201
0.46723886
0.47022545
0.47122562
0.47157137
0.47167232
0.47168254
0.47166523
0.47164434
0.47162822
0.4716199
0.47161988
0.47162818
0.47164427
0.47166513
0.47168242
0.47167217
0.4715712
0.47122543
0.47022524
0.4672386
0.44418824
0.44790401
0.44910598
0.44950284
0.44961295
0.44962143
0.44960017
0.44957557
0.44955671
0.44954702
0.44954701
0.44955667
0.4495755
0.44960007
0.44962129
0.44961279
0.44950266
0.44910577
0.44790378
0.44418798
0.41985507
0.42430573
0.42572924
0.42617347
0.42628409
0.42628746
0.42626305
0.42623544
0.42621415
0.42620326
0.42620324
0.42621411
0.42623536
0.42626294
0.42628733
0.42628392
0.42617328
0.42572904
0.42430551
0.41985482
0.3946818
0.39981082
0.40146492
0.40195512
0.40205312
0.40204477
0.40201862
0.40198919
0.40196604
0.4019542
0.40195418
0.40196599
0.40198911
0.40201851
0.40204463
0.40205295
0.40195494
0.40146472
0.39981061
0.39468157
0.37408783
0.37976884
0.38151801
0.38206205
0.38218708
0.38218324
0.38214804
0.38211239
0.38208537
0.3820714
0.38207138
0.38208532
0.38211231
0.38214793
0.3821831
0.38218693
0.38206187
0.38151782
0.37976865
0.37408762
0.35024564
0.35663588
0.35861376
0.35921551
0.35934855
0.35934072
0.35930419
0.35926563
0.35923616
0.35922082
0.3592208
0.35923611
0.35926555
0.35930408
0.35934059
0.3593484
0.35921534
0.35861358
0.3566357
0.35024545
0.32662603
0.33372506
0.33595776
0.33662771
0.33677063
0.33676248
0.33672188
0.33668063
0.33664875
0.33663219
0.33663217
0.3366487
0.33668055
0.33672177
0.33676235
0.33677048
0.33662756
0.3359576
0.33372489
0.32662585
0.30334173
0.31115366
0.31367027
0.31442286
0.31458568
0.3145782
0.31453158
0.31448766
0.31445377
0.3144361
0.31443609
0.31445372
0.31448759
0.31453148
0.31457808
0.31458555
0.31442272
0.31367011
0.3111535
0.30334158
0.28057296
0.28908101
0.29191249
0.29276704
0.29295944
0.29295248
0.29289887
0.29285167
0.29281649
0.29279768
0.29279766
0.29281645
0.2928516
0.29289878
0.29295238
0.29295932
0.29276692
0.29191235
0.28908087
0.28057283
0.25847224
0.26765293
0.27083593
0.27181794
0.27204964
0.2720437
0.27198223
0.27193021
0.27189437
0.27187419
0.27187417
0.27189433
0.27193014
0.27198215
0.2720436
0.27204953
0.27181783
0.27083581
0.26765281
0.25847213
0.2371168
0.24695303
0.25053471
0.25167806
0.25196199
0.25195943
0.25188903
0.25182979
0.25179333
0.25177138
0.25177136
0.25179329
0.25182973
0.25188895
0.25195935
0.2519619
0.25167797
0.2505346
0.24695292
0.23711671
0.21650583
0.22699171
0.23103271
0.23238203
0.23273716
0.23274279
0.23266225
0.23259276
0.23255489
0.23253059
0.23253058
0.23255486
0.2325927
0.23266219
0.23274272
0.23273708
0.23238195
0.23103262
0.22699163
0.21650577
0.19657496
0.20771536
0.21229098
0.21390373
0.21435743
0.21437914
0.21428756
0.21420435
0.21416319
0.21413569
0.21413568
0.21416316
0.2142043
0.2142875
0.21437908
0.21435736
0.21390366
0.21229091
0.2077153
0.19657493
0.17721189
0.18902051
0.19422119
0.19617005
0.19676037
0.19681045
0.19670797
0.19660724
0.19655954
0.19652755
0.19652754
0.19655952
0.19660719
0.19670792
0.19681039
0.19676031
0.19617
0.19422114
0.18902048
0.17721189
0.15826932
0.17076602
0.17669763
0.17907364
0.17985185
0.1799496
0.1798382
0.17971573
0.17965689
0.17961839
0.17961837
0.17965686
0.17971569
0.17983816
0.17994955
0.17985181
0.17907361
0.1766976
0.17076602
0.15826936
0.13957514
0.15278051
0.15956536
0.16248123
0.1635172
0.16369134
0.16357527
0.16342646
0.16335048
0.16330241
0.1633024
0.16335046
0.16342642
0.16357523
0.16369131
0.16351717
0.16248121
0.15956535
0.15278054
0.13957523
0.12094117
0.13486727
0.14264108
0.14623615
0.14762504
0.14791598
0.14780377
0.14762375
0.14752314
0.14746106
0.14746105
0.14752311
0.14762371
0.14780374
0.14791595
0.14762502
0.14623615
0.14264109
0.13486734
0.12094131
0.1021771
0.11680345
0.1257131
0.13016379
0.13202485
0.13249757
0.13240596
0.13219004
0.13205514
0.1319728
0.13197279
0.13205512
0.13219001
0.13240594
0.13249756
0.13202484
0.1301638
0.12571313
0.11680356
0.1021773
0.083076193
0.098351175
0.1085462
0.11405698
0.11655765
0.11729908
0.11725843
0.11700362
0.11682205
0.11671092
0.11671091
0.11682203
0.11700359
0.11725842
0.11729907
0.11655766
0.114057
0.10854626
0.098351337
0.083076485
0.062097833
0.07889773
0.090715765
0.097586781
0.10096208
0.10211867
0.10218458
0.1018962
0.10165499
0.10150514
0.10150513
0.10165498
0.10189618
0.10218457
0.10211867
0.10096209
0.097586831
0.090715874
0.078897997
0.0620983
0.032665244
0.050799192
0.066874456
0.076590254
0.081641166
0.083908904
0.084372525
0.084195274
0.083966376
0.08381271
0.083812705
0.083966377
0.08419528
0.084372557
0.083908957
0.081641252
0.076590394
0.066874715
0.050799651
0.032665627
0
0.020042803
0.031529745
0.040463034
0.046193218
0.049046311
0.050137581
0.050326116
0.050262339
0.050175072
0.050175067
0.050262339
0.050326121
0.050137606
0.049046352
0.046193283
0.040463136
0.031529913
0.020043027
0
0
0
0
0
0
0
0
0
0
0
0
0
0
0
0
0
0
0
0
0
0
0
0
0
0
0
0
0
0
0
0
0
0
0
0
0
0
0
0
0
0
0
0
0
0
0
0
0
0
0
0
0
0
0
0
0
0
0
0
0
0
0
0
0
0
0
0
0
0
0
0
0
0
0
0
0
0
0
0
0
0
0
0
0
0
0
0
0
0
0
0
0
0
0
0
0
0
0
0
0
0
0
0
0
0
0
0
0
0
0
0
0
0
0
0
0
0
0
0
0
0
0
0
0
0
0
0
0
0
0
0
0
0
0
0
0
0
0
0
0
0
0
0
0
0
0
0
0
0
0
0
0
0
0
0
0
0
0
0
0
0
0
0
0
0
0
0
0
0
0
0
0
0
0
0
0
0
0
0
0
0
0
0
0
0
0
0
0
0
0
0
0
0
0
0
0
0
0
0
0
)
;

boundaryField
{
    Wall
    {
        type            zeroGradient;
    }
    frontAndBack
    {
        type            empty;
    }
    atmosphere
    {
        type            zeroGradient;
    }
}


// ************************************************************************* //
