/*--------------------------------*- C++ -*----------------------------------*\
| =========                 |                                                 |
| \\      /  F ield         | OpenFOAM: The Open Source CFD Toolbox           |
|  \\    /   O peration     | Version:  3.0.1                                 |
|   \\  /    A nd           | Web:      www.OpenFOAM.org                      |
|    \\/     M anipulation  |                                                 |
\*---------------------------------------------------------------------------*/
FoamFile
{
    version     2.0;
    format      ascii;
    class       volScalarField;
    location    "32";
    object      g1_CO2;
}
// * * * * * * * * * * * * * * * * * * * * * * * * * * * * * * * * * * * * * //

dimensions      [0 0 0 0 0 0 0];

internalField   nonuniform List<scalar> 
800
(
0.47629755
0.4763453
0.47635981
0.47636253
0.4763629
0.47636299
0.47636311
0.47636327
0.4763634
0.47636347
0.47636347
0.4763634
0.47636327
0.47636311
0.47636299
0.4763629
0.47636253
0.47635981
0.4763453
0.47629755
0.49270512
0.49246495
0.49246656
0.49248153
0.4924896
0.49249138
0.49248996
0.4924876
0.49248557
0.49248445
0.49248445
0.49248557
0.49248759
0.49248996
0.49249138
0.49248959
0.49248152
0.49246655
0.49246494
0.49270509
0.50827711
0.50785441
0.50783214
0.50785373
0.50786684
0.5078701
0.50786795
0.50786414
0.50786082
0.50785895
0.50785895
0.50786081
0.50786413
0.50786794
0.50787009
0.50786683
0.50785371
0.50783212
0.50785438
0.50827706
0.52356596
0.5229006
0.52285424
0.52288405
0.52290283
0.52290876
0.52290711
0.52290297
0.52289911
0.5228969
0.5228969
0.5228991
0.52290296
0.52290709
0.52290875
0.52290281
0.52288403
0.52285421
0.52290056
0.52356588
0.53915139
0.53815918
0.53806758
0.53809699
0.53811963
0.53812854
0.53812807
0.53812441
0.53812059
0.53811836
0.53811836
0.53812059
0.5381244
0.53812806
0.53812853
0.53811961
0.53809696
0.53806754
0.53815913
0.5391513
0.55574458
0.55430008
0.55412565
0.55413665
0.55415859
0.55416941
0.55417013
0.55416732
0.55416387
0.55416181
0.55416181
0.55416387
0.55416732
0.55417013
0.5541694
0.55415857
0.55413662
0.55412561
0.55430002
0.55574448
0.57419509
0.5721053
0.57179745
0.57176687
0.57178153
0.57179201
0.57179328
0.57179128
0.57178827
0.57178647
0.57178647
0.57178827
0.57179128
0.57179328
0.57179201
0.57178151
0.57176685
0.57179742
0.57210524
0.57419499
0.59543401
0.59247934
0.59197592
0.5918793
0.59188023
0.59188757
0.59188818
0.59188644
0.59188366
0.59188204
0.59188204
0.59188367
0.59188645
0.59188819
0.59188757
0.59188023
0.59187928
0.59197589
0.5924793
0.59543393
0.62007454
0.61597793
0.61518923
0.61500138
0.6149787
0.61497964
0.61497756
0.61497497
0.61497191
0.61497025
0.61497025
0.61497193
0.61497499
0.61497758
0.61497965
0.61497871
0.61500138
0.61518922
0.6159779
0.62007447
0.64884872
0.64337089
0.64220181
0.64189917
0.6418388
0.6418278
0.6418201
0.64181484
0.6418107
0.64180858
0.64180859
0.64181072
0.64181487
0.64182014
0.64182784
0.64183884
0.6418992
0.64220182
0.64337088
0.64884868
0.68223106
0.67510193
0.67344653
0.67300574
0.67288127
0.67284388
0.67282611
0.6728156
0.67280941
0.67280632
0.67280633
0.67280944
0.67281565
0.67282616
0.67284394
0.67288133
0.67300579
0.67344658
0.67510196
0.68223106
0.72095764
0.71185274
0.70958303
0.70898088
0.70874605
0.70865603
0.70862177
0.70860234
0.70859341
0.70858864
0.70858866
0.70859345
0.7086024
0.70862184
0.70865611
0.70874613
0.70898097
0.70958311
0.71185281
0.72095769
0.77517216
0.7632638
0.75999075
0.75919113
0.75879659
0.75862701
0.75855146
0.75850748
0.75848818
0.75847807
0.75847809
0.75848823
0.75850755
0.75855156
0.75862712
0.75879671
0.75919126
0.75999088
0.76326393
0.77517229
0.83152576
0.81701876
0.81277414
0.81174789
0.81116681
0.81089125
0.81080529
0.810729
0.81068351
0.81066698
0.81066701
0.81068357
0.8107291
0.81080541
0.81089139
0.81116696
0.81174806
0.81277432
0.81701894
0.83152597
0.8965716
0.87931749
0.87405544
0.87276186
0.87190014
0.87154523
0.87138695
0.87126376
0.87115108
0.87112591
0.87112593
0.87115115
0.87126386
0.87138709
0.87154539
0.87190033
0.87276208
0.87405567
0.87931773
0.89657188
0.96867584
0.94916106
0.94294432
0.94135753
0.94027676
0.93983841
0.93955043
0.93936841
0.9391277
0.93909304
0.93909307
0.93912777
0.93936852
0.93955057
0.93983859
0.94027696
0.94135778
0.94294458
0.94916135
0.96867616
1.0477839
1.0264977
1.0194397
1.01757
1.0163242
1.0157582
1.0152667
1.015011
1.0145701
1.0145306
1.0145306
1.0145701
1.0150111
1.0152669
1.0157584
1.0163244
1.0175702
1.01944
1.0264981
1.0477842
1.1340774
1.1116576
1.1039421
1.1018772
1.1005155
1.0997296
1.0989254
1.0985747
1.0978391
1.0978103
1.0978103
1.0978391
1.0985747
1.0989255
1.0997298
1.1005157
1.1018775
1.1039424
1.1116579
1.1340777
1.227355
1.2047892
1.196723
1.1946634
1.1932367
1.1920987
1.1908581
1.1903868
1.1892253
1.1892354
1.1892355
1.1892254
1.1903868
1.1908582
1.1920988
1.1932369
1.1946636
1.1967233
1.2047895
1.2273552
1.3268517
1.3056765
1.2977737
1.2960507
1.294553
1.2929406
1.2911685
1.2905507
1.2888207
1.2889068
1.2889068
1.2888207
1.2905507
1.2911686
1.2929407
1.2945531
1.2960509
1.2977739
1.3056767
1.3268519
1.43094
1.4135184
1.4066442
1.4056746
1.4040658
1.4019253
1.3995924
1.3988048
1.3964296
1.3966291
1.3966291
1.3964296
1.3988048
1.3995924
1.4019254
1.4040659
1.4056747
1.4066443
1.4135185
1.43094
1.5367019
1.5263655
1.5219848
1.5223258
1.5207519
1.5179847
1.5151141
1.5141337
1.5111911
1.5115328
1.5115328
1.511191
1.5141337
1.5151141
1.5179847
1.5207519
1.5223259
1.5219848
1.5263656
1.5367018
1.6392551
1.6404033
1.6409617
1.6432753
1.6424096
1.6388767
1.635224
1.6340254
1.6307859
1.6312829
1.6312829
1.6307859
1.6340253
1.6352239
1.6388767
1.6424096
1.6432753
1.6409617
1.6404032
1.639255
1.7296066
1.7485388
1.7580122
1.7631328
1.7643509
1.7597359
1.7549187
1.7534797
1.7503643
1.7510105
1.7510105
1.7503642
1.7534796
1.7549186
1.7597359
1.7643509
1.7631328
1.7580122
1.7485388
1.7296068
1.791707
1.8380067
1.861579
1.8724205
1.8766342
1.8715241
1.865665
1.8639755
1.8614452
1.8622128
1.8622127
1.8614451
1.8639754
1.865665
1.8715241
1.8766342
1.8724206
1.8615792
1.8380071
1.791708
1.8009053
1.8882747
1.9327736
1.9555496
1.9628564
1.9597489
1.9538384
1.9518865
1.9502871
1.9511105
1.9511105
1.9502871
1.9518865
1.9538384
1.959749
1.9628566
1.9555499
1.9327741
1.8882759
1.8009076
1.7251445
1.8696215
1.9455417
1.9850456
2.0001103
1.999692
1.9951522
1.9928598
1.9922194
1.9929488
1.9929488
1.9922195
1.9928599
1.9951524
1.9996923
2.0001107
1.9850463
1.9455429
1.869624
1.7251492
1.5308799
1.7402024
1.8621299
1.9280631
1.9538416
1.9622928
1.9602172
1.9573575
1.9571869
1.9575198
1.9575199
1.957187
1.9573577
1.9602176
1.9622935
1.9538424
1.9280644
1.8621321
1.740207
1.5308868
1.1866086
1.4667616
1.6486033
1.7427188
1.7871565
1.809675
1.8104248
1.8067054
1.8059834
1.8054669
1.8054669
1.8059836
1.8067058
1.8104255
1.8096759
1.7871577
1.7427206
1.6486063
1.4667672
1.1866157
0
1.0094601
1.2560918
1.3920755
1.4655452
1.5051737
1.5089574
1.504584
1.5023188
1.5005955
1.5005955
1.5023189
1.5045843
1.508958
1.5051745
1.4655463
1.3920772
1.2560949
1.0094658
0
0
0
0
0
0
0
0
0
0
0
0
0
0
0
0
0
0
0
0
0
0
0
0
0
0
0
0
0
0
0
0
0
0
0
0
0
0
0
0
0
0
0
0
0
0
0
0
0
0
0
0
0
0
0
0
0
0
0
0
0
0
0
0
0
0
0
0
0
0
0
0
0
0
0
0
0
0
0
0
0
0
0
0
0
0
0
0
0
0
0
0
0
0
0
0
0
0
0
0
0
0
0
0
0
0
0
0
0
0
0
0
0
0
0
0
0
0
0
0
0
0
0
0
0
0
0
0
0
0
0
0
0
0
0
0
0
0
0
0
0
0
0
0
0
0
0
0
0
0
0
0
0
0
0
0
0
0
0
0
0
0
0
0
0
0
0
0
0
0
0
0
0
0
0
0
0
0
0
0
0
0
0
0
0
0
0
0
0
0
0
0
0
0
0
0
0
0
0
0
0
)
;

boundaryField
{
    Wall
    {
        type            zeroGradient;
    }
    frontAndBack
    {
        type            empty;
    }
    atmosphere
    {
        type            zeroGradient;
    }
}


// ************************************************************************* //
