/*--------------------------------*- C++ -*----------------------------------*\
| =========                 |                                                 |
| \\      /  F ield         | OpenFOAM: The Open Source CFD Toolbox           |
|  \\    /   O peration     | Version:  3.0.1                                 |
|   \\  /    A nd           | Web:      www.OpenFOAM.org                      |
|    \\/     M anipulation  |                                                 |
\*---------------------------------------------------------------------------*/
FoamFile
{
    version     2.0;
    format      ascii;
    class       volScalarField;
    location    "32";
    object      M2;
}
// * * * * * * * * * * * * * * * * * * * * * * * * * * * * * * * * * * * * * //

dimensions      [0 0 0 0 0 0 0];

internalField   nonuniform List<scalar> 
800
(
1.7049709e-12
1.7051312e-12
1.7051603e-12
1.7051631e-12
1.7051627e-12
1.7051623e-12
1.7051622e-12
1.7051624e-12
1.7051625e-12
1.7051626e-12
1.7051626e-12
1.7051625e-12
1.7051624e-12
1.7051623e-12
1.7051623e-12
1.7051627e-12
1.7051631e-12
1.7051603e-12
1.7051313e-12
1.704971e-12
1.6909872e-12
1.6922717e-12
1.6925938e-12
1.6926683e-12
1.6926737e-12
1.692664e-12
1.6926542e-12
1.6926475e-12
1.6926437e-12
1.692642e-12
1.692642e-12
1.6926437e-12
1.6926475e-12
1.6926542e-12
1.692664e-12
1.6926737e-12
1.6926682e-12
1.6925937e-12
1.6922717e-12
1.6909871e-12
1.6833696e-12
1.6852188e-12
1.6857975e-12
1.6859298e-12
1.6859442e-12
1.685932e-12
1.6859186e-12
1.6859095e-12
1.6859045e-12
1.6859023e-12
1.6859023e-12
1.6859045e-12
1.6859095e-12
1.6859186e-12
1.6859319e-12
1.6859442e-12
1.6859298e-12
1.6857975e-12
1.6852187e-12
1.6833694e-12
1.6829289e-12
1.6849625e-12
1.6857034e-12
1.685861e-12
1.6858745e-12
1.6858592e-12
1.6858443e-12
1.6858353e-12
1.6858307e-12
1.6858289e-12
1.6858289e-12
1.6858307e-12
1.6858353e-12
1.6858443e-12
1.6858592e-12
1.6858745e-12
1.685861e-12
1.6857034e-12
1.6849624e-12
1.6829287e-12
1.6904706e-12
1.6922811e-12
1.6930777e-12
1.6932312e-12
1.6932303e-12
1.6932084e-12
1.6931921e-12
1.6931841e-12
1.693181e-12
1.6931801e-12
1.6931801e-12
1.693181e-12
1.6931841e-12
1.6931921e-12
1.6932084e-12
1.6932303e-12
1.6932312e-12
1.6930777e-12
1.692281e-12
1.6904705e-12
1.706696e-12
1.7078508e-12
1.7085868e-12
1.7087081e-12
1.7086775e-12
1.7086439e-12
1.7086253e-12
1.7086186e-12
1.7086175e-12
1.7086179e-12
1.7086179e-12
1.7086175e-12
1.7086186e-12
1.7086253e-12
1.7086439e-12
1.7086775e-12
1.7087081e-12
1.7085868e-12
1.7078508e-12
1.7066959e-12
1.7321893e-12
1.7322442e-12
1.7327859e-12
1.7328458e-12
1.7327694e-12
1.7327184e-12
1.7326957e-12
1.7326902e-12
1.7326912e-12
1.732693e-12
1.732693e-12
1.7326912e-12
1.7326902e-12
1.7326957e-12
1.7327185e-12
1.7327694e-12
1.7328459e-12
1.732786e-12
1.7322443e-12
1.7321893e-12
1.7674953e-12
1.7659957e-12
1.7661791e-12
1.766146e-12
1.7660083e-12
1.7659337e-12
1.7659048e-12
1.7658997e-12
1.7659027e-12
1.7659059e-12
1.7659059e-12
1.7659027e-12
1.7658997e-12
1.7659049e-12
1.7659338e-12
1.7660085e-12
1.7661462e-12
1.7661792e-12
1.7659958e-12
1.7674955e-12
1.8130259e-12
1.8095703e-12
1.8092021e-12
1.8090426e-12
1.808835e-12
1.8087311e-12
1.8086932e-12
1.8086871e-12
1.8086917e-12
1.8086961e-12
1.8086961e-12
1.8086917e-12
1.8086872e-12
1.8086933e-12
1.8087313e-12
1.8088351e-12
1.8090428e-12
1.8092023e-12
1.8095706e-12
1.8130262e-12
1.8688272e-12
1.863112e-12
1.8619736e-12
1.8616522e-12
1.8613801e-12
1.8612474e-12
1.8611965e-12
1.8611874e-12
1.8611925e-12
1.8611978e-12
1.8611978e-12
1.8611926e-12
1.8611875e-12
1.8611967e-12
1.8612476e-12
1.8613804e-12
1.8616525e-12
1.8619739e-12
1.8631123e-12
1.8688276e-12
1.9346518e-12
1.9265004e-12
1.924363e-12
1.9238423e-12
1.9235313e-12
1.9233822e-12
1.9233127e-12
1.9232971e-12
1.9233017e-12
1.923307e-12
1.9233071e-12
1.9233018e-12
1.9232973e-12
1.923313e-12
1.9233825e-12
1.9235316e-12
1.9238427e-12
1.9243634e-12
1.9265008e-12
1.9346522e-12
2.0100599e-12
1.9994252e-12
1.9960843e-12
1.9953237e-12
1.9950191e-12
1.9948803e-12
1.994784e-12
1.9947569e-12
1.9947595e-12
1.994764e-12
1.994764e-12
1.9947596e-12
1.994757e-12
1.9947842e-12
1.9948807e-12
1.9950195e-12
1.9953241e-12
1.9960848e-12
1.9994257e-12
2.0100604e-12
2.093406e-12
2.0802745e-12
2.0757135e-12
2.074664e-12
2.0743396e-12
2.074206e-12
2.0740731e-12
2.0740279e-12
2.0740316e-12
2.0740337e-12
2.0740338e-12
2.0740317e-12
2.0740281e-12
2.0740734e-12
2.0742064e-12
2.0743401e-12
2.0746645e-12
2.075714e-12
2.080275e-12
2.0934065e-12
2.1851476e-12
2.1696368e-12
2.1637379e-12
2.1623328e-12
2.1621156e-12
2.162027e-12
2.1618871e-12
2.1618123e-12
2.1618231e-12
2.1618203e-12
2.1618204e-12
2.1618232e-12
2.1618126e-12
2.1618874e-12
2.1620274e-12
2.162116e-12
2.1623333e-12
2.1637384e-12
2.1696374e-12
2.1851482e-12
2.2842526e-12
2.2665537e-12
2.2594337e-12
2.2576021e-12
2.2575071e-12
2.2575376e-12
2.2573323e-12
2.257219e-12
2.2572404e-12
2.2572376e-12
2.2572377e-12
2.2572406e-12
2.2572192e-12
2.2573327e-12
2.257538e-12
2.2575076e-12
2.2576026e-12
2.2594343e-12
2.2665543e-12
2.2842532e-12
2.3868076e-12
2.3678587e-12
2.3597984e-12
2.3575039e-12
2.3576961e-12
2.3578751e-12
2.3575465e-12
2.3573915e-12
2.3574252e-12
2.3574513e-12
2.3574513e-12
2.3574253e-12
2.3573917e-12
2.3575468e-12
2.3578755e-12
2.3576965e-12
2.3575044e-12
2.359799e-12
2.3678593e-12
2.3868082e-12
2.4906059e-12
2.4713003e-12
2.4626073e-12
2.4598661e-12
2.4604716e-12
2.4607622e-12
2.4602444e-12
2.4600445e-12
2.4600897e-12
2.4602084e-12
2.4602084e-12
2.4600898e-12
2.4600447e-12
2.4602447e-12
2.4607625e-12
2.4604721e-12
2.4598666e-12
2.4626078e-12
2.4713008e-12
2.4906065e-12
2.5941896e-12
2.5753779e-12
2.566338e-12
2.5632303e-12
2.5643252e-12
2.5646242e-12
2.5638267e-12
2.5635744e-12
2.5636119e-12
2.5639173e-12
2.5639173e-12
2.563612e-12
2.5635746e-12
2.563827e-12
2.5646246e-12
2.5643256e-12
2.5632308e-12
2.5663385e-12
2.5753784e-12
2.5941901e-12
2.6959442e-12
2.6786027e-12
2.6694766e-12
2.6661249e-12
2.6677817e-12
2.6679398e-12
2.6667718e-12
2.6664575e-12
2.6664351e-12
2.6670333e-12
2.6670334e-12
2.6664352e-12
2.6664576e-12
2.666772e-12
2.6679401e-12
2.6677821e-12
2.6661253e-12
2.669477e-12
2.6786031e-12
2.6959445e-12
2.7938119e-12
2.7791538e-12
2.7702e-12
2.7667266e-12
2.7689924e-12
2.7688715e-12
2.7672851e-12
2.7669029e-12
2.7667575e-12
2.7677434e-12
2.7677434e-12
2.7667576e-12
2.766903e-12
2.7672853e-12
2.7688717e-12
2.7689926e-12
2.7667269e-12
2.7702003e-12
2.7791541e-12
2.793812e-12
2.8850848e-12
2.8746634e-12
2.8662007e-12
2.8626623e-12
2.8655347e-12
2.8650716e-12
2.8630924e-12
2.8626465e-12
2.8623734e-12
2.8638123e-12
2.8638124e-12
2.8623735e-12
2.8626466e-12
2.8630925e-12
2.8650717e-12
2.8655349e-12
2.8626625e-12
2.8662009e-12
2.8746636e-12
2.8850848e-12
2.9662125e-12
2.9619393e-12
2.9544331e-12
2.9508155e-12
2.9543047e-12
2.9534732e-12
2.9511933e-12
2.9507008e-12
2.9504241e-12
2.952344e-12
2.952344e-12
2.9504241e-12
2.9507008e-12
2.9511934e-12
2.9534733e-12
2.9543047e-12
2.9508156e-12
2.9544332e-12
2.9619393e-12
2.9662124e-12
3.0325907e-12
3.0367169e-12
3.0308814e-12
3.0270941e-12
3.031331e-12
3.030116e-12
3.0275707e-12
3.0270608e-12
3.0270412e-12
3.0294355e-12
3.0294355e-12
3.0270412e-12
3.0270608e-12
3.0275707e-12
3.030116e-12
3.031331e-12
3.0270941e-12
3.0308814e-12
3.0367168e-12
3.0325906e-12
3.077996e-12
3.0933579e-12
3.0902697e-12
3.0861814e-12
3.0914003e-12
3.0897765e-12
3.0869605e-12
3.086472e-12
3.0870428e-12
3.0898789e-12
3.0898789e-12
3.0870428e-12
3.0864721e-12
3.0869605e-12
3.0897765e-12
3.0914003e-12
3.0861814e-12
3.0902696e-12
3.0933578e-12
3.0779959e-12
3.094093e-12
3.1244065e-12
3.1254395e-12
3.1213679e-12
3.1275182e-12
3.1257501e-12
3.1227789e-12
3.1223574e-12
3.123825e-12
3.1270559e-12
3.1270559e-12
3.123825e-12
3.1223574e-12
3.1227789e-12
3.1257501e-12
3.1275182e-12
3.1213679e-12
3.1254395e-12
3.1244065e-12
3.0940931e-12
3.0704358e-12
3.1204022e-12
3.1273909e-12
3.1241728e-12
3.1309167e-12
3.1296699e-12
3.1268333e-12
3.1265243e-12
3.1290811e-12
3.1326535e-12
3.1326535e-12
3.1290812e-12
3.1265244e-12
3.1268333e-12
3.1296699e-12
3.1309167e-12
3.1241728e-12
3.127391e-12
3.1204024e-12
3.0704364e-12
2.9944858e-12
3.0694471e-12
3.0852613e-12
3.0835731e-12
3.0910073e-12
3.0909067e-12
3.0885019e-12
3.0883356e-12
3.0920052e-12
3.0958597e-12
3.0958598e-12
3.0920052e-12
3.0883357e-12
3.0885019e-12
3.0909068e-12
3.0910074e-12
3.0835732e-12
3.0852616e-12
3.0694477e-12
2.994487e-12
2.8514658e-12
2.9572138e-12
2.9859225e-12
2.9863457e-12
2.9950465e-12
2.996885e-12
2.9950084e-12
2.9949867e-12
2.9996114e-12
3.0036784e-12
3.0036785e-12
2.9996115e-12
2.9949868e-12
2.9950086e-12
2.9968852e-12
2.9950467e-12
2.9863459e-12
2.985923e-12
2.9572149e-12
2.8514676e-12
2.6244227e-12
2.7674529e-12
2.8138366e-12
2.8178333e-12
2.8298818e-12
2.8336182e-12
2.8321126e-12
2.8322102e-12
2.8374782e-12
2.8416693e-12
2.8416693e-12
2.8374784e-12
2.8322104e-12
2.8321128e-12
2.8336184e-12
2.829882e-12
2.8178337e-12
2.8138373e-12
2.7674544e-12
2.6244249e-12
2.2970315e-12
2.4818802e-12
2.5531762e-12
2.5651973e-12
2.5790824e-12
2.5887855e-12
2.5874629e-12
2.5876669e-12
2.5931623e-12
2.5973541e-12
2.5973541e-12
2.5931624e-12
2.5876671e-12
2.5874631e-12
2.5887857e-12
2.5790827e-12
2.5651977e-12
2.553177e-12
2.4818821e-12
2.2970347e-12
1.9634919e-12
2.1390324e-12
2.2170607e-12
2.2313207e-12
2.2447819e-12
2.254357e-12
2.2534949e-12
2.2539968e-12
2.2594745e-12
2.2636147e-12
2.2636148e-12
2.2594746e-12
2.2539971e-12
2.2534952e-12
2.2543573e-12
2.2447824e-12
2.2313215e-12
2.2170619e-12
2.1390352e-12
1.9634971e-12
1.5692274e-12
1.801328e-12
1.8931761e-12
1.9135799e-12
1.9250142e-12
1.9312778e-12
1.929979e-12
1.9300221e-12
1.9350819e-12
1.9391118e-12
1.9391119e-12
1.9350821e-12
1.9300224e-12
1.9299794e-12
1.9312784e-12
1.9250149e-12
1.913581e-12
1.8931778e-12
1.8013315e-12
1.5692361e-12
1.0417128e-12
1.445317e-12
1.5808865e-12
1.6194534e-12
1.6331255e-12
1.6365663e-12
1.6334915e-12
1.6315023e-12
1.6348308e-12
1.6381348e-12
1.6381349e-12
1.6348311e-12
1.6315029e-12
1.6334922e-12
1.636567e-12
1.6331264e-12
1.6194548e-12
1.5808888e-12
1.4453215e-12
1.0417257e-12
4.7614691e-13
1.0642427e-12
1.2715261e-12
1.3427076e-12
1.3671569e-12
1.3712028e-12
1.3661583e-12
1.3610597e-12
1.3613773e-12
1.3631299e-12
1.3631301e-12
1.3613778e-12
1.3610605e-12
1.3661591e-12
1.3712035e-12
1.3671578e-12
1.3427092e-12
1.2715287e-12
1.0642474e-12
4.7615997e-13
1.3547392e-13
6.9540079e-13
9.7140213e-13
1.0819125e-12
1.1236229e-12
1.1329641e-12
1.1277484e-12
1.1196143e-12
1.1163714e-12
1.1160409e-12
1.1160411e-12
1.1163719e-12
1.1196151e-12
1.1277493e-12
1.1329649e-12
1.1236238e-12
1.0819139e-12
9.7140454e-13
6.9540436e-13
1.3548038e-13
2.6570254e-14
3.9545842e-13
6.9841629e-13
8.4222523e-13
9.0234581e-13
9.1961937e-13
9.1632099e-13
9.0662397e-13
9.0045344e-13
8.9805356e-13
8.9805379e-13
9.0045405e-13
9.0662483e-13
9.1632182e-13
9.1962008e-13
9.0234643e-13
8.422262e-13
6.9841789e-13
3.954604e-13
2.6571962e-14
4.1564748e-15
1.967221e-13
4.710585e-13
6.3111609e-13
7.0541474e-13
7.3060448e-13
7.3049601e-13
7.2084317e-13
7.1299476e-13
7.0911054e-13
7.0911077e-13
7.1299534e-13
7.2084397e-13
7.3049672e-13
7.3060507e-13
7.0541515e-13
6.3111669e-13
4.710593e-13
1.9672321e-13
4.1567733e-15
5.688854e-16
8.799357e-14
2.9891184e-13
4.5456545e-13
5.3537866e-13
5.6634072e-13
5.6965471e-13
5.6129684e-13
5.530965e-13
5.4850998e-13
5.4851018e-13
5.5309699e-13
5.6129752e-13
5.696553e-13
5.6634118e-13
5.3537891e-13
4.5456574e-13
2.9891216e-13
8.7994096e-14
5.6892603e-16
7.1956883e-17
3.6605718e-14
1.7976659e-13
3.1484424e-13
3.9384423e-13
4.273478e-13
4.3348336e-13
4.2711278e-13
4.1961427e-13
4.1505164e-13
4.1505181e-13
4.1961466e-13
4.2711332e-13
4.3348382e-13
4.2734814e-13
3.9384436e-13
3.1484434e-13
1.797667e-13
3.6605932e-14
7.1961555e-17
8.7006979e-18
1.4549706e-14
1.0337063e-13
2.100744e-13
2.8066108e-13
3.1346265e-13
3.2137315e-13
3.1714628e-13
3.1097388e-13
3.0694469e-13
3.0694481e-13
3.1097417e-13
3.1714667e-13
3.2137348e-13
3.1346289e-13
2.8066114e-13
2.100744e-13
1.0337066e-13
1.4549784e-14
8.70117e-18
)
;

boundaryField
{
    Wall
    {
        type            zeroGradient;
    }
    frontAndBack
    {
        type            empty;
    }
    atmosphere
    {
        type            zeroGradient;
    }
}


// ************************************************************************* //
