/*--------------------------------*- C++ -*----------------------------------*\
| =========                 |                                                 |
| \\      /  F ield         | OpenFOAM: The Open Source CFD Toolbox           |
|  \\    /   O peration     | Version:  3.0.1                                 |
|   \\  /    A nd           | Web:      www.OpenFOAM.org                      |
|    \\/     M anipulation  |                                                 |
\*---------------------------------------------------------------------------*/
FoamFile
{
    version     2.0;
    format      ascii;
    class       volScalarField;
    location    "32";
    object      M3;
}
// * * * * * * * * * * * * * * * * * * * * * * * * * * * * * * * * * * * * * //

dimensions      [0 0 0 0 0 0 0];

internalField   nonuniform List<scalar> 
800
(
3.0584382e-24
3.0590039e-24
3.0591066e-24
3.0591169e-24
3.0591156e-24
3.0591144e-24
3.0591145e-24
3.0591151e-24
3.0591157e-24
3.0591161e-24
3.0591161e-24
3.0591157e-24
3.0591151e-24
3.0591145e-24
3.0591145e-24
3.0591157e-24
3.059117e-24
3.0591067e-24
3.0590039e-24
3.0584382e-24
3.0096577e-24
3.0141546e-24
3.0152802e-24
3.0155406e-24
3.0155602e-24
3.015527e-24
3.0154933e-24
3.0154704e-24
3.0154573e-24
3.0154515e-24
3.0154515e-24
3.0154573e-24
3.0154703e-24
3.0154933e-24
3.015527e-24
3.0155601e-24
3.0155405e-24
3.01528e-24
3.0141544e-24
3.0096573e-24
2.9842415e-24
2.9906589e-24
2.9926643e-24
2.9931202e-24
2.9931694e-24
2.9931274e-24
2.9930817e-24
2.993051e-24
2.993034e-24
2.9930266e-24
2.9930266e-24
2.9930339e-24
2.9930509e-24
2.9930816e-24
2.9931273e-24
2.9931692e-24
2.99312e-24
2.9926641e-24
2.9906585e-24
2.9842408e-24
2.9845428e-24
2.9915512e-24
2.994106e-24
2.9946428e-24
2.9946868e-24
2.9946335e-24
2.9945829e-24
2.9945524e-24
2.9945374e-24
2.9945315e-24
2.9945315e-24
2.9945373e-24
2.9945524e-24
2.9945828e-24
2.9946334e-24
2.9946866e-24
2.9946427e-24
2.9941057e-24
2.9915509e-24
2.9845421e-24
3.0132518e-24
3.0194438e-24
3.0221838e-24
3.0227008e-24
3.0226919e-24
3.0226149e-24
3.0225594e-24
3.0225329e-24
3.0225232e-24
3.0225207e-24
3.0225207e-24
3.0225232e-24
3.0225329e-24
3.0225594e-24
3.0226149e-24
3.0226919e-24
3.0227007e-24
3.0221837e-24
3.0194436e-24
3.0132513e-24
3.0731535e-24
3.0770083e-24
3.0795333e-24
3.0799329e-24
3.0798162e-24
3.0796973e-24
3.0796333e-24
3.0796118e-24
3.0796094e-24
3.0796116e-24
3.0796116e-24
3.0796094e-24
3.0796119e-24
3.0796334e-24
3.0796974e-24
3.0798163e-24
3.079933e-24
3.0795334e-24
3.0770083e-24
3.0731534e-24
3.1671923e-24
3.167062e-24
3.1688941e-24
3.1690708e-24
3.1687863e-24
3.1686035e-24
3.1685249e-24
3.1685079e-24
3.1685136e-24
3.1685212e-24
3.1685213e-24
3.1685137e-24
3.168508e-24
3.1685251e-24
3.1686037e-24
3.1687865e-24
3.1690711e-24
3.1688945e-24
3.1670623e-24
3.1671925e-24
3.2991085e-24
3.2931059e-24
3.293609e-24
3.2934396e-24
3.2929222e-24
3.2926497e-24
3.2925478e-24
3.292533e-24
3.2925468e-24
3.2925601e-24
3.2925602e-24
3.292547e-24
3.2925332e-24
3.2925481e-24
3.2926501e-24
3.2929227e-24
3.2934402e-24
3.2936096e-24
3.2931065e-24
3.2991091e-24
3.4730689e-24
3.459331e-24
3.4576981e-24
3.4570396e-24
3.4562454e-24
3.455857e-24
3.45572e-24
3.4557025e-24
3.4557232e-24
3.4557417e-24
3.4557418e-24
3.4557234e-24
3.4557028e-24
3.4557205e-24
3.4558577e-24
3.4562462e-24
3.4570405e-24
3.4576991e-24
3.459332e-24
3.4730699e-24
3.6923845e-24
3.669204e-24
3.6644303e-24
3.6631147e-24
3.662054e-24
3.6615454e-24
3.6613554e-24
3.6613263e-24
3.6613509e-24
3.6613733e-24
3.6613735e-24
3.6613512e-24
3.6613268e-24
3.6613561e-24
3.6615463e-24
3.662055e-24
3.6631159e-24
3.6644316e-24
3.6692054e-24
3.6923859e-24
3.9597178e-24
3.9257114e-24
3.9166248e-24
3.9144527e-24
3.9132252e-24
3.9126474e-24
3.9123764e-24
3.9123206e-24
3.912344e-24
3.912368e-24
3.9123681e-24
3.9123444e-24
3.9123212e-24
3.9123773e-24
3.9126486e-24
3.9132265e-24
3.9144542e-24
3.9166265e-24
3.9257131e-24
3.9597196e-24
4.2771851e-24
4.2313589e-24
4.2167568e-24
4.2134854e-24
4.2122943e-24
4.2117691e-24
4.2113739e-24
4.2112669e-24
4.2112831e-24
4.2113043e-24
4.2113045e-24
4.2112836e-24
4.2112677e-24
4.211375e-24
4.2117705e-24
4.2122959e-24
4.2134872e-24
4.2167588e-24
4.231361e-24
4.2771872e-24
4.6437835e-24
4.5852618e-24
4.5644989e-24
4.5598059e-24
4.558688e-24
4.5582662e-24
4.5576895e-24
4.5574947e-24
4.5575185e-24
4.5575292e-24
4.5575295e-24
4.5575191e-24
4.5574956e-24
4.5576908e-24
4.5582678e-24
4.5586899e-24
4.559808e-24
4.5645012e-24
4.5852642e-24
4.643786e-24
5.0633617e-24
4.9916328e-24
4.9638952e-24
4.9573465e-24
4.9567884e-24
4.956646e-24
4.9559392e-24
4.955594e-24
4.9556593e-24
4.9556463e-24
4.9556465e-24
4.95566e-24
4.9555951e-24
4.9559406e-24
4.9566478e-24
4.9567904e-24
4.9573488e-24
4.9638978e-24
4.9916355e-24
5.0633645e-24
5.5361757e-24
5.4511075e-24
5.4164459e-24
5.407545e-24
5.4077382e-24
5.4081658e-24
5.4070896e-24
5.4065298e-24
5.4066614e-24
5.4066495e-24
5.4066498e-24
5.4066621e-24
5.4065309e-24
5.4070911e-24
5.4081678e-24
5.4077404e-24
5.4075476e-24
5.4164487e-24
5.4511104e-24
5.5361788e-24
6.0501537e-24
5.954526e-24
5.9137466e-24
5.9021322e-24
5.9037782e-24
5.9049106e-24
5.9031707e-24
5.902361e-24
5.902567e-24
5.9027114e-24
5.9027116e-24
5.9025677e-24
5.9023622e-24
5.9031723e-24
5.9049126e-24
5.9037805e-24
5.9021349e-24
5.9137495e-24
5.954529e-24
6.0501568e-24
6.595893e-24
6.4932501e-24
6.4474595e-24
6.4330408e-24
6.4367784e-24
6.438454e-24
6.435635e-24
6.4345441e-24
6.4348152e-24
6.4354737e-24
6.4354739e-24
6.4348159e-24
6.4345452e-24
6.4356366e-24
6.438456e-24
6.4367807e-24
6.4330435e-24
6.4474624e-24
6.4932531e-24
6.5958959e-24
7.165042e-24
7.059685e-24
7.0100603e-24
6.993107e-24
6.9995005e-24
7.0011887e-24
6.9966954e-24
6.9952704e-24
6.9954875e-24
6.9972151e-24
6.9972153e-24
6.9954881e-24
6.9952714e-24
6.9966968e-24
7.0011906e-24
6.9995026e-24
6.9931094e-24
7.010063e-24
7.0596878e-24
7.1650444e-24
7.747712e-24
7.6452336e-24
7.5929656e-24
7.5740154e-24
7.5836965e-24
7.5845515e-24
7.5777522e-24
7.5759237e-24
7.5757648e-24
7.5792241e-24
7.5792243e-24
7.5757654e-24
7.5759246e-24
7.5777535e-24
7.5845531e-24
7.5836984e-24
7.5740176e-24
7.592968e-24
7.6452359e-24
7.7477137e-24
8.3310096e-24
8.2388437e-24
8.1852427e-24
8.164887e-24
8.178345e-24
8.1775207e-24
8.1680061e-24
8.1657197e-24
8.1647703e-24
8.1706002e-24
8.1706004e-24
8.1647707e-24
8.1657205e-24
8.1680071e-24
8.177522e-24
8.1783465e-24
8.1648887e-24
8.1852446e-24
8.2388454e-24
8.3310106e-24
8.897404e-24
8.8255116e-24
8.7723811e-24
8.7508814e-24
8.768279e-24
8.7653232e-24
8.7531174e-24
8.750374e-24
8.7485488e-24
8.7572462e-24
8.7572464e-24
8.7485491e-24
8.7503746e-24
8.7531181e-24
8.7653241e-24
8.76828e-24
8.7508825e-24
8.7723824e-24
8.8255125e-24
8.8974041e-24
9.4232178e-24
9.384226e-24
9.3344201e-24
9.3116597e-24
9.333192e-24
9.327848e-24
9.3134107e-24
9.3102925e-24
9.3083006e-24
9.320148e-24
9.3201482e-24
9.3083008e-24
9.310293e-24
9.3134112e-24
9.3278485e-24
9.3331926e-24
9.3116603e-24
9.3344207e-24
9.3842262e-24
9.4232172e-24
9.8772773e-24
9.8861921e-24
9.8442921e-24
9.8197089e-24
9.8463054e-24
9.8383711e-24
9.8218396e-24
9.8185116e-24
9.8179597e-24
9.8330062e-24
9.8330064e-24
9.8179598e-24
9.8185119e-24
9.8218398e-24
9.8383713e-24
9.8463056e-24
9.819709e-24
9.8442922e-24
9.8861918e-24
9.8772764e-24
1.0217834e-23
1.0293091e-23
1.0266111e-23
1.023889e-23
1.0272143e-23
1.0261342e-23
1.0242618e-23
1.0239315e-23
1.0242322e-23
1.0260405e-23
1.0260405e-23
1.0242322e-23
1.0239315e-23
1.0242618e-23
1.0261342e-23
1.0272143e-23
1.0238889e-23
1.0266111e-23
1.029309e-23
1.0217833e-23
1.039086e-23
1.0555212e-23
1.0551922e-23
1.0524176e-23
1.0563795e-23
1.0551731e-23
1.0531546e-23
1.0528556e-23
1.053708e-23
1.0557865e-23
1.0557865e-23
1.0537081e-23
1.0528556e-23
1.0531546e-23
1.0551731e-23
1.0563795e-23
1.0524176e-23
1.0551922e-23
1.0555212e-23
1.039086e-23
1.0333361e-23
1.0612715e-23
1.0644012e-23
1.0621355e-23
1.0664965e-23
1.0655925e-23
1.0636237e-23
1.063385e-23
1.0649039e-23
1.0672041e-23
1.0672041e-23
1.0649039e-23
1.0633851e-23
1.0636237e-23
1.0655925e-23
1.0664965e-23
1.0621355e-23
1.0644013e-23
1.0612716e-23
1.0333364e-23
9.9797202e-24
1.0397897e-23
1.0479196e-23
1.0465983e-23
1.0513905e-23
1.0511683e-23
1.0494592e-23
1.0492993e-23
1.0514719e-23
1.0539282e-23
1.0539283e-23
1.051472e-23
1.0492994e-23
1.0494592e-23
1.0511683e-23
1.0513906e-23
1.0465984e-23
1.0479198e-23
1.03979e-23
9.9797268e-24
9.2702942e-24
9.8428185e-24
9.9928699e-24
9.9926192e-24
1.0047469e-23
1.005681e-23
1.0043209e-23
1.0042397e-23
1.0069142e-23
1.0094399e-23
1.0094399e-23
1.0069143e-23
1.0042398e-23
1.0043209e-23
1.005681e-23
1.004747e-23
9.9926208e-24
9.9928726e-24
9.8428243e-24
9.2703036e-24
8.1630879e-24
8.8943074e-24
9.1284997e-24
9.1474731e-24
9.2192223e-24
9.239664e-24
9.2289444e-24
9.2287767e-24
9.2578962e-24
9.282748e-24
9.2827484e-24
9.2578969e-24
9.2287777e-24
9.2289453e-24
9.239665e-24
9.2192236e-24
9.1474751e-24
9.1285032e-24
8.8943146e-24
8.1630979e-24
6.6577797e-24
7.5225588e-24
7.8570303e-24
7.9132998e-24
7.9906747e-24
8.0420274e-24
8.0332785e-24
8.0337044e-24
8.0620229e-24
8.0851663e-24
8.0851666e-24
8.0620234e-24
8.0337054e-24
8.0332794e-24
8.0420283e-24
7.990676e-24
7.9133018e-24
7.8570339e-24
7.5225667e-24
6.6577917e-24
5.3323658e-24
6.0217482e-24
6.3279045e-24
6.3768642e-24
6.4419474e-24
6.48888e-24
6.4831102e-24
6.4851357e-24
6.5107665e-24
6.5314323e-24
6.5314326e-24
6.5107672e-24
6.4851367e-24
6.4831114e-24
6.4888813e-24
6.4419495e-24
6.3768673e-24
6.3279092e-24
6.0217579e-24
5.3323824e-24
4.0192677e-24
4.7417734e-24
5.025137e-24
5.0673296e-24
5.1074292e-24
5.1342804e-24
5.1280268e-24
5.1292629e-24
5.1516411e-24
5.170217e-24
5.1702173e-24
5.1516418e-24
5.1292642e-24
5.1280284e-24
5.1342824e-24
5.1074319e-24
5.0673334e-24
5.0251426e-24
4.741784e-24
4.0192917e-24
2.5305009e-24
3.5709764e-24
3.9158701e-24
3.9844475e-24
4.0101416e-24
4.0176931e-24
4.0056917e-24
4.0011831e-24
4.0169202e-24
4.0320375e-24
4.0320379e-24
4.0169211e-24
4.0011849e-24
4.0056938e-24
4.0176952e-24
4.0101443e-24
3.9844519e-24
3.9158768e-24
3.5709887e-24
2.530533e-24
1.1017641e-24
2.4669759e-24
2.942191e-24
3.075809e-24
3.1140735e-24
3.1136611e-24
3.0948986e-24
3.0821023e-24
3.0885499e-24
3.0984814e-24
3.0984819e-24
3.0885512e-24
3.0821044e-24
3.094901e-24
3.1136634e-24
3.1140763e-24
3.0758135e-24
2.9421981e-24
2.4669878e-24
1.1017946e-24
2.9923981e-25
1.507705e-24
2.0965165e-24
2.3077176e-24
2.3771101e-24
2.383876e-24
2.3639393e-24
2.3438708e-24
2.3407668e-24
2.3448473e-24
2.3448478e-24
2.3407683e-24
2.343873e-24
2.3639417e-24
2.3838782e-24
2.3771124e-24
2.3077213e-24
2.0965228e-24
1.5077136e-24
2.9925416e-25
5.6019985e-26
7.9884387e-25
1.4018268e-24
1.670659e-24
1.7733921e-24
1.7948764e-24
1.7795799e-24
1.756909e-24
1.747002e-24
1.7459253e-24
1.7459258e-24
1.7470034e-24
1.7569112e-24
1.779582e-24
1.7948783e-24
1.7733938e-24
1.6706617e-24
1.401831e-24
7.9884844e-25
5.6023623e-26
8.3500868e-27
3.6890053e-25
8.7637594e-25
1.1620812e-24
1.2872494e-24
1.3233096e-24
1.3156003e-24
1.2944306e-24
1.2813375e-24
1.2769464e-24
1.2769469e-24
1.2813388e-24
1.2944324e-24
1.315602e-24
1.3233111e-24
1.2872506e-24
1.1620829e-24
8.7637809e-25
3.6890291e-25
8.3506955e-27
1.0860803e-27
1.5268735e-25
5.1387781e-25
7.7547131e-25
9.0638149e-25
9.5194095e-25
9.5185813e-25
9.347221e-25
9.2151514e-25
9.157032e-25
9.1570361e-25
9.2151618e-25
9.3472357e-25
9.5185945e-25
9.5194207e-25
9.0638225e-25
7.7547225e-25
5.1387876e-25
1.5268838e-25
1.0861595e-27
1.3018616e-28
5.8615992e-26
2.8488318e-25
4.9679661e-25
6.1804001e-25
6.6642972e-25
6.7215573e-25
6.5992165e-25
6.4855752e-25
6.4278391e-25
6.4278422e-25
6.4855829e-25
6.5992275e-25
6.721567e-25
6.6643053e-25
6.1804048e-25
4.9679708e-25
2.8488357e-25
5.8616381e-26
1.3019483e-28
1.4877848e-29
2.1452414e-26
1.5074244e-25
3.0618931e-25
4.0790034e-25
4.5334782e-25
4.624112e-25
4.5474213e-25
4.4604847e-25
4.4115559e-25
4.4115581e-25
4.4604902e-25
4.547429e-25
4.6241187e-25
4.5334837e-25
4.0790062e-25
3.0618953e-25
1.5074259e-25
2.1452546e-26
1.487868e-29
)
;

boundaryField
{
    Wall
    {
        type            zeroGradient;
    }
    frontAndBack
    {
        type            empty;
    }
    atmosphere
    {
        type            zeroGradient;
    }
}


// ************************************************************************* //
