/*--------------------------------*- C++ -*----------------------------------*\
| =========                 |                                                 |
| \\      /  F ield         | OpenFOAM: The Open Source CFD Toolbox           |
|  \\    /   O peration     | Version:  3.0.1                                 |
|   \\  /    A nd           | Web:      www.OpenFOAM.org                      |
|    \\/     M anipulation  |                                                 |
\*---------------------------------------------------------------------------*/
FoamFile
{
    version     2.0;
    format      ascii;
    class       volScalarField;
    location    "32";
    object      mOne;
}
// * * * * * * * * * * * * * * * * * * * * * * * * * * * * * * * * * * * * * //

dimensions      [0 0 0 0 0 0 0];

internalField   nonuniform List<scalar> 
800
(
18.011598
18.013207
18.013498
18.013527
18.013523
18.013519
18.013518
18.01352
18.013521
18.013522
18.013522
18.013521
18.01352
18.013518
18.013519
18.013523
18.013527
18.013499
18.013207
18.011598
17.870076
17.883087
17.886341
17.887093
17.887147
17.88705
17.886952
17.886885
17.886846
17.886829
17.886829
17.886846
17.886884
17.886951
17.88705
17.887147
17.887092
17.886341
17.883086
17.870075
17.697045
17.718601
17.725777
17.727597
17.727893
17.727798
17.727651
17.72754
17.727473
17.727443
17.727443
17.727473
17.727539
17.72765
17.727797
17.727893
17.727596
17.725776
17.7186
17.697042
17.515689
17.544347
17.555214
17.558041
17.558584
17.558511
17.558334
17.558194
17.558107
17.558068
17.558068
17.558107
17.558193
17.558334
17.55851
17.558583
17.55804
17.555212
17.544345
17.515686
17.344456
17.378325
17.392304
17.396007
17.396715
17.396639
17.396428
17.396259
17.396155
17.396108
17.396108
17.396155
17.396259
17.396427
17.396638
17.396713
17.396005
17.392302
17.378323
17.344452
17.196939
17.233738
17.25012
17.254548
17.255305
17.255176
17.254913
17.25471
17.254586
17.254531
17.254531
17.254586
17.254709
17.254912
17.255175
17.255303
17.254546
17.250118
17.233736
17.196935
17.081964
17.119554
17.137499
17.142481
17.143157
17.142916
17.142573
17.142324
17.142175
17.142109
17.142109
17.142174
17.142323
17.142572
17.142915
17.143156
17.142479
17.137497
17.119552
17.08196
17.003428
17.040313
17.05889
17.06425
17.064729
17.064313
17.063861
17.063548
17.063366
17.063286
17.063286
17.063366
17.063548
17.063861
17.064312
17.064727
17.064248
17.058888
17.040311
17.003425
16.961324
16.996761
17.014963
17.020531
17.020746
17.020101
17.019509
17.019114
17.018888
17.01879
17.01879
17.018888
17.019114
17.019508
17.020101
17.020744
17.02053
17.014962
16.996759
16.961322
16.952303
16.986691
17.003585
17.009216
17.009191
17.008304
17.007541
17.007045
17.006765
17.006642
17.006642
17.006764
17.007044
17.00754
17.008304
17.00919
17.009215
17.003584
16.98669
16.952301
16.970311
17.005182
17.020028
17.02562
17.025492
17.024421
17.023457
17.02284
17.022495
17.022343
17.022343
17.022495
17.022839
17.023456
17.024421
17.025491
17.025619
17.020027
17.005181
16.97031
17.008064
17.046033
17.05848
17.063971
17.06399
17.062881
17.061684
17.060926
17.060507
17.060319
17.060319
17.060506
17.060926
17.061684
17.06288
17.06399
17.06397
17.058479
17.046032
17.008063
17.066708
17.112252
17.121648
17.126968
17.128264
17.127702
17.126217
17.125278
17.124785
17.124548
17.124548
17.124785
17.125277
17.126217
17.127702
17.128263
17.126967
17.121648
17.112251
17.066707
17.126352
17.184772
17.193482
17.19857
17.201157
17.201363
17.199223
17.198059
17.19752
17.197218
17.197218
17.19752
17.198059
17.199223
17.201362
17.201157
17.198569
17.193482
17.184772
17.126351
17.176355
17.254381
17.265091
17.270015
17.274893
17.275761
17.273175
17.271713
17.271153
17.270809
17.270809
17.271153
17.271712
17.273175
17.275761
17.274893
17.270015
17.265091
17.254381
17.176354
17.218772
17.320863
17.336997
17.342228
17.349436
17.350964
17.347845
17.345951
17.345381
17.345156
17.345156
17.345381
17.345951
17.347844
17.350964
17.349436
17.342227
17.336996
17.320863
17.218772
17.241569
17.375403
17.401389
17.408182
17.418114
17.420182
17.416018
17.413539
17.412951
17.413212
17.413212
17.41295
17.413538
17.416017
17.420182
17.418114
17.408182
17.401389
17.375402
17.241569
17.227744
17.403548
17.444605
17.455091
17.468746
17.470875
17.464945
17.461742
17.461016
17.462307
17.462307
17.461016
17.461741
17.464944
17.470874
17.468745
17.455091
17.444604
17.403547
17.227743
17.160423
17.389575
17.451569
17.468606
17.487305
17.488746
17.480407
17.476373
17.475195
17.478102
17.478102
17.475194
17.476371
17.480406
17.488745
17.487304
17.468605
17.451567
17.389574
17.160421
17.021953
17.316819
17.406358
17.433321
17.458411
17.458576
17.447522
17.442585
17.440579
17.445574
17.445574
17.440578
17.442584
17.447521
17.458575
17.45841
17.43332
17.406357
17.316818
17.021951
16.79205
17.166343
17.291163
17.331693
17.364542
17.363455
17.349877
17.343997
17.341116
17.348431
17.348431
17.341116
17.343995
17.349875
17.363453
17.36454
17.331691
17.291161
17.166342
16.792049
16.446733
16.915298
17.084732
17.142896
17.185425
17.183612
17.168127
17.161286
17.158182
17.167758
17.167757
17.158181
17.161284
17.168126
17.18361
17.185423
17.142894
17.08473
16.915297
16.446732
15.95757
16.535797
16.761235
16.841743
16.897161
16.895598
16.878629
16.870812
16.868797
16.880299
16.880299
16.868796
16.870811
16.878627
16.895596
16.897159
16.841741
16.761233
16.535796
15.95757
15.289582
15.9939
16.289056
16.397745
16.470471
16.470707
16.452676
16.443866
16.444448
16.45733
16.45733
16.444447
16.443864
16.452675
16.470705
16.47047
16.397743
16.289055
15.9939
15.289585
14.400977
15.248457
15.628445
15.774927
15.868674
15.874597
15.856816
15.84699
15.851251
15.864823
15.864822
15.85125
15.846989
15.856814
15.874596
15.868673
15.774926
15.628446
15.248461
14.400984
13.247466
14.252431
14.733727
14.93054
15.048872
15.066887
15.051716
15.04087
15.048978
15.062466
15.062466
15.048978
15.040869
15.051715
15.066886
15.048872
14.930541
14.733729
14.252438
13.247479
11.789544
12.95507
13.55545
13.813749
13.962487
13.999895
13.989829
13.977995
13.989018
14.001601
14.001601
13.989017
13.977994
13.989828
13.999895
13.962488
13.81375
13.555454
12.955081
11.789564
10.006591
11.315395
12.046805
12.371824
12.559181
12.62264
12.619142
12.606477
12.618549
12.62942
12.62942
12.618549
12.606476
12.619142
12.622641
12.559182
12.371828
12.046812
11.315412
10.006617
7.929313
9.3244597
10.177135
10.571934
10.809691
10.89745
10.900449
10.887346
10.89822
10.90672
10.90672
10.89822
10.887346
10.90045
10.897451
10.809693
10.571938
10.177144
9.3244798
7.9293433
5.6762919
7.0518779
7.9881923
8.4502131
8.7121632
8.8427962
8.8514487
8.8387749
8.8465676
8.8523705
8.8523705
8.8465679
8.8387758
8.8514502
8.8427982
8.7121663
8.4502185
7.988203
7.0519015
5.6763281
3.7117111
4.8558323
5.736117
6.2107044
6.4746539
6.5996408
6.6139564
6.6031178
6.6074383
6.6109053
6.6109056
6.6074394
6.6031196
6.6139592
6.599644
6.4746585
6.2107117
5.7361299
4.8558574
3.7117494
2.0776901
3.1501866
3.9389513
4.4231256
4.7006345
4.8262864
4.8471534
4.8343554
4.8309755
4.8298174
4.8298179
4.8309769
4.8343577
4.8471565
4.8262901
4.7006392
4.4231331
3.9389638
3.1502073
2.0777229
0.91045319
1.925326
2.6464277
3.1184726
3.3997046
3.5282147
3.5526701
3.5352819
3.5213699
3.5136402
3.5136407
3.5213716
3.5352847
3.5526733
3.5282179
3.3997086
3.1184797
2.6464387
1.9253419
0.91047429
0.29884423
1.1026709
1.7434494
2.1898491
2.4643074
2.5912882
2.6159441
2.5943902
2.5716571
2.5579716
2.5579723
2.5716589
2.5943929
2.6159469
2.5912908
2.4643104
2.1898544
1.7434572
1.1026801
0.29885483
0.073895044
0.59365392
1.1272775
1.5311231
1.788679
1.9112979
1.9364237
1.9135228
1.886034
1.8687808
1.8687814
1.8860356
1.9135252
1.9364259
1.9112997
1.7886806
1.5311259
1.1272818
0.59365804
0.07389881
0.014347338
0.30106039
0.71677721
1.0650992
1.2970233
1.4113775
1.4370669
1.416437
1.3887609
1.370643
1.3706435
1.3887622
1.4164388
1.4370685
1.4113787
1.297024
1.0651003
0.71677892
0.30106197
0.014348265
0.0023221286
0.14442318
0.44873673
0.73624503
0.93721393
1.040013
1.065578
1.0490472
1.0242706
1.0074698
1.0074703
1.0242716
1.0490485
1.0655791
1.0400136
0.93721403
0.73624529
0.44873717
0.14442394
0.0023222934
0.00033228719
0.066128187
0.27671516
0.50489632
0.67318358
0.76250658
0.78701687
0.77502415
0.7546011
0.74029416
0.74029447
0.7546018
0.77502507
0.78701756
0.76250693
0.67318345
0.5048962
0.27671517
0.066128533
0.00033231047
4.4084597e-05
0.029209037
0.16803869
0.34288213
0.479567
0.55488217
0.57752411
0.56967072
0.5538771
0.54244518
0.54244539
0.55387756
0.56967132
0.57752455
0.55488234
0.4795668
0.34288189
0.1680386
0.029209184
4.4087383e-05
5.6049579e-06
0.012559695
0.1004011
0.23010395
0.33810607
0.39996971
0.42020701
0.41571484
0.40413529
0.39544679
0.39544692
0.40413558
0.41571521
0.42020726
0.39996978
0.33810587
0.23010372
0.10040102
0.012559753
5.6052512e-06
)
;

boundaryField
{
    Wall
    {
        type            zeroGradient;
    }
    frontAndBack
    {
        type            empty;
    }
    atmosphere
    {
        type            zeroGradient;
    }
}


// ************************************************************************* //
