/*--------------------------------*- C++ -*----------------------------------*\
| =========                 |                                                 |
| \\      /  F ield         | OpenFOAM: The Open Source CFD Toolbox           |
|  \\    /   O peration     | Version:  3.0.1                                 |
|   \\  /    A nd           | Web:      www.OpenFOAM.org                      |
|    \\/     M anipulation  |                                                 |
\*---------------------------------------------------------------------------*/
FoamFile
{
    version     2.0;
    format      ascii;
    class       volScalarField;
    location    "32";
    object      mThree;
}
// * * * * * * * * * * * * * * * * * * * * * * * * * * * * * * * * * * * * * //

dimensions      [0 0 0 0 0 0 0];

internalField   nonuniform List<scalar> 
800
(
5.8145797e-23
5.8161473e-23
5.8164319e-23
5.8164602e-23
5.8164564e-23
5.8164529e-23
5.816453e-23
5.8164546e-23
5.8164562e-23
5.8164571e-23
5.8164572e-23
5.8164562e-23
5.8164546e-23
5.816453e-23
5.816453e-23
5.8164565e-23
5.8164604e-23
5.8164321e-23
5.8161474e-23
5.8145798e-23
5.6792469e-23
5.6916542e-23
5.694761e-23
5.6954794e-23
5.6955329e-23
5.695441e-23
5.6953477e-23
5.6952841e-23
5.6952479e-23
5.6952318e-23
5.6952318e-23
5.6952479e-23
5.6952839e-23
5.6953475e-23
5.6954408e-23
5.6955327e-23
5.6954791e-23
5.6947606e-23
5.6916537e-23
5.6792457e-23
5.5796496e-23
5.598095e-23
5.6039966e-23
5.6053948e-23
5.6055757e-23
5.6054684e-23
5.6053388e-23
5.6052481e-23
5.6051964e-23
5.6051737e-23
5.6051737e-23
5.6051963e-23
5.6052478e-23
5.6053385e-23
5.6054681e-23
5.6055752e-23
5.6053942e-23
5.6039959e-23
5.598094e-23
5.5796477e-23
5.5260866e-23
5.5476365e-23
5.5556275e-23
5.5574705e-23
5.5577145e-23
5.5575939e-23
5.557447e-23
5.5573484e-23
5.5572946e-23
5.5572719e-23
5.5572719e-23
5.5572945e-23
5.5573482e-23
5.5574467e-23
5.5575935e-23
5.5577139e-23
5.5574699e-23
5.5556267e-23
5.5476353e-23
5.5260845e-23
5.5276463e-23
5.5492321e-23
5.5584923e-23
5.5605625e-23
5.5607601e-23
5.5605954e-23
5.5604296e-23
5.5603299e-23
5.5602806e-23
5.5602618e-23
5.5602618e-23
5.5602805e-23
5.5603297e-23
5.5604294e-23
5.560595e-23
5.5607595e-23
5.5605619e-23
5.5584916e-23
5.549231e-23
5.5276444e-23
5.5921988e-23
5.6105364e-23
5.6201854e-23
5.6222783e-23
5.6222983e-23
5.6220416e-23
5.6218437e-23
5.621742e-23
5.6216995e-23
5.6216865e-23
5.6216866e-23
5.6216995e-23
5.6217419e-23
5.6218436e-23
5.6220414e-23
5.622298e-23
5.622278e-23
5.6201849e-23
5.6105357e-23
5.5921973e-23
5.7269057e-23
5.738575e-23
5.7475814e-23
5.7494807e-23
5.7491788e-23
5.7487706e-23
5.7485194e-23
5.7484096e-23
5.7483727e-23
5.7483658e-23
5.7483659e-23
5.7483728e-23
5.7484096e-23
5.7485196e-23
5.7487706e-23
5.7491788e-23
5.7494808e-23
5.7475814e-23
5.7385748e-23
5.7269049e-23
5.9395263e-23
5.9408663e-23
5.9478921e-23
5.9493516e-23
5.9485747e-23
5.9479454e-23
5.9476126e-23
5.9474829e-23
5.9474478e-23
5.9474456e-23
5.9474457e-23
5.947448e-23
5.9474831e-23
5.947613e-23
5.9479458e-23
5.9485751e-23
5.9493522e-23
5.9478926e-23
5.9408667e-23
5.9395264e-23
6.2380917e-23
6.2256755e-23
6.2290305e-23
6.2297691e-23
6.228412e-23
6.2274894e-23
6.2270378e-23
6.2268697e-23
6.226829e-23
6.2268284e-23
6.2268285e-23
6.2268293e-23
6.2268702e-23
6.2270385e-23
6.2274903e-23
6.2284129e-23
6.2297702e-23
6.2290317e-23
6.2256767e-23
6.2380926e-23
6.6286803e-23
6.5996839e-23
6.5972882e-23
6.5969826e-23
6.5950629e-23
6.5938225e-23
6.5932007e-23
6.5929665e-23
6.5929083e-23
6.5929039e-23
6.5929041e-23
6.5929088e-23
6.5929673e-23
6.5932018e-23
6.5938238e-23
6.5950644e-23
6.5969844e-23
6.5972901e-23
6.5996858e-23
6.6286821e-23
7.1157362e-23
7.0683147e-23
7.0577689e-23
7.0560435e-23
7.0537808e-23
7.0523205e-23
7.0514546e-23
7.0511126e-23
7.05102e-23
7.0510036e-23
7.0510039e-23
7.0510206e-23
7.0511136e-23
7.051456e-23
7.0523223e-23
7.0537828e-23
7.0560459e-23
7.0577716e-23
7.0683174e-23
7.1157387e-23
7.7023823e-23
7.6359243e-23
7.6148217e-23
7.6112277e-23
7.6090844e-23
7.6076683e-23
7.6064506e-23
7.6059381e-23
7.6057906e-23
7.6057498e-23
7.6057502e-23
7.6057914e-23
7.6059393e-23
7.6064524e-23
7.6076705e-23
7.609087e-23
7.6112308e-23
7.6148251e-23
7.6359278e-23
7.7023857e-23
8.389788e-23
8.3049416e-23
8.2716243e-23
8.2655455e-23
8.2641099e-23
8.2630891e-23
8.261367e-23
8.2605856e-23
8.2604043e-23
8.2603157e-23
8.2603161e-23
8.2604052e-23
8.2605871e-23
8.2613692e-23
8.2630918e-23
8.264113e-23
8.2655492e-23
8.2716283e-23
8.3049458e-23
8.3897922e-23
9.1780275e-23
9.0771705e-23
9.0310538e-23
9.0216615e-23
9.0219285e-23
9.0217712e-23
9.0194243e-23
9.0182195e-23
9.0180711e-23
9.0178976e-23
9.0178981e-23
9.0180722e-23
9.0182212e-23
9.0194267e-23
9.0217743e-23
9.021932e-23
9.0216657e-23
9.0310583e-23
9.0771753e-23
9.1780324e-23
1.0062749e-22
9.9506592e-23
9.8931877e-23
9.8795929e-23
9.8825837e-23
9.8838347e-23
9.8804694e-23
9.878656e-23
9.8785938e-23
9.8783862e-23
9.8783867e-23
9.8785949e-23
9.8786578e-23
9.880472e-23
9.8838381e-23
9.8825875e-23
9.8795974e-23
9.8931927e-23
9.9506644e-23
1.0062755e-22
1.1022637e-22
1.0909205e-22
1.0844035e-22
1.0825825e-22
1.08331e-22
1.083608e-22
1.0831046e-22
1.0828443e-22
1.0828484e-22
1.0828616e-22
1.0828617e-22
1.0828485e-22
1.0828445e-22
1.0831049e-22
1.0836084e-22
1.0833104e-22
1.082583e-22
1.084404e-22
1.0909211e-22
1.1022642e-22
1.2031944e-22
1.1931609e-22
1.1864221e-22
1.1842059e-22
1.1855332e-22
1.185975e-22
1.1851877e-22
1.1848273e-22
1.1848394e-22
1.1849774e-22
1.1849775e-22
1.1848395e-22
1.1848274e-22
1.1851879e-22
1.1859753e-22
1.1855336e-22
1.1842064e-22
1.1864226e-22
1.1931614e-22
1.2031949e-22
1.3060255e-22
1.2992325e-22
1.2929779e-22
1.2905843e-22
1.2927199e-22
1.2931808e-22
1.291936e-22
1.2914488e-22
1.2914381e-22
1.2918473e-22
1.2918473e-22
1.2914381e-22
1.2914489e-22
1.2919362e-22
1.2931811e-22
1.2927203e-22
1.2905847e-22
1.2929784e-22
1.299233e-22
1.3060259e-22
1.4070172e-22
1.405926e-22
1.4010213e-22
1.398815e-22
1.4020211e-22
1.4022885e-22
1.4003995e-22
1.3997559e-22
1.3996373e-22
1.4004968e-22
1.4004968e-22
1.3996374e-22
1.399756e-22
1.4003996e-22
1.4022887e-22
1.4020213e-22
1.3988154e-22
1.4010216e-22
1.4059263e-22
1.4070174e-22
1.5014106e-22
1.5090941e-22
1.5066051e-22
1.5050599e-22
1.5095926e-22
1.5094539e-22
1.5067948e-22
1.5059698e-22
1.5056309e-22
1.5071141e-22
1.5071141e-22
1.5056309e-22
1.5059698e-22
1.5067948e-22
1.509454e-22
1.5095927e-22
1.5050601e-22
1.5066053e-22
1.5090943e-22
1.5014106e-22
1.5830306e-22
1.6032727e-22
1.6045705e-22
1.6041847e-22
1.6102543e-22
1.6096162e-22
1.6061863e-22
1.6051683e-22
1.6045815e-22
1.6068173e-22
1.6068173e-22
1.6045815e-22
1.6051683e-22
1.6061862e-22
1.6096162e-22
1.6102543e-22
1.6041847e-22
1.6045706e-22
1.6032728e-22
1.5830305e-22
1.6440436e-22
1.6812121e-22
1.6881048e-22
1.6894047e-22
1.6972806e-22
1.6961396e-22
1.6920723e-22
1.6908689e-22
1.6902182e-22
1.6932619e-22
1.6932619e-22
1.6902181e-22
1.6908688e-22
1.6920722e-22
1.6961396e-22
1.6972806e-22
1.6894046e-22
1.6881048e-22
1.681212e-22
1.6440434e-22
1.6749462e-22
1.7336226e-22
1.7484678e-22
1.7520072e-22
1.7622091e-22
1.7606353e-22
1.7560102e-22
1.7546478e-22
1.7543513e-22
1.7581709e-22
1.7581709e-22
1.7543512e-22
1.7546477e-22
1.7560101e-22
1.7606352e-22
1.7622089e-22
1.7520071e-22
1.7484677e-22
1.7336225e-22
1.674946e-22
1.6644424e-22
1.7491975e-22
1.7749137e-22
1.7813359e-22
1.7945918e-22
1.792729e-22
1.7876109e-22
1.7861324e-22
1.7867165e-22
1.7911928e-22
1.7911927e-22
1.7867165e-22
1.7861323e-22
1.7876108e-22
1.7927288e-22
1.7945916e-22
1.7813357e-22
1.7749135e-22
1.7491975e-22
1.6644426e-22
1.6002939e-22
1.7150591e-22
1.7546206e-22
1.7654229e-22
1.7819721e-22
1.7805621e-22
1.7752833e-22
1.7737448e-22
1.7756299e-22
1.7805652e-22
1.7805652e-22
1.7756298e-22
1.7737447e-22
1.7752832e-22
1.7805619e-22
1.7819719e-22
1.7654228e-22
1.7546206e-22
1.7150594e-22
1.6002948e-22
1.4722421e-22
1.618697e-22
1.6746999e-22
1.6920393e-22
1.7116067e-22
1.7120754e-22
1.7072985e-22
1.7057622e-22
1.7090619e-22
1.714193e-22
1.714193e-22
1.7090619e-22
1.7057621e-22
1.7072984e-22
1.7120753e-22
1.7116066e-22
1.6920393e-22
1.6747001e-22
1.6186979e-22
1.4722439e-22
1.2763607e-22
1.4510338e-22
1.5252941e-22
1.5504044e-22
1.5731418e-22
1.5767414e-22
1.5731213e-22
1.57164e-22
1.5760531e-22
1.5810611e-22
1.5810611e-22
1.5760531e-22
1.5716401e-22
1.5731213e-22
1.5767414e-22
1.5731419e-22
1.5504047e-22
1.5252948e-22
1.4510355e-22
1.2763635e-22
1.0203434e-22
1.212182e-22
1.3037502e-22
1.3361955e-22
1.3623545e-22
1.370003e-22
1.3677989e-22
1.3664165e-22
1.371271e-22
1.3758081e-22
1.3758081e-22
1.3712711e-22
1.3664166e-22
1.367799e-22
1.3700031e-22
1.3623548e-22
1.336196e-22
1.3037513e-22
1.2121843e-22
1.0203468e-22
7.2890767e-23
9.1828918e-23
1.0203047e-22
1.0585395e-22
1.0887617e-22
1.0992844e-22
1.0982858e-22
1.0970566e-22
1.1015248e-22
1.1052708e-22
1.1052709e-22
1.1015249e-22
1.0970567e-22
1.098286e-22
1.0992846e-22
1.088762e-22
1.0585401e-22
1.020306e-22
9.1829171e-23
7.2891104e-23
4.4449281e-23
6.0570725e-23
7.0620499e-23
7.478237e-23
7.7606737e-23
7.9156037e-23
7.9139432e-23
7.9041809e-23
7.9383254e-23
7.9658053e-23
7.9658056e-23
7.9383262e-23
7.9041826e-23
7.9139452e-23
7.9156061e-23
7.7606775e-23
7.4782431e-23
7.0620616e-23
6.0570966e-23
4.4449601e-23
2.5124567e-23
3.5262348e-23
4.2625505e-23
4.5981683e-23
4.8151327e-23
4.9313157e-23
4.9362118e-23
4.9307251e-23
4.9530255e-23
4.9710112e-23
4.9710117e-23
4.9530266e-23
4.930727e-23
4.9362145e-23
4.9313188e-23
4.8151372e-23
4.5981752e-23
4.2625619e-23
3.5262555e-23
2.5124849e-23
1.237006e-23
1.9679245e-23
2.4818907e-23
2.7480764e-23
2.9115587e-23
2.9913788e-23
2.9984359e-23
2.9925943e-23
3.0039093e-23
3.0141421e-23
3.0141426e-23
3.0039105e-23
2.9925962e-23
2.9984384e-23
2.9913819e-23
2.9115627e-23
2.7480824e-23
2.4818997e-23
1.9679386e-23
1.2370266e-23
4.8344035e-24
1.044627e-23
1.4278937e-23
1.6409838e-23
1.7643439e-23
1.8192977e-23
1.8236593e-23
1.8146493e-23
1.8161982e-23
1.8199166e-23
1.819917e-23
1.8161993e-23
1.8146512e-23
1.8236615e-23
1.8192999e-23
1.7643467e-23
1.6409884e-23
1.4279005e-23
1.0446363e-23
4.8345182e-24
1.43102e-24
5.1872385e-24
8.071752e-24
9.8113666e-24
1.0788108e-23
1.1182054e-23
1.119098e-23
1.1078278e-23
1.1031241e-23
1.1024309e-23
1.1024313e-23
1.1031251e-23
1.1078294e-23
1.1190998e-23
1.1182071e-23
1.0788127e-23
9.8113973e-24
8.0717945e-24
5.187286e-24
1.4310712e-24
3.2135215e-25
2.40276e-24
4.4598724e-24
5.8411173e-24
6.628997e-24
6.9401734e-24
6.9415273e-24
6.8289209e-24
6.7555325e-24
6.7268529e-24
6.7268558e-24
6.7555405e-24
6.828933e-24
6.9415398e-24
6.940184e-24
6.6290074e-24
5.8411331e-24
4.4598947e-24
2.4027799e-24
3.2136869e-25
5.6823722e-26
1.0393441e-24
2.4066244e-24
3.4500766e-24
4.073523e-24
4.3281246e-24
4.3369552e-24
4.24546e-24
4.17317e-24
4.1389655e-24
4.1389677e-24
4.1731758e-24
4.2454683e-24
4.3369632e-24
4.3281311e-24
4.0735281e-24
3.450084e-24
2.4066338e-24
1.0393513e-24
5.6827465e-26
8.3694768e-27
4.2217832e-25
1.269638e-24
2.0176577e-24
2.4936774e-24
2.6995688e-24
2.7174751e-24
2.6523493e-24
2.5937738e-24
2.5634313e-24
2.5634328e-24
2.5937777e-24
2.6523547e-24
2.71748e-24
2.6995727e-24
2.4936798e-24
2.0176609e-24
1.2696415e-24
4.2218132e-25
8.3700883e-27
1.0864412e-27
1.6278428e-25
6.5607559e-25
1.1670039e-24
1.5165426e-24
1.6778022e-24
1.7009865e-24
1.6591543e-24
1.6168915e-24
1.5935929e-24
1.5935939e-24
1.6168939e-24
1.6591578e-24
1.7009895e-24
1.6778045e-24
1.5165438e-24
1.1670052e-24
6.5607681e-25
1.6278544e-25
1.0865204e-27
1.301919e-28
6.0328108e-26
3.3275457e-25
6.6713928e-25
9.1443161e-25
1.0362197e-24
1.0603419e-24
1.0358597e-24
1.0077787e-24
9.9145894e-25
9.9145956e-25
1.0077802e-24
1.0358618e-24
1.0603437e-24
1.0362211e-24
9.1443218e-25
6.6713981e-25
3.3275501e-25
6.0328517e-26
1.3020057e-28
1.4877931e-29
2.172185e-26
1.6587715e-25
3.7664468e-25
5.4581392e-25
6.3467322e-25
6.5671962e-25
6.4378518e-25
6.263124e-25
6.1560915e-25
6.1560952e-25
6.2631329e-25
6.4378644e-25
6.567207e-25
6.3467402e-25
5.4581421e-25
3.7664488e-25
1.658773e-25
2.1721984e-26
1.4878763e-29
)
;

boundaryField
{
    Wall
    {
        type            zeroGradient;
    }
    frontAndBack
    {
        type            empty;
    }
    atmosphere
    {
        type            zeroGradient;
    }
}


// ************************************************************************* //
