/*--------------------------------*- C++ -*----------------------------------*\
| =========                 |                                                 |
| \\      /  F ield         | OpenFOAM: The Open Source CFD Toolbox           |
|  \\    /   O peration     | Version:  3.0.1                                 |
|   \\  /    A nd           | Web:      www.OpenFOAM.org                      |
|    \\/     M anipulation  |                                                 |
\*---------------------------------------------------------------------------*/
FoamFile
{
    version     2.0;
    format      ascii;
    class       volScalarField;
    location    "32";
    object      mTwo;
}
// * * * * * * * * * * * * * * * * * * * * * * * * * * * * * * * * * * * * * //

dimensions      [0 0 0 0 0 0 0];

internalField   nonuniform List<scalar> 
800
(
3.2414222e-11
3.2420013e-11
3.2421062e-11
3.2421165e-11
3.2421149e-11
3.2421135e-11
3.2421134e-11
3.2421139e-11
3.2421144e-11
3.2421147e-11
3.2421148e-11
3.2421144e-11
3.2421139e-11
3.2421134e-11
3.2421135e-11
3.2421149e-11
3.2421166e-11
3.2421063e-11
3.2420013e-11
3.2414223e-11
3.1909057e-11
3.1955313e-11
3.1966903e-11
3.1969582e-11
3.1969778e-11
3.196943e-11
3.1969078e-11
3.1968839e-11
3.1968702e-11
3.1968641e-11
3.1968641e-11
3.1968702e-11
3.1968838e-11
3.1969078e-11
3.196943e-11
3.1969777e-11
3.1969581e-11
3.1966902e-11
3.1955311e-11
3.1909053e-11
3.1474037e-11
3.1544938e-11
3.156787e-11
3.1573414e-11
3.1574183e-11
3.1573793e-11
3.1573294e-11
3.1572938e-11
3.1572732e-11
3.157264e-11
3.1572641e-11
3.1572732e-11
3.1572937e-11
3.1573293e-11
3.1573792e-11
3.1574181e-11
3.1573412e-11
3.1567867e-11
3.1544934e-11
3.1474029e-11
3.1160589e-11
3.124653e-11
3.1278587e-11
3.1286278e-11
3.1287444e-11
3.1287036e-11
3.1286463e-11
3.1286057e-11
3.1285827e-11
3.1285727e-11
3.1285727e-11
3.1285827e-11
3.1286056e-11
3.1286461e-11
3.1287035e-11
3.1287441e-11
3.1286276e-11
3.1278584e-11
3.1246525e-11
3.116058e-11
3.1010763e-11
3.1101293e-11
3.11396e-11
3.1148693e-11
3.1149875e-11
3.1149343e-11
3.1148687e-11
3.1148254e-11
3.1148021e-11
3.1147925e-11
3.1147925e-11
3.114802e-11
3.1148253e-11
3.1148686e-11
3.1149341e-11
3.1149873e-11
3.114869e-11
3.1139596e-11
3.1101288e-11
3.1010755e-11
3.1056642e-11
3.1140505e-11
3.1181915e-11
3.1191694e-11
3.1192428e-11
3.1191596e-11
3.1190805e-11
3.1190337e-11
3.1190105e-11
3.1190018e-11
3.1190018e-11
3.1190105e-11
3.1190336e-11
3.1190804e-11
3.1191594e-11
3.1192426e-11
3.1191692e-11
3.1181912e-11
3.1140501e-11
3.1056635e-11
3.1321384e-11
3.1387492e-11
3.1428402e-11
3.1438121e-11
3.1437907e-11
3.1436564e-11
3.1435559e-11
3.1435025e-11
3.1434786e-11
3.1434705e-11
3.1434705e-11
3.1434786e-11
3.1435025e-11
3.1435558e-11
3.1436563e-11
3.1437906e-11
3.143812e-11
3.14284e-11
3.1387489e-11
3.1321378e-11
3.1820976e-11
3.1859116e-11
3.1895233e-11
3.1904103e-11
3.1902462e-11
3.190038e-11
3.1899059e-11
3.1898414e-11
3.1898146e-11
3.1898064e-11
3.1898064e-11
3.1898147e-11
3.1898414e-11
3.189906e-11
3.190038e-11
3.1902462e-11
3.1904104e-11
3.1895233e-11
3.1859115e-11
3.1820973e-11
3.2564347e-11
3.2566405e-11
3.259271e-11
3.2599909e-11
3.2596555e-11
3.2593519e-11
3.2591763e-11
3.259094e-11
3.2590613e-11
3.2590515e-11
3.2590515e-11
3.2590614e-11
3.2590941e-11
3.2591765e-11
3.259352e-11
3.2596556e-11
3.2599911e-11
3.2592711e-11
3.2566406e-11
3.2564347e-11
3.3549752e-11
3.351122e-11
3.3522199e-11
3.3526898e-11
3.352195e-11
3.3517909e-11
3.3515573e-11
3.3514484e-11
3.3514056e-11
3.3513922e-11
3.3513922e-11
3.3514057e-11
3.3514485e-11
3.3515575e-11
3.3517912e-11
3.3521953e-11
3.3526901e-11
3.3522203e-11
3.3511223e-11
3.3549755e-11
3.4766295e-11
3.468699e-11
3.4677075e-11
3.467845e-11
3.4672597e-11
3.466785e-11
3.4664743e-11
3.4663275e-11
3.4662695e-11
3.4662498e-11
3.4662499e-11
3.4662696e-11
3.4663277e-11
3.4664747e-11
3.4667854e-11
3.4672601e-11
3.4678455e-11
3.4677081e-11
3.4686996e-11
3.47663e-11
3.6197288e-11
3.6081694e-11
3.6046247e-11
3.6043469e-11
3.6038006e-11
3.6033285e-11
3.6029158e-11
3.6027156e-11
3.6026366e-11
3.6026073e-11
3.6026073e-11
3.6026368e-11
3.6027159e-11
3.6029162e-11
3.603329e-11
3.6038012e-11
3.6043476e-11
3.6046255e-11
3.6081702e-11
3.6197295e-11
3.7820954e-11
3.7678455e-11
3.7615349e-11
3.7607368e-11
3.7604176e-11
3.7600588e-11
3.75951e-11
3.7592331e-11
3.7591376e-11
3.7590923e-11
3.7590924e-11
3.7591378e-11
3.7592334e-11
3.7595105e-11
3.7600594e-11
3.7604183e-11
3.7607376e-11
3.7615358e-11
3.7678464e-11
3.7820963e-11
3.9608753e-11
3.945435e-11
3.9365926e-11
3.9351364e-11
3.9353006e-11
3.9351837e-11
3.9344665e-11
3.9340789e-11
3.9339819e-11
3.9339116e-11
3.9339117e-11
3.9339821e-11
3.9340793e-11
3.934467e-11
3.9351844e-11
3.9353013e-11
3.9351373e-11
3.9365935e-11
3.9454361e-11
3.9608763e-11
4.1519385e-11
4.1374533e-11
4.1268763e-11
4.1246424e-11
4.1255701e-11
4.1258218e-11
4.1248629e-11
4.1243257e-11
4.1242385e-11
4.1241558e-11
4.1241559e-11
4.1242387e-11
4.124326e-11
4.1248634e-11
4.1258225e-11
4.1255709e-11
4.1246433e-11
4.1268773e-11
4.1374544e-11
4.1519396e-11
4.3484703e-11
4.3381214e-11
4.3271615e-11
4.3241873e-11
4.3262394e-11
4.3269282e-11
4.3255898e-11
4.324859e-11
4.3247864e-11
4.3247812e-11
4.3247813e-11
4.3247866e-11
4.3248593e-11
4.3255902e-11
4.3269288e-11
4.3262401e-11
4.3241883e-11
4.3271625e-11
4.3381225e-11
4.3484713e-11
4.543256e-11
4.5411137e-11
4.5315395e-11
4.5281664e-11
4.5317248e-11
4.5327688e-11
4.5307904e-11
4.5298123e-11
4.5297511e-11
4.5300339e-11
4.530034e-11
4.5297512e-11
4.5298126e-11
4.5307907e-11
4.5327693e-11
4.5317254e-11
4.5281672e-11
4.5315404e-11
4.5411147e-11
4.5432568e-11
4.7286224e-11
4.7396089e-11
4.733509e-11
4.730465e-11
4.735987e-11
4.7370853e-11
4.734092e-11
4.732805e-11
4.732688e-11
4.7335827e-11
4.7335828e-11
4.7326881e-11
4.7328051e-11
4.7340923e-11
4.7370857e-11
4.7359875e-11
4.7304657e-11
4.7335097e-11
4.7396097e-11
4.7286228e-11
4.8959486e-11
4.9258366e-11
4.925603e-11
4.9239609e-11
4.9320094e-11
4.9326863e-11
4.9283028e-11
4.9266461e-11
4.9262908e-11
4.9281715e-11
4.9281716e-11
4.9262908e-11
4.9266461e-11
4.9283029e-11
4.9326865e-11
4.9320097e-11
4.9239614e-11
4.9256034e-11
4.925837e-11
4.8959487e-11
5.0349945e-11
5.0905258e-11
5.0989292e-11
5.099996e-11
5.11112e-11
5.1109426e-11
5.1049554e-11
5.1028842e-11
5.1020609e-11
5.1052616e-11
5.1052616e-11
5.1020609e-11
5.1028841e-11
5.1049553e-11
5.1109426e-11
5.1111201e-11
5.0999962e-11
5.0989294e-11
5.0905259e-11
5.0349942e-11
5.1331573e-11
5.2222123e-11
5.2426144e-11
5.2477445e-11
5.2624233e-11
5.2612613e-11
5.2537393e-11
5.2512377e-11
5.2499124e-11
5.2546464e-11
5.2546464e-11
5.2499123e-11
5.2512374e-11
5.253739e-11
5.2612611e-11
5.2624231e-11
5.2477443e-11
5.2426142e-11
5.2222121e-11
5.1331568e-11
5.1750717e-11
5.3064026e-11
5.343013e-11
5.3536338e-11
5.3725285e-11
5.370481e-11
5.3617657e-11
5.358852e-11
5.3574338e-11
5.363747e-11
5.363747e-11
5.3574336e-11
5.3588517e-11
5.3617653e-11
5.3704806e-11
5.3725281e-11
5.3536334e-11
5.3430126e-11
5.3064022e-11
5.1750711e-11
5.1425368e-11
5.3251252e-11
5.3832196e-11
5.4008634e-11
5.4252217e-11
5.4225737e-11
5.4128812e-11
5.4096035e-11
5.4089585e-11
5.4167212e-11
5.4167211e-11
5.4089583e-11
5.4096031e-11
5.4128807e-11
5.4225731e-11
5.4252212e-11
5.4008629e-11
5.3832191e-11
5.3251249e-11
5.1425366e-11
5.0139268e-11
5.2568213e-11
5.3427847e-11
5.3692596e-11
5.4008221e-11
5.3980581e-11
5.3875722e-11
5.3840005e-11
5.3851759e-11
5.3941035e-11
5.3941035e-11
5.3851756e-11
5.384e-11
5.3875717e-11
5.3980575e-11
5.4008215e-11
5.3692591e-11
5.3427843e-11
5.2568214e-11
5.0139275e-11
4.7652055e-11
5.0766786e-11
5.1971201e-11
5.2360719e-11
5.2757086e-11
5.2745774e-11
5.2640109e-11
5.2602324e-11
5.2640358e-11
5.2737243e-11
5.2737242e-11
5.2640356e-11
5.260232e-11
5.2640105e-11
5.2745769e-11
5.2757081e-11
5.2360716e-11
5.1971201e-11
5.0766795e-11
4.7652079e-11
4.374593e-11
4.7593719e-11
4.9205515e-11
4.976976e-11
5.0247683e-11
5.0284051e-11
5.019104e-11
5.0152171e-11
5.0218556e-11
5.031814e-11
5.031814e-11
5.0218555e-11
5.0152169e-11
5.0191038e-11
5.0284049e-11
5.0247681e-11
4.9769761e-11
4.9205522e-11
4.7593744e-11
4.3745977e-11
3.8298108e-11
4.283435e-11
4.4907365e-11
4.5679277e-11
4.6249158e-11
4.6363277e-11
4.6296114e-11
4.6257075e-11
4.634612e-11
4.6442852e-11
4.6442852e-11
4.634612e-11
4.6257075e-11
4.6296114e-11
4.6363277e-11
4.624916e-11
4.5679283e-11
4.4907383e-11
4.2834393e-11
3.8298182e-11
3.1384918e-11
3.6419257e-11
3.8956748e-11
3.993289e-11
4.0610377e-11
4.0825487e-11
4.0789445e-11
4.0751216e-11
4.0850354e-11
4.0938395e-11
4.0938395e-11
4.0850355e-11
4.0751218e-11
4.0789448e-11
4.082549e-11
4.0610384e-11
3.9932903e-11
3.8956776e-11
3.6419319e-11
3.1385012e-11
2.3434292e-11
2.8572456e-11
3.1450632e-11
3.260778e-11
3.342003e-11
3.3712831e-11
3.370341e-11
3.3667461e-11
3.3760939e-11
3.3834961e-11
3.3834961e-11
3.3760941e-11
3.3667464e-11
3.3703415e-11
3.3712837e-11
3.3420039e-11
3.2607796e-11
3.1450665e-11
2.8572527e-11
2.3434391e-11
1.5335653e-11
1.9983796e-11
2.2948438e-11
2.4241661e-11
2.5048469e-11
2.5480888e-11
2.5490259e-11
2.5459473e-11
2.5533748e-11
2.5590095e-11
2.5590095e-11
2.553375e-11
2.5459477e-11
2.5490264e-11
2.5480895e-11
2.504848e-11
2.4241679e-11
2.2948473e-11
1.998387e-11
1.5335757e-11
9.2514064e-12
1.2525815e-11
1.493438e-11
1.6089394e-11
1.6778968e-11
1.7132303e-11
1.7158012e-11
1.7137404e-11
1.7188812e-11
1.7228157e-11
1.7228158e-11
1.7188816e-11
1.713741e-11
1.715802e-11
1.7132313e-11
1.6778982e-11
1.6089416e-11
1.4934417e-11
1.2525885e-11
9.2515062e-12
4.8295956e-12
7.4758474e-12
9.3503044e-12
1.0377584e-11
1.0973802e-11
1.1252178e-11
1.1284883e-11
1.1260435e-11
1.1283415e-11
1.1304668e-11
1.1304669e-11
1.1283419e-11
1.1260441e-11
1.1284892e-11
1.1252188e-11
1.0973815e-11
1.0377604e-11
9.3503365e-12
7.4758989e-12
4.8296739e-12
1.9901436e-12
4.2280233e-12
5.7645882e-12
6.6696742e-12
7.18527e-12
7.4107237e-12
7.4367481e-12
7.3993228e-12
7.3916748e-12
7.3939509e-12
7.3939524e-12
7.3916789e-12
7.3993299e-12
7.4367562e-12
7.4107319e-12
7.1852801e-12
6.6696916e-12
5.7646141e-12
4.2280597e-12
1.9901902e-12
6.1844067e-13
2.2377522e-12
3.4883674e-12
4.2830347e-12
4.7362518e-12
4.9243842e-12
4.9399521e-12
4.8921797e-12
4.8623729e-12
4.8499776e-12
4.8499791e-12
4.8623771e-12
4.892186e-12
4.9399589e-12
4.9243906e-12
4.7362591e-12
4.2830468e-12
3.4883845e-12
2.2377719e-12
6.1846268e-13
1.4548477e-13
1.1082282e-12
2.0664419e-12
2.7384537e-12
3.1334237e-12
3.2983961e-12
3.3115472e-12
3.2620217e-12
3.2218857e-12
3.2016767e-12
3.2016779e-12
3.2218891e-12
3.2620268e-12
3.3115523e-12
3.2984003e-12
3.1334278e-12
2.7384601e-12
2.0664512e-12
1.1082368e-12
1.4549222e-13
2.6951466e-14
5.1451529e-13
1.1990252e-12
1.7392786e-12
2.0727094e-12
2.2175495e-12
2.2331356e-12
2.1907997e-12
2.150968e-12
2.1289644e-12
2.1289654e-12
2.1509706e-12
2.1908034e-12
2.233139e-12
2.2175522e-12
2.0727114e-12
1.7392816e-12
1.1990291e-12
5.1451849e-13
2.6953223e-14
4.1661267e-15
2.2513333e-13
6.8243975e-13
1.0957722e-12
1.3665393e-12
1.4904426e-12
1.5088965e-12
1.4770416e-12
1.4432944e-12
1.423518e-12
1.4235188e-12
1.4432962e-12
1.4770442e-12
1.5088987e-12
1.4904443e-12
1.3665401e-12
1.0957734e-12
6.8244112e-13
2.2513475e-13
4.1664265e-15
5.6907443e-16
9.3812426e-14
3.8162528e-13
6.8407387e-13
8.9578679e-13
9.9817925e-13
1.0179826e-12
9.9631545e-13
9.7046372e-13
9.5456872e-13
9.5456924e-13
9.7046497e-13
9.9631717e-13
1.017984e-12
9.9818026e-13
8.9578713e-13
6.8407425e-13
3.8162569e-13
9.3813017e-14
5.6911509e-16
7.1960055e-17
3.7674936e-14
2.0997433e-13
4.2279871e-13
5.8271892e-13
6.6447548e-13
6.8383046e-13
6.7042642e-13
6.5202901e-13
6.4019441e-13
6.4019475e-13
6.5202981e-13
6.7042753e-13
6.8383136e-13
6.6447608e-13
5.8271904e-13
4.2279877e-13
2.0997444e-13
3.7675162e-14
7.1964728e-17
8.7007467e-18
1.4732446e-14
1.1374916e-13
2.5841335e-13
3.7555429e-13
4.3883821e-13
4.564164e-13
4.4898869e-13
4.366494e-13
4.2832498e-13
4.2832519e-13
4.366499e-13
4.4898937e-13
4.5641696e-13
4.3883857e-13
3.7555432e-13
2.5841331e-13
1.1374918e-13
1.4732526e-14
8.7012187e-18
)
;

boundaryField
{
    Wall
    {
        type            zeroGradient;
    }
    frontAndBack
    {
        type            empty;
    }
    atmosphere
    {
        type            zeroGradient;
    }
}


// ************************************************************************* //
