/*--------------------------------*- C++ -*----------------------------------*\
| =========                 |                                                 |
| \\      /  F ield         | OpenFOAM: The Open Source CFD Toolbox           |
|  \\    /   O peration     | Version:  3.0.1                                 |
|   \\  /    A nd           | Web:      www.OpenFOAM.org                      |
|    \\/     M anipulation  |                                                 |
\*---------------------------------------------------------------------------*/
FoamFile
{
    version     2.0;
    format      ascii;
    class       volScalarField;
    location    "32";
    object      muMixture;
}
// * * * * * * * * * * * * * * * * * * * * * * * * * * * * * * * * * * * * * //

dimensions      [1 -1 -1 0 0 0 0];

internalField   nonuniform List<scalar> 
800
(
0.001
0.001
0.001
0.001
0.001
0.001
0.001
0.001
0.001
0.001
0.001
0.001
0.001
0.001
0.001
0.001
0.001
0.001
0.001
0.001
0.001
0.001
0.001
0.001
0.001
0.001
0.001
0.001
0.001
0.001
0.001
0.001
0.001
0.001
0.001
0.001
0.001
0.001
0.001
0.001
0.00099999999
0.00099999999
0.00099999999
0.00099999999
0.00099999999
0.00099999999
0.00099999999
0.00099999999
0.00099999999
0.00099999999
0.00099999999
0.00099999999
0.00099999999
0.00099999999
0.00099999999
0.00099999999
0.00099999999
0.00099999999
0.00099999999
0.00099999999
0.00099999995
0.00099999995
0.00099999996
0.00099999996
0.00099999996
0.00099999996
0.00099999996
0.00099999996
0.00099999996
0.00099999996
0.00099999996
0.00099999996
0.00099999996
0.00099999996
0.00099999996
0.00099999996
0.00099999996
0.00099999996
0.00099999995
0.00099999995
0.00099999986
0.00099999987
0.00099999988
0.00099999988
0.00099999988
0.00099999988
0.00099999988
0.00099999988
0.00099999988
0.00099999988
0.00099999988
0.00099999988
0.00099999988
0.00099999988
0.00099999988
0.00099999988
0.00099999988
0.00099999988
0.00099999987
0.00099999986
0.0009999997
0.00099999973
0.00099999975
0.00099999975
0.00099999975
0.00099999975
0.00099999975
0.00099999975
0.00099999975
0.00099999975
0.00099999975
0.00099999975
0.00099999975
0.00099999975
0.00099999975
0.00099999975
0.00099999975
0.00099999975
0.00099999973
0.0009999997
0.00099999946
0.00099999952
0.00099999955
0.00099999956
0.00099999956
0.00099999956
0.00099999956
0.00099999956
0.00099999956
0.00099999956
0.00099999956
0.00099999956
0.00099999956
0.00099999956
0.00099999956
0.00099999956
0.00099999956
0.00099999955
0.00099999952
0.00099999946
0.00099999912
0.00099999922
0.00099999927
0.00099999929
0.00099999929
0.00099999929
0.00099999929
0.00099999929
0.00099999929
0.00099999929
0.00099999929
0.00099999929
0.00099999929
0.00099999929
0.00099999929
0.00099999929
0.00099999929
0.00099999927
0.00099999922
0.00099999912
0.00099999867
0.00099999882
0.0009999989
0.00099999892
0.00099999892
0.00099999892
0.00099999892
0.00099999892
0.00099999892
0.00099999892
0.00099999892
0.00099999892
0.00099999892
0.00099999892
0.00099999892
0.00099999892
0.00099999892
0.0009999989
0.00099999882
0.00099999867
0.00099999809
0.00099999829
0.00099999842
0.00099999846
0.00099999846
0.00099999846
0.00099999846
0.00099999846
0.00099999846
0.00099999846
0.00099999846
0.00099999846
0.00099999846
0.00099999846
0.00099999846
0.00099999846
0.00099999846
0.00099999842
0.00099999829
0.00099999809
0.00099999738
0.00099999765
0.00099999782
0.00099999788
0.00099999789
0.00099999789
0.00099999789
0.00099999788
0.00099999788
0.00099999788
0.00099999788
0.00099999788
0.00099999788
0.00099999789
0.00099999789
0.00099999789
0.00099999788
0.00099999782
0.00099999765
0.00099999738
0.00099999653
0.00099999678
0.00099999707
0.00099999719
0.0009999972
0.0009999972
0.0009999972
0.0009999972
0.0009999972
0.0009999972
0.0009999972
0.0009999972
0.0009999972
0.0009999972
0.0009999972
0.0009999972
0.00099999719
0.00099999707
0.00099999678
0.00099999653
0.00099999551
0.00099999578
0.00099999628
0.00099999641
0.00099999643
0.00099999645
0.0009999964
0.0009999964
0.0009999964
0.0009999964
0.0009999964
0.0009999964
0.0009999964
0.0009999964
0.00099999645
0.00099999643
0.00099999641
0.00099999628
0.00099999578
0.00099999551
0.00099999441
0.0009999951
0.00099999548
0.00099999552
0.00099999552
0.00099999491
0.00099999517
0.00099999549
0.00099999549
0.00099999549
0.00099999549
0.00099999549
0.00099999549
0.00099999517
0.00099999491
0.00099999553
0.00099999552
0.00099999548
0.0009999951
0.00099999441
0.00099999214
0.00099999395
0.00099999449
0.00099999433
0.00099999136
0.00099999142
0.00099999431
0.00099999448
0.00099999447
0.00099999447
0.00099999447
0.00099999447
0.00099999448
0.00099999431
0.00099999142
0.00099999136
0.00099999433
0.00099999449
0.00099999395
0.00099999214
0.00099999017
0.00099997924
0.00099998933
0.00099998829
0.00099998552
0.00099999214
0.0009999937
0.00099999337
0.00099999337
0.00099999337
0.00099999337
0.00099999337
0.00099999337
0.0009999937
0.00099999213
0.00099998551
0.00099998829
0.00099998933
0.00099997924
0.00099999017
0.00099997967
0.00099996726
0.00099996782
0.00099997139
0.0009999868
0.00099999215
0.00099999226
0.00099999219
0.00099999218
0.00099999218
0.00099999218
0.00099999218
0.00099999219
0.00099999227
0.00099999215
0.0009999868
0.00099997139
0.00099996782
0.00099996726
0.00099997967
0.00099996726
0.00099996726
0.00099996726
0.00099997662
0.0009999888
0.00099998861
0.00099999068
0.00099999094
0.00099999093
0.00099999093
0.00099999093
0.00099999093
0.00099999094
0.00099999068
0.00099998862
0.0009999888
0.00099997661
0.00099996726
0.00099996726
0.00099996726
0.00099996726
0.00099996726
0.00099996794
0.00099998867
0.0009999888
0.00099998803
0.00099998986
0.00099998964
0.00099998964
0.00099998963
0.00099998963
0.00099998964
0.00099998964
0.00099998986
0.00099998804
0.0009999888
0.00099998867
0.00099996794
0.00099996726
0.00099996726
0.00099996726
0.00099996726
0.00099998497
0.0009999888
0.0009999888
0.00099998877
0.00099998758
0.00099998833
0.00099998832
0.00099998831
0.00099998831
0.00099998832
0.00099998833
0.00099998758
0.00099998877
0.0009999888
0.0009999888
0.00099998497
0.00099996726
0.00099996726
0.00099996726
0.00099997069
0.00099998717
0.0009999888
0.00099998714
0.00099998877
0.00099998725
0.00099998699
0.00099998698
0.00099998697
0.00099998697
0.00099998698
0.00099998699
0.00099998724
0.00099998877
0.00099998715
0.0009999888
0.00099998717
0.00099997069
0.00099996726
0.00099997795
0.00099998121
0.00099998107
0.0009999888
0.00099998146
0.00099998266
0.00099998446
0.00099998566
0.00099998565
0.00099998564
0.00099998564
0.00099998565
0.00099998566
0.00099998444
0.00099998264
0.00099998145
0.0009999888
0.00099998107
0.00099998121
0.00099997794
0.00099998597
0.0009999866
0.00099998105
0.0009999888
0.00099998146
0.00099998146
0.00099998439
0.00099998436
0.00099998434
0.00099998433
0.00099998433
0.00099998434
0.00099998436
0.0009999844
0.00099998145
0.00099998145
0.0009999888
0.00099998105
0.0009999866
0.00099998597
0.00099998698
0.00099998734
0.00099998305
0.0009999888
0.00099998728
0.0009999841
0.00099998261
0.00099998309
0.00099998308
0.00099998308
0.00099998308
0.00099998308
0.00099998309
0.00099998262
0.00099998409
0.0009999873
0.0009999888
0.00099998305
0.00099998734
0.00099998698
0.00099998734
0.0009999881
0.0009999888
0.0009999888
0.0009999888
0.0009999884
0.00099998319
0.00099998184
0.00099998182
0.00099998181
0.00099998181
0.00099998182
0.00099998184
0.0009999832
0.0009999884
0.0009999888
0.0009999888
0.0009999888
0.0009999881
0.00099998734
0.0009999806
0.00099998553
0.00099998835
0.00099998775
0.00099998812
0.00099998394
0.00099998075
0.00099997977
0.00099997977
0.00099997977
0.00099997977
0.00099997977
0.00099997977
0.00099998075
0.00099998395
0.00099998812
0.00099998776
0.00099998835
0.00099998553
0.0009999806
0.00099987825
0.00099995643
0.00099997382
0.00099997234
0.00099997469
0.0009999717
0.0009999706
0.00099997053
0.00099997071
0.0009999708
0.0009999708
0.00099997071
0.00099997053
0.0009999706
0.00099997171
0.00099997468
0.00099997234
0.00099997382
0.00099995643
0.00099987825
0.00099801869
0.00099948247
0.00099978698
0.0009998351
0.00099985879
0.00099986641
0.00099987057
0.00099987301
0.00099987536
0.00099987655
0.00099987655
0.00099987536
0.00099987301
0.00099987058
0.00099986641
0.00099985878
0.00099983511
0.00099978698
0.0009994825
0.00099801887
0.00091951918
0.00098611614
0.00099536343
0.00099698325
0.00099758639
0.00099784451
0.0009979602
0.00099801966
0.00099806946
0.00099809462
0.00099809463
0.00099806947
0.00099801968
0.00099796023
0.00099784455
0.00099758644
0.00099698334
0.00099536363
0.00098611726
0.00091952736
1e-05
0.00064854279
0.00080372975
0.00085935218
0.00088616881
0.00089836882
0.00090396724
0.00090696941
0.0009096503
0.00091100803
0.00091100823
0.00090965091
0.00090697049
0.00090396877
0.00089837078
0.00088617138
0.00085935619
0.00080373583
0.00064855486
1e-05
1e-05
1e-05
1e-05
1e-05
1e-05
1e-05
1e-05
1e-05
1e-05
1e-05
1e-05
1e-05
1e-05
1e-05
1e-05
1e-05
1e-05
1e-05
1e-05
1e-05
1e-05
1e-05
1e-05
1e-05
1e-05
1e-05
1e-05
1e-05
1e-05
1e-05
1e-05
1e-05
1e-05
1e-05
1e-05
1e-05
1e-05
1e-05
1e-05
1e-05
1e-05
1e-05
1e-05
1e-05
1e-05
1e-05
1e-05
1e-05
1e-05
1e-05
1e-05
1e-05
1e-05
1e-05
1e-05
1e-05
1e-05
1e-05
1e-05
1e-05
1e-05
1e-05
1e-05
1e-05
1e-05
1e-05
1e-05
1e-05
1e-05
1e-05
1e-05
1e-05
1e-05
1e-05
1e-05
1e-05
1e-05
1e-05
1e-05
1e-05
1e-05
1e-05
1e-05
1e-05
1e-05
1e-05
1e-05
1e-05
1e-05
1e-05
1e-05
1e-05
1e-05
1e-05
1e-05
1e-05
1e-05
1e-05
1e-05
1e-05
1e-05
1e-05
1e-05
1e-05
1e-05
1e-05
1e-05
1e-05
1e-05
1e-05
1e-05
1e-05
1e-05
1e-05
1e-05
1e-05
1e-05
1e-05
1e-05
1e-05
1e-05
1e-05
1e-05
1e-05
1e-05
1e-05
1e-05
1e-05
1e-05
1e-05
1e-05
1e-05
1e-05
1e-05
1e-05
1e-05
1e-05
1e-05
1e-05
1e-05
1e-05
1e-05
1e-05
1e-05
1e-05
1e-05
1e-05
1e-05
1e-05
1e-05
1e-05
1e-05
1e-05
1e-05
1e-05
1e-05
1e-05
1e-05
1e-05
1e-05
1e-05
1e-05
1e-05
1e-05
1e-05
1e-05
1e-05
1e-05
1e-05
1e-05
1e-05
1e-05
1e-05
1e-05
1e-05
1e-05
1e-05
1e-05
1e-05
1e-05
1e-05
1e-05
1e-05
1e-05
1e-05
1e-05
1e-05
1e-05
1e-05
1e-05
1e-05
1e-05
1e-05
1e-05
1e-05
1e-05
1e-05
1e-05
1e-05
1e-05
)
;

boundaryField
{
    Wall
    {
        type            zeroGradient;
    }
    frontAndBack
    {
        type            empty;
    }
    atmosphere
    {
        type            zeroGradient;
    }
}


// ************************************************************************* //
