/*--------------------------------*- C++ -*----------------------------------*\
| =========                 |                                                 |
| \\      /  F ield         | OpenFOAM: The Open Source CFD Toolbox           |
|  \\    /   O peration     | Version:  3.0.1                                 |
|   \\  /    A nd           | Web:      www.OpenFOAM.org                      |
|    \\/     M anipulation  |                                                 |
\*---------------------------------------------------------------------------*/
FoamFile
{
    version     2.0;
    format      ascii;
    class       volScalarField;
    location    "32";
    object      mZero;
}
// * * * * * * * * * * * * * * * * * * * * * * * * * * * * * * * * * * * * * //

dimensions      [0 0 0 0 0 0 0];

internalField   nonuniform List<scalar> 
800
(
1e+13
1e+13
1e+13
1e+13
1e+13
1e+13
1e+13
1e+13
1e+13
1e+13
1e+13
1e+13
1e+13
1e+13
1e+13
1e+13
1e+13
1e+13
1e+13
1e+13
1e+13
1e+13
1e+13
1e+13
1e+13
1e+13
1e+13
1e+13
1e+13
1e+13
1e+13
1e+13
1e+13
1e+13
1e+13
1e+13
1e+13
1e+13
1e+13
1e+13
9.9429331e+12
9.9446957e+12
9.9455021e+12
9.9457933e+12
9.9458831e+12
9.9458987e+12
9.9458902e+12
9.9458777e+12
9.945868e+12
9.945863e+12
9.945863e+12
9.9458679e+12
9.9458776e+12
9.9458901e+12
9.9458986e+12
9.945883e+12
9.9457931e+12
9.9455019e+12
9.9446954e+12
9.9429327e+12
9.8380951e+12
9.8431054e+12
9.8451795e+12
9.8459267e+12
9.8461671e+12
9.846213e+12
9.8461947e+12
9.846164e+12
9.8461393e+12
9.8461264e+12
9.8461264e+12
9.8461392e+12
9.8461638e+12
9.8461945e+12
9.8462127e+12
9.8461667e+12
9.8459263e+12
9.845179e+12
9.8431048e+12
9.8380942e+12
9.6935305e+12
9.7030216e+12
9.7066586e+12
9.7079531e+12
9.7083721e+12
9.708452e+12
9.7084205e+12
9.7083668e+12
9.7083232e+12
9.7083004e+12
9.7083003e+12
9.7083231e+12
9.7083666e+12
9.7084201e+12
9.7084515e+12
9.7083715e+12
9.7079523e+12
9.7066578e+12
9.7030206e+12
9.6935291e+12
9.5163321e+12
9.5312033e+12
9.5366159e+12
9.5385145e+12
9.5391217e+12
9.539232e+12
9.5391819e+12
9.5391006e+12
9.5390349e+12
9.5390004e+12
9.5390004e+12
9.5390346e+12
9.5391003e+12
9.5391814e+12
9.5392313e+12
9.5391208e+12
9.5385135e+12
9.5366147e+12
9.5312019e+12
9.5163302e+12
9.3126489e+12
9.3336036e+12
9.3409306e+12
9.3434632e+12
9.3442532e+12
9.344385e+12
9.3443095e+12
9.3441958e+12
9.344105e+12
9.3440576e+12
9.3440575e+12
9.3441047e+12
9.3441953e+12
9.3443088e+12
9.3443841e+12
9.3442521e+12
9.3434619e+12
9.3409291e+12
9.3336018e+12
9.3126466e+12
9.0878253e+12
9.1154445e+12
9.1247788e+12
9.1279544e+12
9.1289092e+12
9.1290492e+12
9.1289406e+12
9.1287899e+12
9.1286717e+12
9.1286103e+12
9.1286102e+12
9.1286714e+12
9.1287893e+12
9.1289397e+12
9.1290481e+12
9.1289079e+12
9.1279528e+12
9.124777e+12
9.1154425e+12
9.0878228e+12
8.8465032e+12
8.8812751e+12
8.8926929e+12
8.8965104e+12
8.897606e+12
8.8977379e+12
8.8975889e+12
8.8973977e+12
8.8972502e+12
8.8971738e+12
8.8971737e+12
8.8972497e+12
8.897397e+12
8.8975879e+12
8.8977367e+12
8.8976045e+12
8.8965086e+12
8.8926909e+12
8.881273e+12
8.8465007e+12
8.592673e+12
8.635019e+12
8.6486019e+12
8.6530597e+12
8.6542731e+12
8.6543821e+12
8.6541873e+12
8.6539536e+12
8.6537754e+12
8.6536836e+12
8.6536834e+12
8.6537749e+12
8.6539528e+12
8.6541862e+12
8.6543807e+12
8.6542715e+12
8.6530579e+12
8.6485999e+12
8.6350167e+12
8.5926704e+12
8.3297122e+12
8.380014e+12
8.3958686e+12
8.4009747e+12
8.4022896e+12
8.4023666e+12
8.4021239e+12
8.4018475e+12
8.4016375e+12
8.4015297e+12
8.4015296e+12
8.401637e+12
8.4018467e+12
8.4021227e+12
8.4023652e+12
8.4022879e+12
8.4009727e+12
8.3958664e+12
8.3800117e+12
8.3297097e+12
8.0604232e+12
8.1190434e+12
8.1373214e+12
8.1431033e+12
8.1445146e+12
8.1445583e+12
8.1442682e+12
8.1439506e+12
8.1437069e+12
8.1435826e+12
8.1435824e+12
8.1437063e+12
8.1439497e+12
8.144267e+12
8.1445569e+12
8.1445129e+12
8.1431014e+12
8.1373193e+12
8.1190412e+12
8.0604209e+12
7.787094e+12
7.8543931e+12
7.8753103e+12
7.8818232e+12
7.8833426e+12
7.8833596e+12
7.8830246e+12
7.8826685e+12
7.8823887e+12
7.8822471e+12
7.8822469e+12
7.8823881e+12
7.8826676e+12
7.8830234e+12
7.8833581e+12
7.8833409e+12
7.8818213e+12
7.8753083e+12
7.854391e+12
7.7870918e+12
7.5116136e+12
7.587966e+12
7.6118206e+12
7.6191571e+12
7.6208164e+12
7.6208187e+12
7.6204387e+12
7.6200467e+12
7.6197297e+12
7.6195683e+12
7.6195681e+12
7.6197291e+12
7.6200458e+12
7.6204375e+12
7.6208172e+12
7.6208147e+12
7.6191553e+12
7.6118187e+12
7.5879641e+12
7.5116115e+12
7.2353307e+12
7.3211583e+12
7.3483466e+12
7.356651e+12
7.3585051e+12
7.358506e+12
7.3580782e+12
7.3576511e+12
7.3572983e+12
7.3571132e+12
7.357113e+12
7.3572977e+12
7.3576502e+12
7.358077e+12
7.3585047e+12
7.3585035e+12
7.3566494e+12
7.3483447e+12
7.3211565e+12
7.2353288e+12
6.9595696e+12
7.0553113e+12
7.0863392e+12
7.0958243e+12
7.0979475e+12
7.0979565e+12
7.0974704e+12
7.0970021e+12
7.0966173e+12
7.0964054e+12
7.0964052e+12
7.0966168e+12
7.0970013e+12
7.0974692e+12
7.0979552e+12
7.0979461e+12
7.0958228e+12
7.0863375e+12
7.0553096e+12
6.9595678e+12
6.6851146e+12
6.791274e+12
6.8267888e+12
6.8377636e+12
6.8402644e+12
6.8402919e+12
6.8397296e+12
6.8392067e+12
6.8387941e+12
6.8385546e+12
6.8385545e+12
6.8387936e+12
6.8392059e+12
6.8397286e+12
6.8402906e+12
6.840263e+12
6.8377622e+12
6.8267872e+12
6.7912725e+12
6.6851131e+12
6.4122769e+12
6.5294567e+12
6.5702684e+12
6.5831605e+12
6.5861931e+12
6.5862554e+12
6.5855921e+12
6.5849917e+12
6.5845519e+12
6.5842848e+12
6.5842846e+12
6.5845515e+12
6.5849909e+12
6.5855911e+12
6.5862543e+12
6.5861918e+12
6.5831592e+12
6.570267e+12
6.5294553e+12
6.4122755e+12
6.1408594e+12
6.2698065e+12
6.3169269e+12
6.3323106e+12
6.3360993e+12
6.3362286e+12
6.3354352e+12
6.3347236e+12
6.334249e+12
6.3339522e+12
6.333952e+12
6.3342485e+12
6.3347229e+12
6.3354342e+12
6.3362276e+12
6.3360981e+12
6.3323095e+12
6.3169257e+12
6.2698053e+12
6.1408583e+12
5.8701266e+12
6.0117814e+12
6.0664713e+12
6.0851047e+12
6.0899746e+12
6.0902345e+12
6.0892823e+12
6.0884141e+12
6.0878856e+12
6.0875522e+12
6.087552e+12
6.0878851e+12
6.0884134e+12
6.0892814e+12
6.0902336e+12
6.0899736e+12
6.0851038e+12
6.0664702e+12
6.0117804e+12
5.8701258e+12
5.5987741e+12
5.7543259e+12
5.8181577e+12
5.8410338e+12
5.8474498e+12
5.8479548e+12
5.8468202e+12
5.8457378e+12
5.8451237e+12
5.8447393e+12
5.8447392e+12
5.8451233e+12
5.8457371e+12
5.8468194e+12
5.847954e+12
5.8474489e+12
5.841033e+12
5.8181568e+12
5.7543251e+12
5.5987736e+12
5.3248633e+12
5.4958239e+12
5.5707595e+12
5.5991815e+12
5.6078009e+12
5.608741e+12
5.6074107e+12
5.6060437e+12
5.6052973e+12
5.6048375e+12
5.6048373e+12
5.6052969e+12
5.606043e+12
5.60741e+12
5.6087403e+12
5.6078002e+12
5.5991808e+12
5.5707588e+12
5.4958235e+12
5.3248633e+12
5.0456795e+12
5.2339961e+12
5.3224962e+12
5.3581817e+12
5.369929e+12
5.3716074e+12
5.3700923e+12
5.3683561e+12
5.3674083e+12
5.3668341e+12
5.3668339e+12
5.367408e+12
5.3683554e+12
5.3700917e+12
5.3716068e+12
5.3699284e+12
5.3581812e+12
5.3224958e+12
5.2339961e+12
5.04568e+12
4.7574966e+12
4.9657258e+12
5.0708967e+12
5.1161349e+12
5.1322998e+12
5.1352055e+12
5.1335684e+12
5.1313627e+12
5.1301121e+12
5.1293644e+12
5.1293642e+12
5.1301118e+12
5.1313621e+12
5.1335679e+12
5.135205e+12
5.1322993e+12
5.1161346e+12
5.0708965e+12
4.9657263e+12
4.7574978e+12
4.4553056e+12
4.6867742e+12
4.8125762e+12
4.8704839e+12
4.8928745e+12
4.8977911e+12
4.8961802e+12
4.8933875e+12
4.8916885e+12
4.8906792e+12
4.890679e+12
4.8916882e+12
4.8933869e+12
4.8961798e+12
4.8977907e+12
4.8928741e+12
4.8704838e+12
4.8125763e+12
4.6867753e+12
4.4553078e+12
4.132459e+12
4.3913205e+12
4.5429701e+12
4.6177329e+12
4.6489587e+12
4.6570805e+12
4.6557782e+12
4.6522685e+12
4.6499152e+12
4.6485142e+12
4.648514e+12
4.6499149e+12
4.652268e+12
4.6557778e+12
4.6570802e+12
4.6489585e+12
4.617733e+12
4.5429706e+12
4.3913224e+12
4.1324624e+12
3.7801317e+12
4.0712839e+12
4.2557088e+12
4.353075e+12
4.3968426e+12
4.4101123e+12
4.4096507e+12
4.4052981e+12
4.4020038e+12
4.4000207e+12
4.4000206e+12
4.4020035e+12
4.4052976e+12
4.4096504e+12
4.4101122e+12
4.3968425e+12
4.3530753e+12
4.2557098e+12
4.0712867e+12
3.7801368e+12
3.386846e+12
3.7159461e+12
3.9420363e+12
4.0697461e+12
4.1315584e+12
4.1529751e+12
4.1543191e+12
4.1490455e+12
4.144414e+12
4.1415683e+12
4.1415681e+12
4.1444137e+12
4.1490451e+12
4.154319e+12
4.1529751e+12
4.1315585e+12
4.0697468e+12
3.9420379e+12
3.7159503e+12
3.3868531e+12
2.9391032e+12
3.3109238e+12
3.589615e+12
3.7585949e+12
3.8467769e+12
3.8809495e+12
3.8858379e+12
3.8797086e+12
3.8732159e+12
3.8690961e+12
3.8690959e+12
3.8732156e+12
3.8797082e+12
3.8858379e+12
3.8809496e+12
3.8467773e+12
3.7585959e+12
3.5896174e+12
3.3109297e+12
2.9391129e+12
2.4073447e+12
2.8352394e+12
3.1819696e+12
3.4075794e+12
3.5339572e+12
3.5886009e+12
3.6003304e+12
3.5938238e+12
3.5848121e+12
3.5788122e+12
3.578812e+12
3.5848119e+12
3.5938236e+12
3.6003305e+12
3.5886012e+12
3.5339579e+12
3.4075809e+12
3.1819732e+12
2.8352476e+12
2.4073587e+12
1.7681517e+12
2.2562188e+12
2.6846001e+12
2.9885466e+12
3.1723382e+12
3.2606825e+12
3.2856771e+12
3.2803107e+12
3.2681168e+12
3.259367e+12
3.2593669e+12
3.2681168e+12
3.2803107e+12
3.2856776e+12
3.2606832e+12
3.1723394e+12
2.9885489e+12
2.6846051e+12
2.2562292e+12
1.7681689e+12
1.0910658e+12
1.657603e+12
2.1297288e+12
2.5022641e+12
2.7555112e+12
2.8921248e+12
2.9395346e+12
2.9378941e+12
2.9216168e+12
2.9087177e+12
2.9087175e+12
2.9216169e+12
2.9378943e+12
2.9395352e+12
2.8921256e+12
2.7555126e+12
2.502267e+12
2.1297345e+12
1.6576129e+12
1.0910824e+12
5.2007345e+11
1.139936e+12
1.6353458e+12
2.0424829e+12
2.3436154e+12
2.5227943e+12
2.5942816e+12
2.5980716e+12
2.5773246e+12
2.5592441e+12
2.559244e+12
2.5773248e+12
2.5980721e+12
2.5942823e+12
2.522795e+12
2.3436167e+12
2.0424862e+12
1.6353516e+12
1.1399448e+12
5.2008534e+11
1.8380881e+11
7.3955396e+11
1.2331502e+12
1.652725e+12
1.9763784e+12
2.1797731e+12
2.2671973e+12
2.274783e+12
2.2498753e+12
2.2268044e+12
2.2268044e+12
2.2498756e+12
2.2747836e+12
2.2671979e+12
2.1797735e+12
1.9763793e+12
1.6527276e+12
1.2331545e+12
7.3955934e+11
1.838153e+11
4.8597962e+10
4.5594194e+11
9.1923322e+11
1.3334115e+12
1.6606696e+12
1.8721664e+12
1.9662916e+12
1.9750782e+12
1.9469186e+12
1.9201762e+12
1.9201762e+12
1.9469189e+12
1.9750786e+12
1.9662919e+12
1.8721663e+12
1.6606695e+12
1.3334124e+12
9.192354e+11
4.559444e+11
4.8600423e+10
1.005023e+10
2.6700817e+11
6.7893654e+11
1.0731697e+12
1.3906417e+12
1.5983797e+12
1.6919338e+12
1.7003115e+12
1.6705794e+12
1.6421103e+12
1.6421103e+12
1.6705796e+12
1.7003118e+12
1.6919338e+12
1.5983792e+12
1.3906409e+12
1.0731694e+12
6.7893696e+11
2.6700907e+11
1.0050871e+10
1.7308114e+09
1.4847318e+11
4.9594114e+11
8.5933127e+11
1.1578551e+12
1.354038e+12
1.4423092e+12
1.4495362e+12
1.4200866e+12
1.391942e+12
1.391942e+12
1.4200867e+12
1.4495363e+12
1.442309e+12
1.3540372e+12
1.1578539e+12
8.5933033e+11
4.9594069e+11
1.4847367e+11
1.7309318e+09
2.6383529e+08
7.8764766e+10
3.5688369e+11
6.8179251e+11
9.5530112e+11
1.1352935e+12
1.2158037e+12
1.2219096e+12
1.1943953e+12
1.1682269e+12
1.1682268e+12
1.1943952e+12
1.2219094e+12
1.2158032e+12
1.1352927e+12
9.5529982e+11
6.8179135e+11
3.5688305e+11
7.8765032e+10
2.6385323e+08
37383621
4.0161409e+10
2.5191044e+11
5.3369682e+11
7.7838529e+11
9.3978945e+11
1.011618e+12
1.017048e+12
9.927037e+11
9.6961165e+11
9.6961153e+11
9.9270346e+11
1.0170477e+12
1.0116174e+12
9.3978858e+11
7.7838405e+11
5.3369571e+11
2.5190989e+11
4.0161544e+10
37385889
5094508.5
1.9820808e+10
1.7377102e+11
4.1053511e+11
6.2439521e+11
7.6636155e+11
8.2954266e+11
8.348402e+11
8.1438777e+11
7.9491378e+11
7.949136e+11
8.1438743e+11
8.3483977e+11
8.2954209e+11
7.6636073e+11
6.2439414e+11
4.1053417e+11
1.7377063e+11
1.9820871e+10
5094761.1
)
;

boundaryField
{
    Wall
    {
        type            zeroGradient;
    }
    frontAndBack
    {
        type            empty;
    }
    atmosphere
    {
        type            zeroGradient;
    }
}


// ************************************************************************* //
