/*--------------------------------*- C++ -*----------------------------------*\
| =========                 |                                                 |
| \\      /  F ield         | OpenFOAM: The Open Source CFD Toolbox           |
|  \\    /   O peration     | Version:  3.0.1                                 |
|   \\  /    A nd           | Web:      www.OpenFOAM.org                      |
|    \\/     M anipulation  |                                                 |
\*---------------------------------------------------------------------------*/
FoamFile
{
    version     2.0;
    format      ascii;
    class       volScalarField;
    location    "32";
    object      node1;
}
// * * * * * * * * * * * * * * * * * * * * * * * * * * * * * * * * * * * * * //

dimensions      [0 0 0 0 0 0 0];

internalField   nonuniform List<scalar> 
800
(
1.7978086e-12
1.7979695e-12
1.7979986e-12
1.7980015e-12
1.798001e-12
1.7980006e-12
1.7980006e-12
1.7980008e-12
1.7980009e-12
1.798001e-12
1.798001e-12
1.7980009e-12
1.7980007e-12
1.7980006e-12
1.7980006e-12
1.798001e-12
1.7980015e-12
1.7979986e-12
1.7979695e-12
1.7978087e-12
1.7833766e-12
1.7846956e-12
1.7850242e-12
1.7850998e-12
1.7851052e-12
1.7850954e-12
1.7850855e-12
1.7850788e-12
1.785075e-12
1.7850733e-12
1.7850733e-12
1.785075e-12
1.7850788e-12
1.7850855e-12
1.7850954e-12
1.7851052e-12
1.7850998e-12
1.7850242e-12
1.7846956e-12
1.7833765e-12
1.7761033e-12
1.7779759e-12
1.7785586e-12
1.7786901e-12
1.7787039e-12
1.7786915e-12
1.7786782e-12
1.7786693e-12
1.7786645e-12
1.7786624e-12
1.7786624e-12
1.7786645e-12
1.7786693e-12
1.7786782e-12
1.7786914e-12
1.7787038e-12
1.77869e-12
1.7785585e-12
1.7779758e-12
1.7761031e-12
1.776589e-12
1.7786138e-12
1.7793485e-12
1.7795013e-12
1.779513e-12
1.7794974e-12
1.7794829e-12
1.7794743e-12
1.7794701e-12
1.7794685e-12
1.7794685e-12
1.7794701e-12
1.7794743e-12
1.7794829e-12
1.7794974e-12
1.779513e-12
1.7795012e-12
1.7793484e-12
1.7786137e-12
1.7765889e-12
1.785423e-12
1.7871854e-12
1.7879616e-12
1.7881055e-12
1.7881015e-12
1.7880792e-12
1.7880635e-12
1.7880562e-12
1.7880537e-12
1.7880531e-12
1.7880531e-12
1.7880537e-12
1.7880562e-12
1.7880635e-12
1.7880792e-12
1.7881015e-12
1.7881055e-12
1.7879616e-12
1.7871853e-12
1.7854228e-12
1.8030792e-12
1.8041566e-12
1.804858e-12
1.8049643e-12
1.8049296e-12
1.8048958e-12
1.8048779e-12
1.8048722e-12
1.8048718e-12
1.8048726e-12
1.8048726e-12
1.8048719e-12
1.8048723e-12
1.804878e-12
1.8048958e-12
1.8049296e-12
1.8049643e-12
1.8048581e-12
1.8041566e-12
1.8030791e-12
1.8298511e-12
1.8298373e-12
1.8303379e-12
1.8303773e-12
1.8302972e-12
1.8302466e-12
1.8302253e-12
1.8302211e-12
1.830223e-12
1.8302254e-12
1.8302254e-12
1.8302231e-12
1.8302211e-12
1.8302253e-12
1.8302467e-12
1.8302973e-12
1.8303774e-12
1.830338e-12
1.8298374e-12
1.8298512e-12
1.8660664e-12
1.8644191e-12
1.8645419e-12
1.8644809e-12
1.8643383e-12
1.8642645e-12
1.8642376e-12
1.8642345e-12
1.8642389e-12
1.8642428e-12
1.8642428e-12
1.8642389e-12
1.8642345e-12
1.8642377e-12
1.8642646e-12
1.8643384e-12
1.864481e-12
1.8645421e-12
1.8644193e-12
1.8660666e-12
1.9134647e-12
1.9097234e-12
1.909262e-12
1.9090668e-12
1.9088517e-12
1.9087492e-12
1.9087143e-12
1.908711e-12
1.9087176e-12
1.908723e-12
1.908723e-12
1.9087176e-12
1.9087111e-12
1.9087144e-12
1.9087493e-12
1.9088519e-12
1.9090671e-12
1.9092623e-12
1.9097237e-12
1.9134649e-12
1.9722745e-12
1.9660349e-12
1.9647313e-12
1.964366e-12
1.9640845e-12
1.9639531e-12
1.9639059e-12
1.9639004e-12
1.9639082e-12
1.9639148e-12
1.9639148e-12
1.9639083e-12
1.9639005e-12
1.9639061e-12
1.9639533e-12
1.9640848e-12
1.9643663e-12
1.9647317e-12
1.9660352e-12
1.9722749e-12
2.0425444e-12
2.0336207e-12
2.0312024e-12
2.0306291e-12
2.030319e-12
2.0301765e-12
2.0301105e-12
2.0300987e-12
2.0301063e-12
2.0301132e-12
2.0301132e-12
2.0301064e-12
2.0300988e-12
2.0301107e-12
2.0301768e-12
2.0303193e-12
2.0306295e-12
2.0312028e-12
2.0336212e-12
2.0425449e-12
2.1235792e-12
2.1120138e-12
2.1082537e-12
2.1074285e-12
2.1071595e-12
2.1070462e-12
2.1069513e-12
2.106927e-12
2.1069327e-12
2.1069387e-12
2.1069387e-12
2.1069328e-12
2.1069272e-12
2.1069516e-12
2.1070466e-12
2.1071599e-12
2.107429e-12
2.1082542e-12
2.1120143e-12
2.1235797e-12
2.2143034e-12
2.2002688e-12
2.1950647e-12
2.1939266e-12
2.1937796e-12
2.1937428e-12
2.1936054e-12
2.193559e-12
2.1935672e-12
2.19357e-12
2.1935701e-12
2.1935674e-12
2.1935592e-12
2.1936057e-12
2.1937432e-12
2.19378e-12
2.1939271e-12
2.1950652e-12
2.2002694e-12
2.214304e-12
2.3136923e-12
2.2974599e-12
2.2908554e-12
2.2893265e-12
2.2894034e-12
2.289494e-12
2.2892964e-12
2.2892136e-12
2.2892351e-12
2.2892313e-12
2.2892314e-12
2.2892352e-12
2.2892138e-12
2.2892968e-12
2.2894944e-12
2.2894039e-12
2.289327e-12
2.290856e-12
2.2974605e-12
2.3136929e-12
2.4205203e-12
2.4024124e-12
2.3946403e-12
2.3926484e-12
2.3930135e-12
2.3932479e-12
2.3929597e-12
2.3928254e-12
2.3928671e-12
2.3928648e-12
2.3928648e-12
2.3928673e-12
2.3928256e-12
2.39296e-12
2.3932483e-12
2.393014e-12
2.3926489e-12
2.3946409e-12
2.4024131e-12
2.420521e-12
2.5325482e-12
2.5131244e-12
2.504487e-12
2.5020041e-12
2.5027348e-12
2.503106e-12
2.5026816e-12
2.5024886e-12
2.5025503e-12
2.5025888e-12
2.5025889e-12
2.5025504e-12
2.5024888e-12
2.5026819e-12
2.5031064e-12
2.5027353e-12
2.5020046e-12
2.5044876e-12
2.513125e-12
2.5325489e-12
2.6476481e-12
2.6276346e-12
2.6184596e-12
2.6155334e-12
2.6166812e-12
2.6171288e-12
2.6164811e-12
2.6162224e-12
2.6162972e-12
2.6164581e-12
2.6164582e-12
2.6162973e-12
2.6162226e-12
2.6164814e-12
2.6171292e-12
2.6166816e-12
2.6155339e-12
2.6184601e-12
2.6276352e-12
2.6476487e-12
2.7637917e-12
2.7440773e-12
2.7346709e-12
2.7314348e-12
2.7330643e-12
2.7334565e-12
2.7324634e-12
2.7321254e-12
2.7321777e-12
2.7325726e-12
2.7325726e-12
2.7321778e-12
2.7321256e-12
2.7324637e-12
2.7334569e-12
2.7330647e-12
2.7314352e-12
2.7346714e-12
2.7440778e-12
2.7637922e-12
2.8789943e-12
2.8606165e-12
2.8512454e-12
2.8478819e-12
2.850089e-12
2.8502462e-12
2.8487954e-12
2.8483597e-12
2.8483074e-12
2.8490486e-12
2.8490486e-12
2.8483075e-12
2.8483599e-12
2.8487957e-12
2.8502465e-12
2.8500893e-12
2.8478823e-12
2.8512459e-12
2.8606169e-12
2.8789946e-12
2.9912904e-12
2.9754414e-12
2.9663607e-12
2.9630536e-12
2.9658972e-12
2.9656726e-12
2.9637143e-12
2.9631643e-12
2.9629104e-12
2.9640803e-12
2.9640803e-12
2.9629105e-12
2.9631644e-12
2.9637145e-12
2.9656729e-12
2.9658975e-12
2.9630539e-12
2.966361e-12
2.9754417e-12
2.9912906e-12
3.0985833e-12
3.0866706e-12
3.0782112e-12
3.0750863e-12
3.0785546e-12
3.0779089e-12
3.0754801e-12
3.0748075e-12
3.0743264e-12
3.0759604e-12
3.0759604e-12
3.0743265e-12
3.0748076e-12
3.0754802e-12
3.0779091e-12
3.0785548e-12
3.0750865e-12
3.0782114e-12
3.0866707e-12
3.0985833e-12
3.1985231e-12
3.1921188e-12
3.1847948e-12
3.1819518e-12
3.1860608e-12
3.1849923e-12
3.182192e-12
3.1813991e-12
3.1808039e-12
3.182889e-12
3.1828891e-12
3.1808039e-12
3.1813992e-12
3.1821921e-12
3.1849924e-12
3.1860609e-12
3.1819519e-12
3.184795e-12
3.1921188e-12
3.198523e-12
3.2883202e-12
3.2890711e-12
3.2836701e-12
3.2811787e-12
3.2861118e-12
3.28462e-12
3.2814452e-12
3.2805454e-12
3.2800701e-12
3.2825566e-12
3.2825567e-12
3.2800702e-12
3.2805454e-12
3.2814452e-12
3.28462e-12
3.2861118e-12
3.2811788e-12
3.2836701e-12
3.2890711e-12
3.2883201e-12
3.363884e-12
3.3737571e-12
3.3713607e-12
3.3692293e-12
3.375273e-12
3.3733282e-12
3.369725e-12
3.36875e-12
3.3686707e-12
3.3714899e-12
3.3714899e-12
3.3686708e-12
3.36875e-12
3.369725e-12
3.3733282e-12
3.375273e-12
3.3692293e-12
3.3713607e-12
3.3737571e-12
3.3638839e-12
3.4187664e-12
3.4403434e-12
3.4420294e-12
3.4406029e-12
3.4476293e-12
3.4455061e-12
3.4415749e-12
3.4405815e-12
3.4411388e-12
3.4442239e-12
3.4442239e-12
3.4411388e-12
3.4405816e-12
3.4415749e-12
3.4455061e-12
3.4476293e-12
3.440603e-12
3.4420295e-12
3.4403435e-12
3.4187665e-12
3.4440246e-12
3.4805347e-12
3.4874094e-12
3.4872214e-12
3.494752e-12
3.4930348e-12
3.4890299e-12
3.4880798e-12
3.4894202e-12
3.492723e-12
3.492723e-12
3.4894202e-12
3.4880798e-12
3.4890299e-12
3.4930349e-12
3.4947521e-12
3.4872215e-12
3.4874095e-12
3.4805349e-12
3.4440251e-12
3.4290742e-12
3.4839999e-12
3.4977188e-12
3.4988557e-12
3.5068187e-12
3.5059417e-12
3.5020467e-12
3.5011593e-12
3.5032978e-12
3.5067898e-12
3.5067898e-12
3.5032979e-12
3.5011594e-12
3.5020468e-12
3.5059418e-12
3.5068188e-12
3.4988558e-12
3.4977191e-12
3.4840004e-12
3.4290752e-12
3.3620177e-12
3.4392806e-12
3.4621086e-12
3.4643283e-12
3.4732048e-12
3.4734976e-12
3.4696868e-12
3.4688256e-12
3.4716682e-12
3.47533e-12
3.47533e-12
3.4716683e-12
3.4688257e-12
3.469687e-12
3.4734977e-12
3.473205e-12
3.4643286e-12
3.462109e-12
3.4392814e-12
3.3620189e-12
3.2278489e-12
3.3327949e-12
3.3670094e-12
3.3709791e-12
3.38248e-12
3.3834502e-12
3.3794967e-12
3.3785866e-12
3.3819658e-12
3.3857687e-12
3.3857688e-12
3.3819659e-12
3.3785868e-12
3.3794969e-12
3.3834503e-12
3.3824803e-12
3.3709794e-12
3.36701e-12
3.3327959e-12
3.2278502e-12
0
3.1436642e-12
3.1943418e-12
3.2026975e-12
3.2132573e-12
3.2201868e-12
3.2157275e-12
3.2146918e-12
3.2183843e-12
3.222281e-12
3.2222811e-12
3.2183844e-12
3.214692e-12
3.2157277e-12
3.220187e-12
3.2132575e-12
3.2026978e-12
3.1943423e-12
3.1436652e-12
0
0
0
0
0
0
0
0
0
0
0
0
0
0
0
0
0
0
0
0
0
0
0
0
0
0
0
0
0
0
0
0
0
0
0
0
0
0
0
0
0
0
0
0
0
0
0
0
0
0
0
0
0
0
0
0
0
0
0
0
0
0
0
0
0
0
0
0
0
0
0
0
0
0
0
0
0
0
0
0
0
0
0
0
0
0
0
0
0
0
0
0
0
0
0
0
0
0
0
0
0
0
0
0
0
0
0
0
0
0
0
0
0
0
0
0
0
0
0
0
0
0
0
0
0
0
0
0
0
0
0
0
0
0
0
0
0
0
0
0
0
0
0
0
0
0
0
0
0
0
0
0
0
0
0
0
0
0
0
0
0
0
0
0
0
0
0
0
0
0
0
0
0
0
0
0
0
0
0
0
0
0
0
0
0
0
0
0
0
0
0
0
0
0
0
0
0
0
0
0
0
)
;

boundaryField
{
    Wall
    {
        type            zeroGradient;
    }
    frontAndBack
    {
        type            empty;
    }
    atmosphere
    {
        type            zeroGradient;
    }
}


// ************************************************************************* //
