/*--------------------------------*- C++ -*----------------------------------*\
| =========                 |                                                 |
| \\      /  F ield         | OpenFOAM: The Open Source CFD Toolbox           |
|  \\    /   O peration     | Version:  3.0.1                                 |
|   \\  /    A nd           | Web:      www.OpenFOAM.org                      |
|    \\/     M anipulation  |                                                 |
\*---------------------------------------------------------------------------*/
FoamFile
{
    version     2.0;
    format      ascii;
    class       volScalarField;
    location    "32";
    object      node0;
}
// * * * * * * * * * * * * * * * * * * * * * * * * * * * * * * * * * * * * * //

dimensions      [0 0 0 0 0 0 0];

internalField   nonuniform List<scalar> 
800
(
0
0
0
0
0
0
0
0
0
0
0
0
0
0
0
0
0
0
0
0
0
0
0
0
0
0
0
0
0
0
0
0
0
0
0
0
0
0
0
0
0
0
0
0
0
0
0
0
0
0
0
0
0
0
0
0
0
0
0
0
0
0
0
0
0
0
0
0
0
0
0
0
0
0
0
0
0
0
0
0
0
0
0
0
0
0
0
0
0
0
0
0
0
0
0
0
0
0
0
0
0
0
0
0
0
0
0
0
0
0
0
0
0
0
0
0
0
0
0
0
0
0
0
0
0
0
0
0
0
0
0
0
0
0
0
0
0
0
0
0
0
0
0
0
0
0
0
0
0
0
0
0
0
0
0
0
0
0
0
0
0
0
0
0
0
0
0
0
0
0
0
0
0
0
0
0
0
0
0
0
0
0
0
0
0
0
0
0
0
0
0
0
0
0
0
0
0
0
0
0
0
0
0
0
0
0
0
0
0
0
0
0
0
0
0
0
0
0
0
0
0
0
0
0
0
0
0
0
0
0
0
0
0
0
0
0
0
0
0
0
1.9065937e-13
2.1014417e-13
1.8729458e-13
1.8731437e-13
2.0344043e-13
2.1138604e-13
2.1101761e-13
2.1075342e-13
2.1084156e-13
2.1079136e-13
2.1079127e-13
2.1084132e-13
2.1075306e-13
2.1101706e-13
2.1138537e-13
2.0343961e-13
1.8731339e-13
1.8729355e-13
2.1014307e-13
1.9065801e-13
2.9586264e-13
3.3580914e-13
3.2157739e-13
3.2053432e-13
3.3776814e-13
3.4828762e-13
3.443394e-13
3.4400035e-13
3.4436057e-13
3.4428456e-13
3.4428445e-13
3.4436027e-13
3.4399988e-13
3.4433869e-13
3.4828676e-13
3.3776712e-13
3.2053313e-13
3.2157617e-13
3.3580785e-13
2.9586114e-13
3.351124e-13
3.9238804e-13
3.8646822e-13
3.8478975e-13
4.055328e-13
4.1398323e-13
4.1023572e-13
4.0961055e-13
4.1022087e-13
4.10243e-13
4.1024289e-13
4.1022054e-13
4.0961003e-13
4.1023496e-13
4.139823e-13
4.0553174e-13
3.847885e-13
3.8646697e-13
3.9238673e-13
3.3511085e-13
4.3968389e-13
4.8918821e-13
4.8760908e-13
4.8551729e-13
5.0389604e-13
5.0972669e-13
5.0701262e-13
5.0597192e-13
5.0667518e-13
5.0702247e-13
5.0702236e-13
5.0667486e-13
5.0597143e-13
5.0701191e-13
5.0972582e-13
5.0389505e-13
4.8551615e-13
4.8760794e-13
4.8918701e-13
4.3968246e-13
5.9728965e-13
6.3335895e-13
6.3390599e-13
6.3197228e-13
6.4574499e-13
6.4944058e-13
6.4702779e-13
6.4544066e-13
6.4606457e-13
6.4698006e-13
6.4697996e-13
6.4606429e-13
6.4544021e-13
6.4702714e-13
6.4943981e-13
6.4574414e-13
6.3197129e-13
6.3390499e-13
6.3335789e-13
5.9728834e-13
7.8022046e-13
8.0579858e-13
8.0728457e-13
8.0624219e-13
8.1628194e-13
8.181343e-13
8.1532261e-13
8.130431e-13
8.1331185e-13
8.1492331e-13
8.1492322e-13
8.133116e-13
8.130427e-13
8.1532205e-13
8.1813363e-13
8.162812e-13
8.0624134e-13
8.0728371e-13
8.0579764e-13
7.8021923e-13
9.74361e-13
9.9280888e-13
9.9456013e-13
9.9497633e-13
1.0028437e-12
1.0030129e-12
9.9951045e-13
9.9646211e-13
9.9602184e-13
9.982694e-13
9.9826933e-13
9.9602163e-13
9.9646177e-13
9.9950997e-13
1.0030123e-12
1.0028431e-12
9.9497562e-13
9.945594e-13
9.9280805e-13
9.7435986e-13
1.1748294e-12
1.1880516e-12
1.1898089e-12
1.1919708e-12
1.1986631e-12
1.1974666e-12
1.1933555e-12
1.1895988e-12
1.1882121e-12
1.1908807e-12
1.1908807e-12
1.188212e-12
1.1895985e-12
1.1933551e-12
1.1974661e-12
1.1986626e-12
1.1919703e-12
1.1898083e-12
1.1880509e-12
1.1748284e-12
1.3787277e-12
1.3878751e-12
1.3898241e-12
1.3936402e-12
1.3995643e-12
1.3975244e-12
1.3930877e-12
1.3888353e-12
1.3865962e-12
1.3894226e-12
1.3894225e-12
1.3865961e-12
1.3888351e-12
1.3930874e-12
1.3975241e-12
1.3995639e-12
1.3936398e-12
1.3898236e-12
1.3878745e-12
1.3787269e-12
1.5800643e-12
1.586445e-12
1.5890464e-12
1.5940375e-12
1.5994687e-12
1.5969439e-12
1.5924767e-12
1.5880761e-12
1.5854245e-12
1.5882168e-12
1.5882167e-12
1.5854244e-12
1.5880759e-12
1.5924765e-12
1.5969437e-12
1.5994684e-12
1.5940372e-12
1.5890461e-12
1.5864445e-12
1.5800637e-12
1.765579e-12
1.7717753e-12
1.7753739e-12
1.7802891e-12
1.7854383e-12
1.7825555e-12
1.7781307e-12
1.7740315e-12
1.7716304e-12
1.7743377e-12
1.7743377e-12
1.7716304e-12
1.7740314e-12
1.7781306e-12
1.7825554e-12
1.7854382e-12
1.7802889e-12
1.7753737e-12
1.771775e-12
1.7655786e-12
1.9120584e-12
1.9231182e-12
1.9275542e-12
1.930202e-12
1.9345392e-12
1.9312809e-12
1.9270645e-12
1.9237379e-12
1.9223538e-12
1.9250406e-12
1.9250406e-12
1.9223538e-12
1.9237379e-12
1.9270645e-12
1.9312809e-12
1.9345392e-12
1.930202e-12
1.9275542e-12
1.9231182e-12
1.9120584e-12
1.9910344e-12
2.0134361e-12
2.0181029e-12
2.0163997e-12
2.0179549e-12
2.0146444e-12
2.0109193e-12
2.0086821e-12
2.0089318e-12
2.0116864e-12
2.0116864e-12
2.0089318e-12
2.0086822e-12
2.0109194e-12
2.0146446e-12
2.0179551e-12
2.0163999e-12
2.0181031e-12
2.0134363e-12
1.9910348e-12
1.9813182e-12
2.0196491e-12
2.0246798e-12
2.0164319e-12
2.0133241e-12
2.0097809e-12
2.0063846e-12
2.0052239e-12
2.0072091e-12
2.010089e-12
2.0100891e-12
2.0072093e-12
2.0052241e-12
2.0063849e-12
2.0097812e-12
2.0133245e-12
2.0164323e-12
2.0246802e-12
2.0196497e-12
1.9813192e-12
1.8774138e-12
1.9315377e-12
1.9381125e-12
1.9219198e-12
1.9123211e-12
1.9085606e-12
1.904573e-12
1.9041254e-12
1.9074039e-12
1.9104543e-12
1.9104544e-12
1.9074041e-12
1.9041258e-12
1.9045734e-12
1.9085611e-12
1.9123216e-12
1.9219203e-12
1.9381131e-12
1.9315388e-12
1.8774153e-12
1.6877148e-12
1.7560224e-12
1.7640306e-12
1.7369475e-12
1.7218435e-12
1.715167e-12
1.7092351e-12
1.7089227e-12
1.712889e-12
1.7161592e-12
1.7161593e-12
1.7128893e-12
1.7089231e-12
1.7092355e-12
1.7151675e-12
1.7218441e-12
1.7369482e-12
1.7640314e-12
1.7560236e-12
1.6877164e-12
1.4314579e-12
1.5074005e-12
1.5136175e-12
1.4788906e-12
1.4605535e-12
1.4465523e-12
1.437505e-12
1.4366762e-12
1.4408477e-12
1.444348e-12
1.4443482e-12
1.440848e-12
1.4366767e-12
1.4375055e-12
1.4465529e-12
1.4605541e-12
1.4788912e-12
1.5136182e-12
1.5074017e-12
1.4314592e-12
0
1.2149223e-12
1.2148243e-12
1.1751203e-12
1.1418498e-12
1.1297997e-12
1.1169905e-12
1.115041e-12
1.1190161e-12
1.1226618e-12
1.122662e-12
1.1190164e-12
1.1150415e-12
1.1169909e-12
1.1298002e-12
1.1418503e-12
1.1751209e-12
1.214825e-12
1.2149233e-12
0
0
0
0
0
0
0
0
0
0
0
0
0
0
0
0
0
0
0
0
0
0
0
0
0
0
0
0
0
0
0
0
0
0
0
0
0
0
0
0
0
0
0
0
0
0
0
0
0
0
0
0
0
0
0
0
0
0
0
0
0
0
0
0
0
0
0
0
0
0
0
0
0
0
0
0
0
0
0
0
0
0
0
0
0
0
0
0
0
0
0
0
0
0
0
0
0
0
0
0
0
0
0
0
0
0
0
0
0
0
0
0
0
0
0
0
0
0
0
0
0
0
0
0
0
0
0
0
0
0
0
0
0
0
0
0
0
0
0
0
0
0
0
0
0
0
0
0
0
0
0
0
0
0
0
0
0
0
0
0
0
0
0
0
0
0
0
0
0
0
0
0
0
0
0
0
0
0
0
0
0
0
0
0
0
0
0
0
0
0
0
0
0
0
0
0
0
0
0
0
0
)
;

boundaryField
{
    Wall
    {
        type            zeroGradient;
    }
    frontAndBack
    {
        type            empty;
    }
    atmosphere
    {
        type            zeroGradient;
    }
}


// ************************************************************************* //
