/*--------------------------------*- C++ -*----------------------------------*\
| =========                 |                                                 |
| \\      /  F ield         | OpenFOAM: The Open Source CFD Toolbox           |
|  \\    /   O peration     | Version:  3.0.1                                 |
|   \\  /    A nd           | Web:      www.OpenFOAM.org                      |
|    \\/     M anipulation  |                                                 |
\*---------------------------------------------------------------------------*/
FoamFile
{
    version     2.0;
    format      ascii;
    class       surfaceScalarField;
    location    "32";
    object      phi;
}
// * * * * * * * * * * * * * * * * * * * * * * * * * * * * * * * * * * * * * //

dimensions      [0 3 -1 0 0 0 0];

internalField   nonuniform List<scalar> 
1540
(
5.0444192e-10
1.2598471e-08
6.7318539e-10
1.293627e-08
7.0389444e-10
1.3074866e-08
6.5698565e-10
1.3152495e-08
5.6987661e-10
1.3192585e-08
4.6363547e-10
1.321163e-08
3.4959488e-10
1.3219348e-08
2.3314678e-10
1.3221713e-08
1.1640004e-10
1.3221991e-08
-1.3652028e-13
1.3221773e-08
-1.1666976e-10
1.3221771e-08
-2.3340943e-10
1.3221984e-08
-3.4984524e-10
1.32217e-08
-4.6386887e-10
1.321933e-08
-5.7008953e-10
1.3211608e-08
-6.5717251e-10
1.3192558e-08
-7.0405045e-10
1.3152462e-08
-6.7330123e-10
1.3074825e-08
-5.0450515e-10
1.2936217e-08
1.2598407e-08
3.0853597e-10
2.5767681e-08
5.47443e-10
2.6161023e-08
6.2548656e-10
2.645851e-08
6.1074629e-10
2.6628498e-08
5.4406022e-10
2.6720469e-08
4.5029534e-10
2.6766581e-08
3.4338287e-10
2.6787448e-08
2.3065612e-10
2.679562e-08
1.1564928e-10
2.6798168e-08
-1.2451528e-13
2.679871e-08
-1.158957e-10
2.6798705e-08
-2.3089586e-10
2.6798153e-08
-3.4361121e-10
2.6795595e-08
-4.5050783e-10
2.6787413e-08
-5.4425266e-10
2.6766537e-08
-6.1091354e-10
2.6720417e-08
-6.2562323e-10
2.6628434e-08
-5.4754144e-10
2.6458431e-08
-3.0859055e-10
2.6160926e-08
2.5767566e-08
3.8028558e-10
3.9198526e-08
5.505701e-10
3.9778404e-08
6.0839102e-10
4.0183332e-08
5.9082492e-10
4.0427748e-08
5.2754726e-10
4.0565309e-08
4.3844579e-10
4.0637253e-08
3.3567146e-10
4.0671782e-08
2.2615006e-10
4.0686669e-08
1.1358305e-10
4.0692228e-08
-1.0580478e-13
4.069387e-08
-1.1379256e-10
4.0693864e-08
-2.2635386e-10
4.0692207e-08
-3.3586563e-10
4.0686634e-08
-4.3862579e-10
4.0671734e-08
-5.2770925e-10
4.0637191e-08
-5.9096352e-10
4.0565234e-08
-6.0850219e-10
4.0427656e-08
-5.5064798e-10
4.018322e-08
-3.8032655e-10
3.9778271e-08
3.9198372e-08
3.9877387e-10
5.2894345e-08
5.5953872e-10
5.3681445e-08
6.0560261e-10
5.419372e-08
5.8225717e-10
5.4506466e-08
5.1773232e-10
5.4685118e-08
4.2976763e-10
5.4780551e-08
3.2907677e-10
5.4827806e-08
2.2184188e-10
5.4849193e-08
1.1148682e-10
5.4857822e-08
-8.541074e-14
5.4860651e-08
-1.1165675e-10
5.4860642e-08
-2.2200674e-10
5.4857796e-08
-3.2923304e-10
5.484915e-08
-4.2991244e-10
5.4827747e-08
-5.1786115e-10
5.4780475e-08
-5.823664e-10
5.4685024e-08
-6.0568808e-10
5.4506352e-08
-5.595976e-10
5.4193583e-08
-3.9880304e-10
5.3681284e-08
5.2894164e-08
3.9045429e-10
6.6831567e-08
5.5865263e-10
6.7805108e-08
6.0246729e-10
6.8432718e-08
5.7654968e-10
6.8814162e-08
5.1093212e-10
6.9032565e-08
4.232931e-10
6.9150151e-08
3.2382012e-10
6.9209262e-08
2.1823385e-10
6.9236713e-08
1.0967886e-10
6.9248246e-08
-6.6816159e-14
6.9252225e-08
-1.098112e-10
6.9252215e-08
-2.183621e-10
6.9248216e-08
-3.239416e-10
6.9236664e-08
-4.2340473e-10
6.9209193e-08
-5.1103066e-10
6.9150062e-08
-5.7663183e-10
6.9032455e-08
-6.0252975e-10
6.881403e-08
-5.5869435e-10
6.8432562e-08
-3.9047407e-10
6.7804927e-08
6.6831368e-08
3.9215972e-10
8.0952531e-08
5.6070207e-10
8.2111012e-08
6.0211155e-10
8.2855242e-08
5.7378493e-10
8.3305373e-08
5.0684014e-10
8.3562647e-08
4.1898575e-10
8.3701388e-08
3.2009682e-10
8.377159e-08
2.1556908e-10
8.3804631e-08
1.0830907e-10
8.381882e-08
-5.0415628e-14
8.382385e-08
-1.0840902e-10
8.3823838e-08
-2.1566554e-10
8.3818787e-08
-3.2018761e-10
8.3804576e-08
-4.1906859e-10
8.3771513e-08
-5.0691197e-10
8.370129e-08
-5.7384319e-10
8.3562526e-08
-6.0215482e-10
8.3305227e-08
-5.6072965e-10
8.2855071e-08
-3.9217171e-10
8.2110818e-08
8.0952321e-08
3.9807407e-10
9.5212002e-08
5.6605022e-10
9.6560384e-08
6.0491434e-10
9.7421793e-08
5.7400778e-10
9.7940446e-08
5.0544751e-10
9.8235878e-08
4.1691471e-10
9.8394966e-08
3.1804935e-10
9.8475596e-08
2.1400069e-10
9.8513773e-08
1.0747633e-10
9.8530351e-08
-3.6302301e-14
9.853631e-08
-1.0754756e-10
9.8536298e-08
-2.1406922e-10
9.8530315e-08
-3.1811303e-10
9.8513714e-08
-4.1697215e-10
9.8475514e-08
-5.0549638e-10
9.839486e-08
-5.7404581e-10
9.8235749e-08
-6.0494151e-10
9.794029e-08
-5.6606554e-10
9.7421613e-08
-3.980796e-10
9.6560181e-08
9.5211784e-08
4.0388009e-10
1.0958246e-07
5.7296175e-10
1.1112415e-07
6.1009907e-10
1.1210407e-07
5.7677932e-10
1.1269151e-07
5.0650445e-10
1.1302474e-07
4.1696969e-10
1.132036e-07
3.1765848e-10
1.1329414e-07
2.1355285e-10
1.1333706e-07
1.0720463e-10
1.1335579e-07
-2.2946109e-14
1.1336256e-07
-1.0725013e-10
1.1336255e-07
-2.1359581e-10
1.1335575e-07
-3.1769823e-10
1.13337e-07
-4.170045e-10
1.1329405e-07
-5.0653213e-10
1.1320349e-07
-5.7679968e-10
1.1302461e-07
-6.1011167e-10
1.1269134e-07
-5.7296746e-10
1.1210389e-07
-4.0388051e-10
1.1112394e-07
1.0958224e-07
4.1067483e-10
1.2404343e-07
5.816971e-10
1.2578122e-07
6.1764885e-10
1.2688127e-07
5.8197088e-10
1.2753798e-07
5.0983183e-10
1.2790893e-07
4.1902265e-10
1.2810719e-07
3.1884503e-10
1.2820726e-07
2.1418444e-10
1.2825461e-07
1.0747946e-10
1.2827527e-07
-1.0954081e-14
1.2828276e-07
-1.0750015e-10
1.2828274e-07
-2.1420354e-10
1.2827523e-07
-3.1886243e-10
1.2825455e-07
-4.1903589e-10
1.2820717e-07
-5.098409e-10
1.2810707e-07
-5.8197562e-10
1.2790879e-07
-6.176494e-10
1.2753781e-07
-5.8169492e-10
1.2688108e-07
-4.1067116e-10
1.2578101e-07
1.2404321e-07
4.1994712e-10
1.3858789e-07
5.9298405e-10
1.4052518e-07
6.2785992e-10
1.4174711e-07
5.8967981e-10
1.4247361e-07
5.1537571e-10
1.4288221e-07
4.2296819e-10
1.4309961e-07
3.2150898e-10
1.4320889e-07
2.1582074e-10
1.4326041e-07
1.0826179e-10
1.4328282e-07
1.3475575e-15
1.4329093e-07
-1.0825879e-10
1.4329091e-07
-2.1581707e-10
1.4328278e-07
-3.2150405e-10
1.4326035e-07
-4.2296159e-10
1.4320879e-07
-5.1536763e-10
1.4309949e-07
-5.8967109e-10
1.4288207e-07
-6.2785039e-10
1.4247344e-07
-5.9297604e-10
1.4174692e-07
-4.1994192e-10
1.4052497e-07
1.3858768e-07
4.3318135e-10
1.5322344e-07
6.0754487e-10
1.5536418e-07
6.4093593e-10
1.5670994e-07
5.9985201e-10
1.5750647e-07
5.2300046e-10
1.5795212e-07
4.2864329e-10
1.5818818e-07
3.2549191e-10
1.5830638e-07
2.1833488e-10
1.5836183e-07
1.0948276e-10
1.583858e-07
1.3361683e-14
1.5839443e-07
-1.0945656e-10
1.5839442e-07
-2.1830819e-10
1.5838576e-07
-3.2546569e-10
1.5836176e-07
-4.2861838e-10
1.5830629e-07
-5.2297643e-10
1.5818807e-07
-5.9983018e-10
1.5795198e-07
-6.4091804e-10
1.575063e-07
-6.075333e-10
1.5670975e-07
-4.3317716e-10
1.5536398e-07
1.5322322e-07
4.5083557e-10
1.6801926e-07
6.2581654e-10
1.7037026e-07
6.5676985e-10
1.718383e-07
6.1211848e-10
1.7270447e-07
5.3245709e-10
1.7318899e-07
4.3589673e-10
1.7344451e-07
3.3057915e-10
1.7357145e-07
2.215301e-10
1.7363042e-07
1.110413e-10
1.7365576e-07
2.5334099e-14
1.7366479e-07
-1.1099114e-10
1.7366478e-07
-2.2148054e-10
1.7365572e-07
-3.3053218e-10
1.7363036e-07
-4.3585214e-10
1.7357136e-07
-5.3241657e-10
1.734444e-07
-6.1208371e-10
1.7318885e-07
-6.5674393e-10
1.7270431e-07
-6.2580036e-10
1.7183812e-07
-4.508298e-10
1.7037006e-07
1.6801904e-07
4.7392458e-10
1.8312683e-07
6.459603e-10
1.8568169e-07
6.7501507e-10
1.8727564e-07
6.2845321e-10
1.8820925e-07
5.4474209e-10
1.887265e-07
4.4455348e-10
1.889979e-07
3.3637021e-10
1.8913069e-07
2.2513011e-10
1.8919221e-07
1.1275768e-10
1.8921859e-07
3.6877941e-14
1.8922775e-07
-1.1268414e-10
1.8922774e-07
-2.2505842e-10
1.8921855e-07
-3.3630127e-10
1.8919214e-07
-4.4448907e-10
1.891306e-07
-5.4468432e-10
1.8899779e-07
-6.2840457e-10
1.8872637e-07
-6.7497811e-10
1.882091e-07
-6.4593771e-10
1.8727547e-07
-4.7391725e-10
1.856815e-07
1.8312662e-07
5.0437973e-10
1.9854609e-07
6.7129366e-10
2.0131313e-07
6.9416558e-10
2.0302737e-07
6.4329752e-10
2.0402487e-07
5.5667187e-10
2.0457543e-07
4.5176247e-10
2.0486068e-07
3.4174031e-10
2.0499996e-07
2.2857114e-10
2.0506362e-07
1.142509e-10
2.0509071e-07
4.8545864e-14
2.0509971e-07
-1.1415517e-10
2.0509969e-07
-2.2847789e-10
2.0509068e-07
-3.4165097e-10
2.0506357e-07
-4.5168032e-10
2.0499987e-07
-5.5659833e-10
2.0486058e-07
-6.4323535e-10
2.0457531e-07
-6.9411691e-10
2.0402474e-07
-6.712625e-10
2.0302721e-07
-5.0436599e-10
2.0131296e-07
1.9854589e-07
5.3753733e-10
2.1446709e-07
6.9694055e-10
2.1743042e-07
7.1142967e-10
2.1926009e-07
6.5796443e-10
2.2031564e-07
5.6605914e-10
2.2089097e-07
4.5838918e-10
2.2118653e-07
3.4598492e-10
2.2132965e-07
2.3132054e-10
2.213938e-07
1.1513188e-10
2.2142094e-07
5.9737061e-14
2.2142951e-07
-1.1501373e-10
2.2142949e-07
-2.3120648e-10
2.2142091e-07
-3.4587581e-10
2.2139375e-07
-4.5828852e-10
2.2132957e-07
-5.6596908e-10
2.2118644e-07
-6.5788846e-10
2.2089086e-07
-7.1136999e-10
2.2031551e-07
-6.9689972e-10
2.1925996e-07
-5.375178e-10
2.1743028e-07
2.1446692e-07
5.6533304e-10
2.3090914e-07
7.1790436e-10
2.3408076e-07
7.2212231e-10
2.3602384e-07
6.6478407e-10
2.3713304e-07
5.7047172e-10
2.3772914e-07
4.615059e-10
2.3803149e-07
3.473286e-10
2.3817481e-07
2.3242992e-10
2.382373e-07
1.1498674e-10
2.3826364e-07
7.1261647e-14
2.3827153e-07
-1.1484523e-10
2.3827153e-07
-2.3229365e-10
2.3826361e-07
-3.4719932e-10
2.3823726e-07
-4.613871e-10
2.3817475e-07
-5.7036601e-10
2.3803141e-07
-6.6469286e-10
2.3772905e-07
-7.2204852e-10
2.3713294e-07
-7.1785127e-10
2.3602373e-07
-5.6530477e-10
2.3408065e-07
2.3090901e-07
5.899395e-10
2.479475e-07
7.3317755e-10
2.5133371e-07
7.2372867e-10
2.5338553e-07
6.6131324e-10
2.545425e-07
5.6654977e-10
2.5515469e-07
4.5728817e-10
2.5545871e-07
3.432771e-10
2.5559826e-07
2.3066236e-10
2.5565652e-07
1.134325e-10
2.5568063e-07
8.1752455e-14
2.5568741e-07
-1.132705e-10
2.556874e-07
-2.3050508e-10
2.5568061e-07
-3.4312726e-10
2.5565649e-07
-4.5714865e-10
2.5559821e-07
-5.6642464e-10
2.5545865e-07
-6.6120609e-10
2.5515462e-07
-7.2364094e-10
2.5454242e-07
-7.3311175e-10
2.5338544e-07
-5.8990043e-10
2.5133362e-07
2.479474e-07
6.1263855e-10
2.6570634e-07
7.4118676e-10
2.693046e-07
7.1423747e-10
2.7145623e-07
6.4580523e-10
2.7265156e-07
5.5052272e-10
2.7327203e-07
4.4206352e-10
2.7357085e-07
3.3113727e-10
2.7370194e-07
2.2432139e-10
2.7375285e-07
1.0991077e-10
2.7377236e-07
9.2135047e-14
2.7377711e-07
-1.0972802e-10
2.7377711e-07
-2.2414438e-10
2.7377234e-07
-3.3096868e-10
2.7375282e-07
-4.4190771e-10
2.737019e-07
-5.5038213e-10
2.735708e-07
-6.4568408e-10
2.7327198e-07
-7.1413886e-10
2.7265151e-07
-7.4111438e-10
2.7145617e-07
-6.1259706e-10
2.6930455e-07
2.6570629e-07
6.2965594e-10
2.8432451e-07
7.3678017e-10
2.8812958e-07
6.8887986e-10
2.9036793e-07
6.1370443e-10
2.9158897e-07
5.1709943e-10
2.9220702e-07
4.116994e-10
2.9249279e-07
3.0774933e-10
2.9261041e-07
2.1088431e-10
2.9265043e-07
1.0342188e-10
2.9266234e-07
1.0261661e-13
2.9266386e-07
-1.0321932e-10
2.9266385e-07
-2.1068762e-10
2.9266233e-07
-3.0756233e-10
2.9265042e-07
-4.1152655e-10
2.9261039e-07
-5.169451e-10
2.9249276e-07
-6.1357291e-10
2.92207e-07
-6.8877611e-10
2.9158894e-07
-7.3670793e-10
2.9036791e-07
-6.2961883e-10
2.8812956e-07
2.843245e-07
6.3508825e-10
3.0394422e-07
7.124997e-10
3.0795172e-07
6.4072496e-10
3.1026143e-07
5.5820295e-10
3.1149216e-07
4.6073913e-10
3.1209447e-07
3.621316e-10
3.1235926e-07
2.6985251e-10
3.1245845e-07
1.8740781e-10
3.1248412e-07
9.2624585e-11
3.1248592e-07
1.1206067e-13
3.1248307e-07
-9.2402351e-11
3.1248307e-07
-1.8719262e-10
3.1248592e-07
-2.6964733e-10
3.1248411e-07
-3.6194005e-10
3.1245844e-07
-4.6056802e-10
3.1235926e-07
-5.5805857e-10
3.1209448e-07
-6.4061339e-10
3.1149218e-07
-7.1242558e-10
3.1026145e-07
-6.3505376e-10
3.0795174e-07
3.0394425e-07
6.2389216e-10
3.2470768e-07
6.6020702e-10
3.2891443e-07
5.6072961e-10
3.3127909e-07
4.7107266e-10
3.325031e-07
3.7667443e-10
3.3307508e-07
2.9002127e-10
3.3330894e-07
2.1468038e-10
3.3338453e-07
1.5173884e-10
3.3339232e-07
7.6387627e-11
3.3338271e-07
1.2105143e-13
3.3337482e-07
-7.6147167e-11
3.3337482e-07
-1.5150637e-10
3.3338272e-07
-2.1445689e-10
3.3339232e-07
-2.89809e-10
3.3338454e-07
-3.764867e-10
3.3330896e-07
-4.7091297e-10
3.3307511e-07
-5.6060649e-10
3.3250315e-07
-6.6012609e-10
3.3127915e-07
-6.2385579e-10
3.2891451e-07
3.2470774e-07
5.8911709e-10
3.4674939e-07
5.7015055e-10
3.5115428e-07
4.3907115e-10
3.5356029e-07
3.4332747e-10
3.547616e-07
2.5932311e-10
3.5528997e-07
1.9286708e-10
3.5548063e-07
1.4051639e-10
3.5552408e-07
1.0340078e-10
3.5550993e-07
5.4159848e-11
3.5548834e-07
1.3072676e-13
3.5547513e-07
-5.3901502e-11
3.5547514e-07
-1.031545e-10
3.5548836e-07
-1.4028145e-10
3.5550995e-07
-1.9262863e-10
3.5552408e-07
-2.5911811e-10
3.5548069e-07
-3.431479e-10
3.5529003e-07
-4.3893236e-10
3.5476169e-07
-5.700597e-10
3.535604e-07
-5.8907522e-10
3.511544e-07
3.467495e-07
5.2062846e-10
3.7015906e-07
4.3069614e-10
3.7478e-07
2.6428645e-10
3.7722619e-07
1.6606944e-10
3.7839084e-07
1.0116245e-10
3.788641e-07
6.4830199e-11
3.7899734e-07
4.55619e-11
3.7899807e-07
4.2000414e-11
3.7895992e-07
2.5680656e-11
3.7892494e-07
1.4071698e-13
3.7890687e-07
-2.5398461e-11
3.7890687e-07
-4.1708613e-11
3.7892495e-07
-4.5284799e-11
3.7895995e-07
-6.4616e-11
3.7899814e-07
-1.0094264e-10
3.789974e-07
-1.6588193e-10
3.7886419e-07
-2.6413267e-10
3.7839097e-07
-4.305854e-10
3.7722634e-07
-5.2057502e-10
3.7478018e-07
3.7015924e-07
4.112901e-10
3.9493299e-07
2.3312959e-10
3.9982662e-07
2.1737445e-11
4.0233759e-07
-6.5805815e-11
4.0346946e-07
-1.0748604e-10
4.0387709e-07
-9.915334e-11
4.0394588e-07
-7.3196449e-11
4.0390085e-07
-3.0287875e-11
4.0383562e-07
-7.9179415e-12
4.0378938e-07
1.4356758e-13
4.0376783e-07
8.2068862e-12
4.0376783e-07
3.0569713e-11
4.037894e-07
7.3474045e-11
4.0383566e-07
9.9433276e-11
4.0390092e-07
1.0773523e-10
4.0394596e-07
6.6033988e-11
4.0387721e-07
-2.1544805e-11
4.0346963e-07
-2.3299579e-10
4.023378e-07
-4.1122253e-10
3.9982688e-07
3.9493324e-07
2.5703106e-10
4.2090334e-07
-3.7425488e-11
4.2620548e-07
-2.9772955e-10
4.28849e-07
-3.6330455e-10
4.2997029e-07
-3.6840144e-10
4.3031526e-07
-2.9745522e-10
4.3032273e-07
-2.1113934e-10
4.302365e-07
-1.1293734e-10
4.3014729e-07
-4.674957e-11
4.3009219e-07
1.5589159e-13
4.3006863e-07
4.7054773e-11
4.3006864e-07
1.1323411e-10
4.3009222e-07
2.1142754e-10
4.3014734e-07
2.9775019e-10
4.3023656e-07
3.686905e-10
4.3032283e-07
3.6356721e-10
4.3031541e-07
2.9794188e-10
4.2997051e-07
3.7590738e-11
4.2884927e-07
-2.5693612e-10
4.2620582e-07
4.2090371e-07
5.3869591e-11
4.4758305e-07
-3.8540293e-10
4.5354398e-07
-6.9136992e-10
4.5647284e-07
-7.2925327e-10
4.5764625e-07
-6.7326316e-10
4.5795379e-07
-5.2242936e-10
4.579277e-07
-3.6338497e-10
4.5781083e-07
-2.0080942e-10
4.5770378e-07
-8.7159301e-11
4.5764493e-07
1.6223924e-13
4.5762252e-07
8.7484663e-11
4.5762253e-07
2.0113699e-10
4.5764496e-07
3.6370575e-10
4.5770384e-07
5.227358e-10
4.5781091e-07
6.7355818e-10
4.5792781e-07
7.2954025e-10
4.5795395e-07
6.9163463e-10
4.576465e-07
3.8560601e-10
4.5647317e-07
-5.3773201e-11
4.5354443e-07
4.4758353e-07
-1.5227175e-10
4.7397981e-07
-7.9022176e-10
4.8110846e-07
-1.1503864e-09
4.8457253e-07
-1.1478664e-09
4.8586102e-07
-9.9169303e-10
4.8623895e-07
-7.4622962e-10
4.8621707e-07
-5.0949254e-10
4.8608904e-07
-2.8411242e-10
4.859757e-07
-1.2554863e-10
4.8591687e-07
1.6794602e-13
4.8589699e-07
1.2588461e-10
4.85897e-07
2.8444623e-10
4.859169e-07
5.0982889e-10
4.8597576e-07
7.4656948e-10
4.8608913e-07
9.9203932e-10
4.8621718e-07
1.148191e-09
4.8623913e-07
1.1506811e-09
4.858613e-07
7.9047533e-10
4.845729e-07
1.5245325e-10
4.8110899e-07
4.739805e-07
-4.062764e-10
5.0042565e-07
-1.21315e-09
5.0769196e-07
-1.6461686e-09
5.1192804e-07
-1.524658e-09
5.1363357e-07
-1.2748432e-09
5.1441463e-07
-9.3189185e-10
5.143672e-07
-6.2922288e-10
5.1426123e-07
-3.536285e-10
5.141487e-07
-1.5808248e-10
5.1408498e-07
1.7484133e-13
5.1406377e-07
1.5843329e-10
5.1406378e-07
3.5397789e-10
5.1408502e-07
6.2957505e-10
5.1414876e-07
9.3225029e-10
5.1426132e-07
1.2752089e-09
5.1436731e-07
1.5250545e-09
5.144148e-07
1.6465727e-09
5.1363385e-07
1.2134863e-09
5.119285e-07
4.0654365e-10
5.0769261e-07
5.0042629e-07
-1.0324916e-09
5.3815402e-07
-1.716729e-09
5.4042195e-07
-2.004656e-09
5.419653e-07
-1.634901e-09
5.4315962e-07
-1.4964915e-09
5.4336195e-07
-1.0480097e-09
5.4373084e-07
-7.0823824e-10
5.4361606e-07
-4.0617165e-10
5.4344627e-07
-1.8517234e-10
5.433004e-07
1.8103877e-13
5.4323639e-07
1.855359e-10
5.4323639e-07
4.0654275e-10
5.433004e-07
7.0860463e-10
5.434463e-07
1.0483858e-09
5.4361609e-07
1.4968808e-09
5.4373088e-07
1.6352852e-09
5.4336205e-07
2.0050624e-09
5.4315978e-07
1.7172112e-09
5.4196553e-07
1.032765e-09
5.4042238e-07
5.381553e-07
-5.9808496e-09
5.3285398e-07
-3.8715633e-09
5.6306749e-07
-2.6277499e-09
5.7571879e-07
-2.049526e-09
5.8128097e-07
-1.2797381e-09
5.8341563e-07
-1.0802759e-09
5.8418574e-07
-7.4024624e-10
5.8442829e-07
-4.6320372e-10
5.845248e-07
-2.2106607e-10
5.8451918e-07
1.8956325e-13
5.8452529e-07
2.2144816e-10
5.8452531e-07
4.6354936e-10
5.8451929e-07
7.4063069e-10
5.8452491e-07
1.0806572e-09
5.844285e-07
1.2801477e-09
5.8418597e-07
2.0499505e-09
5.83416e-07
2.6281499e-09
5.8128152e-07
3.8719002e-09
5.7571963e-07
5.9813268e-09
5.6306899e-07
5.3285694e-07
2.1760273e-08
4.9968421e-07
8.3259542e-09
5.5769189e-07
2.4946271e-09
5.6474362e-07
9.8588019e-10
5.6719466e-07
3.6442409e-10
5.6899556e-07
1.005589e-10
5.6857157e-07
6.9064732e-12
5.6822419e-07
-3.1909694e-11
5.6802151e-07
-2.4697191e-11
5.6792788e-07
2.0511978e-13
5.6791703e-07
2.4967366e-11
5.6791723e-07
3.2259926e-11
5.67928e-07
-6.5516663e-12
5.6802178e-07
-1.0019606e-10
5.6822462e-07
-3.6409344e-10
5.6857212e-07
-9.8562126e-10
5.6899639e-07
-2.4944474e-09
5.6719549e-07
-8.3257212e-09
5.6474463e-07
-2.175959e-08
5.5769291e-07
4.9968737e-07
7.8486421e-08
4.2035078e-07
7.3181082e-08
5.5915634e-07
4.8054327e-08
5.8108524e-07
3.010676e-08
5.823758e-07
1.7074671e-08
5.7902263e-07
1.1278715e-08
5.8011834e-07
7.19159e-09
5.7961425e-07
4.2497489e-09
5.7795919e-07
1.9512247e-09
5.7686912e-07
1.9393642e-13
5.762978e-07
-1.9508348e-09
5.7629783e-07
-4.249348e-09
5.7686916e-07
-7.1913242e-09
5.7795936e-07
-1.1278604e-08
5.7961443e-07
-1.70744e-08
5.8011821e-07
-3.0107126e-08
5.7902247e-07
-4.8054355e-08
5.8237657e-07
-7.3181122e-08
5.8108609e-07
-7.848664e-08
5.5915732e-07
4.2035357e-07
8.5568007e-08
3.3477771e-07
1.159277e-07
5.2871381e-07
1.0998626e-07
5.8621562e-07
8.7374762e-08
5.9863913e-07
6.6844527e-08
5.9832159e-07
4.7547719e-08
5.9364595e-07
3.0926592e-08
5.8907402e-07
1.9123473e-08
5.8674434e-07
9.1156596e-09
5.8468346e-07
-4.6802042e-15
5.8319869e-07
-9.1157093e-09
5.8319884e-07
-1.91236e-08
5.8468375e-07
-3.0926707e-08
5.867447e-07
-4.7548048e-08
5.8907446e-07
-6.684484e-08
5.9364629e-07
-8.7375053e-08
5.983222e-07
-1.0998599e-07
5.9864024e-07
-1.1592744e-07
5.8621614e-07
-8.5567419e-08
5.2871443e-07
3.3478106e-07
6.8842594e-08
2.6593516e-07
1.095155e-07
4.8804079e-07
1.1833224e-07
5.7739809e-07
1.056183e-07
6.0804378e-07
8.7154298e-08
6.1522994e-07
6.692993e-08
6.1238203e-07
4.7640673e-08
6.06099e-07
3.0033714e-08
5.9999314e-07
1.4210846e-08
5.9567071e-07
-2.6105987e-13
5.9366226e-07
-1.4211298e-08
5.9366235e-07
-3.0034222e-08
5.9567094e-07
-4.7641169e-08
5.9999354e-07
-6.6930487e-08
6.0609959e-07
-8.7154837e-08
6.1238232e-07
-1.0561837e-07
6.152303e-07
-1.1833198e-07
6.080439e-07
-1.0951528e-07
5.7739867e-07
-6.8842381e-08
4.8804142e-07
2.6593869e-07
4.8571584e-08
2.1736361e-07
8.8132708e-08
4.4847966e-07
1.0372077e-07
5.6105471e-07
1.0058318e-07
6.1002676e-07
8.822532e-08
6.2764259e-07
7.1117648e-08
6.2926269e-07
5.2616079e-08
6.242083e-07
3.440139e-08
6.1774001e-07
1.6945555e-08
6.1240425e-07
-4.1508259e-13
6.0942792e-07
-1.6946412e-08
6.0942803e-07
-3.4402285e-08
6.1240456e-07
-5.2616916e-08
6.1774038e-07
-7.1118407e-08
6.2420874e-07
-8.8226063e-08
6.2926299e-07
-1.0058382e-07
6.2764289e-07
-1.0372107e-07
6.1002699e-07
-8.8132827e-08
5.6105477e-07
-4.8571666e-08
4.4848031e-07
2.17367e-07
3.1777922e-08
1.8511059e-07
6.4769815e-08
4.1458816e-07
8.2304034e-08
5.4238853e-07
8.5799121e-08
6.0697214e-07
7.9068708e-08
6.3457386e-07
6.6372894e-08
6.420216e-07
5.0724302e-08
6.3982807e-07
3.3969711e-08
6.3437359e-07
1.6994258e-08
6.2922585e-07
-5.5135291e-13
6.2622024e-07
-1.6995358e-08
6.2622035e-07
-3.3970758e-08
6.2922612e-07
-5.0725314e-08
6.3437391e-07
-6.6373857e-08
6.398284e-07
-7.9069676e-08
6.4202185e-07
-8.5799933e-08
6.3457405e-07
-8.2304936e-08
6.0697244e-07
-6.4770565e-08
5.4238866e-07
-3.1779005e-08
4.1458893e-07
1.8511283e-07
1.9908191e-08
1.6488978e-07
4.5053988e-08
3.8923891e-07
6.2037739e-08
5.2605809e-07
6.8267179e-08
6.0114498e-07
6.5739142e-08
6.3726672e-07
5.7199781e-08
6.505956e-07
4.4977119e-08
6.5201645e-07
3.0753973e-08
6.4852601e-07
1.5585828e-08
6.4431086e-07
-5.8546127e-13
6.4166982e-07
-1.5587007e-08
6.4166992e-07
-3.0755093e-08
6.4431109e-07
-4.4978218e-08
6.4852632e-07
-5.7200871e-08
6.520168e-07
-6.5740301e-08
6.505959e-07
-6.8268355e-08
6.3726699e-07
-6.2038852e-08
6.0114517e-07
-4.5055079e-08
5.260581e-07
-1.990905e-08
3.8923948e-07
1.6489128e-07
1.2507441e-08
1.5292653e-07
3.0592455e-08
3.7144349e-07
4.4774169e-08
5.1241335e-07
5.1733377e-08
5.9454696e-07
5.1847226e-08
6.3731869e-07
4.6603888e-08
6.5588569e-07
3.7597208e-08
6.6100758e-07
2.6191922e-08
6.5988907e-07
1.3425375e-08
6.5703359e-07
-5.8277148e-13
6.5502005e-07
-1.342652e-08
6.5502013e-07
-2.6193041e-08
6.5703378e-07
-3.759829e-08
6.5988938e-07
-4.6604988e-08
6.6100792e-07
-5.1848364e-08
6.5588603e-07
-5.1734588e-08
6.3731901e-07
-4.4775388e-08
5.9454722e-07
-3.0593822e-08
5.1241351e-07
-1.2508374e-08
3.7144365e-07
1.5292712e-07
7.9794084e-09
1.453164e-07
2.0400388e-08
3.5922817e-07
3.1347478e-08
5.0181941e-07
3.7822878e-08
5.8838416e-07
3.9313846e-08
6.3598806e-07
3.6402165e-08
6.5885391e-07
3.005626e-08
6.6735121e-07
2.1293435e-08
6.6855721e-07
1.1025437e-08
6.6711563e-07
-5.4354158e-13
6.6578851e-07
-1.1026531e-08
6.657886e-07
-2.1294479e-08
6.6711585e-07
-3.00573e-08
6.685575e-07
-3.6403203e-08
6.6735152e-07
-3.9314904e-08
6.5885425e-07
-3.7823995e-08
6.359884e-07
-3.1348584e-08
5.8838441e-07
-2.0401418e-08
5.0181958e-07
-7.9801647e-09
3.5922806e-07
1.4531625e-07
5.6355384e-09
1.3844698e-08
2.2080011e-08
2.7531488e-08
2.9545594e-08
2.806377e-08
2.357166e-08
1.6907382e-08
8.8355923e-09
-4.8247156e-13
-8.8365613e-09
-1.6908368e-08
-2.3572642e-08
-2.8064718e-08
-2.9546548e-08
-2.7532465e-08
-2.2080903e-08
-1.3845551e-08
-5.6360612e-09
)
;

boundaryField
{
    Wall
    {
        type            calculated;
        value           uniform 0;
    }
    frontAndBack
    {
        type            empty;
        value           nonuniform 0();
    }
    atmosphere
    {
        type            calculated;
        value           nonuniform List<scalar> 
20
(
1.4077371e-07
3.5231226e-07
4.954141e-07
5.8404405e-07
6.3449146e-07
6.6017157e-07
6.7111026e-07
6.7439529e-07
6.7447094e-07
6.7393261e-07
6.7393268e-07
6.7447108e-07
6.7439553e-07
6.7111055e-07
6.6017192e-07
6.3449182e-07
5.8404426e-07
4.9541411e-07
3.5231196e-07
1.4077317e-07
)
;
    }
}


// ************************************************************************* //
