/*--------------------------------*- C++ -*----------------------------------*\
| =========                 |                                                 |
| \\      /  F ield         | OpenFOAM: The Open Source CFD Toolbox           |
|  \\    /   O peration     | Version:  3.0.1                                 |
|   \\  /    A nd           | Web:      www.OpenFOAM.org                      |
|    \\/     M anipulation  |                                                 |
\*---------------------------------------------------------------------------*/
FoamFile
{
    version     2.0;
    format      ascii;
    class       volScalarField;
    location    "32";
    object      Psi2;
}
// * * * * * * * * * * * * * * * * * * * * * * * * * * * * * * * * * * * * * //

dimensions      [0 -2 2 0 0 0 0];

internalField   nonuniform List<scalar> 
800
(
0.0005987452
0.00059869564
0.00059868664
0.00059868574
0.00059868588
0.000598686
0.000598686
0.00059868596
0.00059868591
0.00059868589
0.00059868588
0.00059868591
0.00059868596
0.000598686
0.00059868599
0.00059868587
0.00059868574
0.00059868663
0.00059869564
0.0005987452
0.00060323918
0.00060283096
0.00060272875
0.0006027051
0.00060270332
0.00060270633
0.0006027094
0.00060271149
0.00060271267
0.00060271321
0.0006027132
0.00060271268
0.00060271149
0.0006027094
0.00060270634
0.00060270332
0.00060270511
0.00060272876
0.00060283098
0.00060323922
0.0006087526
0.00060806551
0.00060783729
0.00060777938
0.00060776991
0.00060777291
0.00060777757
0.00060778108
0.00060778317
0.00060778412
0.00060778412
0.00060778318
0.00060778109
0.00060777758
0.00060777292
0.00060776993
0.00060777941
0.00060783732
0.00060806555
0.00060875268
0.00061459643
0.00061366712
0.00061331613
0.00061322479
0.00061320728
0.00061320963
0.00061321533
0.00061321986
0.00061322264
0.0006132239
0.0006132239
0.00061322264
0.00061321987
0.00061321535
0.00061320966
0.00061320731
0.00061322483
0.00061331618
0.00061366719
0.00061459654
0.00062018463
0.00061906823
0.00061860946
0.0006184881
0.00061846498
0.00061846752
0.00061847445
0.00061847997
0.00061848337
0.00061848491
0.00061848491
0.00061848338
0.00061847999
0.00061847447
0.00061846755
0.00061846502
0.00061848815
0.00061860952
0.0006190683
0.00062018476
0.00062504956
0.00062381967
0.00062327426
0.00062312732
0.00062310234
0.00062310672
0.00062311552
0.00062312227
0.00062312637
0.0006231282
0.00062312821
0.00062312638
0.00062312229
0.00062311554
0.00062310676
0.00062310239
0.00062312737
0.00062327432
0.00062381975
0.00062504968
0.00062885967
0.00062759039
0.00062698609
0.00062681914
0.00062679668
0.00062680497
0.00062681655
0.00062682497
0.00062682997
0.00062683218
0.00062683218
0.00062682998
0.00062682499
0.00062681658
0.00062680501
0.00062679673
0.00062681919
0.00062698615
0.00062759047
0.00062885979
0.00063144597
0.00063019289
0.00062956249
0.00062938172
0.00062936587
0.00062938019
0.00062939559
0.00062940623
0.00062941241
0.00062941511
0.00062941511
0.00062941242
0.00062940625
0.00062939561
0.00062938022
0.00062936591
0.00062938177
0.00062956255
0.00063019296
0.00063144608
0.00063278146
0.00063157514
0.00063095521
0.00063076687
0.00063076001
0.0006307822
0.00063080248
0.00063081598
0.00063082367
0.00063082703
0.00063082703
0.00063082368
0.00063081599
0.00063080251
0.00063078223
0.00063076004
0.00063076691
0.00063095526
0.0006315752
0.00063278155
0.0006329698
0.00063180062
0.00063122553
0.00063103502
0.00063103634
0.00063106682
0.00063109297
0.00063110994
0.0006311195
0.00063112368
0.00063112368
0.0006311195
0.00063110996
0.00063109299
0.00063106685
0.00063103637
0.00063103505
0.00063122557
0.00063180067
0.00063296986
0.00063222091
0.000631039
0.00063053575
0.00063034694
0.00063035169
0.00063038837
0.0006304213
0.00063044235
0.00063045409
0.00063045927
0.00063045927
0.00063045409
0.00063044236
0.00063042132
0.00063038838
0.00063035172
0.00063034697
0.00063053577
0.00063103903
0.00063222096
0.00063079537
0.00062951291
0.00062909398
0.00062890907
0.00062890872
0.00062894653
0.00062898716
0.0006290129
0.00062902711
0.00062903348
0.00062903348
0.00062902712
0.00062901291
0.00062898717
0.00062894654
0.00062890874
0.00062890909
0.000629094
0.00062951293
0.0006307954
0.0006286832
0.00062714954
0.0006268366
0.00062665806
0.00062661408
0.00062663277
0.00062668274
0.00062671437
0.00062673092
0.00062673889
0.00062673889
0.00062673093
0.00062671438
0.00062668275
0.00062663278
0.00062661409
0.00062665807
0.00062683661
0.00062714955
0.00062868322
0.00062655791
0.00062459863
0.0006243085
0.00062413815
0.00062405224
0.00062404519
0.00062411695
0.00062415576
0.00062417373
0.00062418381
0.00062418381
0.00062417374
0.00062415577
0.00062411696
0.0006240452
0.00062405225
0.00062413815
0.00062430851
0.00062459863
0.00062655793
0.00062478767
0.00062218015
0.00062182253
0.0006216576
0.00062149648
0.00062146802
0.00062155349
0.00062160181
0.00062162049
0.00062163183
0.00062163183
0.0006216205
0.00062160182
0.0006215535
0.00062146803
0.00062149649
0.00062165761
0.00062182253
0.00062218015
0.00062478768
0.00062328494
0.00061989008
0.00061935181
0.00061917613
0.00061894114
0.00061889146
0.00061899344
0.0006190555
0.00061907484
0.00061908206
0.00061908206
0.00061907485
0.00061905552
0.00061899346
0.00061889147
0.00061894115
0.00061917614
0.00061935182
0.00061989008
0.00062328495
0.00062246852
0.00061802933
0.00061716548
0.00061693704
0.00061661584
0.00061654901
0.00061668449
0.00061676511
0.00061678566
0.00061677672
0.00061677672
0.00061678568
0.00061676513
0.00061668452
0.00061654904
0.00061661586
0.00061693706
0.0006171655
0.00061802934
0.00062246854
0.00062291427
0.00061707661
0.00061571626
0.00061536463
0.00061492396
0.00061485576
0.0006150482
0.00061515171
0.00061517775
0.00061513517
0.00061513517
0.00061517777
0.00061515174
0.00061504823
0.00061485579
0.00061492398
0.00061536465
0.00061571629
0.00061707663
0.00062291431
0.00062520391
0.00061754841
0.00061549388
0.00061492424
0.00061431939
0.00061427389
0.00061454448
0.0006146744
0.00061471646
0.00061462132
0.00061462133
0.00061471648
0.00061467444
0.00061454451
0.00061427393
0.00061431942
0.00061492427
0.00061549392
0.00061754844
0.00062520396
0.00062999427
0.00062001348
0.00061702716
0.00061612387
0.0006153068
0.0006153025
0.00061566223
0.00061582149
0.00061589206
0.00061572857
0.00061572858
0.00061589209
0.00061582153
0.00061566228
0.00061530254
0.00061530684
0.00061612391
0.00061702721
0.00062001352
0.00062999434
0.00063813298
0.00062517363
0.00062094835
0.00061957713
0.00061849306
0.0006185284
0.00061897402
0.00061916534
0.00061926601
0.00061902454
0.00061902455
0.00061926604
0.00061916539
0.00061897407
0.00061852846
0.00061849311
0.00061957718
0.0006209484
0.00062517369
0.00063813304
0.00065078614
0.00063398119
0.00062809391
0.00062608514
0.00062464862
0.00062470634
0.00062522286
0.00062544953
0.00062555863
0.00062523658
0.00062523659
0.00062555866
0.00062544958
0.00062522292
0.0006247064
0.00062464868
0.0006260852
0.00062809397
0.00063398123
0.00065078618
0.00066963215
0.00064779196
0.00063963186
0.00063675373
0.00063481156
0.00063485823
0.00063544104
0.00063570805
0.00063577976
0.00063538048
0.0006353805
0.0006357798
0.00063570811
0.00063544111
0.00063485829
0.00063481163
0.00063675379
0.00063963191
0.00064779198
0.00066963213
0.00069726636
0.00066862168
0.00065727316
0.0006531769
0.00065048644
0.00065046343
0.00065111123
0.00065142673
0.00065140234
0.00065093301
0.00065093302
0.00065140237
0.00065142678
0.00065111129
0.0006504635
0.00065048651
0.00065317695
0.0006572732
0.00066862165
0.00069726623
0.00073786819
0.00069962577
0.00068369669
0.00067772969
0.00067398885
0.0006737279
0.00067440729
0.00067478436
0.00067460859
0.00067407813
0.00067407814
0.00067460862
0.00067478441
0.00067440734
0.00067372795
0.0006739889
0.00067772971
0.00068369668
0.00069962563
0.00073786784
0.00079834901
0.00074593553
0.00072313778
0.00071418687
0.00070893654
0.00070809917
0.00070872615
0.00070918558
0.00070882029
0.00070823804
0.00070823805
0.00070882032
0.00070918563
0.00070872619
0.00070809921
0.00070893656
0.00071418685
0.00072313769
0.0007459352
0.00079834828
0.00089080422
0.00081645824
0.00078269725
0.0007689941
0.00076133337
0.00075936345
0.00075981726
0.00076039361
0.00075982668
0.00075920237
0.00075920238
0.0007598267
0.00076039364
0.00075981728
0.00075936346
0.00076133334
0.00076899401
0.00078269701
0.00081645757
0.00089080285
0.0010378997
0.00092739477
0.00087509304
0.00085369301
0.00084180089
0.00083776485
0.00083790905
0.00083865972
0.00083790921
0.00083725367
0.00083725368
0.00083790921
0.00083865973
0.00083790902
0.00083776481
0.00084180079
0.0008536928
0.00087509257
0.00092739353
0.0010378972
0.0012843778
0.0011102763
0.0010249593
0.00098969355
0.00096951649
0.00096221051
0.00096188621
0.00096291214
0.0009620284
0.00096135437
0.00096135437
0.00096202839
0.00096291211
0.00096188614
0.00096221039
0.00096951629
0.00098969318
0.0010249585
0.0011102741
0.0012843734
0.0017215719
0.0014318674
0.0012807195
0.0012172462
0.0011841444
0.001167967
0.0011668514
0.0011683143
0.0011673903
0.0011667136
0.0011667136
0.0011673902
0.0011683141
0.0011668512
0.0011679668
0.001184144
0.0012172455
0.001280718
0.0014318631
0.0017215625
0.0024481962
0.0019681613
0.0017092392
0.0015950155
0.0015378323
0.0015122973
0.0015092855
0.0015114326
0.0015106335
0.0015099867
0.0015099866
0.0015106333
0.0015114322
0.001509285
0.0015122967
0.0015378313
0.0015950139
0.0017092359
0.0019681529
0.0024481761
0.0037662198
0.0027692771
0.0023235504
0.0021137461
0.0020095178
0.0019656788
0.0019583392
0.0019627853
0.0019642089
0.0019647754
0.0019647753
0.0019642084
0.0019627845
0.0019583382
0.0019656776
0.0020095162
0.0021137432
0.0023235446
0.0027692635
0.0037661799
0.0060395284
0.0039152437
0.0031331774
0.0027702494
0.002591346
0.0025180488
0.0025047675
0.0025148027
0.0025231709
0.0025278919
0.0025278915
0.00252317
0.0025148011
0.0025047658
0.0025180471
0.0025913437
0.0027702447
0.0031331681
0.0039152229
0.0060394639
0.0087025632
0.0054121386
0.0041438497
0.003560662
0.0032771984
0.0031612323
0.0031400032
0.0031597477
0.0031807896
0.0031935588
0.0031935582
0.003180788
0.0031597454
0.0031400008
0.0031612301
0.0032771957
0.0035606565
0.0041438386
0.0054121165
0.0087024977
0.010318889
0.0070767929
0.0053138979
0.0044671892
0.0040551263
0.0038848926
0.0038520124
0.0038827639
0.0039204006
0.0039445064
0.0039445056
0.0039203984
0.0038827609
0.0038520096
0.0038848904
0.0040551242
0.0044671848
0.0053138881
0.0070767764
0.010318857
0.010835516
0.0085855916
0.0065444562
0.0054505502
0.0049043992
0.0046738009
0.0046251541
0.0046646567
0.0047187321
0.0047548851
0.0047548841
0.0047187296
0.0046646533
0.0046251512
0.0046737988
0.004904398
0.0054505476
0.0065444504
0.0085855822
0.010835507
0.010943527
0.0096835439
0.0077093161
0.0064541218
0.0057938645
0.0055059999
0.005438932
0.0054823086
0.0055486463
0.005594609
0.0055946079
0.0055486437
0.0054823052
0.0054389294
0.0055059983
0.0057938643
0.0064541211
0.0077093141
0.009683538
0.010943526
0.010961314
0.010340425
0.0087023204
0.0074149257
0.0066841219
0.0063519927
0.0062665872
0.006307979
0.0063798435
0.0064312255
0.0064312244
0.0063798411
0.006307976
0.0062665849
0.0063519915
0.0066841225
0.0074149263
0.0087023203
0.010340422
0.010961314
0.010963871
0.010680409
0.0094720278
0.008277613
0.0075329237
0.0071771489
0.0070765995
0.0071108045
0.0071809173
0.0072325978
0.0072325969
0.0071809154
0.007110802
0.0070765977
0.0071771482
0.0075329247
0.0082776144
0.0094720283
0.010680408
0.010963871
0.010964211
0.010840608
0.010022834
0.0090063311
0.0083027096
0.0079469122
0.0078368848
0.0078605519
0.0079229225
0.0079704497
0.0079704491
0.0079229211
0.00786055
0.0078368835
0.0079469118
0.0083027107
0.0090063327
0.010022834
0.010840607
0.010964211
)
;

boundaryField
{
    Wall
    {
        type            calculated;
        value           nonuniform List<scalar> 
100
(
1e-20
1e-20
1e-20
1e-20
1e-20
1e-20
1e-20
1e-20
1e-20
1e-20
1e-20
1e-20
1e-20
1e-20
1e-20
9.9999999e-21
9.9999999e-21
9.9999999e-21
9.9999999e-21
9.9999999e-21
9.9999999e-21
9.9999999e-21
9.9999999e-21
9.9999999e-21
9.9999999e-21
9.9999999e-21
9.9999999e-21
9.9999999e-21
9.9999999e-21
1e-20
1e-20
1e-20
1e-20
1e-20
1e-20
1e-20
1e-20
1e-20
1e-20
1e-20
1e-20
1e-20
1e-20
1e-20
1e-20
1e-20
1e-20
1e-20
1e-20
1e-20
1e-20
1e-20
1e-20
1e-20
1e-20
9.9999999e-21
9.9999999e-21
9.9999999e-21
9.9999999e-21
9.9999999e-21
9.9999999e-21
9.9999999e-21
9.9999999e-21
9.9999999e-21
9.9999999e-21
9.9999999e-21
9.9999999e-21
9.9999999e-21
9.9999999e-21
1e-20
1e-20
1e-20
1e-20
1e-20
1e-20
1e-20
1e-20
1e-20
1e-20
1e-20
1e-20
1e-20
1e-20
1e-20
1e-20
1e-20
1e-20
1e-20
1e-20
1e-20
1e-20
1e-20
1e-20
1e-20
1e-20
1e-20
1e-20
1e-20
1e-20
1e-20
)
;
    }
    frontAndBack
    {
        type            empty;
    }
    atmosphere
    {
        type            calculated;
        value           uniform 1e-20;
    }
}


// ************************************************************************* //
