/*--------------------------------*- C++ -*----------------------------------*\
| =========                 |                                                 |
| \\      /  F ield         | OpenFOAM: The Open Source CFD Toolbox           |
|  \\    /   O peration     | Version:  3.0.1                                 |
|   \\  /    A nd           | Web:      www.OpenFOAM.org                      |
|    \\/     M anipulation  |                                                 |
\*---------------------------------------------------------------------------*/
FoamFile
{
    version     2.0;
    format      ascii;
    class       volScalarField;
    location    "32";
    object      rho;
}
// * * * * * * * * * * * * * * * * * * * * * * * * * * * * * * * * * * * * * //

dimensions      [1 -3 0 0 0 0 0];

internalField   nonuniform List<scalar> 
800
(
59.87452
59.869564
59.868664
59.868574
59.868588
59.8686
59.8686
59.868596
59.868591
59.868589
59.868588
59.868591
59.868596
59.8686
59.868599
59.868587
59.868574
59.868663
59.869564
59.87452
60.323918
60.283096
60.272875
60.27051
60.270332
60.270633
60.27094
60.271149
60.271267
60.271321
60.271321
60.271268
60.271149
60.27094
60.270634
60.270332
60.270511
60.272877
60.283098
60.323922
60.875259
60.80655
60.783728
60.777938
60.77699
60.77729
60.777756
60.778107
60.778317
60.778411
60.778411
60.778317
60.778108
60.777757
60.777291
60.776992
60.77794
60.783732
60.806554
60.875267
61.45964
61.366709
61.331611
61.322476
61.320726
61.320961
61.32153
61.321983
61.322261
61.322388
61.322388
61.322262
61.321985
61.321532
61.320963
61.320729
61.32248
61.331615
61.366716
61.459651
62.018455
61.906815
61.860939
61.848803
61.846491
61.846745
61.847438
61.84799
61.84833
61.848484
61.848484
61.848331
61.847992
61.84744
61.846748
61.846495
61.848808
61.860945
61.906823
62.018467
62.504937
62.38195
62.327411
62.312716
62.310219
62.310657
62.311536
62.312212
62.312622
62.312805
62.312805
62.312623
62.312214
62.311539
62.310661
62.310224
62.312722
62.327417
62.381959
62.50495
62.885934
62.75901
62.698581
62.681886
62.679641
62.68047
62.681628
62.68247
62.68297
62.68319
62.68319
62.682971
62.682472
62.681631
62.680474
62.679646
62.681892
62.698588
62.759018
62.885946
63.144542
63.01924
62.956204
62.938128
62.936542
62.937974
62.939514
62.940578
62.941197
62.941467
62.941467
62.941198
62.94058
62.939517
62.937978
62.936547
62.938133
62.95621
63.019247
63.144553
63.278063
63.15744
63.095452
63.076619
63.075934
63.078153
63.080181
63.08153
63.0823
63.082635
63.082636
63.082301
63.081532
63.080183
63.078156
63.075937
63.076624
63.095457
63.157446
63.278072
63.29686
63.179956
63.122455
63.103405
63.103537
63.106586
63.109201
63.110898
63.111853
63.112271
63.112272
63.111854
63.110899
63.109203
63.106589
63.10354
63.103408
63.122458
63.17996
63.296867
63.221927
63.103753
63.053439
63.034562
63.035038
63.038705
63.041998
63.044103
63.045276
63.045795
63.045795
63.045277
63.044104
63.042
63.038707
63.03504
63.034564
63.053441
63.103756
63.221932
63.07932
62.951091
62.909216
62.890732
62.890698
62.894479
62.898542
62.901115
62.902536
62.903174
62.903174
62.902537
62.901116
62.898543
62.89448
62.8907
62.890734
62.909218
62.951093
63.079323
62.868041
62.714692
62.683429
62.665583
62.661187
62.663057
62.668051
62.671214
62.672868
62.673665
62.673665
62.672869
62.671215
62.668052
62.663058
62.661188
62.665584
62.68343
62.714693
62.868042
62.655444
62.45956
62.430571
62.413538
62.404947
62.404205
62.411396
62.415297
62.417095
62.418102
62.418102
62.417095
62.415298
62.411398
62.404206
62.404948
62.413538
62.430572
62.45956
62.655446
62.478281
62.217642
62.181914
62.165411
62.149116
62.146274
62.154998
62.159841
62.161709
62.162842
62.162843
62.16171
62.159842
62.155
62.146275
62.149117
62.165412
62.181914
62.217642
62.478282
62.327887
61.987733
61.934527
61.916895
61.893226
61.888664
61.898958
61.905144
61.907078
61.907799
61.907799
61.907079
61.905146
61.89896
61.888665
61.893227
61.916896
61.934528
61.987733
62.327888
62.245598
61.800929
61.714582
61.691956
61.660778
61.654422
61.667977
61.676034
61.678089
61.677194
61.677194
61.67809
61.676036
61.667979
61.654424
61.66078
61.691957
61.714583
61.80093
62.245601
62.289406
61.70566
61.56963
61.535038
61.491714
61.484882
61.504253
61.514619
61.517223
61.512964
61.512965
61.517225
61.514622
61.504256
61.484886
61.491717
61.53504
61.569632
61.705662
62.28941
62.518363
61.752838
61.547434
61.491735
61.431258
61.426661
61.453831
61.46681
61.471015
61.461502
61.461502
61.471017
61.466813
61.453834
61.426666
61.431261
61.491738
61.547438
61.752841
62.518368
62.997384
61.999337
61.701798
61.611703
61.529998
61.529565
61.565466
61.581438
61.588494
61.572145
61.572146
61.588496
61.581442
61.565471
61.52957
61.530002
61.611708
61.701803
61.999341
62.99739
63.811227
62.515548
62.094046
61.957026
61.848519
61.852153
61.89662
61.915736
61.925802
61.901656
61.901657
61.925805
61.915741
61.896625
61.852158
61.848525
61.957031
62.094051
62.515554
63.811233
65.077191
63.396939
62.808213
62.60782
62.463715
62.469561
62.521324
62.544064
62.554974
62.522768
62.52277
62.554977
62.54407
62.521329
62.469566
62.46372
62.607826
62.808219
63.396943
65.077195
66.962283
64.778336
63.961984
63.674666
63.47999
63.484657
63.543122
63.56982
63.57699
63.537062
63.537063
63.576993
63.569826
63.543129
63.484663
63.479996
63.674672
63.96199
64.778338
66.962282
69.725736
66.861329
65.726212
65.316965
65.047825
65.045318
65.110001
65.141581
65.139142
65.092209
65.092211
65.139145
65.141587
65.110007
65.045324
65.047832
65.31697
65.726215
66.861326
69.725723
73.785891
69.961751
68.368909
67.772216
67.398137
67.372015
67.439605
67.47722
67.459642
67.406597
67.406598
67.459645
67.477226
67.43961
67.37202
67.398141
67.772218
68.368908
69.961737
73.785856
79.833361
74.592481
72.312942
71.417819
70.892818
70.808789
70.871261
70.917134
70.880606
70.822382
70.822383
70.880608
70.917139
70.871265
70.808793
70.89282
71.417817
72.312932
74.592447
79.833288
89.069615
81.642284
78.267687
76.897295
76.131421
75.93421
75.979506
76.037133
75.980456
75.918034
75.918035
75.980458
76.037137
75.979507
75.93421
76.131419
76.897286
78.267664
81.642218
89.069478
103.58465
92.691624
87.490734
85.355282
84.168253
83.765343
83.780108
83.855369
83.780523
83.715077
83.715078
83.780524
83.85537
83.780106
83.765339
84.168243
85.355261
87.490687
92.691504
103.58443
118.09414
109.4874
102.02152
98.671431
96.718208
96.014165
95.992907
96.101
96.017581
95.952722
95.952723
96.017581
96.100999
95.992902
96.014157
96.718193
98.671402
102.02146
109.48731
118.09479
55.831845
92.780413
102.91924
104.60187
104.937
104.9298
105.48276
105.96551
106.19467
106.29154
106.29156
106.19474
105.96562
105.48292
104.93001
104.93727
104.60229
102.91989
92.781868
55.834513
6.036914
20.276568
31.825972
36.659096
40.00341
41.949623
43.13671
43.903482
44.530793
44.845841
44.845891
44.53094
43.903733
43.137054
41.950045
40.003924
36.659639
31.826646
20.277423
6.0373685
1.2495484
1.7630759
2.7223765
3.3305428
3.7634217
4.0218139
4.169253
4.264701
4.3513548
4.3960525
4.3960594
4.3513748
4.2647346
4.1692981
4.0218678
3.7634838
3.3306106
2.7224447
1.7631216
1.2495562
1.2000246
1.201377
1.2071957
1.2131158
1.218221
1.2216205
1.2235193
1.2247206
1.2259172
1.2265492
1.2265493
1.2259175
1.2247211
1.22352
1.2216212
1.2182217
1.2131165
1.2071962
1.2013772
1.2000246
1.2000001
1.2000002
1.2000018
1.2000047
1.2000078
1.2000099
1.2000111
1.2000118
1.2000126
1.2000131
1.2000131
1.2000126
1.2000118
1.2000111
1.2000099
1.2000078
1.2000047
1.2000018
1.2000002
1.2000001
1.2
1.2000001
1.2000002
1.2000002
1.2000001
1.2000002
1.2000001
1.2000002
1.2000002
1.2000002
1.2000002
1.2000002
1.2000002
1.2000001
1.2000002
1.2000001
1.2000002
1.2000002
1.2000001
1.2
1.2
1.2000001
1.2000001
1.2000002
1.2000002
1.2000002
1.2000002
1.2000002
1.2000002
1.2000002
1.2000002
1.2000002
1.2000002
1.2000002
1.2000002
1.2000002
1.2000002
1.2000001
1.2000001
1.2
1.2
1.2000001
1.2000001
1.2000002
1.2000002
1.2000002
1.2000002
1.2000002
1.2000002
1.2000002
1.2000002
1.2000002
1.2000002
1.2000002
1.2000002
1.2000002
1.2000002
1.2000001
1.2000001
1.2
1.2
1.2
1.2000001
1.2000002
1.2000002
1.2000002
1.2000003
1.2000003
1.2000003
1.2000003
1.2000003
1.2000003
1.2000003
1.2000003
1.2000002
1.2000002
1.2000002
1.2000001
1.2
1.2
1.2
1.2
1.2000001
1.2000002
1.2000002
1.2000003
1.2000003
1.2000003
1.2000003
1.2000003
1.2000003
1.2000003
1.2000003
1.2000003
1.2000003
1.2000002
1.2000002
1.2000001
1.2
1.2
1.2
1.2
1.2000001
1.2000002
1.2000002
1.2000003
1.2000003
1.2000003
1.2000003
1.2000003
1.2000003
1.2000003
1.2000003
1.2000003
1.2000003
1.2000002
1.2000002
1.2000001
1.2
1.2
)
;

boundaryField
{
    Wall
    {
        type            calculated;
        value           nonuniform List<scalar> 
100
(
1e-15
1.6846969e-12
1.7080805e-08
6.4881838e-08
1.7529675e-07
3.6394689e-07
6.5269394e-07
1.0616169e-06
1.6090097e-06
2.3106288e-06
3.1702906e-06
4.2106729e-06
5.4454979e-06
6.779466e-06
9.522421e-06
1.1919487e-05
2.4646077e-05
3.9688464e-05
3.9688358e-05
3.9688157e-05
3.9688065e-05
2.6729391e-05
1.7008556e-05
1.577995e-05
1.5350738e-05
2.3514182e-05
0.0001475789
0.0024015903
0.097552513
0.81652264
1.1761748
1.1998416
1.2
1.2
1.2
1.2
1.2
1.2
1.2
1.2
1e-15
8.3384469e-15
1.7079952e-08
6.4882069e-08
1.7529868e-07
3.6395127e-07
6.5270148e-07
1.0616281e-06
1.6090246e-06
2.3106471e-06
3.1703117e-06
4.2106964e-06
5.4455223e-06
6.7794886e-06
9.522529e-06
1.1919583e-05
2.4646135e-05
3.9688672e-05
3.9688566e-05
3.9688365e-05
3.9688273e-05
2.6738914e-05
1.7003032e-05
1.5775806e-05
1.5346489e-05
2.3511841e-05
0.00014757242
0.0024013733
0.0975426
0.81650178
1.1761723
1.1998416
1.2
1.2
1.2
1.2
1.2
1.2
1.2
1.2
1e-15
1e-15
1.0000005e-15
1.000001e-15
1e-15
1.0000013e-15
1.0000011e-15
1.0000001e-15
1e-15
1e-15
1e-15
1e-15
1e-15
1.0000001e-15
1.0000001e-15
1e-15
1e-15
1e-15
1e-15
1e-15
)
;
    }
    frontAndBack
    {
        type            empty;
    }
    atmosphere
    {
        type            calculated;
        value           nonuniform List<scalar> 
20
(
1.2
1.2
1.2
1.2
1.2
1.2
1.2
1.2
1.2
1.2
1.2
1.2
1.2
1.2
1.2
1.2
1.2
1.2
1.2
1.2
)
;
    }
}


// ************************************************************************* //
