/*--------------------------------*- C++ -*----------------------------------*\
| =========                 |                                                 |
| \\      /  F ield         | OpenFOAM: The Open Source CFD Toolbox           |
|  \\    /   O peration     | Version:  3.0.1                                 |
|   \\  /    A nd           | Web:      www.OpenFOAM.org                      |
|    \\/     M anipulation  |                                                 |
\*---------------------------------------------------------------------------*/
FoamFile
{
    version     2.0;
    format      ascii;
    class       volScalarField;
    location    "32";
    object      rho_foam;
}
// * * * * * * * * * * * * * * * * * * * * * * * * * * * * * * * * * * * * * //

dimensions      [1 -3 0 0 0 0 0];

internalField   nonuniform List<scalar> 
800
(
59.87452
59.869564
59.868664
59.868574
59.868588
59.8686
59.8686
59.868596
59.868591
59.868589
59.868588
59.868591
59.868596
59.8686
59.868599
59.868587
59.868574
59.868663
59.869564
59.87452
60.323918
60.283096
60.272875
60.27051
60.270332
60.270633
60.27094
60.271149
60.271267
60.271321
60.271321
60.271268
60.271149
60.27094
60.270634
60.270332
60.270511
60.272877
60.283098
60.323922
60.87526
60.806551
60.783729
60.777938
60.776991
60.777291
60.777757
60.778108
60.778317
60.778412
60.778412
60.778318
60.778109
60.777758
60.777292
60.776993
60.777941
60.783732
60.806555
60.875268
61.459643
61.366712
61.331613
61.322479
61.320728
61.320963
61.321533
61.321986
61.322264
61.32239
61.32239
61.322265
61.321988
61.321535
61.320966
61.320732
61.322483
61.331618
61.366719
61.459654
62.018463
61.906823
61.860947
61.84881
61.846498
61.846752
61.847445
61.847997
61.848337
61.848491
61.848491
61.848338
61.847999
61.847447
61.846756
61.846502
61.848815
61.860953
61.90683
62.018476
62.504956
62.381967
62.327426
62.312732
62.310234
62.310672
62.311552
62.312227
62.312637
62.312821
62.312821
62.312638
62.312229
62.311554
62.310676
62.310239
62.312737
62.327433
62.381975
62.504969
62.885967
62.759039
62.698609
62.681914
62.679668
62.680498
62.681655
62.682497
62.682997
62.683218
62.683218
62.682998
62.682499
62.681658
62.680501
62.679673
62.681919
62.698616
62.759047
62.885979
63.144597
63.019289
62.956249
62.938173
62.936587
62.938019
62.939559
62.940623
62.941241
62.941511
62.941512
62.941243
62.940625
62.939561
62.938022
62.936591
62.938177
62.956255
63.019296
63.144608
63.278147
63.157514
63.095521
63.076687
63.076001
63.078221
63.080248
63.081598
63.082367
63.082703
63.082703
63.082368
63.081599
63.080251
63.078224
63.076005
63.076691
63.095526
63.15752
63.278155
63.29698
63.180063
63.122553
63.103502
63.103634
63.106682
63.109297
63.110994
63.11195
63.112368
63.112368
63.111951
63.110996
63.109299
63.106685
63.103637
63.103505
63.122557
63.180067
63.296986
63.222091
63.1039
63.053575
63.034694
63.035169
63.038837
63.04213
63.044235
63.045409
63.045927
63.045927
63.045409
63.044236
63.042132
63.038839
63.035172
63.034697
63.053577
63.103903
63.222096
63.079537
62.951292
62.909398
62.890907
62.890873
62.894653
62.898716
62.90129
62.902711
62.903348
62.903348
62.902712
62.901291
62.898718
62.894655
62.890874
62.890909
62.9094
62.951293
63.07954
62.86832
62.714954
62.68366
62.665806
62.661408
62.663277
62.668274
62.671437
62.673092
62.673889
62.673889
62.673093
62.671438
62.668275
62.663278
62.661409
62.665807
62.683661
62.714955
62.868322
62.655792
62.459863
62.43085
62.413815
62.405224
62.404519
62.411695
62.415576
62.417374
62.418381
62.418381
62.417374
62.415577
62.411696
62.40452
62.405225
62.413815
62.430851
62.459863
62.655793
62.478767
62.218015
62.182253
62.16576
62.149648
62.146802
62.155349
62.160181
62.16205
62.163183
62.163183
62.162051
62.160182
62.15535
62.146803
62.149649
62.165761
62.182253
62.218015
62.478769
62.328494
61.989008
61.935181
61.917613
61.894114
61.889146
61.899344
61.90555
61.907484
61.908206
61.908206
61.907486
61.905552
61.899346
61.889147
61.894115
61.917614
61.935182
61.989008
62.328495
62.246852
61.802933
61.716549
61.693705
61.661584
61.654902
61.668449
61.676511
61.678566
61.677672
61.677672
61.678568
61.676513
61.668452
61.654904
61.661586
61.693706
61.71655
61.802934
62.246855
62.291427
61.707661
61.571627
61.536463
61.492396
61.485576
61.504821
61.515171
61.517775
61.513517
61.513518
61.517777
61.515174
61.504824
61.485579
61.492399
61.536465
61.571629
61.707663
62.291431
62.520391
61.754841
61.549389
61.492425
61.431939
61.42739
61.454448
61.467441
61.471646
61.462133
61.462133
61.471648
61.467444
61.454452
61.427393
61.431943
61.492428
61.549392
61.754844
62.520396
62.999428
62.001348
61.702717
61.612387
61.53068
61.53025
61.566223
61.582149
61.589206
61.572858
61.572859
61.589209
61.582154
61.566228
61.530254
61.530685
61.612391
61.702721
62.001352
62.999434
63.813298
62.517364
62.094835
61.957713
61.849306
61.852841
61.897402
61.916534
61.926601
61.902454
61.902455
61.926604
61.916539
61.897408
61.852846
61.849312
61.957718
62.094841
62.517369
63.813304
65.078614
63.398119
62.809391
62.608515
62.464862
62.470634
62.522287
62.544953
62.555863
62.523658
62.523659
62.555867
62.544959
62.522293
62.47064
62.464868
62.60852
62.809397
63.398124
65.078618
66.963215
64.779196
63.963186
63.675373
63.481157
63.485823
63.544105
63.570806
63.577977
63.538049
63.53805
63.57798
63.570812
63.544111
63.48583
63.481163
63.675379
63.963191
64.779199
66.963214
69.726637
66.862169
65.727317
65.317691
65.048645
65.046344
65.111123
65.142673
65.140234
65.093301
65.093303
65.140238
65.142679
65.111129
65.04635
65.048651
65.317696
65.72732
66.862165
69.726624
73.786819
69.962578
68.369669
67.772969
67.398886
67.37279
67.440729
67.478436
67.460859
67.407813
67.407814
67.460862
67.478442
67.440735
67.372796
67.398891
67.772972
68.369668
69.962564
73.786785
79.834902
74.593554
72.313779
71.418688
70.893654
70.809918
70.872616
70.918558
70.88203
70.823804
70.823806
70.882032
70.918563
70.87262
70.809922
70.893656
71.418686
72.313769
74.59352
79.834829
89.080423
81.645824
78.269726
76.89941
76.133337
75.936346
75.981727
76.039361
75.982669
75.920237
75.920239
75.982671
76.039365
75.981728
75.936346
76.133335
76.899401
78.269702
81.645758
89.080286
103.78997
92.739477
87.509305
85.369301
84.18009
83.776485
83.790905
83.865973
83.790921
83.725368
83.725369
83.790922
83.865974
83.790903
83.776481
84.18008
85.36928
87.509258
92.739354
103.78972
128.43778
111.02763
102.49593
98.969356
96.95165
96.221051
96.188622
96.291215
96.202841
96.135437
96.135438
96.202839
96.291212
96.188614
96.221039
96.95163
98.969319
102.49585
111.02741
128.43734
172.15719
143.18674
128.07195
121.72462
118.41444
116.7967
116.68514
116.83143
116.73903
116.67136
116.67136
116.73902
116.83142
116.68512
116.79668
118.4144
121.72455
128.0718
143.18631
172.15625
244.81962
196.81613
170.92392
159.50155
153.78323
151.22973
150.92855
151.14326
151.06335
150.99867
150.99866
151.06333
151.14322
150.9285
151.22967
153.78313
159.50139
170.92359
196.81529
244.81761
376.62198
276.92771
232.35504
211.37461
200.95178
196.56788
195.83392
196.27853
196.42089
196.47754
196.47753
196.42084
196.27845
195.83382
196.56776
200.95162
211.37432
232.35446
276.92636
376.61799
603.95284
391.52437
313.31774
277.02494
259.1346
251.80488
250.47675
251.48027
252.31709
252.78919
252.78915
252.317
251.48011
250.47658
251.80471
259.13437
277.02447
313.31681
391.52229
603.94639
870.25632
541.21386
414.38498
356.0662
327.71984
316.12323
314.00032
315.97477
318.07896
319.35588
319.35582
318.0788
315.97454
314.00008
316.12301
327.71957
356.06565
414.38386
541.21165
870.24977
1031.8889
707.67929
531.38979
446.71892
405.51263
388.48926
385.20124
388.27639
392.04006
394.45064
394.45056
392.03984
388.27609
385.20096
388.48904
405.51242
446.71848
531.38881
707.67764
1031.8857
1083.5516
858.55916
654.44562
545.05502
490.43992
467.38009
462.51541
466.46567
471.87321
475.48851
475.48841
471.87296
466.46533
462.51512
467.37988
490.4398
545.05476
654.44504
858.55822
1083.5507
1094.3527
968.35439
770.93161
645.41218
579.38645
550.59999
543.8932
548.23086
554.86463
559.4609
559.46079
554.86437
548.23052
543.89294
550.59983
579.38643
645.41211
770.93141
968.3538
1094.3526
1096.1314
1034.0425
870.23204
741.49257
668.41219
635.19927
626.65872
630.7979
637.98435
643.12255
643.12244
637.98411
630.7976
626.65849
635.19915
668.41225
741.49263
870.23203
1034.0422
1096.1314
1096.3871
1068.0409
947.20278
827.7613
753.29237
717.71489
707.65995
711.08045
718.09173
723.25978
723.25969
718.09154
711.0802
707.65977
717.71482
753.29247
827.76144
947.20283
1068.0408
1096.3871
1096.4211
1084.0608
1002.2834
900.63311
830.27096
794.69122
783.68848
786.05519
792.29225
797.04497
797.04491
792.29211
786.055
783.68835
794.69118
830.27107
900.63327
1002.2834
1084.0607
1096.4211
)
;

boundaryField
{
    Wall
    {
        type            zeroGradient;
    }
    frontAndBack
    {
        type            empty;
    }
    atmosphere
    {
        type            zeroGradient;
    }
}


// ************************************************************************* //
