/*--------------------------------*- C++ -*----------------------------------*\
| =========                 |                                                 |
| \\      /  F ield         | OpenFOAM: The Open Source CFD Toolbox           |
|  \\    /   O peration     | Version:  3.0.1                                 |
|   \\  /    A nd           | Web:      www.OpenFOAM.org                      |
|    \\/     M anipulation  |                                                 |
\*---------------------------------------------------------------------------*/
FoamFile
{
    version     2.0;
    format      ascii;
    class       volScalarField;
    location    "32";
    object      thermalDiffusivity;
}
// * * * * * * * * * * * * * * * * * * * * * * * * * * * * * * * * * * * * * //

dimensions      [0 2 -1 0 0 0 0];

internalField   nonuniform List<scalar> 
800
(
1.5730604e-07
1.573147e-07
1.5731627e-07
1.5731642e-07
1.573164e-07
1.5731638e-07
1.5731638e-07
1.5731639e-07
1.5731639e-07
1.573164e-07
1.573164e-07
1.5731639e-07
1.5731639e-07
1.5731638e-07
1.5731638e-07
1.573164e-07
1.5731642e-07
1.5731627e-07
1.573147e-07
1.5730604e-07
1.5651829e-07
1.5658888e-07
1.5660655e-07
1.5661063e-07
1.5661092e-07
1.566104e-07
1.5660987e-07
1.5660951e-07
1.5660931e-07
1.5660923e-07
1.5660922e-07
1.5660931e-07
1.5660951e-07
1.5660987e-07
1.566104e-07
1.5661092e-07
1.5661062e-07
1.5660654e-07
1.5658888e-07
1.5651828e-07
1.5557534e-07
1.5569171e-07
1.5573032e-07
1.5574012e-07
1.557417e-07
1.5574118e-07
1.5574039e-07
1.557398e-07
1.5573945e-07
1.557393e-07
1.5573929e-07
1.5573945e-07
1.557398e-07
1.5574039e-07
1.5574118e-07
1.5574169e-07
1.5574012e-07
1.5573031e-07
1.5569171e-07
1.5557533e-07
1.5460471e-07
1.5475714e-07
1.5481483e-07
1.5482975e-07
1.5483257e-07
1.5483216e-07
1.5483121e-07
1.5483047e-07
1.5483002e-07
1.5482982e-07
1.5482982e-07
1.5483002e-07
1.5483047e-07
1.5483121e-07
1.5483215e-07
1.5483257e-07
1.5482974e-07
1.5481482e-07
1.5475713e-07
1.5460469e-07
1.5371316e-07
1.5388989e-07
1.5396278e-07
1.5398196e-07
1.5398553e-07
1.5398508e-07
1.5398396e-07
1.5398309e-07
1.5398256e-07
1.5398233e-07
1.5398233e-07
1.5398256e-07
1.5398309e-07
1.5398396e-07
1.5398507e-07
1.5398552e-07
1.5398196e-07
1.5396276e-07
1.5388988e-07
1.5371314e-07
1.5297686e-07
1.5316309e-07
1.5324615e-07
1.5326852e-07
1.5327214e-07
1.5327138e-07
1.5327001e-07
1.5326899e-07
1.5326839e-07
1.5326813e-07
1.5326812e-07
1.5326839e-07
1.5326899e-07
1.5327001e-07
1.5327137e-07
1.5327213e-07
1.5326851e-07
1.5324614e-07
1.5316308e-07
1.5297684e-07
1.5244793e-07
1.5262919e-07
1.5271608e-07
1.527403e-07
1.5274322e-07
1.5274183e-07
1.5274009e-07
1.5273888e-07
1.5273818e-07
1.5273789e-07
1.5273788e-07
1.5273818e-07
1.5273887e-07
1.5274008e-07
1.5274182e-07
1.5274321e-07
1.5274029e-07
1.5271606e-07
1.5262918e-07
1.5244792e-07
1.521515e-07
1.523167e-07
1.5239974e-07
1.5242427e-07
1.5242581e-07
1.5242348e-07
1.5242124e-07
1.5241977e-07
1.5241896e-07
1.5241862e-07
1.5241862e-07
1.5241896e-07
1.5241977e-07
1.5242123e-07
1.5242348e-07
1.5242581e-07
1.5242426e-07
1.5239973e-07
1.5231669e-07
1.5215149e-07
1.5209169e-07
1.52234e-07
1.5230403e-07
1.5232704e-07
1.523268e-07
1.5232327e-07
1.523204e-07
1.5231861e-07
1.5231766e-07
1.5231726e-07
1.5231726e-07
1.5231766e-07
1.5231861e-07
1.523204e-07
1.5232327e-07
1.5232679e-07
1.5232704e-07
1.5230402e-07
1.5223399e-07
1.5209168e-07
1.5225406e-07
1.5237194e-07
1.5242006e-07
1.5243966e-07
1.5243769e-07
1.5243296e-07
1.5242935e-07
1.5242718e-07
1.5242605e-07
1.5242558e-07
1.5242557e-07
1.5242605e-07
1.5242718e-07
1.5242935e-07
1.5243296e-07
1.5243768e-07
1.5243965e-07
1.5242006e-07
1.5237194e-07
1.5225405e-07
1.5260693e-07
1.5270665e-07
1.5272885e-07
1.527392e-07
1.5273596e-07
1.5273048e-07
1.52726e-07
1.5272339e-07
1.5272206e-07
1.527215e-07
1.527215e-07
1.5272206e-07
1.5272339e-07
1.52726e-07
1.5273048e-07
1.5273596e-07
1.527392e-07
1.5272885e-07
1.5270665e-07
1.5260693e-07
1.5311737e-07
1.5323621e-07
1.5320727e-07
1.5319672e-07
1.5319365e-07
1.5318734e-07
1.531816e-07
1.5317873e-07
1.5317719e-07
1.5317653e-07
1.5317653e-07
1.5317719e-07
1.5317873e-07
1.531816e-07
1.5318734e-07
1.5319365e-07
1.5319672e-07
1.5320727e-07
1.5323622e-07
1.5311737e-07
1.5379138e-07
1.5394731e-07
1.5383135e-07
1.5381498e-07
1.538157e-07
1.5380884e-07
1.5381558e-07
1.5381162e-07
1.538095e-07
1.5380869e-07
1.5380869e-07
1.538095e-07
1.5381162e-07
1.5381558e-07
1.5380884e-07
1.538157e-07
1.5381498e-07
1.5383135e-07
1.5394732e-07
1.5379138e-07
1.5450185e-07
1.5458688e-07
1.5450547e-07
1.5452028e-07
1.545335e-07
1.5473945e-07
1.546408e-07
1.5452865e-07
1.5452667e-07
1.5452566e-07
1.5452566e-07
1.5452668e-07
1.5452865e-07
1.546408e-07
1.5473948e-07
1.5453349e-07
1.5452028e-07
1.5450548e-07
1.5458688e-07
1.5450186e-07
1.5555499e-07
1.5536822e-07
1.5524525e-07
1.5532741e-07
1.5635458e-07
1.5633877e-07
1.5535245e-07
1.5528572e-07
1.5528528e-07
1.552842e-07
1.5528419e-07
1.5528528e-07
1.5528572e-07
1.5535258e-07
1.5633853e-07
1.5635444e-07
1.5532739e-07
1.5524526e-07
1.5536824e-07
1.5555502e-07
1.5648756e-07
1.6076455e-07
1.5741507e-07
1.5779823e-07
1.5878098e-07
1.5653431e-07
1.5598539e-07
1.560866e-07
1.5608516e-07
1.5608492e-07
1.5608492e-07
1.5608516e-07
1.560866e-07
1.5598536e-07
1.5653544e-07
1.5878108e-07
1.5779799e-07
1.5741499e-07
1.6076474e-07
1.5648759e-07
1.6026908e-07
1.6526905e-07
1.652139e-07
1.6402395e-07
1.5876401e-07
1.5693141e-07
1.568702e-07
1.5688208e-07
1.5688143e-07
1.5688413e-07
1.5688413e-07
1.5688143e-07
1.5688206e-07
1.5686978e-07
1.5693243e-07
1.587642e-07
1.640241e-07
1.6521389e-07
1.6526911e-07
1.602691e-07
1.6460875e-07
1.6555159e-07
1.657748e-07
1.6256643e-07
1.5838553e-07
1.5846396e-07
1.5770959e-07
1.5759848e-07
1.5759735e-07
1.5760602e-07
1.5760602e-07
1.5759735e-07
1.5759849e-07
1.5770817e-07
1.5845926e-07
1.5838563e-07
1.6256707e-07
1.6577486e-07
1.6555165e-07
1.646088e-07
1.6436595e-07
1.6560268e-07
1.6570071e-07
1.5845637e-07
1.5851277e-07
1.5879352e-07
1.5809844e-07
1.5815668e-07
1.5814816e-07
1.5816593e-07
1.5816593e-07
1.5814816e-07
1.5815662e-07
1.580995e-07
1.5878945e-07
1.5851287e-07
1.5845654e-07
1.6570062e-07
1.6560274e-07
1.6436601e-07
1.6372469e-07
1.6532576e-07
1.5945623e-07
1.5823451e-07
1.5837071e-07
1.5838273e-07
1.5875053e-07
1.5845243e-07
1.5844521e-07
1.5847469e-07
1.5847468e-07
1.5844521e-07
1.5845247e-07
1.5874808e-07
1.583826e-07
1.5837083e-07
1.5823461e-07
1.5945606e-07
1.6532582e-07
1.6372475e-07
1.6256389e-07
1.633578e-07
1.5804592e-07
1.5768038e-07
1.5846221e-07
1.5786382e-07
1.5834476e-07
1.5840818e-07
1.5839248e-07
1.5843463e-07
1.5843463e-07
1.5839248e-07
1.5840835e-07
1.5834678e-07
1.5786367e-07
1.584591e-07
1.5768048e-07
1.5804651e-07
1.6335736e-07
1.6256394e-07
1.567916e-07
1.5816053e-07
1.5915554e-07
1.566284e-07
1.5957218e-07
1.5911906e-07
1.5836965e-07
1.5789183e-07
1.5787621e-07
1.5793071e-07
1.5793071e-07
1.5787621e-07
1.5789185e-07
1.5837625e-07
1.5912605e-07
1.5957501e-07
1.5662851e-07
1.5915588e-07
1.5816317e-07
1.567945e-07
1.5110062e-07
1.5404726e-07
1.5737358e-07
1.5493143e-07
1.5797979e-07
1.5797219e-07
1.5678381e-07
1.5675745e-07
1.5675141e-07
1.5681637e-07
1.5681636e-07
1.5675141e-07
1.5675727e-07
1.5678115e-07
1.5797506e-07
1.5798265e-07
1.5493153e-07
1.5737391e-07
1.5404584e-07
1.5109893e-07
1.469617e-07
1.507083e-07
1.5396403e-07
1.5240936e-07
1.5338274e-07
1.5458671e-07
1.5505137e-07
1.5482543e-07
1.5483001e-07
1.5490261e-07
1.549026e-07
1.5483001e-07
1.5482567e-07
1.550504e-07
1.5458934e-07
1.5337693e-07
1.5240947e-07
1.5396224e-07
1.5070699e-07
1.4696044e-07
1.4179818e-07
1.4617986e-07
1.4802893e-07
1.4884994e-07
1.493697e-07
1.4956058e-07
1.5143371e-07
1.518971e-07
1.5192687e-07
1.5200265e-07
1.5200265e-07
1.5192687e-07
1.5189686e-07
1.5143229e-07
1.4955777e-07
1.493698e-07
1.4885005e-07
1.4802905e-07
1.4617866e-07
1.4179692e-07
1.3770461e-07
1.414384e-07
1.4306694e-07
1.4439247e-07
1.4491229e-07
1.465895e-07
1.4771068e-07
1.4802536e-07
1.4807327e-07
1.4814489e-07
1.4814489e-07
1.4807326e-07
1.4802533e-07
1.4771033e-07
1.4658768e-07
1.4491087e-07
1.4439119e-07
1.4306634e-07
1.4143792e-07
1.3770399e-07
1.6508911e-07
1.4440357e-07
1.4156531e-07
1.4357371e-07
1.4355663e-07
1.4487395e-07
1.4524165e-07
1.4521263e-07
1.4521138e-07
1.4524717e-07
1.4524717e-07
1.4521137e-07
1.4521261e-07
1.452415e-07
1.4487318e-07
1.4355796e-07
1.4357258e-07
1.4156584e-07
1.4440377e-07
1.6508741e-07
7.5614639e-07
2.9350982e-07
1.9664679e-07
1.8244527e-07
1.7549611e-07
1.7330253e-07
1.719064e-07
1.7103988e-07
1.7030933e-07
1.6996733e-07
1.6996728e-07
1.7030917e-07
1.710396e-07
1.7190598e-07
1.7330204e-07
1.7549725e-07
1.8244443e-07
1.9664555e-07
2.9350013e-07
7.5608944e-07
2.466011e-05
4.40304e-06
1.5730796e-06
1.0749781e-06
8.8809574e-07
8.0933071e-07
7.7346882e-07
7.5503628e-07
7.3954765e-07
7.3175784e-07
7.3175675e-07
7.395443e-07
7.5503003e-07
7.7345922e-07
8.0931826e-07
8.8807909e-07
1.0749517e-06
1.5730178e-06
4.4026982e-06
2.4657619e-05
0.00029232438
0.00010439321
5.868365e-05
4.2267615e-05
3.433286e-05
3.0723551e-05
2.907675e-05
2.819567e-05
2.7400636e-05
2.6997577e-05
2.6997516e-05
2.7400451e-05
2.8195345e-05
2.9076288e-05
3.0722964e-05
3.433209e-05
4.2266419e-05
5.8681842e-05
0.00010438964
0.00029232437
0.00028605847
0.00028616117
0.00028663602
0.00028721864
0.00028774324
0.00028816566
0.00028849068
0.00028871808
0.0002888586
0.0002889263
0.0002889263
0.0002888586
0.00028871808
0.00028849068
0.00028816566
0.00028774324
0.00028721864
0.00028663603
0.00028616117
0.00028605847
0.00028040285
0.00028063907
0.00028103061
0.00028148996
0.00028193048
0.00028230769
0.0002826059
0.00028282147
0.00028295909
0.00028302598
0.00028302598
0.00028295909
0.00028282147
0.0002826059
0.00028230769
0.00028193049
0.00028148997
0.00028103062
0.00028063908
0.00028040286
0.0002752477
0.00027556659
0.00027596971
0.00027639156
0.00027678875
0.00027713127
0.00027740527
0.00027760681
0.00027773773
0.00027780194
0.00027780194
0.00027773773
0.00027760681
0.00027740527
0.00027713127
0.00027678875
0.00027639156
0.00027596972
0.0002755666
0.00027524772
0.00027061951
0.00027098916
0.00027143152
0.00027186239
0.00027224974
0.00027257688
0.00027283617
0.00027302682
0.00027315115
0.00027321233
0.00027321233
0.00027315115
0.00027302682
0.00027283617
0.00027257688
0.00027224975
0.0002718624
0.00027143154
0.00027098918
0.00027061953
0.00026656125
0.00026694945
0.00026742233
0.00026787434
0.00026826936
0.00026859525
0.00026884964
0.00026903501
0.00026915539
0.00026921452
0.00026921452
0.00026915539
0.00026903501
0.00026884964
0.00026859526
0.00026826936
0.00026787434
0.00026742234
0.00026694946
0.00026656127
0.00026310381
0.00026348227
0.00026396244
0.00026442689
0.00026483119
0.00026516164
0.0002654172
0.00026560205
0.00026572153
0.00026578007
0.00026578007
0.00026572153
0.00026560205
0.0002654172
0.00026516164
0.00026483119
0.00026442689
0.00026396245
0.00026348228
0.00026310382
0.00026026908
0.00026061712
0.00026107969
0.00026153941
0.00026194509
0.00026227847
0.00026253668
0.00026272342
0.00026284406
0.00026290316
0.00026290316
0.00026284406
0.00026272343
0.00026253669
0.00026227848
0.00026194509
0.00026153942
0.0002610797
0.00026061713
0.00026026909
0.0002580802
0.00025838548
0.00025881116
0.00025924948
0.00025964578
0.00025997677
0.00026023596
0.00026042475
0.00026054727
0.00026060745
0.00026060745
0.00026054727
0.00026042475
0.00026023596
0.00025997678
0.00025964579
0.00025924949
0.00025881117
0.00025838549
0.00025808021
0.00025657056
0.00025682959
0.00025720968
0.00025761689
0.00025799617
0.00025831998
0.00025857762
0.00025876742
0.00025889153
0.00025895276
0.00025895276
0.00025889154
0.00025876742
0.00025857762
0.00025831999
0.00025799618
0.0002576169
0.00025720969
0.0002568296
0.00025657057
0.00025578731
0.00025600958
0.0002563522
0.00025673252
0.00025709603
0.00025741231
0.00025766746
0.0002578573
0.00025798226
0.00025804414
0.00025804414
0.00025798227
0.0002578573
0.00025766747
0.00025741232
0.00025709604
0.00025673252
0.00025635221
0.00025600959
0.00025578732
)
;

boundaryField
{
    Wall
    {
        type            calculated;
        value           uniform 4e-05;
    }
    frontAndBack
    {
        type            empty;
    }
    atmosphere
    {
        type            calculated;
        value           uniform 4e-05;
    }
}


// ************************************************************************* //
