/*--------------------------------*- C++ -*----------------------------------*\
| =========                 |                                                 |
| \\      /  F ield         | OpenFOAM: The Open Source CFD Toolbox           |
|  \\    /   O peration     | Version:  3.0.1                                 |
|   \\  /    A nd           | Web:      www.OpenFOAM.org                      |
|    \\/     M anipulation  |                                                 |
\*---------------------------------------------------------------------------*/
FoamFile
{
    version     2.0;
    format      ascii;
    class       volScalarField;
    location    "32";
    object      thermalDiff_gas;
}
// * * * * * * * * * * * * * * * * * * * * * * * * * * * * * * * * * * * * * //

dimensions      [0 2 -1 0 0 0 0];

internalField   nonuniform List<scalar> 
800
(
0.00032342344
0.00032344
0.00032344424
0.00032344499
0.0003234451
0.00032344513
0.00032344516
0.00032344521
0.00032344524
0.00032344526
0.00032344526
0.00032344524
0.0003234452
0.00032344516
0.00032344513
0.0003234451
0.000323445
0.00032344424
0.00032344
0.00032342344
0.00032247443
0.00032255787
0.00032258586
0.000322594
0.00032259585
0.00032259582
0.00032259537
0.00032259495
0.00032259468
0.00032259454
0.00032259454
0.00032259468
0.00032259495
0.00032259537
0.00032259582
0.00032259585
0.000322594
0.00032258585
0.00032255786
0.00032247442
0.00032159245
0.00032172228
0.00032177368
0.00032178962
0.00032179374
0.00032179413
0.00032179354
0.00032179291
0.00032179247
0.00032179225
0.00032179225
0.00032179247
0.00032179291
0.00032179354
0.00032179412
0.00032179374
0.00032178962
0.00032177367
0.00032172227
0.00032159243
0.00032086105
0.00032102607
0.00032109674
0.00032111917
0.00032112518
0.00032112599
0.0003211254
0.00032112467
0.00032112415
0.00032112389
0.00032112389
0.00032112415
0.00032112467
0.00032112539
0.00032112598
0.00032112517
0.00032111916
0.00032109673
0.00032102606
0.00032086103
0.00032033265
0.00032052058
0.0003206062
0.00032063341
0.00032064063
0.00032064165
0.00032064103
0.00032064024
0.00032063968
0.0003206394
0.0003206394
0.00032063968
0.00032064024
0.00032064102
0.00032064165
0.00032064063
0.0003206334
0.00032060619
0.00032052057
0.00032033262
0.00032005157
0.00032024779
0.00032034404
0.00032037423
0.00032038192
0.00032038284
0.00032038207
0.0003203812
0.00032038059
0.0003203803
0.00032038029
0.00032038059
0.00032038119
0.00032038207
0.00032038284
0.00032038191
0.00032037423
0.00032034403
0.00032024777
0.00032005155
0.0003200577
0.00032024579
0.00032034812
0.00032037951
0.00032038688
0.00032038734
0.00032038628
0.00032038524
0.00032038456
0.00032038424
0.00032038424
0.00032038456
0.00032038524
0.00032038627
0.00032038734
0.00032038687
0.0003203795
0.00032034811
0.00032024577
0.00032005768
0.00032038771
0.00032055015
0.00032065335
0.00032068421
0.00032069054
0.00032069017
0.00032068862
0.00032068733
0.00032068653
0.00032068616
0.00032068616
0.00032068653
0.00032068732
0.00032068862
0.00032069016
0.00032069053
0.0003206842
0.00032065334
0.00032055013
0.00032038769
0.00032107512
0.00032119422
0.00032129203
0.00032132073
0.00032132537
0.00032132381
0.00032132157
0.0003213199
0.00032131892
0.00032131848
0.00032131848
0.00032131892
0.0003213199
0.00032132157
0.00032132381
0.00032132537
0.00032132073
0.00032129203
0.00032119421
0.0003210751
0.00032215025
0.00032220909
0.00032229399
0.00032231909
0.00032232146
0.00032231838
0.00032231521
0.000322313
0.00032231177
0.0003223112
0.00032231121
0.00032231177
0.000322313
0.00032231521
0.00032231838
0.00032232146
0.00032231909
0.00032229399
0.00032220909
0.00032215024
0.00032364021
0.00032362354
0.00032368681
0.00032370718
0.00032370675
0.00032370175
0.00032369737
0.00032369445
0.00032369288
0.00032369216
0.00032369216
0.00032369288
0.00032369445
0.00032369738
0.00032370175
0.00032370676
0.00032370719
0.00032368681
0.00032362354
0.00032364021
0.00032556868
0.00032546362
0.00032549594
0.00032551093
0.00032550699
0.00032549959
0.00032549369
0.00032548984
0.00032548787
0.00032548695
0.00032548695
0.00032548788
0.00032548984
0.00032549369
0.00032549959
0.000325507
0.00032551093
0.00032549594
0.00032546363
0.00032556868
0.00032795508
0.00032775141
0.0003277443
0.00032775376
0.00032774497
0.00032773463
0.00032772688
0.00032772186
0.00032771938
0.00032771819
0.00032771819
0.00032771938
0.00032772186
0.00032772688
0.00032773464
0.00032774498
0.00032775377
0.00032774431
0.00032775143
0.00032795509
0.00033081294
0.00033050334
0.00033045115
0.00033045531
0.00033043927
0.00033042549
0.00033041559
0.00033040913
0.00033040551
0.00033040402
0.00033040402
0.00033040552
0.00033040913
0.0003304156
0.00033042551
0.00033043928
0.00033045533
0.00033045117
0.00033050336
0.00033081296
0.00033414543
0.00033372706
0.00033362898
0.00033362821
0.00033360159
0.00033358417
0.00033357201
0.00033356384
0.00033355717
0.00033355531
0.00033355532
0.00033355717
0.00033356385
0.00033357202
0.00033358419
0.00033360161
0.00033362823
0.000333629
0.00033372709
0.00033414546
0.00033793449
0.00033741145
0.00033727303
0.0003372684
0.00033722828
0.0003372078
0.00033719291
0.00033718293
0.00033716929
0.00033716696
0.00033716696
0.00033716929
0.00033718293
0.00033719292
0.00033720782
0.0003372283
0.00033726842
0.00033727305
0.00033741148
0.00033793453
0.00034213998
0.00034152842
0.00034136049
0.00034135561
0.00034130152
0.00034127861
0.00034125904
0.00034124745
0.00034122105
0.00034121802
0.00034121803
0.00034122105
0.00034124746
0.00034125906
0.00034127863
0.00034130155
0.00034135564
0.00034136052
0.00034152846
0.00034214002
0.00034669637
0.0003460299
0.00034584776
0.00034585075
0.00034578559
0.00034575941
0.00034573135
0.00034571891
0.00034567216
0.00034566825
0.00034566825
0.00034567217
0.00034571892
0.00034573136
0.00034575943
0.00034578561
0.00034585078
0.0003458478
0.00034602994
0.0003466964
0.00035150679
0.00035083927
0.0003506643
0.0003506897
0.00035061854
0.00035058673
0.00035054533
0.00035053365
0.00035045718
0.00035045243
0.00035045243
0.00035045718
0.00035053365
0.00035054534
0.00035058675
0.00035061856
0.00035068973
0.00035066434
0.00035083931
0.00035150683
0.0003564238
0.00035583773
0.00035570047
0.00035577086
0.00035569712
0.00035565769
0.00035559959
0.00035559152
0.0003554756
0.00035547064
0.00035547064
0.0003554756
0.00035559153
0.0003555996
0.00035565771
0.00035569714
0.00035577089
0.00035570051
0.00035583777
0.00035642384
0.0003612166
0.00036084043
0.00036078607
0.00036092995
0.000360853
0.00036080867
0.00036073586
0.00036073589
0.00036057452
0.00036057092
0.00036057092
0.00036057453
0.0003607359
0.00036073587
0.00036080868
0.00036085302
0.00036092998
0.0003607861
0.00036084047
0.00036121663
0.00036552572
0.00036554726
0.00036564867
0.00036590037
0.00036582391
0.00036577815
0.00036570184
0.00036571658
0.00036551323
0.00036551379
0.00036551379
0.00036551323
0.00036571658
0.00036570185
0.00036577817
0.00036582393
0.0003659004
0.0003656487
0.00036554729
0.00036552576
0.00036880725
0.00036947882
0.00036985795
0.00037025112
0.00037020286
0.00037016164
0.00037008728
0.00037012593
0.0003698982
0.00036990727
0.00036990727
0.0003698982
0.00037012594
0.00037008729
0.00037016166
0.00037020288
0.00037025115
0.00036985798
0.00036947886
0.0003688073
0.00037020172
0.00037187195
0.00037273512
0.00037329255
0.00037334691
0.00037330565
0.00037323268
0.00037330772
0.00037308825
0.00037311195
0.00037311196
0.00037308825
0.00037330773
0.00037323269
0.00037330567
0.00037334694
0.00037329258
0.00037273516
0.00037187202
0.00037020182
0.00036832506
0.00037151456
0.00037314158
0.00037395006
0.00037418602
0.00037416868
0.00037412023
0.00037424726
0.00037407937
0.0003741254
0.0003741254
0.00037407937
0.00037424727
0.00037412024
0.00037416871
0.00037418606
0.00037395011
0.00037314165
0.00037151467
0.00036832522
0.00036111054
0.00036656802
0.00036933723
0.0003706604
0.00037109798
0.00037124129
0.00037128903
0.00037148593
0.00037141494
0.00037149159
0.0003714916
0.00037141495
0.00037148595
0.00037128906
0.00037124134
0.00037109803
0.00037066048
0.00036933734
0.00036656821
0.00036111084
0.00034591261
0.00035458712
0.00035906356
0.00036105101
0.00036197227
0.00036227739
0.00036250755
0.00036278714
0.00036284568
0.00036295836
0.00036295837
0.0003628457
0.00036278717
0.0003625076
0.00036227746
0.00036197235
0.00036105113
0.00035906373
0.00035458743
0.00034591309
0.00032151896
0.00033251376
0.0003393058
0.00034250956
0.0003440717
0.00034478835
0.00034525555
0.0003456189
0.00034581147
0.00034595757
0.00034595758
0.0003458115
0.00034561895
0.00034525563
0.00034478846
0.00034407184
0.00034250973
0.00033930606
0.00033251421
0.00032151947
0.00030219127
0.00030629323
0.00031176569
0.00031496727
0.00031647381
0.00031796389
0.00031857518
0.00031895486
0.00031920741
0.00031935175
0.00031935176
0.00031920744
0.00031895492
0.00031857526
0.00031796399
0.00031647393
0.00031496742
0.00031176589
0.00030629342
0.00030219133
0.00029232438
0.00029388204
0.00029559121
0.00029688519
0.00029778222
0.00029835128
0.00029876074
0.00029902298
0.00029918064
0.00029925939
0.00029925939
0.00029918064
0.00029902299
0.00029876075
0.0002983513
0.00029778224
0.00029688522
0.00029559125
0.00029388206
0.00029232437
0.00028605847
0.00028616117
0.00028663602
0.00028721864
0.00028774324
0.00028816566
0.00028849068
0.00028871808
0.0002888586
0.0002889263
0.0002889263
0.0002888586
0.00028871808
0.00028849068
0.00028816566
0.00028774324
0.00028721864
0.00028663603
0.00028616117
0.00028605847
0.00028040285
0.00028063907
0.00028103061
0.00028148996
0.00028193048
0.00028230769
0.0002826059
0.00028282147
0.00028295909
0.00028302598
0.00028302598
0.00028295909
0.00028282147
0.0002826059
0.00028230769
0.00028193049
0.00028148997
0.00028103062
0.00028063908
0.00028040286
0.0002752477
0.00027556659
0.00027596971
0.00027639156
0.00027678875
0.00027713127
0.00027740527
0.00027760681
0.00027773773
0.00027780194
0.00027780194
0.00027773773
0.00027760681
0.00027740527
0.00027713127
0.00027678875
0.00027639156
0.00027596972
0.0002755666
0.00027524772
0.00027061951
0.00027098916
0.00027143152
0.00027186239
0.00027224974
0.00027257688
0.00027283617
0.00027302682
0.00027315115
0.00027321233
0.00027321233
0.00027315115
0.00027302682
0.00027283617
0.00027257688
0.00027224975
0.0002718624
0.00027143154
0.00027098918
0.00027061953
0.00026656125
0.00026694945
0.00026742233
0.00026787434
0.00026826936
0.00026859525
0.00026884964
0.00026903501
0.00026915539
0.00026921452
0.00026921452
0.00026915539
0.00026903501
0.00026884964
0.00026859526
0.00026826936
0.00026787434
0.00026742234
0.00026694946
0.00026656127
0.00026310381
0.00026348227
0.00026396244
0.00026442689
0.00026483119
0.00026516164
0.0002654172
0.00026560205
0.00026572153
0.00026578007
0.00026578007
0.00026572153
0.00026560205
0.0002654172
0.00026516164
0.00026483119
0.00026442689
0.00026396245
0.00026348228
0.00026310382
0.00026026908
0.00026061712
0.00026107969
0.00026153941
0.00026194509
0.00026227847
0.00026253668
0.00026272342
0.00026284406
0.00026290316
0.00026290316
0.00026284406
0.00026272343
0.00026253669
0.00026227848
0.00026194509
0.00026153942
0.0002610797
0.00026061713
0.00026026909
0.0002580802
0.00025838548
0.00025881116
0.00025924948
0.00025964578
0.00025997677
0.00026023596
0.00026042475
0.00026054727
0.00026060745
0.00026060745
0.00026054727
0.00026042475
0.00026023596
0.00025997678
0.00025964579
0.00025924949
0.00025881117
0.00025838549
0.00025808021
0.00025657056
0.00025682959
0.00025720968
0.00025761689
0.00025799617
0.00025831998
0.00025857762
0.00025876742
0.00025889153
0.00025895276
0.00025895276
0.00025889154
0.00025876742
0.00025857762
0.00025831999
0.00025799618
0.0002576169
0.00025720969
0.0002568296
0.00025657057
0.00025578731
0.00025600958
0.0002563522
0.00025673252
0.00025709603
0.00025741231
0.00025766746
0.0002578573
0.00025798226
0.00025804414
0.00025804414
0.00025798227
0.0002578573
0.00025766747
0.00025741232
0.00025709604
0.00025673252
0.00025635221
0.00025600959
0.00025578732
)
;

boundaryField
{
    Wall
    {
        type            calculated;
        value           uniform 0.1;
    }
    frontAndBack
    {
        type            empty;
    }
    atmosphere
    {
        type            calculated;
        value           uniform 0.1;
    }
}


// ************************************************************************* //
