/*--------------------------------*- C++ -*----------------------------------*\
| =========                 |                                                 |
| \\      /  F ield         | OpenFOAM: The Open Source CFD Toolbox           |
|  \\    /   O peration     | Version:  3.0.1                                 |
|   \\  /    A nd           | Web:      www.OpenFOAM.org                      |
|    \\/     M anipulation  |                                                 |
\*---------------------------------------------------------------------------*/
FoamFile
{
    version     2.0;
    format      ascii;
    class       volScalarField;
    location    "32";
    object      thermalDiff_foam;
}
// * * * * * * * * * * * * * * * * * * * * * * * * * * * * * * * * * * * * * //

dimensions      [0 2 -1 0 0 0 0];

internalField   nonuniform List<scalar> 
800
(
1.5730604e-07
1.573147e-07
1.5731627e-07
1.5731642e-07
1.573164e-07
1.5731638e-07
1.5731638e-07
1.5731639e-07
1.5731639e-07
1.573164e-07
1.573164e-07
1.5731639e-07
1.5731639e-07
1.5731638e-07
1.5731638e-07
1.573164e-07
1.5731642e-07
1.5731627e-07
1.573147e-07
1.5730604e-07
1.5651829e-07
1.5658888e-07
1.5660654e-07
1.5661062e-07
1.5661092e-07
1.566104e-07
1.5660987e-07
1.5660951e-07
1.566093e-07
1.5660921e-07
1.5660921e-07
1.566093e-07
1.5660951e-07
1.5660987e-07
1.566104e-07
1.5661092e-07
1.5661062e-07
1.5660654e-07
1.5658888e-07
1.5651828e-07
1.5557076e-07
1.5568737e-07
1.5572611e-07
1.5573593e-07
1.5573752e-07
1.55737e-07
1.5573621e-07
1.5573561e-07
1.5573526e-07
1.557351e-07
1.557351e-07
1.5573526e-07
1.5573561e-07
1.5573621e-07
1.55737e-07
1.5573752e-07
1.5573592e-07
1.5572611e-07
1.5568736e-07
1.5557075e-07
1.5458737e-07
1.5474199e-07
1.5480045e-07
1.5481563e-07
1.5481852e-07
1.5481811e-07
1.5481716e-07
1.548164e-07
1.5481594e-07
1.5481573e-07
1.5481573e-07
1.5481594e-07
1.548164e-07
1.5481716e-07
1.5481811e-07
1.5481851e-07
1.5481562e-07
1.5480044e-07
1.5474198e-07
1.5458735e-07
1.5366638e-07
1.5384864e-07
1.5392365e-07
1.5394346e-07
1.5394721e-07
1.5394678e-07
1.5394563e-07
1.5394473e-07
1.5394417e-07
1.5394392e-07
1.5394392e-07
1.5394417e-07
1.5394472e-07
1.5394563e-07
1.5394677e-07
1.539472e-07
1.5394346e-07
1.5392364e-07
1.5384863e-07
1.5366636e-07
1.5287984e-07
1.5307732e-07
1.5316508e-07
1.5318869e-07
1.5319266e-07
1.5319193e-07
1.5319051e-07
1.5318941e-07
1.5318875e-07
1.5318846e-07
1.5318846e-07
1.5318875e-07
1.5318941e-07
1.531905e-07
1.5319193e-07
1.5319266e-07
1.5318868e-07
1.5316507e-07
1.530773e-07
1.5287982e-07
1.5227393e-07
1.524751e-07
1.525711e-07
1.5259761e-07
1.5260112e-07
1.5259977e-07
1.5259792e-07
1.5259657e-07
1.5259578e-07
1.5259543e-07
1.5259543e-07
1.5259577e-07
1.5259657e-07
1.5259791e-07
1.5259977e-07
1.5260112e-07
1.525976e-07
1.5257109e-07
1.5247509e-07
1.5227392e-07
1.5186819e-07
1.5206506e-07
1.5216432e-07
1.5219278e-07
1.5219522e-07
1.5219292e-07
1.5219048e-07
1.5218879e-07
1.5218782e-07
1.5218739e-07
1.5218739e-07
1.5218782e-07
1.5218879e-07
1.5219047e-07
1.5219292e-07
1.5219521e-07
1.5219278e-07
1.5216431e-07
1.5206505e-07
1.5186818e-07
1.5166138e-07
1.5185014e-07
1.5194725e-07
1.5197678e-07
1.5197779e-07
1.5197427e-07
1.5197107e-07
1.5196894e-07
1.5196773e-07
1.5196721e-07
1.5196721e-07
1.5196773e-07
1.5196894e-07
1.5197106e-07
1.5197426e-07
1.5197779e-07
1.5197678e-07
1.5194724e-07
1.5185013e-07
1.5166137e-07
1.5163404e-07
1.5181712e-07
1.5190707e-07
1.5193695e-07
1.5193669e-07
1.5193187e-07
1.5192775e-07
1.5192508e-07
1.5192358e-07
1.5192292e-07
1.5192292e-07
1.5192358e-07
1.5192508e-07
1.5192775e-07
1.5193187e-07
1.5193669e-07
1.5193694e-07
1.5190707e-07
1.5181711e-07
1.5163403e-07
1.517523e-07
1.5193833e-07
1.5201719e-07
1.5204689e-07
1.5204614e-07
1.5204036e-07
1.5203516e-07
1.5203184e-07
1.5202999e-07
1.5202918e-07
1.5202918e-07
1.5202999e-07
1.5203184e-07
1.5203516e-07
1.5204035e-07
1.5204614e-07
1.5204689e-07
1.5201719e-07
1.5193833e-07
1.517523e-07
1.5197552e-07
1.5217909e-07
1.5224507e-07
1.5227434e-07
1.5227447e-07
1.5226852e-07
1.5226208e-07
1.5225801e-07
1.5225576e-07
1.5225475e-07
1.5225475e-07
1.5225576e-07
1.5225801e-07
1.5226208e-07
1.5226852e-07
1.5227447e-07
1.5227434e-07
1.5224506e-07
1.5217909e-07
1.5197551e-07
1.5230384e-07
1.5255024e-07
1.5259997e-07
1.526285e-07
1.5263583e-07
1.5263302e-07
1.5262504e-07
1.5262e-07
1.5261737e-07
1.5261609e-07
1.5261609e-07
1.5261736e-07
1.5262e-07
1.5262504e-07
1.5263302e-07
1.5263583e-07
1.5262849e-07
1.5259997e-07
1.5255024e-07
1.5230383e-07
1.5263377e-07
1.5295173e-07
1.5299885e-07
1.5302634e-07
1.5304054e-07
1.5304191e-07
1.530303e-07
1.5302406e-07
1.5302118e-07
1.5301956e-07
1.5301956e-07
1.5302118e-07
1.5302406e-07
1.530303e-07
1.5304191e-07
1.5304054e-07
1.5302634e-07
1.5299885e-07
1.5295173e-07
1.5263377e-07
1.5290465e-07
1.5333125e-07
1.5339041e-07
1.5341731e-07
1.5344412e-07
1.5344898e-07
1.534351e-07
1.5342726e-07
1.5342427e-07
1.5342244e-07
1.5342244e-07
1.5342427e-07
1.5342726e-07
1.534351e-07
1.5344898e-07
1.5344412e-07
1.5341731e-07
1.5339041e-07
1.5333125e-07
1.5290464e-07
1.5313241e-07
1.5369089e-07
1.5378093e-07
1.5380997e-07
1.5384916e-07
1.5385756e-07
1.5384087e-07
1.538307e-07
1.5382761e-07
1.5382648e-07
1.5382648e-07
1.5382761e-07
1.538307e-07
1.5384087e-07
1.5385756e-07
1.5384916e-07
1.5380997e-07
1.5378093e-07
1.5369089e-07
1.5313241e-07
1.5324522e-07
1.5397859e-07
1.5412394e-07
1.5416223e-07
1.5421606e-07
1.5422737e-07
1.5420495e-07
1.5419162e-07
1.5418836e-07
1.5418997e-07
1.5418996e-07
1.5418835e-07
1.5419162e-07
1.5420495e-07
1.5422736e-07
1.5421606e-07
1.5416222e-07
1.5412394e-07
1.5397858e-07
1.5324522e-07
1.5314727e-07
1.5411222e-07
1.5434152e-07
1.5440093e-07
1.5447516e-07
1.5448668e-07
1.5445458e-07
1.5443737e-07
1.5443322e-07
1.5444055e-07
1.5444055e-07
1.5443322e-07
1.5443736e-07
1.5445457e-07
1.5448668e-07
1.5447515e-07
1.5440093e-07
1.5434152e-07
1.5411222e-07
1.5314727e-07
1.527454e-07
1.540043e-07
1.5434966e-07
1.5444598e-07
1.5454798e-07
1.5455562e-07
1.545104e-07
1.5448877e-07
1.5448198e-07
1.5449821e-07
1.5449821e-07
1.5448197e-07
1.5448876e-07
1.5451039e-07
1.5455562e-07
1.5454797e-07
1.5444597e-07
1.5434965e-07
1.540043e-07
1.5274539e-07
1.5194155e-07
1.5356202e-07
1.5405966e-07
1.5421143e-07
1.5434859e-07
1.5434931e-07
1.5428951e-07
1.5426312e-07
1.5425168e-07
1.5427929e-07
1.5427928e-07
1.5425167e-07
1.5426311e-07
1.542895e-07
1.543493e-07
1.5434858e-07
1.5421142e-07
1.5405965e-07
1.5356201e-07
1.5194154e-07
1.5062221e-07
1.5267917e-07
1.5337162e-07
1.535987e-07
1.5377852e-07
1.5377286e-07
1.5369982e-07
1.536685e-07
1.5365242e-07
1.5369255e-07
1.5369255e-07
1.5365242e-07
1.536685e-07
1.5369981e-07
1.5377285e-07
1.5377851e-07
1.5359869e-07
1.5337161e-07
1.5267916e-07
1.506222e-07
1.4865301e-07
1.5122695e-07
1.5216558e-07
1.5249023e-07
1.5272349e-07
1.5271467e-07
1.5263207e-07
1.5259577e-07
1.5257905e-07
1.5263125e-07
1.5263125e-07
1.5257905e-07
1.5259576e-07
1.5263206e-07
1.5271466e-07
1.5272348e-07
1.5249022e-07
1.5216557e-07
1.5122694e-07
1.4865301e-07
1.4587529e-07
1.4904828e-07
1.502956e-07
1.507436e-07
1.5104847e-07
1.5104221e-07
1.5095238e-07
1.5091108e-07
1.5090129e-07
1.5096364e-07
1.5096364e-07
1.5090129e-07
1.5091107e-07
1.5095237e-07
1.510422e-07
1.5104846e-07
1.5074359e-07
1.5029559e-07
1.4904827e-07
1.4587529e-07
1.4209543e-07
1.4595312e-07
1.4758361e-07
1.48187e-07
1.4858809e-07
1.4859337e-07
1.4849885e-07
1.484525e-07
1.4845799e-07
1.4852743e-07
1.4852743e-07
1.4845799e-07
1.4845249e-07
1.4849884e-07
1.4859336e-07
1.4858809e-07
1.4818699e-07
1.4758361e-07
1.4595312e-07
1.4209545e-07
1.3708821e-07
1.4171427e-07
1.438078e-07
1.4462002e-07
1.4513678e-07
1.4517627e-07
1.4508496e-07
1.4503352e-07
1.4505982e-07
1.4513253e-07
1.4513253e-07
1.4505982e-07
1.4503351e-07
1.4508496e-07
1.4517626e-07
1.4513677e-07
1.4462001e-07
1.438078e-07
1.4171429e-07
1.3708825e-07
1.3063116e-07
1.3608116e-07
1.3872157e-07
1.3980914e-07
1.4046022e-07
1.4056988e-07
1.4049529e-07
1.4043882e-07
1.4048607e-07
1.4055775e-07
1.4055775e-07
1.4048607e-07
1.4043882e-07
1.4049529e-07
1.4056987e-07
1.4046022e-07
1.3980914e-07
1.3872158e-07
1.360812e-07
1.3063123e-07
1.2256302e-07
1.2880516e-07
1.3207318e-07
1.3348902e-07
1.3430436e-07
1.345236e-07
1.344789e-07
1.3441775e-07
1.344798e-07
1.3454591e-07
1.3454591e-07
1.344798e-07
1.3441775e-07
1.344789e-07
1.345236e-07
1.3430437e-07
1.3348903e-07
1.320732e-07
1.2880522e-07
1.2256312e-07
1.1290835e-07
1.1974771e-07
1.2366466e-07
1.2541694e-07
1.2643596e-07
1.2679532e-07
1.267867e-07
1.2672212e-07
1.2678785e-07
1.2684394e-07
1.2684394e-07
1.2678785e-07
1.2672212e-07
1.2678671e-07
1.2679532e-07
1.2643596e-07
1.2541696e-07
1.236647e-07
1.197478e-07
1.1290848e-07
1.0214906e-07
1.0908379e-07
1.1348654e-07
1.1555525e-07
1.1682033e-07
1.1729435e-07
1.1731822e-07
1.1725283e-07
1.1730943e-07
1.1735196e-07
1.1735196e-07
1.1730943e-07
1.1725283e-07
1.1731823e-07
1.1729436e-07
1.1682034e-07
1.1555528e-07
1.1348658e-07
1.0908389e-07
1.0214921e-07
0.00029232438
9.7595522e-08
1.0211718e-07
1.0441457e-07
1.0571826e-07
1.0640115e-07
1.0645027e-07
1.0639024e-07
1.0642849e-07
1.064563e-07
1.064563e-07
1.064285e-07
1.0639025e-07
1.0645027e-07
1.0640116e-07
1.0571828e-07
1.044146e-07
1.0211724e-07
9.7595633e-08
0.00029232437
0.00028605847
0.00028616117
0.00028663602
0.00028721864
0.00028774324
0.00028816566
0.00028849068
0.00028871808
0.0002888586
0.0002889263
0.0002889263
0.0002888586
0.00028871808
0.00028849068
0.00028816566
0.00028774324
0.00028721864
0.00028663603
0.00028616117
0.00028605847
0.00028040285
0.00028063907
0.00028103061
0.00028148996
0.00028193048
0.00028230769
0.0002826059
0.00028282147
0.00028295909
0.00028302598
0.00028302598
0.00028295909
0.00028282147
0.0002826059
0.00028230769
0.00028193049
0.00028148997
0.00028103062
0.00028063908
0.00028040286
0.0002752477
0.00027556659
0.00027596971
0.00027639156
0.00027678875
0.00027713127
0.00027740527
0.00027760681
0.00027773773
0.00027780194
0.00027780194
0.00027773773
0.00027760681
0.00027740527
0.00027713127
0.00027678875
0.00027639156
0.00027596972
0.0002755666
0.00027524772
0.00027061951
0.00027098916
0.00027143152
0.00027186239
0.00027224974
0.00027257688
0.00027283617
0.00027302682
0.00027315115
0.00027321233
0.00027321233
0.00027315115
0.00027302682
0.00027283617
0.00027257688
0.00027224975
0.0002718624
0.00027143154
0.00027098918
0.00027061953
0.00026656125
0.00026694945
0.00026742233
0.00026787434
0.00026826936
0.00026859525
0.00026884964
0.00026903501
0.00026915539
0.00026921452
0.00026921452
0.00026915539
0.00026903501
0.00026884964
0.00026859526
0.00026826936
0.00026787434
0.00026742234
0.00026694946
0.00026656127
0.00026310381
0.00026348227
0.00026396244
0.00026442689
0.00026483119
0.00026516164
0.0002654172
0.00026560205
0.00026572153
0.00026578007
0.00026578007
0.00026572153
0.00026560205
0.0002654172
0.00026516164
0.00026483119
0.00026442689
0.00026396245
0.00026348228
0.00026310382
0.00026026908
0.00026061712
0.00026107969
0.00026153941
0.00026194509
0.00026227847
0.00026253668
0.00026272342
0.00026284406
0.00026290316
0.00026290316
0.00026284406
0.00026272343
0.00026253669
0.00026227848
0.00026194509
0.00026153942
0.0002610797
0.00026061713
0.00026026909
0.0002580802
0.00025838548
0.00025881116
0.00025924948
0.00025964578
0.00025997677
0.00026023596
0.00026042475
0.00026054727
0.00026060745
0.00026060745
0.00026054727
0.00026042475
0.00026023596
0.00025997678
0.00025964579
0.00025924949
0.00025881117
0.00025838549
0.00025808021
0.00025657056
0.00025682959
0.00025720968
0.00025761689
0.00025799617
0.00025831998
0.00025857762
0.00025876742
0.00025889153
0.00025895276
0.00025895276
0.00025889154
0.00025876742
0.00025857762
0.00025831999
0.00025799618
0.0002576169
0.00025720969
0.0002568296
0.00025657057
0.00025578731
0.00025600958
0.0002563522
0.00025673252
0.00025709603
0.00025741231
0.00025766746
0.0002578573
0.00025798226
0.00025804414
0.00025804414
0.00025798227
0.0002578573
0.00025766747
0.00025741232
0.00025709604
0.00025673252
0.00025635221
0.00025600959
0.00025578732
)
;

boundaryField
{
    Wall
    {
        type            calculated;
        value           uniform 4e-05;
    }
    frontAndBack
    {
        type            empty;
    }
    atmosphere
    {
        type            calculated;
        value           uniform 4e-05;
    }
}


// ************************************************************************* //
