/*--------------------------------*- C++ -*----------------------------------*\
| =========                 |                                                 |
| \\      /  F ield         | OpenFOAM: The Open Source CFD Toolbox           |
|  \\    /   O peration     | Version:  3.0.1                                 |
|   \\  /    A nd           | Web:      www.OpenFOAM.org                      |
|    \\/     M anipulation  |                                                 |
\*---------------------------------------------------------------------------*/
FoamFile
{
    version     2.0;
    format      ascii;
    class       volScalarField;
    location    "32";
    object      thermalConductivity;
}
// * * * * * * * * * * * * * * * * * * * * * * * * * * * * * * * * * * * * * //

dimensions      [0 2 -1 0 0 0 0];

internalField   nonuniform List<scalar> 
800
(
0.016995993
0.01699552
0.016995434
0.016995426
0.016995427
0.016995428
0.016995428
0.016995428
0.016995427
0.016995427
0.016995427
0.016995427
0.016995428
0.016995428
0.016995428
0.016995427
0.016995426
0.016995434
0.01699552
0.016995993
0.017039403
0.017035484
0.017034504
0.017034278
0.017034261
0.01703429
0.01703432
0.01703434
0.017034351
0.017034356
0.017034356
0.017034351
0.01703434
0.01703432
0.01703429
0.017034261
0.017034278
0.017034504
0.017035484
0.017039403
0.017092574
0.017085973
0.017083783
0.017083229
0.017083139
0.017083168
0.017083213
0.017083247
0.017083267
0.017083276
0.017083276
0.017083267
0.017083247
0.017083213
0.017083169
0.017083139
0.01708323
0.017083784
0.017085973
0.017092575
0.017148896
0.017139962
0.017136592
0.017135717
0.017135551
0.017135574
0.017135629
0.017135673
0.017135699
0.017135711
0.017135711
0.017135699
0.017135673
0.017135629
0.017135574
0.017135551
0.017135718
0.017136592
0.017139962
0.017148897
0.017202727
0.017191989
0.017187582
0.017186419
0.0171862
0.017186225
0.017186292
0.017186345
0.017186378
0.017186393
0.017186393
0.017186378
0.017186345
0.017186292
0.017186225
0.0171862
0.01718642
0.017187583
0.01719199
0.017202728
0.017249555
0.017237723
0.017232481
0.017231072
0.017230835
0.017230879
0.017230964
0.017231029
0.017231068
0.017231086
0.017231086
0.017231068
0.017231029
0.017230964
0.017230879
0.017230835
0.017231072
0.017232481
0.017237724
0.017249557
0.01728618
0.017273966
0.017268157
0.017266555
0.017266342
0.017266424
0.017266536
0.017266617
0.017266665
0.017266687
0.017266687
0.017266665
0.017266617
0.017266536
0.017266424
0.017266343
0.017266555
0.017268157
0.017273967
0.017286181
0.017310979
0.017298919
0.017292858
0.017291122
0.017290974
0.017291114
0.017291263
0.017291365
0.017291425
0.017291451
0.017291451
0.017291425
0.017291366
0.017291263
0.017291114
0.017290974
0.017291123
0.017292859
0.017298919
0.01731098
0.017323705
0.017312088
0.01730613
0.01730432
0.017304258
0.017304474
0.01730467
0.0173048
0.017304875
0.017304907
0.017304907
0.017304875
0.017304801
0.017304671
0.017304475
0.017304259
0.017304321
0.01730613
0.017312088
0.017323706
0.017325392
0.017314116
0.017308593
0.017306761
0.017306777
0.017307072
0.017307325
0.017307489
0.017307581
0.017307621
0.017307621
0.017307581
0.017307489
0.017307325
0.017307072
0.017306777
0.017306761
0.017308593
0.017314117
0.017325392
0.017318103
0.017306676
0.017301847
0.017300029
0.017300076
0.017300429
0.017300747
0.01730095
0.017301063
0.017301113
0.017301113
0.017301063
0.01730095
0.017300747
0.017300429
0.017300076
0.01730003
0.017301847
0.017306677
0.017318104
0.017304398
0.017291957
0.017287937
0.017286155
0.017286147
0.017286509
0.017286901
0.017287149
0.017287286
0.017287348
0.017287348
0.017287286
0.017287149
0.017286901
0.017286509
0.017286148
0.017286156
0.017287937
0.017291957
0.017304398
0.017284361
0.017269418
0.017266412
0.017264689
0.017264246
0.017264416
0.017264898
0.017265202
0.017265361
0.017265438
0.017265438
0.017265361
0.017265202
0.017264898
0.017264416
0.017264246
0.017264689
0.017266412
0.017269418
0.017284361
0.017264371
0.017245242
0.017242418
0.017240772
0.017239923
0.01723984
0.017240535
0.017240909
0.017241081
0.017241178
0.017241178
0.017241081
0.017240909
0.017240536
0.017239841
0.017239923
0.017240772
0.017242418
0.017245242
0.017264371
0.017248066
0.017222582
0.017219067
0.01721747
0.017215879
0.017215591
0.017216414
0.017216879
0.017217057
0.017217165
0.017217165
0.017217057
0.017216879
0.017216414
0.017215591
0.017215879
0.01721747
0.017219067
0.017222582
0.017248066
0.017234431
0.017201281
0.017195974
0.017194264
0.017191959
0.017191465
0.017192446
0.017193044
0.017193226
0.017193293
0.017193293
0.017193226
0.017193045
0.017192446
0.017191465
0.017191959
0.017194264
0.017195974
0.017201281
0.017234431
0.017227702
0.017184359
0.01717585
0.017173613
0.01717047
0.017169811
0.017171119
0.017171897
0.017172087
0.017171993
0.017171993
0.017172087
0.017171897
0.017171119
0.017169811
0.01717047
0.017173613
0.01717585
0.017184359
0.017227702
0.017233543
0.017176535
0.017163161
0.017159707
0.017155398
0.017154729
0.017156592
0.017157591
0.017157832
0.017157406
0.017157406
0.017157832
0.017157591
0.017156592
0.017154729
0.017155398
0.017159707
0.017163162
0.017176535
0.017233544
0.01725764
0.017182852
0.017162688
0.017157091
0.017151176
0.017150733
0.017153354
0.017154608
0.017155002
0.017154061
0.017154061
0.017155002
0.017154608
0.017153354
0.017150734
0.017151177
0.017157091
0.017162688
0.017182852
0.01725764
0.017306479
0.017208895
0.01717961
0.017170741
0.01716275
0.017162708
0.017166189
0.017167726
0.017168393
0.017166785
0.017166785
0.017168394
0.017167727
0.017166189
0.017162709
0.017162751
0.017170741
0.01717961
0.017208895
0.01730648
0.017388541
0.017261631
0.017220183
0.017206725
0.017196116
0.017196449
0.017200754
0.017202602
0.017203551
0.017201183
0.017201183
0.017203551
0.017202602
0.017200754
0.017196449
0.017196116
0.017206726
0.017220183
0.017261632
0.017388541
0.017515635
0.017350628
0.017292781
0.01727305
0.01725896
0.017259491
0.017264473
0.017266666
0.017267676
0.017264523
0.017264523
0.017267676
0.017266666
0.017264474
0.017259492
0.01725896
0.017273051
0.017292781
0.017350628
0.017515635
0.017704993
0.017489666
0.017409231
0.017380889
0.017361764
0.017362156
0.017367778
0.017370367
0.017370981
0.017367073
0.017367073
0.017370981
0.017370368
0.017367779
0.017362156
0.017361765
0.01738089
0.017409232
0.017489666
0.017704993
0.017983682
0.017699518
0.017587089
0.017546556
0.017519922
0.017519574
0.017525827
0.017528899
0.017528534
0.017523935
0.017523935
0.017528535
0.017528899
0.017525828
0.017519575
0.017519923
0.017546556
0.017587089
0.017699517
0.017983681
0.018396087
0.018013251
0.017854245
0.017794723
0.017757457
0.017754628
0.017761172
0.017764866
0.017762977
0.017757761
0.017757761
0.017762977
0.017764867
0.017761173
0.017754628
0.017757457
0.017794723
0.017854245
0.018013249
0.018396084
0.019017432
0.018485794
0.018255626
0.018165383
0.01811256
0.018103749
0.018109739
0.018114282
0.018110481
0.018104722
0.018104722
0.018110481
0.018114282
0.018109739
0.01810375
0.01811256
0.018165383
0.018255625
0.01848579
0.019017425
0.019984023
0.019215258
0.018868616
0.018728424
0.018650212
0.018629485
0.018633701
0.018639476
0.018633615
0.018627382
0.018627382
0.018633615
0.018639476
0.018633701
0.018629485
0.018650211
0.018728423
0.018868613
0.019215251
0.019984009
0.021563479
0.020387156
0.019836683
0.019613216
0.019489015
0.019446172
0.019447193
0.019454859
0.019447057
0.019440412
0.019440412
0.019447057
0.019454859
0.019447193
0.019446171
0.019489014
0.019613214
0.019836678
0.020387143
0.021563453
0.024324533
0.02238308
0.021451084
0.021070266
0.020852485
0.020773605
0.020769671
0.020780458
0.02077112
0.020764116
0.020764117
0.020771119
0.020780458
0.02076967
0.020773604
0.020852482
0.021070262
0.021451075
0.022383056
0.024324482
0.024
0.02610207
0.024335274
0.023609646
0.023237144
0.023052001
0.023038934
0.023054907
0.023044722
0.023037332
0.023037332
0.023044722
0.023054905
0.023038932
0.023051998
0.02323714
0.023609638
0.024335256
0.02610202
0.024
0.024
0.024
0.024
0.024
0.024
0.024
0.024
0.024
0.024
0.024
0.024
0.024
0.024
0.024
0.024
0.024
0.024
0.024
0.024
0.024
0.024
0.024
0.024
0.024
0.024
0.024
0.024
0.024
0.024
0.024
0.024
0.024
0.024
0.024
0.024
0.024
0.024
0.024
0.024
0.024
0.024
0.024
0.024
0.024
0.024
0.024
0.024
0.024
0.024
0.024
0.024
0.024
0.024
0.024
0.024
0.024
0.024
0.024
0.024
0.024
0.024
0.024
0.024
0.024
0.024
0.024
0.024
0.024
0.024
0.024
0.024
0.024
0.024
0.024
0.024
0.024
0.024
0.024
0.024
0.024
0.024
0.024
0.024
0.024
0.024
0.024
0.024
0.024
0.024
0.024
0.024
0.024
0.024
0.024
0.024
0.024
0.024
0.024
0.024
0.024
0.024
0.024
0.024
0.024
0.024
0.024
0.024
0.024
0.024
0.024
0.024
0.024
0.024
0.024
0.024
0.024
0.024
0.024
0.024
0.024
0.024
0.024
0.024
0.024
0.024
0.024
0.024
0.024
0.024
0.024
0.024
0.024
0.024
0.024
0.024
0.024
0.024
0.024
0.024
0.024
0.024
0.024
0.024
0.024
0.024
0.024
0.024
0.024
0.024
0.024
0.024
0.024
0.024
0.024
0.024
0.024
0.024
0.024
0.024
0.024
0.024
0.024
0.024
0.024
0.024
0.024
0.024
0.024
0.024
0.024
0.024
0.024
0.024
0.024
0.024
0.024
0.024
0.024
0.024
0.024
0.024
0.024
0.024
0.024
0.024
0.024
0.024
0.024
0.024
0.024
0.024
0.024
0.024
0.024
0.024
0.024
0.024
0.024
0.024
0.024
)
;

boundaryField
{
    Wall
    {
        type            calculated;
        value           uniform 0.024;
    }
    frontAndBack
    {
        type            empty;
    }
    atmosphere
    {
        type            calculated;
        value           uniform 0.024;
    }
}


// ************************************************************************* //
