/*--------------------------------*- C++ -*----------------------------------*\
| =========                 |                                                 |
| \\      /  F ield         | OpenFOAM: The Open Source CFD Toolbox           |
|  \\    /   O peration     | Version:  3.0.1                                 |
|   \\  /    A nd           | Web:      www.OpenFOAM.org                      |
|    \\/     M anipulation  |                                                 |
\*---------------------------------------------------------------------------*/
FoamFile
{
    version     2.0;
    format      ascii;
    class       volScalarField;
    location    "32";
    object      TS;
}
// * * * * * * * * * * * * * * * * * * * * * * * * * * * * * * * * * * * * * //

dimensions      [0 0 0 1 0 0 0];

internalField   nonuniform List<scalar> 
800
(
359.94078
359.95114
359.9538
359.95427
359.95434
359.95435
359.95438
359.9544
359.95443
359.95444
359.95444
359.95443
359.9544
359.95438
359.95435
359.95434
359.95427
359.9538
359.95114
359.94078
359.35426
359.40622
359.42369
359.42879
359.42996
359.42995
359.42967
359.42941
359.42924
359.42915
359.42915
359.42923
359.42941
359.42967
359.42995
359.42996
359.42879
359.42369
359.40622
359.35425
358.80847
358.88936
358.92145
358.93143
358.93402
358.93428
358.93392
358.93352
358.93325
358.93311
358.93311
358.93325
358.93352
358.93391
358.93427
358.93402
358.93143
358.92144
358.88935
358.80846
358.35549
358.45835
358.5025
358.51655
358.52033
358.52085
358.52048
358.52003
358.51971
358.51955
358.51955
358.51971
358.52003
358.52048
358.52084
358.52032
358.51654
358.50249
358.45834
358.35547
358.02808
358.14528
358.19878
358.21583
358.22038
358.22103
358.22065
358.22016
358.21981
358.21964
358.21964
358.21981
358.22016
358.22065
358.22103
358.22037
358.21582
358.19878
358.14527
358.02807
357.85398
357.9764
358.03655
358.05547
358.06031
358.06091
358.06044
358.0599
358.05952
358.05933
358.05933
358.05952
358.05989
358.06044
358.06091
358.06031
358.05546
358.03654
357.97639
357.85396
357.85812
357.97551
358.03945
358.05912
358.06377
358.06408
358.06343
358.06278
358.06236
358.06216
358.06216
358.06236
358.06278
358.06342
358.06408
358.06376
358.05912
358.03944
357.9755
357.85811
358.06341
358.16482
358.22928
358.24861
358.2526
358.25239
358.25143
358.25063
358.25014
358.24991
358.24991
358.25014
358.25063
358.25143
358.25239
358.2526
358.2486
358.22927
358.16481
358.0634
358.4907
358.56506
358.62611
358.64407
358.64699
358.64604
358.64465
358.64361
358.64301
358.64273
358.64273
358.64301
358.64361
358.64465
358.64604
358.64699
358.64406
358.62611
358.56505
358.4907
359.15874
359.19543
359.24839
359.26405
359.26554
359.26363
359.26167
359.26029
359.25953
359.25918
359.25918
359.25953
359.2603
359.26167
359.26363
359.26554
359.26405
359.24839
359.19543
359.15873
360.0841
360.07358
360.11301
360.12565
360.12537
360.12225
360.11953
360.11772
360.11674
360.11629
360.11629
360.11674
360.11772
360.11954
360.12226
360.12537
360.12565
360.11301
360.07358
360.0841
361.28106
361.21525
361.23536
361.24454
361.24205
361.23743
361.23376
361.23137
361.23015
361.22957
361.22957
361.23015
361.23137
361.23376
361.23743
361.24205
361.24454
361.23536
361.21526
361.28106
362.76106
362.6336
362.62908
362.63468
362.62915
362.6227
362.61787
362.61475
362.61321
362.61247
362.61247
362.61321
362.61476
362.61787
362.6227
362.62915
362.63468
362.62909
362.63361
362.76107
364.53173
364.33805
364.30535
364.30747
364.29745
364.28885
364.28269
364.27867
364.27644
364.27551
364.27551
364.27644
364.27868
364.28269
364.28886
364.29746
364.30748
364.30536
364.33806
364.53174
366.59426
366.33259
366.27107
366.26993
366.25339
366.2425
366.23493
366.22985
366.22578
366.22463
366.22463
366.22578
366.22986
366.23493
366.24251
366.2534
366.26994
366.27108
366.3326
366.59427
368.93687
368.60966
368.52259
368.51881
368.49395
368.48111
368.47184
368.46564
368.45739
368.45594
368.45595
368.45739
368.46565
368.47185
368.48112
368.49396
368.51883
368.52261
368.60967
368.9369
371.53452
371.15136
371.04525
371.04096
371.00744
370.99304
370.98093
370.97372
370.95779
370.95592
370.95592
370.95779
370.97372
370.98094
370.99305
371.00746
371.04098
371.04527
371.15138
371.53454
374.34704
373.92796
373.81202
373.81199
373.77152
373.75508
373.73786
373.73008
373.70192
373.69949
373.69949
373.70192
373.73008
373.73787
373.75509
373.77153
373.81201
373.81204
373.92799
374.34706
377.3161
376.89313
376.7801
376.79298
376.74852
376.72865
376.70343
376.69602
376.65
376.64704
376.64704
376.65
376.69602
376.70344
376.72866
376.74854
376.793
376.78013
376.89316
377.31612
380.3544
379.9763
379.8843
379.92339
379.87704
379.85252
379.8172
379.81185
379.74212
379.73898
379.73898
379.74212
379.81185
379.81721
379.85253
379.87706
379.92341
379.88432
379.97632
380.35442
383.32702
383.06925
383.02484
383.107
383.05849
383.03074
382.98635
382.98569
382.88854
382.88613
382.88613
382.88854
382.9857
382.98636
383.03075
383.0585
383.10702
383.02487
383.06927
383.32704
386.02549
385.99823
386.04391
386.18944
386.14073
386.11174
386.06464
386.07256
385.94974
385.94969
385.94969
385.94974
386.07256
386.06464
386.11175
386.14074
386.18946
386.04393
385.99825
386.02552
388.13522
388.48693
388.69368
388.92259
388.8893
388.86237
388.81589
388.83781
388.69935
388.70421
388.70421
388.69935
388.83781
388.8159
388.86237
388.88931
388.9226
388.69371
388.48696
388.13525
389.15861
390.09538
390.5837
390.90985
390.93465
390.90706
390.86091
390.90418
390.769
390.78239
390.7824
390.769
390.90418
390.86092
390.90707
390.93467
390.90987
390.58373
390.09542
389.15866
388.28723
390.12039
391.05656
391.53005
391.65981
391.6445
391.61149
391.68548
391.57912
391.60565
391.60565
391.57912
391.68549
391.6115
391.64451
391.65983
391.53008
391.0566
390.12045
388.28733
384.28769
387.47817
389.0912
389.86641
390.11554
390.19015
390.21165
390.32747
390.27734
390.32217
390.32217
390.27734
390.32748
390.21167
390.19018
390.11557
389.86646
389.09127
387.47828
384.28786
375.50822
380.67567
383.31834
384.49726
385.02921
385.19964
385.32871
385.4954
385.52274
385.58976
385.58976
385.52276
385.49542
385.32874
385.19968
385.02926
384.49733
383.31844
380.67585
375.50851
360.73776
367.68418
371.81383
373.74678
374.66988
375.0872
375.36323
375.58424
375.69549
375.78443
375.78443
375.69551
375.58427
375.36327
375.08726
374.66996
373.74689
371.81399
367.68446
360.7381
347.4249
350.93664
354.70265
356.83255
357.83952
358.75876
359.15279
359.40029
359.56393
359.65919
359.65919
359.56395
359.40033
359.15284
358.75883
357.83961
356.83265
354.70279
350.93679
347.42494
341.00685
342.16116
343.32619
344.14537
344.71223
345.05702
345.31364
345.481
345.58253
345.63392
345.63393
345.58253
345.48101
345.31365
345.05703
344.71224
344.14539
343.32622
342.16118
341.00685
336.92729
336.97953
337.29722
337.67474
338.01379
338.28327
338.49158
338.63859
338.73027
338.77473
338.77473
338.73027
338.63859
338.49158
338.28327
338.01379
337.67475
337.29723
336.97953
336.92729
333.24205
333.38758
333.64526
333.94678
334.23453
334.47875
334.67167
334.81161
334.90129
334.945
334.945
334.90129
334.81161
334.67167
334.47875
334.23453
333.94678
333.64526
333.38759
333.24206
329.87646
330.07837
330.33883
330.6134
330.87224
331.09649
331.27582
331.40761
331.49327
331.5353
331.5353
331.49327
331.40761
331.27582
331.09649
330.87225
330.6134
330.33883
330.07838
329.87647
326.84467
327.08193
327.36676
327.64547
327.89693
328.11
328.27952
328.40465
328.48631
328.52643
328.52643
328.48631
328.40466
328.27952
328.11001
327.89693
327.64548
327.36677
327.08194
326.84469
324.17687
324.42842
324.73407
325.02643
325.28249
325.49423
325.65992
325.78096
325.85971
325.89848
325.89848
325.85971
325.78096
325.65993
325.49423
325.28249
325.02644
324.73407
324.42843
324.17689
321.89693
322.14388
322.45595
322.75736
323.01981
323.2345
323.40075
323.52116
323.59908
323.63729
323.63729
323.59908
323.52116
323.40075
323.2345
323.01982
322.75736
322.45595
322.14389
321.89694
320.02281
320.25102
320.55316
320.85277
321.11689
321.33388
321.50199
321.62362
321.70223
321.74075
321.74075
321.70223
321.62362
321.50199
321.33388
321.1169
320.85278
320.55317
320.25103
320.02282
318.57282
318.77363
319.05274
319.33945
319.59829
319.81428
319.98334
320.10646
320.18636
320.22561
320.22561
320.18637
320.10647
319.98335
319.81429
319.59829
319.33946
319.05275
318.77363
318.57283
317.57133
317.742
317.99183
318.25893
318.50731
318.71912
318.88751
319.0115
319.09255
319.13252
319.13252
319.09255
319.0115
318.88751
318.71912
318.50732
318.25893
317.99184
317.74201
317.57133
317.05126
317.1978
317.42325
317.67307
317.91149
318.11868
318.28567
318.40984
318.49153
318.53198
318.53198
318.49154
318.40984
318.28568
318.11868
317.9115
317.67308
317.42326
317.19781
317.05127
)
;

boundaryField
{
    Wall
    {
        type            zeroGradient;
    }
    frontAndBack
    {
        type            empty;
    }
    atmosphere
    {
        type            zeroGradient;
    }
}


// ************************************************************************* //
