/*--------------------------------*- C++ -*----------------------------------*\
| =========                 |                                                 |
| \\      /  F ield         | OpenFOAM: The Open Source CFD Toolbox           |
|  \\    /   O peration     | Version:  3.0.1                                 |
|   \\  /    A nd           | Web:      www.OpenFOAM.org                      |
|    \\/     M anipulation  |                                                 |
\*---------------------------------------------------------------------------*/
FoamFile
{
    version     2.0;
    format      ascii;
    class       volVectorField;
    location    "32";
    object      U;
}
// * * * * * * * * * * * * * * * * * * * * * * * * * * * * * * * * * * * * * //

dimensions      [0 1 -1 0 0 0 0];

internalField   nonuniform List<vector> 
800
(
(8.9329466e-06 0.00020745392 0)
(1.1759039e-05 0.00021099671 0)
(1.4245642e-05 0.00021313104 0)
(1.3983274e-05 0.00021432802 0)
(1.2437534e-05 0.0002149358 0)
(1.0404861e-05 0.00021521548 0)
(8.1609371e-06 0.00021532403 0)
(5.8368383e-06 0.00021535326 0)
(3.4972791e-06 0.0002153534 0)
(1.1627796e-06 0.00021534872 0)
(-1.168233e-06 0.00021534867 0)
(-3.5026279e-06 0.00021535327 0)
(-5.8419922e-06 0.00021535304 0)
(-8.165797e-06 0.00021532373 0)
(-1.0409347e-05 0.0002152151 0)
(-1.2441562e-05 0.00021493535 0)
(-1.3986746e-05 0.00021432747 0)
(-1.4248376e-05 0.00021313033 0)
(-1.1760762e-05 0.00021099579 0)
(-8.9341351e-06 0.00020745282 0)
(5.8040818e-06 0.00035196706 0)
(8.3284957e-06 0.00035907641 0)
(1.2235934e-05 0.00036320859 0)
(1.2755301e-05 0.00036552056 0)
(1.1728857e-05 0.00036673571 0)
(1.0026468e-05 0.00036732635 0)
(7.9757094e-06 0.00036758023 0)
(5.7565483e-06 0.00036766989 0)
(3.4685102e-06 0.00036769105 0)
(1.156516e-06 0.00036769161 0)
(-1.1614942e-06 0.00036769154 0)
(-3.4733951e-06 0.00036769083 0)
(-5.761252e-06 0.00036766954 0)
(-7.9801397e-06 0.00036757974 0)
(-1.003054e-05 0.00036732573 0)
(-1.1732482e-05 0.00036673496 0)
(-1.275838e-05 0.00036551965 0)
(-1.2238302e-05 0.00036320746 0)
(-8.3299319e-06 0.00035907499 0)
(-5.8050446e-06 0.00035196536 0)
(6.8644504e-06 0.00064183918 0)
(9.2168372e-06 0.00065324144 0)
(1.2049222e-05 0.00066037014 0)
(1.2346824e-05 0.0006645545 0)
(1.1356827e-05 0.00066686363 0)
(9.7472837e-06 0.00066804656 0)
(7.786301e-06 0.00066859813 0)
(5.6393364e-06 0.00066882499 0)
(3.4059157e-06 0.00066890268 0)
(1.137123e-06 0.00066892219 0)
(-1.1413548e-06 0.00066892207 0)
(-3.4100692e-06 0.00066890232 0)
(-5.6433366e-06 0.0006688244 0)
(-7.7900636e-06 0.00066859731 0)
(-9.7507253e-06 0.00066804551 0)
(-1.1359858e-05 0.00066686234 0)
(-1.2349355e-05 0.00066455293 0)
(-1.2051127e-05 0.00066036822 0)
(-9.2179465e-06 0.00065323912 0)
(-6.8651528e-06 0.00064183648 0)
(7.2837626e-06 0.00092134824 0)
(9.5400498e-06 0.00093521246 0)
(1.2076978e-05 0.00094438739 0)
(1.2202913e-05 0.00094998163 0)
(1.1158303e-05 0.00095316402 0)
(9.5570953e-06 0.00095485011 0)
(7.6324947e-06 0.00095567387 0)
(5.5308398e-06 0.00095603879 0)
(3.342643e-06 0.00095618114 0)
(1.1166799e-06 0.00095622578 0)
(-1.1201048e-06 0.00095622563 0)
(-3.3460084e-06 0.00095618066 0)
(-5.5340688e-06 0.000956038 0)
(-7.6355239e-06 0.00095567277 0)
(-9.5598514e-06 0.00095484871 0)
(-1.1160705e-05 0.0009531623 0)
(-1.2204884e-05 0.00094997954 0)
(-1.207843e-05 0.00094438487 0)
(-9.5408658e-06 0.00093520947 0)
(-7.2842435e-06 0.00092134485 0)
(7.2051653e-06 0.001197014 0)
(9.4481705e-06 0.0012143747 0)
(1.2043037e-05 0.0012257417 0)
(1.210801e-05 0.0012326815 0)
(1.1024202e-05 0.0012366583 0)
(9.4185558e-06 0.001238795 0)
(7.5122679e-06 0.0012398632 0)
(5.4410578e-06 0.0012403542 0)
(3.2882048e-06 0.0012405572 0)
(1.0987581e-06 0.0012406258 0)
(-1.1014327e-06 0.0012406256 0)
(-3.2908253e-06 0.0012405566 0)
(-5.4435699e-06 0.0012403533 0)
(-7.5146146e-06 0.0012398619 0)
(-9.4206739e-06 0.0012387933 0)
(-1.1026025e-05 0.0012366562 0)
(-1.2109472e-05 0.001232679 0)
(-1.2044082e-05 0.0012257387 0)
(-9.4487342e-06 0.0012143713 0)
(-7.2054728e-06 0.0011970101 0)
(7.2246924e-06 0.0014770033 0)
(9.4887704e-06 0.0014982585 0)
(1.2075082e-05 0.0015119687 0)
(1.2074648e-05 0.0015202835 0)
(1.0948773e-05 0.0015250431 0)
(9.3295167e-06 0.0015276102 0)
(7.4289153e-06 0.0015289066 0)
(5.3755583e-06 0.0015295138 0)
(3.2471573e-06 0.0015297723 0)
(1.0850398e-06 0.001529863 0)
(-1.0870601e-06 0.0015298627 0)
(-3.2491336e-06 0.0015297717 0)
(-5.3774429e-06 0.0015295127 0)
(-7.4306644e-06 0.0015289052 0)
(-9.3310764e-06 0.0015276083 0)
(-1.0950086e-05 0.0015250408 0)
(-1.2075672e-05 0.0015202807 0)
(-1.2075789e-05 0.0015119654 0)
(-9.4891276e-06 0.0014982548 0)
(-7.2248629e-06 0.0014769992 0)
(7.3216806e-06 0.0017609379 0)
(9.6101116e-06 0.0017860195 0)
(1.2168548e-05 0.0018020744 0)
(1.2102311e-05 0.0018117626 0)
(1.0931048e-05 0.0018172921 0)
(9.2904452e-06 0.0018202736 0)
(7.384876e-06 0.0018217848 0)
(5.3376887e-06 0.001822499 0)
(3.2222843e-06 0.001822808 0)
(1.0765979e-06 0.0018229184 0)
(-1.0780466e-06 0.0018229182 0)
(-3.223692e-06 0.0018228073 0)
(-5.3390208e-06 0.0018224979 0)
(-7.3860976e-06 0.0018217832 0)
(-9.2915185e-06 0.0018202716 0)
(-1.0931925e-05 0.0018172896 0)
(-1.2102967e-05 0.0018117596 0)
(-1.2168967e-05 0.0018020709 0)
(-9.6102926e-06 0.0017860155 0)
(-7.3217399e-06 0.0017609336 0)
(7.4301031e-06 0.0020474081 0)
(9.7438638e-06 0.0020763158 0)
(1.2301356e-05 0.0020947232 0)
(1.2180715e-05 0.0021057828 0)
(1.0964338e-05 0.0021120712 0)
(9.2977244e-06 0.0021154531 0)
(7.3790272e-06 0.0021171672 0)
(5.3277183e-06 0.00211798 0)
(3.2142272e-06 0.0021183342 0)
(1.073746e-06 0.0021184621 0)
(-1.0746678e-06 0.0021184618 0)
(-3.2151193e-06 0.0021183334 0)
(-5.3285532e-06 0.0021179788 0)
(-7.3797809e-06 0.0021171655 0)
(-9.2983565e-06 0.002115451 0)
(-1.0964823e-05 0.0021120685 0)
(-1.2181043e-05 0.0021057796 0)
(-1.230153e-05 0.0020947195 0)
(-9.7439077e-06 0.0020763117 0)
(-7.4300804e-06 0.0020474037 0)
(7.5610559e-06 0.0023357793 0)
(9.9036264e-06 0.0023685782 0)
(1.2477347e-05 0.0023893696 0)
(1.2308576e-05 0.0024018088 0)
(1.1045308e-05 0.0024088519 0)
(9.3481771e-06 0.0024126252 0)
(7.4093381e-06 0.0024145332 0)
(5.3445411e-06 0.0024154376 0)
(3.2225031e-06 0.0024158325 0)
(1.0763608e-06 0.0024159756 0)
(-1.0767917e-06 0.0024159753 0)
(-3.2229065e-06 0.0024158317 0)
(-5.3449114e-06 0.0024154364 0)
(-7.4096498e-06 0.0024145315 0)
(-9.3484046e-06 0.0024126229 0)
(-1.1045447e-05 0.0024088491 0)
(-1.2308623e-05 0.0024018054 0)
(-1.2477319e-05 0.0023893657 0)
(-9.9035595e-06 0.002368574 0)
(-7.5609783e-06 0.0023357749 0)
(7.740351e-06 0.0026257911 0)
(1.0114157e-05 0.0026625542 0)
(1.2706001e-05 0.0026857672 0)
(1.2488791e-05 0.0026995977 0)
(1.1173807e-05 0.002707394 0)
(9.4400436e-06 0.0027115523 0)
(7.4737208e-06 0.0027136475 0)
(5.3863697e-06 0.0027146378 0)
(3.2459524e-06 0.0027150694 0)
(1.0840645e-06 0.0027152258 0)
(-1.0840098e-06 0.0027152256 0)
(-3.245888e-06 0.0027150686 0)
(-5.3862864e-06 0.0027146365 0)
(-7.4736078e-06 0.0027136456 0)
(-9.4398977e-06 0.0027115499 0)
(-1.1173638e-05 0.0027073911 0)
(-1.2488599e-05 0.0026995943 0)
(-1.2705811e-05 0.0026857633 0)
(-1.0114025e-05 0.00266255 0)
(-7.7402773e-06 0.0026257866 0)
(7.9927638e-06 0.0029173887 0)
(1.0400368e-05 0.0029581858 0)
(1.2996039e-05 0.0029838568 0)
(1.2721629e-05 0.0029990877 0)
(1.134718e-05 0.003007633 0)
(9.5702241e-06 0.0030121697 0)
(7.5689812e-06 0.0030144467 0)
(5.4502278e-06 0.0030155181 0)
(3.28251e-06 0.003015983 0)
(1.0961259e-06 0.0030161509 0)
(-1.095596e-06 0.0030161507 0)
(-3.2819803e-06 0.0030159822 0)
(-5.4496974e-06 0.0030155168 0)
(-7.5684687e-06 0.0030144448 0)
(-9.569733e-06 0.0030121673 0)
(-1.1346717e-05 0.0030076301 0)
(-1.2721216e-05 0.0029990843 0)
(-1.2995724e-05 0.002983853 0)
(-1.0400216e-05 0.0029581816 0)
(-7.9927621e-06 0.0029173844 0)
(8.3269589e-06 0.0032113523 0)
(1.0772946e-05 0.0032562474 0)
(1.3349384e-05 0.0032843843 0)
(1.3002253e-05 0.0033010157 0)
(1.1559943e-05 0.0033103229 0)
(9.7344221e-06 0.0033152443 0)
(7.6908991e-06 0.003317699 0)
(5.531802e-06 0.0033188461 0)
(3.3290546e-06 0.0033193408 0)
(1.1114371e-06 0.0033195182 0)
(-1.1104256e-06 0.0033195179 0)
(-3.3280539e-06 0.00331934 0)
(-5.5308316e-06 0.0033188448 0)
(-7.6899789e-06 0.0033176972 0)
(-9.733566e-06 0.003315242 0)
(-1.1559181e-05 0.0033103201 0)
(-1.3001624e-05 0.0033010125 0)
(-1.3348944e-05 0.0032843806 0)
(-1.0772733e-05 0.0032562434 0)
(-8.3269765e-06 0.003211348 0)
(8.7593146e-06 0.0035098499 0)
(1.1224905e-05 0.0035589017 0)
(1.3741841e-05 0.0035895308 0)
(1.3341819e-05 0.003607541 0)
(1.1839354e-05 0.0036175715 0)
(9.9413353e-06 0.0036228494 0)
(7.8333071e-06 0.0036254533 0)
(5.6240812e-06 0.0036266621 0)
(3.3808876e-06 0.0036271813 0)
(1.1280783e-06 0.0036273642 0)
(-1.1266005e-06 0.0036273639 0)
(-3.3794285e-06 0.0036271806 0)
(-5.6226633e-06 0.0036266608 0)
(-7.831968e-06 0.0036254515 0)
(-9.9401086e-06 0.0036228471 0)
(-1.1838278e-05 0.0036175687 0)
(-1.3340938e-05 0.0036075378 0)
(-1.3741219e-05 0.0035895273 0)
(-1.122462e-05 0.0035588978 0)
(-8.7593303e-06 0.0035098457 0)
(9.3228122e-06 0.0038145889 0)
(1.1809104e-05 0.003867804 0)
(1.4187454e-05 0.0039009034 0)
(1.3676331e-05 0.0039202378 0)
(1.2104845e-05 0.0039309385 0)
(1.0130663e-05 0.0039365215 0)
(7.9570041e-06 0.0039392535 0)
(5.7092234e-06 0.0039405112 0)
(3.4287425e-06 0.0039410489 0)
(1.1422052e-06 0.0039412319 0)
(-1.1402698e-06 0.0039412316 0)
(-3.426839e-06 0.0039410482 0)
(-5.7073786e-06 0.00394051 0)
(-7.955287e-06 0.0039392518 0)
(-1.0129106e-05 0.0039365193 0)
(-1.2103474e-05 0.0039309359 0)
(-1.36752e-05 0.0039202349 0)
(-1.4186631e-05 0.0039009002 0)
(-1.1808679e-05 0.0038678004 0)
(-9.3226918e-06 0.0038145848 0)
(9.9518401e-06 0.0041275686 0)
(1.2426843e-05 0.0041848692 0)
(1.4611469e-05 0.0042203311 0)
(1.3977492e-05 0.0042408896 0)
(1.234132e-05 0.0042521734 0)
(1.028932e-05 0.0042580043 0)
(8.0590588e-06 0.0042608417 0)
(5.7772505e-06 0.0042621291 0)
(3.4635819e-06 0.0042626761 0)
(1.1496271e-06 0.0042628535 0)
(-1.1472392e-06 0.0042628533 0)
(-3.4612407e-06 0.0042626754 0)
(-5.7750009e-06 0.004262128 0)
(-8.0569564e-06 0.0042608402 0)
(-1.0287413e-05 0.0042580023 0)
(-1.2339652e-05 0.0042521711 0)
(-1.397611e-05 0.004240887 0)
(-1.461044e-05 0.0042203282 0)
(-1.2426274e-05 0.004184866 0)
(-9.9515693e-06 0.0041275649 0)
(1.053677e-05 0.0044507772 0)
(1.2952857e-05 0.0045121758 0)
(1.4912338e-05 0.0045499252 0)
(1.4130996e-05 0.0045716028 0)
(1.2450052e-05 0.0045833494 0)
(1.0360072e-05 0.0045893528 0)
(8.0981551e-06 0.0045922354 0)
(5.8007031e-06 0.0045935144 0)
(3.4721307e-06 0.0045940558 0)
(1.1462694e-06 0.004594223 0)
(-1.1434161e-06 0.0045942228 0)
(-3.4693327e-06 0.0045940552 0)
(-5.7980145e-06 0.0045935134 0)
(-8.0956762e-06 0.004592234 0)
(-1.0357841e-05 0.0045893512 0)
(-1.2448069e-05 0.0045833474 0)
(-1.4129314e-05 0.0045716007 0)
(-1.491104e-05 0.0045499229 0)
(-1.2952088e-05 0.0045121733 0)
(-1.0536309e-05 0.0044507741 0)
(1.1070152e-05 0.004785243 0)
(1.3389645e-05 0.0048508413 0)
(1.5060258e-05 0.0048908222 0)
(1.4077222e-05 0.0049135238 0)
(1.2363159e-05 0.0049256417 0)
(1.027235e-05 0.0049317325 0)
(8.0094268e-06 0.0049345829 0)
(5.742273e-06 0.0049358055 0)
(3.439993e-06 0.0049363188 0)
(1.1291137e-06 0.0049364696 0)
(-1.1258422e-06 0.0049364694 0)
(-3.4367873e-06 0.0049363182 0)
(-5.7391788e-06 0.0049358046 0)
(-8.0065175e-06 0.0049345817 0)
(-1.0269699e-05 0.0049317311 0)
(-1.2360831e-05 0.0049256401 0)
(-1.4075244e-05 0.004913522 0)
(-1.5058686e-05 0.0048908203 0)
(-1.3388644e-05 0.0048508393 0)
(-1.1069495e-05 0.0047852408 0)
(1.1547594e-05 0.0051326734 0)
(1.3743944e-05 0.0052025175 0)
(1.5017377e-05 0.0052446045 0)
(1.3778279e-05 0.0052681852 0)
(1.2026637e-05 0.0052805582 0)
(9.9488365e-06 0.0052866217 0)
(7.7252946e-06 0.0052893532 0)
(5.5579108e-06 0.0052904622 0)
(3.3462275e-06 0.0052909094 0)
(1.0935959e-06 0.0052910305 0)
(-1.0899041e-06 0.0052910303 0)
(-3.342615e-06 0.0052909091 0)
(-5.5544415e-06 0.0052904615 0)
(-7.7220227e-06 0.0052893523 0)
(-9.9458561e-06 0.0052866205 0)
(-1.2024033e-05 0.0052805569 0)
(-1.3776044e-05 0.0052681837 0)
(-1.5015615e-05 0.005244603 0)
(-1.3742867e-05 0.0052025159 0)
(-1.1546904e-05 0.0051326718 0)
(1.1889228e-05 0.0054957716 0)
(1.3927749e-05 0.0055698024 0)
(1.4678177e-05 0.005613772 0)
(1.3141737e-05 0.0056380089 0)
(1.1342559e-05 0.0056504536 0)
(9.2920024e-06 0.0056563427 0)
(7.1714435e-06 0.0056588576 0)
(5.1902464e-06 0.0056597853 0)
(3.1557445e-06 0.0056601116 0)
(1.0304416e-06 0.0056601801 0)
(-1.026337e-06 0.00566018 0)
(-3.1517327e-06 0.0056601113 0)
(-5.1863992e-06 0.0056597848 0)
(-7.1678144e-06 0.005658857 0)
(-9.2887045e-06 0.005656342 0)
(-1.1339709e-05 0.0056504528 0)
(-1.3139344e-05 0.005638008 0)
(-1.4676369e-05 0.0056137711 0)
(-1.3926731e-05 0.0055698016 0)
(-1.1888635e-05 0.0054957708 0)
(1.1989148e-05 0.0058774823 0)
(1.3804615e-05 0.0059555985 0)
(1.3889405e-05 0.0060011589 0)
(1.20283e-05 0.0060257606 0)
(1.0186638e-05 0.0060380339 0)
(8.2053484e-06 0.0060435881 0)
(6.2766018e-06 0.0060457863 0)
(4.5761588e-06 0.0060464603 0)
(2.8241864e-06 0.0060466082 0)
(9.264839e-07 0.0060465993 0)
(-9.2198089e-07 0.0060465993 0)
(-2.8197977e-06 0.006046608 0)
(-4.571957e-06 0.0060464601 0)
(-6.2725992e-06 0.006045786 0)
(-8.2016812e-06 0.0060435879 0)
(-1.0183478e-05 0.0060380337 0)
(-1.2025704e-05 0.0060257605 0)
(-1.3887508e-05 0.0060011588 0)
(-1.3803613e-05 0.0059555986 0)
(-1.1988636e-05 0.0058774825 0)
(1.1761563e-05 0.0062807233 0)
(1.3241031e-05 0.006362824 0)
(1.2465772e-05 0.0064096422 0)
(1.0259906e-05 0.0064342762 0)
(8.426948e-06 0.0064460927 0)
(6.610106e-06 0.0064511339 0)
(4.9836137e-06 0.0064529149 0)
(3.6655307e-06 0.0064532659 0)
(2.3176163e-06 0.0064531967 0)
(7.7095217e-07 0.0064530911 0)
(-7.6608258e-07 0.0064530911 0)
(-2.3128751e-06 0.0064531967 0)
(-3.6609753e-06 0.0064532659 0)
(-4.9792135e-06 0.006452915 0)
(-6.6060529e-06 0.0064511341 0)
(-8.423466e-06 0.0064460931 0)
(-1.025704e-05 0.0064342768 0)
(-1.2463684e-05 0.006409643 0)
(-1.3239947e-05 0.0063628249 0)
(-1.1761042e-05 0.0062807242 0)
(1.1125415e-05 0.0067083479 0)
(1.208736e-05 0.0067943523 0)
(1.0191586e-05 0.0068420981 0)
(7.6385912e-06 0.00686642 0)
(5.9170992e-06 0.0068774956 0)
(4.4299836e-06 0.0068817964 0)
(3.252167e-06 0.0068830232 0)
(2.437241e-06 0.0068829784 0)
(1.6263006e-06 0.006882669 0)
(5.5742597e-07 0.0068824559 0)
(-5.5214446e-07 0.0068824559 0)
(-1.6212624e-06 0.0068826693 0)
(-2.4324476e-06 0.0068829786 0)
(-3.2473331e-06 0.0068830233 0)
(-4.4254954e-06 0.0068817972 0)
(-5.913233e-06 0.0068774966 0)
(-7.6353662e-06 0.0068664214 0)
(-1.0189273e-05 0.0068420998 0)
(-1.2086147e-05 0.0067943543 0)
(-1.1124796e-05 0.0067083496 0)
(9.9717352e-06 0.0071627786 0)
(1.0138177e-05 0.0072527911 0)
(6.8071824e-06 0.0073012569 0)
(3.9694229e-06 0.0073249393 0)
(2.5003467e-06 0.0073350095 0)
(1.5341196e-06 0.0073382947 0)
(1.0143065e-06 0.0073387647 0)
(8.7688998e-07 0.0073382499 0)
(7.529528e-07 0.0073376879 0)
(2.8486771e-07 0.0073373733 0)
(-2.7911825e-07 0.0073373734 0)
(-7.4762872e-07 0.0073376881 0)
(-8.7208101e-07 0.0073382504 0)
(-1.0088826e-06 0.0073387655 0)
(-1.5289578e-06 0.007338296 0)
(-2.4961984e-06 0.007335011 0)
(-3.9658131e-06 0.0073249414 0)
(-6.8044487e-06 0.0073012596 0)
(-1.0136661e-05 0.0072527942 0)
(-9.9709545e-06 0.0071627814 0)
(8.2561847e-06 0.0076452073 0)
(7.2255862e-06 0.0077398762 0)
(2.0171333e-06 0.0077891995 0)
(-9.8281458e-07 0.0078121022 0)
(-1.9917712e-06 0.0078209021 0)
(-2.2356111e-06 0.0078229354 0)
(-1.8030704e-06 0.0078225064 0)
(-1.0031916e-06 0.0078214733 0)
(-2.7572124e-07 0.0078206459 0)
(-3.6116389e-08 0.0078202363 0)
(4.196371e-08 0.0078202364 0)
(2.8145447e-07 0.0078206463 0)
(1.0087619e-06 0.007821474 0)
(1.8087705e-06 0.0078225078 0)
(2.2409113e-06 0.0078229366 0)
(1.9965258e-06 0.0078209043 0)
(9.8712531e-07 0.0078121051 0)
(-2.0138944e-06 0.0077892032 0)
(-7.2237729e-06 0.0077398804 0)
(-8.2551441e-06 0.0076452114 0)
(6.0397213e-06 0.008154246 0)
(3.2487747e-06 0.0082554806 0)
(-4.3975868e-06 0.0083065004 0)
(-7.3956507e-06 0.0083288339 0)
(-7.6921686e-06 0.0083362493 0)
(-6.8629888e-06 0.0083369459 0)
(-5.1311184e-06 0.0083355672 0)
(-3.1658834e-06 0.0083339812 0)
(-1.4524481e-06 0.0083329329 0)
(-4.0666605e-07 0.0083324642 0)
(4.1304511e-07 0.0083324643 0)
(1.4583688e-06 0.0083329335 0)
(3.1716056e-06 0.0083339822 0)
(5.1370654e-06 0.0083355689 0)
(6.8688527e-06 0.0083369481 0)
(7.6977628e-06 0.0083362519 0)
(7.4004474e-06 0.0083288374 0)
(4.4014686e-06 0.0083065052 0)
(-3.2464359e-06 0.0082554863 0)
(-6.0383459e-06 0.0081542517 0)
(3.4876793e-06 0.0086830959 0)
(-1.7261969e-06 0.0087952341 0)
(-1.2564944e-05 0.0088502443 0)
(-1.5285645e-05 0.0088727492 0)
(-1.4509829e-05 0.0088789647 0)
(-1.2182079e-05 0.008878575 0)
(-8.8604035e-06 0.0088764231 0)
(-5.4982267e-06 0.0088743935 0)
(-2.6634681e-06 0.0088732279 0)
(-7.8785203e-07 0.00887276 0)
(7.9440405e-07 0.0088727601 0)
(2.6699773e-06 0.0088732283 0)
(5.5046966e-06 0.0088743946 0)
(8.8670208e-06 0.0088764247 0)
(1.2187907e-05 0.0088785773 0)
(1.4515374e-05 0.0088789679 0)
(1.5291478e-05 0.0088727539 0)
(1.2569796e-05 0.0088502498 0)
(1.7290489e-06 0.0087952411 0)
(-3.4858146e-06 0.0086831041 0)
(5.9975354e-07 0.0092154369 0)
(-7.3176637e-06 0.0093467448 0)
(-2.2169282e-05 0.0094101796 0)
(-2.4395894e-05 0.0094342836 0)
(-2.1995844e-05 0.0094407443 0)
(-1.7532951e-05 0.0094398699 0)
(-1.246065e-05 0.0094373289 0)
(-7.7180155e-06 0.0094350755 0)
(-3.8117487e-06 0.0094338904 0)
(-1.154732e-06 0.0094334684 0)
(1.1614513e-06 0.0094334686 0)
(3.8184495e-06 0.0094338909 0)
(7.7247074e-06 0.0094350765 0)
(1.2467484e-05 0.0094373302 0)
(1.7539775e-05 0.0094398718 0)
(2.2002843e-05 0.0094407477 0)
(2.4401872e-05 0.0094342892 0)
(2.2174369e-05 0.0094101871 0)
(7.3225795e-06 0.0093467554 0)
(-5.9606361e-07 0.0092154475 0)
(-3.1628967e-06 0.0097303001 0)
(-1.3230477e-05 0.0098877545 0)
(-3.2328113e-05 0.0099654259 0)
(-3.3286045e-05 0.009995041 0)
(-2.8571192e-05 0.010006113 0)
(-2.211037e-05 0.010005216 0)
(-1.5420505e-05 0.010002672 0)
(-9.5538882e-06 0.010000334 0)
(-4.7846976e-06 0.0099991292 0)
(-1.47475e-06 0.0099987373 0)
(1.4817324e-06 0.0099987375 0)
(4.7916995e-06 0.0099991298 0)
(9.5609157e-06 0.010000335 0)
(1.5427591e-05 0.010002673 0)
(2.2117472e-05 0.010005218 0)
(2.8579022e-05 0.010006117 0)
(3.3293781e-05 0.009995046 0)
(3.2335778e-05 0.0099654341 0)
(1.3236956e-05 0.0098877667 0)
(3.1682657e-06 0.0097303161 0)
(-1.7627102e-05 0.01025072 0)
(-2.8275089e-05 0.010438066 0)
(-4.084429e-05 0.010513648 0)
(-3.6872277e-05 0.010546619 0)
(-3.146613e-05 0.010558308 0)
(-2.5703512e-05 0.010562785 0)
(-1.7309855e-05 0.010561131 0)
(-1.0829057e-05 0.010558663 0)
(-5.5821099e-06 0.010557047 0)
(-1.7590665e-06 0.010556433 0)
(1.7663441e-06 0.010556433 0)
(5.5894325e-06 0.010557048 0)
(1.0836427e-05 0.010558664 0)
(1.7317133e-05 0.010561132 0)
(2.5711133e-05 0.010562787 0)
(3.1474297e-05 0.010558311 0)
(3.6879792e-05 0.010546624 0)
(4.0852172e-05 0.010513656 0)
(2.8284672e-05 0.010438078 0)
(1.7634494e-05 0.010250742 0)
(-6.7027391e-05 0.010722817 0)
(-8.8723224e-05 0.010928019 0)
(-7.2990138e-05 0.011032241 0)
(-4.6418221e-05 0.011087422 0)
(-3.318072e-05 0.011110536 0)
(-2.3477304e-05 0.011122798 0)
(-1.7456862e-05 0.011125805 0)
(-1.1737806e-05 0.011126059 0)
(-6.5967607e-06 0.011126095 0)
(-2.1647704e-06 0.011126313 0)
(2.1724484e-06 0.011126313 0)
(6.6045666e-06 0.011126096 0)
(1.1745429e-05 0.011126061 0)
(1.7464461e-05 0.011125807 0)
(2.3484918e-05 0.0111228 0)
(3.3190288e-05 0.01111054 0)
(4.6427187e-05 0.011087427 0)
(7.2996149e-05 0.011032249 0)
(8.8733127e-05 0.010928031 0)
(6.7036511e-05 0.010722832 0)
(0.00040047645 0.01082412 0)
(0.00020954542 0.011457937 0)
(8.1635658e-05 0.01159216 0)
(3.8310624e-05 0.011659688 0)
(1.4053323e-05 0.011682237 0)
(5.136472e-06 0.011683311 0)
(1.9299641e-06 0.01168443 0)
(-7.4168681e-09 0.011684449 0)
(-5.2118199e-07 0.011683415 0)
(-2.9953712e-07 0.011683207 0)
(3.0866477e-07 0.011683207 0)
(5.3080271e-07 0.011683416 0)
(1.606673e-08 0.011684449 0)
(-1.9219581e-06 0.011684431 0)
(-5.1289684e-06 0.011683312 0)
(-1.4046486e-05 0.011682239 0)
(-3.8306311e-05 0.01165969 0)
(-8.1631572e-05 0.011592164 0)
(-0.00020953824 0.011457949 0)
(-0.00040045966 0.010824176 0)
(0.0012000725 0.0093522307 0)
(0.0016172434 0.011421867 0)
(0.0011515821 0.011695718 0)
(0.00076150047 0.01173671 0)
(0.00046087639 0.011749804 0)
(0.00027973321 0.01174966 0)
(0.00018382055 0.011744424 0)
(0.00011375856 0.011736117 0)
(6.1436715e-05 0.011731388 0)
(1.956242e-05 0.011729977 0)
(-1.9554959e-05 0.01172998 0)
(-6.1429281e-05 0.011731389 0)
(-0.00011375217 0.011736119 0)
(-0.00018381642 0.011744428 0)
(-0.00027973041 0.011749666 0)
(-0.00046088048 0.011749814 0)
(-0.00076150676 0.011736728 0)
(-0.0011515761 0.011695742 0)
(-0.0016172337 0.011421899 0)
(-0.0012000688 0.009352319 0)
(0.0011150961 0.0075068457 0)
(0.0021991966 0.010911126 0)
(0.0023379664 0.011688684 0)
(0.0020018943 0.011786 0)
(0.0015370382 0.011723038 0)
(0.0011320361 0.011692777 0)
(0.00077362934 0.011646921 0)
(0.00049072914 0.011608229 0)
(0.00027642798 0.011578398 0)
(9.0335161e-05 0.011558889 0)
(-9.0335506e-05 0.011558892 0)
(-0.00027642972 0.011578403 0)
(-0.00049073367 0.01160824 0)
(-0.00077363171 0.011646934 0)
(-0.0011320427 0.011692785 0)
(-0.0015370524 0.011723049 0)
(-0.0020018975 0.011786029 0)
(-0.0023379522 0.011688706 0)
(-0.0021991731 0.01091115 0)
(-0.0011150821 0.0075068978 0)
(0.00077588064 0.0059271325 0)
(0.0019386103 0.010174505 0)
(0.0023931337 0.011653864 0)
(0.0022996823 0.012067114 0)
(0.0019447608 0.01211472 0)
(0.0015405426 0.012024611 0)
(0.0011383721 0.011906118 0)
(0.00076764392 0.011816742 0)
(0.00043568281 0.011750392 0)
(0.00014172294 0.011714055 0)
(-0.00014173432 0.011714058 0)
(-0.00043569092 0.011750398 0)
(-0.00076765251 0.011816753 0)
(-0.0011383837 0.011906132 0)
(-0.001540556 0.012024618 0)
(-0.0019447731 0.01211473 0)
(-0.0022996835 0.012067129 0)
(-0.0023931108 0.011653874 0)
(-0.0019385982 0.010174514 0)
(-0.00077589034 0.0059272024 0)
(0.00047398192 0.0047587862 0)
(0.0014627812 0.0093528245 0)
(0.0020239996 0.011405218 0)
(0.0021126117 0.012208982 0)
(0.0019204869 0.012451261 0)
(0.0016051425 0.012427821 0)
(0.0012385792 0.012304461 0)
(0.00086670046 0.012171721 0)
(0.00050917029 0.012070834 0)
(0.00017049879 0.012019025 0)
(-0.00017051615 0.012019027 0)
(-0.00050918736 0.01207084 0)
(-0.00086671728 0.012171727 0)
(-0.0012385959 0.012304469 0)
(-0.0016051601 0.012427827 0)
(-0.0019205045 0.012451266 0)
(-0.0021126176 0.012208985 0)
(-0.0020240001 0.01140523 0)
(-0.0014627759 0.009352831 0)
(-0.000473984 0.0047588646 0)
(0.0002720063 0.0039713383 0)
(0.0010061644 0.008601635 0)
(0.0015525761 0.011037754 0)
(0.0017459752 0.012190093 0)
(0.0016869373 0.012646298 0)
(0.0014742032 0.012733912 0)
(0.0011793658 0.01265578 0)
(0.00084893228 0.01253047 0)
(0.00050890492 0.012421264 0)
(0.0001724377 0.012359243 0)
(-0.00017245989 0.012359244 0)
(-0.00050892633 0.012421269 0)
(-0.00084895279 0.012530477 0)
(-0.0011793855 0.012655787 0)
(-0.0014742241 0.012733918 0)
(-0.0016869603 0.012646302 0)
(-0.0017459849 0.012190095 0)
(-0.0015525889 0.011037751 0)
(-0.0010061856 0.0086016568 0)
(-0.00027202258 0.0039713925 0)
(0.00015317929 0.0034665148 0)
(0.00065444484 0.0080069072 0)
(0.0011271616 0.010676208 0)
(0.0013564903 0.012089636 0)
(0.0013772584 0.012734547 0)
(0.0012525345 0.012943694 0)
(0.0010346652 0.012933983 0)
(0.00076345716 0.012841336 0)
(0.00046552571 0.012744779 0)
(0.00015906922 0.012686513 0)
(-0.0001590929 0.012686515 0)
(-0.00046554867 0.012744784 0)
(-0.00076347929 0.012841343 0)
(-0.0010346869 0.01293399 0)
(-0.0012525571 0.0129437 0)
(-0.0013772833 0.012734551 0)
(-0.0013565157 0.01208964 0)
(-0.0011271773 0.010676203 0)
(-0.00065446521 0.0080069201 0)
(-0.0001531952 0.0034665536 0)
(9.0044789e-05 0.0031590539 0)
(0.0004188152 0.0075814164 0)
(0.00078808638 0.010373158 0)
(0.0010053099 0.011958906 0)
(0.0010680046 0.012755886 0)
(0.0010073454 0.013078013 0)
(0.00085674999 0.013143521 0)
(0.00064646993 0.013096067 0)
(0.00040019667 0.013023763 0)
(0.00013764185 0.012976202 0)
(-0.0001376651 0.012976204 0)
(-0.00040021931 0.013023767 0)
(-0.00064649187 0.013096073 0)
(-0.00085677161 0.013143528 0)
(-0.0010073675 0.013078019 0)
(-0.0010680284 0.012755892 0)
(-0.0010053354 0.011958912 0)
(-0.00078811107 0.010373164 0)
(-0.00041884053 0.0075814211 0)
(-9.00566e-05 0.0031590737 0)
(5.6204974e-05 0.0029682572 0)
(0.00026718667 0.0072847358 0)
(0.00053619864 0.010128161 0)
(0.0007198309 0.011825854 0)
(0.00079705507 0.012737733 0)
(0.00077750315 0.01315691 0)
(0.00067916952 0.013295437 0)
(0.00052294803 0.013297101 0)
(0.00032816069 0.013254198 0)
(0.00011346243 0.013220751 0)
(-0.00011348437 0.013220753 0)
(-0.00032818207 0.013254202 0)
(-0.00052296886 0.013297107 0)
(-0.00067919019 0.013295443 0)
(-0.00077752385 0.013156917 0)
(-0.00079707679 0.01273774 0)
(-0.00071985361 0.01182586 0)
(-0.00053622042 0.010128167 0)
(-0.00026720689 0.0072847396 0)
(-5.6213283e-05 0.0029682636 0)
(4.1471444e-05 0.0028154743 0)
(0.00017938676 0.0070462453 0)
(0.0003683524 0.009908282 0)
(0.00051500393 0.011680881 0)
(0.00059052367 0.012689829 0)
(0.00059332877 0.013203431 0)
(0.00052974564 0.013422205 0)
(0.00041408561 0.013485962 0)
(0.00026263838 0.013484869 0)
(9.1232326e-05 0.013472704 0)
(-9.125174e-05 0.013472706 0)
(-0.00026265794 0.013484873 0)
(-0.00041410531 0.013485967 0)
(-0.00052976481 0.013422211 0)
(-0.0005933477 0.013203438 0)
(-0.00059054296 0.012689836 0)
(-0.00051502285 0.011680885 0)
(-0.00036837059 0.0099082822 0)
(-0.00017940234 0.0070462391 0)
(-4.1476763e-05 0.0028154633 0)
)
;

boundaryField
{
    Wall
    {
        type            fixedValue;
        value           uniform (0 0 0);
    }
    frontAndBack
    {
        type            empty;
    }
    atmosphere
    {
        type            pressureInletOutletVelocity;
        value           nonuniform List<vector> 
20
(
(4.1471444e-05 0.0028154743 0)
(0.00017938676 0.0070462453 0)
(0.0003683524 0.009908282 0)
(0.00051500393 0.011680881 0)
(0.00059052367 0.012689829 0)
(0.00059332877 0.013203431 0)
(0.00052974564 0.013422205 0)
(0.00041408561 0.013485962 0)
(0.00026263838 0.013484869 0)
(9.1232326e-05 0.013472704 0)
(-9.125174e-05 0.013472706 0)
(-0.00026265794 0.013484873 0)
(-0.00041410531 0.013485967 0)
(-0.00052976481 0.013422211 0)
(-0.0005933477 0.013203438 0)
(-0.00059054296 0.012689836 0)
(-0.00051502285 0.011680885 0)
(-0.00036837059 0.0099082822 0)
(-0.00017940234 0.0070462391 0)
(-4.1476763e-05 0.0028154633 0)
)
;
    }
}


// ************************************************************************* //
