/*--------------------------------*- C++ -*----------------------------------*\
| =========                 |                                                 |
| \\      /  F ield         | OpenFOAM: The Open Source CFD Toolbox           |
|  \\    /   O peration     | Version:  3.0.1                                 |
|   \\  /    A nd           | Web:      www.OpenFOAM.org                      |
|    \\/     M anipulation  |                                                 |
\*---------------------------------------------------------------------------*/
FoamFile
{
    version     2.0;
    format      ascii;
    class       volScalarField;
    location    "32";
    object      wBA_l_0;
}
// * * * * * * * * * * * * * * * * * * * * * * * * * * * * * * * * * * * * * //

dimensions      [0 0 0 0 0 0 0];

internalField   nonuniform List<scalar> 
800
(
0.042499473
0.042497244
0.042496846
0.042496797
0.042496793
0.04249679
0.042496784
0.042496777
0.042496772
0.042496769
0.042496769
0.042496772
0.042496777
0.042496784
0.04249679
0.042496793
0.042496797
0.042496845
0.042497244
0.042499473
0.043033214
0.043008135
0.043001924
0.043000233
0.04299984
0.04299979
0.04299981
0.042999826
0.042999831
0.042999832
0.042999832
0.042999832
0.042999826
0.04299981
0.042999791
0.04299984
0.043000234
0.043001925
0.043008136
0.043033216
0.043345236
0.043311635
0.043302061
0.043299478
0.043298814
0.043298661
0.04329862
0.04329859
0.043298563
0.043298547
0.043298547
0.043298563
0.04329859
0.04329862
0.043298662
0.043298814
0.043299478
0.043302062
0.043311636
0.043345239
0.043446857
0.043412943
0.043402923
0.04340047
0.043399876
0.043399702
0.043399594
0.043399494
0.043399413
0.043399369
0.043399368
0.043399413
0.043399494
0.043399594
0.043399702
0.043399876
0.043400471
0.043402924
0.043412944
0.043446859
0.043349641
0.043323418
0.043315282
0.043313753
0.043313517
0.043313409
0.043313247
0.043313069
0.043312922
0.043312843
0.043312843
0.043312922
0.043313069
0.043313246
0.043313408
0.043313517
0.043313753
0.043315282
0.043323418
0.043349641
0.043068041
0.043056868
0.043052557
0.043052572
0.04305291
0.043052926
0.043052718
0.043052455
0.043052235
0.043052116
0.043052116
0.043052234
0.043052455
0.043052717
0.043052925
0.043052908
0.043052571
0.043052556
0.043056866
0.043068039
0.042619421
0.042629666
0.042630854
0.042632893
0.042633937
0.042634108
0.042633852
0.042633497
0.042633195
0.042633033
0.042633033
0.042633195
0.042633495
0.042633851
0.042634106
0.042633935
0.04263289
0.042630851
0.042629662
0.042619416
0.042024163
0.042060974
0.042069113
0.042073521
0.042075334
0.042075651
0.042075333
0.042074873
0.042074484
0.042074276
0.042074276
0.042074483
0.042074872
0.042075331
0.042075648
0.04207533
0.042073517
0.042069108
0.042060969
0.042024157
0.041304294
0.041371754
0.041388158
0.041395163
0.041397743
0.04139818
0.041397775
0.041397198
0.041396713
0.041396456
0.041396455
0.041396712
0.041397196
0.041397772
0.041398176
0.041397738
0.041395157
0.041388152
0.041371747
0.041304287
0.040482503
0.040583534
0.040609356
0.040619089
0.040622393
0.040622912
0.040622388
0.040621678
0.040621087
0.040620777
0.040620776
0.040621086
0.040621675
0.040622384
0.040622908
0.040622388
0.040619083
0.040609349
0.040583526
0.040482494
0.03958096
0.039717698
0.039753988
0.039766517
0.039770502
0.039771063
0.039770383
0.039769522
0.039768813
0.039768443
0.039768443
0.039768811
0.039769519
0.039770379
0.039771058
0.039770496
0.03976651
0.03975398
0.03971769
0.039580951
0.038619205
0.038793326
0.038841127
0.038856501
0.038861143
0.038861699
0.038860826
0.038859795
0.03885896
0.038858523
0.038858522
0.038858958
0.038859792
0.038860822
0.038861694
0.038861136
0.038856494
0.038841119
0.038793317
0.038619195
0.037607331
0.037819692
0.037880703
0.037899048
0.037903849
0.037904103
0.037903012
0.0379018
0.037900844
0.037900331
0.03790033
0.037900842
0.037901797
0.037903007
0.037904097
0.037903843
0.03789904
0.037880695
0.037819683
0.037607322
0.036568694
0.036820499
0.036895106
0.036916729
0.036922096
0.036922031
0.036920884
0.036919459
0.036918383
0.036917792
0.036917791
0.036918381
0.036919456
0.036920879
0.036922025
0.03692209
0.036916722
0.036895098
0.036820491
0.036568684
0.035514783
0.035807741
0.035897137
0.035922624
0.035928485
0.035928288
0.035926808
0.035925144
0.035923953
0.035923299
0.035923299
0.03592395
0.035925141
0.035926803
0.035928283
0.035928478
0.035922617
0.035897129
0.035807733
0.035514774
0.03444568
0.034783681
0.034889686
0.034919907
0.034926844
0.034926525
0.034924537
0.034922623
0.034921328
0.034920623
0.034920622
0.034921326
0.03492262
0.034924532
0.034926519
0.034926838
0.0349199
0.034889678
0.034783673
0.034445672
0.033365737
0.033752253
0.033877331
0.033913472
0.033922018
0.033921526
0.03391898
0.033916784
0.033915392
0.033914625
0.033914624
0.03391539
0.033916781
0.033918976
0.033921521
0.033922012
0.033913465
0.033877324
0.033752245
0.03336573
0.03227781
0.032716554
0.032864059
0.032907758
0.032918449
0.032917801
0.032914668
0.032912107
0.032910622
0.032909757
0.032909756
0.03291062
0.032912104
0.032914664
0.032917796
0.032918443
0.032907752
0.032864052
0.032716548
0.032277804
0.031180826
0.03167652
0.031850982
0.031904561
0.031918168
0.031917508
0.031913729
0.031910662
0.031909074
0.031908066
0.031908066
0.031909072
0.031910658
0.031913725
0.031917503
0.031918163
0.031904555
0.031850976
0.031676514
0.031180822
0.030069851
0.030628553
0.030835985
0.030902718
0.030920456
0.030920069
0.030915546
0.030911777
0.030910059
0.030908857
0.030908856
0.030910057
0.030911774
0.030915542
0.030920065
0.030920451
0.030902714
0.03083598
0.030628549
0.030069848
0.028936435
0.029565779
0.029813997
0.029898414
0.029922137
0.029922496
0.029917117
0.029912405
0.02991046
0.029909004
0.029909004
0.029910458
0.029912402
0.029917114
0.029922492
0.029922133
0.02989841
0.029813992
0.029565776
0.028936433
0.027768428
0.028478043
0.028777118
0.028885393
0.02891786
0.028919747
0.028913455
0.028907499
0.028905117
0.028903323
0.028903322
0.028905115
0.028907496
0.028913452
0.028919744
0.028917856
0.02888539
0.028777114
0.028478041
0.027768428
0.026549342
0.02735147
0.027714381
0.027854915
0.027900125
0.027904905
0.027897739
0.027890162
0.027887002
0.027884731
0.02788473
0.027887001
0.027890159
0.027897736
0.027904902
0.027900122
0.027854913
0.027714379
0.027351469
0.026549344
0.02525727
0.026167418
0.026611165
0.026795328
0.026859305
0.026869135
0.026861204
0.026851531
0.026847115
0.026844134
0.026844133
0.026847114
0.026851528
0.026861201
0.026869133
0.026859303
0.026795327
0.026611164
0.02616742
0.025257276
0.023862709
0.024900891
0.025447733
0.025690981
0.02578289
0.025800913
0.025792584
0.025780222
0.025773902
0.025769836
0.025769835
0.0257739
0.02578022
0.025792582
0.025800911
0.025782888
0.02569098
0.025447734
0.024900896
0.02386272
0.022325571
0.023517366
0.024196814
0.024521778
0.024654034
0.024686259
0.024678631
0.024662855
0.024653697
0.024647956
0.024647955
0.024653696
0.024662853
0.024678629
0.024686258
0.024654034
0.024521779
0.024196816
0.023517375
0.022325588
0.020591527
0.021970389
0.0228223
0.023259782
0.023452571
0.02350732
0.023502839
0.023482832
0.023469452
0.023461112
0.023461111
0.023469451
0.02348283
0.023502838
0.023507319
0.023452571
0.023259784
0.022822305
0.021970403
0.020591557
0.018574146
0.020190281
0.021270754
0.021867807
0.02215091
0.022244029
0.022247375
0.022222372
0.022202747
0.022190363
0.022190362
0.022202746
0.022222371
0.022247374
0.02224403
0.022150912
0.021867812
0.021270764
0.020190307
0.018574189
0.016100384
0.018025988
0.019431958
0.020262226
0.020689743
0.020849344
0.02087096
0.020841466
0.02081304
0.020794528
0.020794527
0.020813039
0.020841465
0.020870961
0.020849346
0.020689747
0.020262233
0.019431973
0.018026024
0.016100438
0.013255063
0.015369215
0.017142785
0.018291127
0.018926344
0.019200673
0.019257769
0.019224723
0.019182443
0.019153774
0.019153773
0.019182442
0.019224722
0.019257771
0.019200675
0.018926348
0.018291134
0.017142804
0.015369258
0.013255139
0.0096832721
0.012257088
0.014528023
0.016156423
0.017133831
0.017609922
0.017744262
0.017715904
0.017652961
0.017607189
0.017607188
0.01765296
0.017715904
0.017744263
0.017609924
0.017133835
0.016156434
0.014528051
0.012257147
0.0096833717
0.0057592483
0.0088281759
0.011403277
0.013451144
0.014877329
0.015608263
0.015869223
0.015864261
0.015776162
0.015705396
0.015705396
0.015776163
0.015864264
0.015869228
0.015608268
0.014877343
0.013451158
0.011403311
0.008828233
0.0057593443
0.0025202088
0.005874418
0.0085727081
0.010816453
0.012506489
0.0135446
0.013962612
0.013972251
0.01385259
0.013749226
0.013749226
0.013852591
0.013972254
0.013962616
0.013544603
0.012506496
0.010816473
0.0085727408
0.0058744664
0.0025202725
0.00077169353
0.0036527564
0.0063039278
0.0086078127
0.010421328
0.011581463
0.012088018
0.012136399
0.011990497
0.01185112
0.01185112
0.011990499
0.012136402
0.012088021
0.011581465
0.010421332
0.008607828
0.0063039513
0.0036527849
0.00077172378
0.00016739206
0.0021367774
0.0045726586
0.0068236318
0.0086419068
0.0098382379
0.010373737
0.010417906
0.010248134
0.010089383
0.010089384
0.010248136
0.010417909
0.010373739
0.0098382372
0.0086419061
0.0068236362
0.00457267
0.0021367894
0.00016740154
2.718793e-05
0.0011716409
0.003280331
0.005391251
0.0071349007
0.0082936001
0.0088145055
0.0088499607
0.0086682895
0.0084981916
0.0084981918
0.0086682909
0.0088499626
0.0088145057
0.0082935974
0.0071348956
0.0053912486
0.0032803323
0.001171645
2.7189873e-05
3.5654618e-06
0.00060137211
0.0023204414
0.004231376
0.0058476653
0.0069238217
0.0074031241
0.0074269501
0.0072468019
0.0070800033
0.0070800033
0.0072468023
0.0074269507
0.0074031227
0.0069238175
0.0058476581
0.0042313705
0.0023204387
0.00060137436
3.5657365e-06
4.0668137e-07
0.00029084897
0.0016094781
0.003281275
0.0047370469
0.005705994
0.0061317743
0.0061467068
0.0059796049
0.0058267997
0.0058267993
0.0059796044
0.006146706
0.0061317721
0.0057059893
0.0047370394
0.0032812684
0.0016094748
0.00029085019
4.0671151e-07
4.2865285e-08
0.00013395915
0.0010880615
0.0025000743
0.0037761584
0.0046269553
0.004996961
0.005007949
0.0048622668
0.0047302054
0.0047302047
0.0048622653
0.0050079472
0.0049969582
0.0046269507
0.0037761517
0.0025000685
0.001088059
0.00013395973
4.286806e-08
4.3550051e-09
5.9337094e-05
0.00071373275
0.0018623334
0.0029505359
0.0036813201
0.0039984337
0.0040101804
0.0038904123
0.0037819709
0.0037819699
0.0038904102
0.0040101779
0.0039984306
0.0036813159
0.0029505304
0.0018623288
0.00071373119
5.9337343e-05
4.3552295e-09
)
;

boundaryField
{
    Wall
    {
        type            zeroGradient;
    }
    frontAndBack
    {
        type            empty;
    }
    atmosphere
    {
        type            zeroGradient;
    }
}


// ************************************************************************* //
