/*--------------------------------*- C++ -*----------------------------------*\
| =========                 |                                                 |
| \\      /  F ield         | OpenFOAM: The Open Source CFD Toolbox           |
|  \\    /   O peration     | Version:  3.0.1                                 |
|   \\  /    A nd           | Web:      www.OpenFOAM.org                      |
|    \\/     M anipulation  |                                                 |
\*---------------------------------------------------------------------------*/
FoamFile
{
    version     2.0;
    format      ascii;
    class       volScalarField;
    location    "32";
    object      wBA_g;
}
// * * * * * * * * * * * * * * * * * * * * * * * * * * * * * * * * * * * * * //

dimensions      [0 0 0 0 0 0 0];

internalField   nonuniform List<scalar> 
800
(
0.049549581
0.049550367
0.049550645
0.049550756
0.049550829
0.049550884
0.049550926
0.049550956
0.049550976
0.049550985
0.049550985
0.049550976
0.049550956
0.049550926
0.049550884
0.049550829
0.049550756
0.049550645
0.049550367
0.049549581
0.052449342
0.052381248
0.052361834
0.05235534
0.052353139
0.052352497
0.052352383
0.05235241
0.052352452
0.052352478
0.052352478
0.052352453
0.052352411
0.052352384
0.052352499
0.052353141
0.052355343
0.052361838
0.052381252
0.052449351
0.054575587
0.054481211
0.054457516
0.054446491
0.054442384
0.05444094
0.054440472
0.054440342
0.05444031
0.054440305
0.054440305
0.054440311
0.054440343
0.054440474
0.054440941
0.054442386
0.054446493
0.05445752
0.054481217
0.054575597
0.055987257
0.055882138
0.055864487
0.05585227
0.055847661
0.055845952
0.055845292
0.05584505
0.055844945
0.055844907
0.055844907
0.055844945
0.05584505
0.055845292
0.055845952
0.055847662
0.055852271
0.05586449
0.055882141
0.055987263
0.056742842
0.056644283
0.056635495
0.056627278
0.056623266
0.056621795
0.056621158
0.05662091
0.056620773
0.056620721
0.056620721
0.056620772
0.056620909
0.056621156
0.056621793
0.056623264
0.056627275
0.056635493
0.056644282
0.056742841
0.05691559
0.056841189
0.056839571
0.056840318
0.056837463
0.056836518
0.056836042
0.056835875
0.056835744
0.056835701
0.0568357
0.056835742
0.056835872
0.056836038
0.056836513
0.056837457
0.056840312
0.056839565
0.056841182
0.056915582
0.056593139
0.056557894
0.056559865
0.05657247
0.056570759
0.056570369
0.05657008
0.056570026
0.056569919
0.056569898
0.056569897
0.056569917
0.056570022
0.056570074
0.056570361
0.05657075
0.056572459
0.056559854
0.056557882
0.056593124
0.055874896
0.055887952
0.055890737
0.05591524
0.055914093
0.055914008
0.055913796
0.055913818
0.055913718
0.055913718
0.055913717
0.055913714
0.055913812
0.055913788
0.055913997
0.05591408
0.055915225
0.055890721
0.055887934
0.055874874
0.054867895
0.054930649
0.054933191
0.054966878
0.054966096
0.054965814
0.054965429
0.054965406
0.054965252
0.054965254
0.054965253
0.054965248
0.054965398
0.054965418
0.054965799
0.054966079
0.054966858
0.05493317
0.054930626
0.054867868
0.053679577
0.053787279
0.05378909
0.053827023
0.053827598
0.053827194
0.053826246
0.053825969
0.05382565
0.053825608
0.053825607
0.053825645
0.05382596
0.053826233
0.053827178
0.053827578
0.053827
0.053789066
0.053787253
0.053679545
0.052410432
0.052555603
0.052555539
0.052591188
0.052595729
0.052596701
0.052594645
0.052593797
0.052593139
0.052592977
0.052592975
0.052593133
0.052593787
0.052594631
0.052596683
0.052595707
0.052591163
0.052555512
0.052555574
0.052410398
0.051148337
0.0513241
0.051319991
0.051345665
0.051359282
0.051364501
0.051360598
0.051358724
0.05135747
0.051357072
0.05135707
0.051357465
0.051358714
0.051360584
0.051364482
0.051359259
0.051345638
0.051319962
0.051324069
0.051148302
0.049966291
0.050169072
0.050157795
0.05016539
0.050196272
0.050209051
0.050202309
0.050198754
0.050197051
0.050196215
0.050196213
0.050197046
0.050198744
0.050202294
0.050209031
0.050196248
0.050165363
0.050157766
0.05016904
0.049966256
0.048922084
0.049152237
0.049131005
0.049113667
0.049171424
0.049194021
0.049183106
0.049176933
0.049176564
0.049174981
0.049174979
0.049176559
0.049176923
0.049183092
0.049194002
0.049171401
0.049113639
0.049130976
0.049152206
0.04892205
0.048057307
0.048319181
0.048286869
0.048240709
0.048333692
0.048366275
0.048349217
0.048339172
0.048344421
0.048342506
0.048342504
0.048344416
0.048339163
0.048349203
0.048366257
0.04833367
0.048240682
0.048286841
0.048319151
0.048057274
0.047394948
0.047695454
0.04765431
0.04757971
0.047711651
0.04775134
0.047725455
0.04770997
0.047726959
0.047727265
0.047727263
0.047726955
0.047709962
0.047725443
0.047751323
0.04771163
0.047579684
0.047654283
0.047695425
0.047394917
0.046943119
0.047290629
0.047246997
0.047148774
0.047317979
0.047358926
0.047321166
0.047298364
0.047332492
0.047340283
0.047340282
0.047332488
0.047298356
0.047321154
0.04735891
0.047317959
0.04714875
0.047246972
0.047290602
0.04694309
0.046696962
0.047101119
0.047064705
0.046950362
0.047152182
0.047186581
0.047134044
0.047101801
0.047155221
0.047177435
0.047177434
0.047155218
0.047101795
0.047134033
0.047186566
0.047152163
0.046950339
0.047064681
0.047101093
0.046696934
0.046642728
0.047115475
0.047097872
0.046974371
0.047205317
0.047224704
0.047154814
0.047110923
0.047181661
0.047224784
0.047224783
0.047181658
0.047110917
0.047154804
0.04722469
0.047205299
0.04697435
0.047097849
0.04711545
0.0466427
0.046758875
0.047316603
0.047329932
0.047201243
0.047462302
0.047459655
0.047370063
0.04731245
0.047395128
0.04746315
0.047463149
0.047395125
0.047312444
0.047370053
0.047459642
0.047462285
0.047201222
0.04732991
0.047316577
0.046758846
0.047013937
0.047678988
0.047737064
0.047606222
0.047902069
0.047872909
0.047761296
0.047688217
0.04777694
0.047870242
0.047870241
0.047776938
0.047688212
0.047761287
0.047872896
0.047902053
0.047606202
0.047737042
0.047678962
0.047013907
0.047364293
0.048166957
0.048287038
0.048160148
0.048496283
0.048439278
0.048302035
0.048212001
0.048303383
0.04841874
0.048418739
0.04830338
0.048211995
0.048302025
0.048439265
0.048496267
0.048160129
0.048287017
0.048166931
0.047364262
0.047746637
0.048730558
0.048937083
0.048826936
0.049208767
0.049123224
0.048956148
0.048847531
0.048941041
0.049072433
0.049072432
0.048941038
0.048847526
0.048956139
0.049123212
0.049208752
0.048826918
0.048937062
0.048730533
0.047746607
0.048065445
0.049303088
0.049631617
0.049562103
0.049989043
0.0498794
0.0496786
0.049549236
0.049644916
0.049784683
0.049784683
0.049644914
0.049549232
0.049678592
0.049879388
0.049989028
0.049562086
0.049631597
0.049303064
0.048065418
0.048195108
0.04978982
0.050296483
0.050316408
0.050771578
0.050659204
0.050421329
0.050268596
0.050364473
0.050504478
0.050504478
0.050364471
0.050268592
0.050421322
0.050659194
0.050771565
0.050316393
0.050296465
0.049789799
0.048195087
0.047974288
0.050068987
0.050839348
0.050998666
0.051466385
0.051377857
0.051100049
0.050921259
0.051012163
0.051144733
0.051144733
0.051012162
0.050921257
0.051100044
0.051377849
0.051466375
0.050998655
0.050839334
0.050068972
0.04797428
0.04710517
0.049902235
0.051069378
0.051422719
0.051881242
0.051860592
0.051540725
0.051333173
0.05141112
0.051529599
0.051529599
0.05141112
0.051333172
0.051540722
0.051860587
0.051881237
0.051422713
0.05106937
0.049902231
0.047105183
0.044919286
0.048850806
0.050619999
0.051174257
0.05165429
0.051723491
0.051363663
0.05112567
0.051181554
0.051280687
0.051280687
0.051181555
0.051125672
0.051363664
0.051723491
0.05165429
0.051174258
0.050620001
0.048850822
0.044919344
0.039362294
0.045422473
0.048414227
0.04938192
0.050063304
0.050202172
0.0498213
0.04956016
0.049589981
0.049668571
0.049668572
0.049589985
0.049560167
0.049821308
0.050202181
0.050063315
0.049381934
0.048414254
0.045422546
0.039362411
0.029874565
0.037118295
0.041599229
0.043385418
0.044323928
0.044831283
0.044504134
0.044261318
0.044280691
0.044347503
0.044347506
0.044280698
0.04426133
0.044504148
0.0448313
0.044323949
0.043385447
0.041599282
0.037118397
0.029874726
0.020135552
0.026325765
0.030950545
0.03323536
0.034447129
0.035107077
0.034926783
0.034746683
0.034773055
0.034836806
0.034836809
0.034773064
0.034746698
0.034926801
0.035107099
0.034447157
0.033235399
0.030950615
0.026325892
0.020135746
0.011435607
0.01709353
0.021299614
0.023708703
0.025069624
0.025698862
0.025630384
0.025483805
0.025488655
0.025535508
0.025535513
0.025488666
0.025483824
0.025630408
0.02569889
0.025069663
0.023708747
0.021299686
0.017093642
0.011435783
0.0050404067
0.010271128
0.013984642
0.016321293
0.017642789
0.018278241
0.018283712
0.018120671
0.01807343
0.018086929
0.018086933
0.018073441
0.018120689
0.018283734
0.018278262
0.017642816
0.016321335
0.013984707
0.010271215
0.0050405214
0.0016418401
0.0056853884
0.0088513262
0.010973374
0.012208847
0.012772081
0.012794139
0.01263682
0.012545776
0.012522912
0.012522916
0.012545787
0.012636838
0.012794158
0.012772099
0.012208867
0.010973409
0.0088513709
0.0056854394
0.0016418975
0.00039555991
0.0029075312
0.0054143609
0.007239453
0.008340604
0.008838512
0.0088683784
0.0087148157
0.0085993044
0.0085566014
0.008556605
0.0085993141
0.0087148303
0.0088683934
0.0088385249
0.0083406168
0.0072394716
0.0054143869
0.0029075547
0.00039558001
7.3346578e-05
0.0013778937
0.0032093278
0.0046923832
0.0056317684
0.0060641379
0.006104357
0.005974058
0.0058593933
0.0058088148
0.0058088177
0.0058594011
0.0059740691
0.0061043677
0.0060641465
0.0056317751
0.0046923923
0.0032093389
0.0013779027
7.3351424e-05
1.1110392e-05
0.00060822045
0.0018479394
0.0029908712
0.003756724
0.0041216649
0.0041705814
0.0040718882
0.0039741288
0.0039267589
0.0039267611
0.0039741344
0.004071896
0.0041705884
0.0041216702
0.0037567271
0.0029908751
0.0018479435
0.00060822438
1.1111216e-05
1.4627032e-06
0.00025293844
0.0010374221
0.0018754359
0.0024743536
0.0027723483
0.0028253382
0.0027574626
0.0026822292
0.0026434009
0.0026434024
0.002682233
0.0027574678
0.0028253428
0.0027723516
0.0024743549
0.0018754372
0.0010374233
0.00025294008
1.4628126e-06
1.7636123e-07
0.00010046916
0.00056916124
0.0011575288
0.001608616
0.0018439859
0.0018960977
0.0018535138
0.0017999109
0.0017708143
0.0017708153
0.0017999133
0.0018535172
0.0018961007
0.001843988
0.0016086165
0.0011575292
0.00056916157
0.00010046979
1.7637331e-07
2.0178136e-08
3.8574453e-05
0.000305724
0.00070325854
0.0010317889
0.0012121495
0.0012597632
0.0012356194
0.0011996564
0.0011791928
0.0011791934
0.0011996579
0.0012356216
0.001259765
0.0012121507
0.0010317891
0.00070325851
0.00030572408
3.8574674e-05
2.0179292e-08
)
;

boundaryField
{
    Wall
    {
        type            zeroGradient;
    }
    frontAndBack
    {
        type            empty;
    }
    atmosphere
    {
        type            zeroGradient;
    }
}


// ************************************************************************* //
