/*--------------------------------*- C++ -*----------------------------------*\
| =========                 |                                                 |
| \\      /  F ield         | OpenFOAM: The Open Source CFD Toolbox           |
|  \\    /   O peration     | Version:  3.0.1                                 |
|   \\  /    A nd           | Web:      www.OpenFOAM.org                      |
|    \\/     M anipulation  |                                                 |
\*---------------------------------------------------------------------------*/
FoamFile
{
    version     2.0;
    format      ascii;
    class       volScalarField;
    location    "32";
    object      wBA_l;
}
// * * * * * * * * * * * * * * * * * * * * * * * * * * * * * * * * * * * * * //

dimensions      [0 0 0 0 0 0 0];

internalField   nonuniform List<scalar> 
800
(
0.04244251
0.042440284
0.042439885
0.042439837
0.042439833
0.04243983
0.042439824
0.042439817
0.042439812
0.042439809
0.042439809
0.042439812
0.042439817
0.042439824
0.04243983
0.042439833
0.042439837
0.042439885
0.042440284
0.04244251
0.04297421
0.042949187
0.042942984
0.042941292
0.042940896
0.042940845
0.042940863
0.042940879
0.042940884
0.042940885
0.042940885
0.042940884
0.042940879
0.042940863
0.042940845
0.042940896
0.042941293
0.042942985
0.042949188
0.042974212
0.043285918
0.043252368
0.043242798
0.043240209
0.043239542
0.043239387
0.043239345
0.043239315
0.043239288
0.043239272
0.043239272
0.043239289
0.043239316
0.043239345
0.043239388
0.043239542
0.04324021
0.043242799
0.043252369
0.04328592
0.043388857
0.043354941
0.043344911
0.043342449
0.04334185
0.043341675
0.043341567
0.043341468
0.043341387
0.043341343
0.043341343
0.043341387
0.043341468
0.043341567
0.043341675
0.04334185
0.043342449
0.043344912
0.043354942
0.043388859
0.043294444
0.04326812
0.043259953
0.043258411
0.043258172
0.043258063
0.043257903
0.043257727
0.043257582
0.043257503
0.043257503
0.043257582
0.043257727
0.043257903
0.043258063
0.043258171
0.043258411
0.043259953
0.04326812
0.043294444
0.043016938
0.04300553
0.043001165
0.043001164
0.0430015
0.04300152
0.043001316
0.043001057
0.043000838
0.043000721
0.04300072
0.043000838
0.043001056
0.043001315
0.043001519
0.043001498
0.043001163
0.043001163
0.043005529
0.043016936
0.042573476
0.042583328
0.042584435
0.042586457
0.042587504
0.042587683
0.042587434
0.042587084
0.042586786
0.042586625
0.042586625
0.042586785
0.042587082
0.042587432
0.042587681
0.042587501
0.042586454
0.042584432
0.042583324
0.042573471
0.04198418
0.042020426
0.042028455
0.042032847
0.042034669
0.042034999
0.042034692
0.04203424
0.042033855
0.042033649
0.042033649
0.042033854
0.042034238
0.042034689
0.042034996
0.042034665
0.042032843
0.04202845
0.042020421
0.041984174
0.041270849
0.041337565
0.041353828
0.041360821
0.041363418
0.041363874
0.041363484
0.041362918
0.041362439
0.041362184
0.041362184
0.041362437
0.041362916
0.041363481
0.041363871
0.041363413
0.041360815
0.041353822
0.041337558
0.041270842
0.040455939
0.040556047
0.040581693
0.040591419
0.04059475
0.040595296
0.040594791
0.040594094
0.040593511
0.040593203
0.040593203
0.040593509
0.040594091
0.040594787
0.040595291
0.040594745
0.040591413
0.040581686
0.040556039
0.04045593
0.039561428
0.039697066
0.039733139
0.039745669
0.03974969
0.039750285
0.039749629
0.039748784
0.039748083
0.039747718
0.039747717
0.039748081
0.039748781
0.039749625
0.03975028
0.039749684
0.039745662
0.039733131
0.039697058
0.039561419
0.038606693
0.038779546
0.038827079
0.03884246
0.038847151
0.03884775
0.038846905
0.038845891
0.038845066
0.038844634
0.038844633
0.038845064
0.038845888
0.038846901
0.038847744
0.038847144
0.038842453
0.038827071
0.038779537
0.038606683
0.037601468
0.037812416
0.0378731
0.037891455
0.037896326
0.037896635
0.037895577
0.037894385
0.03789344
0.037892932
0.037892931
0.037893438
0.037894381
0.037895572
0.037896629
0.037896319
0.037891448
0.037873092
0.037812407
0.037601458
0.036569333
0.036819545
0.036893778
0.036915403
0.036920835
0.036920831
0.036919715
0.036918312
0.036917248
0.036916663
0.036916663
0.036917246
0.036918309
0.03691971
0.036920825
0.036920828
0.036915396
0.036893769
0.036819536
0.036569324
0.03552173
0.035812874
0.035901813
0.035927281
0.035933209
0.035933072
0.035931633
0.035929994
0.035928815
0.035928168
0.035928167
0.035928813
0.035929991
0.035931629
0.035933066
0.035933202
0.035927273
0.035901805
0.035812866
0.035521722
0.03445903
0.034794911
0.03490034
0.0349305
0.034937485
0.034937227
0.034935291
0.034933403
0.034932119
0.03493142
0.034931419
0.034932117
0.0349334
0.034935286
0.034937222
0.034937479
0.034930493
0.034900332
0.034794903
0.034459022
0.033385445
0.033769519
0.033893857
0.033929872
0.033938442
0.033938014
0.033935524
0.033933357
0.033931975
0.033931214
0.033931213
0.033931973
0.033933353
0.03393552
0.033938009
0.033938436
0.033929866
0.033893849
0.033769512
0.033385437
0.032303858
0.032739805
0.032886339
0.032929815
0.032940497
0.032939913
0.032936839
0.032934312
0.032932834
0.032931978
0.032931977
0.032932832
0.032934308
0.032936835
0.032939908
0.032940491
0.032929809
0.032886332
0.032739799
0.032303852
0.031213372
0.031705838
0.03187901
0.031932216
0.031945764
0.03194516
0.031941444
0.031938418
0.031936837
0.03193584
0.031935839
0.031936836
0.031938415
0.03194144
0.031945155
0.031945759
0.031932211
0.031879004
0.031705832
0.031213368
0.030109293
0.030664233
0.030869935
0.030936069
0.030953663
0.030953314
0.03094886
0.030945145
0.030943433
0.030942243
0.030942242
0.030943431
0.030945141
0.030948856
0.03095331
0.030953658
0.030936064
0.030869929
0.030664228
0.03010929
0.028983459
0.029608371
0.029854258
0.029937746
0.02996119
0.029961553
0.029956251
0.029951607
0.029949673
0.029948233
0.029948232
0.029949671
0.029951604
0.029956247
0.029961549
0.029961186
0.029937742
0.029854254
0.029608368
0.028983457
0.027824081
0.028528417
0.028824348
0.028931213
0.028963189
0.02896502
0.028958807
0.028952941
0.028950582
0.02894881
0.028948809
0.028950581
0.028952938
0.028958804
0.028965017
0.028963185
0.02893121
0.028824345
0.028528415
0.027824082
0.026615143
0.027410903
0.02776957
0.027907999
0.027952391
0.027957006
0.027949915
0.027942458
0.027939345
0.027937106
0.027937105
0.027939343
0.027942455
0.027949913
0.027957003
0.027952388
0.027907997
0.027769567
0.027410902
0.026615145
0.025335369
0.026237741
0.026675734
0.026856801
0.026919437
0.026928924
0.026921058
0.026911545
0.026907213
0.026904283
0.026904282
0.026907211
0.026911542
0.026921055
0.026928921
0.026919434
0.026856799
0.026675733
0.026237743
0.025335375
0.023956155
0.024984708
0.02552373
0.025762429
0.025852177
0.025869575
0.025861281
0.025849133
0.025842953
0.025838972
0.025838971
0.025842951
0.025849131
0.025861279
0.025869574
0.025852176
0.025762429
0.02552373
0.024984713
0.023956166
0.022438674
0.023618431
0.024287141
0.024605375
0.024734272
0.024765334
0.024757645
0.024742156
0.024733227
0.024727626
0.024727625
0.024733226
0.024742154
0.024757643
0.024765333
0.024734272
0.024605376
0.024287144
0.02361844
0.022438691
0.020730463
0.022093952
0.022931055
0.023358622
0.023546076
0.023598812
0.023594047
0.023574419
0.023561409
0.023553301
0.0235533
0.023561407
0.023574417
0.023594046
0.023598812
0.023546076
0.023358624
0.02293106
0.022093967
0.020730489
0.018752197
0.020345368
0.021404519
0.021986563
0.022261126
0.022350565
0.022353161
0.022328629
0.022309586
0.022297582
0.022297582
0.022309585
0.022328627
0.022353161
0.022350565
0.022261127
0.021986567
0.021404527
0.020345389
0.018752237
0.016331049
0.018234564
0.019609864
0.020416486
0.020828509
0.020981305
0.021000846
0.020971649
0.020943962
0.020925994
0.020925993
0.020943961
0.020971648
0.021000847
0.020981306
0.020828512
0.020416492
0.019609879
0.018234599
0.016331107
0.013541652
0.015625937
0.017365286
0.018482397
0.019097224
0.01936019
0.01941386
0.019381292
0.019340592
0.01931305
0.019313049
0.019340592
0.019381291
0.019413861
0.019360192
0.019097229
0.018482405
0.017365306
0.015625981
0.013541727
0.010048258
0.012581406
0.014807467
0.016389667
0.017332631
0.017786416
0.0179119
0.017882773
0.017821894
0.017777908
0.017777907
0.017821893
0.017882773
0.017911901
0.017786418
0.017332635
0.016389677
0.014807495
0.012581464
0.010048358
0.0061321205
0.0091474555
0.011710806
0.013715552
0.015095882
0.015809461
0.016060287
0.016053871
0.015968995
0.015901146
0.015901146
0.015968995
0.016053873
0.016060293
0.015809467
0.015095895
0.013715568
0.011710839
0.0091475141
0.0061322194
0.0027789246
0.0061337547
0.0088268854
0.011073713
0.012741106
0.013757563
0.0141662
0.014179365
0.014063512
0.013963247
0.013963246
0.014063514
0.014179367
0.014166204
0.013757567
0.012741113
0.011073731
0.0088269197
0.0061338053
0.0027789926
0.00088292272
0.003838267
0.0065014796
0.0088126577
0.010625075
0.01178697
0.012294581
0.012342534
0.012199613
0.012063738
0.012063738
0.012199615
0.012342537
0.012294584
0.011786973
0.01062508
0.0088126754
0.0065015046
0.0038382979
0.00088295621
0.00019792877
0.0022591871
0.004722469
0.0069869071
0.0088150868
0.010021454
0.010564706
0.010614314
0.010447264
0.010289228
0.010289229
0.010447266
0.010614317
0.010564708
0.010021453
0.0088150867
0.0069869122
0.0047224822
0.0022592007
0.0001979397
3.298121e-05
0.0012471784
0.0033928592
0.005523822
0.0072859309
0.0084607854
0.0089929251
0.0090338698
0.0088535579
0.0086833307
0.008683331
0.0088535595
0.009033872
0.0089929255
0.0084607827
0.0072859262
0.0055238201
0.0033928612
0.0012471831
3.2983555e-05
4.3965748e-06
0.00064405905
0.0024043656
0.0043423004
0.0059817305
0.0070774396
0.0075695562
0.0075983787
0.0074179275
0.0072494354
0.0072494354
0.0074179281
0.0075983795
0.007569555
0.0070774353
0.0059817232
0.0043422948
0.002404363
0.00064406141
4.3969181e-06
5.0560987e-07
0.00031310963
0.0016727165
0.0033753544
0.0048570736
0.0058469505
0.006285535
0.0063044151
0.0061356295
0.0059800744
0.005980074
0.0061356291
0.0063044146
0.0062855328
0.0058469457
0.004857066
0.0033753476
0.0016727129
0.0003131109
5.0564858e-07
5.3434287e-08
0.00014482425
0.001135042
0.0025797705
0.0038832371
0.00475503
0.0051369396
0.0051507654
0.0050025251
0.0048672013
0.0048672006
0.0050025237
0.0051507639
0.0051369369
0.0047550252
0.0038832302
0.0025797644
0.0011350393
0.00014482486
5.3437898e-08
5.4174701e-09
6.43517e-05
0.00074751276
0.0019283935
0.0030443282
0.0037957197
0.004123921
0.0041375113
0.0040145223
0.0039026126
0.0039026116
0.0040145205
0.004137509
0.004123918
0.0037957153
0.0030443224
0.0019283886
0.00074751101
6.4351963e-05
5.4177637e-09
)
;

boundaryField
{
    Wall
    {
        type            zeroGradient;
    }
    frontAndBack
    {
        type            empty;
    }
    atmosphere
    {
        type            zeroGradient;
    }
}


// ************************************************************************* //
