/*--------------------------------*- C++ -*----------------------------------*\
| =========                 |                                                 |
| \\      /  F ield         | OpenFOAM: The Open Source CFD Toolbox           |
|  \\    /   O peration     | Version:  3.0.1                                 |
|   \\  /    A nd           | Web:      www.OpenFOAM.org                      |
|    \\/     M anipulation  |                                                 |
\*---------------------------------------------------------------------------*/
FoamFile
{
    version     2.0;
    format      ascii;
    class       volScalarField;
    location    "32";
    object      wCO2_l;
}
// * * * * * * * * * * * * * * * * * * * * * * * * * * * * * * * * * * * * * //

dimensions      [0 0 0 0 0 0 0];

internalField   nonuniform List<scalar> 
800
(
0.0038059362
0.0038062361
0.0038063183
0.0038063324
0.0038063338
0.0038063339
0.0038063344
0.0038063352
0.0038063359
0.0038063363
0.0038063363
0.0038063359
0.0038063352
0.0038063344
0.0038063339
0.0038063338
0.0038063324
0.0038063183
0.0038062361
0.0038059362
0.0038060801
0.0038073496
0.0038081305
0.0038084708
0.0038085969
0.0038086247
0.0038086146
0.0038085952
0.003808579
0.0038085702
0.0038085702
0.003808579
0.0038085952
0.0038086145
0.0038086246
0.0038085968
0.0038084707
0.0038081303
0.0038073493
0.0038060796
0.0038573621
0.0038577113
0.0038581441
0.0038585596
0.0038587382
0.0038587904
0.003858788
0.0038587686
0.0038587501
0.0038587395
0.0038587395
0.0038587501
0.0038587685
0.0038587879
0.0038587904
0.0038587381
0.0038585594
0.0038581438
0.0038577109
0.0038573616
0.0039578222
0.0039554122
0.0039548778
0.0039551739
0.0039553266
0.0039553841
0.0039553922
0.0039553813
0.0039553682
0.0039553599
0.00395536
0.0039553682
0.0039553813
0.0039553922
0.0039553841
0.0039553266
0.0039551739
0.0039548777
0.0039554121
0.0039578219
0.0041086253
0.0041013096
0.004099347
0.0040991943
0.004099246
0.0040992876
0.0040993042
0.0040993055
0.0040993022
0.0040992989
0.0040992989
0.0040993023
0.0040993056
0.0040993043
0.0040992878
0.0040992463
0.0040991946
0.0040993473
0.0041013098
0.0041086254
0.0043133547
0.0042985372
0.0042947059
0.0042936901
0.0042935661
0.0042935698
0.0042935913
0.0042936067
0.0042936162
0.0042936195
0.0042936195
0.0042936164
0.004293607
0.0042935917
0.0042935703
0.0042935666
0.0042936908
0.0042947065
0.0042985379
0.0043133554
0.00457776
0.0045521578
0.00454594
0.0045436448
0.0045432758
0.004543222
0.0045432457
0.004543277
0.0045433016
0.0045433127
0.0045433128
0.0045433019
0.0045432775
0.0045432464
0.0045432228
0.0045432768
0.0045436459
0.0045459412
0.004552159
0.0045777614
0.004909794
0.0048693486
0.004859929
0.0048559841
0.0048553171
0.0048551915
0.0048552168
0.0048552661
0.0048553086
0.0048553287
0.0048553289
0.0048553091
0.0048552668
0.0048552179
0.0048551928
0.0048553186
0.0048559858
0.0048599308
0.0048693505
0.0049097961
0.0053189963
0.0052591
0.0052452219
0.0052393302
0.0052382733
0.0052380763
0.0052381055
0.0052381749
0.0052382387
0.0052382691
0.0052382693
0.0052382394
0.005238176
0.0052381069
0.005238078
0.0052382754
0.0052393326
0.0052452244
0.0052591026
0.0053189991
0.0058162605
0.0057316655
0.0057115534
0.0057035041
0.0057018612
0.0057015473
0.0057015811
0.0057016723
0.0057017618
0.0057018039
0.0057018041
0.0057017627
0.0057016737
0.0057015831
0.0057015497
0.0057018639
0.0057035071
0.0057115566
0.0057316688
0.0058162641
0.0064136124
0.0062985405
0.0062699431
0.006259625
0.006257042
0.0062564351
0.0062564681
0.00625658
0.0062567026
0.0062567582
0.0062567586
0.0062567037
0.0062565818
0.0062564706
0.0062564381
0.0062570455
0.0062596288
0.0062699472
0.0062985447
0.0064136168
0.0071230778
0.0069712908
0.0069316341
0.0069190552
0.0069148541
0.0069136074
0.0069136273
0.0069137557
0.0069139303
0.0069140029
0.0069140033
0.0069139316
0.0069137578
0.0069136302
0.0069136109
0.0069148583
0.0069190599
0.006931639
0.0069712958
0.0071230833
0.0079478359
0.0077519955
0.0076995473
0.0076848229
0.0076771385
0.007674457
0.0076744673
0.0076746146
0.0076748162
0.007674913
0.0076749135
0.0076748177
0.007674617
0.0076744707
0.0076744612
0.0076771434
0.0076848283
0.007699553
0.0077520015
0.0079478424
0.0089076967
0.0086599957
0.0085915136
0.0085746698
0.0085620974
0.0085574813
0.0085577721
0.0085579266
0.0085578423
0.0085579854
0.008557986
0.008557844
0.0085579293
0.008557776
0.0085574861
0.0085621029
0.0085746761
0.0085915203
0.0086600027
0.0089077044
0.010012553
0.0097048085
0.0096180561
0.009598865
0.0095789495
0.009572298
0.0095726353
0.0095728168
0.0095715606
0.0095717191
0.0095717197
0.0095715624
0.0095728199
0.0095726396
0.0095723032
0.0095789556
0.009598872
0.0096180636
0.0097048164
0.010012562
0.011252951
0.010881706
0.01077494
0.010752858
0.010724488
0.010715787
0.010716001
0.010716324
0.010712376
0.0107123
0.0107123
0.010712378
0.010716327
0.010716006
0.010715793
0.010724495
0.010752865
0.010774949
0.010881714
0.011252961
0.012629146
0.012191444
0.012062622
0.01203678
0.011999385
0.011988639
0.011988399
0.011989051
0.011980561
0.011979655
0.011979656
0.011980563
0.011989054
0.011988403
0.011988645
0.011999392
0.012036788
0.012062631
0.012191453
0.012629156
0.014142753
0.013637213
0.013483872
0.013453481
0.013406972
0.013394012
0.01339261
0.013393846
0.013378894
0.013376285
0.013376286
0.013378896
0.013393849
0.013392615
0.013394018
0.013406979
0.01345349
0.013483881
0.013637222
0.014142762
0.015791851
0.015220234
0.015039791
0.015004739
0.014948903
0.014933334
0.014929946
0.014932111
0.014908853
0.014903629
0.01490363
0.014908855
0.014932114
0.01492995
0.01493334
0.01494891
0.015004747
0.0150398
0.015220243
0.01579186
0.017569156
0.016938078
0.016728574
0.016689818
0.016622733
0.016604217
0.016598489
0.016602048
0.016569167
0.016560684
0.016560685
0.016569168
0.016602051
0.016598493
0.016604222
0.01662274
0.016689826
0.016728582
0.016938087
0.017569164
0.019459485
0.01878316
0.018544288
0.018502606
0.018420489
0.018399204
0.018391805
0.018397352
0.018354764
0.018342872
0.018342872
0.018354765
0.018397354
0.018391808
0.018399209
0.018420495
0.018502612
0.018544295
0.018783167
0.01945949
0.021436395
0.020737586
0.020472659
0.020427767
0.020327689
0.020302696
0.020295422
0.020303641
0.020253169
0.020238304
0.020238304
0.02025317
0.020303642
0.020295425
0.0203027
0.020327694
0.020427773
0.020472665
0.020737592
0.021436399
0.023457544
0.022767108
0.022485878
0.022434249
0.022318027
0.022287352
0.022279146
0.022290847
0.022236591
0.022219754
0.022219754
0.022236592
0.022290849
0.022279148
0.022287355
0.02231803
0.022434253
0.022485882
0.022767112
0.023457546
0.025442914
0.024806591
0.02452986
0.024463298
0.02434035
0.024297975
0.024285896
0.024302165
0.024250341
0.02423302
0.02423302
0.024250341
0.024302166
0.024285898
0.024297977
0.024340353
0.024463301
0.024529863
0.024806593
0.025442916
0.027234203
0.026734054
0.026487717
0.026410869
0.026286719
0.026231237
0.026217804
0.026240093
0.026198247
0.02618232
0.02618232
0.026198247
0.026240094
0.026217805
0.026231239
0.026286721
0.026410872
0.026487719
0.026734058
0.02723421
0.028557655
0.028337113
0.028158029
0.028109236
0.027976755
0.027924842
0.027922082
0.02795186
0.027927364
0.027914835
0.027914835
0.027927364
0.027951861
0.027922083
0.027924844
0.027976757
0.028109239
0.028158033
0.02833712
0.028557671
0.029015089
0.02928807
0.029258482
0.029260738
0.029163886
0.029105518
0.029129572
0.029167403
0.029165193
0.029157646
0.029157646
0.029165194
0.029167404
0.029129575
0.029105521
0.02916389
0.029260743
0.02925849
0.029288087
0.029015121
0.028083136
0.029047882
0.029342559
0.029499167
0.029452556
0.029446218
0.029506277
0.029550114
0.029569911
0.029567508
0.029567509
0.029569912
0.029550116
0.029506281
0.029446223
0.029452562
0.029499176
0.029342574
0.029047914
0.028083192
0.024840426
0.027006525
0.027919717
0.028255471
0.028339436
0.028440767
0.028529998
0.028573223
0.028606767
0.028607019
0.028607019
0.028606769
0.028573226
0.028530003
0.028440774
0.028339445
0.028255485
0.027919742
0.027006575
0.024840502
0.018146506
0.021908123
0.023891994
0.02467986
0.025075159
0.025316654
0.025414869
0.02544574
0.025476478
0.025473556
0.025473557
0.02547648
0.025445744
0.025414874
0.025316661
0.025075169
0.024679875
0.023892023
0.021908181
0.018146599
0.012126305
0.015319081
0.017546673
0.018674963
0.01925
0.019598605
0.019698514
0.019709814
0.019722194
0.019709597
0.019709598
0.019722197
0.019709819
0.019698521
0.019598612
0.01925001
0.018674981
0.017546708
0.01531915
0.012126417
0.0069811703
0.010137475
0.012377805
0.013708138
0.01446995
0.014838674
0.014946896
0.014940974
0.014928414
0.014903227
0.014903229
0.014928418
0.014940982
0.014946906
0.014838685
0.014469967
0.013708158
0.012377842
0.010137536
0.0069812735
0.0031638936
0.006347182
0.008549477
0.010000705
0.010867399
0.01130905
0.01143847
0.011404258
0.011357653
0.011314375
0.011314377
0.011357658
0.011404266
0.011438479
0.011309057
0.01086741
0.010000725
0.0085495114
0.0063472323
0.0031639638
0.0010690192
0.0037366566
0.0058106071
0.0072772063
0.0082010012
0.008669193
0.0088057485
0.0087642857
0.008689815
0.0086272978
0.0086272998
0.0086898204
0.0087642935
0.0088057563
0.0086692
0.0082010097
0.0072772242
0.0058106317
0.003736687
0.0010690559
0.00026868314
0.0020764354
0.0038923608
0.0052880577
0.0062067324
0.0066829525
0.0068221504
0.0067712092
0.0066781116
0.0066058641
0.0066058661
0.0066781165
0.0067712162
0.0068221569
0.0066829573
0.0062067371
0.0052880661
0.003892375
0.0020764497
0.00026869661
5.2212558e-05
0.0010906085
0.0025737468
0.0038328832
0.0046997969
0.0051608767
0.0052994684
0.0052492778
0.0051511247
0.0050755997
0.0050756014
0.0051511289
0.0052492834
0.0052994731
0.0051608795
0.0046997983
0.0038328862
0.002573752
0.001090614
5.2215953e-05
8.328567e-06
0.000542176
0.0016795523
0.0027659279
0.0035485137
0.0039759842
0.0041095561
0.0040664862
0.0039742041
0.0039027565
0.0039027579
0.0039742074
0.0040664904
0.0041095592
0.0039759856
0.0035485131
0.002765928
0.0016795532
0.00054217855
8.3291713e-06
1.1609721e-06
0.00025691028
0.0010812005
0.0019814116
0.0026626213
0.0030447695
0.0031694721
0.0031364849
0.0030564913
0.0029937941
0.0029937951
0.0030564936
0.0031364878
0.0031694741
0.00304477
0.00266262
0.0019814103
0.0010811999
0.00025691148
1.1610563e-06
1.4913329e-07
0.00011715491
0.00068503532
0.001404805
0.0019794293
0.0023107499
0.0024239953
0.0024016347
0.002336616
0.0022847862
0.0022847869
0.0023366174
0.0024016366
0.0024239965
0.00231075
0.0019794278
0.0014048034
0.00068503458
0.00011715544
1.4914309e-07
1.8304031e-08
5.1843502e-05
0.00042612213
0.0009825524
0.0014537187
0.0017336847
0.0018342992
0.0018215606
0.0017714139
0.0017305622
0.0017305626
0.0017714148
0.0018215617
0.0018342998
0.0017336844
0.0014537174
0.00098255101
0.00042612158
5.1843721e-05
1.8305023e-08
)
;

boundaryField
{
    Wall
    {
        type            zeroGradient;
    }
    frontAndBack
    {
        type            empty;
    }
    atmosphere
    {
        type            zeroGradient;
    }
}


// ************************************************************************* //
