/*--------------------------------*- C++ -*----------------------------------*\
| =========                 |                                                 |
| \\      /  F ield         | OpenFOAM: The Open Source CFD Toolbox           |
|  \\    /   O peration     | Version:  3.0.1                                 |
|   \\  /    A nd           | Web:      www.OpenFOAM.org                      |
|    \\/     M anipulation  |                                                 |
\*---------------------------------------------------------------------------*/
FoamFile
{
    version     2.0;
    format      ascii;
    class       volScalarField;
    location    "32";
    object      wCO2_g;
}
// * * * * * * * * * * * * * * * * * * * * * * * * * * * * * * * * * * * * * //

dimensions      [0 0 0 0 0 0 0];

internalField   nonuniform List<scalar> 
800
(
0.017163433
0.017164361
0.017164555
0.017164601
0.017164623
0.01716464
0.017164655
0.017164665
0.017164672
0.017164676
0.017164676
0.017164672
0.017164665
0.017164655
0.01716464
0.017164623
0.017164601
0.017164555
0.017164361
0.017163433
0.017355882
0.017356722
0.01735695
0.017356879
0.017356754
0.017356654
0.017356587
0.017356547
0.017356525
0.017356515
0.017356515
0.017356525
0.017356547
0.017356587
0.017356654
0.017356754
0.017356879
0.01735695
0.017356722
0.017355882
0.017548663
0.017549057
0.017549544
0.017549303
0.01754903
0.017548834
0.017548712
0.017548644
0.017548608
0.017548592
0.017548592
0.017548608
0.017548644
0.017548712
0.017548834
0.01754903
0.017549303
0.017549544
0.017549057
0.017548663
0.017751758
0.017749793
0.017750568
0.017750165
0.017749757
0.017749488
0.017749332
0.017749253
0.017749215
0.0177492
0.0177492
0.017749215
0.017749253
0.017749332
0.017749488
0.017749757
0.017750165
0.017750568
0.017749793
0.017751758
0.017972338
0.017966181
0.017966903
0.017966368
0.0179658
0.017965461
0.017965282
0.017965202
0.017965169
0.017965158
0.017965158
0.017965169
0.017965202
0.017965282
0.017965462
0.0179658
0.017966369
0.017966903
0.017966181
0.017972338
0.018215379
0.018203451
0.018203589
0.018202942
0.018202152
0.018201726
0.018201518
0.018201439
0.018201413
0.018201408
0.018201408
0.018201413
0.018201439
0.018201518
0.018201726
0.018202153
0.018202942
0.018203589
0.018203452
0.01821538
0.018483753
0.018464827
0.018463733
0.018462963
0.018461875
0.018461324
0.018461072
0.018460988
0.018460965
0.018460965
0.018460965
0.018460965
0.018460988
0.018461072
0.018461324
0.018461875
0.018462964
0.018463734
0.018464828
0.018483754
0.018777667
0.01875117
0.018748115
0.018747177
0.018745719
0.018744999
0.018744679
0.018744574
0.018744547
0.018744549
0.018744549
0.018744547
0.018744575
0.018744679
0.018745
0.01874572
0.018747177
0.018748116
0.01875117
0.018777668
0.019094959
0.019061102
0.019055291
0.0190541
0.019052259
0.019051329
0.019050906
0.01905076
0.019050716
0.019050713
0.019050713
0.019050716
0.01905076
0.019050907
0.01905133
0.01905226
0.019054101
0.019055292
0.019061103
0.01909496
0.019431147
0.019391315
0.019382008
0.019380452
0.019378326
0.019377194
0.019376624
0.019376405
0.019376329
0.019376313
0.019376313
0.019376329
0.019376406
0.019376624
0.019377194
0.019378327
0.019380453
0.019382009
0.019391316
0.019431147
0.019779514
0.019736396
0.019723054
0.019721006
0.019718848
0.019717613
0.019716841
0.019716513
0.019716384
0.019716346
0.019716346
0.019716384
0.019716514
0.019716842
0.019717614
0.019718849
0.019721007
0.019723055
0.019736397
0.019779515
0.020131807
0.020089457
0.020071997
0.020069319
0.020067546
0.020066422
0.020065378
0.020064894
0.020064695
0.020064622
0.020064622
0.020064695
0.020064895
0.020065379
0.020066423
0.020067547
0.02006932
0.020071998
0.020089458
0.020131807
0.020486764
0.020451346
0.020429575
0.020426078
0.020425993
0.02042562
0.020424199
0.020423485
0.02042322
0.02042309
0.02042309
0.02042322
0.020423485
0.0204242
0.020425621
0.020425994
0.020426079
0.020429576
0.020451347
0.020486765
0.02082443
0.020803406
0.02078018
0.020775706
0.020777641
0.020778314
0.020776107
0.020775069
0.020774788
0.020774579
0.020774579
0.020774788
0.02077507
0.020776108
0.020778314
0.020777642
0.020775707
0.020780181
0.020803407
0.020824431
0.02113217
0.021134987
0.02111379
0.0211084
0.021113657
0.021115325
0.021112433
0.021110936
0.021110719
0.021110477
0.021110477
0.021110719
0.021110937
0.021112433
0.021115326
0.021113657
0.0211084
0.021113791
0.021134988
0.021132169
0.021408446
0.021442611
0.021427904
0.021422211
0.021431122
0.021433737
0.021429943
0.021427792
0.021427741
0.021427702
0.021427702
0.021427741
0.021427792
0.021429943
0.021433737
0.021431122
0.021422212
0.021427905
0.021442611
0.021408445
0.021638222
0.021714779
0.021712277
0.021707883
0.021721031
0.021724315
0.02171894
0.021715906
0.021716121
0.021716796
0.021716796
0.02171612
0.021715906
0.02171894
0.021724314
0.021721031
0.021707882
0.021712277
0.021714779
0.021638221
0.021801056
0.02193397
0.021950425
0.021950022
0.021968581
0.021971797
0.021963948
0.021959811
0.021960241
0.021962371
0.021962371
0.021960241
0.02195981
0.021963947
0.021971796
0.02196858
0.021950021
0.021950424
0.021933969
0.021801054
0.021876496
0.022081098
0.022124145
0.022131315
0.022156768
0.022158878
0.022147779
0.022142348
0.022142696
0.022147069
0.022147069
0.022142695
0.022142347
0.022147778
0.022158876
0.022156767
0.022131313
0.022124143
0.022081096
0.021876493
0.021843171
0.02213596
0.022214232
0.022233167
0.022267032
0.022267222
0.022252522
0.022245645
0.022245525
0.022252765
0.022252765
0.022245524
0.022245644
0.02225252
0.02226722
0.02226703
0.022233165
0.02221423
0.022135958
0.021843168
0.021676754
0.022075793
0.022199363
0.022234597
0.0222785
0.022276708
0.022258631
0.022250198
0.022249596
0.02225999
0.02225999
0.022249595
0.022250196
0.022258629
0.022276706
0.022278497
0.022234594
0.02219936
0.02207579
0.021676751
0.021348689
0.021873418
0.022054365
0.022111033
0.02216734
0.022164153
0.022143384
0.022133304
0.022132981
0.02214641
0.02214641
0.02213298
0.022133302
0.022143381
0.02216415
0.022167337
0.02211103
0.022054362
0.021873416
0.021348686
0.020825062
0.02149586
0.021748843
0.021833075
0.021905643
0.021902293
0.021879286
0.021867465
0.021868894
0.021884856
0.021884856
0.021868893
0.021867463
0.021879284
0.02190229
0.02190564
0.021833072
0.02174884
0.021495858
0.020825061
0.020063723
0.020902764
0.021245509
0.021365177
0.021459219
0.021457792
0.02143302
0.02141935
0.021424152
0.021441852
0.021441852
0.021424151
0.021419348
0.021433017
0.021457789
0.021459217
0.021365174
0.021245507
0.020902763
0.020063725
0.019012874
0.020044269
0.020496876
0.020664576
0.02078466
0.020790036
0.020765012
0.020749403
0.020758631
0.020777089
0.020777089
0.02075863
0.020749401
0.02076501
0.020790034
0.020784657
0.020664574
0.020496876
0.020044271
0.019012881
0.017613791
0.018860577
0.019445953
0.019678429
0.019828983
0.019849396
0.019826892
0.019809312
0.01982292
0.019841075
0.019841075
0.019822919
0.01980931
0.019826891
0.019849394
0.019828982
0.019678428
0.019445954
0.018860584
0.017613805
0.015805123
0.017281085
0.018025945
0.018338787
0.018527849
0.018572527
0.018555628
0.018536198
0.018552892
0.018569677
0.018569677
0.018552892
0.018536197
0.018555627
0.018572526
0.018527849
0.018338788
0.01802595
0.017281098
0.015805146
0.013528602
0.015232612
0.01616104
0.016564401
0.016803823
0.016882038
0.016872886
0.016852035
0.01686958
0.016884029
0.016884029
0.01686958
0.016852034
0.016872886
0.016882039
0.016803824
0.016564404
0.016161048
0.015232632
0.013528636
0.010741508
0.012634565
0.013759538
0.014266603
0.014578498
0.014689509
0.014689402
0.014668411
0.014684452
0.014695948
0.014695948
0.014684452
0.014668412
0.014689404
0.014689511
0.014578501
0.014266609
0.013759551
0.012634593
0.010741549
0.0077636577
0.0095679613
0.01080247
0.011404347
0.011749021
0.011923174
0.011931401
0.011911625
0.01192368
0.011931743
0.011931743
0.01192368
0.011911627
0.011931403
0.011923177
0.011749025
0.011404354
0.010802484
0.0095679912
0.0077637035
0.00516106
0.0066922895
0.007847866
0.0084671526
0.0088134812
0.008980207
0.0089967449
0.0089801072
0.0089872837
0.0089921743
0.0089921746
0.0089872849
0.0089801093
0.0089967479
0.0089802104
0.0088134861
0.0084671609
0.0078478827
0.0066923221
0.005161111
0.0029493007
0.0043772915
0.0054325737
0.0060628145
0.0064303971
0.0065850165
0.0066084459
0.0065910696
0.0065886931
0.0065880312
0.0065880321
0.0065886951
0.006591073
0.0066084505
0.0065850217
0.0064304048
0.0060628239
0.0054325908
0.0043773197
0.0029493458
0.0013235003
0.0026891291
0.0036558441
0.0042843848
0.0046528666
0.0048231532
0.0048544174
0.0048273182
0.0048101092
0.0048008432
0.004800844
0.0048101113
0.0048273217
0.0048544217
0.0048231571
0.0046528719
0.004284394
0.0036558595
0.0026891512
0.0013235302
0.00044222137
0.00154331
0.0024064371
0.0030037702
0.0033668868
0.0035343539
0.0035658733
0.0035366286
0.0035074171
0.0034892026
0.0034892035
0.0035074196
0.0035366322
0.003565877
0.0035343573
0.0033668909
0.0030037783
0.0024064479
0.0015433231
0.00044223671
0.00010983281
0.00082968965
0.0015513208
0.0020928172
0.0024349769
0.0025966936
0.0026282095
0.0025964472
0.002559939
0.0025371588
0.0025371596
0.0025599412
0.0025964504
0.0026282126
0.002596696
0.0024349793
0.0020928212
0.0015513271
0.00082969576
0.00010983835
2.1073742e-05
0.00041847431
0.00098077101
0.00144786
0.0017569001
0.0019077529
0.0019398819
0.0019107215
0.0018732579
0.0018489686
0.0018489694
0.0018732598
0.001910724
0.0019398842
0.0019077544
0.0017569011
0.0014478617
0.0009807735
0.00041847667
2.107512e-05
3.3145832e-06
0.00019854245
0.00060844665
0.0009934656
0.0012612025
0.0013967633
0.0014288615
0.0014051282
0.0013712798
0.0013485717
0.0013485723
0.0013712812
0.0014051301
0.001428863
0.0013967642
0.0012612027
0.00099346604
0.00060844735
0.00019854352
3.3148255e-06
4.5468969e-07
8.9370402e-05
0.00037079318
0.00067486578
0.00089842173
0.0010159958
0.0010468969
0.0010294076
0.0010013917
0.00098199522
0.00098199566
0.0010013927
0.001029409
0.001046898
0.0010159963
0.00089842158
0.00067486564
0.00037079321
8.9370882e-05
4.5472305e-07
5.733136e-08
3.8590703e-05
0.00022185238
0.00045303271
0.00063364244
0.0007323925
0.0007609994
0.00074931259
0.00072763563
0.00071214983
0.00071215013
0.0007276363
0.00074931347
0.00076100006
0.00073239278
0.0006336422
0.00045303241
0.00022185227
3.8590903e-05
5.7335184e-08
6.8854698e-09
1.6138252e-05
0.00013020023
0.0002998783
0.00044148512
0.00052213709
0.00054773245
0.00054078756
0.00052488997
0.00051314894
0.00051314914
0.0005248904
0.00054078811
0.00054773284
0.00052213723
0.00044148488
0.00029987801
0.00013020013
1.6138329e-05
6.8858509e-09
)
;

boundaryField
{
    Wall
    {
        type            zeroGradient;
    }
    frontAndBack
    {
        type            empty;
    }
    atmosphere
    {
        type            zeroGradient;
    }
}


// ************************************************************************* //
