/*--------------------------------*- C++ -*----------------------------------*\
| =========                 |                                                 |
| \\      /  F ield         | OpenFOAM: The Open Source CFD Toolbox           |
|  \\    /   O peration     | Version:  3.0.1                                 |
|   \\  /    A nd           | Web:      www.OpenFOAM.org                      |
|    \\/     M anipulation  |                                                 |
\*---------------------------------------------------------------------------*/
FoamFile
{
    version     2.0;
    format      ascii;
    class       volScalarField;
    location    "32";
    object      weight1;
}
// * * * * * * * * * * * * * * * * * * * * * * * * * * * * * * * * * * * * * //

dimensions      [0 0 0 0 0 0 0];

internalField   nonuniform List<scalar> 
800
(
9.9915272e+12
9.9915271e+12
9.991527e+12
9.991527e+12
9.991527e+12
9.991527e+12
9.991527e+12
9.991527e+12
9.991527e+12
9.991527e+12
9.991527e+12
9.991527e+12
9.991527e+12
9.991527e+12
9.991527e+12
9.991527e+12
9.991527e+12
9.991527e+12
9.9915271e+12
9.9915272e+12
9.9922229e+12
9.9921523e+12
9.9921392e+12
9.9921368e+12
9.9921367e+12
9.9921369e+12
9.9921369e+12
9.9921368e+12
9.9921367e+12
9.9921366e+12
9.9921366e+12
9.9921367e+12
9.9921368e+12
9.9921369e+12
9.9921369e+12
9.9921367e+12
9.9921368e+12
9.9921392e+12
9.9921523e+12
9.9922229e+12
9.9350199e+12
9.9367134e+12
9.9374992e+12
9.9377864e+12
9.9378749e+12
9.9378897e+12
9.9378806e+12
9.9378676e+12
9.9378575e+12
9.9378524e+12
9.9378524e+12
9.9378575e+12
9.9378676e+12
9.9378805e+12
9.9378896e+12
9.9378748e+12
9.9377862e+12
9.937499e+12
9.9367132e+12
9.9350195e+12
9.8296871e+12
9.8346448e+12
9.8366974e+12
9.837439e+12
9.8376765e+12
9.8377205e+12
9.8377008e+12
9.8376692e+12
9.837644e+12
9.8376308e+12
9.8376308e+12
9.8376439e+12
9.8376691e+12
9.8377006e+12
9.8377202e+12
9.8376761e+12
9.8374386e+12
9.8366969e+12
9.8346442e+12
9.8296862e+12
9.6848063e+12
9.6942363e+12
9.6978495e+12
9.6991356e+12
9.6995491e+12
9.6996255e+12
9.699592e+12
9.6995372e+12
9.6994929e+12
9.6994698e+12
9.6994698e+12
9.6994928e+12
9.6995369e+12
9.6995916e+12
9.699625e+12
9.6995485e+12
9.6991349e+12
9.6978486e+12
9.6942352e+12
9.6848049e+12
9.5080152e+12
9.5227516e+12
9.5281277e+12
9.5300141e+12
9.5306112e+12
9.530716e+12
9.5306632e+12
9.5305805e+12
9.5305142e+12
9.5304795e+12
9.5304794e+12
9.5305139e+12
9.5305802e+12
9.5306626e+12
9.5307153e+12
9.5306104e+12
9.5300131e+12
9.5281265e+12
9.5227502e+12
9.5080133e+12
9.3061015e+12
9.3267208e+12
9.3339702e+12
9.3364848e+12
9.3372568e+12
9.3373796e+12
9.3373001e+12
9.3371847e+12
9.3370934e+12
9.3370458e+12
9.3370457e+12
9.3370931e+12
9.3371842e+12
9.3372994e+12
9.3373787e+12
9.3372557e+12
9.3364835e+12
9.3339686e+12
9.326719e+12
9.3060993e+12
9.0837291e+12
9.1114281e+12
9.1207643e+12
9.1239301e+12
9.1248759e+12
9.1250095e+12
9.124897e+12
9.1247441e+12
9.1246247e+12
9.1245627e+12
9.1245626e+12
9.1246243e+12
9.1247435e+12
9.1248961e+12
9.1250084e+12
9.1248745e+12
9.1239285e+12
9.1207625e+12
9.1114261e+12
9.0837266e+12
8.8396627e+12
8.8750439e+12
8.8865801e+12
8.8903913e+12
8.891486e+12
8.8916157e+12
8.8914639e+12
8.8912706e+12
8.8911216e+12
8.8910447e+12
8.8910445e+12
8.8911212e+12
8.8912699e+12
8.8914629e+12
8.8916144e+12
8.8914845e+12
8.8903896e+12
8.8865781e+12
8.8750417e+12
8.8396601e+12
8.5750269e+12
8.6194225e+12
8.6336083e+12
8.6380657e+12
8.6392769e+12
8.6393938e+12
8.6392067e+12
8.6389756e+12
8.6387975e+12
8.6387056e+12
8.6387055e+12
8.6387969e+12
8.6389748e+12
8.6392056e+12
8.6393924e+12
8.6392753e+12
8.6380638e+12
8.6336062e+12
8.6194202e+12
8.5750242e+12
8.2887644e+12
8.3425177e+12
8.3598776e+12
8.3649717e+12
8.3661506e+12
8.3661925e+12
8.3659866e+12
8.3657295e+12
8.365527e+12
8.3654229e+12
8.3654228e+12
8.3655264e+12
8.3657286e+12
8.3659853e+12
8.366191e+12
8.3661488e+12
8.3649698e+12
8.3598754e+12
8.3425154e+12
8.2887619e+12
7.9860888e+12
8.0482038e+12
8.0689558e+12
8.0746961e+12
8.0755804e+12
8.0754115e+12
8.0752137e+12
8.0749511e+12
8.0747309e+12
8.0746191e+12
8.0746189e+12
8.0747304e+12
8.0749501e+12
8.0752124e+12
8.07541e+12
8.0755787e+12
8.0746942e+12
8.0689537e+12
8.0482016e+12
7.9860864e+12
7.6747728e+12
7.7439302e+12
7.7678838e+12
7.7743415e+12
7.7746427e+12
7.7741168e+12
7.7739604e+12
7.7737193e+12
7.7734643e+12
7.7733513e+12
7.7733512e+12
7.7734637e+12
7.7737184e+12
7.7739592e+12
7.7741153e+12
7.774641e+12
7.7743397e+12
7.7678818e+12
7.7439281e+12
7.6747706e+12
7.3607643e+12
7.4359206e+12
7.462465e+12
7.4697394e+12
7.4692891e+12
7.4683017e+12
7.4683108e+12
7.4681249e+12
7.4677964e+12
7.4676896e+12
7.4676894e+12
7.4677958e+12
7.468124e+12
7.4683097e+12
7.4683003e+12
7.4692875e+12
7.4697376e+12
7.4624631e+12
7.4359187e+12
7.3607622e+12
7.0485186e+12
7.1296414e+12
7.1579812e+12
7.1661146e+12
7.1650622e+12
7.1638962e+12
7.1640688e+12
7.1639624e+12
7.1635495e+12
7.1634214e+12
7.1634212e+12
7.163549e+12
7.1639615e+12
7.1640677e+12
7.1638948e+12
7.1650607e+12
7.166113e+12
7.1579794e+12
7.1296396e+12
7.0485166e+12
6.7396034e+12
6.827199e+12
6.8572964e+12
6.8663102e+12
6.8649407e+12
6.8638074e+12
6.8641307e+12
6.8640783e+12
6.8636074e+12
6.8633813e+12
6.8633811e+12
6.8636069e+12
6.8640775e+12
6.8641296e+12
6.8638061e+12
6.8649393e+12
6.8663087e+12
6.8572947e+12
6.8271974e+12
6.7396016e+12
6.4348723e+12
6.5294641e+12
6.5616301e+12
6.5715475e+12
6.5702576e+12
6.5693519e+12
6.5698932e+12
6.569873e+12
6.5693909e+12
6.568959e+12
6.5689588e+12
6.5693905e+12
6.5698722e+12
6.5698922e+12
6.5693508e+12
6.5702563e+12
6.5715461e+12
6.5616286e+12
6.5294626e+12
6.4348707e+12
6.134431e+12
6.236528e+12
6.2713824e+12
6.282236e+12
6.281343e+12
6.2808861e+12
6.2817407e+12
6.2817731e+12
6.281386e+12
6.2806628e+12
6.2806626e+12
6.2813855e+12
6.2817724e+12
6.2817398e+12
6.2808851e+12
6.2813419e+12
6.2822347e+12
6.271381e+12
6.2365267e+12
6.1344296e+12
5.8370874e+12
5.9473475e+12
5.9857926e+12
5.9976894e+12
5.9973871e+12
5.997572e+12
5.9987857e+12
5.9989289e+12
5.9988139e+12
5.997798e+12
5.9977979e+12
5.9988135e+12
5.9989283e+12
5.9987849e+12
5.9975711e+12
5.9973861e+12
5.9976883e+12
5.9857914e+12
5.9473464e+12
5.8370863e+12
5.5393853e+12
5.6588991e+12
5.7019914e+12
5.7151253e+12
5.7156835e+12
5.7165752e+12
5.7181054e+12
5.7184314e+12
5.7187747e+12
5.7175735e+12
5.7175734e+12
5.7187744e+12
5.7184308e+12
5.7181047e+12
5.7165744e+12
5.7156826e+12
5.7151244e+12
5.7019903e+12
5.6588981e+12
5.5393844e+12
5.2353432e+12
5.3657565e+12
5.4144934e+12
5.4290984e+12
5.4309452e+12
5.4324624e+12
5.4342216e+12
5.4348002e+12
5.4357147e+12
5.43452e+12
5.4345199e+12
5.4357143e+12
5.4347997e+12
5.4342209e+12
5.4324616e+12
5.4309443e+12
5.4290975e+12
5.4144925e+12
5.3657557e+12
5.2353425e+12
4.9165642e+12
5.0602606e+12
5.1154354e+12
5.1316168e+12
5.1351839e+12
5.1373073e+12
5.1392576e+12
5.1401468e+12
5.141698e+12
5.1407376e+12
5.1407374e+12
5.1416976e+12
5.1401463e+12
5.1392569e+12
5.1373066e+12
5.1351832e+12
5.1316161e+12
5.1154346e+12
5.0602601e+12
4.9165639e+12
4.573375e+12
4.733516e+12
4.795843e+12
4.8137362e+12
4.8193927e+12
4.8222352e+12
4.8245601e+12
4.8257654e+12
4.8280686e+12
4.8275524e+12
4.8275523e+12
4.8280684e+12
4.8257649e+12
4.8245595e+12
4.8222345e+12
4.8193919e+12
4.8137355e+12
4.7958424e+12
4.7335157e+12
4.573375e+12
4.1989485e+12
4.378953e+12
4.4498149e+12
4.4703696e+12
4.4788657e+12
4.4827335e+12
4.4855954e+12
4.4869612e+12
4.4901346e+12
4.4901929e+12
4.4901928e+12
4.4901344e+12
4.4869607e+12
4.4855949e+12
4.4827328e+12
4.4788651e+12
4.4703689e+12
4.4498144e+12
4.378953e+12
4.1989491e+12
3.7949002e+12
3.9977888e+12
4.0806411e+12
4.1066066e+12
4.1198479e+12
4.1251711e+12
4.1285144e+12
4.1296762e+12
4.1336308e+12
4.1342396e+12
4.1342395e+12
4.1336305e+12
4.1296758e+12
4.1285138e+12
4.1251705e+12
4.1198473e+12
4.106606e+12
4.0806408e+12
3.9977893e+12
3.7949016e+12
3.3693647e+12
3.5978753e+12
3.6983286e+12
3.7347179e+12
3.755057e+12
3.7630307e+12
3.767033e+12
3.7676542e+12
3.7720877e+12
3.7730304e+12
3.7730303e+12
3.7720875e+12
3.7676538e+12
3.7670325e+12
3.7630302e+12
3.7550565e+12
3.7347176e+12
3.6983287e+12
3.5978764e+12
3.3693673e+12
2.9253048e+12
3.1815828e+12
3.3060049e+12
3.3578161e+12
3.3875107e+12
3.3997771e+12
3.405118e+12
3.4051808e+12
3.4097361e+12
3.4106724e+12
3.4106723e+12
3.4097359e+12
3.4051804e+12
3.4051176e+12
3.3997767e+12
3.3875103e+12
3.357816e+12
3.3060055e+12
3.1815849e+12
2.9253088e+12
2.457173e+12
2.7391911e+12
2.8928221e+12
2.9634855e+12
3.0035785e+12
3.0228517e+12
3.0300795e+12
3.0298146e+12
3.0340124e+12
3.0346168e+12
3.0346167e+12
3.0340122e+12
3.0298144e+12
3.0300793e+12
3.0228515e+12
3.0035784e+12
2.9634857e+12
2.8928232e+12
2.7391943e+12
2.4571784e+12
1.9636437e+12
2.2616075e+12
2.4455022e+12
2.5349586e+12
2.5871322e+12
2.6142436e+12
2.6233174e+12
2.6230056e+12
2.6263178e+12
2.6264064e+12
2.6264064e+12
2.6263177e+12
2.6230055e+12
2.6233174e+12
2.6142436e+12
2.5871324e+12
2.5349592e+12
2.4455039e+12
2.2616117e+12
1.9636506e+12
0
1.754023e+12
1.9634318e+12
2.0720984e+12
2.1364812e+12
2.1702005e+12
2.1809919e+12
2.1809471e+12
2.1830763e+12
2.1826395e+12
2.1826394e+12
2.1830763e+12
2.1809471e+12
2.1809921e+12
2.1702008e+12
2.1364817e+12
2.0720994e+12
1.9634341e+12
1.7540285e+12
0
0
0
0
0
0
0
0
0
0
0
0
0
0
0
0
0
0
0
0
0
0
0
0
0
0
0
0
0
0
0
0
0
0
0
0
0
0
0
0
0
0
0
0
0
0
0
0
0
0
0
0
0
0
0
0
0
0
0
0
0
0
0
0
0
0
0
0
0
0
0
0
0
0
0
0
0
0
0
0
0
0
0
0
0
0
0
0
0
0
0
0
0
0
0
0
0
0
0
0
0
0
0
0
0
0
0
0
0
0
0
0
0
0
0
0
0
0
0
0
0
0
0
0
0
0
0
0
0
0
0
0
0
0
0
0
0
0
0
0
0
0
0
0
0
0
0
0
0
0
0
0
0
0
0
0
0
0
0
0
0
0
0
0
0
0
0
0
0
0
0
0
0
0
0
0
0
0
0
0
0
0
0
0
0
0
0
0
0
0
0
0
0
0
0
0
0
0
0
0
0
)
;

boundaryField
{
    Wall
    {
        type            zeroGradient;
    }
    frontAndBack
    {
        type            empty;
    }
    atmosphere
    {
        type            zeroGradient;
    }
}


// ************************************************************************* //
