/*--------------------------------*- C++ -*----------------------------------*\
| =========                 |                                                 |
| \\      /  F ield         | OpenFOAM: The Open Source CFD Toolbox           |
|  \\    /   O peration     | Version:  3.0.1                                 |
|   \\  /    A nd           | Web:      www.OpenFOAM.org                      |
|    \\/     M anipulation  |                                                 |
\*---------------------------------------------------------------------------*/
FoamFile
{
    version     2.0;
    format      ascii;
    class       volScalarField;
    location    "32";
    object      weight0;
}
// * * * * * * * * * * * * * * * * * * * * * * * * * * * * * * * * * * * * * //

dimensions      [0 0 0 0 0 0 0];

internalField   nonuniform List<scalar> 
800
(
8.4727917e+09
8.4729121e+09
8.4729857e+09
8.4730089e+09
8.4730185e+09
8.4730252e+09
8.4730303e+09
8.4730342e+09
8.473037e+09
8.4730384e+09
8.4730384e+09
8.473037e+09
8.4730342e+09
8.4730303e+09
8.4730252e+09
8.4730185e+09
8.4730088e+09
8.4729857e+09
8.472912e+09
8.4727917e+09
7.7770862e+09
7.8476627e+09
7.8608166e+09
7.8631974e+09
7.8632887e+09
7.8631435e+09
7.8631229e+09
7.8632049e+09
7.8633063e+09
7.8633699e+09
7.8633698e+09
7.8633061e+09
7.8632046e+09
7.8631225e+09
7.8631428e+09
7.8632879e+09
7.8631964e+09
7.8608153e+09
7.8476611e+09
7.7770832e+09
7.6328808e+09
7.7065995e+09
7.7281031e+09
7.7318216e+09
7.7326239e+09
7.7329717e+09
7.7333163e+09
7.7336571e+09
7.7339234e+09
7.7340681e+09
7.734068e+09
7.7339233e+09
7.7336569e+09
7.7333159e+09
7.7329711e+09
7.7326233e+09
7.7318209e+09
7.7281022e+09
7.7065983e+09
7.6328786e+09
7.6246513e+09
7.6906701e+09
7.713947e+09
7.7182376e+09
7.7196998e+09
7.720498e+09
7.7210947e+09
7.7215616e+09
7.7218855e+09
7.7220522e+09
7.722052e+09
7.7218852e+09
7.7215612e+09
7.7210942e+09
7.7204972e+09
7.719699e+09
7.7182367e+09
7.7139459e+09
7.6906687e+09
7.624649e+09
7.2666497e+09
7.352701e+09
7.3786832e+09
7.3841968e+09
7.3869042e+09
7.3881754e+09
7.3888334e+09
7.389205e+09
7.3894162e+09
7.3895149e+09
7.3895147e+09
7.3894156e+09
7.3892038e+09
7.3888318e+09
7.3881734e+09
7.3869018e+09
7.3841939e+09
7.3786798e+09
7.3526969e+09
7.2666436e+09
6.0595876e+09
6.2322623e+09
6.270891e+09
6.2783412e+09
6.2837321e+09
6.2858303e+09
6.2864823e+09
6.2865936e+09
6.2865506e+09
6.2865035e+09
6.2865029e+09
6.2865488e+09
6.2865907e+09
6.2864782e+09
6.2858252e+09
6.2837259e+09
6.2783339e+09
6.2708824e+09
6.2322524e+09
6.0595736e+09
3.4045054e+09
3.7918638e+09
3.8710597e+09
3.8818558e+09
3.8931127e+09
3.8972547e+09
3.8982469e+09
3.8981603e+09
3.8978425e+09
3.8976301e+09
3.8976289e+09
3.8978387e+09
3.898154e+09
3.8982381e+09
3.8972436e+09
3.8930995e+09
3.8818404e+09
3.8710423e+09
3.7918441e+09
3.4044785e+09
16152637
3428747.1
2078914.5
1971354.5
1828444.9
1773759.5
1758112.8
1756111.3
1758035.3
1759566.6
1759580.7
1758077.9
1756181.4
1758210.2
1773883.3
1828594.5
1971533.3
2079116.7
3429054.9
16153718
1.8001967e+09
1.2743006e+09
1.155371e+09
1.1487133e+09
1.1377705e+09
1.1319194e+09
1.1298263e+09
1.129233e+09
1.129211e+09
1.1292507e+09
1.129252e+09
1.1292149e+09
1.1292395e+09
1.1298352e+09
1.1319307e+09
1.1377837e+09
1.1487282e+09
1.1553869e+09
1.2743184e+09
1.8002223e+09
1.1644902e+10
9.6962773e+09
9.0924808e+09
9.0770681e+09
9.0646415e+09
9.0469052e+09
9.0335388e+09
9.0278192e+09
9.0260136e+09
9.025283e+09
9.0252879e+09
9.0260284e+09
9.0278439e+09
9.0335721e+09
9.0469473e+09
9.064689e+09
9.077121e+09
9.0925356e+09
9.6963352e+09
1.1644968e+10
3.4001731e+10
3.0670545e+10
2.9165095e+10
2.9158629e+10
2.9277625e+10
2.930129e+10
2.9258008e+10
2.9235129e+10
2.9225708e+10
2.922118e+10
2.9221188e+10
2.9225731e+10
2.9235169e+10
2.9258061e+10
2.9301357e+10
2.9277698e+10
2.9158709e+10
2.9165175e+10
3.0670625e+10
3.4001808e+10
6.6470096e+10
6.3116896e+10
6.0645698e+10
6.0667132e+10
6.1174743e+10
6.1374773e+10
6.1275275e+10
6.1216383e+10
6.1190636e+10
6.1177239e+10
6.1177245e+10
6.1190657e+10
6.121642e+10
6.1275322e+10
6.1374832e+10
6.1174804e+10
6.0667199e+10
6.0645759e+10
6.3116952e+10
6.6470148e+10
1.0356835e+11
1.018756e+11
9.8848355e+10
9.8882842e+10
1.0008005e+11
1.0060933e+11
1.0042291e+11
1.0030378e+11
1.0027665e+11
1.0024692e+11
1.0024693e+11
1.0027665e+11
1.003038e+11
1.0042293e+11
1.0060936e+11
1.0008007e+11
9.8882869e+10
9.8848371e+10
1.0187561e+11
1.0356837e+11
1.4123439e+11
1.4262416e+11
1.3995424e+11
1.3999723e+11
1.4208536e+11
1.4306094e+11
1.4266365e+11
1.4245327e+11
1.424622e+11
1.4240639e+11
1.4240638e+11
1.4246219e+11
1.4245326e+11
1.4266364e+11
1.4306093e+11
1.4208535e+11
1.3999722e+11
1.3995422e+11
1.4262413e+11
1.412344e+11
1.7635759e+11
1.8128888e+11
1.8017431e+11
1.8033076e+11
1.8321666e+11
1.8436929e+11
1.8376001e+11
1.8343489e+11
1.8349226e+11
1.8343392e+11
1.8343391e+11
1.8349224e+11
1.8343486e+11
1.8375997e+11
1.8436925e+11
1.8321663e+11
1.8033074e+11
1.8017427e+11
1.8128885e+11
1.7635762e+11
2.0869441e+11
2.171059e+11
2.1809849e+11
2.1856413e+11
2.2203883e+11
2.2316665e+11
2.2234776e+11
2.219271e+11
2.2201056e+11
2.2202325e+11
2.2202323e+11
2.2201053e+11
2.2192705e+11
2.2234771e+11
2.231666e+11
2.2203879e+11
2.1856411e+11
2.1809845e+11
2.1710588e+11
2.0869444e+11
2.3816396e+11
2.5004226e+11
2.5348855e+11
2.5455535e+11
2.5833293e+11
2.5925197e+11
2.581381e+11
2.5762993e+11
2.5769692e+11
2.5788773e+11
2.578877e+11
2.5769688e+11
2.5762985e+11
2.5813803e+11
2.592519e+11
2.5833288e+11
2.5455533e+11
2.5348849e+11
2.5004223e+11
2.3816399e+11
2.6495298e+11
2.8040097e+11
2.8650426e+11
2.8857567e+11
2.9249635e+11
2.9300251e+11
2.9147298e+11
2.908337e+11
2.9077862e+11
2.9123305e+11
2.9123302e+11
2.9077856e+11
2.908336e+11
2.9147289e+11
2.9300242e+11
2.9249627e+11
2.8857564e+11
2.8650418e+11
2.8040093e+11
2.6495299e+11
2.9002796e+11
3.0914787e+11
3.180347e+11
3.2158937e+11
3.2568881e+11
3.2562232e+11
3.2360225e+11
3.2273944e+11
3.2237709e+11
3.2309448e+11
3.2309444e+11
3.2237702e+11
3.2273932e+11
3.2360215e+11
3.2562223e+11
3.2568874e+11
3.2158934e+11
3.1803461e+11
3.0914782e+11
2.9002798e+11
3.160719e+11
3.3873101e+11
3.5062828e+11
3.5624558e+11
3.6058701e+11
3.5994892e+11
3.574522e+11
3.5624755e+11
3.553722e+11
3.5623799e+11
3.5623795e+11
3.5537213e+11
3.5624742e+11
3.574521e+11
3.5994883e+11
3.6058695e+11
3.5624557e+11
3.5062822e+11
3.3873097e+11
3.1607196e+11
3.4771429e+11
3.7347879e+11
3.8899115e+11
3.9745108e+11
4.0208281e+11
4.0107281e+11
3.981636e+11
3.9648882e+11
3.9495521e+11
3.9576258e+11
3.9576254e+11
3.9495514e+11
3.9648869e+11
3.9816352e+11
4.0107275e+11
4.0208279e+11
3.9745112e+11
3.8899113e+11
3.734788e+11
3.4771444e+11
3.9135171e+11
4.1938028e+11
4.3971534e+11
4.5224478e+11
4.5740944e+11
4.5624298e+11
4.5294669e+11
4.5067209e+11
4.483667e+11
4.4886284e+11
4.4886279e+11
4.4836663e+11
4.5067196e+11
4.5294664e+11
4.5624298e+11
4.5740949e+11
4.5224491e+11
4.397154e+11
4.193804e+11
3.91352e+11
4.5385989e+11
4.8297998e+11
5.0993645e+11
5.2815859e+11
5.3443626e+11
5.3331368e+11
5.2945934e+11
5.2649358e+11
5.2322997e+11
5.2316486e+11
5.231648e+11
5.232299e+11
5.2649346e+11
5.2945933e+11
5.3331374e+11
5.344364e+11
5.2815882e+11
5.0993662e+11
4.8298024e+11
4.5386035e+11
5.3822559e+11
5.6763342e+11
6.0300498e+11
6.2831848e+11
6.3628519e+11
6.3540638e+11
6.3089873e+11
6.2729515e+11
6.2285081e+11
6.2203302e+11
6.2203296e+11
6.2285074e+11
6.2729502e+11
6.3089876e+11
6.3540652e+11
6.3628542e+11
6.2831883e+11
6.0300529e+11
5.6763384e+11
5.3822623e+11
6.3767137e+11
6.6774761e+11
7.1213464e+11
7.4499872e+11
7.5461004e+11
7.5435614e+11
7.4940623e+11
7.4540949e+11
7.3972338e+11
7.3808591e+11
7.3808584e+11
7.3972332e+11
7.4540936e+11
7.4940631e+11
7.5435635e+11
7.5461036e+11
7.4499917e+11
7.1213506e+11
6.6774819e+11
6.3767216e+11
7.3721162e+11
7.6944895e+11
8.2261102e+11
8.6231565e+11
8.7391446e+11
8.7432673e+11
8.690516e+11
8.6486592e+11
8.5802766e+11
8.5565274e+11
8.5565266e+11
8.580276e+11
8.6486579e+11
8.690517e+11
8.7432698e+11
8.7391481e+11
8.6231614e+11
8.2261151e+11
7.6944965e+11
7.3721256e+11
8.2478334e+11
8.6202602e+11
9.2471158e+11
9.72188e+11
9.8734818e+11
9.8880479e+11
9.8308118e+11
9.7859689e+11
9.7066745e+11
9.6769817e+11
9.6769809e+11
9.7066737e+11
9.7859674e+11
9.8308126e+11
9.8880502e+11
9.8734849e+11
9.7218846e+11
9.247121e+11
8.6202682e+11
8.247845e+11
8.9416335e+11
9.4414155e+11
1.0202311e+12
1.080037e+12
1.1034213e+12
1.1063249e+12
1.1006148e+12
1.0955255e+12
1.0865743e+12
1.0830449e+12
1.0830448e+12
1.0865742e+12
1.0955253e+12
1.1006149e+12
1.1063251e+12
1.1034215e+12
1.0800374e+12
1.0202316e+12
9.4414259e+11
8.9416513e+11
9.3273483e+11
1.0101078e+12
1.1097338e+12
1.1932162e+12
1.2317671e+12
1.2400907e+12
1.2362576e+12
1.2303604e+12
1.2203749e+12
1.2160421e+12
1.216042e+12
1.2203747e+12
1.2303602e+12
1.2362576e+12
1.2400908e+12
1.2317673e+12
1.1932167e+12
1.1097346e+12
1.0101096e+12
9.3273797e+11
0
1.0318379e+12
1.1763114e+12
1.2991295e+12
1.3651229e+12
1.3881562e+12
1.3898163e+12
1.3833268e+12
1.3719348e+12
1.3661816e+12
1.3661815e+12
1.3719347e+12
1.3833266e+12
1.3898162e+12
1.3881563e+12
1.3651231e+12
1.29913e+12
1.1763128e+12
1.0318408e+12
0
0
0
0
0
0
0
0
0
0
0
0
0
0
0
0
0
0
0
0
0
0
0
0
0
0
0
0
0
0
0
0
0
0
0
0
0
0
0
0
0
0
0
0
0
0
0
0
0
0
0
0
0
0
0
0
0
0
0
0
0
0
0
0
0
0
0
0
0
0
0
0
0
0
0
0
0
0
0
0
0
0
0
0
0
0
0
0
0
0
0
0
0
0
0
0
0
0
0
0
0
0
0
0
0
0
0
0
0
0
0
0
0
0
0
0
0
0
0
0
0
0
0
0
0
0
0
0
0
0
0
0
0
0
0
0
0
0
0
0
0
0
0
0
0
0
0
0
0
0
0
0
0
0
0
0
0
0
0
0
0
0
0
0
0
0
0
0
0
0
0
0
0
0
0
0
0
0
0
0
0
0
0
0
0
0
0
0
0
0
0
0
0
0
0
0
0
0
0
0
0
)
;

boundaryField
{
    Wall
    {
        type            zeroGradient;
    }
    frontAndBack
    {
        type            empty;
    }
    atmosphere
    {
        type            zeroGradient;
    }
}


// ************************************************************************* //
