/*--------------------------------*- C++ -*----------------------------------*\
| =========                 |                                                 |
| \\      /  F ield         | OpenFOAM: The Open Source CFD Toolbox           |
|  \\    /   O peration     | Version:  3.0.1                                 |
|   \\  /    A nd           | Web:      www.OpenFOAM.org                      |
|    \\/     M anipulation  |                                                 |
\*---------------------------------------------------------------------------*/
FoamFile
{
    version     2.0;
    format      ascii;
    class       volScalarField;
    location    "32";
    object      XOH;
}
// * * * * * * * * * * * * * * * * * * * * * * * * * * * * * * * * * * * * * //

dimensions      [0 0 0 0 0 0 0];

internalField   nonuniform List<scalar> 
800
(
0.21896676
0.21899227
0.21899753
0.21899834
0.21899847
0.21899855
0.21899864
0.21899874
0.21899881
0.21899885
0.21899885
0.21899881
0.21899874
0.21899864
0.21899855
0.21899847
0.21899834
0.21899753
0.21899227
0.21896676
0.21409293
0.21433146
0.21439382
0.21441078
0.21441446
0.21441454
0.21441392
0.21441341
0.21441312
0.21441299
0.21441299
0.21441311
0.21441341
0.21441392
0.21441453
0.21441445
0.21441077
0.21439381
0.21433145
0.2140929
0.20965151
0.21002553
0.2101451
0.21017969
0.21018857
0.21018986
0.21018931
0.21018864
0.21018821
0.21018802
0.21018802
0.21018821
0.21018863
0.2101893
0.21018985
0.21018856
0.21017968
0.21014508
0.2100255
0.20965147
0.20567227
0.20616089
0.2063271
0.20637591
0.20638897
0.20639131
0.20639094
0.20639024
0.20638977
0.20638956
0.20638956
0.20638977
0.20639023
0.20639093
0.2063913
0.20638896
0.20637589
0.20632708
0.20616086
0.20567222
0.20217726
0.20276101
0.20296619
0.20302602
0.2030419
0.20304474
0.20304437
0.2030436
0.20304309
0.20304285
0.20304285
0.20304308
0.20304359
0.20304436
0.20304473
0.20304189
0.203026
0.20296616
0.20276098
0.20217721
0.19917562
0.19983349
0.2000724
0.20014086
0.20015834
0.20016109
0.20016046
0.20015949
0.20015888
0.20015861
0.20015861
0.20015888
0.20015948
0.20016045
0.20016108
0.20015833
0.20014084
0.20007237
0.19983346
0.19917557
0.19666551
0.19737834
0.19764665
0.19772191
0.19773998
0.19774206
0.19774088
0.19773956
0.19773878
0.19773844
0.19773844
0.19773878
0.19773955
0.19774087
0.19774205
0.19773996
0.19772189
0.19764663
0.19737831
0.19666546
0.19463759
0.1953895
0.1956829
0.1957637
0.19578155
0.19578245
0.19578045
0.1957786
0.19577757
0.19577712
0.19577712
0.19577757
0.19577859
0.19578044
0.19578244
0.19578154
0.19576369
0.19568288
0.19538948
0.19463756
0.19307615
0.1938556
0.19416923
0.19425493
0.19427203
0.19427133
0.19426825
0.19426571
0.19426435
0.19426374
0.19426374
0.19426434
0.19426571
0.19426824
0.19427132
0.19427202
0.19425492
0.19416922
0.19385558
0.19307613
0.19195937
0.19276015
0.19308849
0.19317919
0.19319535
0.19319276
0.19318838
0.19318501
0.19318322
0.19318241
0.19318241
0.19318322
0.19318501
0.19318838
0.19319275
0.19319534
0.19317918
0.19308848
0.19276014
0.19195936
0.19125928
0.19208149
0.19241867
0.19251544
0.19253091
0.19252628
0.19252046
0.19251613
0.19251385
0.1925128
0.1925128
0.19251385
0.19251613
0.19252046
0.19252628
0.1925309
0.19251544
0.19241867
0.19208148
0.19125927
0.19094084
0.19179142
0.1921325
0.19223768
0.19225278
0.19224617
0.19223887
0.19223352
0.19223074
0.19222943
0.19222943
0.19223074
0.19223352
0.19223887
0.19224617
0.19225278
0.19223768
0.1921325
0.19179142
0.19094084
0.19095976
0.19185222
0.19219569
0.19231279
0.19232728
0.19231908
0.19231045
0.19230414
0.19230095
0.19229938
0.19229938
0.19230095
0.19230414
0.19231045
0.19231908
0.19232729
0.1923128
0.1921957
0.19185223
0.19095977
0.19125927
0.19221348
0.19256445
0.19269763
0.19271019
0.19270126
0.19269179
0.19268476
0.19268083
0.19267909
0.19267909
0.19268083
0.19268476
0.19269179
0.19270127
0.1927102
0.19269765
0.19256447
0.1922135
0.19125928
0.19176074
0.19280507
0.1931774
0.19333125
0.1933402
0.19333221
0.19332301
0.19331584
0.19330932
0.19330752
0.19330752
0.19330932
0.19331584
0.19332302
0.19333222
0.19334021
0.19333127
0.19317742
0.19280509
0.19176077
0.19235786
0.19353292
0.19394969
0.19413013
0.19413502
0.19413096
0.19412326
0.19411698
0.19410379
0.19410211
0.19410211
0.19410379
0.19411698
0.19412326
0.19413097
0.19413503
0.19413015
0.19394972
0.19353295
0.19235789
0.19290658
0.19427207
0.19476464
0.19498106
0.19498495
0.19498851
0.19498219
0.1949785
0.19495321
0.19495199
0.19495199
0.19495321
0.1949785
0.1949822
0.19498853
0.19498497
0.19498109
0.19476467
0.1942721
0.19290662
0.19321695
0.19485726
0.1954647
0.19573258
0.19574419
0.19575813
0.19575103
0.1957525
0.19570907
0.19570899
0.19570899
0.19570907
0.1957525
0.19575104
0.19575815
0.19574421
0.19573261
0.19546473
0.1948573
0.19321698
0.19303974
0.19506801
0.19583861
0.19618177
0.19621555
0.19624135
0.19623063
0.19624087
0.19617285
0.19617514
0.19617514
0.19617284
0.19624087
0.19623063
0.19624137
0.19621557
0.1961818
0.19583864
0.19506805
0.19303978
0.19204148
0.19460701
0.19560253
0.1960554
0.19612702
0.19616725
0.19615264
0.19617649
0.1960785
0.19608515
0.19608515
0.1960785
0.19617649
0.19615264
0.19616727
0.19612704
0.19605543
0.19560256
0.19460705
0.19204152
0.18976857
0.1930709
0.19437381
0.19497821
0.19510186
0.19516597
0.19515378
0.19519736
0.19506933
0.19508317
0.19508317
0.19506933
0.19519736
0.19515378
0.19516598
0.19510188
0.19497824
0.19437384
0.19307094
0.18976862
0.18560663
0.18990468
0.19162914
0.19243338
0.19262873
0.19273151
0.19273941
0.19281049
0.19266275
0.19268755
0.19268755
0.19266275
0.19281048
0.19273942
0.19273152
0.19262875
0.19243341
0.19162918
0.18990473
0.18560669
0.17875031
0.18435828
0.18666138
0.18771916
0.18802527
0.18819012
0.18823847
0.18834632
0.18820212
0.18824247
0.18824247
0.18820212
0.18834632
0.18823847
0.18819014
0.1880253
0.1877192
0.18666143
0.18435835
0.17875041
0.16817763
0.17545595
0.17854907
0.1799149
0.18040332
0.18065798
0.18076711
0.18092118
0.18081384
0.18087461
0.18087461
0.18081385
0.18092118
0.18076712
0.180658
0.18040335
0.17991494
0.17854914
0.17545605
0.16817778
0.15271154
0.16201884
0.16614601
0.16789191
0.16865213
0.16904157
0.16923933
0.16944552
0.16940898
0.16949362
0.16949362
0.16940898
0.16944552
0.16923935
0.1690416
0.16865217
0.16789197
0.1661461
0.162019
0.15271176
0.131349
0.14286113
0.14826074
0.1504674
0.15158598
0.15218863
0.15250606
0.15276157
0.15281663
0.15292445
0.15292445
0.15281664
0.15276158
0.15250609
0.15218868
0.15158604
0.15046749
0.14826087
0.14286135
0.13134931
0.10395196
0.11734029
0.12413491
0.12681799
0.12835012
0.12926758
0.12969803
0.12998178
0.13011987
0.13024147
0.13024147
0.13011988
0.12998181
0.12969807
0.12926763
0.12835019
0.1268181
0.12413507
0.11734056
0.10395232
0.07179964
0.08646065
0.094314265
0.097141436
0.099235307
0.10037209
0.10083538
0.10110291
0.10127725
0.10139199
0.101392
0.10127726
0.10110294
0.10083542
0.10037215
0.099235386
0.097141546
0.094314429
0.086460913
0.071799926
0.035784322
0.051884567
0.060284964
0.063532486
0.066349775
0.067362569
0.067724033
0.067917004
0.068056925
0.068138159
0.068138162
0.068056936
0.067917022
0.067724063
0.067362608
0.066349829
0.063532564
0.060285075
0.051884728
0.035784455
1e-150
0.014220544
0.023458995
0.02764413
0.028979074
0.03203321
0.032212258
0.032304385
0.032368973
0.032404913
0.032404914
0.032368976
0.032304392
0.032212269
0.032033224
0.028979096
0.02764416
0.023459037
0.014220591
1e-150
1e-150
1e-150
1e-150
1e-150
1e-150
1e-150
1e-150
1e-150
1e-150
1e-150
1e-150
1e-150
1e-150
1e-150
1e-150
1e-150
1e-150
1e-150
1e-150
1e-150
1e-150
1e-150
1e-150
1e-150
1e-150
1e-150
1e-150
1e-150
1e-150
1e-150
1e-150
1e-150
1e-150
1e-150
1e-150
1e-150
1e-150
1e-150
1e-150
1e-150
1e-150
1e-150
1e-150
1e-150
1e-150
1e-150
1e-150
1e-150
1e-150
1e-150
1e-150
1e-150
1e-150
1e-150
1e-150
1e-150
1e-150
1e-150
1e-150
1e-150
1e-150
1e-150
1e-150
1e-150
1e-150
1e-150
1e-150
1e-150
1e-150
1e-150
1e-150
1e-150
1e-150
1e-150
1e-150
1e-150
1e-150
1e-150
1e-150
1e-150
1e-150
1e-150
1e-150
1e-150
1e-150
1e-150
1e-150
1e-150
1e-150
1e-150
1e-150
1e-150
1e-150
1e-150
1e-150
1e-150
1e-150
1e-150
1e-150
1e-150
1e-150
1e-150
1e-150
1e-150
1e-150
1e-150
1e-150
1e-150
1e-150
1e-150
1e-150
1e-150
1e-150
1e-150
1e-150
1e-150
1e-150
1e-150
1e-150
1e-150
1e-150
1e-150
1e-150
1e-150
1e-150
1e-150
1e-150
1e-150
1e-150
1e-150
1e-150
1e-150
1e-150
1e-150
1e-150
1e-150
1e-150
1e-150
1e-150
1e-150
1e-150
1e-150
1e-150
1e-150
1e-150
1e-150
1e-150
1e-150
1e-150
1e-150
1e-150
1e-150
1e-150
1e-150
1e-150
1e-150
1e-150
1e-150
1e-150
1e-150
1e-150
1e-150
1e-150
1e-150
1e-150
1e-150
1e-150
1e-150
1e-150
1e-150
1e-150
1e-150
1e-150
1e-150
1e-150
1e-150
1e-150
1e-150
1e-150
1e-150
1e-150
1e-150
1e-150
1e-150
1e-150
1e-150
1e-150
1e-150
1e-150
1e-150
1e-150
1e-150
1e-150
1e-150
1e-150
1e-150
1e-150
1e-150
1e-150
1e-150
)
;

boundaryField
{
    Wall
    {
        type            zeroGradient;
    }
    frontAndBack
    {
        type            empty;
    }
    atmosphere
    {
        type            zeroGradient;
    }
}


// ************************************************************************* //
