/*--------------------------------*- C++ -*----------------------------------*\
| =========                 |                                                 |
| \\      /  F ield         | OpenFOAM: The Open Source CFD Toolbox           |
|  \\    /   O peration     | Version:  3.0.1                                 |
|   \\  /    A nd           | Web:      www.OpenFOAM.org                      |
|    \\/     M anipulation  |                                                 |
\*---------------------------------------------------------------------------*/
FoamFile
{
    version     2.0;
    format      ascii;
    class       volScalarField;
    location    "32";
    object      XW;
}
// * * * * * * * * * * * * * * * * * * * * * * * * * * * * * * * * * * * * * //

dimensions      [0 0 0 0 0 0 0];

internalField   nonuniform List<scalar> 
800
(
0.78562151
0.78566235
0.78567062
0.78567188
0.78567209
0.78567221
0.78567237
0.78567252
0.78567263
0.78567269
0.78567269
0.78567263
0.78567252
0.78567237
0.78567222
0.7856721
0.78567189
0.78567063
0.78566235
0.78562151
0.77664796
0.77707616
0.77718612
0.77721623
0.77722299
0.77722339
0.77722252
0.77722177
0.77722135
0.77722117
0.77722117
0.77722135
0.77722177
0.77722251
0.77722338
0.77722298
0.77721621
0.7771861
0.77707614
0.77664792
0.76811541
0.7688107
0.76902945
0.76909324
0.76911011
0.76911301
0.76911242
0.76911148
0.76911087
0.7691106
0.7691106
0.76911087
0.76911147
0.76911241
0.769113
0.76911009
0.76909321
0.76902942
0.76881066
0.76811534
0.76008756
0.76103101
0.76134469
0.7614376
0.7614633
0.76146853
0.76146839
0.76146743
0.76146675
0.76146644
0.76146644
0.76146674
0.76146741
0.76146837
0.76146851
0.76146327
0.76143756
0.76134465
0.76103095
0.76008747
0.75261935
0.75379321
0.75419239
0.75431007
0.75434254
0.75434919
0.75434917
0.75434807
0.75434728
0.75434693
0.75434692
0.75434727
0.75434805
0.75434915
0.75434916
0.75434251
0.75431003
0.75419234
0.75379315
0.75261925
0.7457395
0.74712181
0.74760114
0.74774056
0.74777798
0.74778504
0.74778466
0.74778317
0.74778217
0.74778171
0.74778171
0.74778216
0.74778315
0.74778464
0.74778501
0.74777795
0.74774051
0.74760109
0.74712175
0.7457394
0.7394505
0.74102239
0.74157814
0.74173725
0.74177809
0.74178456
0.7417833
0.74178111
0.74177975
0.74177913
0.74177913
0.74177974
0.7417811
0.74178328
0.74178453
0.74177805
0.74173721
0.74157809
0.74102233
0.7394504
0.73373396
0.73548294
0.73611205
0.73628975
0.73633278
0.73633778
0.73633511
0.73633191
0.73633002
0.73632915
0.73632915
0.73633001
0.73633189
0.73633509
0.73633775
0.73633274
0.73628971
0.736112
0.73548288
0.73373388
0.72855225
0.73047441
0.7311741
0.73137039
0.73141484
0.73141763
0.7314131
0.73140858
0.73140599
0.7314048
0.7314048
0.73140598
0.73140857
0.73141308
0.7314176
0.73141481
0.73137035
0.73117405
0.73047436
0.72855218
0.72384838
0.72595065
0.72671854
0.72693483
0.72698056
0.72698062
0.72697387
0.72696779
0.72696436
0.72696276
0.72696276
0.72696435
0.72696778
0.72697385
0.72698059
0.72698053
0.72693479
0.7267185
0.72595061
0.72384833
0.71954566
0.72184797
0.72268287
0.72292233
0.72297005
0.72296724
0.72295811
0.7229503
0.7229459
0.72294383
0.72294383
0.7229459
0.72295028
0.72295809
0.72296722
0.72297003
0.7229223
0.72268284
0.72184794
0.71954562
0.71554616
0.71808302
0.71898684
0.71925499
0.71930604
0.71930073
0.71928933
0.71927978
0.71927439
0.71927182
0.71927182
0.71927438
0.71927977
0.71928931
0.71930072
0.71930602
0.71925497
0.71898682
0.718083
0.71554614
0.7117278
0.71454875
0.71553007
0.71583487
0.71589051
0.71588387
0.71587076
0.71585976
0.71585356
0.71585053
0.71585053
0.71585355
0.71585975
0.71587075
0.71588386
0.7158905
0.71583486
0.71553006
0.71454874
0.71172779
0.70794054
0.71111079
0.71218927
0.71254059
0.71260162
0.71259589
0.71258228
0.71257056
0.71256353
0.71256018
0.71256018
0.71256352
0.71257055
0.71258227
0.71259588
0.71260161
0.71254059
0.71218927
0.71111079
0.70794054
0.70398861
0.707593
0.70880304
0.70921247
0.70928002
0.70927895
0.70926732
0.70925628
0.70924706
0.70924362
0.70924362
0.70924705
0.70925627
0.70926731
0.70927894
0.70928001
0.70921248
0.70880304
0.70759302
0.70398862
0.69963118
0.70377907
0.70517133
0.7056534
0.7057308
0.70574048
0.70573417
0.7057261
0.70571121
0.70570809
0.70570809
0.7057112
0.70572608
0.70573416
0.70574047
0.7057308
0.70565341
0.70517134
0.70377909
0.6996312
0.69455339
0.69939043
0.70103244
0.7016078
0.70170364
0.70173222
0.70173411
0.70173246
0.70170749
0.70170554
0.70170554
0.70170748
0.70173245
0.7017341
0.70173221
0.70170364
0.70160781
0.70103245
0.69939046
0.69455341
0.68834394
0.69406523
0.69604287
0.69674204
0.69687335
0.69692963
0.69694127
0.69695104
0.69691205
0.69691295
0.69691295
0.69691204
0.69695102
0.69694126
0.69692963
0.69687335
0.69674205
0.69604288
0.69406526
0.68834397
0.68045858
0.68732245
0.68974556
0.69061271
0.69080742
0.69090067
0.6909236
0.69095156
0.6908959
0.69090245
0.69090244
0.69089589
0.69095154
0.69092359
0.69090067
0.69080742
0.69061272
0.68974558
0.68732249
0.68045861
0.67015922
0.67850843
0.68152167
0.68261968
0.68291522
0.68305802
0.68309747
0.68315249
0.68308039
0.6830968
0.68309679
0.68308038
0.68315248
0.68309746
0.68305802
0.68291523
0.68261969
0.6815217
0.67850847
0.67015926
0.65642133
0.66671891
0.67052007
0.67193244
0.67237503
0.67259127
0.67266127
0.67275469
0.67267356
0.67270562
0.67270562
0.67267355
0.67275468
0.67266126
0.67259127
0.67237503
0.67193246
0.6705201
0.66671896
0.6564214
0.63780032
0.65067836
0.65554646
0.65738416
0.65803611
0.65836609
0.65849808
0.65864489
0.65857485
0.65863022
0.65863022
0.65857484
0.65864487
0.65849807
0.65836609
0.65803612
0.65738419
0.6555465
0.65067844
0.63780043
0.61225824
0.62857707
0.63490932
0.63732885
0.63828386
0.63879522
0.63904142
0.63926086
0.63923792
0.63932619
0.63932619
0.63923791
0.63926085
0.63904142
0.63879523
0.63828388
0.6373289
0.63490939
0.6285772
0.61225843
0.57697055
0.59788058
0.60624227
0.60946915
0.61087357
0.61167674
0.61210956
0.61242362
0.61249662
0.61262876
0.61262876
0.61249662
0.61242362
0.61210957
0.61167676
0.61087362
0.60946922
0.60624239
0.59788079
0.57697087
0.52826014
0.55517075
0.56636873
0.57068698
0.57278977
0.57403872
0.57474122
0.57516832
0.57538664
0.57557218
0.57557218
0.57538664
0.57516832
0.57474125
0.57403877
0.57278985
0.5706871
0.56636891
0.55517109
0.52826065
0.46199763
0.49622403
0.51136733
0.51703366
0.52024987
0.52212672
0.52316261
0.52370767
0.52410034
0.52434201
0.52434202
0.52410036
0.5237077
0.52316266
0.5221268
0.52024999
0.51703385
0.51136762
0.49622454
0.46199839
0.37491797
0.41681932
0.43710781
0.44450282
0.44906625
0.45205628
0.45338954
0.45402185
0.45456629
0.45484927
0.45484928
0.45456632
0.4540219
0.45338962
0.4520564
0.44906642
0.44450306
0.4371082
0.41682001
0.37491891
0.26655336
0.31629198
0.34178563
0.35008302
0.35686951
0.36070182
0.36211407
0.3627431
0.36333432
0.36361473
0.36361474
0.36333435
0.36274316
0.36211416
0.36070195
0.3568697
0.3500833
0.34178607
0.31629271
0.26655418
0.13573363
0.19518014
0.22510995
0.23597075
0.24606547
0.24954253
0.25065727
0.25113418
0.25159492
0.25180262
0.25180263
0.25159494
0.25113423
0.25065734
0.24954262
0.24606561
0.23597096
0.22511027
0.19518062
0.13573403
1e-150
0.054433733
0.089398104
0.10492553
0.10984514
0.12137985
0.12193578
0.12216963
0.12237894
0.12247142
0.12247143
0.12237895
0.12216965
0.1219358
0.12137989
0.1098452
0.10492562
0.089398231
0.054433881
1e-150
1e-150
1e-150
1e-150
1e-150
1e-150
1e-150
1e-150
1e-150
1e-150
1e-150
1e-150
1e-150
1e-150
1e-150
1e-150
1e-150
1e-150
1e-150
1e-150
1e-150
1e-150
1e-150
1e-150
1e-150
1e-150
1e-150
1e-150
1e-150
1e-150
1e-150
1e-150
1e-150
1e-150
1e-150
1e-150
1e-150
1e-150
1e-150
1e-150
1e-150
1e-150
1e-150
1e-150
1e-150
1e-150
1e-150
1e-150
1e-150
1e-150
1e-150
1e-150
1e-150
1e-150
1e-150
1e-150
1e-150
1e-150
1e-150
1e-150
1e-150
1e-150
1e-150
1e-150
1e-150
1e-150
1e-150
1e-150
1e-150
1e-150
1e-150
1e-150
1e-150
1e-150
1e-150
1e-150
1e-150
1e-150
1e-150
1e-150
1e-150
1e-150
1e-150
1e-150
1e-150
1e-150
1e-150
1e-150
1e-150
1e-150
1e-150
1e-150
1e-150
1e-150
1e-150
1e-150
1e-150
1e-150
1e-150
1e-150
1e-150
1e-150
1e-150
1e-150
1e-150
1e-150
1e-150
1e-150
1e-150
1e-150
1e-150
1e-150
1e-150
1e-150
1e-150
1e-150
1e-150
1e-150
1e-150
1e-150
1e-150
1e-150
1e-150
1e-150
1e-150
1e-150
1e-150
1e-150
1e-150
1e-150
1e-150
1e-150
1e-150
1e-150
1e-150
1e-150
1e-150
1e-150
1e-150
1e-150
1e-150
1e-150
1e-150
1e-150
1e-150
1e-150
1e-150
1e-150
1e-150
1e-150
1e-150
1e-150
1e-150
1e-150
1e-150
1e-150
1e-150
1e-150
1e-150
1e-150
1e-150
1e-150
1e-150
1e-150
1e-150
1e-150
1e-150
1e-150
1e-150
1e-150
1e-150
1e-150
1e-150
1e-150
1e-150
1e-150
1e-150
1e-150
1e-150
1e-150
1e-150
1e-150
1e-150
1e-150
1e-150
1e-150
1e-150
1e-150
1e-150
1e-150
1e-150
1e-150
1e-150
1e-150
1e-150
1e-150
1e-150
1e-150
1e-150
1e-150
1e-150
)
;

boundaryField
{
    Wall
    {
        type            zeroGradient;
    }
    frontAndBack
    {
        type            empty;
    }
    atmosphere
    {
        type            zeroGradient;
    }
}


// ************************************************************************* //
