/*--------------------------------*- C++ -*----------------------------------*\
| =========                 |                                                 |
| \\      /  F ield         | OpenFOAM: The Open Source CFD Toolbox           |
|  \\    /   O peration     | Version:  3.0.1                                 |
|   \\  /    A nd           | Web:      www.OpenFOAM.org                      |
|    \\/     M anipulation  |                                                 |
\*---------------------------------------------------------------------------*/
FoamFile
{
    version     2.0;
    format      ascii;
    class       volScalarField;
    location    "20";
    object      alpha.gas;
}
// * * * * * * * * * * * * * * * * * * * * * * * * * * * * * * * * * * * * * //

dimensions      [0 0 0 0 0 0 0];

internalField   nonuniform List<scalar> 
800
(
2.9160104e-28
2.3152536e-25
4.4552312e-22
8.6814264e-22
4.8920158e-24
1.0734018e-21
9.3395491e-22
5.5793067e-23
1.0797853e-25
7.9629903e-29
3.0579724e-23
2.9798607e-23
2.0116474e-25
6.9292077e-23
6.8317787e-23
1.6111266e-27
3.5665014e-32
9.031189e-36
1.7814235e-39
3.3085831e-43
3.2423106e-12
7.3605509e-13
5.3555194e-11
1.911785e-11
7.5286342e-13
2.5313156e-11
1.9901905e-11
2.3960062e-11
4.8708104e-11
1.2229697e-10
6.1442075e-11
6.1184995e-11
3.3102246e-11
1.9618789e-11
1.8539762e-11
3.6137021e-12
2.4996235e-16
6.2528366e-14
1.031983e-11
1.4131661e-14
6.3875531e-06
6.0029569e-06
5.9523501e-06
5.9602934e-06
5.9684575e-06
5.9738971e-06
5.9762241e-06
5.9770186e-06
5.9771491e-06
5.9771391e-06
5.9770986e-06
5.9771568e-06
5.9770234e-06
5.9762217e-06
5.9738895e-06
5.9684553e-06
5.9602751e-06
5.9523098e-06
6.0029592e-06
6.3875522e-06
3.023846e-05
2.8205793e-05
2.7966482e-05
2.8013729e-05
2.8052399e-05
2.8075796e-05
2.8086015e-05
2.8088881e-05
2.8089418e-05
2.8089236e-05
2.80892e-05
2.808942e-05
2.8088878e-05
2.8086001e-05
2.8075773e-05
2.8052379e-05
2.8013688e-05
2.7966426e-05
2.8205777e-05
3.0238451e-05
8.8822381e-05
8.2025401e-05
8.1248766e-05
8.1344598e-05
8.1441285e-05
8.1495303e-05
8.1519577e-05
8.1527146e-05
8.1529295e-05
8.1529057e-05
8.1529017e-05
8.1529282e-05
8.1527116e-05
8.1519527e-05
8.149523e-05
8.1441208e-05
8.1344489e-05
8.1248648e-05
8.2025322e-05
8.8822309e-05
0.00022451057
0.00020367883
0.00020114954
0.00020104562
0.00020116086
0.00020123568
0.00020127273
0.00020129514
0.00020130568
0.00020130991
0.00020130986
0.00020130563
0.00020129504
0.00020127257
0.00020123546
0.00020116062
0.00020104531
0.00020114921
0.00020367854
0.00022451023
0.00062460785
0.00054611514
0.00053446846
0.00053235558
0.00053193719
0.00053186838
0.00053189252
0.00053199074
0.00053205946
0.00053210544
0.00053210534
0.00053205928
0.0005319904
0.00053189199
0.00053186764
0.0005319363
0.00053235449
0.00053446731
0.00054611392
0.00062460626
0.002693556
0.0021901454
0.0020969077
0.0020753664
0.0020684532
0.0020667294
0.0020667835
0.0020676822
0.002068428
0.0020689273
0.0020689269
0.0020684272
0.0020676805
0.0020667807
0.0020667253
0.002068448
0.0020753602
0.0020969009
0.0021901372
0.0026935449
0.034456829
0.024405424
0.022479218
0.021984545
0.021819979
0.021786084
0.021795833
0.021821549
0.021842872
0.021856149
0.021856143
0.021842857
0.021821521
0.021795784
0.021786011
0.021819885
0.021984431
0.022479091
0.02440527
0.034456593
0.46399664
0.39024192
0.37285871
0.36826073
0.36674857
0.36647989
0.3666187
0.36689416
0.36711795
0.36725481
0.36725476
0.36711781
0.36689389
0.36661824
0.36647921
0.36674769
0.36825968
0.37285755
0.39024061
0.46399521
0.9319509
0.90613294
0.89899649
0.8971854
0.89661569
0.89653993
0.89661992
0.89674751
0.89684816
0.89690892
0.8969089
0.89684811
0.8967474
0.89661973
0.89653965
0.89661533
0.89718497
0.89899602
0.90613244
0.93195048
0.99860094
0.99739743
0.99697747
0.99689335
0.99687655
0.99688144
0.99689145
0.99690168
0.99690902
0.99691321
0.99691321
0.99690901
0.99690168
0.99689144
0.99688143
0.99687653
0.99689333
0.99697744
0.99739741
0.99860093
0.9999973
0.9999908
0.99998765
0.9999872
0.99998728
0.99998745
0.99998761
0.99998773
0.99998782
0.99998786
0.99998786
0.99998782
0.99998773
0.99998761
0.99998745
0.99998728
0.9999872
0.99998765
0.9999908
0.9999973
1
1
1
0.99999999
0.99999999
1
1
1
1
1
1
1
1
1
1
0.99999999
0.99999999
1
1
1
1
1
1
1
1
1
1
1
1
1
1
1
1
1
1
1
1
1
1
1
1
1
1
1
1
1
1
1
1
1
1
1
1
1
1
1
1
1
1
1
1
1
1
1
1
1
1
1
1
1
1
1
1
1
1
1
1
1
1
1
1
1
1
1
1
1
1
1
1
1
1
1
1
1
1
1
1
1
1
1
1
1
1
1
1
1
1
1
1
1
1
1
1
1
1
1
1
1
1
1
1
1
1
1
1
1
1
1
1
1
1
1
1
1
1
1
1
1
1
1
1
1
1
1
1
1
1
1
1
1
1
1
1
1
1
1
1
1
1
1
1
1
1
1
1
1
1
1
1
1
1
1
1
1
1
1
1
1
1
1
1
1
1
1
1
1
1
1
1
1
1
1
1
1
1
1
1
1
1
1
1
1
1
1
1
1
1
1
1
1
1
1
1
1
1
1
1
1
1
1
1
1
1
1
1
1
1
1
1
1
1
1
1
1
1
1
1
1
1
1
1
1
1
1
1
1
1
1
1
1
1
1
1
1
1
1
1
1
1
1
1
1
1
1
1
1
1
1
1
1
1
1
1
1
1
1
1
1
1
1
1
1
1
1
1
1
1
1
1
1
1
1
1
1
1
1
1
1
1
1
1
1
1
1
1
1
1
1
1
1
1
1
1
1
1
1
1
1
1
1
1
1
1
1
1
1
1
1
1
1
1
1
1
1
1
1
1
1
1
1
1
1
1
1
1
1
1
1
1
1
1
1
1
1
1
1
1
1
1
1
1
1
1
1
1
1
1
1
1
1
1
1
1
1
1
1
1
1
1
1
1
1
1
1
1
1
1
1
1
1
1
1
1
1
1
1
1
1
1
1
1
1
1
1
1
1
1
1
1
1
1
1
1
1
1
1
1
1
1
1
1
1
1
1
1
1
1
1
1
1
1
1
1
1
1
1
1
1
1
1
1
1
1
1
1
1
1
1
1
1
1
1
1
1
1
1
1
1
1
1
1
1
1
1
1
1
1
1
1
1
1
1
1
1
1
1
1
1
1
1
1
1
1
1
1
1
1
1
1
1
1
1
1
1
1
1
1
1
1
1
1
1
1
1
1
1
1
1
1
1
1
1
1
1
1
1
1
1
1
1
1
1
1
1
1
1
1
1
1
1
1
1
1
1
1
1
1
1
1
1
)
;

boundaryField
{
    Wall
    {
        type            zeroGradient;
    }
    frontAndBack
    {
        type            empty;
    }
    atmosphere
    {
        type            zeroGradient;
    }
}


// ************************************************************************* //
