/*--------------------------------*- C++ -*----------------------------------*\
| =========                 |                                                 |
| \\      /  F ield         | OpenFOAM: The Open Source CFD Toolbox           |
|  \\    /   O peration     | Version:  3.0.1                                 |
|   \\  /    A nd           | Web:      www.OpenFOAM.org                      |
|    \\/     M anipulation  |                                                 |
\*---------------------------------------------------------------------------*/
FoamFile
{
    version     2.0;
    format      ascii;
    class       volScalarField;
    location    "20";
    object      g1_CO2;
}
// * * * * * * * * * * * * * * * * * * * * * * * * * * * * * * * * * * * * * //

dimensions      [0 0 0 0 0 0 0];

internalField   nonuniform List<scalar> 
800
(
0.47270706
0.47273672
0.47274144
0.47274218
0.47274253
0.47274287
0.47274318
0.47274342
0.47274359
0.47274367
0.47274367
0.47274359
0.47274342
0.47274318
0.47274287
0.47274254
0.47274218
0.47274144
0.47273672
0.47270706
0.49463648
0.49461996
0.49466081
0.49464513
0.49462136
0.49460255
0.49459059
0.49458394
0.4945806
0.49457924
0.49457924
0.4945806
0.49458394
0.49459059
0.49460255
0.49462136
0.49464513
0.49466081
0.49461995
0.49463648
0.53268492
0.53217675
0.53206146
0.53203812
0.53201
0.53198664
0.53197235
0.53196489
0.53196143
0.53196012
0.53196012
0.53196143
0.53196489
0.53197236
0.53198665
0.53201001
0.53203813
0.53206147
0.53217676
0.53268493
0.59605646
0.59457309
0.59432612
0.59428817
0.59424797
0.59421727
0.5941991
0.59419031
0.59418633
0.59418497
0.59418498
0.59418634
0.59419032
0.59419911
0.59421728
0.59424798
0.59428818
0.59432614
0.59457311
0.59605648
0.6803293
0.67774119
0.67743239
0.67770602
0.67762539
0.67757072
0.67754044
0.6775269
0.67752105
0.67751941
0.67751942
0.67752106
0.67752691
0.67754046
0.67757074
0.67762541
0.67770605
0.67743242
0.67774122
0.68032932
0.75489513
0.75580101
0.75547504
0.75605252
0.75587982
0.75577313
0.75572067
0.75569891
0.75569103
0.75568942
0.75568943
0.75569104
0.75569892
0.75572069
0.75577316
0.75587984
0.75605255
0.75547506
0.75580102
0.75489513
0.71364608
0.73584944
0.73495048
0.73582749
0.7356369
0.73553086
0.73549232
0.73548506
0.73548929
0.73549372
0.73549372
0.7354893
0.73548507
0.73549233
0.73553088
0.73563693
0.73582752
0.7349505
0.73584945
0.71364608
0.50266881
0.52157449
0.52214991
0.5236906
0.5238381
0.52394778
0.52404094
0.52411287
0.52416162
0.52418523
0.52418523
0.5241616
0.52411285
0.52404092
0.52394777
0.52383809
0.5236906
0.52214992
0.52157448
0.50266879
0.34938907
0.36597409
0.36934934
0.37095963
0.37138155
0.37164035
0.3718067
0.37191745
0.37198346
0.37201364
0.37201363
0.37198343
0.37191741
0.37180665
0.37164031
0.37138152
0.37095961
0.36934931
0.36597407
0.34938903
0.16969214
0.19028994
0.19832157
0.19980166
0.2002649
0.20048312
0.20059281
0.20065828
0.20069229
0.20070618
0.20070616
0.20069226
0.20065824
0.20059277
0.20048309
0.20026487
0.19980164
0.19832156
0.19028994
0.16969214
0
0
0
0
0
0
0
0
0
0
0
0
0
0
0
0
0
0
0
0
0
0
0
0
0
0
0
0
0
0
0
0
0
0
0
0
0
0
0
0
0
0
0
0
0
0
0
0
0
0
0
0
0
0
0
0
0
0
0
0
0
0
0
0
0
0
0
0
0
0
0
0
0
0
0
0
0
0
0
0
0
0
0
0
0
0
0
0
0
0
0
0
0
0
0
0
0
0
0
0
0
0
0
0
0
0
0
0
0
0
0
0
0
0
0
0
0
0
0
0
0
0
0
0
0
0
0
0
0
0
0
0
0
0
0
0
0
0
0
0
0
0
0
0
0
0
0
0
0
0
0
0
0
0
0
0
0
0
0
0
0
0
0
0
0
0
0
0
0
0
0
0
0
0
0
0
0
0
0
0
0
0
0
0
0
0
0
0
0
0
0
0
0
0
0
0
0
0
0
0
0
0
0
0
0
0
0
0
0
0
0
0
0
0
0
0
0
0
0
0
0
0
0
0
0
0
0
0
0
0
0
0
0
0
0
0
0
0
0
0
0
0
0
0
0
0
0
0
0
0
0
0
0
0
0
0
0
0
0
0
0
0
0
0
0
0
0
0
0
0
0
0
0
0
0
0
0
0
0
0
0
0
0
0
0
0
0
0
0
0
0
0
0
0
0
0
0
0
0
0
0
0
0
0
0
0
0
0
0
0
0
0
0
0
0
0
0
0
0
0
0
0
0
0
0
0
0
0
0
0
0
0
0
0
0
0
0
0
0
0
0
0
0
0
0
0
0
0
0
0
0
0
0
0
0
0
0
0
0
0
0
0
0
0
0
0
0
0
0
0
0
0
0
0
0
0
0
0
0
0
0
0
0
0
0
0
0
0
0
0
0
0
0
0
0
0
0
0
0
0
0
0
0
0
0
0
0
0
0
0
0
0
0
0
0
0
0
0
0
0
0
0
0
0
0
0
0
0
0
0
0
0
0
0
0
0
0
0
0
0
0
0
0
0
0
0
0
0
0
0
0
0
0
0
0
0
0
0
0
0
0
0
0
0
0
0
0
0
0
0
0
0
0
0
0
0
0
0
0
0
0
0
0
0
0
0
0
0
0
0
0
0
0
0
0
0
0
0
0
0
0
0
0
0
0
0
0
0
0
0
0
0
0
0
0
0
0
0
0
0
0
0
0
0
0
0
0
0
0
0
0
0
0
0
0
0
0
0
0
0
0
0
0
0
0
0
0
0
0
0
0
0
0
0
0
0
0
0
0
0
0
0
0
0
0
0
0
0
0
0
0
0
0
0
0
0
0
0
0
0
0
0
0
0
0
0
0
0
0
0
0
0
0
0
0
0
0
0
0
0
)
;

boundaryField
{
    Wall
    {
        type            zeroGradient;
    }
    frontAndBack
    {
        type            empty;
    }
    atmosphere
    {
        type            zeroGradient;
    }
}


// ************************************************************************* //
