/*--------------------------------*- C++ -*----------------------------------*\
| =========                 |                                                 |
| \\      /  F ield         | OpenFOAM: The Open Source CFD Toolbox           |
|  \\    /   O peration     | Version:  3.0.1                                 |
|   \\  /    A nd           | Web:      www.OpenFOAM.org                      |
|    \\/     M anipulation  |                                                 |
\*---------------------------------------------------------------------------*/
FoamFile
{
    version     2.0;
    format      ascii;
    class       volScalarField;
    location    "20";
    object      mOne;
}
// * * * * * * * * * * * * * * * * * * * * * * * * * * * * * * * * * * * * * //

dimensions      [0 0 0 0 0 0 0];

internalField   nonuniform List<scalar> 
800
(
6.9536769
6.9539405
6.9539414
6.9539247
6.9539111
6.9539005
6.9538928
6.9538874
6.9538839
6.9538822
6.9538822
6.9538839
6.9538874
6.9538929
6.9539006
6.9539112
6.9539248
6.9539414
6.9539405
6.9536769
6.6079394
6.6196326
6.6210891
6.621208
6.6211887
6.6212302
6.62131
6.6213919
6.621454
6.6214867
6.6214868
6.621454
6.6213919
6.62131
6.6212303
6.6211888
6.6212081
6.6210893
6.6196327
6.6079394
6.2744895
6.2898998
6.2951362
6.2955333
6.2955909
6.2957032
6.2958616
6.2960145
6.2961285
6.2961886
6.2961886
6.2961285
6.2960145
6.2958616
6.2957033
6.2955909
6.2955334
6.2951364
6.2898999
6.2744894
5.9232397
5.9445383
5.9522457
5.9526247
5.9526802
5.95281
5.9530109
5.9532091
5.9533575
5.9534363
5.9534363
5.9533575
5.9532091
5.9530109
5.9528101
5.9526803
5.9526249
5.9522459
5.9445384
5.9232395
5.4859158
5.5162049
5.5253766
5.5302065
5.5302388
5.5303783
5.5306164
5.5308544
5.531033
5.5311279
5.5311279
5.531033
5.5308544
5.5306164
5.5303783
5.5302389
5.5302066
5.5253768
5.516205
5.4859156
4.8835339
4.9340584
4.9443712
4.951153
4.9512976
4.9515535
4.9518867
4.95219
4.952412
4.9525279
4.9525279
4.952412
4.95219
4.9518867
4.9515536
4.9512977
4.9511531
4.9443714
4.9340585
4.8835336
4.0815998
4.1536754
4.1648367
4.1717462
4.1724108
4.1730224
4.1735748
4.1740025
4.1742935
4.1744386
4.1744386
4.1742935
4.1740024
4.1735747
4.1730224
4.1724108
4.1717462
4.1648367
4.1536754
4.0815996
3.2096344
3.2851607
3.3000453
3.3066812
3.3082054
3.3093317
3.3101544
3.3107204
3.3110755
3.3112444
3.3112444
3.3110754
3.3107202
3.3101542
3.3093316
3.3082054
3.3066812
3.3000453
3.2851607
3.2096341
2.3282872
2.4078271
2.42979
2.4361981
2.4384667
2.4399467
2.440901
2.4415147
2.4418746
2.4420403
2.4420403
2.4418745
2.4415145
2.4409007
2.4399465
2.4384666
2.436198
2.4297899
2.407827
2.328287
1.4606042
1.5409536
1.5698265
1.5758345
1.5781559
1.5794572
1.5801954
1.5806385
1.5808784
1.5809838
1.5809837
1.5808783
1.5806384
1.5801952
1.579457
1.5781558
1.5758345
1.5698264
1.5409537
1.4606041
0.82870822
0.89278307
0.91781744
0.92387854
0.92557423
0.92611413
0.92625951
0.92629824
0.92629083
0.92627395
0.92627391
0.92629074
0.9262981
0.92625939
0.92611406
0.92557423
0.92387857
0.91781752
0.89278322
0.82870834
0.41160285
0.48189465
0.5092668
0.51631427
0.51700745
0.51624089
0.51537277
0.51473781
0.51433375
0.51412471
0.51412467
0.51433368
0.51473769
0.51537268
0.51624086
0.51700747
0.51631432
0.50926688
0.48189481
0.41160306
0.15910584
0.24082026
0.2718762
0.28060001
0.28089605
0.27892789
0.27689311
0.27538901
0.2744414
0.27396921
0.27396917
0.27444132
0.27538889
0.27689302
0.27892785
0.28089606
0.28060004
0.27187625
0.24082036
0.15910598
0.045034578
0.10930824
0.13852816
0.14844192
0.14957604
0.14770059
0.14537899
0.14351721
0.1422952
0.14168145
0.14168141
0.14229512
0.1435171
0.14537891
0.14770055
0.14957604
0.14844194
0.13852818
0.10930829
0.045034623
0.0095295468
0.044791358
0.066643929
0.07571111
0.077628087
0.076561116
0.074746243
0.073143281
0.07204035
0.071476032
0.071476001
0.072040283
0.073143186
0.074746171
0.076561081
0.07762808
0.075711123
0.06664394
0.044791374
0.0095295534
0.0015969465
0.016568685
0.03012768
0.036972608
0.039004533
0.038665106
0.037547592
0.03644552
0.035650198
0.035235094
0.035235069
0.035650147
0.036445448
0.037547536
0.038665077
0.039004525
0.036972615
0.030127684
0.01656869
0.0015969471
0.00022559873
0.0055636156
0.01279221
0.017231056
0.018888367
0.01894128
0.018366545
0.017718373
0.017227118
0.016965629
0.016965613
0.017227082
0.017718323
0.018366506
0.018941257
0.018888359
0.017231061
0.012792212
0.0055636178
0.00022559886
2.8252149e-05
0.001713527
0.0051133272
0.0076600771
0.0087963805
0.0089742495
0.0087231987
0.0083848611
0.008114558
0.0079678136
0.0079678034
0.0081145358
0.0083848291
0.0087231729
0.0089742341
0.008796374
0.0076600799
0.0051133289
0.0017135282
2.8252185e-05
3.2461556e-06
0.00048987203
0.0019318352
0.0032521285
0.0039376075
0.0041060183
0.0040148973
0.0038548985
0.0037192591
0.0036440966
0.0036440908
0.0037192462
0.0038548796
0.0040148818
0.0041060085
0.0039376032
0.0032521303
0.0019318362
0.00048987258
3.2461633e-06
3.497357e-07
0.0001314271
0.0006930557
0.0013214203
0.0016952767
0.0018133598
0.0017887983
0.0017194752
0.0016564677
0.001620775
0.0016207719
0.0016564606
0.0017194647
0.0017887896
0.0018133542
0.0016952741
0.0013214213
0.00069305634
0.00013142731
3.4973697e-07
3.5808592e-08
3.3385615e-05
0.00023719244
0.00051516011
0.0007028422
0.00077324346
0.00077124447
0.00074359224
0.00071622929
0.00070034653
0.00070034494
0.00071622563
0.0007435868
0.0007712399
0.00077324048
0.00070284075
0.00051516057
0.00023719277
3.3385688e-05
3.5808768e-08
3.5131865e-09
8.0849965e-06
7.7765627e-05
0.00019318847
0.00028102524
0.00031860355
0.00032185277
0.00031170967
0.00030052548
0.00029385257
0.00029385181
0.00030052369
0.000311707
0.00032185049
0.00031860208
0.0002810245
0.00019318865
7.7765779e-05
8.0850195e-06
3.513208e-09
3.3199442e-10
1.8763195e-06
2.4513876e-05
6.9857561e-05
0.00010854538
0.00012698097
0.00013007983
0.00012668998
0.00012236836
0.00011970688
0.00011970652
0.00012236753
0.00012668874
0.00013007876
0.00012698029
0.00010854503
6.985763e-05
2.451394e-05
1.8763263e-06
3.319969e-10
3.0319713e-11
4.1897202e-07
7.4529945e-06
2.4412288e-05
4.0565932e-05
4.9010814e-05
5.0957371e-05
4.995058e-05
4.8367753e-05
4.7355959e-05
4.7355805e-05
4.8367388e-05
4.9950031e-05
5.0956888e-05
4.901051e-05
4.0565773e-05
2.4412312e-05
7.4530194e-06
4.189739e-07
3.0319994e-11
2.6819962e-12
9.0304128e-08
2.1913386e-06
8.261192e-06
1.4691694e-05
1.8341838e-05
1.936709e-05
1.9118805e-05
1.8568799e-05
1.8201124e-05
1.8201061e-05
1.8568645e-05
1.9118572e-05
1.9366882e-05
1.8341709e-05
1.4691626e-05
8.2611994e-06
2.1913476e-06
9.0304623e-08
2.6820265e-12
2.3015707e-13
1.8838103e-08
6.2453965e-07
2.7120856e-06
5.1638845e-06
6.6637706e-06
7.1486597e-06
7.1099911e-06
6.9288519e-06
6.8008946e-06
6.8008689e-06
6.9287889e-06
7.109896e-06
7.1485743e-06
6.663717e-06
5.1638565e-06
2.7120875e-06
6.2454273e-07
1.8838226e-08
2.3016021e-13
1.9184801e-14
3.8123169e-09
1.7289141e-07
8.6516116e-07
1.763851e-06
2.3530588e-06
2.5652769e-06
2.5713128e-06
2.5149751e-06
2.4722837e-06
2.4722737e-06
2.5149501e-06
2.5712754e-06
2.5652428e-06
2.3530373e-06
1.76384e-06
8.6516151e-07
1.728924e-07
3.8123462e-09
1.9185113e-14
1.5549059e-15
7.5004233e-10
4.657401e-08
2.6857014e-07
5.8622755e-07
8.0846716e-07
8.958355e-07
9.0513075e-07
8.8871151e-07
8.7505524e-07
8.7505147e-07
8.8870192e-07
9.0511652e-07
8.9582233e-07
8.084587e-07
5.862233e-07
2.6857012e-07
4.657431e-08
7.500489e-10
1.5549354e-15
1.2265108e-16
1.4374445e-10
1.2228793e-08
8.1237144e-08
1.8979313e-07
2.7055612e-07
3.0473382e-07
3.103997e-07
3.0598532e-07
3.01801e-07
3.0179963e-07
3.0598174e-07
3.1039444e-07
3.0472888e-07
2.7055288e-07
1.8979153e-07
8.1237084e-08
1.2228878e-08
1.4374585e-10
1.2265378e-16
1.2723822e-17
2.6886109e-11
3.1342586e-09
2.3971646e-08
5.9917076e-08
8.8273765e-08
1.0106458e-07
1.037885e-07
1.0273025e-07
1.015051e-07
1.015046e-07
1.0272896e-07
1.0378661e-07
1.0106278e-07
8.8272557e-08
5.9916491e-08
2.3971604e-08
3.1342808e-09
2.6886387e-11
1.2707708e-17
5.2642429e-18
4.9168426e-12
7.8518666e-10
6.9078529e-09
1.8462058e-08
2.8103769e-08
3.2705574e-08
3.3863835e-08
3.3657377e-08
3.3316098e-08
3.3315926e-08
3.365692e-08
3.3863173e-08
3.2704932e-08
2.8103327e-08
1.8461849e-08
6.9078316e-09
7.8519205e-10
4.916895e-12
5.2347877e-18
1.9064033e-18
8.8073321e-13
1.9249099e-10
1.9457896e-09
5.5569071e-09
8.7377958e-09
1.0335186e-08
1.0789405e-08
1.0768371e-08
1.0678643e-08
1.0678584e-08
1.0768214e-08
1.0789179e-08
1.0334963e-08
8.7376387e-09
5.556834e-09
1.9457805e-09
1.9249219e-10
8.8074273e-13
1.9131504e-18
4.3647213e-19
1.5483752e-13
4.6227267e-11
5.3618618e-10
1.6350744e-09
2.6549601e-09
3.1914597e-09
3.3591031e-09
3.3665724e-09
3.3446303e-09
3.344611e-09
3.3665197e-09
3.3590278e-09
3.1913841e-09
2.6549057e-09
1.6350495e-09
5.3618258e-10
4.6227506e-11
1.5483747e-13
4.3736885e-19
7.7155621e-20
2.6753795e-14
1.0885084e-11
1.4465019e-10
4.7063941e-10
7.888934e-10
9.6362825e-10
1.0225376e-09
1.0290863e-09
1.0242435e-09
1.0242373e-09
1.029069e-09
1.0225131e-09
9.6360328e-10
7.8887504e-10
4.7063111e-10
1.4464889e-10
1.088512e-11
2.6753173e-14
7.7087117e-20
1.1230839e-20
4.5483877e-15
2.5150351e-12
3.8228297e-11
1.3260227e-10
2.2937298e-10
2.8466198e-10
3.0451514e-10
3.0773597e-10
3.0684158e-10
3.0683962e-10
3.0773047e-10
3.0450734e-10
2.8465391e-10
2.2936694e-10
1.3259958e-10
3.8227846e-11
2.5150354e-12
4.5481095e-15
1.1186264e-20
1.2893951e-21
7.6138711e-16
5.7057043e-13
9.9028023e-12
3.6590232e-11
6.5292922e-11
8.2314966e-11
8.8763789e-11
9.0071126e-11
8.9969649e-11
8.9969039e-11
9.0069408e-11
8.876136e-11
8.2312418e-11
6.5290988e-11
3.6589377e-11
9.9026543e-12
5.7056836e-13
7.612971e-16
1.2804403e-21
8.5731928e-23
1.2557369e-16
1.2716247e-13
2.5156655e-12
9.8934536e-12
1.8205651e-11
2.3311432e-11
2.5337675e-11
2.5815218e-11
2.5831411e-11
2.5831227e-11
2.5814693e-11
2.5336935e-11
2.3310648e-11
1.8205046e-11
9.8931889e-12
2.5156189e-12
1.2716175e-13
1.2555696e-16
8.4941142e-23
5.5347024e-24
2.0441347e-17
2.7853899e-14
6.269863e-13
2.6223883e-12
4.9746413e-12
6.4683852e-12
7.0858811e-12
7.2483197e-12
7.2653571e-12
7.2653024e-12
7.2481631e-12
7.0856603e-12
6.4681493e-12
4.9744569e-12
2.622308e-12
6.2697214e-13
2.785366e-14
2.0438611e-17
5.4030058e-24
3.595615e-25
3.285936e-18
5.998443e-15
1.5337041e-13
6.8170125e-13
1.3326547e-12
1.7593108e-12
1.9422148e-12
1.9945614e-12
2.0026183e-12
2.0026024e-12
1.9945157e-12
1.9421502e-12
1.7592413e-12
1.3325997e-12
6.8167748e-13
1.5336625e-13
5.9983667e-15
3.2855241e-18
3.4634839e-25
2.3382276e-26
5.2176707e-19
1.2703848e-15
3.68345e-14
1.7386325e-13
3.5014397e-13
4.6922515e-13
5.2197183e-13
5.381135e-13
5.4117609e-13
5.4117158e-13
5.3810045e-13
5.2195333e-13
4.692051e-13
3.5012798e-13
1.7385637e-13
3.6833312e-14
1.2703623e-15
5.2170788e-19
2.2292406e-26
)
;

boundaryField
{
    Wall
    {
        type            zeroGradient;
    }
    frontAndBack
    {
        type            empty;
    }
    atmosphere
    {
        type            zeroGradient;
    }
}


// ************************************************************************* //
