/*--------------------------------*- C++ -*----------------------------------*\
| =========                 |                                                 |
| \\      /  F ield         | OpenFOAM: The Open Source CFD Toolbox           |
|  \\    /   O peration     | Version:  3.0.1                                 |
|   \\  /    A nd           | Web:      www.OpenFOAM.org                      |
|    \\/     M anipulation  |                                                 |
\*---------------------------------------------------------------------------*/
FoamFile
{
    version     2.0;
    format      ascii;
    class       volScalarField;
    location    "20";
    object      mThree;
}
// * * * * * * * * * * * * * * * * * * * * * * * * * * * * * * * * * * * * * //

dimensions      [0 0 0 0 0 0 0];

internalField   nonuniform List<scalar> 
800
(
3.1655554e-24
3.1659699e-24
3.165983e-24
3.1659649e-24
3.1659497e-24
3.165938e-24
3.1659296e-24
3.1659237e-24
3.1659199e-24
3.165918e-24
3.1659181e-24
3.1659199e-24
3.1659237e-24
3.1659296e-24
3.165938e-24
3.1659498e-24
3.1659649e-24
3.165983e-24
3.1659699e-24
3.1655554e-24
2.7398222e-24
2.7535876e-24
2.7553373e-24
2.7554561e-24
2.7554085e-24
2.7554408e-24
2.7555249e-24
2.7556161e-24
2.7556864e-24
2.7557237e-24
2.7557237e-24
2.7556864e-24
2.7556161e-24
2.755525e-24
2.7554409e-24
2.7554085e-24
2.7554562e-24
2.7553374e-24
2.7535878e-24
2.7398221e-24
2.5179699e-24
2.5334298e-24
2.5390646e-24
2.5394443e-24
2.5395076e-24
2.5396359e-24
2.5398116e-24
2.5399784e-24
2.5401015e-24
2.540166e-24
2.540166e-24
2.5401015e-24
2.5399784e-24
2.5398116e-24
2.539636e-24
2.5395077e-24
2.5394445e-24
2.5390648e-24
2.53343e-24
2.5179699e-24
2.3853346e-24
2.4042093e-24
2.4124035e-24
2.4128323e-24
2.4129375e-24
2.4131152e-24
2.4133486e-24
2.413567e-24
2.4137267e-24
2.4138103e-24
2.4138103e-24
2.4137267e-24
2.413567e-24
2.4133487e-24
2.4131153e-24
2.4129377e-24
2.4128326e-24
2.4124038e-24
2.4042094e-24
2.3853346e-24
2.2186665e-24
2.2436013e-24
2.253184e-24
2.2590448e-24
2.2591502e-24
2.2593516e-24
2.2596293e-24
2.2598912e-24
2.2600835e-24
2.2601843e-24
2.2601844e-24
2.2600835e-24
2.2598912e-24
2.2596293e-24
2.2593517e-24
2.2591503e-24
2.259045e-24
2.2531842e-24
2.2436014e-24
2.2186663e-24
1.904909e-24
1.9463225e-24
1.9562963e-24
1.964214e-24
1.9643817e-24
1.9646617e-24
1.9650111e-24
1.965327e-24
1.9655564e-24
1.9656755e-24
1.9656756e-24
1.9655563e-24
1.965327e-24
1.965011e-24
1.9646617e-24
1.9643817e-24
1.964214e-24
1.9562964e-24
1.9463225e-24
1.9049088e-24
1.4233846e-24
1.4764413e-24
1.4849912e-24
1.491892e-24
1.4923649e-24
1.4928631e-24
1.493341e-24
1.4937273e-24
1.4939933e-24
1.4941276e-24
1.4941275e-24
1.4939932e-24
1.4937272e-24
1.4933409e-24
1.4928631e-24
1.4923649e-24
1.4918919e-24
1.4849912e-24
1.4764412e-24
1.4233843e-24
9.581867e-25
9.9997767e-25
1.0082924e-24
1.0133339e-24
1.0142006e-24
1.0149313e-24
1.01551e-24
1.0159323e-24
1.0162049e-24
1.0163386e-24
1.0163385e-24
1.0162048e-24
1.0159321e-24
1.0155098e-24
1.0149312e-24
1.0142004e-24
1.0133338e-24
1.0082923e-24
9.9997752e-25
9.5818639e-25
5.7376044e-25
6.0736374e-25
6.1696526e-25
6.2038082e-25
6.2141447e-25
6.2218913e-25
6.2273865e-25
6.2311557e-25
6.2334684e-25
6.2345816e-25
6.2345813e-25
6.2334676e-25
6.2311544e-25
6.2273849e-25
6.2218897e-25
6.2141432e-25
6.2038067e-25
6.1696513e-25
6.0736359e-25
5.7376018e-25
2.6095216e-25
2.8650976e-25
2.9644363e-25
2.9841175e-25
2.9919009e-25
2.9972398e-25
3.0007451e-25
3.0030451e-25
3.0043977e-25
3.0050419e-25
3.0050417e-25
3.0043971e-25
3.0030442e-25
3.0007441e-25
2.9972388e-25
2.9918999e-25
2.9841165e-25
2.9644354e-25
2.8650967e-25
2.6095202e-25
1.0350238e-25
1.1428959e-25
1.1876545e-25
1.1978977e-25
1.2020842e-25
1.2046304e-25
1.2061624e-25
1.2071084e-25
1.2076332e-25
1.2078744e-25
1.2078743e-25
1.207633e-25
1.2071081e-25
1.206162e-25
1.2046299e-25
1.2020838e-25
1.1978973e-25
1.1876542e-25
1.1428956e-25
1.0350234e-25
3.6671078e-26
4.3284102e-26
4.5621645e-26
4.6115534e-26
4.6219339e-26
4.625393e-26
4.626694e-26
4.6273158e-26
4.6274895e-26
4.6274683e-26
4.6274679e-26
4.6274885e-26
4.6273141e-26
4.6266921e-26
4.6253912e-26
4.6219324e-26
4.6115518e-26
4.5621635e-26
4.3284097e-26
3.6671074e-26
1.0088704e-26
1.5348765e-26
1.7024712e-26
1.7332667e-26
1.7281528e-26
1.7179294e-26
1.7093559e-26
1.7034126e-26
1.6997153e-26
1.6978742e-26
1.697874e-26
1.6997148e-26
1.7034118e-26
1.709355e-26
1.7179285e-26
1.7281521e-26
1.733266e-26
1.7024707e-26
1.5348763e-26
1.0088707e-26
2.0067566e-27
4.9171114e-27
6.0818485e-27
6.3679812e-27
6.3464103e-27
6.2524394e-27
6.1618958e-27
6.0940277e-27
6.0503392e-27
6.0286335e-27
6.0286324e-27
6.0503361e-27
6.0940233e-27
6.161891e-27
6.2524353e-27
6.346407e-27
6.3679781e-27
6.0818465e-27
4.9171108e-27
2.0067572e-27
2.9447964e-28
1.4022625e-27
2.0404572e-27
2.2540359e-27
2.2724141e-27
2.2269723e-27
2.172536e-27
2.1279587e-27
2.0979811e-27
2.0828463e-27
2.0828457e-27
2.0979795e-27
2.1279564e-27
2.1725336e-27
2.2269704e-27
2.2724126e-27
2.2540347e-27
2.0404565e-27
1.4022622e-27
2.9447962e-28
3.3785312e-29
3.5528224e-28
6.36565e-28
7.5939034e-28
7.8504713e-28
7.7069627e-28
7.4624114e-28
7.2413622e-28
7.0859335e-28
7.0060171e-28
7.0060137e-28
7.0859253e-28
7.2413511e-28
7.4624003e-28
7.7069539e-28
7.8504653e-28
7.5938993e-28
6.3656478e-28
3.5528214e-28
3.3785297e-29
3.2290563e-30
8.0509985e-29
1.8412434e-28
2.4183345e-28
2.5956206e-28
2.5726045e-28
2.4830209e-28
2.3918008e-28
2.3246013e-28
2.2894019e-28
2.2894004e-28
2.3245976e-28
2.3917957e-28
2.4830159e-28
2.5726006e-28
2.5956183e-28
2.4183333e-28
1.841243e-28
8.0509978e-29
3.2290553e-30
2.7063955e-31
1.6514014e-29
4.9453803e-29
7.2605072e-29
8.1742108e-29
8.2380709e-29
7.9628076e-29
7.634968e-29
7.3807715e-29
7.245019e-29
7.2450128e-29
7.3807564e-29
7.634947e-29
7.9627869e-29
8.2380553e-29
8.1742022e-29
7.2605045e-29
4.9453802e-29
1.6514019e-29
2.7063965e-31
2.060118e-32
3.106592e-30
1.2383212e-29
2.0551786e-29
2.4465466e-29
2.5220857e-29
2.4518283e-29
2.3467625e-29
2.260363e-29
2.2132459e-29
2.2132437e-29
2.2603573e-29
2.3467545e-29
2.4518204e-29
2.5220797e-29
2.4465437e-29
2.0551783e-29
1.2383216e-29
3.106595e-30
2.0601206e-32
1.4559203e-33
5.4219493e-31
2.9047417e-30
5.4932298e-30
6.9556542e-30
7.3685642e-30
7.2302674e-30
6.9262463e-30
6.6580977e-30
6.5084285e-30
6.5084209e-30
6.6580771e-30
6.9262177e-30
7.2302393e-30
7.3685428e-30
6.9556453e-30
5.4932307e-30
2.9047438e-30
5.4219586e-31
1.4559237e-33
9.6819452e-35
8.8591644e-32
6.4129577e-31
1.3894109e-30
1.8793167e-30
2.0529725e-30
2.038986e-30
1.9591222e-30
1.8823393e-30
1.8383425e-30
1.83834e-30
1.8823323e-30
1.9591128e-30
2.0389768e-30
2.0529655e-30
1.8793141e-30
1.3894116e-30
6.4129658e-31
8.8591858e-32
9.6819773e-35
6.1083968e-36
1.3642872e-32
1.3380309e-31
3.3330599e-31
4.8302089e-31
5.4546404e-31
5.4950224e-31
5.3046699e-31
5.1003898e-31
4.9797718e-31
4.9797644e-31
5.1003682e-31
5.3046409e-31
5.4949941e-31
5.4546197e-31
4.830202e-31
3.3330628e-31
1.3380335e-31
1.3642918e-32
6.108422e-36
3.674818e-37
1.9897916e-33
2.6473223e-32
7.5997711e-32
1.1823998e-31
1.382723e-31
1.4150389e-31
1.3742072e-31
1.3234653e-31
1.2924494e-31
1.2924472e-31
1.323459e-31
1.3741988e-31
1.4150306e-31
1.3827174e-31
1.1823981e-31
7.5997808e-32
2.6473298e-32
1.9898002e-33
3.6748367e-37
2.1148847e-38
2.7582813e-34
4.9805589e-33
1.6502401e-32
2.7602854e-32
3.3466411e-32
3.4828129e-32
3.4057112e-32
3.2876482e-32
3.2125145e-32
3.2125087e-32
3.2876312e-32
3.4056886e-32
3.4827907e-32
3.3466266e-32
2.7602818e-32
1.650243e-32
4.9805777e-33
2.7582967e-34
2.1148982e-38
1.1668029e-39
3.6437228e-35
8.929987e-34
3.4184456e-33
6.1529832e-33
7.7404817e-33
8.1975819e-33
8.0767113e-33
7.8188824e-33
7.6468393e-33
7.6468247e-33
7.8188391e-33
8.0766531e-33
8.197526e-33
7.740447e-33
6.1529761e-33
3.4184539e-33
8.9300306e-34
3.6437482e-35
1.1668121e-39
6.1801524e-41
4.5963117e-36
1.5287013e-34
6.7655185e-34
1.3112484e-33
1.7124536e-33
1.8464389e-33
1.8337525e-33
1.7808678e-33
1.7435297e-33
1.7435261e-33
1.7808573e-33
1.8337383e-33
1.8464255e-33
1.7124457e-33
1.3112472e-33
6.7655395e-34
1.5287107e-34
4.5963507e-36
6.1802112e-41
3.1459525e-42
5.5454273e-37
2.5024337e-35
1.2809869e-34
2.6745184e-34
3.6272301e-34
3.9830531e-34
3.9883982e-34
3.886587e-34
3.8096235e-34
3.8096151e-34
3.8865627e-34
3.9883653e-34
3.9830227e-34
3.6272129e-34
2.6745166e-34
1.2809919e-34
2.5024525e-35
5.5454841e-37
3.1459878e-42
1.5403368e-43
6.4077642e-38
3.9223408e-36
2.3231562e-35
5.2267199e-35
7.3628325e-35
8.2354268e-35
8.3160721e-35
8.1325933e-35
7.981683e-35
7.9816641e-35
8.1325397e-35
8.3159995e-35
8.2353602e-35
7.3627965e-35
5.2267175e-35
2.3231671e-35
3.922376e-36
6.4078409e-38
1.5403569e-43
7.259202e-45
7.0994756e-39
5.8935333e-37
4.0399087e-36
9.7964174e-36
1.4335878e-35
1.6334537e-35
1.6635277e-35
1.6327456e-35
1.6045652e-35
1.6045612e-35
1.6327342e-35
1.6635124e-35
1.6334397e-35
1.4335804e-35
9.7964145e-36
4.0399311e-36
5.8935942e-37
7.0995732e-39
7.2593099e-45
3.9049379e-46
7.5498477e-40
8.4977897e-38
6.7430021e-37
1.7626395e-36
2.679747e-36
3.1105458e-36
3.1950018e-36
3.1474355e-36
3.0972846e-36
3.0972762e-36
3.1474123e-36
3.1949705e-36
3.1105178e-36
2.6797323e-36
1.7626391e-36
6.743044e-37
8.4978881e-38
7.5499634e-40
3.9020186e-46
6.2807373e-47
7.7133493e-41
1.1769208e-38
1.0812337e-37
3.0471696e-37
4.8130148e-37
5.691478e-37
5.8962685e-37
5.8299989e-37
5.7449167e-37
5.7449e-37
5.8299536e-37
5.8962072e-37
5.6914233e-37
4.8129862e-37
3.0471687e-37
1.081241e-37
1.1769357e-38
7.7134785e-41
6.2410669e-47
9.9495696e-48
7.5774329e-42
1.5670322e-39
1.6670107e-38
5.0655056e-38
8.3126797e-38
1.0014055e-37
1.0463517e-37
1.0384255e-37
1.0246674e-37
1.0246642e-37
1.0384169e-37
1.0463401e-37
1.0013952e-37
8.3126255e-38
5.0655032e-38
1.6670226e-38
1.5670537e-39
7.5775698e-42
9.9925071e-48
1.1276888e-48
7.1649103e-43
2.0074714e-40
2.473169e-39
8.1035963e-39
1.3816403e-38
1.6955701e-38
1.7868644e-38
1.7798858e-38
1.7586958e-38
1.75869e-38
1.7798703e-38
1.7868434e-38
1.6955515e-38
1.3816304e-38
8.1035899e-39
2.4731874e-39
2.0075006e-40
7.1650161e-43
1.1333833e-48
1.0059302e-49
6.5247725e-44
2.4762426e-41
3.5333681e-40
1.2484722e-39
2.2115286e-39
2.7647322e-39
2.9385068e-39
2.9378113e-39
2.9067698e-39
2.9067596e-39
2.9377844e-39
2.9384701e-39
2.7646997e-39
2.2115113e-39
1.2484707e-39
3.5333947e-40
2.4762795e-41
6.5248141e-44
1.0088386e-49
7.3523809e-51
5.7258042e-45
2.9431803e-42
4.8646177e-41
1.8536451e-40
3.4113949e-40
4.3442894e-40
4.6567011e-40
4.6726638e-40
4.6295166e-40
4.6294997e-40
4.6726186e-40
4.6566393e-40
4.3442343e-40
3.4113654e-40
1.8536416e-40
4.8646534e-41
2.9432239e-42
5.7257544e-45
7.3578417e-51
4.2209499e-52
4.8441496e-46
3.372939e-43
6.4583553e-42
2.6540321e-41
5.074547e-41
6.5825823e-41
7.1158945e-41
7.1663221e-41
7.1096402e-41
7.1096125e-41
7.1662491e-41
7.1157944e-41
6.582492e-41
5.0744986e-41
2.654025e-41
6.4584001e-42
3.3729867e-43
4.8440073e-46
4.2183322e-52
1.3605872e-53
3.9526148e-47
3.7294484e-44
8.2733668e-43
3.6668157e-42
7.28382e-42
9.6240204e-42
1.0491822e-41
1.0604492e-41
1.0534574e-41
1.0534531e-41
1.0604378e-41
1.0491665e-41
9.6238784e-42
7.2837424e-42
3.6668024e-42
8.2734189e-43
3.7295028e-44
3.9524667e-47
1.35976e-53
4.0746388e-55
3.1139692e-48
3.9810019e-45
1.0232699e-43
4.89141e-43
1.0094301e-42
1.3584958e-42
1.4934879e-42
1.5149713e-42
1.5069645e-42
1.506958e-42
1.514954e-42
1.4934643e-42
1.3584743e-42
1.0094181e-42
4.8913862e-43
1.0232754e-43
3.9810612e-45
3.1138384e-48
4.0203256e-55
1.1972418e-56
2.3700145e-49
4.104894e-46
1.2226286e-44
6.3035956e-44
1.351436e-43
1.8524617e-43
2.0536665e-43
2.0906829e-43
2.0823513e-43
2.082342e-43
2.0906578e-43
2.0536322e-43
1.8524302e-43
1.3514178e-43
6.3035553e-44
1.2226335e-44
4.1049532e-46
2.3699176e-49
1.1630461e-56
3.5623323e-58
1.743477e-50
4.0908397e-47
1.4119961e-45
7.8521485e-45
1.7488532e-44
2.4415534e-44
2.7294363e-44
2.7885525e-44
2.7810437e-44
2.7810306e-44
2.7885173e-44
2.7293879e-44
2.4415084e-44
1.7488267e-44
7.8520837e-45
1.4119992e-45
4.0908938e-47
1.7434127e-50
3.4363425e-58
)
;

boundaryField
{
    Wall
    {
        type            zeroGradient;
    }
    frontAndBack
    {
        type            empty;
    }
    atmosphere
    {
        type            zeroGradient;
    }
}


// ************************************************************************* //
