/*--------------------------------*- C++ -*----------------------------------*\
| =========                 |                                                 |
| \\      /  F ield         | OpenFOAM: The Open Source CFD Toolbox           |
|  \\    /   O peration     | Version:  3.0.1                                 |
|   \\  /    A nd           | Web:      www.OpenFOAM.org                      |
|    \\/     M anipulation  |                                                 |
\*---------------------------------------------------------------------------*/
FoamFile
{
    version     2.0;
    format      ascii;
    class       volScalarField;
    location    "20";
    object      mTwo;
}
// * * * * * * * * * * * * * * * * * * * * * * * * * * * * * * * * * * * * * //

dimensions      [0 0 0 0 0 0 0];

internalField   nonuniform List<scalar> 
800
(
4.8289414e-12
4.829307e-12
4.8293082e-12
4.8292851e-12
4.8292662e-12
4.8292514e-12
4.8292407e-12
4.8292332e-12
4.8292283e-12
4.8292259e-12
4.8292259e-12
4.8292283e-12
4.8292332e-12
4.8292407e-12
4.8292514e-12
4.8292662e-12
4.8292851e-12
4.8293083e-12
4.829307e-12
4.8289415e-12
4.3724191e-12
4.3872625e-12
4.3891208e-12
4.3892579e-12
4.3892189e-12
4.3892621e-12
4.3893578e-12
4.3894589e-12
4.3895362e-12
4.389577e-12
4.3895771e-12
4.3895362e-12
4.3894589e-12
4.3893578e-12
4.3892622e-12
4.389219e-12
4.3892581e-12
4.389121e-12
4.3872626e-12
4.372419e-12
4.0720126e-12
4.0896799e-12
4.0958147e-12
4.0962566e-12
4.0963341e-12
4.0964796e-12
4.0966763e-12
4.096863e-12
4.0970007e-12
4.097073e-12
4.097073e-12
4.0970008e-12
4.096863e-12
4.0966764e-12
4.0964797e-12
4.0963342e-12
4.0962568e-12
4.095815e-12
4.0896801e-12
4.0720125e-12
3.8379405e-12
3.8601956e-12
3.8691063e-12
3.8695729e-12
3.8696854e-12
3.8698773e-12
3.8701348e-12
3.8703775e-12
3.8705558e-12
3.8706493e-12
3.8706494e-12
3.8705558e-12
3.8703775e-12
3.8701348e-12
3.8698775e-12
3.8696855e-12
3.8695731e-12
3.8691065e-12
3.8601958e-12
3.8379404e-12
3.5540825e-12
3.5838253e-12
3.5942812e-12
3.6003806e-12
3.6004879e-12
3.6007032e-12
3.601008e-12
3.6012978e-12
3.6015112e-12
3.6016234e-12
3.6016234e-12
3.6015112e-12
3.6012978e-12
3.601008e-12
3.6007033e-12
3.600488e-12
3.6003808e-12
3.5942814e-12
3.5838254e-12
3.5540823e-12
3.1070925e-12
3.1562945e-12
3.1675156e-12
3.1758799e-12
3.1760764e-12
3.1763946e-12
3.1767893e-12
3.1771447e-12
3.1774026e-12
3.1775366e-12
3.1775366e-12
3.1774026e-12
3.1771447e-12
3.1767893e-12
3.1763947e-12
3.1760764e-12
3.17588e-12
3.1675157e-12
3.1562945e-12
3.1070922e-12
2.463903e-12
2.530223e-12
2.5408137e-12
2.5486219e-12
2.5492406e-12
2.5498587e-12
2.5504376e-12
2.5508984e-12
2.551214e-12
2.5513727e-12
2.5513727e-12
2.551214e-12
2.5508983e-12
2.5504375e-12
2.5498587e-12
2.5492405e-12
2.5486219e-12
2.5408137e-12
2.5302229e-12
2.4639026e-12
1.8025566e-12
1.8623102e-12
1.8741931e-12
1.8806177e-12
1.8818585e-12
1.8828555e-12
1.8836236e-12
1.884174e-12
1.8845261e-12
1.8846972e-12
1.8846972e-12
1.884526e-12
1.8841738e-12
1.8836234e-12
1.8828553e-12
1.8818584e-12
1.8806176e-12
1.874193e-12
1.8623101e-12
1.8025562e-12
1.1942258e-12
1.2490459e-12
1.2645501e-12
1.269628e-12
1.2712731e-12
1.2724485e-12
1.2732573e-12
1.2738015e-12
1.2741309e-12
1.2742877e-12
1.2742877e-12
1.2741308e-12
1.2738013e-12
1.273257e-12
1.2724483e-12
1.2712729e-12
1.2696278e-12
1.2645499e-12
1.2490457e-12
1.1942254e-12
6.4531656e-13
6.9308093e-13
7.1106241e-13
7.1468873e-13
7.1613845e-13
7.1707639e-13
7.1766886e-13
7.180486e-13
7.1826747e-13
7.1837007e-13
7.1837004e-13
7.1826738e-13
7.1804845e-13
7.1766869e-13
7.1707623e-13
7.161383e-13
7.1468858e-13
7.1106229e-13
6.9308082e-13
6.4531636e-13
3.1390292e-13
3.4136956e-13
3.5229868e-13
3.5484637e-13
3.5576395e-13
3.5624969e-13
3.5651608e-13
3.566724e-13
3.5675446e-13
3.5679011e-13
3.5679009e-13
3.5675441e-13
3.5667232e-13
3.56516e-13
3.5624961e-13
3.5576388e-13
3.5484631e-13
3.5229865e-13
3.4136955e-13
3.1390288e-13
1.3631691e-13
1.5945515e-13
1.6791433e-13
1.698431e-13
1.7009747e-13
1.7002852e-13
1.6991796e-13
1.6983315e-13
1.6977568e-13
1.6974411e-13
1.697441e-13
1.6977565e-13
1.698331e-13
1.6991791e-13
1.7002848e-13
1.7009744e-13
1.6984308e-13
1.6791432e-13
1.5945516e-13
1.3631693e-13
4.672047e-14
7.001163e-14
7.8115777e-14
8.0006599e-14
7.9904066e-14
7.9384632e-14
7.8904556e-14
7.8560837e-14
7.8345958e-14
7.8239183e-14
7.8239173e-14
7.8345935e-14
7.8560802e-14
7.8904523e-14
7.9384606e-14
7.990405e-14
8.0006584e-14
7.8115771e-14
7.0011638e-14
4.6720494e-14
1.1858195e-14
2.8138298e-14
3.5061456e-14
3.711135e-14
3.7188283e-14
3.6686837e-14
3.614351e-14
3.5722121e-14
3.5448221e-14
3.5311434e-14
3.5311426e-14
3.5448203e-14
3.5722096e-14
3.6143487e-14
3.6686821e-14
3.7188272e-14
3.7111343e-14
3.5061453e-14
2.8138301e-14
1.1858202e-14
2.2721295e-15
1.0261811e-14
1.4970886e-14
1.6751128e-14
1.7034841e-14
1.6756371e-14
1.6362815e-14
1.6027479e-14
1.5799185e-14
1.5683081e-14
1.5683075e-14
1.5799172e-14
1.6027461e-14
1.6362799e-14
1.675636e-14
1.7034835e-14
1.6751125e-14
1.4970885e-14
1.0261811e-14
2.27213e-15
3.4746004e-16
3.396468e-15
6.0431353e-15
7.292882e-15
7.6172574e-15
7.5204181e-15
7.2990431e-15
7.0892279e-15
6.9395135e-15
6.8618488e-15
6.861845e-15
6.9395047e-15
7.0892158e-15
7.2990326e-15
7.5204113e-15
7.617254e-15
7.2928807e-15
6.0431346e-15
3.3964679e-15
3.4745998e-16
4.506722e-17
1.026675e-15
2.3036686e-15
3.048786e-15
3.3054804e-15
3.2981108e-15
3.1941706e-15
3.0821449e-15
2.9982358e-15
2.9538386e-15
2.9538363e-15
2.9982304e-15
3.0821376e-15
3.1941642e-15
3.2981067e-15
3.3054785e-15
3.0487858e-15
2.3036686e-15
1.0266751e-15
4.5067218e-17
5.2082283e-18
2.8642696e-16
8.3101515e-16
1.2222357e-15
1.3874845e-15
1.4076405e-15
1.3659534e-15
1.3127707e-15
1.2707984e-15
1.2481409e-15
1.2481396e-15
1.2707954e-15
1.3127665e-15
1.3659498e-15
1.4076382e-15
1.3874834e-15
1.2222358e-15
8.3101531e-16
2.864271e-16
5.2082315e-18
5.5470607e-19
7.4617137e-17
2.8473169e-16
4.7015953e-16
5.6260862e-16
5.8324721e-16
5.6916404e-16
5.4620912e-16
5.2699633e-16
5.1640537e-16
5.164047e-16
5.2699477e-16
5.4620689e-16
5.6916212e-16
5.8324595e-16
5.626081e-16
4.701597e-16
2.8473183e-16
7.4617216e-17
5.5470693e-19
5.5625109e-20
1.8340896e-17
9.3056099e-17
1.7381617e-16
2.2036019e-16
2.3432253e-16
2.3064318e-16
2.2152455e-16
2.133509e-16
2.0874258e-16
2.0874225e-16
2.1335012e-16
2.2152343e-16
2.3064222e-16
2.3432189e-16
2.2035995e-16
1.738163e-16
9.305619e-17
1.8340928e-17
5.5625259e-20
5.3214777e-21
4.2887625e-18
2.9127812e-17
6.1880032e-17
8.3421682e-17
9.1245878e-17
9.0800366e-17
8.7447544e-17
8.4182895e-17
8.2296168e-17
8.2296015e-17
8.4182528e-17
8.7447015e-17
9.0799912e-17
9.1245583e-17
8.3421573e-17
6.1880102e-17
2.9127858e-17
4.2887729e-18
5.321498e-21
4.8961429e-22
9.5992693e-19
8.7635501e-18
2.1257284e-17
3.0554273e-17
3.4445322e-17
3.4713467e-17
3.3572099e-17
3.2339467e-17
3.160713e-17
3.1607062e-17
3.2339304e-17
3.3571862e-17
3.4713263e-17
3.4445194e-17
3.0554227e-17
2.1257316e-17
8.7635705e-18
9.599301e-19
4.8961663e-22
4.3541935e-23
2.0657839e-19
2.5419509e-18
7.0598256e-18
1.08395e-17
1.2612357e-17
1.2888193e-17
1.2530732e-17
1.2088706e-17
1.1817734e-17
1.1817705e-17
1.2088637e-17
1.253063e-17
1.2888106e-17
1.2612304e-17
1.0839482e-17
7.0598396e-18
2.5419592e-18
2.0657928e-19
4.3542193e-23
3.7545723e-24
4.2884489e-20
7.1260701e-19
2.2707376e-18
3.729127e-18
4.4826223e-18
4.648676e-18
4.5474828e-18
4.3964682e-18
4.3005027e-18
4.3004909e-18
4.3964403e-18
4.5474415e-18
4.6486406e-18
4.4826017e-18
3.7291199e-18
2.2707433e-18
7.1261005e-19
4.2884726e-20
3.7546004e-24
3.1455375e-25
8.6091388e-21
1.9347736e-19
7.084502e-19
1.2455927e-18
1.5477771e-18
1.6299043e-18
1.605144e-18
1.5559068e-18
1.5232788e-18
1.5232743e-18
1.555896e-18
1.6051278e-18
1.6298905e-18
1.5477694e-18
1.2455901e-18
7.0845235e-19
1.9347841e-19
8.6091982e-21
3.1455668e-25
2.5639012e-26
1.674585e-21
5.096529e-20
2.1470279e-19
4.0439788e-19
5.1966018e-19
5.5590587e-19
5.5136756e-19
5.3604174e-19
5.2536841e-19
5.2536671e-19
5.3603769e-19
5.5136144e-19
5.5590068e-19
5.1965736e-19
4.0439693e-19
2.1470356e-19
5.0965634e-20
1.674599e-21
2.5639305e-26
2.035145e-27
3.1611002e-22
1.30453e-20
6.328696e-20
1.2775472e-19
1.6981161e-19
1.845828e-19
1.8443502e-19
1.7988646e-19
1.7652219e-19
1.7652157e-19
1.7988499e-19
1.8443278e-19
1.8458091e-19
1.698106e-19
1.2775438e-19
6.3287218e-20
1.3045405e-20
3.1611322e-22
2.0351731e-27
1.5743102e-28
5.7990403e-23
3.2491647e-21
1.8165913e-20
3.9312349e-20
5.4057023e-20
5.971627e-20
6.0123394e-20
5.8840554e-20
5.7817899e-20
5.7817682e-20
5.8840033e-20
6.0122606e-20
5.9715599e-20
5.4056668e-20
3.9312229e-20
1.8165994e-20
3.2491957e-21
5.7991091e-23
1.574336e-28
1.187521e-29
1.0351613e-23
7.8846477e-22
5.0833389e-21
1.1794821e-20
1.6778952e-20
1.8839534e-20
1.9115257e-20
1.877377e-20
1.8473923e-20
1.8473849e-20
1.8773591e-20
1.9114987e-20
1.8839302e-20
1.6778829e-20
1.1794779e-20
5.0833633e-21
7.8847334e-22
1.0351754e-23
1.1875438e-29
1.0869151e-30
1.8001512e-24
1.8664032e-22
1.388168e-21
3.4535728e-21
5.0825749e-21
5.8007437e-21
5.9319227e-21
5.8472361e-21
5.762478e-21
5.7624533e-21
5.847176e-21
5.9318323e-21
5.8006659e-21
5.0825328e-21
3.4535579e-21
1.3881747e-21
1.8664256e-22
1.8001786e-24
1.085886e-30
3.3744678e-31
3.0532115e-25
4.3145347e-23
3.7030692e-22
9.8774268e-22
1.5037362e-21
1.7445476e-21
1.7981529e-21
1.7791041e-21
1.7560379e-21
1.7560299e-21
1.7790844e-21
1.7981235e-21
1.7445219e-21
1.503722e-21
9.877375e-22
3.703086e-22
4.3145904e-23
3.0532621e-25
3.3559723e-31
1.0512753e-31
5.0566332e-26
9.7507508e-24
9.6584962e-23
2.7617151e-22
4.3488426e-22
5.1286459e-22
5.328436e-22
5.2920349e-22
5.2317558e-22
5.2317305e-22
5.2919721e-22
5.3283425e-22
5.1285629e-22
4.3487952e-22
2.7616974e-22
9.6585344e-23
9.7508829e-24
5.0567239e-26
1.0551374e-31
2.1713903e-32
8.1893025e-27
2.1565886e-24
2.4652599e-23
7.5546525e-23
1.2303153e-22
1.4748965e-22
1.5446365e-22
1.5399993e-22
1.5249383e-22
1.5249305e-22
1.5399796e-22
1.5446074e-22
1.4748703e-22
1.2302999e-22
7.5545938e-23
2.4652675e-23
2.1566185e-24
8.189388e-27
2.1773574e-32
3.4901044e-33
1.2982353e-27
4.6725643e-25
6.1627661e-24
2.0233471e-23
3.4072749e-23
4.1520159e-23
4.3832916e-23
4.3871686e-23
4.3514578e-23
4.3514345e-23
4.3871088e-23
4.3832036e-23
4.1519352e-23
3.4072259e-23
2.023328e-23
6.1627772e-24
4.6726272e-25
1.2982269e-27
3.4905412e-33
4.624466e-34
2.0164543e-28
9.9268099e-26
1.5100107e-24
5.3093986e-24
9.24344e-24
1.1449215e-23
1.2184218e-23
1.2242937e-23
1.2163644e-23
1.2163576e-23
1.2242759e-23
1.2183957e-23
1.144897e-23
9.243287e-24
5.3093385e-24
1.5100108e-24
9.926928e-26
2.0163825e-28
4.6124258e-34
4.8466262e-35
3.0710391e-29
2.0697189e-26
3.6289764e-25
1.3658958e-24
2.4578991e-24
3.0943749e-24
3.3195177e-24
3.3487077e-24
3.332647e-24
3.3326273e-24
3.3486554e-24
3.3194419e-24
3.0943024e-24
2.4578524e-24
1.3658773e-24
3.6289691e-25
2.0697391e-26
3.0707905e-29
4.8225046e-35
2.9564635e-36
4.5898441e-30
4.2386063e-27
8.5599864e-26
3.4470319e-25
6.4098486e-25
8.2014998e-25
8.8689148e-25
8.9824207e-25
8.9545391e-25
8.9544836e-25
8.9822708e-25
8.868699e-25
8.2012898e-25
6.4097091e-25
3.4469766e-25
8.559947e-26
4.2386454e-27
4.5894078e-30
2.9385731e-36
1.7414698e-37
6.7451052e-31
8.5327094e-28
1.9829368e-26
8.5382236e-26
1.6402724e-25
2.1328552e-25
2.3249013e-25
2.3640166e-25
2.3606928e-25
2.3606775e-25
2.3639746e-25
2.324841e-25
2.1327956e-25
1.6402317e-25
8.5380614e-26
1.9829216e-26
8.532777e-28
6.744436e-31
1.7080895e-37
1.0293306e-38
9.7576066e-32
1.6897045e-28
4.5136933e-27
2.0768495e-26
4.1208117e-26
5.4448391e-26
5.9824728e-26
6.1072883e-26
6.1090745e-26
6.109033e-26
6.1071725e-26
5.9823077e-26
5.4446735e-26
4.1206951e-26
2.0768032e-26
4.5136423e-27
1.6897138e-28
9.7566727e-32
9.9710484e-39
6.1129055e-40
1.3910183e-32
3.2936285e-29
1.0100954e-27
4.9632014e-27
1.0168253e-26
1.3650755e-26
1.5117757e-26
1.5494283e-26
1.5525059e-26
1.5524948e-26
1.5493972e-26
1.5117312e-26
1.3650302e-26
1.0167927e-26
4.9630718e-27
1.0100797e-27
3.2936352e-29
1.3908953e-32
5.8656875e-40
)
;

boundaryField
{
    Wall
    {
        type            zeroGradient;
    }
    frontAndBack
    {
        type            empty;
    }
    atmosphere
    {
        type            zeroGradient;
    }
}


// ************************************************************************* //
