/*--------------------------------*- C++ -*----------------------------------*\
| =========                 |                                                 |
| \\      /  F ield         | OpenFOAM: The Open Source CFD Toolbox           |
|  \\    /   O peration     | Version:  3.0.1                                 |
|   \\  /    A nd           | Web:      www.OpenFOAM.org                      |
|    \\/     M anipulation  |                                                 |
\*---------------------------------------------------------------------------*/
FoamFile
{
    version     2.0;
    format      ascii;
    class       volScalarField;
    location    "20";
    object      mZero;
}
// * * * * * * * * * * * * * * * * * * * * * * * * * * * * * * * * * * * * * //

dimensions      [0 0 0 0 0 0 0];

internalField   nonuniform List<scalar> 
800
(
1e+13
1e+13
1e+13
1e+13
1e+13
1e+13
1e+13
1e+13
1e+13
1e+13
1e+13
1e+13
1e+13
1e+13
1e+13
1e+13
1e+13
1e+13
1e+13
1e+13
1e+13
1e+13
1e+13
1e+13
1e+13
1e+13
1e+13
1e+13
1e+13
1e+13
1e+13
1e+13
1e+13
1e+13
1e+13
1e+13
1e+13
1e+13
1e+13
1e+13
9.6982405e+12
9.7024979e+12
9.7034534e+12
9.7035547e+12
9.7035029e+12
9.7034686e+12
9.7034616e+12
9.7034693e+12
9.70348e+12
9.7034871e+12
9.7034871e+12
9.70348e+12
9.7034693e+12
9.7034615e+12
9.7034685e+12
9.7035028e+12
9.7035547e+12
9.7034533e+12
9.7024979e+12
9.6982404e+12
9.1857027e+12
9.1968793e+12
9.1988201e+12
9.1988018e+12
9.198657e+12
9.1985653e+12
9.1985453e+12
9.1985594e+12
9.1985802e+12
9.1985942e+12
9.1985942e+12
9.1985801e+12
9.1985593e+12
9.1985453e+12
9.1985652e+12
9.198657e+12
9.1988018e+12
9.19882e+12
9.1968792e+12
9.1857024e+12
8.5331139e+12
8.5534336e+12
8.5563594e+12
8.5562412e+12
8.5560223e+12
8.5558957e+12
8.5558727e+12
8.5558944e+12
8.555923e+12
8.5559416e+12
8.5559416e+12
8.555923e+12
8.5558944e+12
8.5558727e+12
8.5558958e+12
8.5560223e+12
8.5562413e+12
8.5563594e+12
8.5534335e+12
8.5331137e+12
7.7867262e+12
7.8193588e+12
7.8239286e+12
7.8240957e+12
7.8239387e+12
7.8238608e+12
7.8238666e+12
7.8238965e+12
7.8239294e+12
7.823949e+12
7.823949e+12
7.8239294e+12
7.8238965e+12
7.8238666e+12
7.8238609e+12
7.8239389e+12
7.8240959e+12
7.8239287e+12
7.8193589e+12
7.7867262e+12
6.9691248e+12
7.018945e+12
7.027318e+12
7.0286605e+12
7.0288813e+12
7.0289595e+12
7.029027e+12
7.0290622e+12
7.0290896e+12
7.0290999e+12
7.0290999e+12
7.0290896e+12
7.0290623e+12
7.0290272e+12
7.0289598e+12
7.0288816e+12
7.0286609e+12
7.0273184e+12
7.0189453e+12
6.9691251e+12
6.0822414e+12
6.1565078e+12
6.1730521e+12
6.1770639e+12
6.1780932e+12
6.1783942e+12
6.1784837e+12
6.1784874e+12
6.1784733e+12
6.1784483e+12
6.1784484e+12
6.1784733e+12
6.1784875e+12
6.1784839e+12
6.1783945e+12
6.1780936e+12
6.1770645e+12
6.1730526e+12
6.1565084e+12
6.082242e+12
5.1306915e+12
5.2376951e+12
5.2698596e+12
5.2790411e+12
5.2813505e+12
5.281719e+12
5.281572e+12
5.2813809e+12
5.2812116e+12
5.2810894e+12
5.2810894e+12
5.2812116e+12
5.2813808e+12
5.2815722e+12
5.2817193e+12
5.281351e+12
5.2790419e+12
5.2698602e+12
5.2376959e+12
5.1306926e+12
4.110287e+12
4.2680151e+12
4.3296556e+12
4.349117e+12
4.353456e+12
4.353342e+12
4.3522685e+12
4.3514079e+12
4.3507875e+12
4.3504211e+12
4.350421e+12
4.3507874e+12
4.3514076e+12
4.3522686e+12
4.3533424e+12
4.3534566e+12
4.349118e+12
4.3296564e+12
4.2680163e+12
4.1102886e+12
2.9602082e+12
3.2022891e+12
3.3190882e+12
3.3591631e+12
3.367526e+12
3.3659327e+12
3.3624731e+12
3.3598247e+12
3.3580705e+12
3.3571273e+12
3.3571271e+12
3.3580702e+12
3.3598242e+12
3.362473e+12
3.365933e+12
3.3675266e+12
3.3591641e+12
3.3190891e+12
3.2022906e+12
2.9602103e+12
1.7952072e+12
2.1548923e+12
2.3391344e+12
2.4108744e+12
2.4270751e+12
2.4231848e+12
2.4152101e+12
2.4088742e+12
2.4047778e+12
2.4026716e+12
2.4026712e+12
2.4047773e+12
2.4088733e+12
2.4152097e+12
2.4231849e+12
2.4270755e+12
2.4108751e+12
2.3391351e+12
2.1548937e+12
1.7952093e+12
8.2516089e+11
1.3069222e+12
1.5406066e+12
1.6383053e+12
1.6628435e+12
1.6567984e+12
1.643211e+12
1.6316814e+12
1.6240808e+12
1.6202232e+12
1.6202227e+12
1.62408e+12
1.6316801e+12
1.6432102e+12
1.6567981e+12
1.6628435e+12
1.6383056e+12
1.540607e+12
1.3069231e+12
8.2516222e+11
2.7217641e+11
7.1196922e+11
9.5148446e+11
1.0607654e+12
1.0925798e+12
1.087788e+12
1.0718458e+12
1.05706e+12
1.0468919e+12
1.0416808e+12
1.0416802e+12
1.0468909e+12
1.0570584e+12
1.0718447e+12
1.0877874e+12
1.0925795e+12
1.0607654e+12
9.5148443e+11
7.1196957e+11
2.7217688e+11
6.6031165e+10
3.478617e+11
5.4917256e+11
6.5267237e+11
6.8793211e+11
6.8705958e+11
6.7315553e+11
6.5883467e+11
6.4850849e+11
6.431209e+11
6.4312039e+11
6.4850749e+11
6.5883314e+11
6.7315438e+11
6.8705883e+11
6.8793158e+11
6.5267215e+11
5.4917233e+11
3.4786171e+11
6.6031265e+10
1.253087e+10
1.5232338e+11
2.9568885e+11
3.8064438e+11
4.1409754e+11
4.1695843e+11
4.0726114e+11
3.9593377e+11
3.8736154e+11
3.8280307e+11
3.8280263e+11
3.8736065e+11
3.9593242e+11
4.0726006e+11
4.1695767e+11
4.1409694e+11
3.8064408e+11
2.9568857e+11
1.523233e+11
1.2530885e+10
1.9859911e+09
6.0060594e+10
1.4861067e+11
2.1025073e+11
2.3794349e+11
2.4277844e+11
2.3718984e+11
2.2949917e+11
2.2337829e+11
2.200617e+11
2.2006136e+11
2.2337757e+11
2.294981e+11
2.3718894e+11
2.4277777e+11
2.3794294e+11
2.1025045e+11
1.4861045e+11
6.0060525e+10
1.985994e+09
2.7695792e+08
2.1553589e+10
6.9919639e+10
1.1008041e+11
1.304809e+11
1.3552141e+11
1.3288087e+11
1.2826508e+11
1.2438221e+11
1.2223808e+11
1.2223784e+11
1.2438169e+11
1.282643e+11
1.3288019e+11
1.3552088e+11
1.3048046e+11
1.1008019e+11
6.9919497e+10
2.1553551e+10
2.7695853e+08
35218390
7.1330244e+09
3.0934821e+10
5.4741759e+10
6.8335896e+10
7.2524127e+10
7.1584725e+10
6.9094559e+10
6.686047e+10
6.5601876e+10
6.5601721e+10
6.6860121e+10
6.9094035e+10
7.1584253e+10
7.2523749e+10
6.8335583e+10
5.4741611e+10
3.093474e+10
7.1330078e+09
35218505
4177263.1
2.2042903e+09
1.2938805e+10
2.5926253e+10
3.4228956e+10
3.7230244e+10
3.7086426e+10
3.5869086e+10
3.4687339e+10
3.4006677e+10
3.4006583e+10
3.468712e+10
3.5868758e+10
3.7086122e+10
3.7229996e+10
3.4228754e+10
2.5926161e+10
1.2938765e+10
2.2042838e+09
4177282
468754.33
6.4274568e+08
5.1431976e+09
1.172877e+10
1.6426586e+10
1.835215e+10
1.8486566e+10
1.7947032e+10
1.736722e+10
1.7024627e+10
1.7024573e+10
1.7367091e+10
1.7946841e+10
1.8486383e+10
1.8352e+10
1.6426465e+10
1.1728716e+10
5.1431793e+09
6.4274329e+08
468757.02
50217.474
1.7831203e+08
1.9523206e+09
5.0828843e+09
7.5671029e+09
8.6975249e+09
8.8730436e+09
8.6582137e+09
8.3928423e+09
8.2312095e+09
8.2311809e+09
8.3927706e+09
8.6581081e+09
8.8729401e+09
8.69744e+09
7.5670362e+09
5.0828553e+09
1.9523127e+09
1.7831125e+08
50217.811
5166.8926
47369422
7.1062944e+08
2.11577e+09
3.3523618e+09
3.9683189e+09
4.1045709e+09
4.0298033e+09
3.9161533e+09
3.8443107e+09
3.844296e+09
3.9161156e+09
4.0297481e+09
4.1045154e+09
3.9682737e+09
3.3523273e+09
2.1157552e+09
7.1062626e+08
47369182
5166.9327
512.77164
12111202
2.4888949e+08
8.4791777e+08
1.4307889e+09
1.7454618e+09
1.8318319e+09
1.8108347e+09
1.7652623e+09
1.7350735e+09
1.7350664e+09
1.7652435e+09
1.8108073e+09
1.8318039e+09
1.7454388e+09
1.430772e+09
8.4791074e+08
2.4888826e+08
12111132
512.77625
49.247063
2992173.7
84114300
3.278382e+08
5.8925847e+08
7.4110601e+08
7.8955978e+08
7.8627062e+08
7.6920087e+08
7.5718252e+08
7.5717921e+08
7.6919187e+08
7.8625761e+08
7.8954624e+08
7.4109491e+08
5.8925065e+08
3.2783503e+08
84113839
2992154.4
49.247567
4.5902478
716619.62
27493796
1.2250564e+08
2.3451868e+08
3.0413033e+08
3.2901999e+08
3.3017394e+08
3.2424214e+08
3.1970553e+08
3.1970404e+08
3.2423801e+08
3.3016802e+08
3.2901375e+08
3.0412519e+08
2.3451522e+08
1.2250428e+08
27493631
716614.53
4.5903002
0.41634701
166806.5
8707984.1
44310456
90315581
1.2076922e+08
1.3269085e+08
1.342075e+08
1.323236e+08
1.3070098e+08
1.3070033e+08
1.3232178e+08
1.3420491e+08
1.3268808e+08
1.2076693e+08
90314115
44309900
8707926.7
166805.22
0.41635215
0.036847639
37814.474
2676618.4
15533985
33695890
46455975
51840154
52851457
52322852
51774364
51774092
52322079
52850363
51838973
46454989
33695290
15533766
2676598.9
37814.156
0.036848115
0.0031909693
8362.4988
799450.18
5284274.4
12192321
17328192
19638255
20181705
20062307
19888066
19887956
20061989
20181259
19637769
17327783
12192083
5284191.4
799443.66
8362.4219
0.0031910107
0.00050887699
1806.3438
232268.58
1746038.3
4282681
6273330.5
7219964.3
7478981.9
7465357.1
7413902.4
7413858.7
7465231.3
7478804.9
7219770.6
6273166.8
4282589
1746007.7
232266.41
1806.3253
0.00050768089
0.00039648433
381.47863
65700.711
560894.1
1461688.8
2206257.5
2578264.7
2691913.1
2697977
2684159.8
2684143
2697928.6
2691845.1
2578189.8
2206193.9
1461654.3
560883.14
65700.003
381.47421
0.00039423924
0.00018492661
78.827523
18107.645
175316.2
485137.98
754368.96
895008.65
941782.92
947703.81
944498.36
944492.09
947685.78
941757.57
894980.55
754345.01
485125.36
175312.38
18107.418
78.826505
0.00018551211
4.9829479e-05
15.951877
4865.8234
53358.428
156705.52
250967.4
302249.16
320506.25
323797.09
323252.39
323250.13
323790.57
320497.06
302238.94
250958.67
156701.03
53357.135
4865.7523
15.951445
4.9874667e-05
1.0136318e-05
3.1619029
1275.6065
15824.353
49298.035
81297.215
99370.536
106177.12
107683.38
107680.71
107679.91
107681.09
106173.88
99366.924
81294.124
49296.474
15823.926
1275.5844
3.1617342
1.0112332e-05
1.6764073e-06
0.61384935
326.42191
4575.8815
15114.788
25660.36
31827.928
34263.822
34881.874
34937.263
34936.991
34881.089
34262.711
31826.685
25659.298
15114.26
4575.7442
326.41499
0.61379179
1.6667272e-06
2.155353e-07
0.11668545
81.575506
1290.9765
4519.4776
7897.1286
9938.2324
10778.104
11013.286
11048.04
11047.949
11013.024
10777.732
9937.8161
7896.7736
4519.3034
1290.9334
81.573434
0.11666787
2.1352159e-07
1.5810766e-08
0.021714531
19.919075
355.55992
1318.7496
2371.2321
3027.2003
3306.9835
3391.4199
3407.2886
3407.2591
3391.3349
3306.8626
3027.0647
2371.1166
1318.6936
355.5467
19.91852
0.021711082
1.5607981e-08
1.1230388e-09
0.0039606405
4.7546085
95.65416
375.74021
695.09753
900.06874
990.32347
1019.2171
1025.4948
1025.4855
1019.1902
990.28509
900.02576
695.06094
375.72258
95.650205
4.7544603
0.0039600385
1.0909055e-09
7.9764702e-11
0.0007080914
1.1099195
25.149489
104.59667
199.0413
261.38151
289.62825
299.11399
301.3867
301.38383
299.10569
289.61637
261.36821
199.02999
104.59127
25.148331
1.10988
0.00070799355
7.6415109e-11
5.6080124e-12
0.00012409764
0.253508
6.465757
28.46414
55.707871
74.180901
82.771066
85.772457
86.544186
86.543319
85.769962
82.767472
74.176878
55.704462
28.462524
6.4654258
0.25349769
0.0001240823
5.3154832e-12
)
;

boundaryField
{
    Wall
    {
        type            zeroGradient;
    }
    frontAndBack
    {
        type            empty;
    }
    atmosphere
    {
        type            zeroGradient;
    }
}


// ************************************************************************* //
