/*--------------------------------*- C++ -*----------------------------------*\
| =========                 |                                                 |
| \\      /  F ield         | OpenFOAM: The Open Source CFD Toolbox           |
|  \\    /   O peration     | Version:  3.0.1                                 |
|   \\  /    A nd           | Web:      www.OpenFOAM.org                      |
|    \\/     M anipulation  |                                                 |
\*---------------------------------------------------------------------------*/
FoamFile
{
    version     2.0;
    format      ascii;
    class       volScalarField;
    location    "20";
    object      node1;
}
// * * * * * * * * * * * * * * * * * * * * * * * * * * * * * * * * * * * * * //

dimensions      [0 0 0 0 0 0 0];

internalField   nonuniform List<scalar> 
800
(
6.9306699e-13
6.9309302e-13
6.9309307e-13
6.930914e-13
6.9309003e-13
6.9308897e-13
6.930882e-13
6.9308766e-13
6.9308731e-13
6.9308713e-13
6.9308713e-13
6.9308731e-13
6.9308766e-13
6.930882e-13
6.9308897e-13
6.9309004e-13
6.930914e-13
6.9309307e-13
6.9309302e-13
6.93067e-13
6.5757877e-13
6.5874097e-13
6.5888526e-13
6.5889704e-13
6.5889521e-13
6.5889945e-13
6.5890746e-13
6.5891566e-13
6.5892186e-13
6.5892512e-13
6.5892512e-13
6.5892186e-13
6.5891566e-13
6.5890746e-13
6.5889946e-13
6.5889522e-13
6.5889705e-13
6.5888528e-13
6.5874098e-13
6.5757877e-13
6.4380147e-13
6.4509222e-13
6.4556479e-13
6.4559842e-13
6.4560771e-13
6.4562152e-13
6.4563821e-13
6.4565336e-13
6.4566431e-13
6.4566999e-13
6.4566999e-13
6.4566431e-13
6.4565336e-13
6.4563822e-13
6.4562153e-13
6.4560772e-13
6.4559844e-13
6.4556481e-13
6.4509224e-13
6.4380147e-13
6.4162306e-13
6.4313798e-13
6.4383365e-13
6.4387513e-13
6.4389092e-13
6.439112e-13
6.4393419e-13
6.4395454e-13
6.4396907e-13
6.4397657e-13
6.4397657e-13
6.4396907e-13
6.4395454e-13
6.439342e-13
6.4391121e-13
6.4389093e-13
6.4387515e-13
6.4383367e-13
6.43138e-13
6.4162306e-13
6.3963786e-13
6.4161592e-13
6.4245962e-13
6.4302931e-13
6.4304844e-13
6.4307352e-13
6.431025e-13
6.4312823e-13
6.4314664e-13
6.4315617e-13
6.4315618e-13
6.4314664e-13
6.4312823e-13
6.431025e-13
6.4307353e-13
6.4304844e-13
6.4302932e-13
6.4245964e-13
6.4161593e-13
6.3963785e-13
6.245875e-13
6.2829825e-13
6.2924665e-13
6.3008725e-13
6.3011428e-13
6.3015012e-13
6.3018994e-13
6.3022465e-13
6.3024932e-13
6.3026203e-13
6.3026203e-13
6.3024932e-13
6.3022465e-13
6.3018994e-13
6.3015012e-13
6.3011428e-13
6.3008725e-13
6.2924666e-13
6.2829825e-13
6.2458747e-13
5.8689877e-13
5.9261094e-13
5.9352216e-13
5.943917e-13
5.9445308e-13
5.9452057e-13
5.9458431e-13
5.9463594e-13
5.9467119e-13
5.9468906e-13
5.9468905e-13
5.9467118e-13
5.9463592e-13
5.945843e-13
5.9452055e-13
5.9445306e-13
5.9439169e-13
5.9352215e-13
5.9261091e-13
5.8689872e-13
5.3959603e-13
5.4494517e-13
5.459854e-13
5.4677055e-13
5.4689459e-13
5.4701396e-13
5.4711258e-13
5.4718638e-13
5.4723447e-13
5.4725852e-13
5.4725851e-13
5.4723446e-13
5.4718635e-13
5.4711255e-13
5.4701392e-13
5.4689455e-13
5.4677051e-13
5.4598537e-13
5.4494513e-13
5.3959595e-13
4.8531241e-13
4.9111823e-13
4.9277182e-13
4.9344132e-13
4.9363425e-13
4.9380823e-13
4.9394198e-13
4.9403707e-13
4.9409695e-13
4.9412671e-13
4.9412671e-13
4.9409693e-13
4.9403703e-13
4.9394194e-13
4.9380819e-13
4.936342e-13
4.9344126e-13
4.9277177e-13
4.9111817e-13
4.8531232e-13
4.070437e-13
4.1549077e-13
4.1879792e-13
4.1931043e-13
4.1954865e-13
4.1976421e-13
4.1992457e-13
4.2003484e-13
4.2010252e-13
4.2013618e-13
4.2013618e-13
4.201025e-13
4.200348e-13
4.1992452e-13
4.1976416e-13
4.1954859e-13
4.1931036e-13
4.1879786e-13
4.154907e-13
4.070436e-13
0
0
0
0
0
0
0
0
0
0
0
0
0
0
0
0
0
0
0
0
0
0
0
0
0
0
0
0
0
0
0
0
0
0
0
0
0
0
0
0
0
0
0
0
0
0
0
0
0
0
0
0
0
0
0
0
0
0
0
0
0
0
0
0
0
0
0
0
0
0
0
0
0
0
0
0
0
0
0
0
0
0
0
0
0
0
0
0
0
0
0
0
0
0
0
0
0
0
0
0
0
0
0
0
0
0
0
0
0
0
0
0
0
0
0
0
0
0
0
0
0
0
0
0
0
0
0
0
0
0
0
0
0
0
0
0
0
0
0
0
0
0
0
0
0
0
0
0
0
0
0
0
0
0
0
0
0
0
0
0
0
0
0
0
0
0
0
0
0
0
0
0
0
0
0
0
0
0
0
0
0
0
0
0
0
0
0
0
0
0
0
0
0
0
0
0
0
0
0
0
0
0
0
0
0
0
0
0
0
0
0
0
0
0
0
0
0
0
0
0
0
0
0
0
0
0
0
0
0
0
0
0
0
0
0
0
0
0
0
0
0
0
0
0
0
0
0
0
0
0
0
0
0
0
0
0
0
0
0
0
0
0
0
0
0
0
0
0
0
0
0
0
0
0
0
0
0
0
0
0
0
0
0
0
0
0
0
0
0
0
0
0
0
0
0
0
0
0
0
0
0
0
0
0
0
0
0
0
0
0
0
0
0
0
0
0
0
0
0
0
0
0
0
0
0
0
0
0
0
0
0
0
0
0
0
0
0
0
0
0
0
0
0
0
0
0
0
0
0
0
0
0
0
0
0
0
0
0
0
0
0
0
0
0
0
0
0
0
0
0
0
0
0
0
0
0
0
0
0
0
0
0
0
0
0
0
0
0
0
0
0
0
0
0
0
0
0
0
0
0
0
0
0
0
0
0
0
0
0
0
0
0
0
0
0
0
0
0
0
0
0
0
0
0
0
0
0
0
0
0
0
0
0
0
0
0
0
0
0
0
0
0
0
0
0
0
0
0
0
0
0
0
0
0
0
0
0
0
0
0
0
0
0
0
0
0
0
0
0
0
0
0
0
0
0
0
0
0
0
0
0
0
0
0
0
0
0
0
0
0
0
0
0
0
0
0
0
0
0
0
0
0
0
0
0
0
0
0
0
0
0
0
0
0
0
0
0
0
0
0
0
0
0
0
0
0
0
0
0
0
0
0
0
0
0
0
0
0
0
0
0
0
0
0
0
0
0
0
0
0
0
0
0
0
0
0
0
0
0
0
0
0
0
0
0
0
0
0
0
0
0
0
0
0
0
0
0
0
0
0
0
0
0
0
0
0
0
0
0
0
0
0
0
0
0
0
0
0
0
0
)
;

boundaryField
{
    Wall
    {
        type            zeroGradient;
    }
    frontAndBack
    {
        type            empty;
    }
    atmosphere
    {
        type            zeroGradient;
    }
}


// ************************************************************************* //
