/*--------------------------------*- C++ -*----------------------------------*\
| =========                 |                                                 |
| \\      /  F ield         | OpenFOAM: The Open Source CFD Toolbox           |
|  \\    /   O peration     | Version:  3.0.1                                 |
|   \\  /    A nd           | Web:      www.OpenFOAM.org                      |
|    \\/     M anipulation  |                                                 |
\*---------------------------------------------------------------------------*/
FoamFile
{
    version     2.0;
    format      ascii;
    class       surfaceScalarField;
    location    "20";
    object      phi;
}
// * * * * * * * * * * * * * * * * * * * * * * * * * * * * * * * * * * * * * //

dimensions      [0 3 -1 0 0 0 0];

internalField   nonuniform List<scalar> 
1540
(
2.8756674e-10
2.0276103e-08
3.0968611e-10
2.0553306e-08
2.6316042e-10
2.0622881e-08
2.0951335e-10
2.0630152e-08
1.6302298e-10
2.0623214e-08
1.245126e-10
2.0615532e-08
9.1052826e-11
2.061075e-08
6.0010274e-11
2.060853e-08
2.9885536e-11
2.0607734e-08
2.0968727e-14
2.060753e-08
-2.9848374e-11
2.0607528e-08
-5.9986632e-11
2.0607731e-08
-9.1047904e-11
2.0608524e-08
-1.2452649e-10
2.0610742e-08
-1.6305088e-10
2.0615524e-08
-2.0954701e-10
2.0623207e-08
-2.6319021e-10
2.0630149e-08
-3.0969887e-10
2.0622883e-08
-2.8755383e-10
2.0553315e-08
2.0276117e-08
1.4526729e-10
4.0894067e-08
2.2006585e-10
4.1237614e-08
2.1347153e-10
4.1398307e-08
1.837522e-10
4.1428223e-08
1.49586e-10
4.1424869e-08
1.1719446e-10
4.141478e-08
8.6821659e-11
4.1407616e-08
5.7573584e-11
4.1404092e-08
2.8756329e-11
4.1402787e-08
1.5187355e-14
4.1402477e-08
-2.8729708e-11
4.1402475e-08
-5.7557864e-11
4.1402782e-08
-8.6820663e-11
4.1404083e-08
-1.1720822e-10
4.1407606e-08
-1.4961021e-10
4.1414772e-08
-1.8377993e-10
4.1424864e-08
-2.1349422e-10
4.1428225e-08
-2.2007434e-10
4.1398316e-08
-1.4525414e-10
4.1237631e-08
4.0894089e-08
2.2509978e-10
6.2183972e-08
2.2712854e-10
6.2747716e-08
1.921812e-10
6.2935395e-08
1.6063522e-10
6.2959975e-08
1.3166356e-10
6.295238e-08
1.0535449e-10
6.2938262e-08
7.9694488e-11
6.2929558e-08
5.3689025e-11
6.2925853e-08
2.7064603e-11
6.2924882e-08
1.0500508e-14
6.2924876e-08
-2.7047181e-11
6.2924874e-08
-5.3679793e-11
6.2924875e-08
-7.9696671e-11
6.2925843e-08
-1.0536721e-10
6.2929548e-08
-1.3168313e-10
6.2938255e-08
-1.606558e-10
6.2952379e-08
-1.9219548e-10
6.2959982e-08
-2.2712966e-10
6.293541e-08
-2.2507948e-10
6.2747737e-08
6.2183999e-08
2.0092497e-10
8.5119687e-08
1.9403226e-10
8.5850791e-08
1.510725e-10
8.6049917e-08
1.2897998e-10
8.6082589e-08
1.1052613e-10
8.6069133e-08
9.2943384e-11
8.6052264e-08
7.3288596e-11
8.6044291e-08
5.084458e-11
8.6042499e-08
2.6074235e-11
8.604334e-08
6.7385776e-15
8.6044391e-08
-2.6063215e-11
8.6044389e-08
-5.0839505e-11
8.6043332e-08
-7.3291156e-11
8.6042488e-08
-9.2952799e-11
8.6044281e-08
-1.1053949e-10
8.6052258e-08
-1.2899155e-10
8.6069133e-08
-1.510778e-10
8.6082597e-08
-1.9402636e-10
8.6049931e-08
-2.0090089e-10
8.5850809e-08
8.5119709e-08
1.1475023e-10
1.1064662e-07
1.2512851e-10
1.114568e-07
1.0589681e-10
1.1165308e-07
9.5263303e-11
1.1165728e-07
9.1520657e-11
1.1163463e-07
8.4635931e-11
1.1161875e-07
7.1154817e-11
1.1161557e-07
5.1407267e-11
1.1161872e-07
2.6936554e-11
1.1162347e-07
3.1974864e-15
1.1162659e-07
-2.6931663e-11
1.1162659e-07
-5.1405616e-11
1.1162346e-07
-7.1157424e-11
1.1161871e-07
-8.4639344e-11
1.1161556e-07
-9.1526952e-11
1.1161874e-07
-9.5266647e-11
1.1163463e-07
-1.0589346e-10
1.1165728e-07
-1.2511695e-10
1.1165309e-07
-1.1472343e-10
1.114568e-07
1.1064662e-07
-3.4109954e-11
1.3931503e-07
8.2288677e-12
1.4002205e-07
3.4552783e-11
1.4019241e-07
5.977118e-11
1.4017418e-07
7.9841594e-11
1.4015447e-07
8.6010139e-11
1.4014958e-07
7.8012443e-11
1.4015807e-07
5.8348481e-11
1.4017097e-07
3.1057752e-11
1.4018211e-07
-3.0507672e-16
1.4018839e-07
-3.1058725e-11
1.4018839e-07
-5.8350505e-11
1.401821e-07
-7.8015834e-11
1.4017095e-07
-8.6016666e-11
1.4015805e-07
-7.9842441e-11
1.4014956e-07
-5.976876e-11
1.4015445e-07
-3.4546439e-11
1.4017416e-07
-8.2144538e-12
1.401924e-07
3.4136266e-11
1.4002203e-07
1.3931501e-07
-2.8712603e-10
1.6998493e-07
-1.6736821e-10
1.708253e-07
-5.0709889e-11
1.7098603e-07
3.6483854e-11
1.709934e-07
8.9202052e-11
1.7100312e-07
1.076463e-10
1.7102714e-07
1.0008664e-10
1.7105753e-07
7.5168879e-11
1.7108513e-07
3.9998102e-11
1.7110493e-07
-3.9057421e-15
1.7111527e-07
-4.0005682e-11
1.7111527e-07
-7.5175701e-11
1.7110492e-07
-1.0009168e-10
1.7108511e-07
-1.0764807e-10
1.710575e-07
-8.9202524e-11
1.7102711e-07
-3.6481814e-11
1.7100309e-07
5.0716897e-11
1.7099336e-07
1.6738039e-10
1.7098599e-07
2.8714718e-10
1.7082526e-07
1.6998487e-07
-5.4666681e-10
1.9551329e-07
-3.1038593e-10
1.9624252e-07
-8.7316612e-11
1.9648155e-07
6.1841676e-11
1.9659501e-07
1.4104128e-10
1.9666809e-07
1.6057315e-10
1.9674545e-07
1.4324998e-10
1.9680861e-07
1.0462391e-10
1.9685562e-07
5.482671e-11
1.9688564e-07
-7.799065e-15
1.9690065e-07
-5.484174e-11
1.9690065e-07
-1.0463759e-10
1.9688563e-07
-1.432615e-10
1.968556e-07
-1.605817e-10
1.9680858e-07
-1.410472e-10
1.9674541e-07
-6.1844475e-11
1.9666804e-07
8.731653e-11
1.9659495e-07
3.1039147e-10
1.9648148e-07
5.4667901e-10
1.9624245e-07
1.955132e-07
-6.6270098e-10
2.2207767e-07
-2.9965102e-10
2.2164836e-07
1.6391794e-12
2.2186574e-07
1.8680702e-10
2.2209669e-07
2.5845582e-10
2.2225252e-07
2.5387076e-10
2.2238848e-07
2.1050385e-10
2.2248316e-07
1.4737562e-10
2.2254813e-07
7.5595373e-11
2.2258683e-07
-1.1915066e-14
2.2260603e-07
-7.5618729e-11
2.2260603e-07
-1.4739834e-10
2.2258681e-07
-2.1052552e-10
2.225481e-07
-2.5388999e-10
2.2248312e-07
-2.5847184e-10
2.2238842e-07
-1.8681959e-10
2.2225245e-07
-1.6442444e-12
2.220966e-07
2.9964811e-10
2.2186565e-07
6.6270177e-10
2.2164826e-07
2.2207754e-07
-3.7294162e-10
2.3780386e-07
-5.80613e-11
2.4020146e-07
2.8192435e-10
2.4111872e-07
4.5193553e-10
2.4182505e-07
4.5239879e-10
2.4221472e-07
3.8787108e-10
2.4241968e-07
2.9968109e-10
2.4252561e-07
2.0138323e-10
2.4258416e-07
1.00936e-10
2.4261269e-07
-1.5257423e-14
2.4262501e-07
-1.0096608e-10
2.42625e-07
-2.0141412e-10
2.4261268e-07
-2.9971265e-10
2.4258414e-07
-3.8790112e-10
2.4252558e-07
-4.5242487e-10
2.4241965e-07
-4.5195571e-10
2.4221468e-07
-2.8193545e-10
2.41825e-07
5.8055084e-11
2.4111867e-07
3.7293819e-10
2.4020141e-07
2.3780379e-07
5.0701125e-09
2.272351e-07
3.5204088e-09
2.3628511e-07
2.377988e-09
2.3691667e-07
1.6788086e-09
2.3718835e-07
1.2170754e-09
2.3733244e-07
8.801206e-10
2.3740094e-07
6.1341829e-10
2.3742723e-07
3.8831952e-10
2.3743756e-07
1.8738949e-10
2.3743792e-07
-1.7072078e-14
2.374347e-07
-1.8742282e-10
2.374347e-07
-3.8835231e-10
2.3743791e-07
-6.1345108e-10
2.3743755e-07
-8.8014992e-10
2.374272e-07
-1.2171003e-09
2.374009e-07
-1.6788257e-09
2.3733239e-07
-2.3779942e-09
2.3718828e-07
-3.5204026e-09
2.369166e-07
-5.0700909e-09
2.3628504e-07
2.2723502e-07
3.1350098e-08
1.950557e-07
2.7060315e-08
2.3946272e-07
1.9536056e-08
2.4327181e-07
1.3629567e-08
2.4191138e-07
9.461487e-09
2.4030806e-07
6.5174274e-09
2.391476e-07
4.3552476e-09
2.3838963e-07
2.674288e-09
2.3791797e-07
1.2705158e-09
2.3764098e-07
-3.2397398e-14
2.3750464e-07
-1.2705817e-09
2.3750462e-07
-2.6743396e-09
2.3764099e-07
-4.355297e-09
2.3791797e-07
-6.5174653e-09
2.3838962e-07
-9.461502e-09
2.3914754e-07
-1.3629553e-08
2.4030798e-07
-1.9536006e-08
2.4191129e-07
-2.7060225e-08
2.432717e-07
-3.1350016e-08
2.3946261e-07
1.9505565e-07
4.0951102e-08
1.5409219e-07
5.0177259e-08
2.3021186e-07
4.5052409e-08
2.4836853e-07
3.6206234e-08
2.5072905e-07
2.7513215e-08
2.4897254e-07
2.0046481e-08
2.4658587e-07
1.3859858e-08
2.4454791e-07
8.6846893e-09
2.4306487e-07
4.1782036e-09
2.4211925e-07
-5.7734131e-14
2.4165467e-07
-4.1782936e-09
2.4165467e-07
-8.684779e-09
2.4211922e-07
-1.3859949e-08
2.4306485e-07
-2.0046596e-08
2.4454787e-07
-2.7513295e-08
2.4658583e-07
-3.6206279e-08
2.489725e-07
-4.50524e-08
2.5072898e-07
-5.0177245e-08
2.4836844e-07
-4.0951127e-08
2.3021175e-07
1.540921e-07
3.0185547e-08
1.2390621e-07
4.5380727e-08
2.1501627e-07
4.6944597e-08
2.468042e-07
4.1736555e-08
2.5593656e-07
3.409364e-08
2.5661498e-07
2.6141984e-08
2.5453708e-07
1.8718053e-08
2.5197144e-07
1.199741e-08
2.4978517e-07
5.8456182e-09
2.4827072e-07
-5.9285787e-14
2.4750006e-07
-5.8457221e-09
2.4750006e-07
-1.1997486e-08
2.4827068e-07
-1.8718166e-08
2.4978512e-07
-2.6142081e-08
2.5197139e-07
-3.4093741e-08
2.5453701e-07
-4.1736627e-08
2.5661494e-07
-4.6944654e-08
2.5593655e-07
-4.5380774e-08
2.4680418e-07
-3.0185617e-08
2.1501622e-07
1.2390612e-07
1.9322304e-08
1.0458352e-07
3.4209975e-08
2.0012824e-07
3.9565907e-08
2.4144789e-07
3.8195022e-08
2.5730708e-07
3.3189952e-08
2.616197e-07
2.6648277e-08
2.6107841e-07
1.9725748e-08
2.5889371e-07
1.2930595e-08
2.5658011e-07
6.3833465e-09
2.5481779e-07
-5.6596255e-14
2.5388328e-07
-6.3834352e-09
2.5388326e-07
-1.2930669e-08
2.5481773e-07
-1.9725826e-08
2.5658003e-07
-2.664837e-08
2.5889366e-07
-3.3190008e-08
2.6107837e-07
-3.8195096e-08
2.6161969e-07
-3.9565968e-08
2.5730708e-07
-3.4210031e-08
2.414479e-07
-1.9322417e-08
2.0012823e-07
1.045835e-07
1.1617018e-08
9.2966167e-08
2.3701947e-08
1.8804297e-07
3.014918e-08
2.3500032e-07
3.1230211e-08
2.5622573e-07
2.8640517e-08
2.6420908e-07
2.3961476e-08
2.6575716e-07
1.828641e-08
2.6456857e-07
1.2242711e-08
2.6262359e-07
6.119702e-09
2.6094064e-07
-3.2291571e-14
2.6000287e-07
-6.1197382e-09
2.6000283e-07
-1.224277e-08
2.6094056e-07
-1.8286456e-08
2.6262349e-07
-2.3961544e-08
2.6456849e-07
-2.8640557e-08
2.6575713e-07
-3.123025e-08
2.6420908e-07
-3.0149233e-08
2.5622575e-07
-2.3702011e-08
2.3500036e-07
-1.1617124e-08
1.8804303e-07
9.2966238e-08
6.7827337e-09
8.6183156e-08
1.5662414e-08
1.7916298e-07
2.1646128e-08
2.2901632e-07
2.3846724e-08
2.5402488e-07
2.2933406e-08
2.6512217e-07
1.9904404e-08
2.6878599e-07
1.5614772e-08
2.6885803e-07
1.0657354e-08
2.6758086e-07
5.3882746e-09
2.6620959e-07
-4.53057e-15
2.6539102e-07
-5.3882615e-09
2.6539098e-07
-1.0657357e-08
2.6620952e-07
-1.5614759e-08
2.6758074e-07
-1.9904387e-08
2.688579e-07
-2.2933406e-08
2.6878589e-07
-2.3846722e-08
2.6512216e-07
-2.1646152e-08
2.540249e-07
-1.566249e-08
2.2901639e-07
-6.7828436e-09
1.7916307e-07
8.6183268e-08
3.9474669e-09
8.2235474e-08
1.008643e-08
1.7302386e-07
1.4956536e-08
2.24146e-07
1.7382789e-08
2.5159849e-07
1.7432475e-08
2.6507236e-07
1.5633654e-08
2.7058468e-07
1.2572296e-08
2.7191929e-07
8.731647e-09
2.7142143e-07
4.460387e-09
2.7048081e-07
3.0247229e-14
2.6985132e-07
-4.4603421e-09
2.6985126e-07
-8.7315956e-09
2.7048071e-07
-1.2572246e-08
2.7142129e-07
-1.5633594e-08
2.7191915e-07
-1.7432412e-08
2.7058455e-07
-1.7382757e-08
2.650723e-07
-1.4956561e-08
2.5159852e-07
-1.0086456e-08
2.2414607e-07
-3.9475871e-09
1.7302396e-07
8.2235618e-08
2.3186349e-09
7.9916721e-08
6.40537e-09
1.6893704e-07
1.0065051e-08
2.2048625e-07
1.2248622e-08
2.4941485e-07
1.2745304e-08
2.6457559e-07
1.1769069e-08
2.7156088e-07
9.6779433e-09
2.7401035e-07
6.828228e-09
2.7427109e-07
3.5207764e-09
2.7378824e-07
2.8504038e-14
2.7337203e-07
-3.5206878e-09
2.7337199e-07
-6.8281291e-09
2.7378814e-07
-9.6778415e-09
2.7427096e-07
-1.1768958e-08
2.7401021e-07
-1.2745191e-08
2.7156076e-07
-1.2248541e-08
2.6457555e-07
-1.0065005e-08
2.4941488e-07
-6.4053897e-09
2.2048634e-07
-2.3187074e-09
1.689372e-07
7.9916889e-08
1.3765722e-09
7.854013e-08
4.0321045e-09
1.6628154e-07
6.6414128e-09
2.1787694e-07
8.4070171e-09
2.4764923e-07
9.0369849e-09
2.6394561e-07
8.5658806e-09
2.7203197e-07
7.1871731e-09
2.7538904e-07
5.1438632e-09
2.763144e-07
2.6748511e-09
2.7625724e-07
4.9106563e-14
2.7604685e-07
-2.6747421e-09
2.7604679e-07
-5.1437451e-09
2.7625716e-07
-7.1870497e-09
2.7631427e-07
-8.5657431e-09
2.753889e-07
-9.0368638e-09
2.7203188e-07
-8.4069119e-09
2.6394558e-07
-6.6413165e-09
2.4764926e-07
-4.0320796e-09
2.1787703e-07
-1.3765996e-09
1.6628166e-07
7.8540253e-08
8.2350534e-10
7.771666e-08
2.5205381e-09
1.6458456e-07
4.3139139e-09
2.1608361e-07
5.6485447e-09
2.4631461e-07
6.2488796e-09
2.6334534e-07
6.0639502e-09
2.7221691e-07
5.181691e-09
2.762713e-07
3.7571156e-09
2.7773899e-07
1.9689104e-09
2.7804544e-07
5.7309083e-14
2.780157e-07
-1.9687809e-09
2.7801568e-07
-3.7569779e-09
2.7804538e-07
-5.1815519e-09
2.7773888e-07
-6.0638004e-09
2.7627117e-07
-6.2487346e-09
2.7221682e-07
-5.6484367e-09
2.633453e-07
-4.313791e-09
2.4631469e-07
-2.5205062e-09
2.1608372e-07
-8.2350926e-10
1.645847e-07
7.7716746e-08
4.9391121e-10
7.7222773e-08
1.5648464e-09
1.6351371e-07
2.7648292e-09
2.1488366e-07
3.7277454e-09
2.4535174e-07
4.2306566e-09
2.6284241e-07
4.1935501e-09
2.7225399e-07
3.6435698e-09
2.7682126e-07
2.6735156e-09
2.7870899e-07
1.4110494e-09
2.7930791e-07
6.1728248e-14
2.794267e-07
-1.4109521e-09
2.7942666e-07
-2.6734248e-09
2.7930784e-07
-3.6434525e-09
2.7870892e-07
-4.1934116e-09
2.7682117e-07
-4.2305145e-09
2.7225396e-07
-3.72761e-09
2.6284244e-07
-2.7647159e-09
2.4535182e-07
-1.5647718e-09
2.148838e-07
-4.9390314e-10
1.6351385e-07
7.7222846e-08
2.9534433e-10
7.6927463e-08
9.6378258e-10
1.628453e-07
1.7504006e-09
2.1409708e-07
2.421849e-09
2.4468025e-07
2.8125341e-09
2.6245171e-07
2.8423015e-09
2.7222414e-07
2.5075666e-09
2.7715593e-07
1.8602674e-09
2.7935621e-07
9.882889e-10
2.8017982e-07
6.0460237e-14
2.8041488e-07
-9.8820771e-10
2.8041485e-07
-1.860188e-09
2.8017976e-07
-2.5074708e-09
2.7935618e-07
-2.8421951e-09
2.7715591e-07
-2.8123913e-09
2.7222415e-07
-2.4217143e-09
2.6245177e-07
-1.7502983e-09
2.4468038e-07
-9.6370423e-10
2.1409722e-07
-2.9532196e-10
1.628454e-07
7.6927523e-08
1.7495135e-10
7.6752494e-08
5.8767952e-10
1.6243253e-07
1.0948078e-09
2.1358991e-07
1.5510438e-09
2.4422398e-07
1.8397109e-09
2.62163e-07
1.892695e-09
2.7217108e-07
1.6935887e-09
2.7735494e-07
1.2692878e-09
2.7978039e-07
6.7843901e-10
2.8077052e-07
3.4998887e-14
2.8109322e-07
-6.783843e-10
2.8109322e-07
-1.2692218e-09
2.8077052e-07
-1.6935061e-09
2.797804e-07
-1.8925978e-09
2.7735495e-07
-1.8396064e-09
2.7217113e-07
-1.5509646e-09
2.6216308e-07
-1.0947435e-09
2.442241e-07
-5.8763529e-10
2.1359006e-07
-1.7493714e-10
1.6243268e-07
7.6752547e-08
1.0198507e-10
7.6650471e-08
3.5374486e-10
1.6218068e-07
6.7599389e-10
2.1326755e-07
9.7970953e-10
2.4392016e-07
1.1854879e-09
2.6195709e-07
1.2403278e-09
2.7211614e-07
1.1247412e-09
2.7747042e-07
8.5106244e-10
2.8005394e-07
4.5753095e-10
2.811639e-07
2.8804599e-14
2.8155058e-07
-4.5749998e-10
2.8155059e-07
-8.509993e-10
2.8116391e-07
-1.1246872e-09
2.8005395e-07
-1.2402895e-09
2.7747045e-07
-1.1854341e-09
2.7211619e-07
-9.7967368e-10
2.6195722e-07
-6.7594856e-10
2.4392034e-07
-3.5372455e-10
2.1326775e-07
-1.0196777e-10
1.6218084e-07
7.6650536e-08
5.7947393e-11
7.6592406e-08
2.0931909e-10
1.6202919e-07
4.1128339e-10
2.1306544e-07
6.1007646e-10
2.4372125e-07
7.5290392e-10
2.6181412e-07
8.0071385e-10
2.720682e-07
7.3541579e-10
2.7753557e-07
5.6160554e-10
2.8022765e-07
3.0358761e-10
2.8142179e-07
4.0555614e-14
2.8185402e-07
-3.0356501e-10
2.8185401e-07
-5.6157157e-10
2.8142179e-07
-7.3539331e-10
2.8022764e-07
-8.0068095e-10
2.7753559e-07
-7.5288087e-10
2.720683e-07
-6.1003058e-10
2.6181427e-07
-4.1127525e-10
2.4372145e-07
-2.0932071e-10
2.1306568e-07
-5.7959982e-11
1.6202943e-07
7.6592521e-08
3.1672801e-11
7.6560626e-08
1.2096917e-10
1.6193982e-07
2.4577501e-10
2.1294053e-07
3.7394998e-10
2.4359296e-07
4.7105938e-10
2.6171686e-07
5.0931489e-10
2.7202988e-07
4.7376108e-10
2.7757101e-07
3.6505274e-10
2.803362e-07
1.9840448e-10
2.8158831e-07
1.5212251e-14
2.8205227e-07
-1.9835606e-10
2.8205225e-07
-3.6501786e-10
2.8158831e-07
-4.7374573e-10
2.8033621e-07
-5.0927845e-10
2.7757103e-07
-4.7107703e-10
2.7202995e-07
-3.7394174e-10
2.6171701e-07
-2.4576948e-10
2.4359317e-07
-1.2098485e-10
2.1294078e-07
-3.1696149e-11
1.6194004e-07
7.6560745e-08
1.625779e-11
7.6544291e-08
6.7593546e-11
1.6188838e-07
1.434798e-10
2.1286453e-07
2.2499076e-10
2.4351132e-07
2.8995392e-10
2.6165182e-07
3.190012e-10
2.7200074e-07
3.0065191e-10
2.7758926e-07
2.3377755e-10
2.8040297e-07
1.2773396e-10
2.8169423e-07
6.5137682e-15
2.8217987e-07
-1.2772228e-10
2.8217986e-07
-2.3376229e-10
2.8169424e-07
-3.00639e-10
2.8040298e-07
-3.1899014e-10
2.775893e-07
-2.8996578e-10
2.720008e-07
-2.2500074e-10
2.6165194e-07
-1.4349409e-10
2.4351152e-07
-6.760608e-11
2.1286478e-07
-1.6285732e-11
1.6188861e-07
7.6544441e-08
7.3977937e-12
7.6536791e-08
3.587518e-11
1.6185986e-07
8.1130368e-11
2.1281922e-07
1.3225422e-10
2.4346013e-07
1.7508228e-10
2.6160893e-07
1.9643935e-10
2.7197933e-07
1.8779003e-10
2.7759789e-07
1.4742737e-10
2.8044326e-07
8.1005962e-11
2.8176058e-07
1.4647654e-14
2.8226079e-07
-8.1005369e-11
2.8226078e-07
-1.4742898e-10
2.8176058e-07
-1.8778313e-10
2.8044324e-07
-1.9645024e-10
2.7759792e-07
-1.751249e-10
2.7197939e-07
-1.3227848e-10
2.6160903e-07
-8.1147147e-11
2.4346031e-07
-3.5911631e-11
2.1281945e-07
-7.4326821e-12
1.6186008e-07
7.6536931e-08
2.5031512e-12
7.653423e-08
1.7449424e-11
1.6184489e-07
4.3769187e-11
2.1279285e-07
7.537608e-11
2.4342851e-07
1.0326812e-10
2.6158098e-07
1.1861162e-10
2.7196399e-07
1.1522439e-10
2.7760127e-07
9.1442599e-11
2.8046701e-07
5.0542884e-11
2.8180144e-07
4.8095001e-15
2.8231133e-07
-5.0551955e-11
2.823113e-07
-9.1459145e-11
2.8180144e-07
-1.1524414e-10
2.80467e-07
-1.1865885e-10
2.7760126e-07
-1.0332196e-10
2.71964e-07
-7.5410432e-11
2.6158106e-07
-4.3809785e-11
2.4342866e-07
-1.7484679e-11
2.1279304e-07
-2.5449158e-12
1.6184509e-07
7.6534378e-08
-4.2773835e-14
7.6534279e-08
7.1002265e-12
1.6183772e-07
2.1920208e-11
2.1277803e-07
4.112587e-11
2.4340932e-07
5.9096203e-11
2.6156303e-07
6.9925237e-11
2.7195318e-07
6.9279916e-11
2.7760198e-07
5.5645871e-11
2.8048068e-07
3.0988445e-11
2.8182617e-07
-7.330912e-15
2.8234233e-07
-3.1005596e-11
2.8234232e-07
-5.5697858e-11
2.8182611e-07
-6.9317477e-11
2.8048062e-07
-6.9996385e-11
2.7760192e-07
-5.9171694e-11
2.7195315e-07
-4.1177966e-11
2.6156307e-07
-2.1976428e-11
2.4340941e-07
-7.1444092e-12
2.1277818e-07
2.5337622e-14
1.6183788e-07
7.6534379e-08
-1.1881629e-12
7.6535479e-08
1.5767825e-12
1.6183495e-07
9.5872184e-12
2.1277003e-07
2.1053681e-11
2.4339791e-07
3.2496335e-11
2.6155163e-07
4.0047465e-11
2.7194569e-07
4.0646679e-11
2.7760139e-07
3.3154167e-11
2.8048822e-07
1.8592433e-11
2.8184077e-07
-3.1362338e-14
2.8236099e-07
-1.868481e-11
2.8236098e-07
-3.3224173e-11
2.8184072e-07
-4.0721276e-11
2.8048813e-07
-4.0131979e-11
2.7760132e-07
-3.259085e-11
2.719456e-07
-2.1137766e-11
2.615516e-07
-9.6534132e-12
2.4339796e-07
-1.6237299e-12
2.1277012e-07
1.1664451e-12
1.6183507e-07
7.6535549e-08
-1.5044784e-12
7.6537006e-08
-9.7856566e-13
1.6183445e-07
3.0922002e-12
2.12766e-07
9.7564075e-12
2.433913e-07
1.698518e-11
2.6154451e-07
2.2146462e-11
2.7194059e-07
2.3233708e-11
2.7760037e-07
1.9300197e-11
2.804922e-07
1.0901669e-11
2.818492e-07
-4.9573737e-14
2.8237204e-07
-1.1032823e-11
2.8237202e-07
-1.9409915e-11
2.8184916e-07
-2.334011e-11
2.8049211e-07
-2.2267436e-11
2.7760027e-07
-1.7084067e-11
2.7194047e-07
-9.874853e-12
2.6154441e-07
-3.1818261e-12
2.4339129e-07
9.3234073e-13
2.1276603e-07
1.4957026e-12
1.6183452e-07
7.6537045e-08
-1.4030831e-12
7.6538448e-08
-1.8278528e-12
1.6183499e-07
4.1880469e-14
2.1276417e-07
3.8699519e-12
2.4338754e-07
8.3395945e-12
2.6154011e-07
1.1818398e-11
2.7193719e-07
1.2917788e-11
2.7759937e-07
1.0969757e-11
2.8049424e-07
6.2630402e-12
2.8185401e-07
-9.0103344e-14
2.8237846e-07
-6.4353928e-12
2.8237845e-07
-1.1162189e-11
2.8185394e-07
-1.3094985e-11
2.8049412e-07
-1.1977316e-11
2.775992e-07
-8.4866894e-12
2.7193701e-07
-3.9852057e-12
2.6153999e-07
-1.3580173e-13
2.4338746e-07
1.7970362e-12
2.1276414e-07
1.3796242e-12
1.6183496e-07
7.653843e-08
-1.0426116e-12
7.6539543e-08
-1.6570374e-12
1.6183566e-07
-8.6948588e-13
2.1276344e-07
1.2970756e-12
2.4338545e-07
4.0015512e-12
2.6153746e-07
6.2499305e-12
2.7193499e-07
7.1337551e-12
2.7759855e-07
6.2113302e-12
2.8049528e-07
3.5508592e-12
2.8185674e-07
-1.2385985e-13
2.8238222e-07
-3.7728741e-12
2.8238217e-07
-6.4364727e-12
2.8185665e-07
-7.3695791e-12
2.8049514e-07
-6.4608854e-12
2.7759837e-07
-4.1625945e-12
2.719348e-07
-1.4273482e-12
2.6153727e-07
7.5900225e-13
2.4338528e-07
1.5981499e-12
2.1276333e-07
1.0258706e-12
1.6183557e-07
7.6539498e-08
-5.1460336e-13
7.6540116e-08
-8.2117053e-13
1.6183598e-07
-3.91816e-13
2.1276307e-07
7.856237e-13
2.4338431e-07
2.3355063e-12
2.6153596e-07
3.6629414e-12
2.7193373e-07
4.1855413e-12
2.7759806e-07
3.6486876e-12
2.8049588e-07
2.066877e-12
2.8185839e-07
-1.4872625e-13
2.8238448e-07
-2.3470138e-12
2.8238444e-07
-3.9414623e-12
2.8185828e-07
-4.4718721e-12
2.8049572e-07
-3.9207988e-12
2.7759785e-07
-2.5562406e-12
2.7193348e-07
-9.7352661e-13
2.6153572e-07
2.9061751e-13
2.4338411e-07
7.6714098e-13
2.1276288e-07
5.10104e-13
1.6183584e-07
7.6540037e-08
2.4475232e-13
7.6539897e-08
6.1439556e-13
1.6183565e-07
1.0796253e-12
2.1276269e-07
1.6511405e-12
2.4338375e-07
2.3798094e-12
2.615353e-07
2.920364e-12
2.7193322e-07
3.0073072e-12
2.77598e-07
2.4848759e-12
2.8049646e-07
1.3468429e-12
2.8185958e-07
-1.8560414e-13
2.8238604e-07
-1.6998571e-12
2.8238599e-07
-2.8450672e-12
2.8185947e-07
-3.3604016e-12
2.8049631e-07
-3.2355763e-12
2.7759779e-07
-2.6410722e-12
2.7193292e-07
-1.8547922e-12
2.6153499e-07
-1.2043155e-12
2.4338345e-07
-6.9292445e-13
2.1276241e-07
-2.5551516e-13
1.6183541e-07
7.6539782e-08
1.5228762e-12
7.6538392e-08
2.8883602e-12
1.6183431e-07
3.3859918e-12
2.1276219e-07
3.5150573e-12
2.4338366e-07
3.4902323e-12
2.6153533e-07
3.3421641e-12
2.7193341e-07
2.9264614e-12
2.7759846e-07
2.1821618e-12
2.8049726e-07
1.0950162e-12
2.8186071e-07
-2.0050833e-13
2.8238736e-07
-1.4977174e-12
2.8238732e-07
-2.5810687e-12
2.8186059e-07
-3.3414309e-12
2.8049708e-07
-3.7055066e-12
2.7759821e-07
-3.7912259e-12
2.7193306e-07
-3.7536406e-12
2.6153498e-07
-3.5530816e-12
2.4338328e-07
-2.9601003e-12
2.1276185e-07
-1.5617257e-12
1.6183403e-07
7.6538245e-08
3.6742217e-12
7.6534695e-08
5.7640368e-12
1.6183222e-07
6.1559739e-12
2.1276178e-07
5.7392491e-12
2.4338405e-07
5.0929109e-12
2.61536e-07
4.2880022e-12
2.7193416e-07
3.3813453e-12
2.7759935e-07
2.3129691e-12
2.804983e-07
1.0923634e-12
2.818619e-07
-2.3071901e-13
2.8238867e-07
-1.5566023e-12
2.8238862e-07
-2.7830166e-12
2.8186179e-07
-3.8253622e-12
2.8049811e-07
-4.6790233e-12
2.7759906e-07
-5.4236708e-12
2.7193375e-07
-6.0292795e-12
2.6153554e-07
-6.3330927e-12
2.4338359e-07
-5.8661827e-12
2.1276136e-07
-3.7180131e-12
1.6183187e-07
7.653453e-08
4.5242573e-12
6.9343157e-12
7.4368185e-12
6.9429474e-12
6.028337e-12
4.9408039e-12
3.7709281e-12
2.4800926e-12
1.1479173e-12
-2.4151282e-13
-1.6468526e-12
-2.9597523e-12
-4.2505328e-12
-5.3787911e-12
-6.3842633e-12
-7.2103191e-12
-7.634627e-12
-7.0652202e-12
-4.5590116e-12
)
;

boundaryField
{
    Wall
    {
        type            calculated;
        value           uniform 0;
    }
    frontAndBack
    {
        type            empty;
        value           nonuniform 0();
    }
    atmosphere
    {
        type            calculated;
        value           nonuniform List<scalar> 
20
(
7.6530152e-08
1.6182978e-07
2.1276127e-07
2.4338451e-07
2.6153684e-07
2.7193519e-07
2.7760049e-07
2.8049956e-07
2.8186322e-07
2.8239004e-07
2.8239e-07
2.8186309e-07
2.8049932e-07
2.7760014e-07
2.7193475e-07
2.6153635e-07
2.4338396e-07
2.1276076e-07
1.6182932e-07
7.6529915e-08
)
;
    }
}


// ************************************************************************* //
