/*--------------------------------*- C++ -*----------------------------------*\
| =========                 |                                                 |
| \\      /  F ield         | OpenFOAM: The Open Source CFD Toolbox           |
|  \\    /   O peration     | Version:  3.0.1                                 |
|   \\  /    A nd           | Web:      www.OpenFOAM.org                      |
|    \\/     M anipulation  |                                                 |
\*---------------------------------------------------------------------------*/
FoamFile
{
    version     2.0;
    format      ascii;
    class       volScalarField;
    location    "20";
    object      Psi2;
}
// * * * * * * * * * * * * * * * * * * * * * * * * * * * * * * * * * * * * * //

dimensions      [0 -2 2 0 0 0 0];

internalField   nonuniform List<scalar> 
800
(
0.0014053982
0.0014053528
0.0014053528
0.0014053557
0.0014053581
0.0014053599
0.0014053613
0.0014053622
0.0014053628
0.0014053631
0.0014053631
0.0014053628
0.0014053622
0.0014053613
0.0014053599
0.0014053581
0.0014053557
0.0014053528
0.0014053528
0.0014053982
0.0014687307
0.0014665056
0.0014662297
0.001466207
0.0014662103
0.001466202
0.0014661866
0.0014661709
0.0014661591
0.0014661528
0.0014661528
0.0014661591
0.0014661709
0.0014661866
0.001466202
0.0014662103
0.001466207
0.0014662297
0.0014665055
0.0014687307
0.0015355735
0.0015323674
0.0015312782
0.0015311957
0.0015311831
0.0015311593
0.001531126
0.0015310941
0.0015310703
0.0015310578
0.0015310578
0.0015310704
0.0015310941
0.001531126
0.0015311592
0.0015311831
0.0015311956
0.0015312782
0.0015323674
0.0015355735
0.001613291
0.0016083831
0.0016066158
0.001606529
0.0016065155
0.0016064851
0.0016064387
0.0016063931
0.0016063591
0.001606341
0.001606341
0.0016063591
0.0016063931
0.0016064387
0.0016064851
0.0016065155
0.001606529
0.0016066158
0.0016083831
0.0016132911
0.0017224137
0.0017144355
0.0017120432
0.0017107755
0.0017107655
0.001710728
0.0017106654
0.0017106032
0.0017105567
0.001710532
0.001710532
0.0017105567
0.0017106032
0.0017106654
0.001710728
0.0017107655
0.0017107755
0.0017120431
0.0017144354
0.0017224138
0.001899912
0.0018837525
0.0018804966
0.0018783637
0.0018783133
0.0018782296
0.0018781234
0.0018780276
0.0018779577
0.0018779213
0.0018779213
0.0018779577
0.0018780276
0.0018781234
0.0018782296
0.0018783133
0.0018783636
0.0018804965
0.0018837525
0.0018999121
0.0022008316
0.0021704056
0.0021657
0.0021628262
0.0021625364
0.0021622741
0.0021620406
0.0021618613
0.0021617399
0.0021616796
0.0021616796
0.00216174
0.0021618614
0.0021620406
0.0021622741
0.0021625364
0.0021628262
0.0021657
0.0021704056
0.0022008317
0.0026545261
0.0026081937
0.002599078
0.0025951136
0.0025941787
0.0025934935
0.0025929975
0.0025926584
0.0025924465
0.002592346
0.002592346
0.0025924466
0.0025926585
0.0025929976
0.0025934936
0.0025941787
0.0025951136
0.002599078
0.0026081937
0.0026545263
0.0033592329
0.0032808997
0.0032596357
0.0032536162
0.0032514576
0.0032500605
0.003249166
0.0032485935
0.0032482593
0.0032481058
0.0032481058
0.0032482594
0.0032485937
0.0032491662
0.0032500606
0.0032514578
0.0032536163
0.0032596358
0.0032808997
0.0033592332
0.0045516
0.0044068966
0.0043569263
0.0043468684
0.0043429863
0.0043408401
0.0043396359
0.0043389188
0.0043385336
0.0043383657
0.0043383658
0.0043385338
0.0043389191
0.0043396363
0.0043408403
0.0043429865
0.0043468685
0.0043569263
0.0044068965
0.0045516001
0.0060978965
0.0058939705
0.005817509
0.0057992914
0.0057943908
0.0057929423
0.0057926276
0.0057925908
0.00579266
0.0057927336
0.0057927337
0.0057926602
0.0057925912
0.005792628
0.0057929424
0.0057943908
0.0057992913
0.0058175088
0.0058939699
0.0060978961
0.0078710485
0.0074962114
0.0073604921
0.0073264644
0.007323501
0.0073275716
0.007332041
0.0073352931
0.0073373546
0.0073384174
0.0073384176
0.007337355
0.0073352936
0.0073320414
0.0073275717
0.0073235008
0.0073264641
0.0073604916
0.0074962106
0.0078710474
0.0095367306
0.0089140089
0.0086978821
0.0086389418
0.0086370842
0.0086505528
0.0086645205
0.0086748877
0.008681436
0.0086847007
0.008684701
0.0086814366
0.0086748886
0.0086645211
0.008650553
0.0086370841
0.0086389416
0.0086978817
0.0089140082
0.0095367294
0.010525367
0.0099336733
0.0096839173
0.0096015663
0.0095920722
0.0096074546
0.0096266724
0.0096421783
0.0096523969
0.0096575389
0.0096575392
0.0096523975
0.0096421793
0.0096266731
0.0096074549
0.0095920722
0.0096015662
0.0096839171
0.0099336729
0.010525366
0.010869738
0.010520081
0.010311565
0.010226908
0.01020897
0.010218673
0.010235419
0.0102503
0.010260578
0.010265848
0.010265848
0.010260579
0.010250301
0.01023542
0.010218674
0.01020897
0.010226908
0.010311565
0.010520081
0.010869738
0.010948499
0.010796832
0.010660809
0.01059295
0.010572798
0.010575998
0.010586917
0.010597747
0.010605586
0.010609685
0.010609685
0.010605587
0.010597747
0.010586918
0.010575999
0.010572798
0.01059295
0.010660809
0.010796832
0.010948499
0.010962053
0.010907862
0.010834039
0.010788843
0.010771949
0.010771326
0.010777094
0.010783636
0.010788607
0.010791256
0.010791256
0.010788607
0.010783636
0.010777094
0.010771326
0.010771949
0.010788843
0.010834039
0.010907862
0.010962053
0.010963987
0.010946946
0.010912123
0.01088596
0.010874256
0.010872385
0.010874927
0.010878378
0.010881141
0.010882642
0.010882643
0.010881142
0.010878379
0.010874928
0.010872386
0.010874256
0.01088596
0.010912123
0.010946946
0.010963987
0.01096423
0.010959337
0.010944613
0.010931044
0.010923973
0.010922219
0.01092314
0.010924775
0.010926164
0.010926934
0.010926934
0.010926164
0.010924775
0.01092314
0.010922219
0.010923973
0.010931044
0.010944613
0.010959337
0.01096423
0.010964258
0.010962948
0.010957242
0.010950806
0.01094696
0.010945738
0.010945982
0.010946689
0.010947333
0.010947698
0.010947698
0.010947333
0.010946689
0.010945982
0.010945738
0.01094696
0.010950806
0.010957242
0.010962948
0.010964258
0.010964261
0.010963929
0.01096187
0.010959037
0.010957115
0.010956391
0.010956408
0.010956689
0.010956967
0.010957129
0.010957129
0.010956967
0.010956689
0.010956408
0.010956391
0.010957115
0.010959037
0.01096187
0.010963929
0.010964261
0.010964261
0.010964181
0.010963481
0.010962311
0.010961416
0.010961032
0.010960997
0.0109611
0.010961213
0.010961281
0.010961281
0.010961213
0.0109611
0.010960997
0.010961032
0.010961416
0.010962311
0.010963481
0.010964181
0.010964261
0.010964261
0.010964243
0.010964016
0.010963559
0.010963167
0.01096298
0.010962948
0.010962982
0.010963025
0.010963052
0.010963052
0.010963025
0.010962982
0.010962948
0.01096298
0.010963167
0.010963559
0.010964016
0.010964243
0.010964261
0.010964261
0.010964257
0.010964187
0.010964017
0.010963854
0.010963769
0.010963749
0.010963759
0.010963775
0.010963785
0.010963785
0.010963775
0.010963759
0.010963749
0.010963769
0.010963854
0.010964017
0.010964187
0.010964257
0.010964261
0.010964261
0.01096426
0.010964239
0.010964179
0.010964114
0.010964078
0.010964067
0.01096407
0.010964075
0.010964079
0.010964079
0.010964075
0.01096407
0.010964067
0.010964078
0.010964114
0.010964179
0.010964239
0.01096426
0.010964261
0.010964261
0.010964261
0.010964255
0.010964234
0.01096421
0.010964195
0.01096419
0.01096419
0.010964192
0.010964193
0.010964193
0.010964192
0.01096419
0.01096419
0.010964195
0.01096421
0.010964234
0.010964255
0.010964261
0.010964261
0.010964261
0.010964261
0.010964259
0.010964252
0.010964244
0.010964238
0.010964236
0.010964235
0.010964236
0.010964236
0.010964236
0.010964236
0.010964235
0.010964236
0.010964238
0.010964244
0.010964252
0.010964259
0.010964261
0.010964261
0.010964261
0.010964261
0.010964261
0.010964258
0.010964255
0.010964253
0.010964252
0.010964252
0.010964252
0.010964252
0.010964252
0.010964252
0.010964252
0.010964252
0.010964253
0.010964255
0.010964258
0.010964261
0.010964261
0.010964261
0.010964261
0.010964261
0.010964261
0.01096426
0.010964259
0.010964258
0.010964258
0.010964258
0.010964258
0.010964258
0.010964258
0.010964258
0.010964258
0.010964258
0.010964258
0.010964259
0.01096426
0.010964261
0.010964261
0.010964261
0.010964261
0.010964261
0.010964261
0.010964261
0.01096426
0.01096426
0.01096426
0.01096426
0.01096426
0.01096426
0.01096426
0.01096426
0.01096426
0.01096426
0.01096426
0.01096426
0.010964261
0.010964261
0.010964261
0.010964261
0.010964261
0.010964261
0.010964261
0.010964261
0.010964261
0.010964261
0.010964261
0.010964261
0.010964261
0.010964261
0.010964261
0.010964261
0.010964261
0.010964261
0.010964261
0.010964261
0.010964261
0.010964261
0.010964261
0.010964261
0.010964261
0.010964261
0.010964261
0.010964261
0.010964261
0.010964261
0.010964261
0.010964261
0.010964261
0.010964261
0.010964261
0.010964261
0.010964261
0.010964261
0.010964261
0.010964261
0.010964261
0.010964261
0.010964261
0.010964261
0.010964261
0.010964261
0.010964261
0.010964261
0.010964261
0.010964261
0.010964261
0.010964261
0.010964261
0.010964261
0.010964261
0.010964261
0.010964261
0.010964261
0.010964261
0.010964261
0.010964261
0.010964261
0.010964261
0.010964261
0.010964261
0.010964261
0.010964261
0.010964261
0.010964261
0.010964261
0.010964261
0.010964261
0.010964261
0.010964261
0.010964261
0.010964261
0.010964261
0.010964261
0.010964261
0.010964261
0.010964261
0.010964261
0.010964261
0.010964261
0.010964261
0.010964261
0.010964261
0.010964261
0.010964261
0.010964261
0.010964261
0.010964261
0.010964261
0.010964261
0.010964261
0.010964261
0.010964261
0.010964261
0.010964261
0.010964261
0.010964261
0.010964261
0.010964261
0.010964261
0.010964261
0.010964261
0.010964261
0.010964261
0.010964261
0.010964261
0.010964261
0.010964261
0.010964261
0.010964261
0.010964261
0.010964261
0.010964261
0.010964261
0.010964261
0.010964261
0.010964261
0.010964261
0.010964261
0.010964261
0.010964261
0.010964261
0.010964261
0.010964261
0.010964261
0.010964261
0.010964261
0.010964261
0.010964261
0.010964261
0.010964261
0.010964261
0.010964261
0.010964261
0.010964261
0.010964261
0.010964261
0.010964261
0.010964261
0.010964261
0.010964261
0.010964261
0.010964261
0.010964261
0.010964261
0.010964261
0.010964261
0.010964261
0.010964261
0.010964261
0.010964261
0.010964261
0.010964261
0.010964261
0.010964261
0.010964261
0.010964261
0.010964261
0.010964261
0.010964261
0.010964261
0.010964261
0.010964261
0.010964261
0.010964261
0.010964261
0.010964261
0.010964261
0.010964261
0.010964261
0.010964261
0.010964261
0.010964261
0.010964261
0.010964261
0.010964261
0.010964261
0.010964261
0.010964261
0.010964261
0.010964261
0.010964261
0.010964261
0.010964261
0.010964261
0.010964261
0.010964261
0.010964261
0.010964261
0.010964261
0.010964261
0.010964261
0.010964261
0.010964261
0.010964261
0.010964261
0.010964261
0.010964261
0.010964261
0.010964261
)
;

boundaryField
{
    Wall
    {
        type            calculated;
        value           nonuniform List<scalar> 
100
(
9.9999997e-21
9.9999997e-21
9.9999997e-21
9.9999997e-21
9.9999997e-21
9.9999997e-21
9.9999997e-21
9.9999998e-21
9.9999998e-21
9.9999999e-21
1e-20
1e-20
1e-20
1e-20
1e-20
1e-20
1e-20
1e-20
1e-20
1e-20
1e-20
1e-20
1e-20
1e-20
1e-20
1e-20
1e-20
1e-20
1e-20
1e-20
1e-20
1e-20
1e-20
1e-20
1e-20
1e-20
1e-20
1e-20
1e-20
1e-20
9.9999997e-21
9.9999997e-21
9.9999997e-21
9.9999997e-21
9.9999997e-21
9.9999997e-21
9.9999997e-21
9.9999998e-21
9.9999998e-21
9.9999999e-21
1e-20
1e-20
1e-20
1e-20
1e-20
1e-20
1e-20
1e-20
1e-20
1e-20
1e-20
1e-20
1e-20
1e-20
1e-20
1e-20
1e-20
1e-20
1e-20
1e-20
1e-20
1e-20
1e-20
1e-20
1e-20
1e-20
1e-20
1e-20
1e-20
1e-20
9.9999997e-21
9.9999997e-21
9.9999997e-21
9.9999997e-21
9.9999997e-21
9.9999997e-21
9.9999997e-21
9.9999997e-21
9.9999997e-21
9.9999997e-21
9.9999997e-21
9.9999997e-21
9.9999997e-21
9.9999997e-21
9.9999997e-21
9.9999997e-21
9.9999997e-21
9.9999997e-21
9.9999997e-21
9.9999997e-21
)
;
    }
    frontAndBack
    {
        type            empty;
    }
    atmosphere
    {
        type            calculated;
        value           uniform 1e-20;
    }
}


// ************************************************************************* //
