/*--------------------------------*- C++ -*----------------------------------*\
| =========                 |                                                 |
| \\      /  F ield         | OpenFOAM: The Open Source CFD Toolbox           |
|  \\    /   O peration     | Version:  3.0.1                                 |
|   \\  /    A nd           | Web:      www.OpenFOAM.org                      |
|    \\/     M anipulation  |                                                 |
\*---------------------------------------------------------------------------*/
FoamFile
{
    version     2.0;
    format      ascii;
    class       volScalarField;
    location    "20";
    object      rho;
}
// * * * * * * * * * * * * * * * * * * * * * * * * * * * * * * * * * * * * * //

dimensions      [1 -3 0 0 0 0 0];

internalField   nonuniform List<scalar> 
800
(
140.53982
140.53529
140.53528
140.53557
140.53581
140.536
140.53613
140.53622
140.53629
140.53632
140.53632
140.53629
140.53623
140.53613
140.53599
140.53581
140.53557
140.53528
140.53529
140.53982
146.87308
146.65056
146.62298
146.6207
146.62103
146.62021
146.61867
146.6171
146.61591
146.61529
146.61529
146.61591
146.6171
146.61867
146.62021
146.62103
146.6207
146.62298
146.65056
146.87308
153.55638
153.23583
153.12692
153.11867
153.11741
153.11502
153.1117
153.10851
153.10613
153.10488
153.10488
153.10613
153.10851
153.1117
153.11502
153.11741
153.11866
153.12692
153.23583
153.55638
161.32427
160.83382
160.65713
160.64844
160.64709
160.64404
160.6394
160.63484
160.63144
160.62963
160.62963
160.63144
160.63484
160.6394
160.64404
160.64708
160.64844
160.65713
160.83381
161.32427
172.22619
171.42959
171.19051
171.06374
171.06272
171.05896
171.05269
171.04648
171.04182
171.03936
171.03935
171.04182
171.04648
171.05269
171.05896
171.06272
171.06374
171.19051
171.42959
172.22619
189.94882
188.33713
188.01208
187.79885
187.79379
187.78542
187.77479
187.7652
187.75821
187.75457
187.75457
187.75821
187.7652
187.77479
187.78541
187.79379
187.79885
188.01207
188.33713
189.94883
219.94645
216.9227
216.4549
216.16813
216.13925
216.11305
216.08971
216.07177
216.05962
216.05358
216.05358
216.05962
216.07177
216.08971
216.11305
216.13925
216.16813
216.4549
216.9227
219.94647
264.74084
260.25078
259.36532
258.97527
258.88376
258.81583
258.76632
258.73225
258.71091
258.70075
258.70075
258.71091
258.73226
258.76633
258.81584
258.88377
258.97528
259.36532
260.25078
264.74086
324.3898
320.11209
318.66315
318.23508
318.07728
317.95159
317.86093
317.79661
317.75701
317.7377
317.73771
317.75703
317.79664
317.86097
317.95163
318.07732
318.23512
318.6632
320.11214
324.3899
244.52409
269.18237
273.68827
275.05066
275.46033
275.44073
275.30437
275.13976
275.01855
274.94871
274.94874
275.01862
275.1399
275.30459
275.44103
275.46072
275.05113
273.68878
269.18295
244.52475
42.613978
56.412327
59.83768
60.701807
60.980851
61.009671
60.960176
60.886041
60.828569
60.794208
60.794221
60.828604
60.886109
60.960288
61.009833
60.981059
60.702054
59.837948
56.412617
42.614231
2.2995261
3.1478163
3.4211053
3.4723487
3.4837113
3.4814044
3.4754739
3.4689872
3.4642548
3.4615079
3.4615087
3.4642571
3.4689915
3.4754811
3.4814149
3.4837249
3.4723648
3.4211226
3.1478339
2.2995373
1.2025679
1.2081897
1.2107276
1.2110403
1.2109745
1.210842
1.2107206
1.2106251
1.2105627
1.2105293
1.2105293
1.2105627
1.2106252
1.2107206
1.2108421
1.2109746
1.2110404
1.2107277
1.2081898
1.2025679
1.2000008
1.200003
1.2000048
1.200005
1.2000049
1.2000047
1.2000046
1.2000045
1.2000045
1.2000044
1.2000044
1.2000045
1.2000045
1.2000046
1.2000047
1.2000049
1.200005
1.2000048
1.200003
1.2000008
1.2000003
1.2000007
1.200001
1.2000011
1.2000011
1.2000011
1.2000011
1.2000011
1.2000011
1.2000011
1.2000011
1.2000011
1.2000011
1.2000011
1.2000011
1.2000011
1.2000011
1.200001
1.2000007
1.2000003
1.2000001
1.2000004
1.2000006
1.2000007
1.2000008
1.2000008
1.2000008
1.2000008
1.2000008
1.2000008
1.2000008
1.2000008
1.2000008
1.2000008
1.2000008
1.2000008
1.2000007
1.2000006
1.2000004
1.2000001
1.2
1.2000002
1.2000004
1.2000005
1.2000006
1.2000006
1.2000006
1.2000006
1.2000006
1.2000006
1.2000006
1.2000006
1.2000006
1.2000006
1.2000006
1.2000006
1.2000005
1.2000004
1.2000002
1.2
1.2
1.2000001
1.2000003
1.2000004
1.2000004
1.2000005
1.2000005
1.2000005
1.2000005
1.2000004
1.2000004
1.2000005
1.2000005
1.2000005
1.2000005
1.2000004
1.2000004
1.2000003
1.2000001
1.2
1.2
1.2
1.2000001
1.2000002
1.2000003
1.2000003
1.2000003
1.2000003
1.2000003
1.2000003
1.2000003
1.2000003
1.2000003
1.2000003
1.2000003
1.2000003
1.2000002
1.2000001
1.2
1.2
1.2
1.2
1.2000001
1.2000001
1.2000002
1.2000002
1.2000002
1.2000002
1.2000002
1.2000002
1.2000002
1.2000002
1.2000002
1.2000002
1.2000002
1.2000002
1.2000001
1.2000001
1.2
1.2
1.2
1.2
1.2
1.2000001
1.2000001
1.2000001
1.2000001
1.2000001
1.2000001
1.2000001
1.2000001
1.2000001
1.2000001
1.2000001
1.2000001
1.2000001
1.2000001
1.2
1.2
1.2
1.2
1.2
1.2
1.2
1.2000001
1.2000001
1.2000001
1.2000001
1.2000001
1.2000001
1.2000001
1.2000001
1.2000001
1.2000001
1.2000001
1.2000001
1.2
1.2
1.2
1.2
1.2
1.2
1.2
1.2
1.2
1.2
1.2
1.2
1.2
1.2
1.2
1.2
1.2
1.2
1.2
1.2
1.2
1.2
1.2
1.2
1.2
1.2
1.2
1.2
1.2
1.2
1.2
1.2
1.2
1.2
1.2
1.2
1.2
1.2
1.2
1.2
1.2
1.2
1.2
1.2
1.2
1.2
1.2
1.2
1.2
1.2
1.2
1.2
1.2
1.2
1.2
1.2
1.2
1.2
1.2
1.2
1.2
1.2
1.2
1.2
1.2
1.2
1.2
1.2
1.2
1.2
1.2
1.2
1.2
1.2
1.2
1.2
1.2
1.2
1.2
1.2
1.2
1.2
1.2
1.2
1.2
1.2
1.2
1.2
1.2
1.2
1.2
1.2
1.2
1.2
1.2
1.2
1.2
1.2
1.2
1.2
1.2
1.2
1.2
1.2
1.2
1.2
1.2
1.2
1.2
1.2
1.2
1.2
1.2
1.2
1.2
1.2
1.2
1.2
1.2
1.2
1.2
1.2
1.2
1.2
1.2
1.2
1.2
1.2
1.2
1.2
1.2
1.2
1.2
1.2
1.2
1.2
1.2
1.2
1.2
1.2
1.2
1.2
1.2
1.2
1.2
1.2
1.2
1.2
1.2
1.2
1.2
1.2
1.2
1.2
1.2
1.2
1.2
1.2
1.2
1.2
1.2
1.2
1.2
1.2
1.2
1.2
1.2
1.2
1.2
1.2
1.2
1.2
1.2
1.2
1.2
1.2
1.2
1.2
1.2
1.2
1.2
1.2
1.2
1.2
1.2
1.2
1.2
1.2
1.2
1.2
1.2
1.2
1.2
1.2
1.2
1.2
1.2
1.2
1.2
1.2
1.2
1.2
1.2
1.2
1.2
1.2
1.2
1.2
1.2
1.2
1.2
1.2
1.2
1.2
1.2
1.2
1.2
1.2
1.2
1.2
1.2
1.2
1.2
1.2
1.2
1.2
1.2
1.2
1.2
1.2
1.2
1.2
1.2
1.2
1.2
1.2
1.2
1.2
1.2
1.2
1.2
1.2
1.2
1.2
1.2
1.2
1.2
1.2
1.2
1.2
1.2
1.2
1.2
1.2
1.2
1.2
1.2
1.2
1.2
1.2
1.2
1.2
1.2
1.2
1.2
1.2
1.2
1.2
1.2
1.2
1.2
1.2
1.2
1.2
1.2
1.2
1.2
1.2
1.2
1.2
1.2
1.2
1.2
1.2
1.2
1.2
1.2
1.2
1.2
1.2
1.2
1.2
1.2
1.2
1.2
1.2
1.2
1.2
1.2
1.2
1.2
1.2
1.2
1.2
1.2
1.2
1.2
1.2
1.2
1.2
1.2
1.2
1.2
1.2
1.2
1.2
1.2
1.2
1.2
1.2
1.2
1.2
1.2
1.2
1.2
1.2
1.2
1.2
1.2
1.2
1.2
1.2
1.2
1.2
1.2
1.2
1.2
1.2
1.2
1.2
1.2
1.2
1.2
1.2
1.2
1.2
1.2
1.2
1.2
1.2
1.2
1.2
1.2
1.2
1.2
1.2
1.2
1.2
1.2
1.2
1.2
1.2
1.2
1.2
)
;

boundaryField
{
    Wall
    {
        type            calculated;
        value           nonuniform List<scalar> 
100
(
1e-15
3.8917727e-12
7.6650637e-06
3.6286152e-05
0.00010658686
0.00026941269
0.00074952942
0.0032322672
0.041348195
0.55679597
1.1183411
1.1983211
1.1999968
1.2
1.2
1.2
1.2
1.2
1.2
1.2
1.2
1.2
1.2
1.2
1.2
1.2
1.2
1.2
1.2
1.2
1.2
1.2
1.2
1.2
1.2
1.2
1.2
1.2
1.2
1.2
1e-15
1.7957993e-14
7.6650627e-06
3.6286142e-05
0.00010658677
0.00026941228
0.00074952752
0.0032322539
0.041347912
0.55679425
1.1183406
1.1983211
1.1999968
1.2
1.2
1.2
1.2
1.2
1.2
1.2
1.2
1.2
1.2
1.2
1.2
1.2
1.2
1.2
1.2
1.2
1.2
1.2
1.2
1.2
1.2
1.2
1.2
1.2
1.2
1.2
1e-15
1e-15
1.0000005e-15
1.000001e-15
1e-15
1.0000013e-15
1.0000011e-15
1.0000001e-15
1e-15
1e-15
1e-15
1e-15
1e-15
1.0000001e-15
1.0000001e-15
1e-15
1e-15
1e-15
1e-15
1e-15
)
;
    }
    frontAndBack
    {
        type            empty;
    }
    atmosphere
    {
        type            calculated;
        value           nonuniform List<scalar> 
20
(
1.2
1.2
1.2
1.2
1.2
1.2
1.2
1.2
1.2
1.2
1.2
1.2
1.2
1.2
1.2
1.2
1.2
1.2
1.2
1.2
)
;
    }
}


// ************************************************************************* //
