/*--------------------------------*- C++ -*----------------------------------*\
| =========                 |                                                 |
| \\      /  F ield         | OpenFOAM: The Open Source CFD Toolbox           |
|  \\    /   O peration     | Version:  3.0.1                                 |
|   \\  /    A nd           | Web:      www.OpenFOAM.org                      |
|    \\/     M anipulation  |                                                 |
\*---------------------------------------------------------------------------*/
FoamFile
{
    version     2.0;
    format      ascii;
    class       volScalarField;
    location    "20";
    object      rho_foam;
}
// * * * * * * * * * * * * * * * * * * * * * * * * * * * * * * * * * * * * * //

dimensions      [1 -3 0 0 0 0 0];

internalField   nonuniform List<scalar> 
800
(
140.53982
140.53529
140.53528
140.53557
140.53581
140.536
140.53613
140.53622
140.53629
140.53632
140.53632
140.53629
140.53623
140.53613
140.53599
140.53581
140.53557
140.53528
140.53529
140.53982
146.87308
146.65056
146.62298
146.6207
146.62103
146.62021
146.61867
146.6171
146.61591
146.61529
146.61529
146.61591
146.6171
146.61867
146.62021
146.62103
146.6207
146.62298
146.65056
146.87308
153.55735
153.23675
153.12783
153.11957
153.11832
153.11593
153.11261
153.10941
153.10704
153.10579
153.10579
153.10704
153.10941
153.11261
153.11593
153.11832
153.11957
153.12782
153.23674
153.55735
161.32911
160.83832
160.66159
160.65291
160.65156
160.64852
160.64388
160.63932
160.63591
160.63411
160.63411
160.63591
160.63932
160.64388
160.64852
160.65156
160.65291
160.66159
160.83832
161.32911
172.24138
171.44355
171.20432
171.07756
171.07656
171.0728
171.06654
171.06033
171.05567
171.0532
171.0532
171.05567
171.06033
171.06654
171.0728
171.07656
171.07756
171.20432
171.44355
172.24139
189.99121
188.37526
188.04966
187.83637
187.83134
187.82297
187.81235
187.80276
187.79577
187.79213
187.79213
187.79577
187.80276
187.81235
187.82297
187.83133
187.83637
188.04966
188.37526
189.99121
220.08317
217.04057
216.57001
216.28263
216.25365
216.22741
216.20407
216.18614
216.174
216.16796
216.16796
216.174
216.18614
216.20407
216.22741
216.25365
216.28263
216.57
217.04057
220.08318
265.45262
260.81938
259.9078
259.51136
259.41787
259.34936
259.29976
259.26584
259.24465
259.2346
259.23461
259.24466
259.26585
259.29977
259.34937
259.41788
259.51136
259.9078
260.81938
265.45264
335.9233
328.08998
325.96358
325.36162
325.14577
325.00605
324.9166
324.85936
324.82593
324.81058
324.81059
324.82594
324.85938
324.91662
325.00607
325.14578
325.36163
325.96359
328.08998
335.92332
455.16001
440.68966
435.69263
434.68684
434.29864
434.08401
433.9636
433.89188
433.85337
433.83657
433.83658
433.85339
433.89192
433.96363
434.08404
434.29865
434.68685
435.69264
440.68966
455.16002
609.78965
589.39705
581.7509
579.92914
579.43908
579.29423
579.26276
579.25908
579.266
579.27336
579.27337
579.26603
579.25913
579.2628
579.29424
579.43908
579.92913
581.75088
589.397
609.78961
787.10486
749.62115
736.04921
732.64644
732.3501
732.75716
733.2041
733.52931
733.73546
733.84174
733.84176
733.7355
733.52936
733.20414
732.75718
732.35008
732.64642
736.04916
749.62106
787.10474
953.67306
891.40089
869.78821
863.89418
863.70842
865.05528
866.45205
867.48878
868.14361
868.47008
868.4701
868.14366
867.48886
866.45211
865.05531
863.70841
863.89416
869.78818
891.40082
953.67295
1052.5367
993.36734
968.39173
960.15663
959.20722
960.74547
962.66725
964.21783
965.23969
965.75389
965.75392
965.23975
964.21793
962.66731
960.7455
959.20722
960.15662
968.39171
993.36729
1052.5366
1086.9738
1052.0081
1031.1565
1022.6908
1020.897
1021.8673
1023.5419
1025.03
1026.0578
1026.5848
1026.5848
1026.0579
1025.0301
1023.542
1021.8674
1020.897
1022.6908
1031.1565
1052.0081
1086.9738
1094.8499
1079.6832
1066.0809
1059.295
1057.2798
1057.5998
1058.6917
1059.7747
1060.5586
1060.9685
1060.9685
1060.5587
1059.7747
1058.6918
1057.5999
1057.2798
1059.295
1066.0809
1079.6832
1094.8499
1096.2053
1090.7862
1083.4039
1078.8843
1077.1949
1077.1326
1077.7094
1078.3636
1078.8607
1079.1256
1079.1256
1078.8607
1078.3636
1077.7094
1077.1327
1077.1949
1078.8843
1083.4039
1090.7862
1096.2053
1096.3987
1094.6946
1091.2123
1088.596
1087.4256
1087.2385
1087.4927
1087.8378
1088.1141
1088.2642
1088.2643
1088.1142
1087.8379
1087.4928
1087.2386
1087.4256
1088.596
1091.2123
1094.6946
1096.3987
1096.423
1095.9337
1094.4613
1093.1044
1092.3973
1092.2219
1092.314
1092.4775
1092.6164
1092.6934
1092.6934
1092.6164
1092.4775
1092.314
1092.2219
1092.3973
1093.1044
1094.4613
1095.9337
1096.423
1096.4258
1096.2948
1095.7242
1095.0806
1094.696
1094.5738
1094.5982
1094.6689
1094.7333
1094.7698
1094.7698
1094.7333
1094.6689
1094.5982
1094.5738
1094.696
1095.0806
1095.7242
1096.2948
1096.4258
1096.4261
1096.3929
1096.187
1095.9037
1095.7115
1095.6391
1095.6408
1095.6689
1095.6967
1095.7129
1095.7129
1095.6967
1095.6689
1095.6408
1095.6391
1095.7115
1095.9037
1096.187
1096.3929
1096.4261
1096.4261
1096.4181
1096.3481
1096.2311
1096.1416
1096.1032
1096.0997
1096.11
1096.1213
1096.1281
1096.1281
1096.1213
1096.11
1096.0997
1096.1032
1096.1416
1096.2311
1096.3481
1096.4181
1096.4261
1096.4261
1096.4243
1096.4016
1096.3559
1096.3167
1096.298
1096.2948
1096.2982
1096.3025
1096.3052
1096.3052
1096.3025
1096.2982
1096.2948
1096.298
1096.3167
1096.3559
1096.4016
1096.4243
1096.4261
1096.4261
1096.4257
1096.4187
1096.4017
1096.3854
1096.3769
1096.3749
1096.3759
1096.3775
1096.3785
1096.3785
1096.3775
1096.3759
1096.3749
1096.3769
1096.3854
1096.4017
1096.4187
1096.4257
1096.4261
1096.4261
1096.426
1096.4239
1096.4179
1096.4114
1096.4078
1096.4067
1096.407
1096.4075
1096.4079
1096.4079
1096.4075
1096.407
1096.4067
1096.4078
1096.4114
1096.4179
1096.4239
1096.426
1096.4261
1096.4261
1096.4261
1096.4255
1096.4234
1096.421
1096.4195
1096.419
1096.419
1096.4192
1096.4193
1096.4193
1096.4192
1096.419
1096.419
1096.4195
1096.421
1096.4234
1096.4255
1096.4261
1096.4261
1096.4261
1096.4261
1096.4259
1096.4252
1096.4244
1096.4238
1096.4236
1096.4236
1096.4236
1096.4236
1096.4236
1096.4236
1096.4236
1096.4236
1096.4238
1096.4244
1096.4252
1096.4259
1096.4261
1096.4261
1096.4261
1096.4261
1096.4261
1096.4258
1096.4255
1096.4253
1096.4252
1096.4252
1096.4252
1096.4252
1096.4252
1096.4252
1096.4252
1096.4252
1096.4253
1096.4255
1096.4258
1096.4261
1096.4261
1096.4261
1096.4261
1096.4261
1096.4261
1096.426
1096.4259
1096.4258
1096.4258
1096.4258
1096.4258
1096.4258
1096.4258
1096.4258
1096.4258
1096.4258
1096.4258
1096.4259
1096.426
1096.4261
1096.4261
1096.4261
1096.4261
1096.4261
1096.4261
1096.4261
1096.426
1096.426
1096.426
1096.426
1096.426
1096.426
1096.426
1096.426
1096.426
1096.426
1096.426
1096.426
1096.4261
1096.4261
1096.4261
1096.4261
1096.4261
1096.4261
1096.4261
1096.4261
1096.4261
1096.4261
1096.4261
1096.4261
1096.4261
1096.4261
1096.4261
1096.4261
1096.4261
1096.4261
1096.4261
1096.4261
1096.4261
1096.4261
1096.4261
1096.4261
1096.4261
1096.4261
1096.4261
1096.4261
1096.4261
1096.4261
1096.4261
1096.4261
1096.4261
1096.4261
1096.4261
1096.4261
1096.4261
1096.4261
1096.4261
1096.4261
1096.4261
1096.4261
1096.4261
1096.4261
1096.4261
1096.4261
1096.4261
1096.4261
1096.4261
1096.4261
1096.4261
1096.4261
1096.4261
1096.4261
1096.4261
1096.4261
1096.4261
1096.4261
1096.4261
1096.4261
1096.4261
1096.4261
1096.4261
1096.4261
1096.4261
1096.4261
1096.4261
1096.4261
1096.4261
1096.4261
1096.4261
1096.4261
1096.4261
1096.4261
1096.4261
1096.4261
1096.4261
1096.4261
1096.4261
1096.4261
1096.4261
1096.4261
1096.4261
1096.4261
1096.4261
1096.4261
1096.4261
1096.4261
1096.4261
1096.4261
1096.4261
1096.4261
1096.4261
1096.4261
1096.4261
1096.4261
1096.4261
1096.4261
1096.4261
1096.4261
1096.4261
1096.4261
1096.4261
1096.4261
1096.4261
1096.4261
1096.4261
1096.4261
1096.4261
1096.4261
1096.4261
1096.4261
1096.4261
1096.4261
1096.4261
1096.4261
1096.4261
1096.4261
1096.4261
1096.4261
1096.4261
1096.4261
1096.4261
1096.4261
1096.4261
1096.4261
1096.4261
1096.4261
1096.4261
1096.4261
1096.4261
1096.4261
1096.4261
1096.4261
1096.4261
1096.4261
1096.4261
1096.4261
1096.4261
1096.4261
1096.4261
1096.4261
1096.4261
1096.4261
1096.4261
1096.4261
1096.4261
1096.4261
1096.4261
1096.4261
1096.4261
1096.4261
1096.4261
1096.4261
1096.4261
1096.4261
1096.4261
1096.4261
1096.4261
1096.4261
1096.4261
1096.4261
1096.4261
1096.4261
1096.4261
1096.4261
1096.4261
1096.4261
1096.4261
1096.4261
1096.4261
1096.4261
1096.4261
1096.4261
1096.4261
1096.4261
1096.4261
1096.4261
1096.4261
1096.4261
1096.4261
1096.4261
1096.4261
1096.4261
1096.4261
1096.4261
1096.4261
1096.4261
1096.4261
1096.4261
1096.4261
1096.4261
1096.4261
1096.4261
1096.4261
1096.4261
1096.4261
1096.4261
1096.4261
1096.4261
1096.4261
1096.4261
1096.4261
1096.4261
)
;

boundaryField
{
    Wall
    {
        type            zeroGradient;
    }
    frontAndBack
    {
        type            empty;
    }
    atmosphere
    {
        type            zeroGradient;
    }
}


// ************************************************************************* //
