/*--------------------------------*- C++ -*----------------------------------*\
| =========                 |                                                 |
| \\      /  F ield         | OpenFOAM: The Open Source CFD Toolbox           |
|  \\    /   O peration     | Version:  3.0.1                                 |
|   \\  /    A nd           | Web:      www.OpenFOAM.org                      |
|    \\/     M anipulation  |                                                 |
\*---------------------------------------------------------------------------*/
FoamFile
{
    version     2.0;
    format      ascii;
    class       volScalarField;
    location    "20";
    object      thermalDiff_foam;
}
// * * * * * * * * * * * * * * * * * * * * * * * * * * * * * * * * * * * * * //

dimensions      [0 2 -1 0 0 0 0];

internalField   nonuniform List<scalar> 
800
(
9.9533606e-08
9.9534844e-08
9.9534843e-08
9.9534761e-08
9.9534695e-08
9.9534644e-08
9.9534606e-08
9.953458e-08
9.9534563e-08
9.9534554e-08
9.9534554e-08
9.9534563e-08
9.953458e-08
9.9534606e-08
9.9534644e-08
9.9534695e-08
9.9534762e-08
9.9534843e-08
9.9534844e-08
9.9533606e-08
9.7863849e-08
9.7919467e-08
9.7926348e-08
9.7926922e-08
9.7926849e-08
9.7927064e-08
9.7927456e-08
9.7927853e-08
9.7928152e-08
9.792831e-08
9.792831e-08
9.7928152e-08
9.7927853e-08
9.7927456e-08
9.7927065e-08
9.7926849e-08
9.7926922e-08
9.7926349e-08
9.7919467e-08
9.7863849e-08
9.6274324e-08
9.634632e-08
9.6370972e-08
9.637284e-08
9.6373137e-08
9.6373689e-08
9.6374448e-08
9.6375175e-08
9.6375714e-08
9.6375997e-08
9.6375997e-08
9.6375714e-08
9.6375175e-08
9.6374448e-08
9.6373689e-08
9.6373137e-08
9.6372841e-08
9.6370973e-08
9.634632e-08
9.6274323e-08
9.4617787e-08
9.4715829e-08
9.4751324e-08
9.4753065e-08
9.4753352e-08
9.4753979e-08
9.4754921e-08
9.4755841e-08
9.4756528e-08
9.4756891e-08
9.4756891e-08
9.4756528e-08
9.4755841e-08
9.4754921e-08
9.4753979e-08
9.4753352e-08
9.4753065e-08
9.4751325e-08
9.4715829e-08
9.4617786e-08
9.2594827e-08
9.2730457e-08
9.277128e-08
9.2793218e-08
9.2793417e-08
9.2794084e-08
9.279517e-08
9.2796241e-08
9.2797041e-08
9.2797465e-08
9.2797465e-08
9.2797041e-08
9.2796241e-08
9.279517e-08
9.2794084e-08
9.2793417e-08
9.2793219e-08
9.2771281e-08
9.2730458e-08
9.2594826e-08
8.9935553e-08
9.0147934e-08
9.0191148e-08
9.0219627e-08
9.0220363e-08
9.0221524e-08
9.0222964e-08
9.0224253e-08
9.0225189e-08
9.0225675e-08
9.0225675e-08
9.0225188e-08
9.0224252e-08
9.0222964e-08
9.0221524e-08
9.0220363e-08
9.0219627e-08
9.0191149e-08
9.0147934e-08
8.9935552e-08
8.6760614e-08
8.7018092e-08
8.7059456e-08
8.7084657e-08
8.7087316e-08
8.7089691e-08
8.7091776e-08
8.7093366e-08
8.7094438e-08
8.7094969e-08
8.7094969e-08
8.7094437e-08
8.7093365e-08
8.7091776e-08
8.7089691e-08
8.7087316e-08
8.7084658e-08
8.7059456e-08
8.7018092e-08
8.6760613e-08
8.4011119e-08
8.4210476e-08
8.4252214e-08
8.4270234e-08
8.4274605e-08
8.4277789e-08
8.4280079e-08
8.4281636e-08
8.4282606e-08
8.4283066e-08
8.4283066e-08
8.4282606e-08
8.4281636e-08
8.4280078e-08
8.4277789e-08
8.4274605e-08
8.4270234e-08
8.4252214e-08
8.4210476e-08
8.4011118e-08
8.2422878e-08
8.2490311e-08
8.2512691e-08
8.2519199e-08
8.2521593e-08
8.2523143e-08
8.2524133e-08
8.2524765e-08
8.2525134e-08
8.2525302e-08
8.2525302e-08
8.2525133e-08
8.2524765e-08
8.2524133e-08
8.2523143e-08
8.2521593e-08
8.2519198e-08
8.2512691e-08
8.2490311e-08
8.2422878e-08
8.3350881e-08
8.3092516e-08
8.3010172e-08
8.2994419e-08
8.2988365e-08
8.298507e-08
8.2983243e-08
8.2982165e-08
8.298159e-08
8.2981342e-08
8.2981342e-08
8.2981591e-08
8.2982165e-08
8.2983244e-08
8.298507e-08
8.2988366e-08
8.2994419e-08
8.3010172e-08
8.3092516e-08
8.3350881e-08
0.00024111908
0.0002411492
0.0002412004
0.0002412389
0.00024126544
0.00024128521
0.00024130056
0.00024131211
0.00024131988
0.00024132378
0.00024132378
0.00024131988
0.00024131211
0.00024130056
0.00024128521
0.00024126544
0.00024123889
0.00024120039
0.0002411492
0.00024111908
0.00023976135
0.00023977983
0.00023980922
0.00023983734
0.00023986082
0.00023987992
0.00023989509
0.00023990651
0.00023991414
0.00023991797
0.00023991797
0.00023991414
0.0002399065
0.00023989509
0.00023987991
0.00023986082
0.00023983733
0.00023980921
0.00023977982
0.00023976134
0.00023850304
0.00023852891
0.00023855864
0.00023858642
0.00023861031
0.00023863001
0.00023864559
0.00023865719
0.00023866487
0.00023866869
0.00023866869
0.00023866487
0.00023865719
0.00023864559
0.00023863
0.00023861031
0.00023858642
0.00023855864
0.00023852891
0.00023850304
0.00023734713
0.00023738193
0.0002374194
0.00023745242
0.00023747971
0.00023750147
0.00023751819
0.00023753033
0.00023753824
0.00023754214
0.00023754214
0.00023753824
0.00023753033
0.00023751819
0.00023750146
0.00023747971
0.00023745242
0.0002374194
0.00023738193
0.00023734713
0.00023629466
0.00023633498
0.00023638003
0.00023641962
0.00023645169
0.00023647656
0.00023649515
0.00023650832
0.00023651672
0.00023652082
0.00023652082
0.00023651672
0.00023650832
0.00023649515
0.00023647656
0.00023645169
0.00023641962
0.00023638003
0.00023633498
0.00023629466
0.00023534288
0.00023538522
0.00023543518
0.00023548021
0.00023551688
0.00023554516
0.00023556601
0.00023558055
0.00023558972
0.00023559415
0.00023559415
0.00023558972
0.00023558055
0.00023556601
0.00023554516
0.00023551688
0.00023548021
0.00023543518
0.00023538522
0.00023534288
0.00023448608
0.00023452803
0.00023458003
0.00023462845
0.00023466865
0.00023469989
0.00023472296
0.000234739
0.00023474907
0.00023475391
0.00023475391
0.00023474907
0.000234739
0.00023472296
0.00023469989
0.00023466865
0.00023462845
0.00023458003
0.00023452803
0.00023448608
0.00023371688
0.00023375706
0.00023380886
0.00023385863
0.0002339009
0.00023393427
0.00023395914
0.00023397653
0.00023398746
0.00023399273
0.00023399273
0.00023398746
0.00023397653
0.00023395914
0.00023393427
0.0002339009
0.00023385863
0.00023380886
0.00023375706
0.00023371688
0.00023302732
0.00023306505
0.00023311516
0.0002331646
0.00023320754
0.00023324204
0.0002332681
0.00023328648
0.00023329812
0.00023330374
0.00023330374
0.00023329812
0.00023328648
0.0002332681
0.00023324204
0.00023320754
0.0002331646
0.00023311516
0.00023306505
0.00023302732
0.00023240959
0.00023244458
0.0002324921
0.00023254001
0.00023258245
0.00023261713
0.00023264369
0.00023266264
0.00023267472
0.00023268058
0.00023268059
0.00023267472
0.00023266264
0.00023264369
0.00023261713
0.00023258246
0.00023254002
0.0002324921
0.00023244458
0.00023240959
0.00023185636
0.00023188857
0.00023193301
0.00023197861
0.00023201966
0.00023205372
0.00023208015
0.0002320992
0.00023211145
0.00023211743
0.00023211743
0.00023211145
0.0002320992
0.00023208015
0.00023205372
0.00023201966
0.00023197861
0.00023193301
0.00023188857
0.00023185636
0.000231361
0.00023139047
0.00023143164
0.00023147444
0.0002315135
0.00023154632
0.00023157209
0.00023159085
0.00023160301
0.00023160896
0.00023160896
0.00023160301
0.00023159085
0.00023157209
0.00023154633
0.0002315135
0.00023147444
0.00023143165
0.00023139048
0.000231361
0.00023091756
0.00023094442
0.00023098228
0.00023102204
0.00023105872
0.00023108987
0.00023111457
0.00023113271
0.00023114454
0.00023115036
0.00023115036
0.00023114454
0.00023113271
0.00023111458
0.00023108988
0.00023105872
0.00023102204
0.00023098228
0.00023094443
0.00023091756
0.00023052078
0.00023054517
0.00023057978
0.00023061642
0.00023065051
0.00023067972
0.00023070307
0.00023072034
0.00023073166
0.00023073725
0.00023073725
0.00023073166
0.00023072034
0.00023070307
0.00023067972
0.00023065051
0.00023061642
0.00023057978
0.00023054517
0.00023052078
0.00023016598
0.00023018806
0.00023021955
0.00023025309
0.00023028451
0.00023031162
0.00023033344
0.00023034967
0.00023036036
0.00023036566
0.00023036566
0.00023036036
0.00023034967
0.00023033344
0.00023031162
0.00023028451
0.00023025309
0.00023021955
0.00023018806
0.00023016598
0.00022984904
0.00022986897
0.0002298975
0.00022992804
0.00022995679
0.00022998174
0.00023000193
0.00023001702
0.00023002701
0.00023003196
0.00023003196
0.00023002701
0.00023001703
0.00023000193
0.00022998175
0.0002299568
0.00022992804
0.0002298975
0.00022986897
0.00022984905
0.00022956631
0.00022958424
0.00022960999
0.00022963765
0.00022966382
0.00022968662
0.00022970514
0.00022971905
0.00022972828
0.00022973287
0.00022973287
0.00022972828
0.00022971905
0.00022970515
0.00022968662
0.00022966382
0.00022963765
0.00022960999
0.00022958424
0.00022956631
0.00022931455
0.00022933063
0.00022935378
0.00022937873
0.0002294024
0.00022942311
0.00022944
0.00022945272
0.00022946117
0.00022946539
0.00022946539
0.00022946117
0.00022945272
0.00022944
0.00022942311
0.00022940241
0.00022937873
0.00022935378
0.00022933063
0.00022931455
0.00022909089
0.00022910526
0.000229126
0.0002291484
0.00022916973
0.00022918843
0.00022920372
0.00022921527
0.00022922296
0.0002292268
0.0002292268
0.00022922296
0.00022921527
0.00022920372
0.00022918843
0.00022916973
0.00022914841
0.000229126
0.00022910526
0.00022909089
0.00022889282
0.00022890562
0.00022892412
0.00022894415
0.00022896325
0.00022898005
0.00022899383
0.00022900425
0.0002290112
0.00022901468
0.00022901468
0.0002290112
0.00022900425
0.00022899383
0.00022898005
0.00022896326
0.00022894415
0.00022892412
0.00022890562
0.00022889282
0.00022871813
0.00022872948
0.00022874591
0.00022876373
0.00022878077
0.00022879578
0.00022880811
0.00022881746
0.00022882371
0.00022882684
0.00022882684
0.00022882371
0.00022881746
0.00022880811
0.00022879578
0.00022878077
0.00022876373
0.00022874591
0.00022872948
0.00022871813
0.00022856492
0.00022857493
0.00022858944
0.00022860521
0.00022862032
0.00022863367
0.00022864465
0.00022865299
0.00022865858
0.00022866137
0.00022866137
0.00022865858
0.00022865299
0.00022864465
0.00022863367
0.00022862033
0.00022860522
0.00022858944
0.00022857493
0.00022856492
0.00022843155
0.00022844032
0.00022845306
0.00022846694
0.00022848026
0.00022849205
0.00022850178
0.00022850918
0.00022851415
0.00022851663
0.00022851663
0.00022851415
0.00022850918
0.00022850178
0.00022849206
0.00022848026
0.00022846694
0.00022845306
0.00022844032
0.00022843155
0.00022831667
0.00022832429
0.00022833539
0.00022834752
0.00022835919
0.00022836956
0.00022837812
0.00022838466
0.00022838905
0.00022839124
0.00022839124
0.00022838905
0.00022838466
0.00022837813
0.00022836956
0.00022835919
0.00022834752
0.00022833539
0.00022832429
0.00022831667
0.00022821921
0.00022822576
0.00022823534
0.00022824586
0.00022825602
0.00022826507
0.00022827258
0.00022827832
0.00022828218
0.00022828412
0.00022828412
0.00022828218
0.00022827832
0.00022827258
0.00022826507
0.00022825602
0.00022824586
0.00022823535
0.00022822576
0.00022821921
0.00022813835
0.00022814391
0.0002281521
0.00022816114
0.00022816992
0.00022817779
0.00022818435
0.00022818938
0.00022819277
0.00022819448
0.00022819448
0.00022819277
0.00022818938
0.00022818435
0.00022817779
0.00022816992
0.00022816114
0.0002281521
0.00022814392
0.00022813835
0.00022807359
0.00022807824
0.00022808515
0.00022809286
0.00022810043
0.00022810725
0.00022811297
0.00022811739
0.00022812037
0.00022812188
0.00022812188
0.00022812037
0.00022811739
0.00022811297
0.00022810725
0.00022810043
0.00022809286
0.00022808515
0.00022807824
0.00022807359
0.00022802468
0.0002280285
0.0002280343
0.00022804086
0.00022804739
0.00022805333
0.00022805836
0.00022806227
0.00022806492
0.00022806627
0.00022806627
0.00022806492
0.00022806227
0.00022805836
0.00022805333
0.00022804739
0.00022804086
0.0002280343
0.0002280285
0.00022802468
0.00022799167
0.00022799481
0.0002279997
0.00022800536
0.00022801107
0.00022801636
0.00022802087
0.0002280244
0.00022802681
0.00022802803
0.00022802803
0.00022802681
0.0002280244
0.00022802087
0.00022801636
0.00022801107
0.00022800536
0.0002279997
0.00022799481
0.00022799167
0.0002279749
0.00022797757
0.00022798188
0.000227987
0.00022799224
0.00022799714
0.00022800136
0.00022800468
0.00022800696
0.00022800812
0.00022800812
0.00022800696
0.00022800468
0.00022800136
0.00022799714
0.00022799224
0.000227987
0.00022798189
0.00022797757
0.0002279749
)
;

boundaryField
{
    Wall
    {
        type            calculated;
        value           uniform 4e-05;
    }
    frontAndBack
    {
        type            empty;
    }
    atmosphere
    {
        type            calculated;
        value           uniform 4e-05;
    }
}


// ************************************************************************* //
