/*--------------------------------*- C++ -*----------------------------------*\
| =========                 |                                                 |
| \\      /  F ield         | OpenFOAM: The Open Source CFD Toolbox           |
|  \\    /   O peration     | Version:  3.0.1                                 |
|   \\  /    A nd           | Web:      www.OpenFOAM.org                      |
|    \\/     M anipulation  |                                                 |
\*---------------------------------------------------------------------------*/
FoamFile
{
    version     2.0;
    format      ascii;
    class       volScalarField;
    location    "20";
    object      thermalDiff_gas;
}
// * * * * * * * * * * * * * * * * * * * * * * * * * * * * * * * * * * * * * //

dimensions      [0 2 -1 0 0 0 0];

internalField   nonuniform List<scalar> 
800
(
0.00027556078
0.00027556584
0.0002755665
0.00027556659
0.00027556662
0.00027556666
0.00027556669
0.00027556672
0.00027556674
0.00027556675
0.00027556675
0.00027556674
0.00027556672
0.00027556669
0.00027556666
0.00027556662
0.00027556659
0.0002755665
0.00027556584
0.00027556078
0.0002713286
0.00027143867
0.0002714558
0.00027145729
0.00027145708
0.00027145734
0.000271458
0.00027145872
0.00027145929
0.0002714596
0.0002714596
0.00027145929
0.00027145872
0.000271458
0.00027145734
0.00027145708
0.0002714573
0.0002714558
0.00027143867
0.0002713286
0.00026801638
0.0002681793
0.00026821432
0.00026821872
0.00026821897
0.00026821945
0.00026822044
0.00026822153
0.00026822239
0.00026822285
0.00026822285
0.00026822239
0.00026822153
0.00026822044
0.00026821945
0.00026821897
0.00026821872
0.00026821432
0.00026817931
0.00026801638
0.00026557215
0.00026578075
0.00026583324
0.00026584013
0.00026584057
0.00026584076
0.00026584163
0.00026584264
0.0002658435
0.00026584397
0.00026584398
0.0002658435
0.00026584264
0.00026584163
0.00026584076
0.00026584058
0.00026584014
0.00026583324
0.00026578076
0.00026557216
0.00026371011
0.00026395565
0.00026403395
0.00026404622
0.00026404745
0.0002640473
0.00026404786
0.00026404856
0.00026404926
0.00026404963
0.00026404963
0.00026404926
0.00026404856
0.00026404787
0.0002640473
0.00026404746
0.00026404623
0.00026403395
0.00026395566
0.00026371012
0.00026180413
0.00026212003
0.00026224218
0.0002622659
0.00026227053
0.00026227128
0.00026227213
0.00026227276
0.00026227342
0.00026227372
0.00026227372
0.00026227343
0.00026227277
0.00026227213
0.00026227129
0.00026227054
0.0002622659
0.00026224219
0.00026212004
0.00026180414
0.00025874396
0.00025922785
0.00025938325
0.00025942865
0.0002594425
0.00025944746
0.00025945048
0.00025945218
0.00025945342
0.00025945392
0.00025945392
0.00025945342
0.00025945218
0.00025945049
0.00025944747
0.00025944251
0.00025942866
0.00025938326
0.00025922787
0.00025874397
0.00025292186
0.00025364644
0.00025386163
0.00025393993
0.00025397083
0.00025398518
0.00025399356
0.00025399835
0.00025400131
0.00025400256
0.00025400257
0.00025400132
0.00025399835
0.00025399357
0.00025398519
0.00025397083
0.00025393995
0.00025386165
0.00025364645
0.00025292187
0.000245581
0.00024616352
0.00024643469
0.00024649549
0.00024652375
0.0002465429
0.00024655729
0.0002465677
0.00024657457
0.00024657794
0.00024657794
0.00024657457
0.0002465677
0.00024655729
0.0002465429
0.00024652375
0.00024649549
0.00024643469
0.00024616352
0.000245581
0.00024297675
0.00024323025
0.00024339809
0.00024346899
0.00024350226
0.00024352347
0.00024353933
0.00024355114
0.00024355905
0.00024356302
0.00024356302
0.00024355905
0.00024355114
0.00024353932
0.00024352347
0.00024350225
0.00024346898
0.00024339809
0.00024323025
0.00024297675
0.00024111908
0.0002411492
0.0002412004
0.0002412389
0.00024126544
0.00024128521
0.00024130056
0.00024131211
0.00024131988
0.00024132378
0.00024132378
0.00024131988
0.00024131211
0.00024130056
0.00024128521
0.00024126544
0.00024123889
0.00024120039
0.0002411492
0.00024111908
0.00023976135
0.00023977983
0.00023980922
0.00023983734
0.00023986082
0.00023987992
0.00023989509
0.00023990651
0.00023991414
0.00023991797
0.00023991797
0.00023991414
0.0002399065
0.00023989509
0.00023987991
0.00023986082
0.00023983733
0.00023980921
0.00023977982
0.00023976134
0.00023850304
0.00023852891
0.00023855864
0.00023858642
0.00023861031
0.00023863001
0.00023864559
0.00023865719
0.00023866487
0.00023866869
0.00023866869
0.00023866487
0.00023865719
0.00023864559
0.00023863
0.00023861031
0.00023858642
0.00023855864
0.00023852891
0.00023850304
0.00023734713
0.00023738193
0.0002374194
0.00023745242
0.00023747971
0.00023750147
0.00023751819
0.00023753033
0.00023753824
0.00023754214
0.00023754214
0.00023753824
0.00023753033
0.00023751819
0.00023750146
0.00023747971
0.00023745242
0.0002374194
0.00023738193
0.00023734713
0.00023629466
0.00023633498
0.00023638003
0.00023641962
0.00023645169
0.00023647656
0.00023649515
0.00023650832
0.00023651672
0.00023652082
0.00023652082
0.00023651672
0.00023650832
0.00023649515
0.00023647656
0.00023645169
0.00023641962
0.00023638003
0.00023633498
0.00023629466
0.00023534288
0.00023538522
0.00023543518
0.00023548021
0.00023551688
0.00023554516
0.00023556601
0.00023558055
0.00023558972
0.00023559415
0.00023559415
0.00023558972
0.00023558055
0.00023556601
0.00023554516
0.00023551688
0.00023548021
0.00023543518
0.00023538522
0.00023534288
0.00023448608
0.00023452803
0.00023458003
0.00023462845
0.00023466865
0.00023469989
0.00023472296
0.000234739
0.00023474907
0.00023475391
0.00023475391
0.00023474907
0.000234739
0.00023472296
0.00023469989
0.00023466865
0.00023462845
0.00023458003
0.00023452803
0.00023448608
0.00023371688
0.00023375706
0.00023380886
0.00023385863
0.0002339009
0.00023393427
0.00023395914
0.00023397653
0.00023398746
0.00023399273
0.00023399273
0.00023398746
0.00023397653
0.00023395914
0.00023393427
0.0002339009
0.00023385863
0.00023380886
0.00023375706
0.00023371688
0.00023302732
0.00023306505
0.00023311516
0.0002331646
0.00023320754
0.00023324204
0.0002332681
0.00023328648
0.00023329812
0.00023330374
0.00023330374
0.00023329812
0.00023328648
0.0002332681
0.00023324204
0.00023320754
0.0002331646
0.00023311516
0.00023306505
0.00023302732
0.00023240959
0.00023244458
0.0002324921
0.00023254001
0.00023258245
0.00023261713
0.00023264369
0.00023266264
0.00023267472
0.00023268058
0.00023268059
0.00023267472
0.00023266264
0.00023264369
0.00023261713
0.00023258246
0.00023254002
0.0002324921
0.00023244458
0.00023240959
0.00023185636
0.00023188857
0.00023193301
0.00023197861
0.00023201966
0.00023205372
0.00023208015
0.0002320992
0.00023211145
0.00023211743
0.00023211743
0.00023211145
0.0002320992
0.00023208015
0.00023205372
0.00023201966
0.00023197861
0.00023193301
0.00023188857
0.00023185636
0.000231361
0.00023139047
0.00023143164
0.00023147444
0.0002315135
0.00023154632
0.00023157209
0.00023159085
0.00023160301
0.00023160896
0.00023160896
0.00023160301
0.00023159085
0.00023157209
0.00023154633
0.0002315135
0.00023147444
0.00023143165
0.00023139048
0.000231361
0.00023091756
0.00023094442
0.00023098228
0.00023102204
0.00023105872
0.00023108987
0.00023111457
0.00023113271
0.00023114454
0.00023115036
0.00023115036
0.00023114454
0.00023113271
0.00023111458
0.00023108988
0.00023105872
0.00023102204
0.00023098228
0.00023094443
0.00023091756
0.00023052078
0.00023054517
0.00023057978
0.00023061642
0.00023065051
0.00023067972
0.00023070307
0.00023072034
0.00023073166
0.00023073725
0.00023073725
0.00023073166
0.00023072034
0.00023070307
0.00023067972
0.00023065051
0.00023061642
0.00023057978
0.00023054517
0.00023052078
0.00023016598
0.00023018806
0.00023021955
0.00023025309
0.00023028451
0.00023031162
0.00023033344
0.00023034967
0.00023036036
0.00023036566
0.00023036566
0.00023036036
0.00023034967
0.00023033344
0.00023031162
0.00023028451
0.00023025309
0.00023021955
0.00023018806
0.00023016598
0.00022984904
0.00022986897
0.0002298975
0.00022992804
0.00022995679
0.00022998174
0.00023000193
0.00023001702
0.00023002701
0.00023003196
0.00023003196
0.00023002701
0.00023001703
0.00023000193
0.00022998175
0.0002299568
0.00022992804
0.0002298975
0.00022986897
0.00022984905
0.00022956631
0.00022958424
0.00022960999
0.00022963765
0.00022966382
0.00022968662
0.00022970514
0.00022971905
0.00022972828
0.00022973287
0.00022973287
0.00022972828
0.00022971905
0.00022970515
0.00022968662
0.00022966382
0.00022963765
0.00022960999
0.00022958424
0.00022956631
0.00022931455
0.00022933063
0.00022935378
0.00022937873
0.0002294024
0.00022942311
0.00022944
0.00022945272
0.00022946117
0.00022946539
0.00022946539
0.00022946117
0.00022945272
0.00022944
0.00022942311
0.00022940241
0.00022937873
0.00022935378
0.00022933063
0.00022931455
0.00022909089
0.00022910526
0.000229126
0.0002291484
0.00022916973
0.00022918843
0.00022920372
0.00022921527
0.00022922296
0.0002292268
0.0002292268
0.00022922296
0.00022921527
0.00022920372
0.00022918843
0.00022916973
0.00022914841
0.000229126
0.00022910526
0.00022909089
0.00022889282
0.00022890562
0.00022892412
0.00022894415
0.00022896325
0.00022898005
0.00022899383
0.00022900425
0.0002290112
0.00022901468
0.00022901468
0.0002290112
0.00022900425
0.00022899383
0.00022898005
0.00022896326
0.00022894415
0.00022892412
0.00022890562
0.00022889282
0.00022871813
0.00022872948
0.00022874591
0.00022876373
0.00022878077
0.00022879578
0.00022880811
0.00022881746
0.00022882371
0.00022882684
0.00022882684
0.00022882371
0.00022881746
0.00022880811
0.00022879578
0.00022878077
0.00022876373
0.00022874591
0.00022872948
0.00022871813
0.00022856492
0.00022857493
0.00022858944
0.00022860521
0.00022862032
0.00022863367
0.00022864465
0.00022865299
0.00022865858
0.00022866137
0.00022866137
0.00022865858
0.00022865299
0.00022864465
0.00022863367
0.00022862033
0.00022860522
0.00022858944
0.00022857493
0.00022856492
0.00022843155
0.00022844032
0.00022845306
0.00022846694
0.00022848026
0.00022849205
0.00022850178
0.00022850918
0.00022851415
0.00022851663
0.00022851663
0.00022851415
0.00022850918
0.00022850178
0.00022849206
0.00022848026
0.00022846694
0.00022845306
0.00022844032
0.00022843155
0.00022831667
0.00022832429
0.00022833539
0.00022834752
0.00022835919
0.00022836956
0.00022837812
0.00022838466
0.00022838905
0.00022839124
0.00022839124
0.00022838905
0.00022838466
0.00022837813
0.00022836956
0.00022835919
0.00022834752
0.00022833539
0.00022832429
0.00022831667
0.00022821921
0.00022822576
0.00022823534
0.00022824586
0.00022825602
0.00022826507
0.00022827258
0.00022827832
0.00022828218
0.00022828412
0.00022828412
0.00022828218
0.00022827832
0.00022827258
0.00022826507
0.00022825602
0.00022824586
0.00022823535
0.00022822576
0.00022821921
0.00022813835
0.00022814391
0.0002281521
0.00022816114
0.00022816992
0.00022817779
0.00022818435
0.00022818938
0.00022819277
0.00022819448
0.00022819448
0.00022819277
0.00022818938
0.00022818435
0.00022817779
0.00022816992
0.00022816114
0.0002281521
0.00022814392
0.00022813835
0.00022807359
0.00022807824
0.00022808515
0.00022809286
0.00022810043
0.00022810725
0.00022811297
0.00022811739
0.00022812037
0.00022812188
0.00022812188
0.00022812037
0.00022811739
0.00022811297
0.00022810725
0.00022810043
0.00022809286
0.00022808515
0.00022807824
0.00022807359
0.00022802468
0.0002280285
0.0002280343
0.00022804086
0.00022804739
0.00022805333
0.00022805836
0.00022806227
0.00022806492
0.00022806627
0.00022806627
0.00022806492
0.00022806227
0.00022805836
0.00022805333
0.00022804739
0.00022804086
0.0002280343
0.0002280285
0.00022802468
0.00022799167
0.00022799481
0.0002279997
0.00022800536
0.00022801107
0.00022801636
0.00022802087
0.0002280244
0.00022802681
0.00022802803
0.00022802803
0.00022802681
0.0002280244
0.00022802087
0.00022801636
0.00022801107
0.00022800536
0.0002279997
0.00022799481
0.00022799167
0.0002279749
0.00022797757
0.00022798188
0.000227987
0.00022799224
0.00022799714
0.00022800136
0.00022800468
0.00022800696
0.00022800812
0.00022800812
0.00022800696
0.00022800468
0.00022800136
0.00022799714
0.00022799224
0.000227987
0.00022798189
0.00022797757
0.0002279749
)
;

boundaryField
{
    Wall
    {
        type            calculated;
        value           uniform 0.1;
    }
    frontAndBack
    {
        type            empty;
    }
    atmosphere
    {
        type            calculated;
        value           uniform 0.1;
    }
}


// ************************************************************************* //
