/*--------------------------------*- C++ -*----------------------------------*\
| =========                 |                                                 |
| \\      /  F ield         | OpenFOAM: The Open Source CFD Toolbox           |
|  \\    /   O peration     | Version:  3.0.1                                 |
|   \\  /    A nd           | Web:      www.OpenFOAM.org                      |
|    \\/     M anipulation  |                                                 |
\*---------------------------------------------------------------------------*/
FoamFile
{
    version     2.0;
    format      ascii;
    class       volScalarField;
    location    "20";
    object      thermalDiffusivity;
}
// * * * * * * * * * * * * * * * * * * * * * * * * * * * * * * * * * * * * * //

dimensions      [0 2 -1 0 0 0 0];

internalField   nonuniform List<scalar> 
800
(
9.9533606e-08
9.9534844e-08
9.9534843e-08
9.9534761e-08
9.9534695e-08
9.9534644e-08
9.9534606e-08
9.953458e-08
9.9534563e-08
9.9534554e-08
9.9534554e-08
9.9534563e-08
9.953458e-08
9.9534606e-08
9.9534644e-08
9.9534695e-08
9.9534762e-08
9.9534843e-08
9.9534844e-08
9.9533606e-08
9.786385e-08
9.7919467e-08
9.7926363e-08
9.7926927e-08
9.7926849e-08
9.7927071e-08
9.7927461e-08
9.792786e-08
9.7928166e-08
9.7928343e-08
9.7928327e-08
9.7928169e-08
9.7927862e-08
9.7927461e-08
9.792707e-08
9.792685e-08
9.7926922e-08
9.7926349e-08
9.791947e-08
9.7863849e-08
9.7985678e-08
9.795561e-08
9.7966904e-08
9.7970928e-08
9.7973415e-08
9.7975429e-08
9.7976818e-08
9.7977764e-08
9.7978343e-08
9.7978626e-08
9.7978616e-08
9.7978345e-08
9.7977765e-08
9.7976817e-08
9.7975427e-08
9.7973415e-08
9.7970924e-08
9.7966894e-08
9.7955611e-08
9.7985677e-08
1.0264542e-07
1.0220971e-07
1.0218309e-07
1.0219758e-07
1.0220816e-07
1.0221501e-07
1.0221869e-07
1.022204e-07
1.0222126e-07
1.0222158e-07
1.0222157e-07
1.0222126e-07
1.022204e-07
1.0221869e-07
1.02215e-07
1.0220815e-07
1.0219757e-07
1.0218308e-07
1.0220971e-07
1.0264542e-07
1.1600996e-07
1.1437392e-07
1.1421618e-07
1.142644e-07
1.1429022e-07
1.1430514e-07
1.1431268e-07
1.143158e-07
1.1431723e-07
1.1431762e-07
1.1431761e-07
1.1431722e-07
1.1431579e-07
1.1431266e-07
1.1430512e-07
1.142902e-07
1.1426438e-07
1.1421615e-07
1.143739e-07
1.1600994e-07
1.4869316e-07
1.4351787e-07
1.429229e-07
1.429289e-07
1.4296078e-07
1.4298171e-07
1.4299303e-07
1.4300032e-07
1.4300416e-07
1.4300581e-07
1.430058e-07
1.4300414e-07
1.430003e-07
1.4299299e-07
1.4298165e-07
1.4296072e-07
1.4292882e-07
1.4292282e-07
1.435178e-07
1.4869307e-07
2.4831993e-07
2.2853883e-07
2.2564509e-07
2.2514659e-07
2.250481e-07
2.2503527e-07
2.2504522e-07
2.2507319e-07
2.2509274e-07
2.2510547e-07
2.2510544e-07
2.250927e-07
2.250731e-07
2.2504509e-07
2.2503508e-07
2.2504788e-07
2.2514631e-07
2.256448e-07
2.2853852e-07
2.4831953e-07
7.6504402e-07
6.3954862e-07
6.1639997e-07
6.1111376e-07
6.0942704e-07
6.0902225e-07
6.0905559e-07
6.0929522e-07
6.0949171e-07
6.0962153e-07
6.0962144e-07
6.094915e-07
6.0929481e-07
6.0905489e-07
6.0902123e-07
6.0942575e-07
6.1111219e-07
6.1639826e-07
6.3954657e-07
7.6504124e-07
8.5415253e-06
6.0882021e-06
5.6203171e-06
5.4997962e-06
5.4598642e-06
5.4519294e-06
5.454647e-06
5.4612132e-06
5.4666193e-06
5.4699658e-06
5.4699644e-06
5.4666156e-06
5.4612062e-06
5.4546348e-06
5.4519114e-06
5.4598408e-06
5.499768e-06
5.6202857e-06
6.0881642e-06
8.5414674e-06
0.00011278507
9.4969308e-05
9.0805158e-05
8.9712499e-05
8.9356658e-05
8.9299029e-05
8.9338632e-05
8.9410028e-05
8.9467416e-05
8.9502196e-05
8.9502184e-05
8.9467382e-05
8.9409962e-05
8.9338519e-05
8.9298863e-05
8.9356443e-05
8.971224e-05
9.0804874e-05
9.4968986e-05
0.00011278472
0.00024111908
0.0002411492
0.0002412004
0.0002412389
0.00024126544
0.00024128521
0.00024130056
0.00024131211
0.00024131988
0.00024132378
0.00024132378
0.00024131988
0.00024131211
0.00024130056
0.00024128521
0.00024126544
0.00024123889
0.00024120039
0.0002411492
0.00024111908
0.00023976135
0.00023977983
0.00023980922
0.00023983734
0.00023986082
0.00023987992
0.00023989509
0.00023990651
0.00023991414
0.00023991797
0.00023991797
0.00023991414
0.0002399065
0.00023989509
0.00023987991
0.00023986082
0.00023983733
0.00023980921
0.00023977982
0.00023976134
0.00023850304
0.00023852891
0.00023855864
0.00023858642
0.00023861031
0.00023863001
0.00023864559
0.00023865719
0.00023866487
0.00023866869
0.00023866869
0.00023866487
0.00023865719
0.00023864559
0.00023863
0.00023861031
0.00023858642
0.00023855864
0.00023852891
0.00023850304
0.00023734713
0.00023738193
0.0002374194
0.00023745242
0.00023747971
0.00023750147
0.00023751819
0.00023753033
0.00023753824
0.00023754214
0.00023754214
0.00023753824
0.00023753033
0.00023751819
0.00023750146
0.00023747971
0.00023745242
0.0002374194
0.00023738193
0.00023734713
0.00023629466
0.00023633498
0.00023638003
0.00023641962
0.00023645169
0.00023647656
0.00023649515
0.00023650832
0.00023651672
0.00023652082
0.00023652082
0.00023651672
0.00023650832
0.00023649515
0.00023647656
0.00023645169
0.00023641962
0.00023638003
0.00023633498
0.00023629466
0.00023534288
0.00023538522
0.00023543518
0.00023548021
0.00023551688
0.00023554516
0.00023556601
0.00023558055
0.00023558972
0.00023559415
0.00023559415
0.00023558972
0.00023558055
0.00023556601
0.00023554516
0.00023551688
0.00023548021
0.00023543518
0.00023538522
0.00023534288
0.00023448608
0.00023452803
0.00023458003
0.00023462845
0.00023466865
0.00023469989
0.00023472296
0.000234739
0.00023474907
0.00023475391
0.00023475391
0.00023474907
0.000234739
0.00023472296
0.00023469989
0.00023466865
0.00023462845
0.00023458003
0.00023452803
0.00023448608
0.00023371688
0.00023375706
0.00023380886
0.00023385863
0.0002339009
0.00023393427
0.00023395914
0.00023397653
0.00023398746
0.00023399273
0.00023399273
0.00023398746
0.00023397653
0.00023395914
0.00023393427
0.0002339009
0.00023385863
0.00023380886
0.00023375706
0.00023371688
0.00023302732
0.00023306505
0.00023311516
0.0002331646
0.00023320754
0.00023324204
0.0002332681
0.00023328648
0.00023329812
0.00023330374
0.00023330374
0.00023329812
0.00023328648
0.0002332681
0.00023324204
0.00023320754
0.0002331646
0.00023311516
0.00023306505
0.00023302732
0.00023240959
0.00023244458
0.0002324921
0.00023254001
0.00023258245
0.00023261713
0.00023264369
0.00023266264
0.00023267472
0.00023268058
0.00023268059
0.00023267472
0.00023266264
0.00023264369
0.00023261713
0.00023258246
0.00023254002
0.0002324921
0.00023244458
0.00023240959
0.00023185636
0.00023188857
0.00023193301
0.00023197861
0.00023201966
0.00023205372
0.00023208015
0.0002320992
0.00023211145
0.00023211743
0.00023211743
0.00023211145
0.0002320992
0.00023208015
0.00023205372
0.00023201966
0.00023197861
0.00023193301
0.00023188857
0.00023185636
0.000231361
0.00023139047
0.00023143164
0.00023147444
0.0002315135
0.00023154632
0.00023157209
0.00023159085
0.00023160301
0.00023160896
0.00023160896
0.00023160301
0.00023159085
0.00023157209
0.00023154633
0.0002315135
0.00023147444
0.00023143165
0.00023139048
0.000231361
0.00023091756
0.00023094442
0.00023098228
0.00023102204
0.00023105872
0.00023108987
0.00023111457
0.00023113271
0.00023114454
0.00023115036
0.00023115036
0.00023114454
0.00023113271
0.00023111458
0.00023108988
0.00023105872
0.00023102204
0.00023098228
0.00023094443
0.00023091756
0.00023052078
0.00023054517
0.00023057978
0.00023061642
0.00023065051
0.00023067972
0.00023070307
0.00023072034
0.00023073166
0.00023073725
0.00023073725
0.00023073166
0.00023072034
0.00023070307
0.00023067972
0.00023065051
0.00023061642
0.00023057978
0.00023054517
0.00023052078
0.00023016598
0.00023018806
0.00023021955
0.00023025309
0.00023028451
0.00023031162
0.00023033344
0.00023034967
0.00023036036
0.00023036566
0.00023036566
0.00023036036
0.00023034967
0.00023033344
0.00023031162
0.00023028451
0.00023025309
0.00023021955
0.00023018806
0.00023016598
0.00022984904
0.00022986897
0.0002298975
0.00022992804
0.00022995679
0.00022998174
0.00023000193
0.00023001702
0.00023002701
0.00023003196
0.00023003196
0.00023002701
0.00023001703
0.00023000193
0.00022998175
0.0002299568
0.00022992804
0.0002298975
0.00022986897
0.00022984905
0.00022956631
0.00022958424
0.00022960999
0.00022963765
0.00022966382
0.00022968662
0.00022970514
0.00022971905
0.00022972828
0.00022973287
0.00022973287
0.00022972828
0.00022971905
0.00022970515
0.00022968662
0.00022966382
0.00022963765
0.00022960999
0.00022958424
0.00022956631
0.00022931455
0.00022933063
0.00022935378
0.00022937873
0.0002294024
0.00022942311
0.00022944
0.00022945272
0.00022946117
0.00022946539
0.00022946539
0.00022946117
0.00022945272
0.00022944
0.00022942311
0.00022940241
0.00022937873
0.00022935378
0.00022933063
0.00022931455
0.00022909089
0.00022910526
0.000229126
0.0002291484
0.00022916973
0.00022918843
0.00022920372
0.00022921527
0.00022922296
0.0002292268
0.0002292268
0.00022922296
0.00022921527
0.00022920372
0.00022918843
0.00022916973
0.00022914841
0.000229126
0.00022910526
0.00022909089
0.00022889282
0.00022890562
0.00022892412
0.00022894415
0.00022896325
0.00022898005
0.00022899383
0.00022900425
0.0002290112
0.00022901468
0.00022901468
0.0002290112
0.00022900425
0.00022899383
0.00022898005
0.00022896326
0.00022894415
0.00022892412
0.00022890562
0.00022889282
0.00022871813
0.00022872948
0.00022874591
0.00022876373
0.00022878077
0.00022879578
0.00022880811
0.00022881746
0.00022882371
0.00022882684
0.00022882684
0.00022882371
0.00022881746
0.00022880811
0.00022879578
0.00022878077
0.00022876373
0.00022874591
0.00022872948
0.00022871813
0.00022856492
0.00022857493
0.00022858944
0.00022860521
0.00022862032
0.00022863367
0.00022864465
0.00022865299
0.00022865858
0.00022866137
0.00022866137
0.00022865858
0.00022865299
0.00022864465
0.00022863367
0.00022862033
0.00022860522
0.00022858944
0.00022857493
0.00022856492
0.00022843155
0.00022844032
0.00022845306
0.00022846694
0.00022848026
0.00022849205
0.00022850178
0.00022850918
0.00022851415
0.00022851663
0.00022851663
0.00022851415
0.00022850918
0.00022850178
0.00022849206
0.00022848026
0.00022846694
0.00022845306
0.00022844032
0.00022843155
0.00022831667
0.00022832429
0.00022833539
0.00022834752
0.00022835919
0.00022836956
0.00022837812
0.00022838466
0.00022838905
0.00022839124
0.00022839124
0.00022838905
0.00022838466
0.00022837813
0.00022836956
0.00022835919
0.00022834752
0.00022833539
0.00022832429
0.00022831667
0.00022821921
0.00022822576
0.00022823534
0.00022824586
0.00022825602
0.00022826507
0.00022827258
0.00022827832
0.00022828218
0.00022828412
0.00022828412
0.00022828218
0.00022827832
0.00022827258
0.00022826507
0.00022825602
0.00022824586
0.00022823535
0.00022822576
0.00022821921
0.00022813835
0.00022814391
0.0002281521
0.00022816114
0.00022816992
0.00022817779
0.00022818435
0.00022818938
0.00022819277
0.00022819448
0.00022819448
0.00022819277
0.00022818938
0.00022818435
0.00022817779
0.00022816992
0.00022816114
0.0002281521
0.00022814392
0.00022813835
0.00022807359
0.00022807824
0.00022808515
0.00022809286
0.00022810043
0.00022810725
0.00022811297
0.00022811739
0.00022812037
0.00022812188
0.00022812188
0.00022812037
0.00022811739
0.00022811297
0.00022810725
0.00022810043
0.00022809286
0.00022808515
0.00022807824
0.00022807359
0.00022802468
0.0002280285
0.0002280343
0.00022804086
0.00022804739
0.00022805333
0.00022805836
0.00022806227
0.00022806492
0.00022806627
0.00022806627
0.00022806492
0.00022806227
0.00022805836
0.00022805333
0.00022804739
0.00022804086
0.0002280343
0.0002280285
0.00022802468
0.00022799167
0.00022799481
0.0002279997
0.00022800536
0.00022801107
0.00022801636
0.00022802087
0.0002280244
0.00022802681
0.00022802803
0.00022802803
0.00022802681
0.0002280244
0.00022802087
0.00022801636
0.00022801107
0.00022800536
0.0002279997
0.00022799481
0.00022799167
0.0002279749
0.00022797757
0.00022798188
0.000227987
0.00022799224
0.00022799714
0.00022800136
0.00022800468
0.00022800696
0.00022800812
0.00022800812
0.00022800696
0.00022800468
0.00022800136
0.00022799714
0.00022799224
0.000227987
0.00022798189
0.00022797757
0.0002279749
)
;

boundaryField
{
    Wall
    {
        type            calculated;
        value           uniform 4e-05;
    }
    frontAndBack
    {
        type            empty;
    }
    atmosphere
    {
        type            calculated;
        value           uniform 4e-05;
    }
}


// ************************************************************************* //
