/*--------------------------------*- C++ -*----------------------------------*\
| =========                 |                                                 |
| \\      /  F ield         | OpenFOAM: The Open Source CFD Toolbox           |
|  \\    /   O peration     | Version:  3.0.1                                 |
|   \\  /    A nd           | Web:      www.OpenFOAM.org                      |
|    \\/     M anipulation  |                                                 |
\*---------------------------------------------------------------------------*/
FoamFile
{
    version     2.0;
    format      ascii;
    class       volScalarField;
    location    "20";
    object      TS;
}
// * * * * * * * * * * * * * * * * * * * * * * * * * * * * * * * * * * * * * //

dimensions      [0 0 0 1 0 0 0];

internalField   nonuniform List<scalar> 
800
(
329.60042
329.6037
329.60412
329.60418
329.6042
329.60422
329.60425
329.60426
329.60428
329.60428
329.60428
329.60428
329.60426
329.60425
329.60422
329.6042
329.60418
329.60412
329.6037
329.60042
326.88854
326.95945
326.97052
326.97148
326.97133
326.97149
326.97191
326.97237
326.97273
326.97293
326.97293
326.97273
326.97237
326.97191
326.97149
326.97133
326.97148
326.97052
326.95945
326.88854
324.75952
324.86472
324.88737
324.89022
324.89037
324.89067
324.8913
324.892
324.89255
324.89285
324.89285
324.89255
324.892
324.8913
324.89067
324.89037
324.89022
324.88738
324.86472
324.75952
323.18616
323.32096
323.35493
323.35938
323.35966
323.35976
323.36032
323.36097
323.36153
323.36183
323.36183
323.36153
323.36097
323.36032
323.35977
323.35966
323.35939
323.35493
323.32096
323.18616
321.99102
322.14963
322.20022
322.20813
322.2089
322.20879
322.20915
322.2096
322.21005
322.21029
322.21029
322.21005
322.2096
322.20915
322.20879
322.20891
322.20814
322.20023
322.14964
321.99102
320.77893
320.98235
321.06114
321.07636
321.07928
321.07972
321.08025
321.08065
321.08108
321.08127
321.08127
321.08108
321.08065
321.08025
321.07972
321.07928
321.07636
321.06114
320.98236
320.77893
318.84475
319.15545
319.25565
319.28476
319.29355
319.29666
319.29857
319.29964
319.30044
319.30076
319.30076
319.30044
319.29965
319.29857
319.29667
319.29355
319.28476
319.25566
319.15546
318.84476
315.13187
315.60684
315.74697
315.79787
315.81781
315.82701
315.83238
315.83544
315.83734
315.83814
315.83814
315.83734
315.83544
315.83238
315.82702
315.81781
315.79787
315.74698
315.60685
315.13188
310.33488
310.70683
310.88071
310.92436
310.94411
310.95694
310.96637
310.97312
310.97755
310.97971
310.97971
310.97755
310.97312
310.96637
310.95694
310.94411
310.92436
310.88071
310.70683
310.33488
308.57453
308.69121
308.78302
308.82832
308.85123
308.86585
308.87655
308.88443
308.88968
308.8923
308.8923
308.88968
308.88443
308.87655
308.86585
308.85123
308.82831
308.78301
308.6912
308.57453
307.22071
307.24416
307.27884
307.30598
307.3249
307.33871
307.34918
307.35695
307.36213
307.36472
307.36472
307.36212
307.35694
307.34918
307.33871
307.3249
307.30598
307.27883
307.24416
307.2207
306.30394
306.31946
306.34142
306.36187
306.37856
306.39178
306.40208
306.40973
306.41482
306.41737
306.41737
306.41482
306.40973
306.40208
306.39178
306.37856
306.36187
306.34142
306.31946
306.30393
305.46461
305.48293
305.50387
305.52325
305.5397
305.55307
305.56353
305.57127
305.57638
305.57891
305.57891
305.57637
305.57127
305.56353
305.55307
305.5397
305.52325
305.50387
305.48292
305.46461
304.69575
304.71916
304.7444
304.76663
304.78493
304.79947
304.8106
304.81866
304.82391
304.82649
304.82649
304.82391
304.81866
304.8106
304.79947
304.78493
304.76662
304.74439
304.71916
304.69574
303.99584
304.02272
304.0527
304.07903
304.10032
304.11683
304.12915
304.13787
304.14344
304.14615
304.14615
304.14344
304.13787
304.12915
304.11683
304.10032
304.07903
304.0527
304.02271
303.99584
303.36243
303.39065
303.42387
303.45376
303.47809
303.49683
303.51065
303.52028
303.52635
303.52929
303.52929
303.52635
303.52028
303.51065
303.49683
303.47809
303.45376
303.42387
303.39065
303.36243
302.79165
302.81966
302.85429
302.88649
302.91319
302.93393
302.94923
302.95987
302.96655
302.96976
302.96976
302.96655
302.95987
302.94923
302.93393
302.91319
302.88649
302.85429
302.81966
302.79165
302.27871
302.30558
302.34015
302.37332
302.40146
302.42365
302.44019
302.45174
302.45901
302.4625
302.4625
302.45901
302.45174
302.44019
302.42365
302.40146
302.37332
302.34015
302.30558
302.27872
301.81851
301.84377
301.87726
301.91028
301.93892
301.96191
301.97927
301.99151
301.99925
302.00299
302.00299
301.99925
301.99151
301.97927
301.96191
301.93892
301.91028
301.87726
301.84377
301.81851
301.40596
301.42941
301.46122
301.49326
301.52161
301.54477
301.56249
301.57513
301.58318
301.58709
301.58709
301.58318
301.57513
301.56249
301.54477
301.52162
301.49326
301.46122
301.42942
301.40596
301.03631
301.05791
301.08769
301.11821
301.14568
301.16845
301.18611
301.19884
301.20702
301.21101
301.21101
301.20702
301.19884
301.18611
301.16845
301.14568
301.11821
301.08769
301.05791
301.03631
300.70518
300.72496
300.75257
300.78124
300.8074
300.82938
300.84662
300.85917
300.86729
300.87128
300.87128
300.86729
300.85917
300.84662
300.82938
300.8074
300.78125
300.75257
300.72496
300.70518
300.40866
300.4267
300.4521
300.47876
300.50334
300.52422
300.54076
300.55291
300.56083
300.56473
300.56473
300.56083
300.55291
300.54077
300.52422
300.50335
300.47876
300.4521
300.4267
300.40866
300.14326
300.15964
300.18287
300.20746
300.23033
300.24991
300.26557
300.27714
300.28473
300.28848
300.28848
300.28473
300.27714
300.26557
300.24991
300.23033
300.20746
300.18288
300.15964
300.14326
299.90587
299.92071
299.94186
299.96437
299.98546
300.00365
300.01829
300.02918
300.03635
300.0399
300.0399
300.03635
300.02918
300.01829
300.00365
299.98546
299.96437
299.94186
299.92071
299.90587
299.69376
299.70715
299.72632
299.74683
299.76614
299.78289
299.79645
299.80658
299.81328
299.8166
299.8166
299.81328
299.80658
299.79645
299.78289
299.76614
299.74683
299.72632
299.70715
299.69376
299.50448
299.51654
299.53385
299.55243
299.57001
299.58533
299.59777
299.60712
299.61331
299.61639
299.61639
299.61331
299.60712
299.59777
299.58533
299.57001
299.55243
299.53385
299.51654
299.50448
299.3359
299.34671
299.36228
299.37905
299.39496
299.40888
299.42023
299.42878
299.43446
299.43729
299.43729
299.43446
299.42878
299.42023
299.40888
299.39497
299.37905
299.36228
299.34671
299.3359
299.18609
299.19577
299.20971
299.22478
299.23911
299.25169
299.26197
299.26973
299.27491
299.27749
299.27749
299.27491
299.26973
299.26197
299.25169
299.23911
299.22478
299.20972
299.19577
299.1861
299.0534
299.06201
299.07446
299.08793
299.10078
299.11208
299.12134
299.12835
299.13303
299.13537
299.13537
299.13303
299.12835
299.12134
299.11208
299.10078
299.08793
299.07446
299.06201
299.0534
298.93633
298.94397
298.95503
298.96702
298.97848
298.98858
298.99688
299.00317
299.00738
299.00948
299.00948
299.00738
299.00317
298.99688
298.98859
298.97848
298.96702
298.95503
298.94397
298.93633
298.83364
298.84038
298.85015
298.86076
298.87093
298.87991
298.88731
298.89292
298.89668
298.89856
298.89856
298.89668
298.89292
298.88731
298.87991
298.87093
298.86076
298.85015
298.84038
298.83364
298.74422
298.75013
298.75871
298.76805
298.77702
298.78496
298.79151
298.79649
298.79983
298.80151
298.80151
298.79983
298.79649
298.79151
298.78496
298.77702
298.76805
298.75871
298.75013
298.74422
298.66718
298.67232
298.67979
298.68796
298.69582
298.7028
298.70857
298.71297
298.71592
298.71741
298.71741
298.71593
298.71297
298.70857
298.7028
298.69582
298.68796
298.67979
298.67232
298.66718
298.60181
298.60622
298.61268
298.61976
298.6266
298.6327
298.63776
298.64163
298.64423
298.64554
298.64554
298.64423
298.64163
298.63776
298.6327
298.62661
298.61976
298.61268
298.60622
298.60181
298.54756
298.55131
298.55683
298.56292
298.56883
298.57414
298.57855
298.58194
298.58423
298.58538
298.58538
298.58423
298.58194
298.57855
298.57414
298.56884
298.56292
298.55683
298.55131
298.54756
298.5041
298.50723
298.5119
298.51709
298.52219
298.52679
298.53064
298.53362
298.53563
298.53665
298.53665
298.53563
298.53362
298.53064
298.52679
298.52219
298.51709
298.5119
298.50724
298.5041
298.47127
298.47385
298.47776
298.48218
298.48658
298.49059
298.49398
298.49661
298.4984
298.4993
298.4993
298.4984
298.49661
298.49398
298.49059
298.48658
298.48218
298.47776
298.47385
298.47127
298.44911
298.45122
298.45452
298.45834
298.46219
298.46575
298.46879
298.47117
298.4728
298.47362
298.47362
298.4728
298.47117
298.46879
298.46575
298.46219
298.45834
298.45452
298.45122
298.44911
298.43785
298.43965
298.44256
298.446
298.44954
298.45284
298.45569
298.45793
298.45946
298.46024
298.46024
298.45946
298.45793
298.45569
298.45284
298.44954
298.446
298.44256
298.43965
298.43785
)
;

boundaryField
{
    Wall
    {
        type            zeroGradient;
    }
    frontAndBack
    {
        type            empty;
    }
    atmosphere
    {
        type            zeroGradient;
    }
}


// ************************************************************************* //
