/*--------------------------------*- C++ -*----------------------------------*\
| =========                 |                                                 |
| \\      /  F ield         | OpenFOAM: The Open Source CFD Toolbox           |
|  \\    /   O peration     | Version:  3.0.1                                 |
|   \\  /    A nd           | Web:      www.OpenFOAM.org                      |
|    \\/     M anipulation  |                                                 |
\*---------------------------------------------------------------------------*/
FoamFile
{
    version     2.0;
    format      ascii;
    class       volVectorField;
    location    "20";
    object      U;
}
// * * * * * * * * * * * * * * * * * * * * * * * * * * * * * * * * * * * * * //

dimensions      [0 1 -1 0 0 0 0];

internalField   nonuniform List<vector> 
800
(
(5.0139863e-06 0.00031395297 0)
(6.1220814e-06 0.00031633304 0)
(5.9211961e-06 0.00031719181 0)
(4.7300074e-06 0.00031719842 0)
(3.6794572e-06 0.00031702425 0)
(2.84268e-06 0.00031687368 0)
(2.1402414e-06 0.00031678731 0)
(1.5049269e-06 0.00031675008 0)
(8.9759102e-07 0.00031673862 0)
(2.9899216e-07 0.00031673683 0)
(-2.98194e-07 0.00031673682 0)
(-8.9698923e-07 0.00031673858 0)
(-1.5046456e-06 0.00031675002 0)
(-2.1403331e-06 0.00031678723 0)
(-2.8431001e-06 0.00031687359 0)
(-3.6800744e-06 0.00031702418 0)
(-4.7306393e-06 0.00031719838 0)
(-5.9216341e-06 0.00031719185 0)
(-6.1220529e-06 0.00031633317 0)
(-5.0138353e-06 0.00031395317 0)
(2.7560643e-06 0.00056347112 0)
(3.6857995e-06 0.00056967273 0)
(4.5485574e-06 0.00057195242 0)
(3.9876498e-06 0.00057234054 0)
(3.3131727e-06 0.00057225113 0)
(2.6513813e-06 0.00057208043 0)
(2.0325776e-06 0.00057196121 0)
(1.4420238e-06 0.00057190091 0)
(8.6372417e-07 0.00057187671 0)
(2.8818165e-07 0.00057186954 0)
(-2.8760652e-07 0.00057186951 0)
(-8.6331162e-07 0.00057187663 0)
(-1.441863e-06 0.00057190077 0)
(-2.0327062e-06 0.00057196104 0)
(-2.6517615e-06 0.00057208027 0)
(-3.3136951e-06 0.00057225103 0)
(-3.9881545e-06 0.00057234053 0)
(-4.5488671e-06 0.00057195255 0)
(-3.685707e-06 0.00056967301 0)
(-2.7558808e-06 0.00056347149 0)
(3.8435038e-06 0.0010191662 0)
(4.7136972e-06 0.0010298946 0)
(4.2894521e-06 0.0010336255 0)
(3.4691102e-06 0.0010342812 0)
(2.9096407e-06 0.0010341964 0)
(2.3649121e-06 0.0010339556 0)
(1.8535769e-06 0.0010337884 0)
(1.3400008e-06 0.001033707 0)
(8.1257739e-07 0.0010336774 0)
(2.7270204e-07 0.0010336705 0)
(-2.7231047e-07 0.0010336705 0)
(-8.1230971e-07 0.0010336773 0)
(-1.3399341e-06 0.0010337068 0)
(-1.8537303e-06 0.0010337882 0)
(-2.365238e-06 0.0010339554 0)
(-2.9100457e-06 0.0010341963 0)
(-3.4694674e-06 0.0010342813 0)
(-4.2896053e-06 0.0010336257 0)
(-4.7134769e-06 0.001029895 0)
(-3.843267e-06 0.0010191667 0)
(3.3430119e-06 0.0014681757 0)
(4.2118052e-06 0.0014804182 0)
(3.4430125e-06 0.001484395 0)
(2.6765354e-06 0.0014850179 0)
(2.4015383e-06 0.0014848025 0)
(2.0423569e-06 0.0014844717 0)
(1.6816724e-06 0.0014842842 0)
(1.2597511e-06 0.0014842149 0)
(7.8103929e-07 0.0014842052 0)
(2.649783e-07 0.001484212 0)
(-2.6473373e-07 0.001484212 0)
(-7.8088626e-07 0.0014842051 0)
(-1.2597319e-06 0.0014842147 0)
(-1.6817964e-06 0.001484284 0)
(-2.042578e-06 0.0014844715 0)
(-2.4017809e-06 0.0014848025 0)
(-2.6767284e-06 0.001485018 0)
(-3.4430187e-06 0.0014843953 0)
(-4.2114758e-06 0.0014804186 0)
(-3.3427452e-06 0.0014681762 0)
(1.5375422e-06 0.0019520341 0)
(2.536628e-06 0.0019657345 0)
(2.243102e-06 0.0019696905 0)
(1.8955199e-06 0.0019699909 0)
(1.9214885e-06 0.0019695805 0)
(1.7905394e-06 0.0019692067 0)
(1.6014563e-06 0.001969064 0)
(1.2599629e-06 0.0019690594 0)
(8.0304628e-07 0.0019691061 0)
(2.7598077e-07 0.0019691444 0)
(-2.7586839e-07 0.0019691444 0)
(-8.0298454e-07 0.0019691059 0)
(-1.2599652e-06 0.0019690592 0)
(-1.6015186e-06 0.0019690637 0)
(-1.7906354e-06 0.0019692066 0)
(-1.9215751e-06 0.0019695805 0)
(-1.8955649e-06 0.001969991 0)
(-2.2429913e-06 0.0019696906 0)
(-2.5362174e-06 0.0019657347 0)
(-1.5372529e-06 0.0019520344 0)
(-1.4682386e-06 0.002501338 0)
(-3.6919746e-07 0.0025153705 0)
(4.965096e-07 0.0025188437 0)
(8.9681008e-07 0.0025185554 0)
(1.5409772e-06 0.0025180247 0)
(1.7379077e-06 0.0025177482 0)
(1.7179178e-06 0.0025177645 0)
(1.4133916e-06 0.0025179077 0)
(9.2138306e-07 0.0025180595 0)
(3.1961569e-07 0.0025181514 0)
(-3.1963212e-07 0.0025181514 0)
(-9.2141705e-07 0.0025180593 0)
(-1.4134457e-06 0.0025179075 0)
(-1.7179233e-06 0.0025177642 0)
(-1.7379067e-06 0.0025177479 0)
(-1.5409879e-06 0.0025180245 0)
(-8.9675298e-07 0.0025185552 0)
(-4.9633616e-07 0.0025188436 0)
(3.696201e-07 0.0025153703 0)
(1.4685265e-06 0.0025013378 0)
(-6.2861189e-06 0.0031063975 0)
(-5.5136359e-06 0.0031226305 0)
(-1.8327665e-06 0.003125732 0)
(-3.0492874e-08 0.0031254011 0)
(1.5741643e-06 0.0031251634 0)
(2.1115594e-06 0.0031252861 0)
(2.1823772e-06 0.0031256482 0)
(1.814447e-06 0.0031260446 0)
(1.1838106e-06 0.0031263528 0)
(4.1036078e-07 0.003126519 0)
(-4.1051618e-07 0.003126519 0)
(-1.1839575e-06 0.0031263526 0)
(-1.8145688e-06 0.0031260442 0)
(-2.182442e-06 0.0031256478 0)
(-2.1115818e-06 0.0031252856 0)
(-1.5741477e-06 0.0031251628 0)
(3.0560153e-08 0.0031254006 0)
(1.8329144e-06 0.0031257314 0)
(5.5139933e-06 0.0031226298 0)
(6.2863591e-06 0.0031063967 0)
(-1.0094921e-05 0.0036622672 0)
(-1.0187921e-05 0.0036822 0)
(-3.4891093e-06 0.0036864775 0)
(8.74462e-08 0.0036876367 0)
(2.5312199e-06 0.0036884153 0)
(3.2133271e-06 0.003689417 0)
(3.1583057e-06 0.0036903556 0)
(2.5425509e-06 0.0036911036 0)
(1.6254081e-06 0.0036916026 0)
(5.5816036e-07 0.0036918534 0)
(-5.5846851e-07 0.0036918534 0)
(-1.6256974e-06 0.0036916024 0)
(-2.5428066e-06 0.0036911032 0)
(-3.1585096e-06 0.0036903551 0)
(-3.2134712e-06 0.0036894163 0)
(-2.5313098e-06 0.0036884144 0)
(-8.7475884e-08 0.0036876357 0)
(3.4891576e-06 0.0036864764 0)
(1.0188124e-05 0.0036821988 0)
(1.0095059e-05 0.0036622658 0)
(-1.2644403e-05 0.0041045964 0)
(-1.2131226e-05 0.0041251535 0)
(-1.8351397e-06 0.0041327643 0)
(2.6102516e-06 0.0041368092 0)
(4.9730668e-06 0.0041393312 0)
(5.3459532e-06 0.0041414904 0)
(4.7663297e-06 0.0041430332 0)
(3.6401329e-06 0.0041440893 0)
(2.257823e-06 0.0041447228 0)
(7.6524899e-07 0.0041450253 0)
(-7.6572315e-07 0.0041450252 0)
(-2.2582856e-06 0.0041447225 0)
(-3.6405822e-06 0.0041440888 0)
(-4.766747e-06 0.0041430325 0)
(-5.3463078e-06 0.0041414895 0)
(-4.973347e-06 0.0041393301 0)
(-2.610457e-06 0.0041368079 0)
(1.8350238e-06 0.004132763 0)
(1.2131226e-05 0.004125152 0)
(1.264441e-05 0.0041045947 0)
(-1.1093426e-05 0.0044644163 0)
(-5.309955e-06 0.0044797048 0)
(7.1551409e-06 0.0044861354 0)
(9.0773068e-06 0.0044929406 0)
(9.6048625e-06 0.0044971558 0)
(8.7221018e-06 0.004500175 0)
(7.0651119e-06 0.0045020856 0)
(5.1176824e-06 0.0045033118 0)
(3.0763065e-06 0.0045040021 0)
(1.0280539e-06 0.0045043276 0)
(-1.0286628e-06 0.0045043275 0)
(-3.07692e-06 0.0045040018 0)
(-5.118318e-06 0.0045033113 0)
(-7.0657457e-06 0.004502085 0)
(-8.7226705e-06 0.0045001741 0)
(-9.6053443e-06 0.0044971547 0)
(-9.0776545e-06 0.0044929393 0)
(-7.1553599e-06 0.0044861341 0)
(5.3098893e-06 0.0044797033 0)
(1.1093437e-05 0.0044644144 0)
(7.1322697e-05 0.0048387557 0)
(9.4486351e-05 0.0048909189 0)
(6.1754564e-05 0.0048926949 0)
(4.2287901e-05 0.004901862 0)
(3.0093716e-05 0.0049079156 0)
(2.1753411e-05 0.0049116464 0)
(1.5427331e-05 0.004913838 0)
(1.0310956e-05 0.0049152134 0)
(5.9093535e-06 0.0049159701 0)
(1.9286117e-06 0.0049163456 0)
(-1.9292892e-06 0.0049163455 0)
(-5.910024e-06 0.0049159698 0)
(-1.0311628e-05 0.004915213 0)
(-1.5427978e-05 0.0049138373 0)
(-2.1753968e-05 0.0049116455 0)
(-3.0094164e-05 0.0049079145 0)
(-4.2288147e-05 0.0049018606 0)
(-6.1754564e-05 0.0048926935 0)
(-9.4486028e-05 0.0048909174 0)
(-7.1322338e-05 0.0048387538 0)
(0.0004273319 0.0044915872 0)
(0.0006250402 0.0049736601 0)
(0.00047813312 0.0049871611 0)
(0.00033391027 0.0049752505 0)
(0.00023043245 0.0049672656 0)
(0.00015885184 0.0049630504 0)
(0.00010785207 0.004960972 0)
(6.9646831e-05 0.0049600593 0)
(3.905975e-05 0.0049596804 0)
(1.2632286e-05 0.0049595967 0)
(-1.2633616e-05 0.0049595965 0)
(-3.906094e-05 0.0049596803 0)
(-6.9647875e-05 0.0049600591 0)
(-0.00010785297 0.0049609716 0)
(-0.00015885237 0.0049630495 0)
(-0.0002304325 0.0049672644 0)
(-0.00033390965 0.0049752489 0)
(-0.0004781317 0.0049871593 0)
(-0.0006250382 0.0049736581 0)
(-0.00042733075 0.0044915859 0)
(0.00051599323 0.0034719181 0)
(0.00099961463 0.0047379383 0)
(0.00098622503 0.0049460121 0)
(0.00082107256 0.0049362719 0)
(0.00063580562 0.0048910556 0)
(0.00047138202 0.0048507344 0)
(0.00033486841 0.0048215746 0)
(0.00022223795 0.0048023213 0)
(0.00012668136 0.0047907478 0)
(4.1358769e-05 0.0047852065 0)
(-4.136086e-05 0.0047852064 0)
(-0.00012668319 0.0047907477 0)
(-0.00022223979 0.0048023212 0)
(-0.00033487047 0.0048215742 0)
(-0.00047138395 0.0048507333 0)
(-0.00063580682 0.0048910543 0)
(-0.00082107288 0.0049362701 0)
(-0.00098622481 0.0049460099 0)
(-0.00099961466 0.0047379361 0)
(-0.00051599352 0.0034719165 0)
(0.00034876497 0.0027374265 0)
(0.00082843993 0.0044475379 0)
(0.00096617325 0.0049541234 0)
(0.00090616901 0.0050633476 0)
(0.00076392146 0.0050447621 0)
(0.00060162319 0.0049940522 0)
(0.00044575056 0.004944215 0)
(0.00030426991 0.0049054385 0)
(0.00017645091 0.004879799 0)
(5.8153485e-05 0.0048669797 0)
(-5.8155707e-05 0.0048669796 0)
(-0.00017645278 0.0048797983 0)
(-0.00030427183 0.0049054377 0)
(-0.00044575265 0.004944214 0)
(-0.00060162508 0.004994051 0)
(-0.00076392311 0.0050447614 0)
(-0.00090617029 0.0050633467 0)
(-0.00096617427 0.0049541223 0)
(-0.00082844115 0.0044475363 0)
(-0.00034876574 0.0027374249 0)
(0.00019979716 0.0022540316 0)
(0.0005768264 0.0041460902 0)
(0.00077638347 0.0048926054 0)
(0.00080157289 0.005145869 0)
(0.00072512476 0.0051934225 0)
(0.00060215949 0.005163397 0)
(0.00046387755 0.0051124753 0)
(0.00032540674 0.0050650049 0)
(0.00019201468 0.0050307088 0)
(6.3858894e-05 0.0050129181 0)
(-6.3860993e-05 0.0050129179 0)
(-0.00019201637 0.0050307077 0)
(-0.00032540832 0.0050650036 0)
(-0.00046387919 0.0051124743 0)
(-0.00060216089 0.0051633959 0)
(-0.00072512603 0.005193422 0)
(-0.00080157423 0.0051458689 0)
(-0.00077638463 0.0048926052 0)
(-0.00057682812 0.0041460896 0)
(-0.00019979833 0.0022540304 0)
(0.00010670369 0.001954871 0)
(0.00036941547 0.0038709844 0)
(0.00056717108 0.004767488 0)
(0.00063632262 0.005144882 0)
(0.00061204778 0.0052691514 0)
(0.00053273162 0.0052780191 0)
(0.00042519398 0.0052423244 0)
(0.00030596616 0.0051979185 0)
(0.00018355519 0.0051621673 0)
(6.1543553e-05 0.0051427819 0)
(-6.1544582e-05 0.0051427813 0)
(-0.0001835562 0.0051621658 0)
(-0.0003059673 0.0051979167 0)
(-0.00042519504 0.005242323 0)
(-0.00053273258 0.0052780183 0)
(-0.00061204858 0.0052691512 0)
(-0.00063632352 0.0051448822 0)
(-0.0005671722 0.0047674885 0)
(-0.00036941724 0.0038709849 0)
(-0.00010670481 0.0019548714 0)
(5.5555325e-05 0.0017788232 0)
(0.00022638128 0.0036599086 0)
(0.00039171144 0.0046368472 0)
(0.00047308479 0.0051055831 0)
(0.00048049804 0.0052993352 0)
(0.00043614694 0.0053520574 0)
(0.00035940423 0.0053403135 0)
(0.00026470921 0.0053071532 0)
(0.00016123836 0.0052757926 0)
(5.4440179e-05 0.0052577721 0)
(-5.4440064e-05 0.0052577713 0)
(-0.00016123829 0.005275791 0)
(-0.00026470921 0.0053071509 0)
(-0.00035940387 0.0053403114 0)
(-0.00043614666 0.0053520561 0)
(-0.00048049802 0.005299335 0)
(-0.000473085 0.0051055836 0)
(-0.0003917124 0.0046368482 0)
(-0.00022638323 0.0036599102 0)
(-5.5556539e-05 0.0017788251 0)
(2.9231536e-05 0.0016767446 0)
(0.00013638156 0.0035119587 0)
(0.00026128236 0.0045265256 0)
(0.00033660092 0.0050561597 0)
(0.00035880506 0.0053050907 0)
(0.00033811678 0.0053983363 0)
(0.00028674624 0.0054127493 0)
(0.00021569397 0.0053947909 0)
(0.00013321255 0.0053713284 0)
(4.5248936e-05 0.0053566208 0)
(-4.5247847e-05 0.0053566199 0)
(-0.00013321161 0.0053713266 0)
(-0.00021569303 0.0053947882 0)
(-0.0002867451 0.0054127466 0)
(-0.00033811544 0.0053983341 0)
(-0.0003588041 0.00530509 0)
(-0.00033660082 0.0050561602 0)
(-0.00026128282 0.0045265269 0)
(-0.00013638315 0.0035119607 0)
(-2.9232881e-05 0.0016767472 0)
(1.5831101e-05 0.001617156 0)
(8.1980721e-05 0.0034124505 0)
(0.00017041658 0.0044414488 0)
(0.00023205434 0.0050087533 0)
(0.00025814825 0.005297911 0)
(0.00025154284 0.0054246065 0)
(0.0002189219 0.0054632695 0)
(0.00016785241 0.0054611648 0)
(0.00010497712 0.00544694 0)
(3.5846386e-05 0.0054364415 0)
(-3.5844891e-05 0.0054364405 0)
(-0.00010497525 0.005446938 0)
(-0.00016785046 0.0054611621 0)
(-0.00021891972 0.0054632667 0)
(-0.00025154053 0.005424604 0)
(-0.00025814629 0.0052979099 0)
(-0.00023205305 0.0050087539 0)
(-0.00017041628 0.0044414503 0)
(-8.1981757e-05 0.0034124531 0)
(-1.5831945e-05 0.0016171591 0)
(8.8297246e-06 0.0015819709 0)
(4.9412156e-05 0.0033472615 0)
(0.00010942615 0.0043795959 0)
(0.00015617513 0.0049688219 0)
(0.0001803879 0.0052855598 0)
(0.00018111989 0.0054378644 0)
(0.00016136791 0.0054969014 0)
(0.00012589287 0.0055092679 0)
(7.9642217e-05 0.0055040884 0)
(2.7324296e-05 0.0054978992 0)
(-2.7322184e-05 0.0054978983 0)
(-7.9639928e-05 0.0055040865 0)
(-0.00012589048 0.0055092653 0)
(-0.00016136533 0.0054968986 0)
(-0.00018111722 0.0054378622 0)
(-0.00018038557 0.005285559 0)
(-0.00015617311 0.0049688225 0)
(-0.0001094249 0.0043795975 0)
(-4.941232e-05 0.0033472642 0)
(-8.8301407e-06 0.0015819738 0)
(5.0328763e-06 0.0015610028 0)
(2.9854139e-05 0.0033053782 0)
(6.9424021e-05 0.0043365381 0)
(0.00010309934 0.0049378831 0)
(0.00012308809 0.0052726922 0)
(0.00012696191 0.0054435717 0)
(0.00011554886 0.0055186089 0)
(9.1587542e-05 0.0055431134 0)
(5.8551214e-05 0.0055459204 0)
(2.017571e-05 0.0055436551 0)
(-2.0173261e-05 0.0055436544 0)
(-5.854852e-05 0.0055459189 0)
(-9.1584779e-05 0.005543111 0)
(-0.00011554598 0.0055186063 0)
(-0.00012695893 0.0054435698 0)
(-0.00012308552 0.0052726916 0)
(-0.00010309702 0.0049378842 0)
(-6.942244e-05 0.0043365401 0)
(-2.9853965e-05 0.0033053808 0)
(-5.0330061e-06 0.0015610048 0)
(2.898411e-06 0.0015484444 0)
(1.8031632e-05 0.0032788433 0)
(4.3596018e-05 0.0043074756 0)
(6.6972587e-05 0.0049152028 0)
(8.2329084e-05 0.0052614492 0)
(8.7009802e-05 0.0054452655 0)
(8.0741373e-05 0.0055322615 0)
(6.4936056e-05 0.0055663568 0)
(4.1916122e-05 0.0055757391 0)
(1.4502413e-05 0.0055767829 0)
(-1.4500258e-05 0.0055767822 0)
(-4.1914204e-05 0.0055757378 0)
(-6.4933983e-05 0.005566355 0)
(-8.0738814e-05 0.0055322594 0)
(-8.7006966e-05 0.0054452643 0)
(-8.23263e-05 0.0052614493 0)
(-6.6970076e-05 0.0049152044 0)
(-4.359412e-05 0.0043074782 0)
(-1.8030869e-05 0.0032788462 0)
(-2.8983705e-06 0.0015484461 0)
(1.6664405e-06 0.0015409219 0)
(1.0844562e-05 0.0032622162 0)
(2.7106055e-05 0.0042882927 0)
(4.289136e-05 0.0048991997 0)
(5.4124571e-05 0.0052524865 0)
(5.8481689e-05 0.005445034 0)
(5.5245912e-05 0.0055406368 0)
(4.5032535e-05 0.0055819771 0)
(2.932959e-05 0.0055965009 0)
(1.0186821e-05 0.0056001849 0)
(-1.0184762e-05 0.0056001841 0)
(-2.932796e-05 0.0055964998 0)
(-4.5030791e-05 0.0055819762 0)
(-5.5243872e-05 0.0055406357 0)
(-5.8479168e-05 0.0054450339 0)
(-5.4121807e-05 0.0052524876 0)
(-4.2888965e-05 0.0048992018 0)
(-2.7104217e-05 0.0042882955 0)
(-1.0843585e-05 0.0032622187 0)
(-1.6662352e-06 0.0015409232 0)
(9.4349975e-07 0.0015364437 0)
(6.4628693e-06 0.0032519044 0)
(1.6672892e-05 0.0042758513 0)
(2.7106471e-05 0.0048882256 0)
(3.5036886e-05 0.0052457468 0)
(3.8639454e-05 0.0054440409 0)
(3.711155e-05 0.0055456543 0)
(3.0631312e-05 0.0055922773 0)
(2.011703e-05 0.0056106638 0)
(7.0125733e-06 0.0056163664 0)
(-7.0113345e-06 0.0056163661 0)
(-2.0115805e-05 0.0056106634 0)
(-3.0629813e-05 0.0055922772 0)
(-3.7109745e-05 0.0055456542 0)
(-3.863744e-05 0.0054440416 0)
(-3.5035035e-05 0.0052457483 0)
(-2.7105025e-05 0.0048882281 0)
(-1.6671788e-05 0.0042758542 0)
(-6.4623761e-06 0.0032519069 0)
(-9.4348001e-07 0.0015364449 0)
(5.1817395e-07 0.0015338119 0)
(3.7952028e-06 0.0032455807 0)
(1.0127003e-05 0.0042679025 0)
(1.6904592e-05 0.0048808668 0)
(2.235485e-05 0.0052408811 0)
(2.5134244e-05 0.0054428808 0)
(2.4520876e-05 0.0055485902 0)
(2.0479108e-05 0.0055989567 0)
(1.3555739e-05 0.0056201536 0)
(4.7422887e-06 0.005627348 0)
(-4.7414029e-06 0.0056273481 0)
(-1.3554789e-05 0.0056201538 0)
(-2.0477927e-05 0.0055989569 0)
(-2.4519945e-05 0.0055485906 0)
(-2.5133318e-05 0.0054428818 0)
(-2.2353952e-05 0.0052408832 0)
(-1.6903775e-05 0.0048808699 0)
(-1.012631e-05 0.0042679059 0)
(-3.7949231e-06 0.0032455839 0)
(-5.1810872e-07 0.0015338131 0)
(2.692975e-07 0.0015322963 0)
(2.1792539e-06 0.0032417537 0)
(6.0550164e-06 0.0042628929 0)
(1.0392137e-05 0.0048760205 0)
(1.4059995e-05 0.0052374715 0)
(1.6109347e-05 0.0054418184 0)
(1.5955167e-05 0.0055502636 0)
(1.3476612e-05 0.0056032214 0)
(8.9880425e-06 0.0056264103 0)
(3.155531e-06 0.0056346766 0)
(-3.1544823e-06 0.0056346766 0)
(-8.9874477e-06 0.0056264103 0)
(-1.3476031e-05 0.0056032215 0)
(-1.5954619e-05 0.0055502642 0)
(-1.6108799e-05 0.0054418199 0)
(-1.4059313e-05 0.0052374743 0)
(-1.0391574e-05 0.0048760243 0)
(-6.0549079e-06 0.0042628973 0)
(-2.179521e-06 0.0032417578 0)
(-2.6955776e-07 0.0015322982 0)
(1.2657638e-07 0.0015314506 0)
(1.2098838e-06 0.0032394761 0)
(3.5461236e-06 0.004259779 0)
(6.2829061e-06 0.0048728778 0)
(8.7091133e-06 0.005235136 0)
(1.0172964e-05 0.0054409461 0)
(1.0228918e-05 0.0055511868 0)
(8.736707e-06 0.0056059027 0)
(5.8698247e-06 0.0056304729 0)
(2.0677268e-06 0.005639492 0)
(-2.0671183e-06 0.0056394917 0)
(-5.8689837e-06 0.0056304729 0)
(-8.7362032e-06 0.0056059027 0)
(-1.0228409e-05 0.0055511874 0)
(-1.017279e-05 0.0054409478 0)
(-8.7091941e-06 0.005235139 0)
(-6.2827437e-06 0.0048728819 0)
(-3.5461948e-06 0.004259784 0)
(-1.2103655e-06 0.0032394807 0)
(-1.269044e-07 0.0015314529 0)
(4.7200294e-08 0.0015310019 0)
(6.3701899e-07 0.0032381507 0)
(2.01817e-06 0.0042578723 0)
(3.7207079e-06 0.0048708681 0)
(5.3026e-06 0.0052335648 0)
(6.3240236e-06 0.0054402726 0)
(6.4593556e-06 0.0055516733 0)
(5.5801315e-06 0.0056075616 0)
(3.7767362e-06 0.0056330716 0)
(1.3350439e-06 0.0056426087 0)
(-1.3347833e-06 0.0056426085 0)
(-3.7764426e-06 0.0056330717 0)
(-5.5798361e-06 0.0056075617 0)
(-6.4591224e-06 0.005551674 0)
(-6.3240522e-06 0.005440274 0)
(-5.3028306e-06 0.0052335675 0)
(-3.7209506e-06 0.0048708722 0)
(-2.0183922e-06 0.0042578775 0)
(-6.374844e-07 0.0032381552 0)
(-4.7554004e-08 0.0015310045 0)
(4.7948055e-09 0.0015307833 0)
(3.0530766e-07 0.0032374029 0)
(1.10151e-06 0.0042567255 0)
(2.1443641e-06 0.0048696005 0)
(3.1619213e-06 0.0052325236 0)
(3.8620184e-06 0.0054397724 0)
(4.0133605e-06 0.0055519118 0)
(3.5093196e-06 0.00560857 0)
(2.3935629e-06 0.0056347088 0)
(8.4935491e-07 0.0056445963 0)
(-8.4898439e-07 0.0056445961 0)
(-2.3935558e-06 0.005634709 0)
(-3.5092559e-06 0.0056085699 0)
(-4.0134281e-06 0.0055519125 0)
(-3.86259e-06 0.0054397736 0)
(-3.162594e-06 0.0052325258 0)
(-2.1447614e-06 0.0048696044 0)
(-1.1020036e-06 0.0042567304 0)
(-3.0607571e-07 0.0032374075 0)
(-5.2083056e-09 0.0015307862 0)
(-1.5620106e-08 0.0015306945 0)
(1.1972059e-07 0.0032370005 0)
(5.6242156e-07 0.0042560513 0)
(1.1896833e-06 0.0048688129 0)
(1.8361112e-06 0.0052318424 0)
(2.3093497e-06 0.0054394109 0)
(2.4482304e-06 0.0055520138 0)
(2.169932e-06 0.0056091701 0)
(1.4926026e-06 0.0056357237 0)
(5.3158489e-07 0.0056458447 0)
(-5.3172247e-07 0.0056458444 0)
(-1.4928761e-06 0.0056357237 0)
(-2.1703042e-06 0.0056091698 0)
(-2.4489057e-06 0.0055520141 0)
(-2.3103987e-06 0.0054394117 0)
(-1.83701e-06 0.0052318442 0)
(-1.1904283e-06 0.0048688163 0)
(-5.631446e-07 0.0042560556 0)
(-1.2050634e-07 0.0032370048 0)
(1.5168571e-08 0.0015306974 0)
(-2.3368623e-08 0.0015306767 0)
(2.1435793e-08 0.0032367989 0)
(2.5457285e-07 0.0042556665 0)
(6.2353485e-07 0.0048683316 0)
(1.0288874e-06 0.0052314023 0)
(1.3451459e-06 0.0054391549 0)
(1.4616585e-06 0.0055520442 0)
(1.3162357e-06 0.0056095184 0)
(9.1416831e-07 0.0056363419 0)
(3.2712339e-07 0.0056466159 0)
(-3.2740503e-07 0.0056466155 0)
(-9.1486213e-07 0.0056363412 0)
(-1.3171603e-06 0.0056095177 0)
(-1.4627819e-06 0.0055520435 0)
(-1.3466331e-06 0.0054391548 0)
(-1.0301787e-06 0.0052314035 0)
(-6.2461134e-07 0.004868334 0)
(-2.5554143e-07 0.00425567 0)
(-2.2011317e-08 0.0032368025 0)
(2.322258e-08 0.0015306792 0)
(-2.4482472e-08 0.001530694 0)
(-2.5799778e-08 0.0032367108 0)
(8.6777303e-08 0.0042554556 0)
(2.9798335e-07 0.004868043 0)
(5.4888015e-07 0.0052311216 0)
(7.5809783e-07 0.0054389763 0)
(8.504495e-07 0.0055520394 0)
(7.8092318e-07 0.0056097141 0)
(5.4850446e-07 0.0056367105 0)
(1.968907e-07 0.0056470833 0)
(-1.9845319e-07 0.0056470831 0)
(-5.5015738e-07 0.0056367093 0)
(-7.823907e-07 0.0056097126 0)
(-8.5207571e-07 0.005552038 0)
(-7.5992108e-07 0.0054389752 0)
(-5.5068042e-07 0.0052311218 0)
(-2.9950968e-07 0.0048680444 0)
(-8.7924151e-08 0.004255458 0)
(2.5152971e-08 0.0032367137 0)
(2.4319709e-08 0.0015306958 0)
(-2.1435756e-08 0.0015307238 0)
(-4.2991347e-08 0.003236686 0)
(2.8945141e-09 0.0042553455 0)
(1.1998189e-07 0.0048678741 0)
(2.7338573e-07 0.0052309451 0)
(4.1031429e-07 0.0054388538 0)
(4.8061666e-07 0.0055520199 0)
(4.5248496e-07 0.0056098189 0)
(3.2193831e-07 0.0056369248 0)
(1.1581764e-07 0.0056473614 0)
(-1.1810253e-07 0.0056473611 0)
(-3.243768e-07 0.0056369238 0)
(-4.546912e-07 0.0056098171 0)
(-4.8292635e-07 0.0055520182 0)
(-4.1254295e-07 0.0054388517 0)
(-2.7558691e-07 0.0052309439 0)
(-1.2204568e-07 0.0048678746 0)
(-4.2000363e-09 0.0042553468 0)
(4.2558687e-08 0.003236688 0)
(2.1433064e-08 0.0015307249 0)
(-1.6830997e-08 0.0015307548 0)
(-4.2981488e-08 0.0032366913 0)
(-3.0190085e-08 0.0042552935 0)
(3.2237428e-08 0.0048677775 0)
(1.2416391e-07 0.0052308357 0)
(2.1236462e-07 0.0054387712 0)
(2.6365716e-07 0.0055519977 0)
(2.5587331e-07 0.0056098726 0)
(1.8496857e-07 0.005637047 0)
(6.6367926e-08 0.0056475237 0)
(-6.9912066e-08 0.0056475235 0)
(-1.8864262e-07 0.0056370458 0)
(-2.5960144e-07 0.0056098704 0)
(-2.6706946e-07 0.005551995 0)
(-2.1546847e-07 0.0054387683 0)
(-1.2686129e-07 0.0052308335 0)
(-3.4360465e-08 0.0048677766 0)
(2.8987397e-08 0.0042552935 0)
(4.2555655e-08 0.0032366917 0)
(1.6680217e-08 0.0015307551 0)
(-1.1380532e-08 0.001530781 0)
(-3.3069128e-08 0.003236706 0)
(-3.3385538e-08 0.004255272 0)
(-9.2568904e-10 0.0048677232 0)
(5.3289064e-08 0.0052307687 0)
(1.0853876e-07 0.0054387168 0)
(1.4365102e-07 0.0055519781 0)
(1.4395296e-07 0.0056098991 0)
(1.0555146e-07 0.0056371157 0)
(3.7183763e-08 0.0056476174 0)
(-4.1925558e-08 0.0056476169 0)
(-1.1004082e-07 0.0056371141 0)
(-1.486242e-07 0.0056098965 0)
(-1.4817185e-07 0.0055519747 0)
(-1.1231265e-07 0.0054387131 0)
(-5.6258211e-08 0.0052307656 0)
(-1.4865644e-09 0.0048677207 0)
(3.1707347e-08 0.0042552707 0)
(3.2436205e-08 0.0032367049 0)
(1.1317363e-08 0.0015307804 0)
(-5.1861213e-09 0.0015307987 0)
(-1.6438821e-08 0.0032367181 0)
(-1.6749763e-08 0.0042552639 0)
(6.379594e-10 0.004867694 0)
(3.1099714e-08 0.0052307296 0)
(6.3384353e-08 0.0054386834 0)
(8.4356695e-08 0.0055519647 0)
(8.4780246e-08 0.0056099131 0)
(6.2064149e-08 0.0056371556 0)
(2.0999726e-08 0.0056476728 0)
(-2.6805056e-08 0.005647672 0)
(-6.781259e-08 0.0056371536 0)
(-9.061113e-08 0.0056099102 0)
(-8.9867566e-08 0.0055519607 0)
(-6.8277372e-08 0.0054386791 0)
(-3.5258236e-08 0.0052307253 0)
(-3.5434407e-09 0.0048676904 0)
(1.5217253e-08 0.0042552611 0)
(1.6033274e-08 0.0032367159 0)
(5.2875643e-09 0.0015307975 0)
(2.7136971e-09 0.0015308072 0)
(7.6227507e-09 0.0032367255 0)
(1.5788077e-08 0.0042552642 0)
(2.6040953e-08 0.0048676846 0)
(4.0490962e-08 0.0052307153 0)
(5.5072016e-08 0.0054386725 0)
(6.277271e-08 0.005551965 0)
(5.879387e-08 0.0056099296 0)
(4.1302132e-08 0.0056371877 0)
(1.2707951e-08 0.0056477142 0)
(-1.9992979e-08 0.0056477134 0)
(-4.8459939e-08 0.0056371855 0)
(-6.5973396e-08 0.0056099266 0)
(-6.9553598e-08 0.0055519608 0)
(-6.0936238e-08 0.005438667 0)
(-4.5212274e-08 0.0052307099 0)
(-2.9382846e-08 0.0048676796 0)
(-1.7716017e-08 0.0042552596 0)
(-8.1365395e-09 0.0032367218 0)
(-2.5693132e-09 0.0015308053 0)
(1.7621228e-08 0.001530784 0)
(4.6080235e-08 0.0032367014 0)
(6.4616236e-08 0.0042552466 0)
(6.9568199e-08 0.004867669 0)
(7.0610961e-08 0.0052307001 0)
(6.9628687e-08 0.00543866 0)
(6.4734811e-08 0.0055519592 0)
(5.3328057e-08 0.0056099329 0)
(3.4507276e-08 0.0056371997 0)
(9.5953688e-09 0.0056477315 0)
(-1.7654347e-08 0.0056477306 0)
(-4.2558519e-08 0.0056371974 0)
(-6.1536463e-08 0.0056099296 0)
(-7.2602317e-08 0.0055519545 0)
(-7.6382271e-08 0.0054386537 0)
(-7.6077656e-08 0.0052306936 0)
(-7.3666844e-08 0.0048676624 0)
(-6.6998374e-08 0.0042552405 0)
(-4.6960636e-08 0.0032366963 0)
(-1.78281e-08 0.0015307814 0)
(4.2307522e-08 0.0015307659 0)
(1.0019977e-07 0.0032366674 0)
(1.242992e-07 0.0042552257 0)
(1.2099399e-07 0.0048676546 0)
(1.0917645e-07 0.0052306861 0)
(9.468112e-08 0.0054386459 0)
(7.7823562e-08 0.005551947 0)
(5.8143156e-08 0.0056099242 0)
(3.4979533e-08 0.0056371947 0)
(8.9552377e-09 0.0056477291 0)
(-1.8233126e-08 0.0056477282 0)
(-4.434997e-08 0.0056371924 0)
(-6.7363183e-08 0.0056099205 0)
(-8.6305991e-08 0.0055519415 0)
(-1.0197641e-07 0.0054386383 0)
(-1.1544563e-07 0.0052306779 0)
(-1.2573117e-07 0.0048676463 0)
(-1.2709776e-07 0.0042552182 0)
(-1.0147479e-07 0.0032366611 0)
(-4.2571201e-08 0.0015307628 0)
(5.1095138e-08 0.0015305951 0)
(1.2341538e-07 0.0032365897 0)
(1.508472e-07 0.0042552213 0)
(1.4683472e-07 0.0048676875 0)
(1.3084594e-07 0.0052307357 0)
(1.1040068e-07 0.0054387033 0)
(8.7797198e-08 0.0055520098 0)
(6.3149026e-08 0.0056099912 0)
(3.6776885e-08 0.0056372645 0)
(9.2394729e-09 0.0056478009 0)
(-1.9075332e-08 0.0056478002 0)
(-4.6598268e-08 0.005637262 0)
(-7.2856548e-08 0.0056099866 0)
(-9.7063416e-08 0.0055520028 0)
(-1.1842632e-07 0.0054386943 0)
(-1.3715551e-07 0.0052307256 0)
(-1.5153244e-07 0.0048676767 0)
(-1.5414928e-07 0.004255211 0)
(-1.2490972e-07 0.0032365804 0)
(-5.1292963e-08 0.0015305905 0)
)
;

boundaryField
{
    Wall
    {
        type            fixedValue;
        value           uniform (0 0 0);
    }
    frontAndBack
    {
        type            empty;
    }
    atmosphere
    {
        type            pressureInletOutletVelocity;
        value           nonuniform List<vector> 
20
(
(5.1095138e-08 0.0015305951 0)
(1.2341538e-07 0.0032365897 0)
(1.508472e-07 0.0042552213 0)
(1.4683472e-07 0.0048676875 0)
(1.3084594e-07 0.0052307357 0)
(1.1040068e-07 0.0054387033 0)
(8.7797198e-08 0.0055520098 0)
(6.3149026e-08 0.0056099912 0)
(3.6776885e-08 0.0056372645 0)
(9.2394729e-09 0.0056478009 0)
(-1.9075332e-08 0.0056478002 0)
(-4.6598268e-08 0.005637262 0)
(-7.2856548e-08 0.0056099866 0)
(-9.7063416e-08 0.0055520028 0)
(-1.1842632e-07 0.0054386943 0)
(-1.3715551e-07 0.0052307256 0)
(-1.5153244e-07 0.0048676767 0)
(-1.5414928e-07 0.004255211 0)
(-1.2490972e-07 0.0032365804 0)
(-5.1292963e-08 0.0015305905 0)
)
;
    }
}


// ************************************************************************* //
