/*--------------------------------*- C++ -*----------------------------------*\
| =========                 |                                                 |
| \\      /  F ield         | OpenFOAM: The Open Source CFD Toolbox           |
|  \\    /   O peration     | Version:  3.0.1                                 |
|   \\  /    A nd           | Web:      www.OpenFOAM.org                      |
|    \\/     M anipulation  |                                                 |
\*---------------------------------------------------------------------------*/
FoamFile
{
    version     2.0;
    format      ascii;
    class       volScalarField;
    location    "20";
    object      wBA_g;
}
// * * * * * * * * * * * * * * * * * * * * * * * * * * * * * * * * * * * * * //

dimensions      [0 0 0 0 0 0 0];

internalField   nonuniform List<scalar> 
800
(
0.038403205
0.038407393
0.038408055
0.038408206
0.038408298
0.038408374
0.038408437
0.038408485
0.038408516
0.038408531
0.038408531
0.038408516
0.038408485
0.038408438
0.038408375
0.038408298
0.038408206
0.038408055
0.038407392
0.038403205
0.04070954
0.040755744
0.040759224
0.04075843
0.040757168
0.040756438
0.040756122
0.04075603
0.040756024
0.040756035
0.040756036
0.040756024
0.040756029
0.040756121
0.040756437
0.040757167
0.04075843
0.040759223
0.040755742
0.040709539
0.039613018
0.03970073
0.039768826
0.03976887
0.03976745
0.039767004
0.039767337
0.039767964
0.039768518
0.039768833
0.039768833
0.039768517
0.039767963
0.039767335
0.039767002
0.039767448
0.039768867
0.039768824
0.039700727
0.039613013
0.036089392
0.036263614
0.036352755
0.036350101
0.036348172
0.036348165
0.036349415
0.036351079
0.036352393
0.036353126
0.036353126
0.036352391
0.036351077
0.036349412
0.036348162
0.036348169
0.036350098
0.036352752
0.03626361
0.036089384
0.031019993
0.031301305
0.03137329
0.031468718
0.031465279
0.031465241
0.03146709
0.031469556
0.031471465
0.031472544
0.031472544
0.031471464
0.031469553
0.031467087
0.031465238
0.031465275
0.031468713
0.031373286
0.031301299
0.031019984
0.024643807
0.025207746
0.025247016
0.025351365
0.025345212
0.025344376
0.025346147
0.025348763
0.025350843
0.025352041
0.02535204
0.025350842
0.025348761
0.025346144
0.025344373
0.025345208
0.02535136
0.025247011
0.025207739
0.024643798
0.015828313
0.016892828
0.01691961
0.016990437
0.0169849
0.016984487
0.016986372
0.016988861
0.016990814
0.016991914
0.016991914
0.016990813
0.016988859
0.01698637
0.016984484
0.016984897
0.016990434
0.016919606
0.016892822
0.015828307
0.006630226
0.0071401284
0.0071769593
0.0072240467
0.0072255634
0.0072285318
0.0072316374
0.0072342812
0.0072360943
0.0072370306
0.0072370304
0.0072360935
0.0072342798
0.0072316357
0.0072285298
0.0072255611
0.0072240443
0.0071769568
0.0071401254
0.0066302221
0.0032711908
0.0034642452
0.003493511
0.0035199983
0.0035234014
0.0035265948
0.0035291488
0.0035310481
0.0035322604
0.0035328624
0.0035328623
0.0035322599
0.0035310472
0.0035291477
0.0035265935
0.0035234
0.0035199969
0.0034935096
0.0034642436
0.0032711887
0.0017943781
0.0018835769
0.001906763
0.0019216038
0.0019249038
0.0019272938
0.0019289421
0.0019300756
0.0019307579
0.0019310866
0.0019310864
0.0019307576
0.001930075
0.0019289415
0.0019272931
0.0019249031
0.0019216031
0.0019067623
0.0018835761
0.001794377
0.000971943
0.0010399276
0.0010647316
0.0010747168
0.0010771801
0.0010783349
0.0010789376
0.0010793062
0.0010795028
0.0010795862
0.0010795861
0.0010795026
0.0010793059
0.0010789372
0.0010783346
0.0010771798
0.0010747165
0.0010647313
0.0010399274
0.00097194271
0.00046539774
0.00054043544
0.00056963898
0.00057844405
0.00057955419
0.00057899545
0.00057825659
0.00057771443
0.00057736691
0.0005771841
0.00057718404
0.00057736678
0.00057771421
0.00057825638
0.0005789953
0.00057955409
0.00057844396
0.00056963894
0.00054043546
0.00046539779
0.00017311848
0.00026151284
0.00029505988
0.0003048324
0.00030526041
0.00030319651
0.0003010464
0.00029946286
0.00029846742
0.00029797084
0.00029797079
0.00029846731
0.00029946268
0.00030104625
0.00030319641
0.00030526035
0.00030483237
0.00029505987
0.00026151289
0.00017311858
4.6267699e-05
0.00011480574
0.00014613784
0.00015686627
0.0001580829
0.00015604269
0.00015352791
0.00015152002
0.00015020573
0.00014954606
0.00014954602
0.00015020563
0.00015151988
0.00015352779
0.00015604262
0.00015808287
0.00015686626
0.00014613784
0.00011480577
4.6267734e-05
9.0424092e-06
4.5200814e-05
6.8118673e-05
7.7701539e-05
7.9706778e-05
7.8542132e-05
7.6591438e-05
7.4878494e-05
7.3703766e-05
7.3103567e-05
7.3103531e-05
7.3703686e-05
7.487838e-05
7.6591349e-05
7.854208e-05
7.9706757e-05
7.770154e-05
6.8118673e-05
4.5200822e-05
9.0424138e-06
1.3726468e-06
1.5904327e-05
2.9650006e-05
3.6680117e-05
3.8760162e-05
3.8385193e-05
3.7209172e-05
3.605848e-05
3.5231372e-05
3.4800563e-05
3.4800536e-05
3.5231314e-05
3.6058397e-05
3.7209108e-05
3.8385155e-05
3.8760146e-05
3.6680118e-05
2.9650005e-05
1.5904329e-05
1.3726472e-06
1.7303822e-07
5.0219038e-06
1.2025211e-05
1.6420254e-05
1.8066552e-05
1.8106921e-05
1.752006e-05
1.6865117e-05
1.6371044e-05
1.6108761e-05
1.6108743e-05
1.6371006e-05
1.6865062e-05
1.7520016e-05
1.8106895e-05
1.806654e-05
1.6420256e-05
1.2025211e-05
5.021905e-06
1.7303832e-07
1.9123545e-08
1.4379795e-06
4.5512872e-06
6.9609488e-06
8.0465431e-06
8.212303e-06
7.9654597e-06
7.6373772e-06
7.376625e-06
7.2355263e-06
7.2355157e-06
7.3766022e-06
7.6373433e-06
7.9654321e-06
8.2122858e-06
8.0465347e-06
6.9609503e-06
4.5512876e-06
1.4379802e-06
1.9123571e-08
1.9226384e-09
3.7821531e-07
1.6137087e-06
2.7968313e-06
3.4212003e-06
3.5738716e-06
3.4881814e-06
3.3404963e-06
3.2159675e-06
3.1472186e-06
3.1472128e-06
3.2159548e-06
3.3404772e-06
3.4881656e-06
3.5738613e-06
3.421195e-06
2.7968322e-06
1.6137091e-06
3.7821565e-07
1.9226433e-09
1.7996412e-10
9.2472329e-08
5.3865199e-07
1.0673078e-06
1.389224e-06
1.4913003e-06
1.4693087e-06
1.4089006e-06
1.3542701e-06
1.3234478e-06
1.3234449e-06
1.3542634e-06
1.4088905e-06
1.4693003e-06
1.4912947e-06
1.389221e-06
1.0673083e-06
5.3865229e-07
9.2472457e-08
1.7996484e-10
1.5904429e-11
2.1222918e-08
1.7013235e-07
3.8788277e-07
5.3941538e-07
5.9680713e-07
5.9504167e-07
5.7249053e-07
5.5025803e-07
5.3740689e-07
5.3740547e-07
5.5025482e-07
5.7248563e-07
5.9503751e-07
5.9680435e-07
5.3941381e-07
3.8788295e-07
1.7013251e-07
2.1222956e-08
1.5904514e-11
1.3382718e-12
4.6066727e-09
5.1085922e-08
1.3462299e-07
2.0060268e-07
2.2923557e-07
2.3172498e-07
2.2405739e-07
2.1560922e-07
2.1058889e-07
2.1058826e-07
2.1560775e-07
2.2405514e-07
2.3172304e-07
2.2923428e-07
2.0060192e-07
1.3462305e-07
5.1085996e-08
4.6066836e-09
1.3382808e-12
1.0776259e-13
9.511589e-10
1.4643558e-08
4.4742904e-08
7.157868e-08
8.4603338e-08
8.6825641e-08
8.447778e-08
8.146779e-08
7.9620444e-08
7.9620172e-08
8.1467158e-08
8.4476811e-08
8.6824787e-08
8.4602781e-08
7.1578348e-08
4.4742914e-08
1.4643587e-08
9.511618e-10
1.0776349e-13
8.3300025e-15
1.8764909e-10
4.0213684e-09
1.427594e-08
2.4549273e-08
3.0040031e-08
3.132923e-08
3.0701038e-08
2.9693303e-08
2.9050556e-08
2.9050447e-08
2.9693044e-08
3.0700642e-08
3.1328875e-08
3.0039802e-08
2.4549134e-08
1.4275939e-08
4.0213789e-09
1.8764978e-10
8.3300891e-15
6.1936231e-16
3.5501735e-11
1.0612655e-09
4.3827569e-09
8.106711e-09
1.0275324e-08
1.0897356e-08
1.0762697e-08
1.0445601e-08
1.0233605e-08
1.0233564e-08
1.0445501e-08
1.0762543e-08
1.0897216e-08
1.0275234e-08
8.1066563e-09
4.3827547e-09
1.061269e-09
3.5501897e-11
6.1937023e-16
4.4357556e-17
6.4613357e-12
2.6987934e-10
1.2972908e-09
2.5816464e-09
3.3903383e-09
3.6579145e-09
3.6427641e-09
3.5491983e-09
3.4828144e-09
3.4827995e-09
3.5491608e-09
3.6427071e-09
3.6578619e-09
3.3903041e-09
2.5816261e-09
1.2972894e-09
2.6988039e-10
6.4613704e-12
4.4358246e-17
3.06324e-18
1.1344825e-12
6.629016e-11
3.7090768e-10
7.9402525e-10
1.0804134e-09
1.186206e-09
1.1914901e-09
1.1657519e-09
1.1460081e-09
1.1460028e-09
1.1657385e-09
1.1914698e-09
1.1861869e-09
1.0804009e-09
7.9401803e-10
3.70907e-10
6.6290456e-11
1.1344897e-12
3.0632973e-18
2.0417674e-19
1.9268309e-13
1.5761259e-11
1.0259792e-10
2.3617807e-10
3.329275e-10
3.7201293e-10
3.7697046e-10
3.7045067e-10
3.6487762e-10
3.6487585e-10
3.70446e-10
3.7696355e-10
3.720063e-10
3.3292307e-10
2.3617561e-10
1.0259763e-10
1.5761336e-11
1.9268445e-13
2.0418123e-19
1.3148563e-20
3.1739108e-14
3.6343594e-12
2.7496837e-11
6.8020273e-11
9.931075e-11
1.1294259e-10
1.1547161e-10
1.1398989e-10
1.1250049e-10
1.1249992e-10
1.1398833e-10
1.1546933e-10
1.1294037e-10
9.930923e-11
6.801946e-11
2.7496724e-11
3.6343776e-12
3.1739352e-14
1.3148899e-20
1.2701906e-21
5.0835241e-15
8.1414797e-13
7.1491289e-12
1.8989017e-11
2.8705312e-11
3.3224386e-11
3.4273904e-11
3.399067e-11
3.3615589e-11
3.3615406e-11
3.3990167e-11
3.427318e-11
3.3223668e-11
2.8704808e-11
1.8988757e-11
7.1490882e-12
8.1415177e-13
5.0835641e-15
1.2679818e-21
5.8800642e-22
7.9366851e-16
1.7744863e-13
1.805247e-12
5.1434286e-12
8.0470902e-12
9.4780381e-12
9.8653635e-12
9.8295164e-12
9.7412838e-12
9.7412274e-12
9.82936e-12
9.8651402e-12
9.4778122e-12
8.0469275e-12
5.1433483e-12
1.8052332e-12
1.7744932e-13
7.9367452e-16
5.8228237e-22
2.1043597e-22
1.2108062e-16
3.7679285e-14
4.4315626e-13
1.3528907e-12
2.1896636e-12
2.6240385e-12
2.7557145e-12
2.7585347e-12
2.739468e-12
2.7394512e-12
2.7584874e-12
2.7556476e-12
2.6239697e-12
2.1896129e-12
1.3528665e-12
4.4315182e-13
3.7679381e-14
1.2108147e-16
2.1068275e-22
4.1828739e-23
1.8097602e-17
7.8031684e-15
1.058471e-13
3.4583029e-13
5.7875182e-13
7.0551712e-13
7.4749457e-13
7.5173843e-13
7.4808567e-13
7.4808084e-13
7.5172462e-13
7.4747514e-13
7.0549683e-13
5.7873653e-13
3.4582324e-13
1.0584576e-13
7.8031733e-15
1.809745e-17
4.1887259e-23
6.3016603e-24
2.6549054e-18
1.5775076e-15
2.4615837e-14
8.5969779e-14
1.4868425e-13
1.8433015e-13
1.9701024e-13
1.990401e-13
1.9847641e-13
1.9847505e-13
1.9903619e-13
1.9700477e-13
1.8432435e-13
1.4867979e-13
8.5967774e-14
2.4615449e-14
1.5775042e-15
2.6548121e-18
6.2861554e-24
7.7443138e-25
3.8270342e-19
3.1153844e-16
5.5773557e-15
2.0795499e-14
3.714899e-14
4.6824899e-14
5.047859e-14
5.1229705e-14
5.1186549e-14
5.1186181e-14
5.1228631e-14
5.0477088e-14
4.6823287e-14
3.7147733e-14
2.0794947e-14
5.5772482e-15
3.1153643e-16
3.8267089e-19
7.7035931e-25
7.4367842e-26
5.4236318e-20
6.0133377e-17
1.2318108e-15
4.897372e-15
9.0316123e-15
1.1570906e-14
1.257981e-14
1.2823729e-14
1.283785e-14
1.2837751e-14
1.2823443e-14
1.257941e-14
1.1570472e-14
9.0312697e-15
4.8972236e-15
1.2317822e-15
6.0132695e-17
5.4227946e-20
7.379514e-26
4.0885855e-27
7.5583732e-21
1.1348827e-17
2.6530812e-16
1.1233943e-15
2.1375961e-15
2.7827134e-15
3.0505911e-15
3.1232531e-15
3.1325977e-15
3.1325721e-15
3.1231787e-15
3.0504871e-15
2.7825998e-15
2.1375055e-15
1.1233555e-15
2.653008e-16
1.1348663e-17
7.5570584e-21
4.0423849e-27
2.1024972e-28
1.0373666e-21
2.0947715e-18
5.5745401e-17
2.5110888e-16
4.9273896e-16
6.5157806e-16
7.2014312e-16
7.4042003e-16
7.4399286e-16
7.4398642e-16
7.4040128e-16
7.2011684e-16
6.5154926e-16
4.9271577e-16
2.5109903e-16
5.5743591e-17
2.0947328e-18
1.0371876e-21
2.0466715e-28
1.0864558e-29
1.4020985e-22
3.7821903e-19
1.1430354e-17
5.4717012e-17
1.1066606e-16
1.4860603e-16
1.6555814e-16
1.7092143e-16
1.7204929e-16
1.7204772e-16
1.7091683e-16
1.6555167e-16
1.4859893e-16
1.1066029e-16
5.4714577e-17
1.1429921e-17
3.7821005e-19
1.4018823e-22
1.0396866e-29
5.6286707e-31
1.8654065e-23
6.680569e-20
2.2878488e-18
1.1627085e-17
2.422608e-17
3.3025164e-17
3.7080347e-17
3.8434844e-17
3.8754261e-17
3.8753886e-17
3.8433751e-17
3.7078797e-17
3.3023456e-17
2.422469e-17
1.1626499e-17
2.2877483e-18
6.6803681e-20
1.8651609e-23
5.3203762e-31
)
;

boundaryField
{
    Wall
    {
        type            zeroGradient;
    }
    frontAndBack
    {
        type            empty;
    }
    atmosphere
    {
        type            zeroGradient;
    }
}


// ************************************************************************* //
