/*--------------------------------*- C++ -*----------------------------------*\
| =========                 |                                                 |
| \\      /  F ield         | OpenFOAM: The Open Source CFD Toolbox           |
|  \\    /   O peration     | Version:  3.0.1                                 |
|   \\  /    A nd           | Web:      www.OpenFOAM.org                      |
|    \\/     M anipulation  |                                                 |
\*---------------------------------------------------------------------------*/
FoamFile
{
    version     2.0;
    format      ascii;
    class       volScalarField;
    location    "20";
    object      wBA_l;
}
// * * * * * * * * * * * * * * * * * * * * * * * * * * * * * * * * * * * * * //

dimensions      [0 0 0 0 0 0 0];

internalField   nonuniform List<scalar> 
800
(
0.054488959
0.054488475
0.054488445
0.054488451
0.054488455
0.054488457
0.054488458
0.054488458
0.054488459
0.054488459
0.054488459
0.054488459
0.054488459
0.054488458
0.054488457
0.054488455
0.054488451
0.054488445
0.054488475
0.054488959
0.055008662
0.054996374
0.054994207
0.0549937
0.054993454
0.054993227
0.054993016
0.054992842
0.054992721
0.05499266
0.05499266
0.054992722
0.054992842
0.054993016
0.054993227
0.054993454
0.0549937
0.054994207
0.054996374
0.055008662
0.053803404
0.053811933
0.053813733
0.053813428
0.053812768
0.053812277
0.053811966
0.053811785
0.053811688
0.053811648
0.053811648
0.053811688
0.053811785
0.053811966
0.053812277
0.053812768
0.053813428
0.053813732
0.053811932
0.053803404
0.05131257
0.051362017
0.051369444
0.051368388
0.051367186
0.051366384
0.051366011
0.05136588
0.051365849
0.051365853
0.051365853
0.051365849
0.05136588
0.051366011
0.051366383
0.051367186
0.051368387
0.051369444
0.051362016
0.051312569
0.047913006
0.048019356
0.048033361
0.048032357
0.048030764
0.04802979
0.048029438
0.048029389
0.048029432
0.048029477
0.048029477
0.048029432
0.048029389
0.048029438
0.04802979
0.048030764
0.048032357
0.048033361
0.048019356
0.047913005
0.043871302
0.044053101
0.044078113
0.044079053
0.044077847
0.044077182
0.044077043
0.044077096
0.044077203
0.044077276
0.044077276
0.044077204
0.044077096
0.044077044
0.044077183
0.044077848
0.044079054
0.044078114
0.044053102
0.043871303
0.039333558
0.039612126
0.039659675
0.039667146
0.039668179
0.039668504
0.039668801
0.039668961
0.039669088
0.039669135
0.039669135
0.039669088
0.039668962
0.039668802
0.039668505
0.039668181
0.039667148
0.039659677
0.039612129
0.03933356
0.034381202
0.034792745
0.034884375
0.034906264
0.034912019
0.034913818
0.034914412
0.034914495
0.034914451
0.034914335
0.034914335
0.034914451
0.034914495
0.034914413
0.03491382
0.034912022
0.034906267
0.034884378
0.034792748
0.034381206
0.02896364
0.029559574
0.029734343
0.029784127
0.02979738
0.029800034
0.029799664
0.029798832
0.029798017
0.029797406
0.029797406
0.029798017
0.029798832
0.029799665
0.029800036
0.029797383
0.029784131
0.029734347
0.029559579
0.028963647
0.02312551
0.023971619
0.024298365
0.024400245
0.024423949
0.024424333
0.024419417
0.024415309
0.024412268
0.024410449
0.024410448
0.024412268
0.024415308
0.024419417
0.024424335
0.024423952
0.02440025
0.024298369
0.023971626
0.023125519
0.016722056
0.018016562
0.018637085
0.01884851
0.018892814
0.018885097
0.018867585
0.01885413
0.01884516
0.018840313
0.018840312
0.018845159
0.018854127
0.018867584
0.018885098
0.018892817
0.018848516
0.018637091
0.01801657
0.016722068
0.010102819
0.012038515
0.013034639
0.01341775
0.013502038
0.013480309
0.013437822
0.013404378
0.013382808
0.013371706
0.013371704
0.013382806
0.013404373
0.01343782
0.013480309
0.01350204
0.013417755
0.013034643
0.012038523
0.010102831
0.0045685118
0.0071933697
0.0084614195
0.0089847497
0.0091111197
0.0090746076
0.0089997242
0.0089371546
0.0088961681
0.0088753982
0.0088753955
0.0088961639
0.0089371473
0.0089997199
0.0090746058
0.0091111198
0.0089847515
0.0084614214
0.0071933748
0.0045685193
0.0014479712
0.0038322309
0.0051244931
0.0057069121
0.0058701282
0.0058382662
0.0057490875
0.0056679635
0.0056125963
0.0055843013
0.0055842983
0.005612591
0.0056679552
0.0057490818
0.005838263
0.0058701266
0.0057069121
0.0051244931
0.003832233
0.0014479738
0.00032935253
0.0018140318
0.0028822419
0.0034272384
0.0036076599
0.0035971707
0.0035195579
0.0034414732
0.0033856355
0.0033566025
0.0033565998
0.0033856302
0.003441465
0.0035195518
0.0035971666
0.0036076572
0.0034272374
0.0028822408
0.001814032
0.00032935307
5.7391294e-05
0.00076093125
0.0015010472
0.0019393507
0.0021087354
0.0021193316
0.0020658855
0.0020052449
0.0019597695
0.0019356814
0.001935679
0.0019597648
0.0020052378
0.0020658799
0.0021193276
0.0021087324
0.0019393493
0.0015010458
0.0007609309
5.7391376e-05
8.2200313e-06
0.00028398666
0.00072373559
0.0010325302
0.0011699036
0.0011917588
0.0011615408
0.0011214901
0.0010899298
0.0010729042
0.0010729025
0.0010899261
0.0011214845
0.0011615362
0.0011917554
0.0011699009
0.0010325288
0.0007237345
0.00028398635
8.2200457e-06
1.0238343e-06
9.5366447e-05
0.00032389454
0.00051747488
0.00061565331
0.00063890871
0.00062492383
0.00060172577
0.00058242039
0.00057181209
0.0005718109
0.00058241783
0.00060172188
0.00062492045
0.00063890609
0.00061565116
0.00051747385
0.00032389385
9.5366285e-05
1.0238369e-06
1.1523507e-07
2.9232058e-05
0.00013517209
0.00024459856
0.00030748259
0.00032646742
0.00032153392
0.00030954476
0.00029891177
0.00029295344
0.0002929527
0.00029891011
0.00030954225
0.00032153166
0.00032646561
0.0003074811
0.00024459788
0.00013517171
2.9231989e-05
1.152355e-07
1.2007133e-08
8.2914221e-06
5.2906376e-05
0.00010934734
0.00014594415
0.00015906976
0.00015819707
0.00015262268
0.0001472765
0.0001442146
0.00014421417
0.00014727551
0.00015262118
0.00015819568
0.00015906864
0.00014594322
0.00010934693
5.2906199e-05
8.2913964e-06
1.2007195e-08
1.1756102e-09
2.2013384e-06
1.9533974e-05
4.6377989e-05
6.5948805e-05
7.3975122e-05
7.4455121e-05
7.2122445e-05
6.9646666e-05
6.8192339e-05
6.8192108e-05
6.9646108e-05
7.2121611e-05
7.4454324e-05
7.3974475e-05
6.5948275e-05
4.637776e-05
1.9533897e-05
2.2013296e-06
1.1756178e-09
1.0916799e-10
5.5206456e-07
6.8398974e-06
1.8720383e-05
2.8426683e-05
3.2874433e-05
3.354314e-05
3.2672978e-05
3.1611122e-05
3.0968124e-05
3.0968008e-05
3.1610831e-05
3.2672545e-05
3.3542715e-05
3.2874087e-05
2.8426406e-05
1.8720266e-05
6.8398665e-06
5.5206188e-07
1.0916882e-10
9.6731678e-12
1.3171463e-07
2.281812e-06
7.2121576e-06
1.1710778e-05
1.3979281e-05
1.4477749e-05
1.4196628e-05
1.3773642e-05
1.3507713e-05
1.3507657e-05
1.3773498e-05
1.4196416e-05
1.4477536e-05
1.3979108e-05
1.1710644e-05
7.2121013e-06
2.2818004e-06
1.3171388e-07
9.6732536e-12
8.2136821e-13
3.0064514e-08
7.2801219e-07
2.6586933e-06
4.6193241e-06
5.695802e-06
5.9925045e-06
5.920274e-06
5.763761e-06
5.660546e-06
5.6605208e-06
5.763694e-06
5.9201766e-06
5.9924042e-06
5.6957205e-06
4.6192632e-06
2.6586683e-06
7.28008e-07
3.0064313e-08
8.2137665e-13
6.7059343e-14
6.5945906e-09
2.2282995e-07
9.398874e-07
1.7475397e-06
2.2265876e-06
2.3810284e-06
2.3712884e-06
2.3176667e-06
2.2800032e-06
2.2799925e-06
2.3176372e-06
2.3712457e-06
2.3809837e-06
2.2265511e-06
1.7475137e-06
9.3987698e-07
2.2282851e-07
6.5945412e-09
6.7060128e-14
5.2799271e-15
1.3950485e-09
6.5594431e-08
3.1922436e-07
6.3500643e-07
8.361364e-07
9.0908782e-07
9.1298004e-07
8.9611375e-07
8.8318839e-07
8.8318399e-07
8.9610132e-07
9.1296224e-07
9.0906891e-07
8.3612086e-07
6.3499592e-07
3.1922027e-07
6.5593962e-08
1.3950368e-09
5.2799962e-15
4.0209314e-16
2.8543194e-10
1.8607243e-08
1.0433031e-07
2.2192435e-07
3.0197041e-07
3.3385191e-07
3.3816459e-07
3.3338394e-07
3.2921812e-07
3.2921637e-07
3.3337893e-07
3.3815749e-07
3.3384426e-07
3.0196408e-07
2.219203e-07
1.0432879e-07
1.8607096e-08
2.8542934e-10
4.0209887e-16
2.9711112e-17
5.6611934e-11
5.0945343e-09
3.2854499e-08
7.4681855e-08
1.0499247e-07
1.1803475e-07
1.2059732e-07
1.1942856e-07
1.1817248e-07
1.1817181e-07
1.1942663e-07
1.205946e-07
1.1803179e-07
1.0499e-07
7.4680364e-08
3.2853959e-08
5.0944892e-09
5.6611367e-11
2.9711552e-17
2.1374485e-18
1.0903213e-11
1.3479657e-09
9.9801729e-09
2.4224787e-08
3.5178454e-08
4.021174e-08
4.1441357e-08
4.1225735e-08
4.087419e-08
4.0873947e-08
4.1225021e-08
4.144036e-08
4.0210643e-08
3.517753e-08
2.4224257e-08
9.9799898e-09
1.3479523e-09
1.0903093e-11
2.1374801e-18
3.5390902e-19
2.041681e-12
3.4501616e-10
2.9272545e-09
7.5813094e-09
1.1368542e-08
1.3211134e-08
1.3732508e-08
1.3722621e-08
1.3632708e-08
1.3632622e-08
1.3722368e-08
1.3732155e-08
1.3210743e-08
1.136821e-08
7.5811275e-09
2.9271947e-09
3.450122e-10
2.0416561e-12
3.5288914e-19
2.9005173e-19
3.7203168e-13
8.5494104e-11
8.2971453e-10
2.2910503e-09
3.5464818e-09
4.1889881e-09
4.3914301e-09
4.4077825e-09
4.3874601e-09
4.3874305e-09
4.407696e-09
4.3913094e-09
4.1888537e-09
3.5463671e-09
2.29099e-09
8.2969564e-10
8.5492971e-11
3.7202661e-13
2.8725596e-19
1.2842281e-19
6.6006244e-14
2.0523729e-11
2.2744063e-10
6.6906382e-10
1.0687767e-09
1.2828624e-09
1.3561608e-09
1.3671518e-09
1.3634402e-09
1.3634304e-09
1.3671233e-09
1.3561209e-09
1.2828179e-09
1.0687385e-09
6.6904444e-10
2.2743488e-10
2.0523414e-11
6.6005245e-14
1.2856812e-19
2.9761206e-20
1.1411168e-14
4.7757491e-12
6.0335481e-11
1.8895358e-10
3.1137499e-10
3.7971539e-10
4.0472823e-10
4.0974958e-10
4.0939206e-10
4.0938896e-10
4.0974053e-10
4.0471553e-10
3.7970116e-10
3.1136278e-10
1.8894755e-10
6.0333786e-11
4.7756638e-12
1.1410797e-14
2.9781508e-20
5.1267424e-21
1.9221173e-15
1.0777202e-12
1.5499354e-11
5.1640484e-11
8.7757221e-11
1.0870161e-10
1.1680223e-10
1.1874356e-10
1.188519e-10
1.1885094e-10
1.1874078e-10
1.1679833e-10
1.0869722e-10
8.7753456e-11
5.1638659e-11
1.5498872e-11
1.0776976e-12
1.9220005e-15
5.109911e-21
7.1047429e-22
3.1532027e-16
2.35961e-13
3.8578401e-12
1.3666286e-11
2.3942284e-11
3.0115842e-11
3.261772e-11
3.3294231e-11
3.3382069e-11
3.3381786e-11
3.3293408e-11
3.2616558e-11
3.0114534e-11
2.3941164e-11
1.3665752e-11
3.8577069e-12
2.3595502e-13
3.1528554e-16
7.0602948e-22
7.5812896e-23
5.0346508e-17
5.0143491e-14
9.3090573e-13
3.5042953e-12
6.327058e-12
8.0799273e-12
8.819468e-12
9.0378757e-12
9.0767858e-12
9.076704e-12
9.0376398e-12
8.8191333e-12
8.0795506e-12
6.3267367e-12
3.504144e-12
9.3087006e-13
5.0141981e-14
5.0337637e-17
7.5129112e-23
4.5554228e-24
7.820644e-18
1.0346692e-14
2.1788579e-13
8.7115523e-13
1.6205108e-12
2.1005697e-12
2.310371e-12
2.376659e-12
2.390716e-12
2.3906933e-12
2.3765935e-12
2.3102777e-12
2.1004649e-12
1.6204216e-12
8.7111362e-13
2.1787653e-13
1.0346351e-14
7.8191673e-18
4.4952115e-24
2.5482267e-25
1.1832778e-18
2.0738378e-15
4.9492253e-14
2.1007817e-13
4.0250192e-13
5.2946855e-13
5.8671751e-13
6.0579966e-13
6.1032407e-13
6.1031794e-13
6.0578205e-13
5.8669234e-13
5.2944033e-13
4.0247798e-13
2.1006708e-13
4.948992e-14
2.0737619e-15
1.1830642e-18
2.4739268e-25
1.4201119e-26
1.7438092e-19
4.0392489e-16
1.0915631e-14
4.9169436e-14
9.7005108e-14
1.2946904e-13
1.4452245e-13
1.4976324e-13
1.5110651e-13
1.5110492e-13
1.4975866e-13
1.4451587e-13
1.2946168e-13
9.6998884e-14
4.916657e-14
1.091506e-14
4.0390816e-16
1.7435325e-19
1.3553216e-26
7.8353608e-28
2.5029851e-20
7.6479789e-17
2.338717e-15
1.1175586e-14
2.2697071e-14
3.0729598e-14
3.4549762e-14
3.5928718e-14
3.6303089e-14
3.6302686e-14
3.5927563e-14
3.4548092e-14
3.0727734e-14
2.2695504e-14
1.1174868e-14
2.3385812e-15
7.6476182e-17
2.5026459e-20
7.3861383e-28
)
;

boundaryField
{
    Wall
    {
        type            zeroGradient;
    }
    frontAndBack
    {
        type            empty;
    }
    atmosphere
    {
        type            zeroGradient;
    }
}


// ************************************************************************* //
