/*--------------------------------*- C++ -*----------------------------------*\
| =========                 |                                                 |
| \\      /  F ield         | OpenFOAM: The Open Source CFD Toolbox           |
|  \\    /   O peration     | Version:  3.0.1                                 |
|   \\  /    A nd           | Web:      www.OpenFOAM.org                      |
|    \\/     M anipulation  |                                                 |
\*---------------------------------------------------------------------------*/
FoamFile
{
    version     2.0;
    format      ascii;
    class       volScalarField;
    location    "20";
    object      wBA_l_0;
}
// * * * * * * * * * * * * * * * * * * * * * * * * * * * * * * * * * * * * * //

dimensions      [0 0 0 0 0 0 0];

internalField   nonuniform List<scalar> 
800
(
0.054512235
0.054511757
0.054511727
0.054511732
0.054511736
0.054511738
0.054511738
0.054511739
0.054511739
0.054511739
0.054511739
0.054511739
0.054511739
0.054511738
0.054511738
0.054511736
0.054511732
0.054511727
0.054511757
0.054512235
0.0550288
0.055016619
0.055014469
0.055013962
0.055013713
0.055013484
0.055013273
0.055013099
0.055012978
0.055012917
0.055012917
0.055012978
0.055013099
0.055013273
0.055013484
0.055013713
0.055013962
0.055014469
0.055016619
0.0550288
0.053807223
0.053816007
0.053817839
0.053817533
0.05381687
0.053816379
0.05381607
0.053815892
0.053815796
0.053815757
0.053815757
0.053815796
0.053815891
0.05381607
0.053816379
0.053816869
0.053817532
0.053817839
0.053816006
0.053807222
0.051292024
0.05134189
0.051349342
0.051348261
0.051347056
0.051346256
0.051345888
0.051345761
0.051345733
0.051345738
0.051345738
0.051345733
0.051345761
0.051345888
0.051346256
0.051347056
0.05134826
0.051349341
0.05134189
0.051292023
0.047863292
0.047970284
0.047984314
0.047983295
0.047981703
0.047980739
0.047980395
0.04798035
0.047980395
0.047980442
0.047980442
0.047980395
0.04798035
0.047980395
0.047980739
0.047981703
0.047983295
0.047984314
0.047970284
0.047863291
0.043788497
0.043971448
0.043996582
0.043997558
0.043996383
0.043995744
0.043995617
0.043995673
0.04399578
0.043995851
0.043995851
0.04399578
0.043995673
0.043995617
0.043995745
0.043996384
0.043997559
0.043996583
0.043971449
0.043788498
0.039215298
0.039495202
0.039543196
0.039550863
0.039551998
0.039552367
0.039552676
0.039552831
0.03955295
0.039552992
0.039552992
0.039552951
0.039552832
0.039552677
0.039552369
0.039551999
0.039550865
0.039543198
0.039495204
0.0392153
0.034221402
0.034636224
0.034729084
0.034751496
0.034757439
0.034759277
0.034759855
0.03475991
0.034759841
0.034759709
0.034759709
0.034759841
0.03475991
0.034759856
0.034759279
0.034757441
0.034751499
0.034729087
0.034636227
0.034221406
0.02876069
0.029361441
0.029539228
0.029590133
0.029603624
0.029606229
0.029605752
0.029604833
0.029603956
0.02960331
0.02960331
0.029603956
0.029604833
0.029605753
0.029606231
0.029603627
0.029590138
0.029539232
0.029361445
0.028760696
0.022917623
0.023738801
0.024073102
0.024177119
0.024201071
0.024201195
0.024195975
0.024191654
0.024188475
0.024186583
0.024186583
0.024188475
0.024191653
0.024195975
0.024201197
0.024201074
0.024177124
0.024073106
0.023738807
0.022917632
0.016426619
0.017743378
0.018375703
0.018591107
0.018635884
0.018627545
0.018609317
0.018595353
0.018586071
0.018581066
0.018581065
0.018586069
0.01859535
0.018609316
0.018627546
0.018635888
0.018591113
0.018375709
0.017743386
0.01642663
0.0098162829
0.01178144
0.01278712
0.01317393
0.013258651
0.01323594
0.013192261
0.01315791
0.013135777
0.013124398
0.013124396
0.013135774
0.013157905
0.013192259
0.01323594
0.013258653
0.013173934
0.012787125
0.011781448
0.0098162946
0.0043658771
0.0069954481
0.0082638066
0.0087869573
0.0089129346
0.0088756549
0.0087998475
0.0087364795
0.0086949465
0.0086739065
0.0086739039
0.008694942
0.008736472
0.008799843
0.008875653
0.0089129346
0.0087869592
0.0082638085
0.0069954533
0.0043658846
0.0013596797
0.0037011546
0.0049801091
0.0055577614
0.0057198956
0.0056882558
0.0055994737
0.0055185972
0.0054633388
0.0054350928
0.0054350899
0.0054633334
0.0055185888
0.005599468
0.0056882526
0.005719894
0.0055577614
0.004980109
0.0037011567
0.0013596823
0.00030443137
0.0017388977
0.002785849
0.0033222314
0.0035004002
0.0034904841
0.0034142228
0.003337337
0.0032822925
0.0032536626
0.0032536598
0.0032822872
0.0033373288
0.0034142166
0.0034904801
0.0035003974
0.0033222303
0.0027858479
0.0017388979
0.00030443188
5.2366763e-05
0.00072369352
0.0014424725
0.0018706205
0.0020367396
0.0020475906
0.001995649
0.0019365342
0.0018921495
0.0018686326
0.0018686302
0.0018921448
0.0019365271
0.0019956433
0.0020475866
0.0020367366
0.001870619
0.0014424711
0.00072369316
5.2366839e-05
7.4236737e-06
0.00026799077
0.00069135634
0.00099079827
0.001124577
0.0011461949
0.0011171299
0.0010784214
0.0010478779
0.0010313971
0.0010313954
0.0010478743
0.0010784159
0.0011171254
0.0011461915
0.0011245743
0.00099079693
0.00069135526
0.00026799046
7.4236864e-06
9.1695216e-07
8.9332086e-05
0.00030756133
0.00049395041
0.00058889902
0.00061159649
0.00059829712
0.0005760513
0.00055750857
0.0005473171
0.00054731594
0.00055750607
0.0005760475
0.00059829381
0.00061159391
0.00058889689
0.00049394939
0.00030756065
8.9331926e-05
9.1695449e-07
1.0246887e-07
2.7194861e-05
0.00012760666
0.0002322496
0.00029265672
0.00031100981
0.00030639501
0.00029498333
0.00028484169
0.00027915727
0.00027915655
0.00028484008
0.0002949809
0.00030639282
0.00031100806
0.00029265526
0.00023224894
0.00012760629
2.7194793e-05
1.0246925e-07
1.0607904e-08
7.6645706e-06
4.9663121e-05
0.00010328445
0.0001382118
0.00015079907
0.00015002946
0.00014476256
0.00013969737
0.00013679544
0.00013679504
0.00013969641
0.00014476112
0.00015002812
0.00015079798
0.0001382109
0.00010328405
4.966295e-05
7.6645456e-06
1.0607958e-08
1.0322662e-09
2.0228525e-06
1.8236716e-05
4.3580712e-05
6.2141885e-05
6.9783658e-05
7.0269157e-05
6.8081881e-05
6.5751425e-05
6.4381841e-05
6.4381621e-05
6.5750891e-05
6.8081083e-05
7.0268393e-05
6.9783035e-05
6.2141374e-05
4.3580491e-05
1.8236642e-05
2.022844e-06
1.0322728e-09
9.5288823e-11
5.0448131e-07
6.3521733e-06
1.7501931e-05
2.665182e-05
3.0858208e-05
3.1502309e-05
3.069318e-05
2.9700069e-05
2.9098307e-05
2.9098197e-05
2.9699792e-05
3.0692769e-05
3.1501904e-05
3.0857878e-05
2.6651555e-05
1.7501818e-05
6.3521438e-06
5.0447877e-07
9.5289553e-11
8.3942033e-12
1.1973041e-07
2.1083655e-06
6.7089732e-06
1.0924842e-05
1.3056679e-05
1.352974e-05
1.327101e-05
1.2877965e-05
1.2630623e-05
1.263057e-05
1.2877829e-05
1.327081e-05
1.3529538e-05
1.3056515e-05
1.0924715e-05
6.7089195e-06
2.1083545e-06
1.197297e-07
8.3942782e-12
7.086809e-13
2.719324e-08
6.6936325e-07
2.4609577e-06
4.2878626e-06
5.2933495e-06
5.5722456e-06
5.5068504e-06
5.362379e-06
5.2669703e-06
5.2669467e-06
5.3623161e-06
5.5067588e-06
5.5721511e-06
5.2932725e-06
4.2878051e-06
2.4609339e-06
6.6935931e-07
2.7193055e-08
7.0868826e-13
5.7533754e-14
5.9366125e-09
2.0389405e-07
8.6571608e-07
1.6140757e-06
2.0588993e-06
2.2029495e-06
2.1946614e-06
2.1455094e-06
2.110911e-06
2.110901e-06
2.1454818e-06
2.1946215e-06
2.2029076e-06
2.0588651e-06
1.6140513e-06
8.6570627e-07
2.038927e-07
5.9365668e-09
5.7534434e-14
4.5052071e-15
1.2501984e-09
5.9736988e-08
2.9259783e-07
5.835894e-07
7.6927675e-07
8.3685128e-07
8.4070939e-07
8.2536627e-07
8.1356811e-07
8.1356402e-07
8.2535471e-07
8.4069283e-07
8.3683364e-07
7.6926221e-07
5.8357959e-07
2.92594e-07
5.9736551e-08
1.2501877e-09
4.5052664e-15
3.4130676e-16
2.546896e-10
1.6866661e-08
9.5162521e-08
2.0293691e-07
2.7641946e-07
3.0576117e-07
3.09809e-07
3.0549863e-07
3.0172101e-07
3.017194e-07
3.0549399e-07
3.0980243e-07
3.0575408e-07
2.7641356e-07
2.0293315e-07
9.5161104e-08
1.6866524e-08
2.5468721e-10
3.413116e-16
2.5096861e-17
5.0303605e-11
4.5965974e-09
2.9821501e-08
6.7949946e-08
9.5619789e-08
1.0754913e-07
1.0991687e-07
1.0887568e-07
1.077445e-07
1.0774389e-07
1.088739e-07
1.0991437e-07
1.075464e-07
9.5617503e-08
6.7948568e-08
2.9821001e-08
4.5965556e-09
5.0303088e-11
2.5097229e-17
1.7975287e-18
9.6487921e-12
1.2105981e-09
9.0145826e-09
2.1930077e-08
3.1874012e-08
3.6450196e-08
3.7575131e-08
3.7387486e-08
3.7073263e-08
3.7073041e-08
3.7386833e-08
3.7574218e-08
3.6449189e-08
3.1873161e-08
2.192959e-08
9.0144141e-09
1.2105857e-09
9.6486835e-12
1.7975546e-18
3.3253799e-19
1.7995298e-12
3.0842213e-10
2.6310578e-09
6.8283625e-09
1.0247514e-08
1.1912908e-08
1.2386111e-08
1.2379617e-08
1.2299938e-08
1.2299859e-08
1.2379387e-08
1.2385789e-08
1.1912551e-08
1.0247211e-08
6.8281964e-09
2.631003e-09
3.0841849e-10
1.7995072e-12
3.315026e-19
2.8672077e-19
3.2659542e-13
7.6070472e-11
7.4207377e-10
2.0529739e-09
3.1801504e-09
3.7574887e-09
3.9399276e-09
3.9553042e-09
3.9374918e-09
3.937465e-09
3.9552259e-09
3.9398182e-09
3.7573667e-09
3.1800461e-09
2.0529191e-09
7.4205656e-10
7.6069436e-11
3.2659084e-13
2.8500041e-19
1.1281638e-19
5.7712252e-14
1.8175802e-11
2.0240378e-10
5.9645256e-10
9.5335527e-10
1.1446152e-09
1.2102338e-09
1.2202356e-09
1.2170415e-09
1.2170327e-09
1.22021e-09
1.2101979e-09
1.144575e-09
9.5332076e-10
5.9643503e-10
2.0239857e-10
1.8175515e-11
5.7711359e-14
1.1323193e-19
2.5640151e-20
9.936722e-15
4.2093578e-12
5.3424143e-11
1.6757356e-10
2.7628087e-10
3.3698344e-10
3.5923322e-10
3.6373992e-10
3.6345397e-10
3.6345119e-10
3.6373182e-10
3.5922184e-10
3.3697068e-10
2.7626989e-10
1.6756813e-10
5.3422618e-11
4.2092809e-12
9.9364052e-15
2.5671559e-20
4.3707507e-21
1.6666958e-15
9.4535526e-13
1.3654434e-11
4.5558023e-11
7.7451643e-11
9.5948411e-11
1.0310949e-10
1.0483516e-10
1.0493866e-10
1.0493781e-10
1.048327e-10
1.0310602e-10
9.5944499e-11
7.7448279e-11
4.5556391e-11
1.3654002e-11
9.4533496e-13
1.666591e-15
4.3607954e-21
6.0138619e-22
2.7224261e-16
2.0597676e-13
3.3812746e-12
1.1993102e-11
2.1017245e-11
2.6438047e-11
2.8636243e-11
2.9232793e-11
2.9311753e-11
2.9311503e-11
2.9232065e-11
2.8635214e-11
2.6436887e-11
2.101625e-11
1.1992627e-11
3.3811561e-12
2.0597145e-13
2.7221251e-16
5.9791049e-22
6.3724568e-23
4.3277098e-17
4.3556908e-14
8.1170606e-13
3.0589389e-12
5.5240387e-12
7.054337e-12
7.7001833e-12
7.8913818e-12
7.9257546e-12
7.9256826e-12
7.8911743e-12
7.6998885e-12
7.0540049e-12
5.5237548e-12
3.0588049e-12
8.1167451e-13
4.3555579e-14
4.326937e-17
6.3120547e-23
3.6794573e-24
6.6921543e-18
8.9430171e-15
1.8899922e-13
7.5637623e-13
1.4071307e-12
1.8238242e-12
2.0059446e-12
2.0635785e-12
2.0758622e-12
2.0758423e-12
2.0635212e-12
2.0058629e-12
1.8237323e-12
1.4070524e-12
7.5633961e-13
1.8899108e-13
8.9427191e-15
6.6908775e-18
3.6272977e-24
2.0412305e-25
1.0079447e-18
1.7835039e-15
4.270593e-14
1.8141754e-13
3.4758565e-13
4.5715854e-13
5.0655683e-13
5.2303862e-13
5.2695827e-13
5.2695293e-13
5.230233e-13
5.0653489e-13
4.5713395e-13
3.4756476e-13
1.8140782e-13
4.270389e-14
1.7834378e-15
1.0077652e-18
1.9735533e-25
1.1389497e-26
1.4785107e-19
3.4561571e-16
9.3691956e-15
4.2231269e-14
8.3307564e-14
1.1116242e-13
1.2407399e-13
1.2857156e-13
1.2972642e-13
1.2972504e-13
1.2856759e-13
1.2406829e-13
1.1115605e-13
8.3302162e-14
4.2228774e-14
9.3686988e-15
3.4560116e-16
1.4782827e-19
1.0832198e-26
6.2653214e-28
2.1120872e-20
6.5104545e-17
1.99672e-15
9.5463007e-15
1.9383897e-14
2.6236145e-14
2.9493227e-14
3.0669152e-14
3.0988735e-14
3.0988389e-14
3.0668159e-14
2.9491788e-14
2.6234539e-14
1.9382545e-14
9.5456791e-15
1.9966025e-15
6.5101425e-17
2.1118107e-20
5.8919513e-28
)
;

boundaryField
{
    Wall
    {
        type            zeroGradient;
    }
    frontAndBack
    {
        type            empty;
    }
    atmosphere
    {
        type            zeroGradient;
    }
}


// ************************************************************************* //
