/*--------------------------------*- C++ -*----------------------------------*\
| =========                 |                                                 |
| \\      /  F ield         | OpenFOAM: The Open Source CFD Toolbox           |
|  \\    /   O peration     | Version:  3.0.1                                 |
|   \\  /    A nd           | Web:      www.OpenFOAM.org                      |
|    \\/     M anipulation  |                                                 |
\*---------------------------------------------------------------------------*/
FoamFile
{
    version     2.0;
    format      ascii;
    class       volScalarField;
    location    "20";
    object      wCO2_g;
}
// * * * * * * * * * * * * * * * * * * * * * * * * * * * * * * * * * * * * * //

dimensions      [0 0 0 0 0 0 0];

internalField   nonuniform List<scalar> 
800
(
0.0091320724
0.0091324859
0.0091325532
0.0091325778
0.009132595
0.0091326081
0.0091326181
0.0091326252
0.0091326297
0.0091326319
0.009132632
0.0091326298
0.0091326252
0.0091326181
0.0091326082
0.009132595
0.0091325778
0.0091325532
0.0091324858
0.0091320724
0.0090337425
0.0090430176
0.0090440387
0.0090441094
0.0090440873
0.0090441199
0.0090441827
0.0090442465
0.0090442943
0.0090443194
0.0090443194
0.0090442943
0.0090442465
0.0090441827
0.0090441199
0.0090440873
0.0090441094
0.0090440387
0.0090430175
0.0090337424
0.0088807847
0.0088929552
0.0088987978
0.0088991051
0.0088991628
0.0088992857
0.0088994471
0.0088995979
0.008899708
0.0088997654
0.0088997654
0.0088997079
0.0088995979
0.0088994471
0.0088992856
0.0088991627
0.0088991051
0.0088987978
0.0088929551
0.0088807845
0.0086162664
0.0086366603
0.0086459742
0.00864624
0.0086462894
0.0086464523
0.0086466881
0.0086469166
0.0086470841
0.0086471726
0.0086471726
0.0086470841
0.0086469166
0.0086466881
0.0086464523
0.0086462894
0.0086462401
0.0086459742
0.0086366603
0.0086162661
0.0081428425
0.0081780893
0.0081895672
0.0081966744
0.0081966672
0.0081968482
0.0081971525
0.0081974573
0.0081976826
0.0081978025
0.0081978025
0.0081976825
0.0081974572
0.0081971524
0.0081968482
0.0081966672
0.0081966744
0.0081895672
0.0081780892
0.0081428421
0.0073523067
0.0074209489
0.007434339
0.0074444371
0.0074445455
0.0074448803
0.0074453294
0.0074457439
0.007446045
0.0074462031
0.0074462031
0.007446045
0.0074457438
0.0074453293
0.0074448803
0.0074445455
0.0074444371
0.007434339
0.0074209488
0.0073523062
0.0062004728
0.0063052989
0.0063207252
0.0063309415
0.0063318055
0.006332661
0.0063334427
0.0063340527
0.0063344664
0.0063346734
0.0063346733
0.0063344662
0.0063340526
0.0063334426
0.0063326609
0.0063318054
0.0063309415
0.0063207252
0.0063052988
0.0062004724
0.0049000778
0.0050133007
0.0050353318
0.0050451651
0.0050473789
0.005049034
0.0050502423
0.0050510728
0.005051592
0.0050518389
0.0050518389
0.0050515918
0.0050510726
0.0050502421
0.0050490338
0.0050473788
0.005045165
0.0050353317
0.0050133007
0.0049000774
0.003544387
0.003668093
0.0037019822
0.0037116278
0.003715084
0.0037173322
0.0037187697
0.0037196853
0.0037202182
0.0037204623
0.0037204622
0.003720218
0.003719685
0.0037187694
0.003717332
0.0037150838
0.0037116276
0.0037019821
0.003668093
0.0035443866
0.0021813493
0.00230544
0.0023501843
0.0023590226
0.0023625696
0.0023645856
0.0023657313
0.0023664153
0.0023667839
0.0023669459
0.0023669458
0.0023667837
0.002366415
0.002365731
0.0023645853
0.0023625694
0.0023590225
0.0023501842
0.00230544
0.0021813492
0.0012147062
0.0013081884
0.0013444944
0.0013532117
0.0013558161
0.0013567299
0.0013570266
0.0013571331
0.0013571488
0.0013571366
0.0013571365
0.0013571486
0.0013571329
0.0013570264
0.0013567298
0.0013558161
0.0013532117
0.0013444946
0.0013081886
0.0012147064
0.00058764308
0.00068671949
0.00072520642
0.00073494997
0.0007359415
0.00073494172
0.00073379495
0.00073295399
0.00073241609
0.00073213604
0.00073213598
0.00073241598
0.00073295382
0.00073379482
0.00073494168
0.00073594154
0.00073495004
0.00072520656
0.00068671972
0.00058764338
0.00021846863
0.00033167188
0.00037429262
0.00038593447
0.00038611222
0.00038331723
0.00038050568
0.00037844875
0.00037715869
0.00037651612
0.00037651606
0.00037715859
0.00037844859
0.00038050557
0.00038331718
0.00038611224
0.00038593451
0.0003742927
0.00033167204
0.00021846883
5.807776e-05
0.00014448456
0.00018366151
0.00019667023
0.00019791168
0.00019522101
0.00019202078
0.00018948706
0.00018783383
0.00018700539
0.00018700534
0.00018783373
0.00018948691
0.00019202068
0.00019522097
0.00019791169
0.00019667026
0.00018366155
0.00014448463
5.8077821e-05
1.1266296e-05
5.6282771e-05
8.4602387e-05
9.6227586e-05
9.8526583e-05
9.6994023e-05
9.4549181e-05
9.2422009e-05
9.0968078e-05
9.0226441e-05
9.0226401e-05
9.0967991e-05
9.2421886e-05
9.454909e-05
9.6993979e-05
9.8526578e-05
9.6227607e-05
8.4602406e-05
5.6282794e-05
1.1266305e-05
1.6959593e-06
1.9569557e-05
3.635714e-05
4.4834202e-05
4.7274243e-05
4.6762177e-05
4.5307351e-05
4.3898203e-05
4.2888764e-05
4.2363822e-05
4.2363791e-05
4.2888699e-05
4.3898111e-05
4.5307282e-05
4.6762141e-05
4.7274234e-05
4.4834213e-05
3.6357147e-05
1.9569564e-05
1.6959602e-06
2.1194097e-07
6.1052339e-06
1.4557144e-05
1.9810022e-05
2.174561e-05
2.1765855e-05
2.1048307e-05
2.0256707e-05
1.9661606e-05
1.934617e-05
1.934615e-05
1.9661563e-05
2.0256645e-05
2.1048259e-05
2.1765829e-05
2.17456e-05
1.9810028e-05
1.4557148e-05
6.1052369e-06
2.1194114e-07
2.3220195e-08
1.7280162e-06
5.4416424e-06
8.2930449e-06
9.5635424e-06
9.7473195e-06
9.4484418e-06
9.0567446e-06
8.7465348e-06
8.5789136e-06
8.5789017e-06
8.746509e-06
9.0567069e-06
9.4484116e-06
9.7473015e-06
9.563535e-06
8.2930485e-06
5.4416443e-06
1.7280175e-06
2.3220232e-08
2.3148377e-09
4.4958754e-07
1.9070027e-06
3.2928596e-06
4.0183437e-06
4.1919833e-06
4.0888621e-06
3.9145292e-06
3.7680736e-06
3.6873275e-06
3.687321e-06
3.7680593e-06
3.914508e-06
4.0888448e-06
4.1919723e-06
4.0183386e-06
3.2928615e-06
1.9070037e-06
4.4958806e-07
2.314844e-09
2.1492716e-10
1.0882793e-07
6.2972377e-07
1.2429119e-06
1.6139723e-06
1.7302913e-06
1.7037093e-06
1.6331313e-06
1.5695563e-06
1.5337321e-06
1.5337289e-06
1.5695489e-06
1.6331202e-06
1.7037001e-06
1.7302853e-06
1.6139694e-06
1.2429128e-06
6.2972429e-07
1.0882812e-07
2.1492804e-10
1.8849317e-11
2.4750618e-08
1.9695682e-07
4.4721882e-07
6.2048947e-07
6.8565264e-07
6.8321861e-07
6.5711065e-07
6.3148493e-07
6.1668956e-07
6.1668798e-07
6.3148136e-07
6.5710524e-07
6.8321404e-07
6.8564964e-07
6.2048788e-07
4.4721916e-07
1.9695706e-07
2.4750669e-08
1.884942e-11
1.574717e-12
5.3289361e-09
5.8626055e-08
1.5384118e-07
2.287188e-07
2.6105985e-07
2.6375e-07
2.5494265e-07
2.4528844e-07
2.3955767e-07
2.3955697e-07
2.4528682e-07
2.5494018e-07
2.6374787e-07
2.6105845e-07
2.2871803e-07
1.5384129e-07
5.8626153e-08
5.3289502e-09
1.5747276e-12
1.2595827e-13
1.0925171e-09
1.6678121e-08
5.0736389e-08
8.0985669e-08
9.5617942e-08
9.8080864e-08
9.5401268e-08
9.1987629e-08
8.9894706e-08
8.9894406e-08
9.1986931e-08
9.5400203e-08
9.8079928e-08
9.5617338e-08
8.0985322e-08
5.0736414e-08
1.6678159e-08
1.0925207e-09
1.2595932e-13
9.6768434e-15
2.1425964e-10
4.551403e-09
1.6084206e-08
2.7597556e-08
3.3735764e-08
3.5168109e-08
3.4454457e-08
3.3319136e-08
3.2595711e-08
3.2595591e-08
3.3318852e-08
3.4454023e-08
3.5167721e-08
3.3735515e-08
2.7597409e-08
1.6084209e-08
4.5514157e-09
2.1426048e-10
9.676943e-15
7.1549266e-16
4.034853e-11
1.1953409e-09
4.9130719e-09
9.0672912e-09
1.1481777e-08
1.2172199e-08
1.2019475e-08
1.1664276e-08
1.1427006e-08
1.1426961e-08
1.1664166e-08
1.2019306e-08
1.2172046e-08
1.1481679e-08
9.0672329e-09
4.9130704e-09
1.1953449e-09
4.0348718e-11
7.1550167e-16
5.098736e-17
7.3205385e-12
3.0299348e-10
1.4491723e-09
2.8771864e-09
3.7748915e-09
4.0714913e-09
4.0541151e-09
3.9498301e-09
3.8758823e-09
3.8758658e-09
3.9497889e-09
4.0540525e-09
4.0714335e-09
3.7748539e-09
2.8771645e-09
1.4491709e-09
3.0299465e-10
7.3205777e-12
5.0988139e-17
3.5059694e-18
1.2836208e-12
7.4316639e-11
4.1356426e-10
8.8312175e-10
1.2004879e-09
1.3176734e-09
1.3234759e-09
1.2949224e-09
1.2730157e-09
1.2730099e-09
1.2949075e-09
1.3234536e-09
1.3176524e-09
1.200474e-09
8.8311387e-10
4.1356349e-10
7.4316956e-11
1.2836287e-12
3.5060335e-18
2.328736e-19
2.181799e-13
1.767881e-11
1.1438549e-10
2.6257175e-10
3.6974987e-10
4.1305938e-10
4.1857712e-10
4.113809e-10
4.0521832e-10
4.0521635e-10
4.1137573e-10
4.1856947e-10
4.1305204e-10
3.6974491e-10
2.6256903e-10
1.1438514e-10
1.7678889e-11
2.1818135e-13
2.3287859e-19
1.4959738e-20
3.605484e-14
4.0872383e-12
3.0708702e-11
7.5717261e-11
1.1041894e-10
1.2554803e-10
1.2837426e-10
1.2675108e-10
1.2510937e-10
1.2510872e-10
1.2674934e-10
1.2837173e-10
1.2554555e-10
1.1041722e-10
7.5716347e-11
3.0708566e-11
4.087256e-12
3.6055089e-14
1.4960108e-20
1.4498899e-21
5.8096279e-15
9.2003429e-13
8.012785e-12
2.1200103e-11
3.2003571e-11
3.703366e-11
3.8211111e-11
3.7905929e-11
3.7493974e-11
3.7493768e-11
3.7905366e-11
3.8210298e-11
3.7032851e-11
3.2002995e-11
2.1199807e-11
8.0127348e-12
9.2003765e-13
5.8096665e-15
1.4473442e-21
6.8241799e-22
9.1534739e-16
2.0195202e-13
2.0343211e-12
5.7688377e-12
9.0105595e-12
1.0610137e-11
1.1046754e-11
1.1010666e-11
1.0914261e-11
1.0914197e-11
1.101049e-11
1.1046501e-11
1.0609881e-11
9.0103715e-12
5.7687446e-12
2.0343038e-12
2.0195252e-13
9.1535274e-16
6.7579274e-22
2.4881551e-22
1.4139137e-16
4.3282898e-14
5.0300181e-13
1.5268464e-12
2.4662093e-12
2.9545008e-12
3.1038046e-12
3.1083852e-12
3.0877465e-12
3.0877273e-12
3.1083312e-12
3.1037282e-12
2.9544217e-12
2.46615e-12
1.526818e-12
5.029962e-13
4.3282931e-14
1.4139202e-16
2.4910409e-22
5.0448307e-23
2.146992e-17
9.0665239e-15
1.2121519e-13
3.933257e-13
6.5661523e-13
8.0009853e-13
8.4802793e-13
8.5329156e-13
8.4941771e-13
8.4941212e-13
8.5327564e-13
8.4800547e-13
8.0007494e-13
6.5659716e-13
3.9331727e-13
1.2121348e-13
9.0665093e-15
2.1469677e-17
5.0513245e-23
7.7689697e-24
3.2101075e-18
1.8575485e-15
2.8486324e-14
9.8674058e-14
1.7014925e-13
2.1082326e-13
2.2541785e-13
2.278744e-13
2.2731098e-13
2.2730939e-13
2.2786984e-13
2.2541144e-13
2.1081643e-13
1.7014393e-13
9.8671624e-14
2.8485826e-14
1.8575395e-15
3.2099836e-18
7.7486404e-24
9.7776311e-25
4.7298692e-19
3.7241044e-16
6.5313465e-15
2.4118426e-14
4.2932495e-14
5.407504e-14
5.8318445e-14
5.9223804e-14
5.9197126e-14
5.9196688e-14
5.9222536e-14
5.8316665e-14
5.4073118e-14
4.2930976e-14
2.4117745e-14
6.5312072e-15
3.7240685e-16
4.7294516e-19
9.7239832e-25
9.621993e-26
6.8680321e-20
7.3079034e-17
1.4615118e-15
5.7458928e-15
1.0552336e-14
1.3506433e-14
1.4689844e-14
1.4984634e-14
1.5007359e-14
1.500724e-14
1.4984291e-14
1.4689363e-14
1.3505908e-14
1.0551917e-14
5.7457072e-15
1.4614744e-15
7.3077942e-17
6.8669577e-20
9.5444506e-26
5.4148543e-27
9.8243926e-21
1.4037667e-17
3.1925871e-16
1.334655e-15
2.5273421e-15
3.2861925e-15
3.6037878e-15
3.692126e-15
3.704759e-15
3.7047279e-15
3.6920358e-15
3.603661e-15
3.2860535e-15
2.5272299e-15
1.3346058e-15
3.1924904e-16
1.4037407e-17
9.8226773e-21
5.3503966e-27
2.8547224e-28
1.3855548e-21
2.6394952e-18
6.8093186e-17
3.0234574e-16
5.9001363e-16
7.7908221e-16
8.6130598e-16
8.8615347e-16
8.9081497e-16
8.9080703e-16
8.8613043e-16
8.612735e-16
7.7904649e-16
5.8998454e-16
3.0233304e-16
6.8090769e-17
2.6394348e-18
1.3853168e-21
2.7762116e-28
1.5122351e-29
1.9252153e-22
4.8576031e-19
1.4182304e-17
6.6814169e-17
1.3429529e-16
1.8002467e-16
2.0059967e-16
2.0723321e-16
2.0869017e-16
2.086882e-16
2.0722748e-16
2.0059155e-16
1.8001573e-16
1.3428797e-16
6.6810989e-17
1.4181719e-17
4.8574645e-19
1.9249207e-22
1.4454876e-29
8.0127484e-31
2.6329058e-23
8.7484896e-20
2.8848549e-18
1.4406594e-17
2.9810629e-17
4.0555932e-17
4.5539874e-17
4.7232515e-17
4.7644937e-17
4.764446e-17
4.7231133e-17
4.5537901e-17
4.0553754e-17
2.9808842e-17
1.4405819e-17
2.8847176e-18
8.7481816e-20
2.6325608e-23
7.5639646e-31
)
;

boundaryField
{
    Wall
    {
        type            zeroGradient;
    }
    frontAndBack
    {
        type            empty;
    }
    atmosphere
    {
        type            zeroGradient;
    }
}


// ************************************************************************* //
