/*--------------------------------*- C++ -*----------------------------------*\
| =========                 |                                                 |
| \\      /  F ield         | OpenFOAM: The Open Source CFD Toolbox           |
|  \\    /   O peration     | Version:  3.0.1                                 |
|   \\  /    A nd           | Web:      www.OpenFOAM.org                      |
|    \\/     M anipulation  |                                                 |
\*---------------------------------------------------------------------------*/
FoamFile
{
    version     2.0;
    format      ascii;
    class       volScalarField;
    location    "20";
    object      wCO2_l;
}
// * * * * * * * * * * * * * * * * * * * * * * * * * * * * * * * * * * * * * //

dimensions      [0 0 0 0 0 0 0];

internalField   nonuniform List<scalar> 
800
(
0.0031718356
0.0031718288
0.0031718293
0.0031718302
0.0031718308
0.0031718312
0.0031718315
0.0031718317
0.0031718319
0.0031718319
0.0031718319
0.0031718319
0.0031718317
0.0031718315
0.0031718312
0.0031718308
0.0031718302
0.0031718293
0.0031718288
0.0031718356
0.0031478232
0.003146952
0.00314715
0.0031471244
0.0031470665
0.0031470156
0.0031469831
0.0031469657
0.0031469577
0.0031469547
0.0031469547
0.0031469577
0.0031469657
0.0031469831
0.0031470157
0.0031470665
0.0031471245
0.00314715
0.0031469521
0.0031478233
0.0034786936
0.0034716065
0.0034678059
0.0034677103
0.0034676772
0.0034676195
0.0034675615
0.0034675145
0.0034674832
0.0034674673
0.0034674673
0.0034674832
0.0034675146
0.0034675617
0.0034676196
0.0034676774
0.0034677105
0.003467806
0.0034716067
0.0034786939
0.0042135054
0.004191224
0.0041844385
0.0041844891
0.0041844764
0.0041843807
0.004184249
0.0041841232
0.0041840334
0.0041839859
0.004183986
0.0041840335
0.0041841234
0.0041842493
0.004184381
0.0041844768
0.0041844895
0.0041844389
0.0041912245
0.0042135062
0.005416938
0.0053670689
0.0053592079
0.0053526999
0.0053526557
0.0053524291
0.0053521391
0.0053518671
0.0053516764
0.0053515759
0.005351576
0.0053516766
0.0053518675
0.0053521395
0.0053524296
0.0053526563
0.0053527005
0.0053592086
0.0053670697
0.0054169392
0.0070951902
0.0070054434
0.0069987418
0.006989644
0.0069894803
0.0069889904
0.0069884719
0.0069880172
0.0069877093
0.006987548
0.0069875481
0.0069877096
0.0069880176
0.0069884725
0.0069889911
0.0069894811
0.0069896449
0.0069987428
0.0070054445
0.0070951917
0.0090796451
0.0089731815
0.008955658
0.0089480871
0.0089478809
0.0089472443
0.0089466298
0.0089461121
0.0089457765
0.0089456004
0.0089456005
0.0089457767
0.0089461126
0.0089466305
0.0089472451
0.0089478818
0.0089480882
0.0089556591
0.0089731827
0.0090796466
0.010736593
0.010698915
0.01067526
0.010672802
0.010673818
0.010674035
0.010674047
0.010673977
0.010673928
0.010673888
0.010673888
0.010673928
0.010673978
0.010674048
0.010674035
0.010673818
0.010672803
0.010675261
0.010698916
0.010736594
0.011047148
0.011184086
0.011211164
0.011218827
0.011223887
0.01122685
0.011228655
0.01122979
0.011230449
0.011230746
0.011230745
0.011230449
0.011229789
0.011228655
0.01122685
0.011223887
0.011218827
0.011211164
0.011184087
0.011047148
0.0081090396
0.0086617362
0.0088843626
0.0089056299
0.0089148028
0.0089195353
0.0089220829
0.0089236407
0.0089244805
0.0089248471
0.0089248469
0.00892448
0.0089236399
0.0089220822
0.0089195346
0.0089148022
0.0089056294
0.0088843622
0.0086617361
0.0081090394
0.004860509
0.0052650803
0.005446215
0.0054820348
0.0054910242
0.0054925186
0.0054919882
0.0054913472
0.0054907997
0.0054904593
0.005490459
0.0054907992
0.0054913464
0.0054919876
0.0054925183
0.0054910241
0.005482035
0.0054462153
0.0052650811
0.0048605099
0.0025460904
0.0029957941
0.0031936458
0.0032479758
0.0032552921
0.003250171
0.0032436415
0.003238802
0.0032357258
0.003234143
0.0032341427
0.0032357253
0.0032388012
0.003243641
0.0032501708
0.0032552922
0.0032479761
0.0031936463
0.0029957951
0.0025460919
0.0010308737
0.0015719618
0.001796881
0.0018680041
0.0018758676
0.0018640754
0.0018500861
0.0018394299
0.0018326556
0.0018292646
0.0018292642
0.001832655
0.001839429
0.0018500855
0.0018640751
0.0018758676
0.0018680043
0.0017968813
0.0015719626
0.0010308748
0.00030161564
0.00074810075
0.00096371893
0.0010440059
0.001057938
0.0010466563
0.0010302841
0.0010167196
0.0010077291
0.0010031914
0.001003191
0.0010077285
0.0010167186
0.0010302834
0.001046656
0.001057938
0.001044006
0.00096371906
0.00074810109
0.000301616
6.4986982e-05
0.00032090327
0.00048767786
0.00056192309
0.000580762
0.00057459561
0.00056125055
0.00054902776
0.00054052808
0.00053615784
0.00053615754
0.00054052748
0.00054902688
0.00056124991
0.00057459525
0.00058076187
0.00056192313
0.00048767788
0.00032090337
6.4987045e-05
1.0940161e-05
0.00012382145
0.00023159756
0.00028920732
0.00030818635
0.00030684439
0.00029826811
0.00028944781
0.00028300845
0.00027963114
0.0002796309
0.00028300795
0.00028944709
0.00029826757
0.00030684407
0.00030818619
0.00028920732
0.00023159753
0.00012382146
1.0940169e-05
1.5361839e-06
4.3144972e-05
0.00010308298
0.00014181354
0.00015733081
0.00015863789
0.00015405616
0.00014861753
0.00014444298
0.00014221037
0.00014221019
0.00014444261
0.000148617
0.00015405574
0.00015863763
0.00015733065
0.00014181352
0.00010308295
4.3144973e-05
1.5361857e-06
1.8972797e-07
1.3710199e-05
4.3074762e-05
6.6193193e-05
7.7077261e-05
7.914632e-05
7.7090364e-05
7.4123053e-05
7.1718577e-05
7.0407278e-05
7.0407165e-05
7.1718336e-05
7.4122693e-05
7.7090068e-05
7.914612e-05
7.7077135e-05
6.619317e-05
4.3074743e-05
1.3710199e-05
1.8972833e-07
2.1373156e-08
4.0223795e-06
1.69609e-05
2.9437527e-05
3.6211141e-05
3.8039654e-05
3.7293249e-05
3.5833052e-05
3.4574482e-05
3.3873999e-05
3.3873931e-05
3.4574333e-05
3.5832828e-05
3.7293059e-05
3.8039519e-05
3.6211052e-05
2.943751e-05
1.696089e-05
4.0223796e-06
2.1373224e-08
2.2469377e-09
1.1023725e-06
6.3226855e-06
1.2497984e-05
1.6320955e-05
1.7601853e-05
1.7419576e-05
1.6765204e-05
1.6158007e-05
1.5812507e-05
1.5812468e-05
1.6157921e-05
1.6765073e-05
1.7419463e-05
1.760177e-05
1.6320898e-05
1.2497972e-05
6.3226814e-06
1.1023725e-06
2.2469481e-09
2.2354695e-10
2.849832e-07
2.2422548e-06
5.077959e-06
7.0648449e-06
7.8425787e-06
7.8525753e-06
7.5848476e-06
7.3123702e-06
7.1534239e-06
7.1534036e-06
7.3123232e-06
7.5847768e-06
7.8525121e-06
7.842532e-06
7.0648124e-06
5.0779516e-06
2.2422532e-06
2.8498317e-07
2.235483e-10
2.1228111e-11
7.0033625e-08
7.598977e-07
1.9794613e-06
2.9411463e-06
3.3666967e-06
3.4164444e-06
3.3169584e-06
3.2025663e-06
3.1338852e-06
3.1338752e-06
3.2025423e-06
3.3169222e-06
3.4164112e-06
3.3666721e-06
2.941129e-06
1.9794571e-06
7.5989711e-07
7.0033613e-08
2.1228266e-11
1.9343529e-12
1.6459284e-08
2.470742e-07
7.4208827e-07
1.1793263e-06
1.3937083e-06
1.435149e-06
1.4021623e-06
1.3570846e-06
1.3290739e-06
1.3290691e-06
1.3570729e-06
1.4021449e-06
1.4351326e-06
1.3936961e-06
1.1793178e-06
7.4208602e-07
2.4707399e-07
1.6459279e-08
1.9343697e-12
1.6972844e-13
3.7171799e-09
7.7331986e-08
2.6813562e-07
4.5612903e-07
5.5691669e-07
5.824297e-07
5.7312247e-07
5.5643072e-07
5.4561255e-07
5.456104e-07
5.5642534e-07
5.7311448e-07
5.8242201e-07
5.5691099e-07
4.561251e-07
2.6813454e-07
7.7331912e-08
3.7171781e-09
1.697302e-13
1.437582e-14
8.0986691e-10
2.3365114e-08
9.3554523e-08
1.7039892e-07
2.1502833e-07
2.2851946e-07
2.2661358e-07
2.2081356e-07
2.1684887e-07
2.1684796e-07
2.208112e-07
2.2661009e-07
2.2851604e-07
2.1502577e-07
1.703972e-07
9.3554035e-08
2.3365087e-08
8.0986639e-10
1.4375997e-14
1.1776178e-15
1.7078001e-10
6.8306236e-09
3.1571065e-08
6.1560549e-08
8.0298853e-08
8.6748209e-08
8.6726535e-08
8.4844154e-08
8.346421e-08
8.3463835e-08
8.4843158e-08
8.6725074e-08
8.6746751e-08
8.0297754e-08
6.1559837e-08
3.157086e-08
6.8306142e-09
1.7077986e-10
1.1776348e-15
9.3457109e-17
3.4954429e-11
1.9358064e-09
1.0318624e-08
2.1531037e-08
2.9028457e-08
3.1884222e-08
3.2144046e-08
3.1579262e-08
3.1123293e-08
3.1123143e-08
3.1578857e-08
3.2143458e-08
3.1883625e-08
2.9028002e-08
2.1530754e-08
1.0318543e-08
1.9358032e-09
3.4954392e-11
9.3458678e-17
7.197768e-18
6.9607228e-12
5.3265059e-10
3.2700956e-09
7.2973709e-09
1.0167138e-08
1.1354673e-08
1.154485e-08
1.1391534e-08
1.1248785e-08
1.1248728e-08
1.1391375e-08
1.1544622e-08
1.1354438e-08
1.0166957e-08
7.2972636e-09
3.2700646e-09
5.3264943e-10
6.9607127e-12
7.1979048e-18
5.3896709e-19
1.3513825e-12
1.4247492e-10
1.0058217e-09
2.3986527e-09
3.4527027e-09
3.9205137e-09
4.0203639e-09
3.9845767e-09
3.9424128e-09
3.9423914e-09
3.9845167e-09
4.0202786e-09
3.9204245e-09
3.4526328e-09
2.3986131e-09
1.0058104e-09
1.424745e-10
1.3513798e-12
5.3897849e-19
6.6290263e-20
2.5621304e-13
3.7082894e-11
3.0050457e-10
7.6521574e-10
1.1376266e-09
1.313248e-09
1.3582245e-09
1.352131e-09
1.340474e-09
1.3404663e-09
1.3521091e-09
1.3581936e-09
1.3132153e-09
1.1376006e-09
7.6520161e-10
3.0050061e-10
3.7082743e-11
2.5621229e-13
6.6156362e-20
4.0737869e-20
4.7499863e-14
9.3989055e-12
8.7265554e-11
2.3708035e-10
3.6390493e-10
4.2700523e-10
4.4538477e-10
4.4535218e-10
4.423808e-10
4.4237808e-10
4.4534447e-10
4.453739e-10
4.269936e-10
3.6389557e-10
2.3707546e-10
8.7264211e-11
9.3988535e-12
4.7499663e-14
4.0327839e-20
1.7892692e-20
8.6196447e-15
2.3211446e-12
2.4645906e-11
7.13761e-11
1.1307563e-10
1.3484468e-10
1.4183224e-10
1.4244347e-10
1.417668e-10
1.4176588e-10
1.4244083e-10
1.4182853e-10
1.3484068e-10
1.1307238e-10
7.1374454e-11
2.4645466e-11
2.3211275e-12
8.6195966e-15
1.789986e-20
4.2587965e-21
1.5326906e-15
5.5878005e-13
6.7728584e-12
2.0892162e-11
3.4148409e-11
4.1377789e-11
4.3883359e-11
4.4262551e-11
4.4135613e-11
4.4135309e-11
4.4261676e-11
4.3882132e-11
4.1376453e-11
3.4147312e-11
2.0891624e-11
6.7727189e-12
5.5877465e-13
1.5326578e-15
4.2615848e-21
7.6206477e-22
2.6710006e-16
1.3117314e-13
1.8118188e-12
5.9483699e-12
1.0027809e-11
1.2343617e-11
1.3198144e-11
1.3368484e-11
1.335469e-11
1.3354593e-11
1.3368203e-11
1.319775e-11
1.2343185e-11
1.0027451e-11
5.9481981e-12
1.8117761e-12
1.3117149e-13
2.670874e-16
7.6002593e-22
1.1074755e-22
4.5605564e-17
3.0035273e-14
4.7200461e-13
1.6481418e-12
2.8647e-12
3.5814669e-12
3.8602181e-12
3.9262119e-12
3.9291682e-12
3.929138e-12
3.9261244e-12
3.860095e-12
3.5813311e-12
2.8645873e-12
1.6480887e-12
4.7199191e-13
3.0034765e-14
4.5601311e-17
1.1016743e-22
1.251976e-23
7.6245034e-18
6.7095026e-15
1.1979212e-13
4.4459264e-13
7.9649984e-13
1.0111581e-12
1.0984775e-12
1.1217688e-12
1.1245554e-12
1.1245462e-12
1.1217423e-12
1.0984401e-12
1.0111167e-12
7.9646542e-13
4.4457665e-13
1.1978846e-13
6.7093585e-15
7.6233153e-18
1.242839e-23
8.1896148e-25
1.2474302e-18
1.4625422e-15
2.9628849e-14
1.1681102e-13
2.1563347e-13
2.7791335e-13
3.0425848e-13
3.119335e-13
3.1323141e-13
3.1322871e-13
3.119257e-13
3.0424746e-13
2.779011e-13
2.1562327e-13
1.1680634e-13
2.9627823e-14
1.4625068e-15
1.2472214e-18
8.1121038e-25
5.0242619e-26
1.9990033e-19
3.1115293e-16
7.1442355e-15
2.9904579e-14
5.686659e-14
7.4391248e-14
8.2064754e-14
8.4457817e-14
8.4946297e-14
8.4945523e-14
8.4455585e-14
8.2061592e-14
7.4387733e-14
5.6863655e-14
2.9903243e-14
7.1439564e-15
3.1114428e-16
1.9986777e-19
4.9113421e-26
3.0539358e-27
3.1369103e-20
6.4620404e-17
1.6799642e-15
7.4627599e-15
1.4614789e-14
1.9401899e-14
2.1563634e-14
2.2275444e-14
2.2439256e-14
2.2439041e-14
2.2274822e-14
2.1562751e-14
1.9400917e-14
1.4613968e-14
7.4623892e-15
1.6798903e-15
6.4618316e-17
3.1364483e-20
2.9422287e-27
1.8495193e-28
4.8190006e-21
1.3103392e-17
3.8538689e-16
1.8161137e-15
3.6618783e-15
4.9324492e-15
5.5223772e-15
5.7254568e-15
5.7762616e-15
5.7762034e-15
5.7252888e-15
5.5221369e-15
4.9321819e-15
3.6616554e-15
1.8160136e-15
3.8536784e-16
1.3102898e-17
4.8183783e-21
1.7613586e-28
)
;

boundaryField
{
    Wall
    {
        type            zeroGradient;
    }
    frontAndBack
    {
        type            empty;
    }
    atmosphere
    {
        type            zeroGradient;
    }
}


// ************************************************************************* //
