/*--------------------------------*- C++ -*----------------------------------*\
| =========                 |                                                 |
| \\      /  F ield         | OpenFOAM: The Open Source CFD Toolbox           |
|  \\    /   O peration     | Version:  3.0.1                                 |
|   \\  /    A nd           | Web:      www.OpenFOAM.org                      |
|    \\/     M anipulation  |                                                 |
\*---------------------------------------------------------------------------*/
FoamFile
{
    version     2.0;
    format      ascii;
    class       volScalarField;
    location    "20";
    object      weight1;
}
// * * * * * * * * * * * * * * * * * * * * * * * * * * * * * * * * * * * * * //

dimensions      [0 0 0 0 0 0 0];

internalField   nonuniform List<scalar> 
800
(
9.9867781e+12
9.9867772e+12
9.986777e+12
9.986777e+12
9.9867769e+12
9.9867769e+12
9.9867768e+12
9.9867768e+12
9.9867768e+12
9.9867768e+12
9.9867768e+12
9.9867768e+12
9.9867768e+12
9.9867768e+12
9.9867769e+12
9.9867769e+12
9.986777e+12
9.986777e+12
9.9867772e+12
9.9867781e+12
9.9999911e+12
9.9999936e+12
9.9999939e+12
9.9999939e+12
9.999994e+12
9.999994e+12
9.9999941e+12
9.9999941e+12
9.9999941e+12
9.9999941e+12
9.9999941e+12
9.9999941e+12
9.9999941e+12
9.9999941e+12
9.999994e+12
9.999994e+12
9.9999939e+12
9.9999939e+12
9.9999936e+12
9.9999911e+12
9.6957784e+12
9.7000644e+12
9.7010248e+12
9.7011264e+12
9.7010751e+12
9.7010417e+12
9.7010355e+12
9.7010438e+12
9.7010549e+12
9.7010621e+12
9.7010621e+12
9.7010548e+12
9.7010438e+12
9.7010354e+12
9.7010416e+12
9.701075e+12
9.7011263e+12
9.7010247e+12
9.7000643e+12
9.6957782e+12
9.1791413e+12
9.1903986e+12
9.1923523e+12
9.1923337e+12
9.1921908e+12
9.1921015e+12
9.1920834e+12
9.1920988e+12
9.1921203e+12
9.1921347e+12
9.1921347e+12
9.1921203e+12
9.1920987e+12
9.1920834e+12
9.1921014e+12
9.1921908e+12
9.1923336e+12
9.1923522e+12
9.1903985e+12
9.179141e+12
8.520529e+12
8.5411061e+12
8.5440613e+12
8.543976e+12
8.5437644e+12
8.5436441e+12
8.5436254e+12
8.5436498e+12
8.54368e+12
8.5436992e+12
8.5436992e+12
8.54368e+12
8.5436498e+12
8.5436254e+12
8.5436441e+12
8.5437644e+12
8.543976e+12
8.5440613e+12
8.5411061e+12
8.5205288e+12
7.7619543e+12
7.7956047e+12
7.8002105e+12
7.8004626e+12
7.8003392e+12
7.8002867e+12
7.800309e+12
7.8003492e+12
7.8003881e+12
7.8004105e+12
7.8004105e+12
7.8003881e+12
7.8003493e+12
7.8003091e+12
7.8002868e+12
7.8003394e+12
7.8004628e+12
7.8002107e+12
7.7956049e+12
7.7619543e+12
6.9117473e+12
6.9640863e+12
6.9724005e+12
6.9737673e+12
6.9741228e+12
6.9743103e+12
6.9744503e+12
6.9745322e+12
6.974587e+12
6.9746105e+12
6.9746105e+12
6.974587e+12
6.9745323e+12
6.9744505e+12
6.9743105e+12
6.9741231e+12
6.9737676e+12
6.9724008e+12
6.9640866e+12
6.9117476e+12
5.9462289e+12
6.0243971e+12
6.0407557e+12
6.0443308e+12
6.0456877e+12
6.0463224e+12
6.0466474e+12
6.0468029e+12
6.0468794e+12
6.0469007e+12
6.0469007e+12
6.0468794e+12
6.0468029e+12
6.0466475e+12
6.0463226e+12
6.045688e+12
6.0443312e+12
6.0407561e+12
6.0243976e+12
5.9462294e+12
4.8337439e+12
4.9400091e+12
4.9696546e+12
4.9763717e+12
4.9790346e+12
4.9801526e+12
4.9806155e+12
4.9808169e+12
4.9808882e+12
4.9808946e+12
4.9808946e+12
4.9808881e+12
4.9808168e+12
4.9806156e+12
4.9801527e+12
4.9790349e+12
4.9763721e+12
4.969655e+12
4.9400097e+12
4.8337444e+12
3.6469393e+12
3.7711206e+12
3.813164e+12
3.8238167e+12
3.8273409e+12
3.8283659e+12
3.8285237e+12
3.8284774e+12
3.8283688e+12
3.8282791e+12
3.828279e+12
3.8283686e+12
3.8284773e+12
3.8285237e+12
3.828366e+12
3.8273412e+12
3.8238172e+12
3.8131645e+12
3.7711214e+12
3.6469401e+12
0
0
0
0
0
0
0
0
0
0
0
0
0
0
0
0
0
0
0
0
0
0
0
0
0
0
0
0
0
0
0
0
0
0
0
0
0
0
0
0
0
0
0
0
0
0
0
0
0
0
0
0
0
0
0
0
0
0
0
0
0
0
0
0
0
0
0
0
0
0
0
0
0
0
0
0
0
0
0
0
0
0
0
0
0
0
0
0
0
0
0
0
0
0
0
0
0
0
0
0
0
0
0
0
0
0
0
0
0
0
0
0
0
0
0
0
0
0
0
0
0
0
0
0
0
0
0
0
0
0
0
0
0
0
0
0
0
0
0
0
0
0
0
0
0
0
0
0
0
0
0
0
0
0
0
0
0
0
0
0
0
0
0
0
0
0
0
0
0
0
0
0
0
0
0
0
0
0
0
0
0
0
0
0
0
0
0
0
0
0
0
0
0
0
0
0
0
0
0
0
0
0
0
0
0
0
0
0
0
0
0
0
0
0
0
0
0
0
0
0
0
0
0
0
0
0
0
0
0
0
0
0
0
0
0
0
0
0
0
0
0
0
0
0
0
0
0
0
0
0
0
0
0
0
0
0
0
0
0
0
0
0
0
0
0
0
0
0
0
0
0
0
0
0
0
0
0
0
0
0
0
0
0
0
0
0
0
0
0
0
0
0
0
0
0
0
0
0
0
0
0
0
0
0
0
0
0
0
0
0
0
0
0
0
0
0
0
0
0
0
0
0
0
0
0
0
0
0
0
0
0
0
0
0
0
0
0
0
0
0
0
0
0
0
0
0
0
0
0
0
0
0
0
0
0
0
0
0
0
0
0
0
0
0
0
0
0
0
0
0
0
0
0
0
0
0
0
0
0
0
0
0
0
0
0
0
0
0
0
0
0
0
0
0
0
0
0
0
0
0
0
0
0
0
0
0
0
0
0
0
0
0
0
0
0
0
0
0
0
0
0
0
0
0
0
0
0
0
0
0
0
0
0
0
0
0
0
0
0
0
0
0
0
0
0
0
0
0
0
0
0
0
0
0
0
0
0
0
0
0
0
0
0
0
0
0
0
0
0
0
0
0
0
0
0
0
0
0
0
0
0
0
0
0
0
0
0
0
0
0
0
0
0
0
0
0
0
0
0
0
0
0
0
0
0
0
0
0
0
0
0
0
0
0
0
0
0
0
0
0
0
0
0
0
0
0
0
0
0
0
0
0
0
0
0
0
0
0
0
0
0
0
0
0
0
0
0
0
0
0
0
0
0
0
0
0
0
0
0
0
0
0
0
0
0
0
0
0
0
0
0
0
0
0
0
0
0
0
0
0
0
0
0
0
0
0
0
0
0
0
0
0
0
0
0
0
0
0
0
0
)
;

boundaryField
{
    Wall
    {
        type            zeroGradient;
    }
    frontAndBack
    {
        type            empty;
    }
    atmosphere
    {
        type            zeroGradient;
    }
}


// ************************************************************************* //
