/*--------------------------------*- C++ -*----------------------------------*\
| =========                 |                                                 |
| \\      /  F ield         | OpenFOAM: The Open Source CFD Toolbox           |
|  \\    /   O peration     | Version:  3.0.1                                 |
|   \\  /    A nd           | Web:      www.OpenFOAM.org                      |
|    \\/     M anipulation  |                                                 |
\*---------------------------------------------------------------------------*/
FoamFile
{
    version     2.0;
    format      ascii;
    class       volScalarField;
    location    "20";
    object      weight0;
}
// * * * * * * * * * * * * * * * * * * * * * * * * * * * * * * * * * * * * * //

dimensions      [0 0 0 0 0 0 0];

internalField   nonuniform List<scalar> 
800
(
1.3221858e+10
1.3222772e+10
1.3222973e+10
1.3223041e+10
1.3223087e+10
1.3223125e+10
1.3223155e+10
1.3223177e+10
1.3223191e+10
1.3223198e+10
1.3223198e+10
1.3223191e+10
1.3223177e+10
1.3223155e+10
1.3223125e+10
1.3223087e+10
1.3223041e+10
1.3222973e+10
1.3222772e+10
1.3221858e+10
8882575.5
6375426.2
6128510
6059114.5
6013176
5973025.5
5939463.3
5914095.1
5897403.5
5889151.4
5889153.2
5897406
5914098.3
5939467.3
5973028.5
6013176.2
6059111.6
6128503.9
6375418.4
8882589.8
1.1735e+08
1.0286069e+08
96581605
95829669
95370523
95009018
94721787
94508500
94368368
94298872
94298892
94368399
94508545
94721845
95009078
95370571
95829706
96581626
1.0286072e+08
1.1735016e+08
5.0546123e+08
4.5360504e+08
4.354054e+08
4.3311202e+08
4.3160823e+08
4.3048804e+08
4.2961715e+08
4.2897687e+08
4.2855654e+08
4.2834792e+08
4.28348e+08
4.2855672e+08
4.2897715e+08
4.2961752e+08
4.3048846e+08
4.3160865e+08
4.3311249e+08
4.3540585e+08
4.5360558e+08
5.0546217e+08
2.0303366e+09
1.8339809e+09
1.7988685e+09
1.7624756e+09
1.7570731e+09
1.7531498e+09
1.7502096e+09
1.748115e+09
1.7467619e+09
1.7460975e+09
1.7460979e+09
1.7467628e+09
1.7481164e+09
1.7502114e+09
1.7531519e+09
1.7570754e+09
1.7624783e+09
1.7988712e+09
1.833984e+09
2.0303411e+09
9.079543e+09
8.2136466e+09
8.1902586e+09
8.1144018e+09
8.0870827e+09
8.065931e+09
8.0509431e+09
8.0406121e+09
8.0341783e+09
8.0310579e+09
8.0310596e+09
8.0341828e+09
8.0406195e+09
8.0509527e+09
8.065942e+09
8.0870945e+09
8.1144155e+09
8.1902718e+09
8.2136606e+09
9.0795649e+09
3.5725335e+10
3.3573759e+10
3.3717128e+10
3.3731501e+10
3.3611662e+10
3.3507977e+10
3.3436024e+10
3.3387605e+10
3.3358333e+10
3.3343928e+10
3.3343935e+10
3.335835e+10
3.3387633e+10
3.3436062e+10
3.3508018e+10
3.3611707e+10
3.3731556e+10
3.3717177e+10
3.3573809e+10
3.5725418e+10
1.0736106e+11
1.0414044e+11
1.0457957e+11
1.0510588e+11
1.048036e+11
1.044732e+11
1.0423322e+11
1.0407567e+11
1.0398026e+11
1.0393117e+11
1.0393118e+11
1.039803e+11
1.0407573e+11
1.0423331e+11
1.0447331e+11
1.0480372e+11
1.0510604e+11
1.045797e+11
1.0414057e+11
1.0736129e+11
2.6161751e+11
2.635134e+11
2.6659218e+11
2.6922911e+11
2.6890923e+11
2.6814759e+11
2.6751708e+11
2.671087e+11
2.6685679e+11
2.6672181e+11
2.6672183e+11
2.6685684e+11
2.6710877e+11
2.6751725e+11
2.681478e+11
2.6890949e+11
2.6922948e+11
2.6659244e+11
2.6351371e+11
2.6161806e+11
4.2007433e+11
4.5611329e+11
4.769227e+11
4.8611224e+11
4.8698085e+11
4.8579441e+11
4.8450538e+11
4.8365015e+11
4.8311193e+11
4.8282124e+11
4.8282121e+11
4.8311195e+11
4.836501e+11
4.8450552e+11
4.8579465e+11
4.8698117e+11
4.8611276e+11
4.7692304e+11
4.5611379e+11
4.2007518e+11
0
0
0
0
0
0
0
0
0
0
0
0
0
0
0
0
0
0
0
0
0
0
0
0
0
0
0
0
0
0
0
0
0
0
0
0
0
0
0
0
0
0
0
0
0
0
0
0
0
0
0
0
0
0
0
0
0
0
0
0
0
0
0
0
0
0
0
0
0
0
0
0
0
0
0
0
0
0
0
0
0
0
0
0
0
0
0
0
0
0
0
0
0
0
0
0
0
0
0
0
0
0
0
0
0
0
0
0
0
0
0
0
0
0
0
0
0
0
0
0
0
0
0
0
0
0
0
0
0
0
0
0
0
0
0
0
0
0
0
0
0
0
0
0
0
0
0
0
0
0
0
0
0
0
0
0
0
0
0
0
0
0
0
0
0
0
0
0
0
0
0
0
0
0
0
0
0
0
0
0
0
0
0
0
0
0
0
0
0
0
0
0
0
0
0
0
0
0
0
0
0
0
0
0
0
0
0
0
0
0
0
0
0
0
0
0
0
0
0
0
0
0
0
0
0
0
0
0
0
0
0
0
0
0
0
0
0
0
0
0
0
0
0
0
0
0
0
0
0
0
0
0
0
0
0
0
0
0
0
0
0
0
0
0
0
0
0
0
0
0
0
0
0
0
0
0
0
0
0
0
0
0
0
0
0
0
0
0
0
0
0
0
0
0
0
0
0
0
0
0
0
0
0
0
0
0
0
0
0
0
0
0
0
0
0
0
0
0
0
0
0
0
0
0
0
0
0
0
0
0
0
0
0
0
0
0
0
0
0
0
0
0
0
0
0
0
0
0
0
0
0
0
0
0
0
0
0
0
0
0
0
0
0
0
0
0
0
0
0
0
0
0
0
0
0
0
0
0
0
0
0
0
0
0
0
0
0
0
0
0
0
0
0
0
0
0
0
0
0
0
0
0
0
0
0
0
0
0
0
0
0
0
0
0
0
0
0
0
0
0
0
0
0
0
0
0
0
0
0
0
0
0
0
0
0
0
0
0
0
0
0
0
0
0
0
0
0
0
0
0
0
0
0
0
0
0
0
0
0
0
0
0
0
0
0
0
0
0
0
0
0
0
0
0
0
0
0
0
0
0
0
0
0
0
0
0
0
0
0
0
0
0
0
0
0
0
0
0
0
0
0
0
0
0
0
0
0
0
0
0
0
0
0
0
0
0
0
0
0
0
0
0
0
0
0
0
0
0
0
0
0
0
0
0
0
0
0
0
0
0
0
0
0
0
0
0
0
0
0
0
0
0
0
0
0
0
0
0
0
0
0
0
0
0
0
0
0
0
0
0
0
0
0
0
0
0
0
0
0
0
0
0
0
0
0
0
0
0
0
0
0
0
0
0
0
0
0
0
0
0
)
;

boundaryField
{
    Wall
    {
        type            zeroGradient;
    }
    frontAndBack
    {
        type            empty;
    }
    atmosphere
    {
        type            zeroGradient;
    }
}


// ************************************************************************* //
