/*--------------------------------*- C++ -*----------------------------------*\
| =========                 |                                                 |
| \\      /  F ield         | OpenFOAM: The Open Source CFD Toolbox           |
|  \\    /   O peration     | Version:  3.0.1                                 |
|   \\  /    A nd           | Web:      www.OpenFOAM.org                      |
|    \\/     M anipulation  |                                                 |
\*---------------------------------------------------------------------------*/
FoamFile
{
    version     2.0;
    format      ascii;
    class       volScalarField;
    location    "43";
    object      g1_CO2;
}
// * * * * * * * * * * * * * * * * * * * * * * * * * * * * * * * * * * * * * //

dimensions      [0 0 0 0 0 0 0];

internalField   nonuniform List<scalar> 
800
(
0.44024368
0.4402751
0.44029238
0.44029705
0.44029823
0.44029857
0.44029872
0.44029883
0.44029891
0.44029895
0.44029895
0.44029891
0.44029883
0.44029872
0.44029857
0.44029823
0.44029705
0.44029238
0.4402751
0.44024368
0.45498541
0.45453655
0.45446234
0.45444632
0.4544437
0.4544434
0.45444305
0.45444241
0.4544418
0.45444143
0.45444143
0.4544418
0.45444242
0.45444305
0.45444341
0.45444371
0.45444633
0.45446235
0.45453656
0.45498544
0.46952242
0.46884369
0.46870694
0.46868574
0.46868652
0.46868926
0.46869026
0.46868986
0.46868903
0.46868843
0.46868843
0.46868903
0.46868987
0.46869026
0.46868926
0.46868653
0.46868575
0.46870696
0.46884371
0.46952244
0.48302217
0.48208615
0.4818908
0.48186167
0.48186201
0.48186518
0.48186613
0.48186541
0.48186419
0.48186336
0.48186337
0.48186419
0.48186541
0.48186614
0.48186519
0.48186202
0.48186168
0.48189081
0.48208616
0.48302218
0.49617445
0.49494722
0.49468716
0.49464654
0.49464474
0.49464763
0.49464818
0.49464705
0.49464548
0.49464445
0.49464445
0.49464548
0.49464706
0.49464818
0.49464764
0.49464475
0.49464655
0.49468717
0.49494723
0.49617445
0.50923681
0.50768267
0.50734301
0.50728412
0.50727838
0.50728057
0.50728069
0.50727934
0.50727755
0.50727642
0.50727642
0.50727755
0.50727935
0.5072807
0.50728058
0.50727839
0.50728413
0.50734302
0.50768267
0.5092368
0.52243525
0.5204975
0.52005563
0.51996709
0.51995376
0.51995405
0.51995341
0.51995188
0.51994998
0.51994883
0.51994883
0.51994998
0.51995189
0.51995342
0.51995406
0.51995377
0.5199671
0.52005563
0.5204975
0.52243523
0.53607611
0.53366197
0.53308634
0.53295259
0.53292618
0.53292234
0.53292005
0.53291809
0.53291603
0.53291489
0.5329149
0.53291604
0.5329181
0.53292006
0.53292236
0.53292619
0.53295261
0.53308635
0.53366197
0.53607608
0.55062464
0.54760304
0.54684306
0.5466418
0.54659241
0.54657971
0.54657332
0.54656972
0.54656694
0.54656559
0.54656559
0.54656696
0.54656974
0.54657334
0.54657974
0.54659244
0.54664181
0.54684307
0.54760304
0.55062461
0.5662773
0.56252257
0.56154689
0.56126053
0.5611821
0.56115834
0.56114682
0.56114117
0.56113758
0.56113601
0.56113601
0.5611376
0.5611412
0.56114685
0.56115837
0.56118213
0.56126056
0.56154692
0.56252258
0.56627728
0.583385
0.57875474
0.57750364
0.57710409
0.57698111
0.57693855
0.57691789
0.57690792
0.57690234
0.57690004
0.57690005
0.57690237
0.57690795
0.57691794
0.5769386
0.57698115
0.57710413
0.57750367
0.57875476
0.58338499
0.60385429
0.59642872
0.59485579
0.5943183
0.5941325
0.59406226
0.59402955
0.59401379
0.59400571
0.59400245
0.59400246
0.59400574
0.59401384
0.5940296
0.59406232
0.59413257
0.59431836
0.59485585
0.59642876
0.60385432
0.62627185
0.61922324
0.61702895
0.61628682
0.61600923
0.61589476
0.61583897
0.61581203
0.61579936
0.61579429
0.61579431
0.6157994
0.61581209
0.61583905
0.61589485
0.61600932
0.61628692
0.61702904
0.61922332
0.6262719
0.65181461
0.64287014
0.64010115
0.63914149
0.63874422
0.63857078
0.63849098
0.63845104
0.63843218
0.63842486
0.63842487
0.63843223
0.63845111
0.63849107
0.63857088
0.63874434
0.63914162
0.64010128
0.64287026
0.65181469
0.68097813
0.66994198
0.66646025
0.66523865
0.66468402
0.66443144
0.66432018
0.66426179
0.66423215
0.66422154
0.66422156
0.6642322
0.66426187
0.66432029
0.66443155
0.66468414
0.66523877
0.66646038
0.66994209
0.68097824
0.71441483
0.70105744
0.69671122
0.69517617
0.69442272
0.69406942
0.69391399
0.69382942
0.69378072
0.69376504
0.69376506
0.6937808
0.69382954
0.69391414
0.6940696
0.69442292
0.69517639
0.69671144
0.70105766
0.71441509
0.75237819
0.7364778
0.73111783
0.72922142
0.7282354
0.72776396
0.72754992
0.72743222
0.72735382
0.72733077
0.7273308
0.72735389
0.72743234
0.72755008
0.72776414
0.72823559
0.72922163
0.73111805
0.73647802
0.75237845
0.79508308
0.77645563
0.76993963
0.76762985
0.7663791
0.76577022
0.76547893
0.76531949
0.76519627
0.76516206
0.76516209
0.76519635
0.76531962
0.7654791
0.76577042
0.76637931
0.76763008
0.76993988
0.77645589
0.79508338
0.84276927
0.82125588
0.81344945
0.81067054
0.80912336
0.80835614
0.80796597
0.80775452
0.80756641
0.80751599
0.80751602
0.80756649
0.80775464
0.80796613
0.80835632
0.80912356
0.81067077
0.81344969
0.82125613
0.84276957
0.89591924
0.8713738
0.86215233
0.85884596
0.85696886
0.85601937
0.8555056
0.85523067
0.85495308
0.85488098
0.85488101
0.85495318
0.85523082
0.85550581
0.85601963
0.85696914
0.85884629
0.86215267
0.87137417
0.89591969
0.95467659
0.92699075
0.91624023
0.91235375
0.91011412
0.90895271
0.90828567
0.90793366
0.90753734
0.90743851
0.90743854
0.90753742
0.90793379
0.90828585
0.90895292
0.91011437
0.91235403
0.91624052
0.92699106
0.95467697
1.0193721
0.98850155
0.97611999
0.97160291
0.9689609
0.96754678
0.96669035
0.96624558
0.96569648
0.96556826
0.96556829
0.96569656
0.96624573
0.96669055
0.96754701
0.96896117
0.97160322
0.97612032
0.98850189
1.0193726
1.0907518
1.0566432
1.0425428
1.0373589
1.03427
1.0325526
1.0314633
1.0309075
1.0301663
1.0300083
1.0300084
1.0301664
1.0309076
1.0314635
1.0325528
1.0342703
1.0373592
1.0425431
1.0566435
1.0907522
1.1691109
1.1318092
1.1159158
1.1100269
1.106444
1.1043569
1.1029789
1.1022905
1.1013195
1.1011334
1.1011334
1.1013195
1.1022906
1.1029791
1.104357
1.1064442
1.1100271
1.115916
1.1318094
1.1691111
1.2553079
1.2148668
1.1971478
1.1905284
1.186407
1.1838628
1.1821236
1.1812758
1.1800405
1.1798288
1.1798288
1.1800406
1.1812759
1.1821237
1.183863
1.1864072
1.1905286
1.1971479
1.2148669
1.2553079
1.3502962
1.3068378
1.2872751
1.279905
1.2752115
1.2721079
1.2699249
1.268892
1.2673663
1.2671343
1.2671343
1.2673663
1.268892
1.2699249
1.2721079
1.2752115
1.2799051
1.2872752
1.3068377
1.3502961
1.4548339
1.408633
1.3872379
1.3791467
1.3738554
1.3700781
1.3673633
1.3661181
1.3642861
1.3640428
1.3640428
1.3642861
1.3661181
1.3673633
1.3700781
1.3738553
1.3791466
1.3872377
1.4086326
1.4548334
1.5701018
1.521633
1.4984503
1.4897387
1.4838104
1.4792308
1.4758921
1.4744011
1.4722578
1.4720124
1.4720123
1.4722577
1.474401
1.4758919
1.4792307
1.4838102
1.4897384
1.4984499
1.5216324
1.5701009
1.6969855
1.6471356
1.622371
1.6132879
1.606708
1.6012289
1.5972049
1.5954442
1.59301
1.5927727
1.5927727
1.5930098
1.595444
1.5972046
1.6012286
1.6067076
1.6132875
1.6223703
1.6471347
1.6969843
1.8362282
1.7865489
1.760708
1.7517013
1.7445218
1.7380846
1.7333354
1.7312791
1.7285881
1.7283652
1.7283651
1.7285879
1.7312788
1.733335
1.7380842
1.7445213
1.7517006
1.7607071
1.7865475
1.8362266
1.9877323
1.9409041
1.9151541
1.9070138
1.8995332
1.8921902
1.8866541
1.8842523
1.8813465
1.881144
1.8811439
1.8813462
1.8842519
1.8866536
1.8921896
1.8995324
1.9070129
1.9151528
1.9409023
1.9877305
2.1491025
2.1098326
2.086796
2.0809351
2.0738635
2.0659511
2.0595146
2.0565117
2.0534255
2.0532457
2.0532456
2.0534252
2.0565113
2.059514
2.0659504
2.0738626
2.0809339
2.0867945
2.1098306
2.149101
2.3122458
2.2900272
2.2750898
2.2741513
2.2687355
2.2611703
2.25374
2.2493422
2.2460884
2.2459212
2.2459211
2.2460881
2.2493417
2.2537393
2.2611694
2.2687344
2.27415
2.2750882
2.2900255
2.3122458
2.4585329
2.4716003
2.4753619
2.4844656
2.4828166
2.4774057
2.4686707
2.4618068
2.4583777
2.4581952
2.4581951
2.4583774
2.4618063
2.4686701
2.4774049
2.4828157
2.4844645
2.4753609
2.4716003
2.458537
2.5525498
2.6307929
2.673668
2.7025647
2.7087031
2.7074351
2.6975699
2.6878826
2.6842629
2.6840158
2.6840157
2.6842627
2.6878823
2.6975696
2.7074347
2.7087028
2.7025646
2.6736688
2.6307974
2.5525628
2.5304696
2.7199108
2.8376501
2.9013978
2.9257491
2.9304011
2.9216546
2.9103198
2.9065025
2.9061068
2.9061068
2.9065026
2.9103199
2.9216549
2.9304017
2.9257501
2.9013998
2.8376547
2.719924
2.5304975
2.3285044
2.6748856
2.9049967
3.0248332
3.082266
3.1018318
3.0994574
3.0841399
3.0802444
3.0795678
3.079568
3.080245
3.084141
3.0994591
3.1018341
3.0822696
3.0248392
2.905008
2.6749112
2.3285464
1.9749896
2.4436356
2.7917522
2.9880925
3.0936939
3.1349345
3.1469952
3.1352649
3.1320861
3.1310584
3.1310588
3.1320876
3.1352676
3.1469988
3.1349397
3.0937014
2.9881041
2.7917717
2.4436706
1.9750342
1.4349969
2.025524
2.4440216
2.7073992
2.8648321
2.9521678
2.9861118
2.9745656
2.9726537
2.9708125
2.9708131
2.9726556
2.974569
2.9861165
2.9521743
2.8648413
2.707413
2.4440428
2.0255571
1.435038
0
0
1.7380147
1.9954815
2.1572683
2.2522353
2.2871175
2.2915509
2.2847756
2.2787052
2.2787054
2.2847763
2.2915521
2.287119
2.2522376
2.1572717
1.9954871
1.7380229
0
0
)
;

boundaryField
{
    Wall
    {
        type            zeroGradient;
    }
    frontAndBack
    {
        type            empty;
    }
    atmosphere
    {
        type            zeroGradient;
    }
}


// ************************************************************************* //
