/*--------------------------------*- C++ -*----------------------------------*\
| =========                 |                                                 |
| \\      /  F ield         | OpenFOAM: The Open Source CFD Toolbox           |
|  \\    /   O peration     | Version:  3.0.1                                 |
|   \\  /    A nd           | Web:      www.OpenFOAM.org                      |
|    \\/     M anipulation  |                                                 |
\*---------------------------------------------------------------------------*/
FoamFile
{
    version     2.0;
    format      ascii;
    class       volScalarField;
    location    "43";
    object      muMixture;
}
// * * * * * * * * * * * * * * * * * * * * * * * * * * * * * * * * * * * * * //

dimensions      [1 -1 -1 0 0 0 0];

internalField   nonuniform List<scalar> 
800
(
0.001
0.001
0.001
0.001
0.001
0.001
0.001
0.001
0.001
0.001
0.001
0.001
0.001
0.001
0.001
0.001
0.001
0.001
0.001
0.001
0.001
0.001
0.001
0.001
0.001
0.001
0.001
0.001
0.001
0.001
0.001
0.001
0.001
0.001
0.001
0.001
0.001
0.001
0.001
0.001
0.00099999999
0.00099999999
0.00099999999
0.00099999999
0.00099999999
0.00099999999
0.00099999999
0.00099999999
0.00099999999
0.00099999999
0.00099999999
0.00099999999
0.00099999999
0.00099999999
0.00099999999
0.00099999999
0.00099999999
0.00099999999
0.00099999999
0.00099999999
0.00099999998
0.00099999998
0.00099999998
0.00099999998
0.00099999998
0.00099999998
0.00099999998
0.00099999998
0.00099999998
0.00099999998
0.00099999998
0.00099999998
0.00099999998
0.00099999998
0.00099999998
0.00099999998
0.00099999998
0.00099999998
0.00099999998
0.00099999998
0.00099999997
0.00099999997
0.00099999997
0.00099999998
0.00099999998
0.00099999998
0.00099999998
0.00099999998
0.00099999998
0.00099999998
0.00099999998
0.00099999998
0.00099999998
0.00099999998
0.00099999998
0.00099999998
0.00099999998
0.00099999997
0.00099999997
0.00099999997
0.00099999993
0.00099999994
0.00099999994
0.00099999994
0.00099999995
0.00099999995
0.00099999995
0.00099999995
0.00099999995
0.00099999995
0.00099999995
0.00099999995
0.00099999995
0.00099999995
0.00099999995
0.00099999995
0.00099999994
0.00099999994
0.00099999994
0.00099999993
0.00099999987
0.00099999989
0.0009999999
0.0009999999
0.0009999999
0.0009999999
0.0009999999
0.0009999999
0.0009999999
0.0009999999
0.0009999999
0.0009999999
0.0009999999
0.0009999999
0.0009999999
0.0009999999
0.0009999999
0.0009999999
0.00099999989
0.00099999987
0.00099999979
0.00099999981
0.00099999983
0.00099999983
0.00099999984
0.00099999984
0.00099999984
0.00099999984
0.00099999984
0.00099999984
0.00099999984
0.00099999984
0.00099999984
0.00099999984
0.00099999984
0.00099999984
0.00099999983
0.00099999983
0.00099999981
0.00099999979
0.00099999968
0.00099999972
0.00099999974
0.00099999975
0.00099999975
0.00099999975
0.00099999975
0.00099999975
0.00099999975
0.00099999975
0.00099999975
0.00099999975
0.00099999975
0.00099999975
0.00099999975
0.00099999975
0.00099999975
0.00099999974
0.00099999972
0.00099999968
0.00099999954
0.00099999959
0.00099999963
0.00099999964
0.00099999965
0.00099999965
0.00099999965
0.00099999965
0.00099999965
0.00099999965
0.00099999965
0.00099999965
0.00099999965
0.00099999965
0.00099999965
0.00099999965
0.00099999964
0.00099999963
0.00099999959
0.00099999954
0.00099999937
0.00099999943
0.00099999949
0.00099999951
0.00099999952
0.00099999952
0.00099999952
0.00099999952
0.00099999952
0.00099999952
0.00099999952
0.00099999952
0.00099999952
0.00099999952
0.00099999952
0.00099999952
0.00099999951
0.00099999949
0.00099999943
0.00099999937
0.00099999915
0.00099999924
0.00099999933
0.00099999935
0.00099999936
0.00099999936
0.00099999936
0.00099999936
0.00099999936
0.00099999936
0.00099999936
0.00099999936
0.00099999936
0.00099999936
0.00099999936
0.00099999936
0.00099999935
0.00099999933
0.00099999924
0.00099999915
0.00099999891
0.00099999906
0.00099999912
0.00099999913
0.00099999917
0.00099999918
0.00099999917
0.00099999918
0.00099999918
0.00099999918
0.00099999918
0.00099999918
0.00099999918
0.00099999917
0.00099999918
0.00099999917
0.00099999913
0.00099999912
0.00099999906
0.00099999891
0.00099999864
0.00099999874
0.00099999864
0.00099999888
0.00099999893
0.00099999892
0.000999999
0.00099999898
0.00099999895
0.0009999989
0.0009999989
0.00099999895
0.00099999898
0.00099999899
0.00099999892
0.00099999893
0.00099999888
0.00099999864
0.00099999874
0.00099999864
0.0009999983
0.00099999804
0.00099999805
0.00099999871
0.00099999857
0.00099999822
0.00099999825
0.00099999855
0.00099999808
0.00099999814
0.00099999814
0.00099999808
0.00099999855
0.00099999827
0.00099999822
0.00099999857
0.00099999871
0.00099999805
0.00099999804
0.0009999983
0.00099999786
0.00099999783
0.00099999831
0.00099999841
0.00099999833
0.00099999795
0.00099999422
0.00099999591
0.00099999651
0.00099999812
0.00099999811
0.00099999651
0.00099999592
0.00099999423
0.00099999795
0.00099999833
0.00099999841
0.00099999831
0.00099999783
0.00099999786
0.00099999742
0.0009999979
0.00099999831
0.00099999808
0.00099999801
0.0009999977
0.00099999393
0.00099999393
0.00099999705
0.0009999982
0.0009999982
0.00099999704
0.00099999391
0.00099999391
0.0009999977
0.00099999801
0.00099999808
0.0009999983
0.0009999979
0.00099999742
0.00099999669
0.00099999703
0.00099999785
0.00099999764
0.00099999676
0.00099999598
0.00099999462
0.00099999473
0.00099999749
0.00099999819
0.0009999982
0.00099999749
0.00099999472
0.00099999459
0.00099999598
0.00099999676
0.00099999764
0.00099999785
0.00099999703
0.00099999669
0.00099999537
0.00099998412
0.00099999433
0.00099999333
0.00099998848
0.00099998907
0.00099999605
0.00099999746
0.00099999749
0.00099999734
0.00099999735
0.00099999748
0.00099999745
0.00099999603
0.0009999891
0.00099998847
0.00099999334
0.00099999433
0.00099998412
0.00099999537
0.0009999798
0.00099996725
0.00099997156
0.00099996984
0.00099996945
0.00099998001
0.00099999419
0.00099999747
0.00099999748
0.00099999708
0.00099999708
0.00099999748
0.00099999747
0.0009999942
0.00099998001
0.00099996945
0.00099996984
0.00099997156
0.00099996725
0.0009999798
0.00099996725
0.00099996725
0.00099996725
0.00099996725
0.0009999786
0.00099998585
0.00099999421
0.00099999707
0.00099999734
0.00099999661
0.00099999661
0.00099999735
0.00099999707
0.00099999428
0.00099998582
0.00099997861
0.00099996725
0.00099996725
0.00099996725
0.00099996725
0.00099996725
0.00099996725
0.00099996725
0.00099997033
0.00099999388
0.00099999552
0.00099999702
0.00099999705
0.00099998911
0.00099998933
0.00099998935
0.00099998912
0.00099999705
0.00099999703
0.00099999552
0.00099999389
0.00099997032
0.00099996725
0.00099996725
0.00099996725
0.00099996725
0.00099996725
0.00099996725
0.00099998852
0.00099999689
0.00099999692
0.00099999695
0.000999997
0.00099998666
0.00099998666
0.00099998666
0.00099998666
0.00099999702
0.00099999697
0.00099999694
0.00099999691
0.00099998854
0.00099996725
0.00099996725
0.00099996725
0.00099996725
0.00099996725
0.00099996917
0.00099999602
0.00099999658
0.00099999633
0.00099999107
0.00099998864
0.00099998786
0.00099998666
0.00099998666
0.00099998785
0.00099998863
0.00099999102
0.00099999634
0.00099999658
0.00099999602
0.00099996917
0.00099996725
0.00099996725
0.00099996725
0.00099996725
0.00099998599
0.0009999955
0.00099998653
0.00099998463
0.00099998145
0.00099998145
0.00099998953
0.0009999879
0.0009999879
0.00099998953
0.00099998144
0.00099998144
0.00099998464
0.00099998651
0.0009999955
0.00099998599
0.00099996725
0.00099996725
0.00099996725
0.00099996725
0.0009999874
0.00099998395
0.00099998145
0.00099998145
0.00099998145
0.00099998145
0.00099998953
0.00099998953
0.00099998953
0.00099998953
0.00099998144
0.00099998144
0.00099998144
0.00099998144
0.00099998396
0.0009999874
0.00099996725
0.00099996725
0.00099996725
0.00099997072
0.00099998245
0.00099998522
0.00099998145
0.00099998145
0.00099998145
0.00099998145
0.00099998287
0.00099998953
0.00099998953
0.00099998289
0.00099998144
0.00099998144
0.00099998144
0.00099998144
0.0009999852
0.00099998246
0.00099997072
0.00099996725
0.00099998536
0.00099998866
0.00099998078
0.00099998887
0.00099998145
0.00099998145
0.00099998145
0.00099998145
0.00099998145
0.00099998953
0.00099998953
0.00099998144
0.00099998144
0.00099998144
0.00099998144
0.00099998144
0.00099998887
0.00099998078
0.00099998866
0.00099998535
0.00099998887
0.00099998887
0.00099998077
0.00099998888
0.00099998145
0.00099998145
0.00099998145
0.00099998145
0.00099998395
0.00099998669
0.00099998665
0.00099998394
0.00099998144
0.00099998144
0.00099998144
0.00099998144
0.00099998888
0.00099998077
0.00099998887
0.00099998887
0.00099998887
0.00099998888
0.00099998497
0.00099998888
0.00099998622
0.00099998308
0.00099998145
0.00099998579
0.00099998887
0.00099998493
0.00099998494
0.00099998887
0.00099998583
0.00099998144
0.00099998307
0.00099998625
0.00099998888
0.00099998496
0.00099998887
0.00099998887
0.00099998888
0.00099998888
0.00099998888
0.00099998888
0.00099998888
0.00099998888
0.00099998829
0.00099998888
0.00099998887
0.00099998494
0.00099998493
0.00099998887
0.00099998888
0.00099998831
0.00099998888
0.00099998888
0.00099998888
0.00099998888
0.00099998888
0.00099998888
0.00099998888
0.00099998888
0.00099998888
0.00099998888
0.00099998888
0.00099998888
0.00099998888
0.00099998888
0.00099998888
0.00099998843
0.00099998842
0.00099998888
0.00099998888
0.00099998888
0.00099998888
0.00099998888
0.00099998888
0.00099998888
0.00099998888
0.00099998888
0.00099998888
0.00099998888
0.00099998888
0.00099998888
0.00099998888
0.00099998888
0.00099998888
0.00099998888
0.00099998888
0.00099998888
0.00099998888
0.00099998888
0.00099998888
0.00099998888
0.00099998888
0.00099998888
0.00099998888
0.00099998888
0.00099998888
0.00099998888
0.00099998888
0.00099998888
0.00099998888
0.00099998888
0.00099998888
0.00099998888
0.00099998888
0.00099998888
0.00099998888
0.00099998888
0.00099998888
0.00099998888
0.00099998888
0.00099998888
0.00099998888
0.00099998888
0.00099998888
0.00099998888
0.00099998888
0.00099998888
0.00099998888
0.00099998888
0.00099998888
0.00099998888
0.00099998888
0.00099998888
0.00099998888
0.00099998888
0.00099998888
0.00099998888
0.00099998888
0.00099998888
0.00099998888
0.00099998888
0.00099998888
0.00099998888
0.00099998888
0.00099998888
0.00099998888
0.00099998888
0.0009999624
0.00099998842
0.00099998888
0.00099998888
0.00099998888
0.00099998888
0.00099998888
0.00099998888
0.00099998888
0.00099998888
0.00099998888
0.00099998888
0.00099998888
0.00099998888
0.00099998888
0.00099998888
0.00099998888
0.00099998888
0.00099998842
0.00099996241
0.00099949286
0.00099992025
0.00099998575
0.00099998888
0.00099998888
0.00099998888
0.00099998888
0.00099998888
0.00099998888
0.00099998887
0.00099998887
0.00099998888
0.00099998888
0.00099998888
0.00099998888
0.00099998888
0.00099998888
0.00099998575
0.00099992027
0.00099949302
0.00098803828
0.00099897594
0.0009998589
0.00099993213
0.00099994936
0.00099995553
0.00099995752
0.00099995841
0.00099995896
0.00099995921
0.00099995921
0.00099995896
0.00099995841
0.00099995752
0.00099995553
0.00099994937
0.00099993213
0.00099985892
0.00099897618
0.00098804328
0.00071784534
0.00097850299
0.00099666907
0.00099843138
0.00099892291
0.00099911138
0.0009991878
0.00099922957
0.00099925351
0.00099926411
0.00099926411
0.00099925352
0.00099922959
0.00099918783
0.00099911143
0.00099892299
0.00099843154
0.00099666957
0.00097850787
0.00071790961
1e-05
1e-05
0.0006694035
0.00071634153
0.00073118401
0.00074004015
0.00074495406
0.00074818658
0.00075019623
0.00075108384
0.00075108421
0.00075019741
0.00074818875
0.00074495686
0.0007400438
0.00073118867
0.00071634801
0.00066941615
1e-05
1e-05
)
;

boundaryField
{
    Wall
    {
        type            zeroGradient;
    }
    frontAndBack
    {
        type            empty;
    }
    atmosphere
    {
        type            zeroGradient;
    }
}


// ************************************************************************* //
