/*--------------------------------*- C++ -*----------------------------------*\
| =========                 |                                                 |
| \\      /  F ield         | OpenFOAM: The Open Source CFD Toolbox           |
|  \\    /   O peration     | Version:  3.0.1                                 |
|   \\  /    A nd           | Web:      www.OpenFOAM.org                      |
|    \\/     M anipulation  |                                                 |
\*---------------------------------------------------------------------------*/
FoamFile
{
    version     2.0;
    format      ascii;
    class       volVectorField;
    location    "43";
    object      U;
}
// * * * * * * * * * * * * * * * * * * * * * * * * * * * * * * * * * * * * * //

dimensions      [0 1 -1 0 0 0 0];

internalField   nonuniform List<vector> 
800
(
(9.9781985e-06 0.00021224248 0)
(1.2979639e-05 0.00021672464 0)
(1.6310983e-05 0.00021979254 0)
(1.6655001e-05 0.00022176762 0)
(1.5349462e-05 0.00022301559 0)
(1.3151256e-05 0.00022375322 0)
(1.0467164e-05 0.00022415302 0)
(7.5521747e-06 0.00022434975 0)
(4.5454222e-06 0.00022443595 0)
(1.5102837e-06 0.00022446643 0)
(-1.5304168e-06 0.00022446625 0)
(-4.5651424e-06 0.00022443541 0)
(-7.5710886e-06 0.00022434887 0)
(-1.0484902e-05 0.00022415181 0)
(-1.3167466e-05 0.00022375167 0)
(-1.5363688e-05 0.00022301369 0)
(-1.6666185e-05 0.00022176539 0)
(-1.6320292e-05 0.00021979003 0)
(-1.2985407e-05 0.00021672517 0)
(-9.9821565e-06 0.00021224309 0)
(6.4999929e-06 0.00027073083 0)
(8.419453e-06 0.00027729726 0)
(1.301475e-05 0.00028146934 0)
(1.4177846e-05 0.00028403294 0)
(1.3548252e-05 0.00028557188 0)
(1.1912086e-05 0.00028643536 0)
(9.6645748e-06 0.00028687505 0)
(7.0709914e-06 0.00028707238 0)
(4.2965412e-06 0.00028714676 0)
(1.4377484e-06 0.00028716783 0)
(-1.4459117e-06 0.00028716763 0)
(-4.3045381e-06 0.00028714618 0)
(-7.0786611e-06 0.00028707142 0)
(-9.6717468e-06 0.00028687376 0)
(-1.1918576e-05 0.00028643372 0)
(-1.3553801e-05 0.00028556989 0)
(-1.4181892e-05 0.00028403052 0)
(-1.3017195e-05 0.00028146632 0)
(-8.4235759e-06 0.00027729633 0)
(-6.5028775e-06 0.0002707264 0)
(7.0431474e-06 0.00052550223 0)
(8.7377009e-06 0.00053591693 0)
(1.2360246e-05 0.00054307691 0)
(1.3356731e-05 0.00054783826 0)
(1.2809096e-05 0.00055087695 0)
(1.1327404e-05 0.00055271006 0)
(9.242699e-06 0.00055374609 0)
(6.7940786e-06 0.00055428962 0)
(4.1415995e-06 0.00055454834 0)
(1.388183e-06 0.00055464799 0)
(-1.3958034e-06 0.00055464768 0)
(-4.1490545e-06 0.00055454743 0)
(-6.8012133e-06 0.00055428813 0)
(-9.2493601e-06 0.00055374405 0)
(-1.1333437e-05 0.00055270748 0)
(-1.2814306e-05 0.00055087385 0)
(-1.336055e-05 0.00054783461 0)
(-1.2362391e-05 0.00054307275 0)
(-8.7392739e-06 0.00053591289 0)
(-7.0430752e-06 0.00052549638 0)
(7.3320873e-06 0.00075555234 0)
(8.9939079e-06 0.00076790762 0)
(1.2282183e-05 0.00077705579 0)
(1.3097942e-05 0.00078341599 0)
(1.2487233e-05 0.00078759015 0)
(1.1017244e-05 0.00079018017 0)
(8.9855243e-06 0.00079169475 0)
(6.6073795e-06 0.00079252415 0)
(4.0299316e-06 0.00079293974 0)
(1.3512918e-06 0.00079310819 0)
(-1.3584476e-06 0.0007931078 0)
(-4.0369289e-06 0.0007929386 0)
(-6.614066e-06 0.00079252228 0)
(-8.9917521e-06 0.00079169217 0)
(-1.102288e-05 0.00079017691 0)
(-1.2492114e-05 0.00078758625 0)
(-1.3101535e-05 0.00078341146 0)
(-1.2284054e-05 0.00077705075 0)
(-8.9953231e-06 0.00076790257 0)
(-7.3317983e-06 0.00075554353 0)
(7.4775663e-06 0.00098269281 0)
(9.1764225e-06 0.00099780725 0)
(1.2375511e-05 0.0010090068 0)
(1.3064648e-05 0.0010168625 0)
(1.2370253e-05 0.0010220723 0)
(1.0866187e-05 0.0010253513 0)
(8.8390407e-06 0.0010273057 0)
(6.4902125e-06 0.001028402 0)
(3.9556113e-06 0.0010289667 0)
(1.3260323e-06 0.0010292013 0)
(-1.3329068e-06 0.0010292008 0)
(-3.9623261e-06 0.0010289653 0)
(-6.4966204e-06 0.0010283997 0)
(-8.8450067e-06 0.0010273025 0)
(-1.0871586e-05 0.0010253473 0)
(-1.2374935e-05 0.0010220674 0)
(-1.3067999e-05 0.0010168569 0)
(-1.2377068e-05 0.0010090005 0)
(-9.1774198e-06 0.00099780098 0)
(-7.4768715e-06 0.00098268326 0)
(7.6386114e-06 0.0012130428 0)
(9.3980526e-06 0.001231292 0)
(1.254428e-05 0.0012446496 0)
(1.3131731e-05 0.0012539948 0)
(1.235709e-05 0.0012602004 0)
(1.0806332e-05 0.0012641264 0)
(8.7632867e-06 0.0012664872 0)
(6.4216781e-06 0.0012678281 0)
(3.9092139e-06 0.0012685286 0)
(1.3098102e-06 0.0012688232 0)
(-1.3164469e-06 0.0012688227 0)
(-3.9156989e-06 0.001268527 0)
(-6.4278656e-06 0.0012678255 0)
(-8.7690465e-06 0.0012664837 0)
(-1.0811545e-05 0.0012641219 0)
(-1.2361595e-05 0.001260195 0)
(-1.3134965e-05 0.0012539886 0)
(-1.2545641e-05 0.0012446427 0)
(-9.3988044e-06 0.0012312849 0)
(-7.6378315e-06 0.0012130326 0)
(7.8275661e-06 0.0014458991 0)
(9.6423472e-06 0.0014674647 0)
(1.2735971e-05 0.0014830406 0)
(1.3238274e-05 0.0014938747 0)
(1.2394439e-05 0.0015010539 0)
(1.0798582e-05 0.0015055996 0)
(8.7331262e-06 0.0015083428 0)
(6.3874627e-06 0.0015099098 0)
(3.8837861e-06 0.0015107345 0)
(1.3006033e-06 0.0015110836 0)
(-1.3069982e-06 0.001511083 0)
(-3.8900262e-06 0.0015107328 0)
(-6.3934208e-06 0.0015099071 0)
(-8.738687e-06 0.001508339 0)
(-1.0803619e-05 0.0015055948 0)
(-1.2398799e-05 0.0015010482 0)
(-1.3241342e-05 0.001493868 0)
(-1.2737273e-05 0.0014830331 0)
(-9.6432101e-06 0.0014674567 0)
(-7.8269763e-06 0.0014458877 0)
(8.0281558e-06 0.0016806723 0)
(9.8753123e-06 0.0017058035 0)
(1.2901722e-05 0.0017236341 0)
(1.3339115e-05 0.0017359507 0)
(1.2446286e-05 0.0017440901 0)
(1.0816318e-05 0.0017492403 0)
(8.7304332e-06 0.001752351 0)
(6.3763199e-06 0.0017541321 0)
(3.8733502e-06 0.0017550724 0)
(1.2965542e-06 0.0017554716 0)
(-1.3027401e-06 0.0017554709 0)
(-3.8793954e-06 0.0017550702 0)
(-6.3820908e-06 0.0017541284 0)
(-8.7358162e-06 0.0017523459 0)
(-1.0821204e-05 0.0017492338 0)
(-1.2450532e-05 0.0017440823 0)
(-1.3342215e-05 0.0017359418 0)
(-1.2903215e-05 0.001723624 0)
(-9.8768576e-06 0.0017057924 0)
(-8.0284712e-06 0.0016806569 0)
(7.9193717e-06 0.0019167252 0)
(9.7955076e-06 0.0019456185 0)
(1.2939502e-05 0.0019657529 0)
(1.3395801e-05 0.0019795747 0)
(1.2493182e-05 0.0019886832 0)
(1.0847701e-05 0.0019944372 0)
(8.7473346e-06 0.0019979099 0)
(6.3831724e-06 0.0019998981 0)
(3.8750603e-06 0.0020009485 0)
(1.2965799e-06 0.0020013948 0)
(-1.3031825e-06 0.002001394 0)
(-3.8815093e-06 0.0020009462 0)
(-6.3893331e-06 0.0019998943 0)
(-8.7530757e-06 0.0019979045 0)
(-1.0852913e-05 0.0019944306 0)
(-1.2497741e-05 0.0019886752 0)
(-1.3399172e-05 0.0019795656 0)
(-1.2941582e-05 0.0019657429 0)
(-9.7985185e-06 0.0019456075 0)
(-7.9211786e-06 0.0019167093 0)
(7.6360838e-06 0.0021538715 0)
(9.5228863e-06 0.0021860033 0)
(1.2906645e-05 0.0022084462 0)
(1.3436578e-05 0.0022238463 0)
(1.2546105e-05 0.0022339718 0)
(1.0894093e-05 0.0022403538 0)
(8.7814506e-06 0.0022441988 0)
(6.4050506e-06 0.0022463981 0)
(3.8869043e-06 0.0022475595 0)
(1.3003583e-06 0.0022480531 0)
(-1.3067518e-06 0.0022480527 0)
(-3.893132e-06 0.0022475582 0)
(-6.4109759e-06 0.0022463959 0)
(-8.7869497e-06 0.0022441959 0)
(-1.0899047e-05 0.0022403501 0)
(-1.2550359e-05 0.0022339675 0)
(-1.3439617e-05 0.0022238415 0)
(-1.2908057e-05 0.0022084412 0)
(-9.5247619e-06 0.0021859971 0)
(-7.6368604e-06 0.0021538542 0)
(7.7113429e-06 0.0023916411 0)
(9.5905194e-06 0.0024265797 0)
(1.3007042e-05 0.0024513342 0)
(1.3550884e-05 0.0024683644 0)
(1.2649322e-05 0.002479538 0)
(1.0978212e-05 0.0024865611 0)
(8.8442205e-06 0.0024907817 0)
(6.4473149e-06 0.0024931904 0)
(3.9110481e-06 0.0024944603 0)
(1.3084953e-06 0.0024949996 0)
(-1.313816e-06 0.0024949993 0)
(-3.9162027e-06 0.0024944593 0)
(-6.4522043e-06 0.0024931887 0)
(-8.8487169e-06 0.0024907793 0)
(-1.0982174e-05 0.0024865582 0)
(-1.2652529e-05 0.0024795346 0)
(-1.3552528e-05 0.0024683606 0)
(-1.3006434e-05 0.0024513302 0)
(-9.5891369e-06 0.0024265744 0)
(-7.708512e-06 0.0023916252 0)
(7.935472e-06 0.0026301742 0)
(9.8257943e-06 0.0026681702 0)
(1.3240252e-05 0.0026952684 0)
(1.3749717e-05 0.0027139247 0)
(1.2806671e-05 0.0027261404 0)
(1.1097645e-05 0.0027337965 0)
(8.9300303e-06 0.0027383821 0)
(6.5038465e-06 0.0027409899 0)
(3.9428573e-06 0.00274236 0)
(1.3189783e-06 0.0027429401 0)
(-1.3234226e-06 0.0027429392 0)
(-3.9471487e-06 0.0027423573 0)
(-6.5078973e-06 0.0027409854 0)
(-8.933717e-06 0.0027383759 0)
(-1.1100845e-05 0.0027337886 0)
(-1.2809171e-05 0.002726131 0)
(-1.3750768e-05 0.0027139138 0)
(-1.3238795e-05 0.0026952561 0)
(-9.8230601e-06 0.0026681562 0)
(-7.931432e-06 0.0026301559 0)
(8.2193391e-06 0.0028697233 0)
(1.0135587e-05 0.0029110341 0)
(1.3531318e-05 0.0029404904 0)
(1.399418e-05 0.0029607643 0)
(1.2996328e-05 0.0029740207 0)
(1.1236147e-05 0.0029823082 0)
(9.0249442e-06 0.0029872539 0)
(6.5637014e-06 0.0029900554 0)
(3.9751164e-06 0.0029915213 0)
(1.3287921e-06 0.0029921395 0)
(-1.3341686e-06 0.0029921382 0)
(-3.9803431e-06 0.0029915172 0)
(-6.5686737e-06 0.0029900486 0)
(-9.0295409e-06 0.0029872444 0)
(-1.1240257e-05 0.0029822962 0)
(-1.2999777e-05 0.0029740063 0)
(-1.3996214e-05 0.0029607476 0)
(-1.353142e-05 0.0029404713 0)
(-1.0135695e-05 0.0029110125 0)
(-8.2179372e-06 0.0028696974 0)
(8.5515378e-06 0.0031096796 0)
(1.0505298e-05 0.003154473 0)
(1.3877829e-05 0.0031863293 0)
(1.428983e-05 0.003208234 0)
(1.3226268e-05 0.0032225374 0)
(1.1398729e-05 0.0032314572 0)
(9.1307522e-06 0.0032367588 0)
(6.6272955e-06 0.0032397489 0)
(4.007963e-06 0.0032413065 0)
(1.3385474e-06 0.0032419607 0)
(-1.3445424e-06 0.0032419594 0)
(-4.0138166e-06 0.0032413028 0)
(-6.6329101e-06 0.0032397427 0)
(-9.1360174e-06 0.0032367503 0)
(-1.1403555e-05 0.0032314463 0)
(-1.3230528e-05 0.0032225244 0)
(-1.4292988e-05 0.0032082189 0)
(-1.3879449e-05 0.0031863123 0)
(-1.0508086e-05 0.003154454 0)
(-8.5528364e-06 0.003109657 0)
(8.9457869e-06 0.0033497743 0)
(1.094726e-05 0.0033982254 0)
(1.427115e-05 0.0034325183 0)
(1.4621373e-05 0.0034560531 0)
(1.3478195e-05 0.0034713953 0)
(1.1567381e-05 0.0034809339 0)
(9.2311847e-06 0.0034865755 0)
(6.6816843e-06 0.0034897393 0)
(4.0329575e-06 0.0034913777 0)
(1.3452678e-06 0.0034920616 0)
(-1.351489e-06 0.0034920604 0)
(-4.0390423e-06 0.0034913743 0)
(-6.6875367e-06 0.0034897337 0)
(-9.2367056e-06 0.0034865678 0)
(-1.1572489e-05 0.0034809242 0)
(-1.3482764e-05 0.0034713838 0)
(-1.4624688e-05 0.0034560399 0)
(-1.4272932e-05 0.0034325037 0)
(-1.0950168e-05 0.003398209 0)
(-8.9470413e-06 0.0033497505 0)
(9.1418036e-06 0.0035907928 0)
(1.1243035e-05 0.0036426502 0)
(1.4646982e-05 0.0036793619 0)
(1.495613e-05 0.0037045259 0)
(1.3727291e-05 0.0037208916 0)
(1.1719581e-05 0.0037310223 0)
(9.306016e-06 0.003736974 0)
(6.7102823e-06 0.0037402846 0)
(4.0392582e-06 0.0037419843 0)
(1.3451355e-06 0.0037426876 0)
(-1.3513729e-06 0.0037426865 0)
(-4.0453662e-06 0.0037419809 0)
(-6.7161633e-06 0.0037402792 0)
(-9.3115652e-06 0.0037369665 0)
(-1.1724708e-05 0.0037310129 0)
(-1.3731795e-05 0.0037208804 0)
(-1.4959255e-05 0.0037045133 0)
(-1.4647754e-05 0.003679348 0)
(-1.12436e-05 0.0036426345 0)
(-9.1405423e-06 0.0035907701 0)
(9.4992808e-06 0.0038336404 0)
(1.1711355e-05 0.0038888115 0)
(1.5116952e-05 0.0039279529 0)
(1.5311778e-05 0.0039547352 0)
(1.3951504e-05 0.0039720895 0)
(1.1819598e-05 0.0039827628 0)
(9.3185193e-06 0.0039889725 0)
(6.682877e-06 0.0039923865 0)
(4.0074582e-06 0.0039941162 0)
(1.3314323e-06 0.003994824 0)
(-1.3376526e-06 0.0039948224 0)
(-4.0135203e-06 0.0039941114 0)
(-6.6887032e-06 0.0039923786 0)
(-9.3239938e-06 0.0039889616 0)
(-1.1824608e-05 0.0039827491 0)
(-1.3955842e-05 0.0039720732 0)
(-1.531445e-05 0.0039547167 0)
(-1.5117084e-05 0.0039279324 0)
(-1.1710883e-05 0.0038887891 0)
(-9.496932e-06 0.003833615 0)
(1.0139118e-05 0.0040794207 0)
(1.2456905e-05 0.0041381812 0)
(1.5692158e-05 0.0041797863 0)
(1.5657082e-05 0.0042081479 0)
(1.4100939e-05 0.0042264328 0)
(1.1810132e-05 0.0042375809 0)
(9.2143202e-06 0.0042439808 0)
(6.5559626e-06 0.0042474423 0)
(3.9098596e-06 0.0042491631 0)
(1.2941963e-06 0.0042498565 0)
(-1.3021573e-06 0.0042498546 0)
(-3.9176597e-06 0.0042491574 0)
(-6.5634694e-06 0.0042474328 0)
(-9.221389e-06 0.0042439678 0)
(-1.1816629e-05 0.0042375646 0)
(-1.4106647e-05 0.0042264134 0)
(-1.5661202e-05 0.0042081257 0)
(-1.5693718e-05 0.0041797617 0)
(-1.2458467e-05 0.0041381546 0)
(-1.0138797e-05 0.0040793915 0)
(1.089309e-05 0.0043286482 0)
(1.33207e-05 0.0043910398 0)
(1.6299083e-05 0.0044350737 0)
(1.5942871e-05 0.0044649438 0)
(1.4120447e-05 0.0044840756 0)
(1.1631548e-05 0.0044956047 0)
(8.93688e-06 0.0045021027 0)
(6.2839251e-06 0.0045055369 0)
(3.7178535e-06 0.0045071955 0)
(1.2246536e-06 0.00450785 0)
(-1.2336063e-06 0.0045078484 0)
(-3.726617e-06 0.0045071906 0)
(-6.2923339e-06 0.0045055289 0)
(-8.9447726e-06 0.0045020917 0)
(-1.1638769e-05 0.004495591 0)
(-1.412677e-05 0.0044840594 0)
(-1.5947291e-05 0.0044649255 0)
(-1.6301026e-05 0.0044350536 0)
(-1.3323095e-05 0.0043910176 0)
(-1.089353e-05 0.0043286211 0)
(1.1446951e-05 0.004581767 0)
(1.4016454e-05 0.004647783 0)
(1.6795982e-05 0.0046942149 0)
(1.6054413e-05 0.0047254963 0)
(1.3897975e-05 0.0047453438 0)
(1.1174798e-05 0.0047571051 0)
(8.3887269e-06 0.0047635616 0)
(5.7893986e-06 0.0047668543 0)
(3.3823201e-06 0.0047683678 0)
(1.1062832e-06 0.0047689445 0)
(-1.1157436e-06 0.004768943 0)
(-3.3915696e-06 0.0047683633 0)
(-5.7982352e-06 0.0047668468 0)
(-8.3969512e-06 0.0047635514 0)
(-1.1182243e-05 0.0047570925 0)
(-1.3904401e-05 0.0047453289 0)
(-1.6058881e-05 0.0047254794 0)
(-1.6797298e-05 0.0046941965 0)
(-1.4017574e-05 0.0046477626 0)
(-1.1446176e-05 0.0045817412 0)
(1.2112209e-05 0.0048401495 0)
(1.4789836e-05 0.0049100003 0)
(1.7198798e-05 0.0049588415 0)
(1.590846e-05 0.0049914141 0)
(1.3304906e-05 0.0050117994 0)
(1.0297465e-05 0.0050235957 0)
(7.4359694e-06 0.0050298234 0)
(4.9643184e-06 0.0050328162 0)
(2.8338926e-06 0.0050340697 0)
(9.1526212e-07 0.0050345135 0)
(-9.252202e-07 0.0050345117 0)
(-2.843601e-06 0.0050340644 0)
(-4.9735457e-06 0.0050328074 0)
(-7.4444568e-06 0.0050298112 0)
(-1.0305029e-05 0.0050235806 0)
(-1.3311301e-05 0.0050117816 0)
(-1.5912474e-05 0.0049913939 0)
(-1.7199556e-05 0.0049588193 0)
(-1.4790402e-05 0.004909976 0)
(-1.2110809e-05 0.004840121 0)
(1.2948101e-05 0.0051056124 0)
(1.5656774e-05 0.0051793993 0)
(1.7420534e-05 0.0052305651 0)
(1.5354704e-05 0.0052642319 0)
(1.2157304e-05 0.005284906 0)
(8.8051002e-06 0.0052964667 0)
(5.8968609e-06 0.0053022144 0)
(3.6612064e-06 0.0053046951 0)
(1.9783013e-06 0.0053055358 0)
(6.1899222e-07 0.0053057738 0)
(-6.304433e-07 0.0053057717 0)
(-1.9894753e-06 0.0053055299 0)
(-3.6718412e-06 0.0053046851 0)
(-5.9065781e-06 0.0053022008 0)
(-8.8137155e-06 0.0052964497 0)
(-1.2164584e-05 0.0052848859 0)
(-1.5359681e-05 0.0052642091 0)
(-1.742195e-05 0.0052305397 0)
(-1.5658297e-05 0.005179371 0)
(-1.2947665e-05 0.0051055775 0)
(1.3660603e-05 0.0053792956 0)
(1.6291711e-05 0.0054571504 0)
(1.721973e-05 0.0055105469 0)
(1.4152845e-05 0.0055450381 0)
(1.019288e-05 0.005565661 0)
(6.4348525e-06 0.0055766132 0)
(3.5303021e-06 0.0055815252 0)
(1.6841237e-06 0.005583226 0)
(6.9171534e-07 0.0055834551 0)
(1.7665624e-07 0.0055833861 0)
(-1.8935539e-07 0.0055833841 0)
(-7.0409081e-07 0.0055834492 0)
(-1.6960337e-06 0.0055832163 0)
(-3.5410483e-06 0.005581512 0)
(-6.4442903e-06 0.0055765967 0)
(-1.0200766e-05 0.0055656417 0)
(-1.4157938e-05 0.005545016 0)
(-1.7221194e-05 0.0055105224 0)
(-1.6293611e-05 0.0054571229 0)
(-1.3660247e-05 0.0053792605 0)
(1.4316864e-05 0.0056629949 0)
(1.6694143e-05 0.00574516 0)
(1.6405631e-05 0.005800676 0)
(1.1987008e-05 0.0058356098 0)
(7.0421718e-06 0.0058556915 0)
(2.8025927e-06 0.0058655309 0)
(8.8211659e-09 0.005869142 0)
(-1.205058e-06 0.005869678 0)
(-1.1895087e-06 0.005869005 0)
(-4.7239459e-07 0.0058684838 0)
(4.5846287e-07 0.0058684816 0)
(1.1759999e-06 0.0058689981 0)
(1.1923326e-06 0.0058696669 0)
(-2.0405548e-08 0.0058691269 0)
(-2.8127026e-06 0.0058655121 0)
(-7.0505527e-06 0.0058556693 0)
(-1.1992714e-05 0.0058355845 0)
(-1.6407057e-05 0.005800648 0)
(-1.6695826e-05 0.0057451287 0)
(-1.4316399e-05 0.0056629563 0)
(1.4812373e-05 0.0059592054 0)
(1.6658472e-05 0.0060457926 0)
(1.4620641e-05 0.006103207 0)
(8.3790246e-06 0.0061380349 0)
(2.1928685e-06 0.0061569689 0)
(-2.5743404e-06 0.0061649964 0)
(-5.1224333e-06 0.0061666638 0)
(-5.4004691e-06 0.006165473 0)
(-3.9174013e-06 0.0061635077 0)
(-1.4115103e-06 0.0061623399 0)
(1.3952117e-06 0.0061623373 0)
(3.9016048e-06 0.0061634999 0)
(5.3856454e-06 0.00616546 0)
(5.1090696e-06 0.0061666461 0)
(2.5628199e-06 0.0061649745 0)
(-2.2025737e-06 0.0061569431 0)
(-8.3853965e-06 0.0061380055 0)
(-1.4622248e-05 0.0061031743 0)
(-1.6660225e-05 0.0060457563 0)
(-1.4811659e-05 0.0059591613 0)
(1.4989511e-05 0.0062702522 0)
(1.5908471e-05 0.0063614297 0)
(1.137364e-05 0.0064204127 0)
(2.7233861e-06 0.0064544912 0)
(-5.0254245e-06 0.006471386 0)
(-1.0434235e-05 0.006476625 0)
(-1.2527352e-05 0.006475439 0)
(-1.1407766e-05 0.0064717815 0)
(-7.8008095e-06 0.006468024 0)
(-2.7476426e-06 0.0064659438 0)
(2.7288917e-06 0.0064659409 0)
(7.7825744e-06 0.0064680154 0)
(1.1390705e-05 0.0064717673 0)
(1.2512024e-05 0.0064754196 0)
(1.0421007e-05 0.0064766007 0)
(5.014459e-06 0.0064713574 0)
(-2.7310904e-06 0.0064544589 0)
(-1.1375799e-05 0.006420377 0)
(-1.5910093e-05 0.0063613907 0)
(-1.4988785e-05 0.0062702077 0)
(1.4796899e-05 0.0065996535 0)
(1.4158956e-05 0.0066956288 0)
(6.0976442e-06 0.0067556241 0)
(-5.8162401e-06 0.0067880225 0)
(-1.5662188e-05 0.006801603 0)
(-2.1783098e-05 0.0068027377 0)
(-2.3087946e-05 0.0067974769 0)
(-1.9900067e-05 0.0067903692 0)
(-1.326639e-05 0.0067841363 0)
(-4.6304139e-06 0.0067807841 0)
(4.6085098e-06 0.0067807808 0)
(1.3245017e-05 0.0067841265 0)
(1.9880053e-05 0.0067903529 0)
(2.3069965e-05 0.0067974545 0)
(2.1767597e-05 0.0068027096 0)
(1.5649471e-05 0.0068015697 0)
(5.807773e-06 0.0067879849 0)
(-6.1003429e-06 0.0067555829 0)
(-1.4160942e-05 0.0066955846 0)
(-1.4796261e-05 0.0065996066 0)
(1.4125473e-05 0.0069513212 0)
(1.0945569e-05 0.0070525682 0)
(-2.2090175e-06 0.0071127265 0)
(-1.8508884e-05 0.0071420106 0)
(-3.1106312e-05 0.0071505429 0)
(-3.7988124e-05 0.0071457746 0)
(-3.7995639e-05 0.0071347935 0)
(-3.1788114e-05 0.007122914 0)
(-2.0885488e-05 0.007113294 0)
(-7.2533207e-06 0.007108203 0)
(7.2272736e-06 0.0071081993 0)
(2.0860002e-05 0.0071132831 0)
(3.1764164e-05 0.0071228958 0)
(3.7974054e-05 0.0071347685 0)
(3.7969375e-05 0.0071457432 0)
(3.1090863e-05 0.0071505057 0)
(1.8497902e-05 0.0071419686 0)
(2.2045892e-06 0.0071126806 0)
(-1.094865e-05 0.0070525196 0)
(-1.4126029e-05 0.0069512728 0)
(1.2890161e-05 0.0073302524 0)
(5.603711e-06 0.0074372088 0)
(-1.5067129e-05 0.0074964876 0)
(-3.7213514e-05 0.0075205881 0)
(-5.3341673e-05 0.007521578 0)
(-6.0924012e-05 0.0075084039 0)
(-5.8845352e-05 0.0074894941 0)
(-4.8268078e-05 0.0074711003 0)
(-3.1392359e-05 0.0074569151 0)
(-1.0864043e-05 0.0074494883 0)
(1.0833215e-05 0.0074494844 0)
(3.1362181e-05 0.0074569033 0)
(4.8239621e-05 0.0074710808 0)
(5.8819594e-05 0.007489467 0)
(6.0901619e-05 0.0075083699 0)
(5.3323305e-05 0.0075215377 0)
(3.720083e-05 0.0075205427 0)
(1.5061235e-05 0.0074964381 0)
(-5.60792e-06 0.0074371573 0)
(-1.2891469e-05 0.0073302031 0)
(1.0453206e-05 0.0077431132 0)
(-3.1023713e-06 0.007855471 0)
(-3.4597909e-05 0.0079125782 0)
(-6.4705069e-05 0.0079285486 0)
(-8.5206463e-05 0.0079184535 0)
(-9.3157667e-05 0.0078934231 0)
(-8.7725797e-05 0.0078636469 0)
(-7.0861111e-05 0.0078365038 0)
(-4.5705044e-05 0.0078162754 0)
(-1.5769555e-05 0.0078057736 0)
(1.573309e-05 0.0078057693 0)
(4.5669418e-05 0.0078162624 0)
(7.0827417e-05 0.0078364824 0)
(8.7695077e-05 0.0078636173 0)
(9.3130846e-05 0.0078933856 0)
(8.5184349e-05 0.0079184091 0)
(6.4688937e-05 0.0079284986 0)
(3.4589905e-05 0.0079125243 0)
(3.097135e-06 0.0078554159 0)
(-1.0455537e-05 0.0077430598 0)
(5.2852362e-06 0.0081979822 0)
(-1.7701981e-05 0.008315764 0)
(-6.3917381e-05 0.0083683354 0)
(-0.00010488884 0.0083717003 0)
(-0.00013060989 0.0083454392 0)
(-0.00013808502 0.0083038439 0)
(-0.00012727375 0.0082593698 0)
(-0.00010140436 0.0082206958 0)
(-6.4900769e-05 0.00819265 0)
(-2.2324195e-05 0.0081782076 0)
(2.2281027e-05 0.0081782028 0)
(6.4858596e-05 0.0081926357 0)
(0.00010136433 0.0082206721 0)
(0.00012723694 0.0082593367 0)
(0.00013805277 0.0083038019 0)
(0.00013058346 0.0083453892 0)
(0.00010487031 0.0083716438 0)
(6.3908328e-05 0.0083682742 0)
(1.7693925e-05 0.0083157015 0)
(-5.289913e-06 0.0081979226 0)
(-3.8694299e-06 0.0087054455 0)
(-4.1553067e-05 0.0088299445 0)
(-0.00010845403 0.0088734957 0)
(-0.00016371401 0.0088571068 0)
(-0.00019497146 0.0088073083 0)
(-0.00020007724 0.0087428546 0)
(-0.00018066458 0.0086788887 0)
(-0.00014197425 0.008625378 0)
(-9.0132699e-05 0.0085875318 0)
(-3.0896767e-05 0.0085682197 0)
(3.0845752e-05 0.0085682145 0)
(9.0082725e-05 0.0085875163 0)
(0.00014192647 0.0086253519 0)
(0.00018062027 0.0086788521 0)
(0.00020003802 0.0087428075 0)
(0.00019493889 0.0088072517 0)
(0.00016368984 0.0088570423 0)
(0.00010844126 0.0088734255 0)
(4.1543552e-05 0.008829872 0)
(3.8649946e-06 0.0087053789 0)
(-1.8935545e-05 0.0092814204 0)
(-8.0343373e-05 0.0094134423 0)
(-0.00017713984 0.0094400175 0)
(-0.00025000857 0.0093925633 0)
(-0.00028553875 0.0093086908 0)
(-0.00028437917 0.0092132974 0)
(-0.00025134693 0.0091242425 0)
(-0.00019460807 0.0090523771 0)
(-0.0001224185 0.0090028135 0)
(-4.1794218e-05 0.008977793 0)
(4.1734422e-05 0.0089777874 0)
(0.00012235962 0.0090027968 0)
(0.00019455129 0.0090523488 0)
(0.00025129351 0.0091242024 0)
(0.00028433116 0.0092132452 0)
(0.00028549851 0.0093086271 0)
(0.00024997892 0.0093924893 0)
(0.00017712308 0.0094399356 0)
(8.0332054e-05 0.0094133576 0)
(1.8932801e-05 0.0092813414 0)
(-4.4702829e-05 0.0099496532 0)
(-0.00014535612 0.01008716 0)
(-0.00028439865 0.010081671 0)
(-0.00037654862 0.0099852119 0)
(-0.00041146552 0.0098526987 0)
(-0.00039660947 0.0097166518 0)
(-0.00034230578 0.0095967795 0)
(-0.00026061714 0.0095036187 0)
(-0.00016220485 0.0094410283 0)
(-5.5112726e-05 0.0094098213 0)
(5.5043387e-05 0.0094098155 0)
(0.00016213623 0.0094410107 0)
(0.00026055027 0.0095035887 0)
(0.00034224193 0.0095967364 0)
(0.00039655063 0.0097165948 0)
(0.00041141433 0.0098526272 0)
(0.00037650777 0.0099851267 0)
(0.00028437385 0.010081575 0)
(0.00014534198 0.01008706 0)
(4.4702328e-05 0.0099495598 0)
(-9.1445529e-05 0.010749067 0)
(-0.00025883467 0.010879982 0)
(-0.00045430663 0.010811986 0)
(-0.00056116735 0.010638227 0)
(-0.00058316178 0.010438308 0)
(-0.00054135486 0.010251468 0)
(-0.00045455006 0.010096503 0)
(-0.00033942864 0.0099809984 0)
(-0.0002086913 0.0099055 0)
(-7.0515188e-05 0.009868384 0)
(7.043638e-05 0.0098683783 0)
(0.00020861288 0.0099054827 0)
(0.00033935113 0.0099809686 0)
(0.00045447441 0.010096459 0)
(0.00054128277 0.010251408 0)
(0.00058309623 0.010438229 0)
(0.00056111319 0.01063813 0)
(0.00045426991 0.010811871 0)
(0.00025881353 0.010879858 0)
(9.1447016e-05 0.010748951 0)
(-0.00018376981 0.011754785 0)
(-0.00046737578 0.011830188 0)
(-0.00072718932 0.011638254 0)
(-0.00082715856 0.011346529 0)
(-0.00080988371 0.01105991 0)
(-0.00071935343 0.010816485 0)
(-0.00058484673 0.010627011 0)
(-0.00042709255 0.010491998 0)
(-0.00025900093 0.010406324 0)
(-8.6961775e-05 0.010364922 0)
(8.6875182e-05 0.010364917 0)
(0.00025891413 0.010406308 0)
(0.00042700524 0.010491971 0)
(0.00058475897 0.01062697 0)
(0.00071926586 0.010816427 0)
(0.00080979835 0.011059831 0)
(0.00082707936 0.011346424 0)
(0.00072712694 0.011638121 0)
(0.00046733584 0.011830033 0)
(0.00018376668 0.011754635 0)
(-0.00038755493 0.013073002 0)
(-0.00087461203 0.012965168 0)
(-0.001167525 0.012546947 0)
(-0.0011984397 0.01210508 0)
(-0.001092396 0.011737668 0)
(-0.00092176569 0.01145596 0)
(-0.00072265155 0.011250282 0)
(-0.00051477559 0.011110705 0)
(-0.00030737624 0.0110245 0)
(-0.00010243919 0.01098363 0)
(0.00010234851 0.010983626 0)
(0.00030728457 0.01102449 0)
(0.00051468169 0.011110687 0)
(0.00072255414 0.011250253 0)
(0.00092166339 0.011455915 0)
(0.0010922883 0.011737602 0)
(0.0011983291 0.012104983 0)
(0.001167421 0.012546808 0)
(0.00087452986 0.012964984 0)
(0.00038753273 0.013072812 0)
(-0.00086517105 0.014653521 0)
(-0.0016702583 0.014137098 0)
(-0.0018516464 0.013294705 0)
(-0.0016689062 0.012657474 0)
(-0.001396205 0.012242223 0)
(-0.0011129509 0.011973726 0)
(-0.0008391748 0.01179983 0)
(-0.0005826307 0.011693206 0)
(-0.00034269626 0.011627777 0)
(-0.00011333344 0.011595608 0)
(0.00011324526 0.011595609 0)
(0.00034260621 0.011627778 0)
(0.00058253672 0.011693208 0)
(0.00083907399 0.011799828 0)
(0.0011128388 0.011973714 0)
(0.0013960766 0.012242192 0)
(0.0016687563 0.012657409 0)
(0.0018514758 0.013294585 0)
(0.0016701016 0.014136911 0)
(0.00086509982 0.014653332 0)
(-0.0022020386 0.016929323 0)
(-0.0031993403 0.014642441 0)
(-0.0030473835 0.012031127 0)
(-0.0023410267 0.0098361574 0)
(-0.0017378428 0.0082829281 0)
(-0.0012827441 0.0072631782 0)
(-0.00091634502 0.0065944889 0)
(-0.00061756238 0.0061698977 0)
(-0.00036085838 0.0059181288 0)
(-0.0001195494 0.0058009837 0)
(0.0001194718 0.0058009707 0)
(0.00036077863 0.0059180888 0)
(0.00061747696 0.0061698293 0)
(0.00091624823 0.0065943941 0)
(0.001282627 0.0072630532 0)
(0.0017376941 0.0082827653 0)
(0.0023408311 0.0098359484 0)
(0.0030471375 0.012030878 0)
(0.0031991282 0.014642214 0)
(0.0022018409 0.016929046 0)
(-0.0094374353 0.03396669 0)
(-0.010182556 0.025798217 0)
(-0.0094463617 0.028361499 0)
(-0.0069511428 0.031440042 0)
(-0.0048531264 0.033744822 0)
(-0.0033706147 0.035334093 0)
(-0.0022966726 0.036317409 0)
(-0.0014883357 0.036974462 0)
(-0.00083845788 0.037330366 0)
(-0.00027101771 0.03750249 0)
(0.00027084647 0.037502526 0)
(0.00083828158 0.037330471 0)
(0.0014881538 0.036974637 0)
(0.0022964773 0.036317665 0)
(0.0033703845 0.035334441 0)
(0.0048528363 0.033745283 0)
(0.006950775 0.031440645 0)
(0.0094459864 0.02836227 0)
(0.010182314 0.025799073 0)
(0.009436837 0.033966778 0)
)
;

boundaryField
{
    Wall
    {
        type            fixedValue;
        value           uniform (0 0 0);
    }
    frontAndBack
    {
        type            empty;
    }
    atmosphere
    {
        type            pressureInletOutletVelocity;
        value           nonuniform List<vector> 
20
(
(-0.0094374353 0.03396669 0)
(-0.010182556 0.025798217 0)
(-0.0094463617 0.028361499 0)
(-0.0069511428 0.031440042 0)
(-0.0048531264 0.033744822 0)
(-0.0033706147 0.035334093 0)
(-0.0022966726 0.036317409 0)
(-0.0014883357 0.036974462 0)
(-0.00083845788 0.037330366 0)
(-0.00027101771 0.03750249 0)
(0.00027084647 0.037502526 0)
(0.00083828158 0.037330471 0)
(0.0014881538 0.036974637 0)
(0.0022964773 0.036317665 0)
(0.0033703845 0.035334441 0)
(0.0048528363 0.033745283 0)
(0.006950775 0.031440645 0)
(0.0094459864 0.02836227 0)
(0.010182314 0.025799073 0)
(0.009436837 0.033966778 0)
)
;
    }
}


// ************************************************************************* //
