/*--------------------------------*- C++ -*----------------------------------*\
| =========                 |                                                 |
| \\      /  F ield         | OpenFOAM: The Open Source CFD Toolbox           |
|  \\    /   O peration     | Version:  3.0.1                                 |
|   \\  /    A nd           | Web:      www.OpenFOAM.org                      |
|    \\/     M anipulation  |                                                 |
\*---------------------------------------------------------------------------*/
FoamFile
{
    version     2.0;
    format      ascii;
    class       volScalarField;
    location    "43";
    object      weight0;
}
// * * * * * * * * * * * * * * * * * * * * * * * * * * * * * * * * * * * * * //

dimensions      [0 0 0 0 0 0 0];

internalField   nonuniform List<scalar> 
800
(
6.9111826e+09
6.91116e+09
6.9110609e+09
6.9110061e+09
6.910977e+09
6.9109621e+09
6.9109544e+09
6.9109507e+09
6.9109492e+09
6.9109486e+09
6.9109486e+09
6.9109492e+09
6.9109508e+09
6.9109544e+09
6.910962e+09
6.910977e+09
6.9110061e+09
6.9110608e+09
6.91116e+09
6.9111826e+09
6.7249401e+09
6.750274e+09
6.7556474e+09
6.7569197e+09
6.7571783e+09
6.7572295e+09
6.757259e+09
6.757295e+09
6.7573277e+09
6.7573466e+09
6.7573465e+09
6.7573276e+09
6.7572948e+09
6.7572588e+09
6.7572291e+09
6.7571779e+09
6.7569191e+09
6.7556466e+09
6.7502731e+09
6.7249385e+09
6.678927e+09
6.7065603e+09
6.7142543e+09
6.7157718e+09
6.7161242e+09
6.7162628e+09
6.7163795e+09
6.7164897e+09
6.7165749e+09
6.7166211e+09
6.716621e+09
6.7165749e+09
6.7164896e+09
6.7163793e+09
6.7162624e+09
6.7161238e+09
6.7157713e+09
6.7142538e+09
6.7065597e+09
6.6789258e+09
6.670467e+09
6.6941982e+09
6.7016832e+09
6.7031766e+09
6.7037034e+09
6.7039934e+09
6.7042054e+09
6.7043673e+09
6.7044779e+09
6.7045345e+09
6.7045344e+09
6.7044778e+09
6.7043671e+09
6.7042052e+09
6.7039931e+09
6.7037031e+09
6.7031762e+09
6.7016827e+09
6.6941976e+09
6.670466e+09
6.5186082e+09
6.5495679e+09
6.5579697e+09
6.56025e+09
6.5614989e+09
6.5621335e+09
6.562462e+09
6.5626322e+09
6.5627192e+09
6.5627564e+09
6.5627562e+09
6.5627188e+09
6.5626316e+09
6.5624613e+09
6.5621326e+09
6.5614978e+09
6.5602487e+09
6.5579682e+09
6.5495662e+09
6.5186056e+09
6.03913e+09
6.1043523e+09
6.1189885e+09
6.1236857e+09
6.1267651e+09
6.1281656e+09
6.1287191e+09
6.128886e+09
6.1289107e+09
6.1289011e+09
6.1289009e+09
6.1289098e+09
6.1288846e+09
6.1287172e+09
6.1281632e+09
6.1267622e+09
6.1236822e+09
6.1189844e+09
6.1043475e+09
6.0391234e+09
5.0352483e+09
5.1798584e+09
5.211735e+09
5.2213831e+09
5.2280988e+09
5.2310164e+09
5.2320544e+09
5.2322806e+09
5.23224e+09
5.2321716e+09
5.232171e+09
5.2322381e+09
5.2322776e+09
5.2320502e+09
5.2310113e+09
5.2280926e+09
5.2213756e+09
5.2117265e+09
5.1798485e+09
5.0352351e+09
3.2016874e+09
3.514728e+09
3.5881174e+09
3.6073984e+09
3.6212902e+09
3.6273745e+09
3.6295876e+09
3.6301477e+09
3.6301345e+09
3.6300349e+09
3.6300337e+09
3.630131e+09
3.6301419e+09
3.6295796e+09
3.6273645e+09
3.6212781e+09
3.6073843e+09
3.5881014e+09
3.5147098e+09
3.2016634e+09
656588.76
3.121976e+08
5.1485856e+08
5.6078762e+08
5.9373134e+08
6.0949666e+08
6.1588425e+08
6.1810019e+08
6.1862601e+08
6.1867897e+08
6.1867641e+08
6.1861822e+08
6.1808747e+08
6.1586657e+08
6.0947449e+08
5.9370475e+08
5.6075701e+08
5.1482437e+08
3.1215868e+08
656792.32
1.4323303e+09
8.3869671e+08
6.9463106e+08
6.6672251e+08
6.4889967e+08
6.3956415e+08
6.3522964e+08
6.3352329e+08
6.3299516e+08
6.3285296e+08
6.3285435e+08
6.329994e+08
6.3353025e+08
6.3523927e+08
6.3957634e+08
6.4891415e+08
6.6673927e+08
6.946498e+08
8.3871943e+08
1.432367e+09
1.1179887e+10
8.5111578e+09
7.6503685e+09
7.4969146e+09
7.4232896e+09
7.3793849e+09
7.3518205e+09
7.3398191e+09
7.3356176e+09
7.3341692e+09
7.3341762e+09
7.335639e+09
7.3398545e+09
7.351869e+09
7.3794464e+09
7.4233612e+09
7.4969957e+09
7.6504564e+09
8.5112553e+09
1.1180012e+10
3.4563174e+10
2.9783388e+10
2.7537741e+10
2.7177996e+10
2.7109775e+10
2.7054359e+10
2.6981226e+10
2.6946552e+10
2.6933901e+10
2.6928884e+10
2.6928898e+10
2.6933943e+10
2.6946623e+10
2.6981322e+10
2.7054481e+10
2.7109914e+10
2.7178152e+10
2.7537907e+10
2.9783564e+10
3.4563373e+10
7.6336907e+10
6.4590296e+10
6.0601444e+10
5.9998486e+10
6.0070178e+10
6.0074873e+10
5.9941867e+10
5.9874187e+10
5.9852248e+10
5.9841348e+10
5.9841366e+10
5.9852303e+10
5.987428e+10
5.994199e+10
6.0075031e+10
6.0070354e+10
5.9998681e+10
6.0601647e+10
6.4590506e+10
7.6337117e+10
1.3649817e+11
1.2101421e+11
1.1463492e+11
1.1365393e+11
1.1425298e+11
1.1452331e+11
1.1429441e+11
1.1416615e+11
1.1414061e+11
1.1411763e+11
1.1411765e+11
1.1414066e+11
1.1416624e+11
1.1429453e+11
1.1452346e+11
1.1425314e+11
1.136541e+11
1.146351e+11
1.2101439e+11
1.3649832e+11
2.1082867e+11
1.9755587e+11
1.8877086e+11
1.8732579e+11
1.892553e+11
1.9024024e+11
1.8981147e+11
1.8959075e+11
1.8958858e+11
1.8955089e+11
1.895509e+11
1.895886e+11
1.8959079e+11
1.8981151e+11
1.902403e+11
1.8925535e+11
1.8732584e+11
1.887709e+11
1.9755589e+11
2.1082864e+11
2.8980666e+11
2.8341672e+11
2.7348609e+11
2.7163621e+11
2.7572656e+11
2.7781781e+11
2.7701728e+11
2.7667707e+11
2.7673305e+11
2.7670463e+11
2.7670462e+11
2.7673301e+11
2.7667702e+11
2.770172e+11
2.7781772e+11
2.7572645e+11
2.7163607e+11
2.7348592e+11
2.8341651e+11
2.8980639e+11
3.6467412e+11
3.6702505e+11
3.578946e+11
3.5583808e+11
3.6236369e+11
3.655053e+11
3.6421233e+11
3.6373213e+11
3.6385513e+11
3.6391396e+11
3.6391391e+11
3.6385499e+11
3.6373193e+11
3.6421204e+11
3.6550496e+11
3.6236329e+11
3.5583763e+11
3.578941e+11
3.670245e+11
3.6467349e+11
4.3232275e+11
4.4337338e+11
4.3666041e+11
4.3467799e+11
4.4332495e+11
4.4706978e+11
4.4522613e+11
4.4458388e+11
4.44733e+11
4.4501378e+11
4.4501371e+11
4.4473278e+11
4.4458355e+11
4.4522566e+11
4.4706922e+11
4.4332432e+11
4.3467729e+11
4.3665965e+11
4.4337255e+11
4.3232183e+11
4.9326479e+11
5.123853e+11
5.0904077e+11
5.0748132e+11
5.1769026e+11
5.2145392e+11
5.1899461e+11
5.1815984e+11
5.1823475e+11
5.1890529e+11
5.1890519e+11
5.1823446e+11
5.1815938e+11
5.1899399e+11
5.2145316e+11
5.1768943e+11
5.0748039e+11
5.0903977e+11
5.1238422e+11
4.9326357e+11
5.4877228e+11
5.7539842e+11
5.7585422e+11
5.7513969e+11
5.8636153e+11
5.8958614e+11
5.8642851e+11
5.8536272e+11
5.8520644e+11
5.8643149e+11
5.8643136e+11
5.8520608e+11
5.8536214e+11
5.8642773e+11
5.895852e+11
5.863605e+11
5.7513854e+11
5.7585298e+11
5.7539707e+11
5.487707e+11
5.9970022e+11
6.3355322e+11
6.3790724e+11
6.3847667e+11
6.5023277e+11
6.5246512e+11
6.4854776e+11
6.472019e+11
6.4662301e+11
6.4851998e+11
6.4851984e+11
6.4662258e+11
6.472012e+11
6.4854682e+11
6.5246398e+11
6.5023151e+11
6.3847527e+11
6.3790573e+11
6.3355157e+11
5.9969827e+11
6.4671619e+11
6.8781942e+11
6.9605419e+11
6.983185e+11
7.1021523e+11
7.1117004e+11
7.0651061e+11
7.0483662e+11
7.0367274e+11
7.0628077e+11
7.0628061e+11
7.0367227e+11
7.0483585e+11
7.0650956e+11
7.1116878e+11
7.1021383e+11
6.9831692e+11
6.9605248e+11
6.8781755e+11
6.4671399e+11
6.9023425e+11
7.3886217e+11
7.5102456e+11
7.5531644e+11
7.6705968e+11
7.6662212e+11
7.6131575e+11
7.5926828e+11
7.5745694e+11
7.6071728e+11
7.6071711e+11
7.5745642e+11
7.5926743e+11
7.613146e+11
7.6662073e+11
7.6705813e+11
7.5531468e+11
7.5102265e+11
7.3886007e+11
6.9023184e+11
7.3013321e+11
7.8671247e+11
8.0310439e+11
8.0967047e+11
8.2114182e+11
8.1933849e+11
8.1350966e+11
8.110574e+11
8.0869392e+11
8.124506e+11
8.1245043e+11
8.0869337e+11
8.1105652e+11
8.1350846e+11
8.1933705e+11
8.2114022e+11
8.0966863e+11
8.0310237e+11
7.8671027e+11
7.3013076e+11
7.6648046e+11
8.314732e+11
8.5277725e+11
8.618665e+11
8.731752e+11
8.7012762e+11
8.638629e+11
8.6099262e+11
8.5832084e+11
8.6234531e+11
8.6234515e+11
8.583203e+11
8.6099174e+11
8.6386171e+11
8.7012618e+11
8.7317359e+11
8.6186467e+11
8.5277522e+11
8.31471e+11
7.6647813e+11
7.9849806e+11
8.7247376e+11
8.9973859e+11
9.1178166e+11
9.2318727e+11
9.1914555e+11
9.1249758e+11
9.0922422e+11
9.0656815e+11
9.1059336e+11
9.105932e+11
9.0656764e+11
9.0922339e+11
9.1249644e+11
9.1914417e+11
9.2318574e+11
9.1177991e+11
8.9973664e+11
8.724717e+11
7.9849602e+11
8.2470569e+11
9.0842134e+11
9.4297527e+11
9.5879924e+11
9.7057897e+11
9.6595592e+11
9.5900137e+11
9.5536169e+11
9.5300566e+11
9.5676035e+11
9.567602e+11
9.5300521e+11
9.5536093e+11
9.5900034e+11
9.6595467e+11
9.705776e+11
9.5879768e+11
9.4297351e+11
9.0841957e+11
8.2470416e+11
8.4307438e+11
9.3748036e+11
9.8081423e+11
1.0016664e+12
1.014029e+12
1.0094147e+12
1.002335e+12
9.9839459e+11
9.9648511e+11
9.9973189e+11
9.9973174e+11
9.9648474e+11
9.9839394e+11
1.0023342e+12
1.0094136e+12
1.0140279e+12
1.0016652e+12
9.8081282e+11
9.3747908e+11
8.4307361e+11
8.5022135e+11
9.5615591e+11
1.0098404e+12
1.0370657e+12
1.0501216e+12
1.0462532e+12
1.0393421e+12
1.0352071e+12
1.0337139e+12
1.0362792e+12
1.0362791e+12
1.0337136e+12
1.0352066e+12
1.0393414e+12
1.0462524e+12
1.0501208e+12
1.0370648e+12
1.0098395e+12
9.5615529e+11
8.5022153e+11
8.4230368e+11
9.5972743e+11
1.0251824e+12
1.059544e+12
1.0733392e+12
1.0707974e+12
1.064301e+12
1.060088e+12
1.058819e+12
1.0606063e+12
1.0606062e+12
1.0588189e+12
1.0600877e+12
1.0643006e+12
1.0707969e+12
1.0733388e+12
1.0595436e+12
1.0251821e+12
9.5972771e+11
8.4230497e+11
8.1585002e+11
9.4291162e+11
1.0206902e+12
1.0618609e+12
1.0764496e+12
1.0753654e+12
1.0691851e+12
1.0649853e+12
1.063657e+12
1.0646526e+12
1.0646525e+12
1.063657e+12
1.0649851e+12
1.069185e+12
1.0753653e+12
1.0764496e+12
1.0618612e+12
1.0206907e+12
9.4291299e+11
8.1585248e+11
7.705959e+11
9.0226002e+11
9.9121623e+11
1.0378555e+12
1.053076e+12
1.0530437e+12
1.0468187e+12
1.0425432e+12
1.0408168e+12
1.0410664e+12
1.0410663e+12
1.0408169e+12
1.0425432e+12
1.0468189e+12
1.053044e+12
1.0530765e+12
1.0378564e+12
9.9121757e+11
9.0226251e+11
7.7059939e+11
7.1377256e+11
8.40688e+11
9.3701248e+11
9.8762253e+11
1.0034215e+12
1.0037531e+12
9.973504e+11
9.9293877e+11
9.9042119e+11
9.8997986e+11
9.8997987e+11
9.9042134e+11
9.9293894e+11
9.9735083e+11
1.0037537e+12
1.0034224e+12
9.8762394e+11
9.3701456e+11
8.4069142e+11
7.1377657e+11
6.6247085e+11
7.7142468e+11
8.6860274e+11
9.2251239e+11
9.4003649e+11
9.4051102e+11
9.3433547e+11
9.3015363e+11
9.264709e+11
9.2535366e+11
9.2535367e+11
9.2647105e+11
9.3015382e+11
9.3433594e+11
9.4051169e+11
9.4003745e+11
9.2251398e+11
8.6860516e+11
7.7142839e+11
6.6247452e+11
6.3550412e+11
7.158751e+11
8.0682604e+11
8.6438024e+11
8.8613257e+11
8.8796518e+11
8.8298607e+11
8.7914584e+11
8.7412556e+11
8.7230178e+11
8.7230177e+11
8.7412563e+11
8.7914593e+11
8.8298639e+11
8.8796568e+11
8.8613332e+11
8.6438161e+11
8.0682823e+11
7.1587824e+11
6.3550686e+11
6.4060644e+11
6.9191187e+11
7.7318726e+11
8.358249e+11
8.6432001e+11
8.7035923e+11
8.6733956e+11
8.632275e+11
8.5696012e+11
8.543676e+11
8.5436755e+11
8.5696008e+11
8.6322741e+11
8.6733962e+11
8.7035942e+11
8.6432037e+11
8.3582577e+11
7.7318884e+11
6.91914e+11
6.4060858e+11
6.6883769e+11
7.0183192e+11
7.7769325e+11
8.4859439e+11
8.8679305e+11
8.998127e+11
8.9943854e+11
8.949944e+11
8.8764727e+11
8.8416069e+11
8.841606e+11
8.8764711e+11
8.9499411e+11
8.9943834e+11
8.9981257e+11
8.8679305e+11
8.4859482e+11
7.7769432e+11
7.0183358e+11
6.6884078e+11
7.0007237e+11
7.3368054e+11
8.1486361e+11
8.992249e+11
9.5208009e+11
9.7586727e+11
9.799291e+11
9.7469925e+11
9.6636141e+11
9.6173809e+11
9.6173797e+11
9.6636118e+11
9.7469885e+11
9.7992874e+11
9.7586696e+11
9.5207995e+11
8.9922528e+11
8.1486482e+11
7.3368311e+11
7.0007839e+11
7.0946318e+11
7.6859807e+11
8.6873219e+11
9.7393296e+11
1.0484385e+12
1.0874516e+12
1.0997434e+12
1.0947514e+12
1.0854399e+12
1.0792679e+12
1.0792678e+12
1.0854397e+12
1.094751e+12
1.0997431e+12
1.0874513e+12
1.0484386e+12
9.7393389e+11
8.6873454e+11
7.6860304e+11
7.0947365e+11
0
0
9.3323867e+11
1.0656962e+12
1.1705259e+12
1.2331533e+12
1.2603091e+12
1.2570617e+12
1.2472269e+12
1.2389571e+12
1.238957e+12
1.2472269e+12
1.2570616e+12
1.260309e+12
1.2331535e+12
1.1705268e+12
1.0656983e+12
9.3324289e+11
0
0
)
;

boundaryField
{
    Wall
    {
        type            zeroGradient;
    }
    frontAndBack
    {
        type            empty;
    }
    atmosphere
    {
        type            zeroGradient;
    }
}


// ************************************************************************* //
