/*--------------------------------*- C++ -*----------------------------------*\
| =========                 |                                                 |
| \\      /  F ield         | OpenFOAM: The Open Source CFD Toolbox           |
|  \\    /   O peration     | Version:  3.0.1                                 |
|   \\  /    A nd           | Web:      www.OpenFOAM.org                      |
|    \\/     M anipulation  |                                                 |
\*---------------------------------------------------------------------------*/
FoamFile
{
    version     2.0;
    format      ascii;
    class       volScalarField;
    location    "18";
    object      alpha.gas;
}
// * * * * * * * * * * * * * * * * * * * * * * * * * * * * * * * * * * * * * //

dimensions      [0 0 0 0 0 0 0];

internalField   nonuniform List<scalar> 
800
(
2.8845449e-28
2.3227243e-25
4.4698314e-22
8.6983806e-22
3.736663e-24
1.0756807e-21
9.3487572e-22
5.5354378e-23
8.7240829e-26
4.8948166e-29
3.0613536e-23
2.9842626e-23
1.6202961e-25
6.9369196e-23
6.8463039e-23
1.6154269e-27
3.6906606e-32
7.6519148e-36
1.5100095e-39
2.8046466e-43
3.8357074e-12
8.6969253e-13
6.3616222e-11
2.2622598e-11
8.685569e-13
3.0047295e-11
2.3597803e-11
2.8417293e-11
5.7774282e-11
1.4504988e-10
7.2865295e-11
7.2572253e-11
3.9265162e-11
2.3267541e-11
2.2003821e-11
4.2908778e-12
2.1028286e-16
5.6676078e-14
1.2247568e-11
1.671799e-14
2.304003e-05
2.1860268e-05
2.1752286e-05
2.1779576e-05
2.1802544e-05
2.1814933e-05
2.1820176e-05
2.1822373e-05
2.1823215e-05
2.182352e-05
2.182347e-05
2.1823221e-05
2.1822373e-05
2.1820165e-05
2.1814913e-05
2.1802529e-05
2.1779537e-05
2.1752223e-05
2.1860257e-05
2.3040023e-05
0.00011951096
0.00011193983
0.0001112455
0.00011139642
0.00011150834
0.00011156886
0.00011160388
0.00011162122
0.00011163227
0.00011163712
0.00011163707
0.00011163224
0.00011162117
0.0001116038
0.00011156875
0.00011150822
0.00011139626
0.00011124533
0.0001119397
0.00011951085
0.00043369339
0.00039767324
0.00039378383
0.00039356176
0.00039376734
0.00039395146
0.00039410735
0.00039423292
0.00039431841
0.00039435965
0.00039435956
0.00039431826
0.00039423265
0.00039410696
0.00039395093
0.00039376675
0.00039356105
0.00039378309
0.00039767252
0.00043369254
0.0017081041
0.0015064347
0.0014782013
0.0014726037
0.0014719859
0.0014726574
0.0014735401
0.0014745109
0.0014751678
0.001475534
0.0014755336
0.0014751671
0.0014745095
0.0014735381
0.0014726546
0.0014719826
0.0014725998
0.0014781972
0.0015064304
0.0017080984
0.012760039
0.010186401
0.0097635067
0.0096761128
0.0096587044
0.0096671249
0.0096805433
0.0096949267
0.0097048085
0.0097104736
0.0097104706
0.0097048009
0.009694913
0.0096805213
0.0096670947
0.0096586671
0.0096760682
0.0097634592
0.010186346
0.012759961
0.23633501
0.18881096
0.17976624
0.17803443
0.17771396
0.17795671
0.17829125
0.17862305
0.17885009
0.17897796
0.17897791
0.17884995
0.17862278
0.17829082
0.17795611
0.17771321
0.17803354
0.1797653
0.18880987
0.23633374
0.82596747
0.79017022
0.78239258
0.78093027
0.78070774
0.78098012
0.78131731
0.78163823
0.78185578
0.78197723
0.78197718
0.78185565
0.78163799
0.78131693
0.78097958
0.78070706
0.78092947
0.78239174
0.79016934
0.82596663
0.99217137
0.9884433
0.9874851
0.98737006
0.98737892
0.9874287
0.98747671
0.9875175
0.98754423
0.98755879
0.98755879
0.98754422
0.98751747
0.98747668
0.98742864
0.98737885
0.98736998
0.98748502
0.98844321
0.9921713
0.99995705
0.99990185
0.99988265
0.99988173
0.99988301
0.99988468
0.99988598
0.99988695
0.99988755
0.99988787
0.99988787
0.99988755
0.99988695
0.99988598
0.99988468
0.99988301
0.99988173
0.99988265
0.99990185
0.99995705
0.99999999
0.99999991
0.99999987
0.99999987
0.99999988
0.99999988
0.99999988
0.99999989
0.99999989
0.99999989
0.99999989
0.99999989
0.99999989
0.99999988
0.99999988
0.99999988
0.99999987
0.99999987
0.99999991
0.99999999
1
1
1
1
1
1
1
1
1
1
1
1
1
1
1
1
1
1
1
1
1
1
1
1
1
1
1
1
1
1
1
1
1
1
1
1
1
1
1
1
1
1
1
1
1
1
1
1
1
1
1
1
1
1
1
1
1
1
1
1
1
1
1
1
1
1
1
1
1
1
1
1
1
1
1
1
1
1
1
1
1
1
1
1
1
1
1
1
1
1
1
1
1
1
1
1
1
1
1
1
1
1
1
1
1
1
1
1
1
1
1
1
1
1
1
1
1
1
1
1
1
1
1
1
1
1
1
1
1
1
1
1
1
1
1
1
1
1
1
1
1
1
1
1
1
1
1
1
1
1
1
1
1
1
1
1
1
1
1
1
1
1
1
1
1
1
1
1
1
1
1
1
1
1
1
1
1
1
1
1
1
1
1
1
1
1
1
1
1
1
1
1
1
1
1
1
1
1
1
1
1
1
1
1
1
1
1
1
1
1
1
1
1
1
1
1
1
1
1
1
1
1
1
1
1
1
1
1
1
1
1
1
1
1
1
1
1
1
1
1
1
1
1
1
1
1
1
1
1
1
1
1
1
1
1
1
1
1
1
1
1
1
1
1
1
1
1
1
1
1
1
1
1
1
1
1
1
1
1
1
1
1
1
1
1
1
1
1
1
1
1
1
1
1
1
1
1
1
1
1
1
1
1
1
1
1
1
1
1
1
1
1
1
1
1
1
1
1
1
1
1
1
1
1
1
1
1
1
1
1
1
1
1
1
1
1
1
1
1
1
1
1
1
1
1
1
1
1
1
1
1
1
1
1
1
1
1
1
1
1
1
1
1
1
1
1
1
1
1
1
1
1
1
1
1
1
1
1
1
1
1
1
1
1
1
1
1
1
1
1
1
1
1
1
1
1
1
1
1
1
1
1
1
1
1
1
1
1
1
1
1
1
1
1
1
1
1
1
1
1
1
1
1
1
1
1
1
1
1
1
1
1
1
1
1
1
1
1
1
1
1
1
1
1
1
1
1
1
1
1
1
1
1
1
1
1
1
1
1
1
1
1
1
1
1
1
1
1
1
1
1
1
1
1
1
1
1
1
1
1
1
1
1
1
1
1
1
1
1
1
1
1
1
1
1
1
1
1
1
1
1
1
1
1
1
1
1
1
1
1
1
1
1
1
1
1
1
1
1
1
1
1
1
1
1
1
1
1
1
1
1
1
1
1
1
1
1
1
1
1
1
1
1
1
1
1
1
1
1
1
1
1
1
1
1
1
1
1
1
1
)
;

boundaryField
{
    Wall
    {
        type            zeroGradient;
    }
    frontAndBack
    {
        type            empty;
    }
    atmosphere
    {
        type            zeroGradient;
    }
}


// ************************************************************************* //
