/*--------------------------------*- C++ -*----------------------------------*\
| =========                 |                                                 |
| \\      /  F ield         | OpenFOAM: The Open Source CFD Toolbox           |
|  \\    /   O peration     | Version:  3.0.1                                 |
|   \\  /    A nd           | Web:      www.OpenFOAM.org                      |
|    \\/     M anipulation  |                                                 |
\*---------------------------------------------------------------------------*/
FoamFile
{
    version     2.0;
    format      ascii;
    class       volScalarField;
    location    "18";
    object      M0;
}
// * * * * * * * * * * * * * * * * * * * * * * * * * * * * * * * * * * * * * //

dimensions      [0 0 0 0 0 0 0];

internalField   nonuniform List<scalar> 
800
(
1.4974438e+12
1.4974182e+12
1.4974227e+12
1.4974271e+12
1.4974305e+12
1.4974332e+12
1.4974352e+12
1.4974366e+12
1.4974376e+12
1.497438e+12
1.497438e+12
1.4974376e+12
1.4974366e+12
1.4974352e+12
1.4974332e+12
1.4974305e+12
1.4974271e+12
1.4974227e+12
1.4974182e+12
1.4974438e+12
1.5833225e+12
1.5805928e+12
1.5803027e+12
1.5802617e+12
1.5802449e+12
1.580218e+12
1.5801885e+12
1.5801635e+12
1.5801461e+12
1.5801374e+12
1.5801374e+12
1.5801461e+12
1.5801635e+12
1.5801885e+12
1.580218e+12
1.5802449e+12
1.5802617e+12
1.5803027e+12
1.5805928e+12
1.5833225e+12
1.6213583e+12
1.6182687e+12
1.6167817e+12
1.6166771e+12
1.616623e+12
1.6165642e+12
1.6165079e+12
1.6164624e+12
1.6164316e+12
1.616416e+12
1.616416e+12
1.6164316e+12
1.6164624e+12
1.6165079e+12
1.6165642e+12
1.616623e+12
1.616677e+12
1.6167817e+12
1.6182687e+12
1.6213583e+12
1.6488859e+12
1.6442327e+12
1.6420874e+12
1.6419409e+12
1.6418567e+12
1.6417708e+12
1.6416914e+12
1.6416281e+12
1.6415852e+12
1.6415637e+12
1.6415637e+12
1.6415852e+12
1.6416281e+12
1.6416914e+12
1.6417708e+12
1.6418567e+12
1.6419409e+12
1.6420873e+12
1.6442326e+12
1.6488859e+12
1.7043347e+12
1.6976888e+12
1.695182e+12
1.6932998e+12
1.6931582e+12
1.6930248e+12
1.6929074e+12
1.6928167e+12
1.6927561e+12
1.6927259e+12
1.6927259e+12
1.6927561e+12
1.6928167e+12
1.6929074e+12
1.6930248e+12
1.6931583e+12
1.6932998e+12
1.695182e+12
1.6976888e+12
1.7043347e+12
1.7707249e+12
1.7646295e+12
1.7622994e+12
1.7610338e+12
1.7607663e+12
1.7605297e+12
1.7603414e+12
1.7602019e+12
1.7601121e+12
1.7600679e+12
1.760068e+12
1.7601121e+12
1.760202e+12
1.7603414e+12
1.7605298e+12
1.7607663e+12
1.7610339e+12
1.7622995e+12
1.7646296e+12
1.7707251e+12
1.8424757e+12
1.8371123e+12
1.835499e+12
1.8349778e+12
1.8345609e+12
1.8341546e+12
1.8338443e+12
1.8336196e+12
1.8334788e+12
1.833408e+12
1.8334081e+12
1.8334788e+12
1.8336197e+12
1.8338444e+12
1.8341548e+12
1.8345611e+12
1.834978e+12
1.8354992e+12
1.8371125e+12
1.842476e+12
1.9534774e+12
1.9552163e+12
1.9554318e+12
1.9565581e+12
1.9561848e+12
1.9555245e+12
1.9549741e+12
1.9545891e+12
1.9543446e+12
1.9542136e+12
1.9542136e+12
1.9543447e+12
1.9545892e+12
1.9549743e+12
1.9555248e+12
1.9561851e+12
1.9565585e+12
1.9554321e+12
1.9552167e+12
1.953478e+12
1.9411745e+12
1.9942472e+12
2.0168933e+12
2.024297e+12
2.0249424e+12
2.0238848e+12
2.0227421e+12
2.0219696e+12
2.021465e+12
2.0211846e+12
2.0211846e+12
2.021465e+12
2.0219696e+12
2.0227423e+12
2.0238851e+12
2.0249428e+12
2.0242976e+12
2.0168937e+12
1.9942478e+12
1.9411756e+12
1.5554632e+12
1.70275e+12
1.7725199e+12
1.7961467e+12
1.7999992e+12
1.7978935e+12
1.7949992e+12
1.7929789e+12
1.7916796e+12
1.7909874e+12
1.7909872e+12
1.7916794e+12
1.7929785e+12
1.7949992e+12
1.7978937e+12
1.7999996e+12
1.7961475e+12
1.7725205e+12
1.7027509e+12
1.5554649e+12
9.0562409e+11
1.194802e+12
1.3208794e+12
1.3669381e+12
1.3756588e+12
1.3712248e+12
1.3645004e+12
1.3594558e+12
1.356232e+12
1.3545895e+12
1.3545891e+12
1.3562315e+12
1.3594548e+12
1.3645e+12
1.3712248e+12
1.375659e+12
1.3669387e+12
1.3208798e+12
1.1948029e+12
9.0562578e+11
3.4427251e+11
6.9401663e+11
8.5440339e+11
9.1765557e+11
9.316628e+11
9.2583111e+11
9.1541577e+11
9.0689869e+11
9.01287e+11
8.984542e+11
8.9845373e+11
9.0128628e+11
9.0689733e+11
9.1541493e+11
9.2583075e+11
9.3166265e+11
9.1765579e+11
8.5440342e+11
6.9401712e+11
3.4427344e+11
8.7437471e+10
3.3878503e+11
4.8861159e+11
5.5596505e+11
5.7449561e+11
5.7061249e+11
5.6011789e+11
5.5066396e+11
5.4415839e+11
5.4084036e+11
5.4083988e+11
5.4415753e+11
5.5066248e+11
5.6011682e+11
5.7061186e+11
5.7449512e+11
5.5596493e+11
4.8861134e+11
3.3878509e+11
8.743775e+10
1.6304829e+10
1.418806e+11
2.5114533e+11
3.0888674e+11
3.2826821e+11
3.2758897e+11
3.1985166e+11
3.1207427e+11
3.0647312e+11
3.0357268e+11
3.0357227e+11
3.0647232e+11
3.1207295e+11
3.198506e+11
3.2758825e+11
3.2826758e+11
3.0888644e+11
2.5114499e+11
1.4188049e+11
1.6304881e+10
2.4384785e+09
5.2080466e+10
1.1773374e+11
1.5922729e+11
1.7570903e+11
1.7720459e+11
1.7268616e+11
1.674949e+11
1.6357703e+11
1.6151586e+11
1.6151556e+11
1.635764e+11
1.674939e+11
1.7268531e+11
1.7720396e+11
1.7570843e+11
1.5922697e+11
1.1773346e+11
5.2080358e+10
2.4384864e+09
3.1204633e+08
1.7114037e+10
5.0953956e+10
7.6823306e+10
8.8714512e+10
9.0892655e+10
8.8734306e+10
8.5766766e+10
8.3411768e+10
8.2152767e+10
8.2152575e+10
8.3411335e+10
8.576609e+10
8.8733695e+10
9.0892173e+10
8.8714044e+10
7.682305e+10
5.0953779e+10
1.7113974e+10
3.1204741e+08
35697291
5.1342373e+09
2.0567114e+10
3.4925438e+10
4.2453148e+10
4.4373033e+10
4.3544198e+10
4.2046215e+10
4.078795e+10
4.0103815e+10
4.01037e+10
4.0787682e+10
4.20458e+10
4.3543805e+10
4.4372711e+10
4.2452838e+10
3.4925267e+10
2.0567019e+10
5.1342096e+09
35697434
3756053.5
1.4300362e+09
7.8097507e+09
1.5041841e+10
1.9324647e+10
2.06706e+10
2.0446608e+10
1.9767848e+10
1.9157828e+10
1.8819919e+10
1.8819856e+10
1.9157674e+10
1.9767614e+10
2.0446377e+10
2.0670406e+10
1.9324465e+10
1.504174e+10
7.8097064e+09
1.430026e+09
3756071.4
370294.64
3.7485073e+08
2.8101044e+09
6.1644925e+09
8.3923171e+09
9.2067202e+09
9.1994186e+09
8.9215087e+09
8.6496841e+09
8.4958523e+09
8.4958205e+09
8.649602e+09
8.9213863e+09
9.1992927e+09
9.2066126e+09
8.3922197e+09
6.164439e+09
2.8100854e+09
3.7484744e+08
370296.68
34636.754
93454436
9.6385724e+08
2.4128816e+09
3.4859108e+09
3.9277164e+09
3.9706175e+09
3.8680354e+09
3.7558065e+09
3.690652e+09
3.6906367e+09
3.7557656e+09
3.8679751e+09
3.9705536e+09
3.927661e+09
3.485863e+09
2.4128556e+09
9.6384961e+08
93453478
34636.966
3102.6088
22339394
3.1663875e+08
9.0479758e+08
1.3879373e+09
1.6075379e+09
1.6458932e+09
1.6122617e+09
1.5691248e+09
1.5432842e+09
1.5432774e+09
1.5691057e+09
1.6122337e+09
1.6458627e+09
1.6075109e+09
1.3879154e+09
9.047859e+08
3.1663588e+08
22339130
3102.6288
268.18652
5151003.9
99993582
3.2587144e+08
5.3073843e+08
6.3215214e+08
6.5595312e+08
6.4656821e+08
6.3110164e+08
6.21462e+08
6.2145901e+08
6.3109309e+08
6.4655586e+08
6.5593941e+08
6.3213982e+08
5.3072904e+08
3.2586653e+08
99992555
5150935.9
268.18824
22.527296
1150729.9
30440584
1.1296124e+08
1.9524748e+08
2.3918233e+08
2.5162185e+08
2.4968455e+08
2.4451576e+08
2.4112349e+08
2.4112224e+08
2.4451212e+08
2.4967935e+08
2.5161597e+08
2.3917698e+08
1.9524364e+08
1.1295929e+08
30440232
1150713.1
22.527426
1.8514963
249838.42
8952105
37753152
69204798
87186332
93003042
92928959
91326290
90198397
90197895
91324813
92926858
93000640
87184123
69203293
37752417
8951989.4
249834.43
1.8515038
0.14990964
52825.169
2547323.8
12182837
23665418
30655272
33157179
33364779
32908716
32554353
32554159
32908142
33363965
33156239
30654400
23664853
12182573
2547287
52824.25
0.14990979
0.012034282
10890.872
702206.52
3800622.3
7817081.7
10408569
11413956
11566591
11450319
11345287
11345215
11450105
11566287
11413603
10408240
7816876.8
3800531.6
702195.23
10890.666
0.012034238
0.0009630772
2190.8709
187711.81
1147479.7
2496944.8
3416402
3797586.5
3875311.3
3850299.4
3821052.8
3821026.8
3850223
3875201.8
3797458.6
3416282.6
2496872.9
1147449.6
187708.44
2190.8261
0.00096306771
7.7123405e-05
430.15794
48698.534
335617.52
772065.67
1085121.3
1222404.7
1256015.4
1252356.3
1244769.7
1244760.7
1252329.8
1255977.4
1222360.1
1085079.6
772041.14
335607.89
48697.556
430.14839
7.712207e-05
6.1898133e-06
82.437188
12269.98
95179.869
231313.51
333840.06
381039.48
394157.62
394372.55
392570
392566.97
394363.69
394144.82
381024.45
333826.02
231305.38
95176.873
12269.705
82.435194
6.1896562e-06
7.2075944e-07
15.420039
3004.3828
26194.73
67212.24
99575.428
115125.98
119874.11
120342.47
119964.46
119963.47
120339.6
119869.94
115121.08
99570.862
67209.627
26193.825
3004.3072
15.419632
7.1792536e-07
2.2671933e-07
2.815084
715.34546
7001.6625
18957.366
28820.899
33745.433
35362.937
35616.303
35553.199
35552.887
35615.401
35361.623
33743.891
28819.465
18956.55
7001.3966
715.32519
2.8150026
2.3314673e-07
1.5928636e-07
0.50157274
165.7237
1819.0456
5194.6524
8101.7582
9604.483
10127.852
10232.33
10227.597
10227.501
10232.055
10127.45
9604.0124
8101.3219
5194.4054
1818.9697
165.71844
0.50155677
1.6103337e-07
5.409595e-08
0.087224145
37.3782
459.69227
1384.0034
2213.7563
2656.5516
2818.3948
2856.0532
2858.3045
2858.2762
2855.9721
2818.2756
2656.4125
2213.6277
1383.9308
459.67115
37.376869
0.087221052
5.3780747e-08
1.0093667e-08
0.014806669
8.2124575
113.08075
358.80698
588.45007
714.66837
762.71291
775.14906
776.68649
776.67835
775.12584
762.67861
714.62844
588.41334
358.78628
113.07502
8.2121295
0.014806041
9.8529342e-09
1.2404871e-09
0.002454035
1.758752
27.096666
90.585142
152.28518
187.14503
200.88329
204.7304
205.37039
205.36813
204.72395
200.87369
187.13389
152.275
90.579405
27.095152
1.7586731
0.0024539106
1.1491681e-09
8.3219606e-11
0.00039720939
0.36733958
6.3291915
22.286578
38.397364
47.739006
51.533247
52.662057
52.88427
52.88366
52.660313
51.530642
47.735986
38.394616
22.285035
6.3288016
0.36732106
0.0003971866
7.6743628e-11
5.0187267e-12
6.2807903e-05
0.074871379
1.4420382
5.3472102
9.439676
11.871679
12.88601
13.202636
13.272181
13.272021
13.202177
12.885322
11.870883
9.438955
5.3468065
1.4419402
0.074867131
6.2803975e-05
4.5585002e-12
2.6953722e-13
9.7057007e-06
0.014900456
0.32068891
1.2520019
2.2642784
2.8800869
3.1430508
3.2284074
3.2486599
3.2486188
3.2282898
3.1428741
2.8798821
2.2640941
1.2518991
0.32066489
0.014899504
9.7050431e-06
2.3845728e-13
1.3202737e-14
1.4663332e-06
0.002897118
0.069653661
0.28626131
0.53029046
0.68210809
0.74832397
0.77052507
0.77610352
0.77609324
0.77049572
0.74827973
0.68205681
0.53024453
0.28623583
0.069647915
0.0028969095
1.4662241e-06
1.126173e-14
6.1257532e-16
2.1667902e-07
0.00055063002
0.014785057
0.063955291
0.12133678
0.15781319
0.1740304
0.17961821
0.18108574
0.18108324
0.17961107
0.1740196
0.15780067
0.12132561
0.063949135
0.014783716
0.00055058531
2.1666103e-07
4.9951289e-16
)
;

boundaryField
{
    Wall
    {
        type            zeroGradient;
    }
    frontAndBack
    {
        type            empty;
    }
    atmosphere
    {
        type            zeroGradient;
    }
}


// ************************************************************************* //
