/*--------------------------------*- C++ -*----------------------------------*\
| =========                 |                                                 |
| \\      /  F ield         | OpenFOAM: The Open Source CFD Toolbox           |
|  \\    /   O peration     | Version:  3.0.1                                 |
|   \\  /    A nd           | Web:      www.OpenFOAM.org                      |
|    \\/     M anipulation  |                                                 |
\*---------------------------------------------------------------------------*/
FoamFile
{
    version     2.0;
    format      ascii;
    class       volScalarField;
    location    "18";
    object      mOne;
}
// * * * * * * * * * * * * * * * * * * * * * * * * * * * * * * * * * * * * * //

dimensions      [0 0 0 0 0 0 0];

internalField   nonuniform List<scalar> 
800
(
5.678047
5.6781611
5.6781409
5.6781213
5.6781062
5.6780942
5.6780853
5.6780789
5.6780748
5.6780727
5.6780728
5.6780748
5.6780789
5.6780853
5.6780943
5.6781062
5.6781213
5.678141
5.6781611
5.678047
5.3158326
5.3267402
5.3279016
5.3280659
5.3281331
5.3282409
5.3283589
5.3284592
5.3285286
5.3285636
5.3285637
5.3285286
5.3284591
5.3283589
5.3282409
5.3281331
5.328066
5.3279017
5.3267403
5.3158326
4.9077376
4.9220194
4.928005
4.9284573
4.9286302
4.9288406
4.9290541
4.929232
4.9293549
4.9294173
4.9294173
4.9293549
4.929232
4.9290541
4.9288406
4.9286303
4.9284574
4.9280051
4.9220194
4.9077375
4.3844719
4.4072142
4.4153143
4.4157833
4.4159909
4.4162496
4.4165153
4.4167374
4.4168907
4.4169686
4.4169686
4.4168907
4.4167374
4.4165153
4.4162496
4.415991
4.4157834
4.4153144
4.4072142
4.3844717
3.6916907
3.7239273
3.7325555
3.7377487
3.7380608
3.7383993
3.7387188
3.7389719
3.739142
3.7392269
3.7392269
3.739142
3.7389719
3.7387188
3.7383993
3.7380609
3.7377488
3.7325555
3.7239273
3.6916905
2.9419009
2.9794922
2.9880267
2.9914218
2.9920854
2.9926164
2.9930185
2.9932954
2.9934702
2.9935544
2.9935544
2.9934702
2.9932954
2.9930185
2.9926165
2.9920855
2.9914219
2.9880268
2.9794923
2.9419008
2.1835585
2.2311201
2.2415359
2.2442633
2.2454034
2.2461432
2.2466197
2.246906
2.2470731
2.247148
2.247148
2.2470731
2.2469059
2.2466197
2.2461433
2.2454035
2.2442634
2.2415361
2.2311202
2.1835585
1.4019092
1.4566113
1.4723547
1.475144
1.4765038
1.4772625
1.4776846
1.4779176
1.4780398
1.4780894
1.4780894
1.4780398
1.4779175
1.4776846
1.4772626
1.4765039
1.4751442
1.4723549
1.4566115
1.4019094
0.76707659
0.81017902
0.82335485
0.82593973
0.82693548
0.82731706
0.82745172
0.82749625
0.82750124
0.82749307
0.82749306
0.82750122
0.82749622
0.82745175
0.82731717
0.82693567
0.82593997
0.82335513
0.81017936
0.76707689
0.37539245
0.41633841
0.4297206
0.43222707
0.43240458
0.43207111
0.43171902
0.43146674
0.43130312
0.43121434
0.43121432
0.4313031
0.4314667
0.43171905
0.43207122
0.43240475
0.43222729
0.42972083
0.41633871
0.37539276
0.14930861
0.19764457
0.21328515
0.21642971
0.21592676
0.21473211
0.21369588
0.21298877
0.212558
0.21234349
0.21234346
0.21255796
0.2129887
0.21369586
0.21473216
0.21592687
0.21642986
0.2132853
0.19764476
0.14930884
0.043264063
0.084968284
0.10087033
0.10510956
0.10495925
0.10361754
0.10227497
0.10128551
0.10066139
0.10035296
0.10035293
0.10066134
0.10128543
0.10227493
0.10361756
0.10495931
0.10510965
0.10087041
0.084968382
0.043264158
0.0091213121
0.032582253
0.044767826
0.049043882
0.049542843
0.048691288
0.047612724
0.046740928
0.046164825
0.045876082
0.045876058
0.046164777
0.046740855
0.047612678
0.048691282
0.049542863
0.049043924
0.04476786
0.032582291
0.0091213352
0.0014731032
0.011116974
0.01850607
0.021795781
0.022555029
0.022204953
0.021553364
0.02097158
0.020568948
0.020363542
0.020363525
0.020568911
0.020971525
0.021553324
0.022204939
0.02255503
0.021795799
0.018506081
0.011116986
0.0014731069
0.00019442309
0.0033943621
0.0071196774
0.0091894456
0.0098550996
0.0097863407
0.009463724
0.0091410758
0.0089073165
0.0087859573
0.0087859464
0.0089072928
0.0091410396
0.0094636966
0.0097863272
0.0098550946
0.0091894522
0.0071196803
0.003394365
0.00019442357
2.2185396e-05
0.00093831172
0.0025572684
0.0036744857
0.0041232749
0.0041562834
0.0040205664
0.0038644406
0.003745826
0.003683184
0.0036831777
0.0037458122
0.0038644194
0.0040205496
0.0041562738
0.0041232694
0.0036744878
0.0025572691
0.00093831232
2.2185457e-05
2.2790872e-06
0.0002381532
0.0008621669
0.0013961343
0.0016515752
0.0016987068
0.0016499673
0.0015822287
0.001528035
0.0014989167
0.0014989134
0.0015280278
0.0015822174
0.001649958
0.001698701
0.0016515713
0.0013961348
0.00086216711
0.00023815333
2.2790952e-06
2.1639548e-07
5.624256e-05
0.00027454783
0.00050561725
0.00063404334
0.0006680634
0.00065361689
0.00062684682
0.00060413357
0.00059170723
0.00059170565
0.00060413007
0.00062684127
0.00065361219
0.00066806033
0.00063404117
0.00050561727
0.00027454795
5.6242592e-05
2.1639648e-07
1.9305226e-08
1.2497156e-05
8.3089614e-05
0.00017514973
0.00023372774
0.00025300573
0.00024995989
0.00024024029
0.00023140065
0.00022646891
0.00022646821
0.00023139904
0.00024023776
0.00024995766
0.00025300424
0.00023372665
0.00017514966
8.3089674e-05
1.2497167e-05
1.9305343e-08
1.634971e-09
2.6360167e-06
2.4034256e-05
5.8238939e-05
8.2911216e-05
9.2385365e-05
9.234163e-05
8.9089645e-05
8.5868544e-05
8.4031794e-05
8.4031499e-05
8.5867855e-05
8.9088558e-05
9.2340644e-05
9.2384695e-05
8.2910724e-05
5.8238883e-05
2.4034282e-05
2.6360202e-06
1.6349838e-09
1.323197e-10
5.3154029e-07
6.6774857e-06
1.8648768e-05
2.8365427e-05
3.2575379e-05
3.2986304e-05
3.1986593e-05
3.0881489e-05
3.0235372e-05
3.0235257e-05
3.0881208e-05
3.1986151e-05
3.2985893e-05
3.2575093e-05
2.8365221e-05
1.8648737e-05
6.6774957e-06
5.3154128e-07
1.3232102e-10
1.0279333e-11
1.0305523e-07
1.7894933e-06
5.767458e-06
9.378931e-06
1.1108915e-05
1.1407224e-05
1.1128224e-05
1.077001e-05
1.0554321e-05
1.0554278e-05
1.0769899e-05
1.1128054e-05
1.1407061e-05
1.1108799e-05
9.3788504e-06
5.7674435e-06
1.7894967e-06
1.0305549e-07
1.0279464e-11
7.6906648e-13
1.9304771e-08
4.6424067e-07
1.7271005e-06
3.0028889e-06
3.6695408e-06
3.8234561e-06
3.7549391e-06
3.6450542e-06
3.5764964e-06
3.5764805e-06
3.6450127e-06
3.7548761e-06
3.8233941e-06
3.6694958e-06
3.0028587e-06
1.7270942e-06
4.6424172e-07
1.9304834e-08
7.6907879e-13
5.5563845e-14
3.5089716e-09
1.1694236e-07
5.018699e-07
9.3257876e-07
1.1757714e-06
1.2435539e-06
1.2300087e-06
1.1981182e-06
1.177322e-06
1.1773164e-06
1.1981031e-06
1.2299862e-06
1.2435314e-06
1.1757546e-06
9.3256798e-07
5.0186742e-07
1.1694265e-07
3.5089853e-09
5.5564936e-14
3.8861765e-15
6.2128214e-10
2.8676165e-08
1.4177439e-07
2.8134099e-07
3.6589448e-07
3.9288986e-07
3.9150206e-07
3.8276965e-07
3.7674187e-07
3.7673995e-07
3.8276438e-07
3.9149434e-07
3.9288192e-07
3.6588842e-07
2.813373e-07
1.4177348e-07
2.8676234e-08
6.2128483e-10
3.8862677e-15
2.6378173e-16
1.0752308e-10
6.8596315e-09
3.8993795e-08
8.2552505e-08
1.1071211e-07
1.2069622e-07
1.2118342e-07
1.189416e-07
1.1727169e-07
1.1727106e-07
1.1893983e-07
1.2118084e-07
1.2069351e-07
1.1071e-07
8.2551275e-08
3.8993478e-08
6.8596453e-09
1.0752358e-10
2.6378891e-16
1.7424512e-17
1.8245503e-11
1.6034001e-09
1.0454973e-08
2.3585358e-08
3.2603326e-08
3.608316e-08
3.6505968e-08
3.5973297e-08
3.5531522e-08
3.5531319e-08
3.597272e-08
3.6505133e-08
3.6082266e-08
3.2602613e-08
2.358496e-08
1.0454867e-08
1.603402e-09
1.8245584e-11
1.7425046e-17
1.1237457e-18
3.0436008e-12
3.6670075e-10
2.7353665e-09
6.566937e-09
9.352346e-09
1.0505844e-08
1.0710032e-08
1.059603e-08
1.0484691e-08
1.0484628e-08
1.0595848e-08
1.0709769e-08
1.0505558e-08
9.3521121e-09
6.5668112e-09
2.7353325e-09
3.6670067e-10
3.0436122e-12
1.1237829e-18
7.102915e-20
5.0014933e-13
8.2135692e-11
6.9891173e-10
1.7832994e-09
2.6150929e-09
2.9810032e-09
3.0618855e-09
3.0413473e-09
3.0147397e-09
3.0147203e-09
3.041291e-09
3.0618047e-09
2.980914e-09
2.6150185e-09
1.7832605e-09
6.989012e-10
8.2135523e-11
5.0015056e-13
7.103161e-20
5.3081887e-21
8.1084241e-14
1.8030124e-11
1.7451069e-10
4.7261874e-10
7.1324421e-10
8.2481774e-10
8.534918e-10
8.5108616e-10
8.4510804e-10
8.4510223e-10
8.5106923e-10
8.5346761e-10
8.2479066e-10
7.1322126e-10
4.7260695e-10
1.7450753e-10
1.8030042e-11
8.1084291e-14
5.2971582e-21
9.5808409e-22
1.2980178e-14
3.880669e-12
4.2602847e-11
1.2231199e-10
1.8985404e-10
2.2266545e-10
2.3208365e-10
2.3231467e-10
2.3107216e-10
2.3107046e-10
2.3230973e-10
2.3207659e-10
2.2265747e-10
1.8984718e-10
1.2230851e-10
4.2601931e-11
3.8806395e-12
1.2980154e-14
9.812275e-22
5.881526e-22
2.0524509e-15
8.1916621e-13
1.0173146e-11
3.0925455e-11
4.9346307e-11
5.8676588e-11
6.1593357e-11
6.1883779e-11
6.1652893e-11
6.1652407e-11
6.1882374e-11
6.1591343e-11
5.8674297e-11
4.9344316e-11
3.092445e-11
1.0172889e-11
8.1915712e-13
2.0524404e-15
5.9385884e-22
1.8277064e-22
3.2051924e-16
1.69612e-13
2.3769861e-12
7.6427354e-12
1.2529934e-11
1.5100789e-11
1.5961285e-11
1.6094208e-11
1.6059165e-11
1.605903e-11
1.6093819e-11
1.5960724e-11
1.510015e-11
1.2529373e-11
7.6424529e-12
2.376916e-12
1.6960943e-13
3.2051628e-16
1.8154095e-22
3.1394158e-23
4.9410704e-17
3.4449853e-14
5.4361148e-13
1.8469255e-12
3.1095443e-12
3.7971229e-12
4.0405584e-12
4.088343e-12
4.0855218e-12
4.0854853e-12
4.0882378e-12
4.0404061e-12
3.7969489e-12
3.1093909e-12
1.8468481e-12
5.4359287e-13
3.4449173e-14
4.9409859e-17
3.0667588e-23
3.5922235e-24
7.5140841e-18
6.8639495e-15
1.2172121e-13
4.3660664e-13
7.5454547e-13
9.3330152e-13
9.9964605e-13
1.0148476e-12
1.015589e-12
1.0155794e-12
1.0148199e-12
9.9960564e-13
9.3325536e-13
7.5450466e-13
4.3658597e-13
1.2171641e-13
6.863778e-15
7.5138812e-18
3.3354654e-24
2.2910479e-25
1.1263742e-18
1.3415963e-15
2.6691904e-14
1.010039e-13
1.7910045e-13
2.2433159e-13
2.4180898e-13
2.4627518e-13
2.4678882e-13
2.4678635e-13
2.4626807e-13
2.4179853e-13
2.2431964e-13
1.7908988e-13
1.0099853e-13
2.6690697e-14
1.3415549e-15
1.1263344e-18
2.1220217e-25
1.3313767e-26
1.6630784e-19
2.5724123e-16
5.7338642e-15
2.2874721e-14
4.1601539e-14
5.2752945e-14
5.7214879e-14
5.8451715e-14
5.8649139e-14
5.864852e-14
5.8449931e-14
5.7212247e-14
5.2749925e-14
4.159887e-14
2.2873362e-14
5.7335684e-15
2.5723158e-16
1.6630094e-19
1.2174143e-26
6.9387708e-28
2.4169801e-20
4.8389433e-17
1.2069528e-15
5.0734616e-15
9.4602044e-15
1.2141604e-14
1.3247819e-14
1.3574417e-14
1.3636986e-14
1.3636834e-14
1.357398e-14
1.3247171e-14
1.214086e-14
9.4595475e-15
5.0731259e-15
1.2068821e-15
4.8387256e-17
2.4168662e-20
6.1946959e-28
3.2999261e-29
3.455562e-21
8.9307092e-18
2.4901865e-16
1.1024125e-15
2.1069089e-15
2.736293e-15
3.0030764e-15
3.0859057e-15
3.1037559e-15
3.1037195e-15
3.0858011e-15
3.0029205e-15
2.7361135e-15
2.106751e-15
1.1023317e-15
2.4900216e-16
8.930233e-18
3.4553761e-21
2.8475699e-29
1.479857e-30
4.8580174e-22
1.6173245e-18
5.0373275e-17
2.34766e-16
4.5974785e-16
6.0407236e-16
6.6674793e-16
6.870227e-16
6.9176754e-16
6.9175899e-16
6.8699824e-16
6.6671129e-16
6.0403013e-16
4.5971077e-16
2.3474703e-16
5.0369523e-17
1.6172229e-18
4.8577143e-22
1.2235573e-30
)
;

boundaryField
{
    Wall
    {
        type            zeroGradient;
    }
    frontAndBack
    {
        type            empty;
    }
    atmosphere
    {
        type            zeroGradient;
    }
}


// ************************************************************************* //
