/*--------------------------------*- C++ -*----------------------------------*\
| =========                 |                                                 |
| \\      /  F ield         | OpenFOAM: The Open Source CFD Toolbox           |
|  \\    /   O peration     | Version:  3.0.1                                 |
|   \\  /    A nd           | Web:      www.OpenFOAM.org                      |
|    \\/     M anipulation  |                                                 |
\*---------------------------------------------------------------------------*/
FoamFile
{
    version     2.0;
    format      ascii;
    class       volScalarField;
    location    "18";
    object      mThree;
}
// * * * * * * * * * * * * * * * * * * * * * * * * * * * * * * * * * * * * * //

dimensions      [0 0 0 0 0 0 0];

internalField   nonuniform List<scalar> 
800
(
1.6374779e-24
1.6376179e-24
1.6376099e-24
1.6375969e-24
1.6375868e-24
1.6375787e-24
1.6375728e-24
1.6375685e-24
1.6375657e-24
1.6375643e-24
1.6375644e-24
1.6375657e-24
1.6375685e-24
1.6375728e-24
1.6375788e-24
1.6375868e-24
1.6375969e-24
1.63761e-24
1.6376179e-24
1.637478e-24
1.3694776e-24
1.3772505e-24
1.3780926e-24
1.378191e-24
1.3782192e-24
1.3782837e-24
1.3783607e-24
1.3784281e-24
1.3784753e-24
1.3784992e-24
1.3784992e-24
1.3784753e-24
1.378428e-24
1.3783607e-24
1.3782837e-24
1.3782192e-24
1.3781911e-24
1.3780927e-24
1.3772506e-24
1.3694776e-24
1.1982589e-24
1.2067962e-24
1.2109076e-24
1.2111719e-24
1.2112788e-24
1.2114126e-24
1.2115495e-24
1.2116637e-24
1.2117425e-24
1.2117823e-24
1.2117824e-24
1.2117425e-24
1.2116637e-24
1.2115495e-24
1.2114126e-24
1.2112789e-24
1.211172e-24
1.2109077e-24
1.2067963e-24
1.1982589e-24
1.0116278e-24
1.023906e-24
1.0291933e-24
1.0294859e-24
1.0296238e-24
1.0297894e-24
1.0299562e-24
1.0300946e-24
1.0301899e-24
1.0302382e-24
1.0302382e-24
1.0301899e-24
1.0300946e-24
1.0299562e-24
1.0297894e-24
1.0296239e-24
1.029486e-24
1.0291934e-24
1.0239061e-24
1.0116277e-24
7.5511567e-25
7.6990688e-25
7.7483705e-25
7.7813325e-25
7.783161e-25
7.7851119e-25
7.7869526e-25
7.7884175e-25
7.7894075e-25
7.7899026e-25
7.7899026e-25
7.7894073e-25
7.7884172e-25
7.7869524e-25
7.785112e-25
7.7831611e-25
7.7813328e-25
7.7483709e-25
7.6990689e-25
7.5511557e-25
5.1346935e-25
5.2602974e-25
5.2989807e-25
5.3157788e-25
5.3186547e-25
5.3211215e-25
5.3230877e-25
5.3245116e-25
5.3254284e-25
5.325876e-25
5.325876e-25
5.3254282e-25
5.3245112e-25
5.3230874e-25
5.3211213e-25
5.3186546e-25
5.3157788e-25
5.2989808e-25
5.2602973e-25
5.1346926e-25
3.1889764e-25
3.3096915e-25
3.3417771e-25
3.3502743e-25
3.3539027e-25
3.3565795e-25
3.3584684e-25
3.3597245e-25
3.3604922e-25
3.3608564e-25
3.3608563e-25
3.360492e-25
3.3597241e-25
3.358468e-25
3.3565793e-25
3.3539026e-25
3.3502742e-25
3.3417771e-25
3.3096915e-25
3.1889759e-25
1.5413213e-25
1.647413e-25
1.6821803e-25
1.6876037e-25
1.6906882e-25
1.6927467e-25
1.6940733e-25
1.6949136e-25
1.6954021e-25
1.6956298e-25
1.6956298e-25
1.695402e-25
1.6949134e-25
1.6940731e-25
1.6927465e-25
1.6906881e-25
1.6876036e-25
1.6821803e-25
1.6474131e-25
1.5413211e-25
5.5220594e-26
6.0075579e-26
6.1745178e-26
6.203119e-26
6.2190726e-26
6.2284262e-26
6.2338836e-26
6.2371136e-26
6.2388644e-26
6.2396608e-26
6.2396606e-26
6.2388638e-26
6.2371128e-26
6.2338829e-26
6.2284261e-26
6.219073e-26
6.2031197e-26
6.1745191e-26
6.0075595e-26
5.5220601e-26
1.7778345e-26
2.0091837e-26
2.0824128e-26
2.0940079e-26
2.0984456e-26
2.100445e-26
2.1014052e-26
2.1018854e-26
2.1020891e-26
2.1021593e-26
2.1021592e-26
2.1020889e-26
2.1018851e-26
2.1014051e-26
2.1004452e-26
2.0984461e-26
2.0940085e-26
2.0824136e-26
2.0091848e-26
1.7778354e-26
4.6962154e-27
6.2634131e-27
6.670303e-27
6.7089302e-27
6.6873042e-27
6.6623768e-27
6.6438094e-27
6.6316071e-27
6.6242359e-27
6.6205948e-27
6.6205942e-27
6.6242348e-27
6.6316055e-27
6.6438085e-27
6.6623774e-27
6.6873063e-27
6.7089326e-27
6.6703066e-27
6.2634178e-27
4.6962209e-27
8.9188872e-28
1.7630756e-27
2.0381723e-27
2.0810788e-27
2.0628317e-27
2.0353649e-27
2.0123599e-27
1.9961415e-27
1.9860792e-27
1.9811849e-27
1.9811846e-27
1.9860785e-27
1.9961405e-27
2.0123591e-27
2.0353648e-27
2.0628323e-27
2.0810796e-27
2.0381735e-27
1.7630772e-27
8.9189032e-28
1.2116578e-28
4.3424783e-28
5.7831657e-28
6.1549319e-28
6.1281136e-28
5.9960945e-28
5.8638185e-28
5.7622677e-28
5.6964067e-28
5.6639006e-28
5.6638991e-28
5.6964024e-28
5.7622619e-28
5.8638133e-28
5.9960925e-28
6.1281147e-28
6.154934e-28
5.7831692e-28
4.3424826e-28
1.2116602e-28
1.2397589e-29
9.2914356e-29
1.5011623e-28
1.7101398e-28
1.7346738e-28
1.6934643e-28
1.6404025e-28
1.5958416e-28
1.5656663e-28
1.5505093e-28
1.5505087e-28
1.5656642e-28
1.5958389e-28
1.6403999e-28
1.6934629e-28
1.7346737e-28
1.7101402e-28
1.501163e-28
9.2914445e-29
1.2397611e-29
1.0194732e-30
1.7387611e-29
3.5507051e-29
4.428861e-29
4.6408162e-29
4.556006e-29
4.3877398e-29
4.2313369e-29
4.1208089e-29
4.0643313e-29
4.0643287e-29
4.1208006e-29
4.231326e-29
4.3877292e-29
4.5559995e-29
4.640814e-29
4.4288615e-29
3.5507063e-29
1.7387627e-29
1.0194748e-30
7.1304014e-32
2.8849601e-30
7.6692793e-30
1.0662119e-29
1.1678516e-29
1.1617915e-29
1.1174774e-29
1.0708354e-29
1.0363718e-29
1.0184592e-29
1.0184583e-29
1.0363689e-29
1.0708316e-29
1.1174737e-29
1.161789e-29
1.1678504e-29
1.0662118e-29
7.6692816e-30
2.8849628e-30
7.1304121e-32
4.4190533e-33
4.3100046e-31
1.5205179e-30
2.3873593e-30
2.7588102e-30
2.7992532e-30
2.7009198e-30
2.5789296e-30
2.4842742e-30
2.4341998e-30
2.4341969e-30
2.4842654e-30
2.5789178e-30
2.7009081e-30
2.7992448e-30
2.758806e-30
2.3873593e-30
1.5205185e-30
4.3100095e-31
4.4190613e-33
2.4925862e-34
5.8787567e-32
2.7844387e-31
4.9832339e-31
6.117174e-31
6.3632494e-31
6.1821834e-31
5.8972377e-31
5.6634923e-31
5.5374717e-31
5.5374634e-31
5.6634682e-31
5.8972049e-31
6.1821509e-31
6.3632254e-31
6.1171621e-31
4.9832338e-31
2.7844407e-31
5.8787655e-32
2.4925919e-34
1.3013355e-35
7.4027402e-33
4.7384999e-32
9.7263496e-32
1.274486e-31
1.3643662e-31
1.3387155e-31
1.2786315e-31
1.2260328e-31
1.1970807e-31
1.1970786e-31
1.2260267e-31
1.2786232e-31
1.3387071e-31
1.3643601e-31
1.2744831e-31
9.7263508e-32
4.7385058e-32
7.4027564e-33
1.3013389e-35
6.3549207e-37
8.6783916e-34
7.5339624e-33
1.7808033e-32
2.4991625e-32
2.7608587e-32
2.7420628e-32
2.627007e-32
2.5181363e-32
2.45682e-32
2.4568151e-32
2.5181223e-32
2.6269874e-32
2.7420433e-32
2.7608447e-32
2.4991564e-32
1.7808041e-32
7.5339769e-33
8.6784195e-34
6.3549403e-37
2.9220955e-38
9.530169e-35
1.1241075e-33
3.0676268e-33
4.6210886e-33
5.2779751e-33
5.3147959e-33
5.1143096e-33
4.9056068e-33
4.7850238e-33
4.7850133e-33
4.9055771e-33
5.1142673e-33
5.3147539e-33
5.2779456e-33
4.6210773e-33
3.0676296e-33
1.1241108e-33
9.5302108e-35
2.9221063e-38
1.2706107e-39
9.8477748e-36
1.5795873e-34
4.9848782e-34
8.0723391e-34
9.5443589e-34
9.7554747e-34
9.4383452e-34
9.0658952e-34
8.8444659e-34
8.8444448e-34
9.0658357e-34
9.4382606e-34
9.7553912e-34
9.5443019e-34
8.0723207e-34
4.9848862e-34
1.5795938e-34
9.8478329e-36
1.2706169e-39
5.2399697e-41
9.607549e-37
2.0963987e-35
7.6588177e-35
1.3345303e-34
1.6347893e-34
1.6973922e-34
1.6522664e-34
1.590147e-34
1.5520108e-34
1.5520068e-34
1.5901357e-34
1.6522504e-34
1.6973766e-34
1.634779e-34
1.3345275e-34
7.6588361e-35
2.0964105e-35
9.6076237e-37
5.2400058e-41
2.0537226e-42
8.8724389e-38
2.633947e-36
1.1147455e-35
2.0914044e-35
2.6557642e-35
2.8025269e-35
2.7460293e-35
2.6489171e-35
2.5870975e-35
2.5870902e-35
2.648897e-35
2.7460008e-35
2.8024996e-35
2.6557469e-35
2.0914007e-35
1.1147493e-35
2.6339665e-36
8.8725274e-38
2.0537418e-42
7.6617e-44
7.7717272e-39
3.1389104e-37
1.5396983e-36
3.1115235e-36
4.097209e-36
4.3957077e-36
4.3368891e-36
4.1942923e-36
4.099703e-36
4.0996904e-36
4.1942583e-36
4.3368417e-36
4.3956628e-36
4.0971815e-36
3.1115188e-36
1.5397051e-36
3.1389399e-37
7.7718235e-39
7.6617938e-44
2.7240287e-45
6.4679815e-40
3.5538622e-38
2.0211212e-37
4.40072e-37
6.0102223e-37
6.5568801e-37
6.5151993e-37
6.3182676e-37
6.1813374e-37
6.1813173e-37
6.3182138e-37
6.5151238e-37
6.5568094e-37
6.0101812e-37
4.4007145e-37
2.0211323e-37
3.5539031e-38
6.4680788e-40
2.7240707e-45
9.2394122e-47
5.1218044e-41
3.8281852e-39
2.5248112e-38
5.9242551e-38
8.3927335e-38
9.3116133e-38
9.3194144e-38
9.0634706e-38
8.8755688e-38
8.8755383e-38
9.0633901e-38
9.3193001e-38
9.3115074e-38
8.3926747e-38
5.9242494e-38
2.5248278e-38
3.8282371e-39
5.1218951e-41
9.2395836e-47
2.9923217e-48
3.8639559e-42
3.9283555e-40
3.0052166e-39
7.5999044e-39
1.1168836e-38
1.2602854e-38
1.2705588e-38
1.2392622e-38
1.2147813e-38
1.2147769e-38
1.2392506e-38
1.2705425e-38
1.2602703e-38
1.1168754e-38
7.5998983e-39
3.0052391e-39
3.9284162e-40
3.8640343e-42
2.9923854e-48
9.2608578e-50
2.7803188e-43
3.8446682e-41
3.4120996e-40
9.3007721e-40
1.4179501e-39
1.6273115e-39
1.6526174e-39
1.6166555e-39
1.5863335e-39
1.5863274e-39
1.6166397e-39
1.652595e-39
1.6272908e-39
1.4179392e-39
9.3007643e-40
3.4121278e-40
3.8447348e-41
2.7803819e-43
9.2610784e-50
2.757504e-51
1.910152e-44
3.5925495e-42
3.6993153e-41
1.0869511e-40
1.7190829e-40
2.0065726e-40
2.0527493e-40
2.0140199e-40
1.9782764e-40
1.9782685e-40
2.013999e-40
2.0527199e-40
2.0065455e-40
1.7190687e-40
1.08695e-40
3.6993479e-41
3.5926174e-42
1.9101997e-44
2.7573673e-51
8.4238081e-53
1.2542312e-45
3.2083059e-43
3.8335427e-42
1.2142257e-41
1.9921775e-41
2.3649837e-41
2.4371715e-41
2.3982648e-41
2.3581293e-41
2.3581194e-41
2.3982388e-41
2.4371347e-41
2.3649497e-41
1.9921596e-41
1.214224e-41
3.8335776e-42
3.2083704e-43
1.2542652e-45
8.4405879e-53
9.4804096e-54
7.8781077e-47
2.7408387e-44
3.8006552e-43
1.2977236e-42
2.2087479e-42
2.6667287e-42
2.7682639e-42
2.7321158e-42
2.6891557e-42
2.6891438e-42
2.7320846e-42
2.7682199e-42
2.6666878e-42
2.2087264e-42
1.297721e-42
3.8006907e-43
2.7408968e-44
7.8783362e-47
9.4569248e-54
1.0401932e-54
4.7377912e-48
2.2418525e-45
3.6080505e-44
1.3281027e-43
2.3448909e-43
2.8792317e-43
3.0107026e-43
2.9801316e-43
2.9362742e-43
2.9362605e-43
2.9800958e-43
3.0106521e-43
2.879185e-43
2.3448656e-43
1.3280991e-43
3.6080839e-44
2.2419017e-45
4.7379366e-48
1.0183004e-54
6.4908427e-56
2.7301953e-49
1.7571353e-46
3.282448e-45
1.3025681e-44
2.3856638e-44
2.9790152e-44
3.1377433e-44
3.1149808e-44
3.0722619e-44
3.0722471e-44
3.1149417e-44
3.1376878e-44
2.9789638e-44
2.3856354e-44
1.3025633e-44
3.2824771e-45
1.7571747e-46
2.730282e-49
6.3412921e-56
2.6911517e-57
1.5087244e-50
1.3207354e-47
2.8639736e-46
1.2252413e-45
2.3277632e-45
2.9559689e-45
3.136091e-45
3.1224179e-45
3.0827098e-45
3.0826944e-45
3.1223768e-45
3.1360323e-45
2.9559147e-45
2.3277324e-45
1.2252354e-45
2.863997e-46
1.320765e-47
1.5087724e-50
2.5048286e-57
6.4088375e-59
8.0009243e-52
9.5270196e-49
2.3982904e-47
1.1061386e-46
2.1798452e-46
2.8149636e-46
3.0081287e-46
3.0037046e-46
2.9684832e-46
2.9684679e-46
3.0036634e-46
3.0080694e-46
2.8149086e-46
2.179813e-46
1.1061316e-46
2.3983072e-47
9.5272287e-49
8.0011674e-52
6.0451656e-59
1.5046101e-60
4.0745628e-53
6.5997673e-50
1.9288273e-48
9.5909257e-48
1.9604978e-47
2.5744746e-47
2.771011e-47
2.7749277e-47
2.7451232e-47
2.7451085e-47
2.7748879e-47
2.7709536e-47
2.5744208e-47
1.9604655e-47
9.5908484e-48
1.9288379e-48
6.5999048e-50
4.0746771e-53
1.4459452e-60
3.3254217e-62
1.9939356e-54
4.3935177e-51
1.4908153e-49
7.9919689e-49
1.6944956e-48
2.2627027e-48
2.4529843e-48
2.4635151e-48
2.4394695e-48
2.4394561e-48
2.4634784e-48
2.452931e-48
2.262652e-48
1.6944645e-48
7.991887e-49
1.4908203e-49
4.3936019e-51
1.9939869e-54
3.2165048e-62
6.6387517e-64
9.3819535e-56
2.8123781e-52
1.1080435e-50
6.4040129e-50
1.4083518e-49
1.9122877e-49
2.0879988e-49
2.1029673e-49
2.0844907e-49
2.0844789e-49
2.1029347e-49
2.087951e-49
1.9122415e-49
1.4083229e-49
6.4039309e-50
1.1080442e-50
2.8124251e-52
9.3821781e-56
6.349734e-64
1.1665419e-65
4.2469446e-57
1.7320591e-53
7.9239252e-52
4.9374538e-51
1.126227e-50
1.5549404e-50
1.7099881e-50
1.7271587e-50
1.7136592e-50
1.7136492e-50
1.7271307e-50
1.7099469e-50
1.5549e-50
1.1262012e-50
4.9373762e-51
7.9239047e-52
1.7320823e-53
4.2470396e-57
1.0853248e-65
)
;

boundaryField
{
    Wall
    {
        type            zeroGradient;
    }
    frontAndBack
    {
        type            empty;
    }
    atmosphere
    {
        type            zeroGradient;
    }
}


// ************************************************************************* //
