/*--------------------------------*- C++ -*----------------------------------*\
| =========                 |                                                 |
| \\      /  F ield         | OpenFOAM: The Open Source CFD Toolbox           |
|  \\    /   O peration     | Version:  3.0.1                                 |
|   \\  /    A nd           | Web:      www.OpenFOAM.org                      |
|    \\/     M anipulation  |                                                 |
\*---------------------------------------------------------------------------*/
FoamFile
{
    version     2.0;
    format      ascii;
    class       volScalarField;
    location    "18";
    object      mTwo;
}
// * * * * * * * * * * * * * * * * * * * * * * * * * * * * * * * * * * * * * //

dimensions      [0 0 0 0 0 0 0];

internalField   nonuniform List<scalar> 
800
(
3.2192375e-12
3.2193666e-12
3.2193436e-12
3.2193213e-12
3.2193042e-12
3.2192906e-12
3.2192805e-12
3.2192732e-12
3.2192685e-12
3.2192662e-12
3.2192662e-12
3.2192685e-12
3.2192732e-12
3.2192805e-12
3.2192907e-12
3.2193042e-12
3.2193213e-12
3.2193437e-12
3.2193666e-12
3.2192375e-12
2.8354198e-12
2.8464608e-12
2.8476365e-12
2.84779e-12
2.8478461e-12
2.8479481e-12
2.8480637e-12
2.8481631e-12
2.8482322e-12
2.8482673e-12
2.8482673e-12
2.8482322e-12
2.848163e-12
2.8480637e-12
2.8479481e-12
2.8478461e-12
2.8477901e-12
2.8476366e-12
2.8464609e-12
2.8354197e-12
2.5320778e-12
2.5450559e-12
2.5507221e-12
2.5511292e-12
2.5512992e-12
2.5515037e-12
2.5517097e-12
2.5518803e-12
2.5519978e-12
2.5520572e-12
2.5520572e-12
2.5519977e-12
2.5518803e-12
2.5517097e-12
2.5515038e-12
2.5512993e-12
2.5511294e-12
2.5507222e-12
2.545056e-12
2.5320777e-12
2.1896863e-12
2.2086745e-12
2.2161232e-12
2.216567e-12
2.2167833e-12
2.2170376e-12
2.2172913e-12
2.2175007e-12
2.2176445e-12
2.2177173e-12
2.2177173e-12
2.2176445e-12
2.2175007e-12
2.2172912e-12
2.2170376e-12
2.2167833e-12
2.2165671e-12
2.2161233e-12
2.2086745e-12
2.1896861e-12
1.7379491e-12
1.7621701e-12
1.7695733e-12
1.7743221e-12
1.7746201e-12
1.7749333e-12
1.7752253e-12
1.7754562e-12
1.7756114e-12
1.7756889e-12
1.7756889e-12
1.7756114e-12
1.7754561e-12
1.7752253e-12
1.7749333e-12
1.7746201e-12
1.7743221e-12
1.7695734e-12
1.7621702e-12
1.7379489e-12
1.2863189e-12
1.3099265e-12
1.3163785e-12
1.3191129e-12
1.3196234e-12
1.320051e-12
1.3203862e-12
1.3206255e-12
1.3207785e-12
1.320853e-12
1.320853e-12
1.3207785e-12
1.3206254e-12
1.3203862e-12
1.320051e-12
1.3196233e-12
1.3191129e-12
1.3163785e-12
1.3099265e-12
1.2863187e-12
8.7948581e-13
9.0531707e-13
9.1166168e-13
9.1336566e-13
9.1409164e-13
9.1460638e-13
9.1496027e-13
9.1518963e-13
9.1532822e-13
9.1539312e-13
9.1539312e-13
9.1532818e-13
9.1518957e-13
9.1496021e-13
9.1460635e-13
9.1409163e-13
9.1336567e-13
9.1166172e-13
9.053171e-13
8.7948573e-13
4.9665953e-13
5.2265203e-13
5.3074285e-13
5.3208954e-13
5.3281608e-13
5.3327603e-13
5.3356108e-13
5.3373591e-13
5.3383535e-13
5.3388054e-13
5.3388053e-13
5.3383531e-13
5.3373586e-13
5.3356104e-13
5.3327601e-13
5.3281608e-13
5.3208956e-13
5.3074289e-13
5.2265208e-13
4.9665952e-13
2.2782916e-13
2.433564e-13
2.4835907e-13
2.4928585e-13
2.4974587e-13
2.4999062e-13
2.501223e-13
2.5019531e-13
2.5023243e-13
2.5024798e-13
2.5024797e-13
2.5023241e-13
2.5019529e-13
2.5012229e-13
2.4999063e-13
2.497459e-13
2.4928589e-13
2.4835913e-13
2.4335648e-13
2.278292e-13
9.5317036e-14
1.0616856e-13
1.0957214e-13
1.1014201e-13
1.1025769e-13
1.102617e-13
1.1024211e-13
1.1022324e-13
1.1020866e-13
1.1019982e-13
1.1019981e-13
1.1020865e-13
1.1022323e-13
1.102421e-13
1.1026172e-13
1.1025772e-13
1.1014205e-13
1.0957219e-13
1.0616862e-13
9.5317093e-14
3.3102028e-14
4.3624732e-14
4.6694021e-14
4.7156919e-14
4.7010092e-14
4.6784331e-14
4.6603416e-14
4.6482146e-14
4.6408884e-14
4.6372657e-14
4.6372652e-14
4.6408876e-14
4.6482132e-14
4.660341e-14
4.6784338e-14
4.7010109e-14
4.7156941e-14
4.6694047e-14
4.3624766e-14
3.3102069e-14
8.4983379e-15
1.6453659e-14
1.9250708e-14
1.9867042e-14
1.9766973e-14
1.9508258e-14
1.9271494e-14
1.9100532e-14
1.8993654e-14
1.8941248e-14
1.8941244e-14
1.8993646e-14
1.910052e-14
1.9271486e-14
1.9508259e-14
1.9766981e-14
1.9867053e-14
1.925072e-14
1.6453675e-14
8.4983532e-15
1.6076809e-15
5.5808573e-15
7.5269199e-15
8.1360168e-15
8.1653443e-15
8.0099635e-15
7.8345381e-15
7.6959466e-15
7.6051882e-15
7.5600019e-15
7.5599989e-15
7.6051813e-15
7.6959367e-15
7.8345308e-15
8.0099617e-15
8.1653468e-15
8.1360215e-15
7.5269245e-15
5.5808628e-15
1.6076842e-15
2.3543285e-16
1.6961539e-15
2.7624578e-15
3.2018232e-15
3.2841721e-15
3.2221296e-15
3.1259194e-15
3.0422538e-15
2.9849156e-15
2.9558388e-15
2.9558369e-15
2.984911e-15
3.0422471e-15
3.1259141e-15
3.2221275e-15
3.2841722e-15
3.2018251e-15
2.7624592e-15
1.6961555e-15
2.3543329e-16
2.8415722e-17
4.6456981e-16
9.4949905e-16
1.203656e-15
1.2773461e-15
1.2624867e-15
1.2192384e-15
1.1773272e-15
1.1472885e-15
1.1317793e-15
1.1317782e-15
1.1472857e-15
1.1773233e-15
1.2192352e-15
1.2624851e-15
1.2773457e-15
1.2036567e-15
9.4949944e-16
4.645702e-16
2.841577e-17
2.9861809e-18
1.1597858e-16
3.0630891e-16
4.3147629e-16
4.7856517e-16
4.7969153e-16
4.6306953e-16
4.4469646e-16
4.3090562e-16
4.2365952e-16
4.2365893e-16
4.3090421e-16
4.4469441e-16
4.6306783e-16
4.7969057e-16
4.7856475e-16
4.3147654e-16
3.0630904e-16
1.1597867e-16
2.9861862e-18
2.8424787e-19
2.6741943e-17
9.3159532e-17
1.4760398e-16
1.7245586e-16
1.7627573e-16
1.7075417e-16
1.6349923e-16
1.577753e-16
1.5471431e-16
1.5471402e-16
1.5777465e-16
1.6349824e-16
1.7075335e-16
1.7627524e-16
1.7245561e-16
1.4760409e-16
9.3159588e-17
2.6741968e-17
2.8424851e-19
2.5143884e-20
5.764798e-18
2.6853197e-17
4.8289043e-17
5.9780565e-17
6.2575523e-17
6.1021233e-17
5.8397608e-17
5.62086e-17
5.5016355e-17
5.5016229e-17
5.6208315e-17
5.8397168e-17
6.1020862e-17
6.2575292e-17
5.9780439e-17
4.8289084e-17
2.6853225e-17
5.7648057e-18
2.5143964e-20
2.1000495e-21
1.1733641e-18
7.3743449e-18
1.5148662e-17
1.995408e-17
2.1455926e-17
2.1116692e-17
2.0239417e-17
1.9458468e-17
1.9024743e-17
1.9024692e-17
1.9458351e-17
2.0239234e-17
2.1116535e-17
2.1455828e-17
1.9954024e-17
1.5148677e-17
7.3743577e-18
1.1733665e-18
2.1000584e-21
1.6723457e-22
2.2719806e-19
1.9383552e-18
4.5696753e-18
6.4231343e-18
7.1100695e-18
7.0760053e-18
6.8035057e-18
6.5413945e-18
6.3927005e-18
6.3926806e-18
6.5413493e-18
6.8034341e-18
7.0759433e-18
7.1100313e-18
6.4231122e-18
4.5696811e-18
1.9383602e-18
2.2719876e-19
1.6723552e-22
1.2774509e-23
4.208759e-20
4.8962868e-19
1.3290404e-18
1.9973215e-18
2.2793971e-18
2.2971056e-18
2.2184554e-18
2.1352043e-18
2.086853e-18
2.0868459e-18
2.1351877e-18
2.2184289e-18
2.2970824e-18
2.2793828e-18
1.9973133e-18
1.3290424e-18
4.8963046e-19
4.2087771e-20
1.2774605e-23
9.3961833e-25
7.4913598e-21
1.192635e-19
3.7359114e-19
6.010268e-19
7.0781379e-19
7.2304487e-19
7.0206313e-19
6.7693879e-19
6.6195488e-19
6.619524e-19
6.7693292e-19
7.0205381e-19
7.230366e-19
7.0780871e-19
6.0102391e-19
3.7359178e-19
1.1926408e-19
7.491403e-21
9.3962772e-25
6.6720428e-26
1.2856577e-21
2.8095168e-20
1.0172413e-19
1.7531616e-19
2.1317924e-19
2.208949e-19
2.1579672e-19
2.0857377e-19
2.041328e-19
2.0413197e-19
2.0857177e-19
2.1579356e-19
2.2089207e-19
2.131775e-19
1.7531517e-19
1.0172431e-19
2.8095343e-20
1.2856673e-21
6.6721313e-26
4.5820266e-27
2.1336042e-22
6.4173648e-21
2.6883678e-20
4.9650979e-20
6.2355576e-20
6.5572851e-20
6.4484383e-20
6.2503874e-20
6.1241812e-20
6.1241545e-20
6.2503214e-20
6.4483357e-20
6.5571918e-20
6.2355e-20
4.9650659e-20
2.6883724e-20
6.417414e-21
2.1336243e-22
4.5821047e-27
3.0476137e-28
3.4328454e-23
1.4245576e-21
6.9083204e-21
1.3672743e-20
1.7736515e-20
1.8935075e-20
1.8751163e-20
1.8233326e-20
1.7888819e-20
1.7888735e-20
1.8233116e-20
1.8750841e-20
1.8934777e-20
1.7736328e-20
1.3672643e-20
6.9083304e-21
1.4245705e-21
3.4328844e-23
3.0476787e-28
1.9655452e-29
5.3678479e-24
3.0796643e-22
1.7289326e-21
3.6660165e-21
4.9118877e-21
5.3245698e-21
5.3111369e-21
5.1822753e-21
5.0918506e-21
5.0918256e-21
5.1822109e-21
5.311039e-21
5.3244774e-21
4.911829e-21
3.6659857e-21
1.7289342e-21
3.0796959e-22
5.3679199e-24
1.9655962e-29
1.2305564e-30
8.1765458e-25
6.4960245e-23
4.2202186e-22
9.5824559e-22
1.3258643e-21
1.4595421e-21
1.4666801e-21
1.4362952e-21
1.4134656e-21
1.4134583e-21
1.436276e-21
1.4666512e-21
1.4595142e-21
1.3258461e-21
9.5823638e-22
4.2202191e-22
6.4960968e-23
8.1766711e-25
1.2305941e-30
7.4865412e-32
1.2160919e-25
1.3392409e-23
1.0060128e-22
2.4444458e-22
3.4918751e-22
3.9036105e-22
3.9522636e-22
3.8849481e-22
3.8295298e-22
3.829509e-22
3.8848922e-22
3.9521804e-22
3.9035284e-22
3.4918197e-22
2.4444188e-22
1.0060117e-22
1.3392564e-23
1.2161125e-25
7.4868057e-32
4.431026e-33
1.7700461e-26
2.7027642e-24
2.3446507e-23
6.0915755e-23
8.9809122e-23
1.0195243e-22
1.0400615e-22
1.0262776e-22
1.0133604e-22
1.0133546e-22
1.0262617e-22
1.0400381e-22
1.0195007e-22
8.9807474e-23
6.0914971e-23
2.3446443e-23
2.7027955e-24
1.7700785e-26
4.431203e-33
2.7536056e-34
2.5270021e-27
5.3467716e-25
5.3479916e-24
1.484223e-23
2.257532e-23
2.6021622e-23
2.674729e-23
2.6495407e-23
2.6207073e-23
2.6206916e-23
2.6494966e-23
2.6746648e-23
2.602096e-23
2.2574841e-23
1.4842007e-23
5.3479661e-24
5.34683e-25
2.5270506e-27
2.7512144e-34
2.8298601e-35
3.5463472e-28
1.0380687e-25
1.1948521e-24
3.5384903e-24
5.5501967e-24
6.4947873e-24
6.7263602e-24
6.6889791e-24
6.6276261e-24
6.6275838e-24
6.6888597e-24
6.7261876e-24
6.494606e-24
5.550061e-24
3.5384282e-24
1.1948434e-24
1.0380786e-25
3.5464162e-28
2.8756062e-35
1.2571345e-35
4.9024102e-29
1.9799232e-26
2.6167792e-25
8.2598921e-25
1.3354173e-24
1.5861529e-24
1.6550157e-24
1.6521994e-24
1.6398538e-24
1.6398427e-24
1.6521678e-24
1.6549704e-24
1.5861044e-24
1.3353799e-24
8.2597228e-25
2.6167524e-25
1.9799383e-26
4.9025033e-29
1.2666851e-35
3.3988263e-36
6.6881663e-30
3.7129244e-27
5.6210734e-26
1.8889511e-25
3.1463121e-25
3.7923014e-25
3.9862329e-25
3.9947075e-25
3.9715559e-25
3.9715272e-25
3.9946257e-25
3.9861157e-25
3.7921747e-25
3.1462117e-25
1.888906e-25
5.6209962e-26
3.7129428e-27
6.6882833e-30
3.3702084e-36
5.142638e-37
9.0193923e-31
6.8503295e-28
1.1849437e-26
4.2342746e-26
7.2623721e-26
8.8806292e-26
9.4028139e-26
9.4583441e-26
9.4190657e-26
9.4189936e-26
9.4581377e-26
9.4025178e-26
8.8803058e-26
7.2621101e-26
4.2341568e-26
1.1849226e-26
6.8503401e-28
9.0195032e-31
5.0273953e-37
5.2377006e-38
1.2038682e-31
1.244077e-28
2.4524099e-27
9.3077775e-27
1.6430147e-26
2.0377691e-26
2.1730391e-26
2.1939468e-26
2.1883478e-26
2.1883301e-26
2.1938959e-26
2.1729657e-26
2.0376883e-26
1.6429481e-26
9.3074772e-27
2.4523551e-27
1.2440737e-28
1.2038731e-31
4.878809e-38
3.0560796e-39
1.5918734e-32
2.2247232e-29
4.9850123e-28
2.0072333e-27
3.6447519e-27
4.5836322e-27
4.9222019e-27
4.9874727e-27
4.9824896e-27
4.9824471e-27
4.9873498e-27
4.9220239e-27
4.5834345e-27
3.644587e-27
2.0071587e-27
4.9848752e-28
2.224706e-29
1.5918673e-32
2.8500738e-39
1.6599594e-40
2.0864182e-33
3.9183204e-30
9.9553034e-29
4.2480999e-28
7.930897e-28
1.0110457e-27
1.0931815e-27
1.1115618e-27
1.1121197e-27
1.1121097e-27
1.1115327e-27
1.0931393e-27
1.0109985e-27
7.9304989e-28
4.2479188e-28
9.9549721e-29
3.9182667e-30
2.0863975e-33
1.5352974e-40
8.1929202e-42
2.7110775e-34
6.7980166e-31
1.9537876e-29
8.8264151e-29
1.6933974e-28
2.1877274e-28
2.381325e-28
2.429604e-28
2.4343391e-28
2.4343159e-28
2.4295367e-28
2.3812268e-28
2.1876166e-28
1.6933036e-28
8.8259855e-29
1.9537099e-29
6.7978766e-31
2.7110367e-34
7.4338611e-42
3.6995409e-43
3.4920728e-35
1.1618703e-31
3.7691336e-30
1.8009653e-29
3.5491552e-29
4.6454375e-29
5.0896396e-29
5.2099472e-29
5.2273528e-29
5.2273e-29
5.2097946e-29
5.0894158e-29
4.6451836e-29
3.5489393e-29
1.8008658e-29
3.768957e-30
1.1618372e-31
3.492e-35
3.2610708e-43
1.5646062e-44
4.457346e-36
1.9563361e-32
7.1490065e-31
3.6098556e-30
7.3040333e-30
9.6831547e-30
1.0676846e-29
1.0964081e-29
1.101537e-29
1.1015252e-29
1.0963742e-29
1.0676345e-29
9.6825849e-30
7.3035475e-30
3.6096308e-30
7.1486157e-31
1.9562626e-32
4.4572189e-36
1.3281933e-44
)
;

boundaryField
{
    Wall
    {
        type            zeroGradient;
    }
    frontAndBack
    {
        type            empty;
    }
    atmosphere
    {
        type            zeroGradient;
    }
}


// ************************************************************************* //
