/*--------------------------------*- C++ -*----------------------------------*\
| =========                 |                                                 |
| \\      /  F ield         | OpenFOAM: The Open Source CFD Toolbox           |
|  \\    /   O peration     | Version:  3.0.1                                 |
|   \\  /    A nd           | Web:      www.OpenFOAM.org                      |
|    \\/     M anipulation  |                                                 |
\*---------------------------------------------------------------------------*/
FoamFile
{
    version     2.0;
    format      ascii;
    class       volScalarField;
    location    "18";
    object      mZero;
}
// * * * * * * * * * * * * * * * * * * * * * * * * * * * * * * * * * * * * * //

dimensions      [0 0 0 0 0 0 0];

internalField   nonuniform List<scalar> 
800
(
1e+13
1e+13
1e+13
1e+13
1e+13
1e+13
1e+13
1e+13
1e+13
1e+13
1e+13
1e+13
1e+13
1e+13
1e+13
1e+13
1e+13
1e+13
1e+13
1e+13
1e+13
1e+13
1e+13
1e+13
1e+13
1e+13
1e+13
1e+13
1e+13
1e+13
1e+13
1e+13
1e+13
1e+13
1e+13
1e+13
1e+13
1e+13
1e+13
1e+13
9.5785592e+12
9.5834186e+12
9.5842902e+12
9.584401e+12
9.5843603e+12
9.5843513e+12
9.5843628e+12
9.5843809e+12
9.5843964e+12
9.5844053e+12
9.5844053e+12
9.5843964e+12
9.5843809e+12
9.5843627e+12
9.5843512e+12
9.5843602e+12
9.5844009e+12
9.5842901e+12
9.5834185e+12
9.578559e+12
8.8783798e+12
8.8907181e+12
8.8924192e+12
8.8923964e+12
8.8922811e+12
8.8922405e+12
8.8922468e+12
8.8922682e+12
8.8922875e+12
8.8922988e+12
8.8922988e+12
8.8922875e+12
8.8922682e+12
8.8922468e+12
8.8922405e+12
8.8922811e+12
8.8923964e+12
8.8924192e+12
8.8907181e+12
8.8783795e+12
7.9962111e+12
8.0197584e+12
8.0225428e+12
8.0224289e+12
8.0222867e+12
8.0222273e+12
8.0222119e+12
8.0222107e+12
8.0222113e+12
8.0222121e+12
8.0222121e+12
8.0222113e+12
8.0222107e+12
8.022212e+12
8.0222275e+12
8.0222869e+12
8.0224291e+12
8.022543e+12
8.0197586e+12
7.9962111e+12
6.980022e+12
7.0223293e+12
7.0280972e+12
7.0290288e+12
7.0291293e+12
7.0291199e+12
7.0290756e+12
7.0290063e+12
7.0289551e+12
7.0289271e+12
7.0289271e+12
7.0289552e+12
7.0290065e+12
7.0290759e+12
7.0291203e+12
7.0291298e+12
7.0290293e+12
7.0280977e+12
7.0223299e+12
6.9800225e+12
5.8656292e+12
5.9359305e+12
5.949836e+12
5.9531511e+12
5.9538903e+12
5.9539285e+12
5.9537949e+12
5.9535905e+12
5.9534397e+12
5.9533473e+12
5.9533474e+12
5.9534398e+12
5.9535907e+12
5.9537953e+12
5.9539291e+12
5.9538911e+12
5.953152e+12
5.9498369e+12
5.9359315e+12
5.8656303e+12
4.6920755e+12
4.8032065e+12
4.834521e+12
4.842763e+12
4.844499e+12
4.8443476e+12
4.8438091e+12
4.8433106e+12
4.8429438e+12
4.8427159e+12
4.842716e+12
4.8429439e+12
4.8433108e+12
4.8438096e+12
4.8443483e+12
4.8445e+12
4.8427643e+12
4.8345222e+12
4.8032079e+12
4.6920772e+12
3.430204e+12
3.6099444e+12
3.6775121e+12
3.6962442e+12
3.6994391e+12
3.6982793e+12
3.6964636e+12
3.6951419e+12
3.6942298e+12
3.6937008e+12
3.6937008e+12
3.6942298e+12
3.6951418e+12
3.696464e+12
3.69828e+12
3.6994403e+12
3.6962459e+12
3.6775135e+12
3.6099463e+12
3.4302065e+12
2.1393724e+12
2.4116702e+12
2.5342083e+12
2.5724899e+12
2.578327e+12
2.5747113e+12
2.5699345e+12
2.5665897e+12
2.5644365e+12
2.5632868e+12
2.5632866e+12
2.5644363e+12
2.5665891e+12
2.5699345e+12
2.5747118e+12
2.578328e+12
2.5724914e+12
2.5342095e+12
2.4116721e+12
2.1393751e+12
1.0408416e+12
1.4309481e+12
1.6026034e+12
1.6627841e+12
1.6727003e+12
1.6656708e+12
1.6560885e+12
1.6490046e+12
1.6445099e+12
1.6422277e+12
1.6422273e+12
1.6445093e+12
1.6490033e+12
1.656088e+12
1.6656709e+12
1.6727008e+12
1.662785e+12
1.602604e+12
1.4309495e+12
1.0408437e+12
3.5916713e+11
7.5298603e+11
9.4058733e+11
1.0141099e+12
1.0294494e+12
1.0217635e+12
1.0090399e+12
9.9875439e+11
9.920118e+11
9.8861673e+11
9.8861619e+11
9.9201096e+11
9.9875282e+11
1.0090389e+12
1.0217631e+12
1.0294493e+12
1.0141103e+12
9.4058745e+11
7.5298663e+11
3.5916814e+11
8.8235016e+10
3.498234e+11
5.1048567e+11
5.8323173e+11
6.0295775e+11
5.9839635e+11
5.8678663e+11
5.7640251e+11
5.6927936e+11
5.65652e+11
5.6565149e+11
5.6927844e+11
5.7640092e+11
5.8678548e+11
5.9839569e+11
6.0295726e+11
5.8323163e+11
5.1048542e+11
3.4982349e+11
8.8235299e+10
1.6328847e+10
1.4345788e+11
2.5579305e+11
3.1561916e+11
3.3567231e+11
3.3486306e+11
3.2674553e+11
3.1861896e+11
3.1277695e+11
3.0975449e+11
3.0975407e+11
3.1277613e+11
3.186176e+11
3.2674445e+11
3.3486233e+11
3.3567166e+11
3.1561887e+11
2.557927e+11
1.4345777e+11
1.63289e+10
2.4389526e+09
5.2257246e+10
1.1857197e+11
1.606905e+11
1.7744066e+11
1.7893878e+11
1.7432042e+11
1.6902598e+11
1.6503406e+11
1.6293493e+11
1.6293463e+11
1.6503342e+11
1.6902497e+11
1.7431955e+11
1.7893813e+11
1.7744005e+11
1.6069018e+11
1.1857169e+11
5.2257138e+10
2.4389605e+09
3.1205325e+08
1.7130095e+10
5.1084259e+10
7.7105592e+10
8.9080306e+10
9.127043e+10
8.9091069e+10
8.6098207e+10
8.3724214e+10
8.2455351e+10
8.2455157e+10
8.3723779e+10
8.6097526e+10
8.9090454e+10
9.1269946e+10
8.9079835e+10
7.7105336e+10
5.1084081e+10
1.7130032e+10
3.1205433e+08
35697372
5.1354601e+09
2.0584847e+10
3.4974198e+10
4.2523263e+10
4.4448409e+10
4.3616044e+10
4.2112742e+10
4.0850276e+10
4.0163927e+10
4.0163812e+10
4.0850006e+10
4.2112326e+10
4.361565e+10
4.4448087e+10
4.2522952e+10
3.4974027e+10
2.0584751e+10
5.1354324e+09
35697515
3756054.4
1.4301166e+09
7.8118948e+09
1.5049447e+10
1.93369e+10
2.0684409e+10
2.0459972e+10
1.9780239e+10
1.9169402e+10
1.8831055e+10
1.8830992e+10
1.9169248e+10
1.9780005e+10
2.0459741e+10
2.0684215e+10
1.9336718e+10
1.5049346e+10
7.8118505e+09
1.4301064e+09
3756072.2
370294.65
3.7485541e+08
2.8103379e+09
6.1655722e+09
8.3942786e+09
9.2090496e+09
9.2017181e+09
8.923652e+09
8.6516856e+09
8.4977763e+09
8.4977445e+09
8.6516035e+09
8.9235295e+09
9.2015922e+09
9.2089419e+09
8.3941812e+09
6.1655187e+09
2.8103189e+09
3.7485212e+08
370296.68
34636.754
93454683
9.6388041e+08
2.4130221e+09
3.4861998e+09
3.9280793e+09
3.9709841e+09
3.86838e+09
3.756129e+09
3.6909621e+09
3.6909469e+09
3.7560881e+09
3.8683196e+09
3.9709202e+09
3.9280238e+09
3.486152e+09
2.4129961e+09
9.6387278e+08
93453724
34636.966
3102.6088
22339405
3.1664086e+08
9.0481446e+08
1.3879766e+09
1.6075902e+09
1.6459475e+09
1.6123133e+09
1.5691733e+09
1.5433309e+09
1.543324e+09
1.5691541e+09
1.6122852e+09
1.645917e+09
1.6075633e+09
1.3879548e+09
9.0480278e+08
3.16638e+08
22339142
3102.6288
268.18652
5151004.5
99993761
3.2587332e+08
5.307434e+08
6.3215916e+08
6.5596061e+08
6.465754e+08
6.3110843e+08
6.2146856e+08
6.2146557e+08
6.3109988e+08
6.4656305e+08
6.5594689e+08
6.3214684e+08
5.3073401e+08
3.2586841e+08
99992734
5150936.4
268.18824
22.527296
1150729.9
30440598
1.1296144e+08
1.9524807e+08
2.3918321e+08
2.5162282e+08
2.4968549e+08
2.4451665e+08
2.4112435e+08
2.411231e+08
2.4451301e+08
2.4968028e+08
2.5161693e+08
2.3917786e+08
1.9524423e+08
1.1295948e+08
30440246
1150713.1
22.527426
1.8514963
249838.42
8952106
37753171
69204862
87186434
93003157
92929074
91326399
90198503
90198001
91324922
92926972
93000755
87184226
69203357
37752436
8951990.4
249834.43
1.8515038
0.14990964
52825.169
2547323.9
12182839
23665425
30655283
33157192
33364792
32908728
32554366
32554171
32908154
33363978
33156252
30654412
23664859
12182575
2547287.1
52824.25
0.14990979
0.012034282
10890.872
702206.52
3800622.4
7817082.4
10408570
11413957
11566592
11450320
11345288
11345216
11450107
11566288
11413604
10408241
7816877.4
3800531.8
702195.23
10890.666
0.012034238
0.0009630772
2190.8709
187711.81
1147479.7
2496944.9
3416402.1
3797586.6
3875311.5
3850299.6
3821052.9
3821026.9
3850223.1
3875202
3797458.7
3416282.8
2496872.9
1147449.7
187708.44
2190.8261
0.00096306771
7.7123405e-05
430.15794
48698.534
335617.52
772065.68
1085121.3
1222404.7
1256015.4
1252356.3
1244769.8
1244760.7
1252329.8
1255977.4
1222360.1
1085079.6
772041.15
335607.89
48697.556
430.14839
7.712207e-05
6.1898133e-06
82.437188
12269.98
95179.869
231313.51
333840.06
381039.48
394157.62
394372.56
392570.01
392566.97
394363.69
394144.82
381024.45
333826.02
231305.38
95176.873
12269.705
82.435194
6.1896562e-06
7.2075944e-07
15.420039
3004.3828
26194.73
67212.24
99575.428
115125.98
119874.11
120342.47
119964.46
119963.47
120339.6
119869.94
115121.08
99570.862
67209.627
26193.825
3004.3072
15.419632
7.1792536e-07
2.2671933e-07
2.815084
715.34546
7001.6625
18957.366
28820.899
33745.433
35362.937
35616.303
35553.199
35552.887
35615.401
35361.623
33743.891
28819.465
18956.55
7001.3966
715.32519
2.8150026
2.3314673e-07
1.5928636e-07
0.50157274
165.7237
1819.0456
5194.6524
8101.7582
9604.4831
10127.852
10232.33
10227.597
10227.501
10232.055
10127.45
9604.0124
8101.3219
5194.4054
1818.9697
165.71844
0.50155677
1.6103337e-07
5.409595e-08
0.087224145
37.3782
459.69227
1384.0034
2213.7563
2656.5516
2818.3948
2856.0532
2858.3045
2858.2762
2855.9721
2818.2756
2656.4125
2213.6277
1383.9308
459.67115
37.376869
0.087221052
5.3780747e-08
1.0093667e-08
0.014806669
8.2124575
113.08075
358.80698
588.45007
714.66837
762.71291
775.14906
776.68649
776.67835
775.12584
762.67861
714.62844
588.41334
358.78628
113.07502
8.2121295
0.014806041
9.8529342e-09
1.2404871e-09
0.002454035
1.758752
27.096666
90.585142
152.28518
187.14503
200.88329
204.7304
205.37039
205.36813
204.72395
200.87369
187.13389
152.275
90.579405
27.095152
1.7586731
0.0024539106
1.1491681e-09
8.3219606e-11
0.00039720939
0.36733958
6.3291915
22.286578
38.397364
47.739006
51.533247
52.662057
52.88427
52.88366
52.660313
51.530642
47.735986
38.394616
22.285035
6.3288016
0.36732106
0.0003971866
7.6743628e-11
5.0187267e-12
6.2807903e-05
0.074871379
1.4420382
5.3472102
9.439676
11.871679
12.88601
13.202636
13.272181
13.272021
13.202177
12.885322
11.870883
9.438955
5.3468065
1.4419402
0.074867131
6.2803975e-05
4.5585002e-12
2.6953722e-13
9.7057007e-06
0.014900456
0.32068891
1.2520019
2.2642784
2.8800869
3.1430508
3.2284074
3.2486599
3.2486188
3.2282898
3.1428741
2.8798821
2.2640941
1.2518991
0.32066489
0.014899504
9.7050431e-06
2.3845728e-13
1.3202737e-14
1.4663332e-06
0.002897118
0.069653661
0.28626131
0.53029046
0.68210809
0.74832397
0.77052507
0.77610352
0.77609324
0.77049572
0.74827973
0.68205681
0.53024453
0.28623583
0.069647915
0.0028969095
1.4662241e-06
1.126173e-14
6.1257532e-16
2.1667902e-07
0.00055063002
0.014785057
0.063955291
0.12133678
0.15781319
0.1740304
0.17961821
0.18108574
0.18108324
0.17961107
0.1740196
0.15780067
0.12132561
0.063949135
0.014783716
0.00055058531
2.1666103e-07
4.9951289e-16
)
;

boundaryField
{
    Wall
    {
        type            zeroGradient;
    }
    frontAndBack
    {
        type            empty;
    }
    atmosphere
    {
        type            zeroGradient;
    }
}


// ************************************************************************* //
