/*--------------------------------*- C++ -*----------------------------------*\
| =========                 |                                                 |
| \\      /  F ield         | OpenFOAM: The Open Source CFD Toolbox           |
|  \\    /   O peration     | Version:  3.0.1                                 |
|   \\  /    A nd           | Web:      www.OpenFOAM.org                      |
|    \\/     M anipulation  |                                                 |
\*---------------------------------------------------------------------------*/
FoamFile
{
    version     2.0;
    format      ascii;
    class       surfaceScalarField;
    location    "18";
    object      phi;
}
// * * * * * * * * * * * * * * * * * * * * * * * * * * * * * * * * * * * * * //

dimensions      [0 3 -1 0 0 0 0];

internalField   nonuniform List<scalar> 
1540
(
2.4864662e-10
2.1444988e-08
2.4297726e-10
2.1712959e-08
1.8667317e-10
2.1764664e-08
1.4052792e-10
2.1755215e-08
1.0694163e-10
2.1743217e-08
8.1878771e-11
2.1735195e-08
6.083514e-11
2.1731555e-08
4.0815977e-11
2.1730779e-08
2.059213e-11
2.1731128e-08
1.6774583e-14
2.1731543e-08
-2.0560819e-11
2.1731543e-08
-4.0790234e-11
2.1731126e-08
-6.0816017e-11
2.1730776e-08
-8.1865637e-11
2.1731552e-08
-1.0693102e-10
2.1735191e-08
-1.4051654e-10
2.1743213e-08
-1.8665959e-10
2.1755212e-08
-2.4296159e-10
2.1764661e-08
-2.4863459e-10
2.1712957e-08
2.144498e-08
1.1216885e-10
4.3426872e-08
1.4921639e-10
4.3751664e-08
1.307296e-10
4.3873977e-08
1.1035343e-10
4.3866178e-08
9.0206764e-11
4.3853041e-08
7.2711191e-11
4.3841843e-08
5.5741776e-11
4.3837352e-08
3.807042e-11
4.3837093e-08
1.9395309e-11
4.3838347e-08
1.5266443e-14
4.3839422e-08
-1.9366202e-11
4.3839421e-08
-3.8045761e-11
4.3838344e-08
-5.5722192e-11
4.3837087e-08
-7.2696165e-11
4.3837345e-08
-9.0194254e-11
4.3841834e-08
-1.1034092e-10
4.3853033e-08
-1.3071623e-10
4.3866169e-08
-1.4920411e-10
4.3873967e-08
-1.1216211e-10
4.375165e-08
4.3426847e-08
1.7745912e-10
6.6815643e-08
1.5035607e-10
6.7334127e-08
9.6574975e-11
6.7456132e-08
8.3139682e-11
6.7407007e-08
7.2145034e-11
6.7389635e-08
6.3105356e-11
6.7375243e-08
5.1412198e-11
6.7372454e-08
3.6431257e-11
6.7374835e-08
1.891562e-11
6.737823e-08
1.2737261e-14
6.7380503e-08
-1.8892645e-11
6.7380502e-08
-3.641011e-11
6.7378223e-08
-5.139486e-11
6.7374826e-08
-6.3091671e-11
6.7372443e-08
-7.2133083e-11
6.7375229e-08
-8.3128009e-11
6.7389619e-08
-9.6563084e-11
6.7406989e-08
-1.5034724e-10
6.7456112e-08
-1.7745797e-10
6.7334099e-08
6.6815601e-08
9.4558037e-11
9.2993059e-08
7.4080251e-11
9.3577287e-08
2.978228e-11
9.3685596e-08
4.3471705e-11
9.3626574e-08
5.5171267e-11
9.3608968e-08
5.8205391e-11
9.3601145e-08
5.2127579e-11
9.3605752e-08
3.8798448e-11
9.3614129e-08
2.0563699e-11
9.3621615e-08
1.0244323e-14
9.3625815e-08
-2.0542944e-11
9.3625812e-08
-3.8781642e-11
9.3621608e-08
-5.2114516e-11
9.3614117e-08
-5.8194035e-11
9.3605735e-08
-5.5161112e-11
9.3601124e-08
-4.3463022e-11
9.3608945e-08
-2.97754e-11
9.3626546e-08
-7.4078527e-11
9.3685565e-08
-9.4564731e-11
9.3577247e-08
9.2993009e-08
-4.216736e-11
1.220811e-07
-4.2309446e-11
1.2272539e-07
-5.2780723e-11
1.2282454e-07
8.7205037e-12
1.228228e-07
5.2309865e-11
1.228206e-07
6.7188167e-11
1.2283794e-07
6.382535e-11
1.2285818e-07
4.8330466e-11
1.2287679e-07
2.580702e-11
1.2289019e-07
6.6964876e-15
1.2289714e-07
-2.5794641e-11
1.2289713e-07
-4.8319456e-11
1.2289018e-07
-6.3815965e-11
1.2287678e-07
-6.7180138e-11
1.2285816e-07
-5.2303289e-11
1.2283791e-07
-8.7153365e-12
1.2282057e-07
5.2781989e-11
1.2282277e-07
4.2305419e-11
1.228245e-07
4.215322e-11
1.2272535e-07
1.2208105e-07
-1.6540528e-10
1.4688886e-07
-1.2685263e-10
1.4761572e-07
-7.9700813e-11
1.4779076e-07
3.3333077e-11
1.4788544e-07
8.9299211e-11
1.479384e-07
1.0418018e-10
1.4799381e-07
9.346327e-11
1.4803754e-07
6.8370514e-11
1.4806923e-07
3.5844819e-11
1.4808938e-07
2.7308704e-15
1.4809927e-07
-3.5839847e-11
1.4809927e-07
-6.8366277e-11
1.4808936e-07
-9.3459829e-11
1.4806921e-07
-1.0417746e-10
1.4803751e-07
-8.9297521e-11
1.4799377e-07
-3.3333804e-11
1.4793836e-07
7.9697784e-11
1.4788539e-07
1.2684439e-10
1.4779071e-07
1.6539026e-10
1.4761568e-07
1.4688881e-07
-2.2056583e-10
1.7020924e-07
-1.0955946e-10
1.7043675e-07
3.343321e-11
1.7066884e-07
1.5157546e-10
1.708482e-07
1.8837043e-10
1.7097179e-07
1.7903346e-10
1.710691e-07
1.4616966e-10
1.7113535e-07
1.0159145e-10
1.7117987e-07
5.1936576e-11
1.7120616e-07
-2.1174137e-15
1.7121902e-07
-5.1940963e-11
1.7121901e-07
-1.0159596e-10
1.7120615e-07
-1.4617425e-10
1.7117984e-07
-1.7903768e-10
1.7113531e-07
-1.8837448e-10
1.7106906e-07
-1.5158008e-10
1.7097174e-07
-3.3437943e-11
1.7084814e-07
1.0955078e-10
1.7066878e-07
2.2055323e-10
1.7043669e-07
1.7020918e-07
-2.6704265e-10
1.9375696e-07
7.9217979e-11
1.9493947e-07
2.9194954e-10
1.9549022e-07
3.6572237e-10
1.9589201e-07
3.4637151e-10
1.9610975e-07
2.8938129e-10
1.9622936e-07
2.2029168e-10
1.9629275e-07
1.4673875e-10
1.963287e-07
7.3456739e-11
1.9634631e-07
-7.7195453e-15
1.9635459e-07
-7.3471451e-11
1.9635458e-07
-1.4675372e-10
1.963463e-07
-2.2030667e-10
1.9632868e-07
-2.8939493e-10
1.9629272e-07
-3.463834e-10
1.9622933e-07
-3.6573284e-10
1.9610972e-07
-2.9195644e-10
1.9589198e-07
-7.9224906e-11
1.954902e-07
2.670343e-10
1.9493946e-07
1.9375696e-07
2.1514308e-09
1.8850943e-07
1.7212322e-09
1.930532e-07
1.2586657e-09
1.9383408e-07
9.3080717e-10
1.9413132e-07
6.9059392e-10
1.942588e-07
5.0710791e-10
1.9430961e-07
3.5660468e-10
1.943287e-07
2.2713597e-10
1.9433422e-07
1.1028623e-10
1.9433318e-07
-9.4883926e-15
1.9433165e-07
-1.1030476e-10
1.9433164e-07
-2.2715379e-10
1.9433317e-07
-3.5662144e-10
1.943342e-07
-5.0712138e-10
1.9432868e-07
-6.9060551e-10
1.9430959e-07
-9.3081621e-10
1.9425878e-07
-1.2586702e-09
1.941313e-07
-1.7212327e-09
1.9383407e-07
-2.1514276e-09
1.9305321e-07
1.8850945e-07
1.5545971e-08
1.7138713e-07
1.187263e-08
1.9486892e-07
7.9981282e-09
1.9580713e-07
5.3560804e-09
1.9486081e-07
3.6397312e-09
1.9405621e-07
2.4853611e-09
1.9354287e-07
1.6577841e-09
1.932348e-07
1.0186582e-09
1.9305251e-07
4.837154e-10
1.9294794e-07
-2.1479143e-14
1.9289564e-07
-4.8375614e-10
1.9289564e-07
-1.0186965e-09
1.9294792e-07
-1.657812e-09
1.9305248e-07
-2.485382e-09
1.9323477e-07
-3.6397398e-09
1.9354284e-07
-5.3560777e-09
1.9405618e-07
-7.9981165e-09
1.9486078e-07
-1.18726e-08
1.958071e-07
-1.5545927e-08
1.9486891e-07
1.7138721e-07
3.6183527e-08
1.3515056e-07
3.9846808e-08
1.9112233e-07
3.3602249e-08
2.0196305e-07
2.5937574e-08
2.0243689e-07
1.9184072e-08
2.0072125e-07
1.3728982e-08
1.9890971e-07
9.3843921e-09
1.9749127e-07
5.8407415e-09
1.9650821e-07
2.7997666e-09
1.9590108e-07
-7.5254686e-14
1.9560775e-07
-2.7999274e-09
1.9560771e-07
-5.8408659e-09
1.9590105e-07
-9.3845194e-09
1.9650816e-07
-1.3729059e-08
1.974912e-07
-1.9184123e-08
1.9890962e-07
-2.5937585e-08
2.0072119e-07
-3.3602256e-08
2.0243681e-07
-3.9846819e-08
2.0196303e-07
-3.6183502e-08
1.9112232e-07
1.3515061e-07
2.9025377e-08
1.0612518e-07
4.095664e-08
1.7919081e-07
4.0556503e-08
2.023628e-07
3.4921976e-08
2.0807103e-07
2.7859162e-08
2.0778367e-07
2.0993558e-08
2.0577492e-07
1.4849576e-08
2.0363488e-07
9.4431597e-09
2.019143e-07
4.5812441e-09
2.0076264e-07
-1.1073654e-13
2.0018874e-07
-4.5814436e-09
2.0018872e-07
-9.4433535e-09
2.0076259e-07
-1.4849738e-08
2.019142e-07
-2.0993673e-08
2.0363478e-07
-2.7859215e-08
2.0577484e-07
-3.4922009e-08
2.0778362e-07
-4.0556525e-08
2.0807096e-07
-4.0956654e-08
2.0236275e-07
-2.9025363e-08
1.7919078e-07
1.061252e-07
1.8962079e-08
8.7163214e-08
3.2107484e-08
1.660455e-07
3.5928274e-08
1.9854215e-07
3.3790358e-08
2.1020904e-07
2.875845e-08
2.1281571e-07
2.2717546e-08
2.1181591e-07
1.6614081e-08
2.0973845e-07
1.0801526e-08
2.0772695e-07
5.3069048e-09
2.062574e-07
-1.0368974e-13
2.0549583e-07
-5.3070744e-09
2.0549581e-07
-1.0801721e-08
2.0625732e-07
-1.6614226e-08
2.0772683e-07
-2.2717656e-08
2.0973835e-07
-2.8758511e-08
2.1181582e-07
-3.3790401e-08
2.128156e-07
-3.5928298e-08
2.1020898e-07
-3.2107482e-08
1.9854206e-07
-1.8962057e-08
1.6604545e-07
8.7163158e-08
1.1486613e-08
7.5676674e-08
2.2605981e-08
1.5492619e-07
2.7982954e-08
1.9316523e-07
2.8344028e-08
2.0984809e-07
2.5513878e-08
2.1564589e-07
2.1025525e-08
2.1630433e-07
1.5860893e-08
2.1490317e-07
1.0533046e-08
2.1305485e-07
5.2398303e-09
2.1155068e-07
-8.1595886e-14
2.1073581e-07
-5.2399811e-09
2.1073578e-07
-1.0533202e-08
2.115506e-07
-1.5860995e-08
2.1305474e-07
-2.1025624e-08
2.1490303e-07
-2.5513943e-08
2.1630419e-07
-2.8344045e-08
2.1564579e-07
-2.798299e-08
2.0984802e-07
-2.2605979e-08
1.9316518e-07
-1.1486587e-08
1.5492614e-07
7.5676611e-08
6.7067511e-09
6.896994e-08
1.503435e-08
1.4659862e-07
2.0295879e-08
1.8790374e-07
2.1915174e-08
2.0822877e-07
2.0718072e-08
2.1684303e-07
1.7729416e-08
2.1929297e-07
1.3756618e-08
2.1887599e-07
9.3164267e-09
2.1749508e-07
4.6885198e-09
2.1617863e-07
-4.4882695e-14
2.1542442e-07
-4.6886131e-09
2.1542439e-07
-9.316505e-09
2.1617851e-07
-1.3756687e-08
2.1749494e-07
-1.7729482e-08
2.1887584e-07
-2.0718087e-08
2.1929282e-07
-2.1915191e-08
2.1684293e-07
-2.0295863e-08
2.0822873e-07
-1.5034343e-08
1.879037e-07
-6.7067308e-09
1.4659858e-07
6.8969887e-08
3.8805688e-09
6.5089383e-08
9.6906526e-09
1.4078852e-07
1.408073e-08
1.8351366e-07
1.6067918e-08
2.0624157e-07
1.5858244e-08
2.1705268e-07
1.4034121e-08
2.2111706e-07
1.1169663e-08
2.2174045e-07
7.7006679e-09
2.2096408e-07
3.916489e-09
2.199628e-07
-1.3578784e-14
2.1934091e-07
-3.9164986e-09
2.1934086e-07
-7.7006664e-09
2.1996268e-07
-1.1169667e-08
2.2096393e-07
-1.403413e-08
2.2174028e-07
-1.5858233e-08
2.2111695e-07
-1.6067888e-08
2.1705259e-07
-1.4080709e-08
2.0624156e-07
-9.6906435e-09
1.8351367e-07
-3.8805469e-09
1.4078854e-07
6.5089367e-08
2.2636262e-09
6.2825721e-08
6.1477796e-09
1.3690429e-07
9.4895378e-09
1.8017189e-07
1.1352686e-08
2.0437837e-07
1.1635222e-08
2.1677007e-07
1.0609419e-08
2.2214282e-07
8.6394121e-09
2.237104e-07
6.053431e-09
2.2355001e-07
3.1084083e-09
2.2290776e-07
2.0407102e-14
2.2244927e-07
-3.108351e-09
2.2244922e-07
-6.0533611e-09
2.2290767e-07
-8.6393756e-09
2.2354988e-07
-1.060937e-08
2.2371029e-07
-1.1635181e-08
2.221427e-07
-1.1352623e-08
2.1677002e-07
-9.4894712e-09
2.043784e-07
-6.1477676e-09
1.8017193e-07
-2.2636091e-09
1.3690434e-07
6.2825738e-08
1.3381932e-09
6.148748e-08
3.8700526e-09
1.3437237e-07
6.2715545e-09
1.7777035e-07
7.8094982e-09
2.0284039e-07
8.2721252e-09
2.1630739e-07
7.7462431e-09
2.2266864e-07
6.4390472e-09
2.2501751e-07
4.5782927e-09
2.2541075e-07
2.3715175e-09
2.2511445e-07
4.0008405e-14
2.2482066e-07
-2.3714059e-09
2.2482065e-07
-4.5781748e-09
2.2511438e-07
-6.4389608e-09
2.2541067e-07
-7.7461443e-09
2.250174e-07
-8.2720407e-09
2.2266855e-07
-7.8094155e-09
2.1630738e-07
-6.2715062e-09
2.0284042e-07
-3.8700149e-09
1.7777043e-07
-1.3381887e-09
1.3437248e-07
6.1487534e-08
8.0107791e-10
6.0686352e-08
2.4270971e-09
1.3274627e-07
4.0894143e-09
1.7610794e-07
5.2674839e-09
2.0166225e-07
5.7423129e-09
2.1583249e-07
5.5059484e-09
2.2290492e-07
4.6622071e-09
2.2586115e-07
3.3590639e-09
2.2671384e-07
1.7537865e-09
2.2671966e-07
6.5410532e-14
2.2657432e-07
-1.7536554e-09
2.2657429e-07
-3.3589407e-09
2.2671958e-07
-4.6621123e-09
2.2671375e-07
-5.5058351e-09
2.2586108e-07
-5.7422478e-09
2.2290487e-07
-5.2674489e-09
2.1583252e-07
-4.0893769e-09
2.0166235e-07
-2.4270711e-09
1.7610809e-07
-8.0106597e-10
1.3274643e-07
6.0686434e-08
4.8407764e-10
6.0202218e-08
1.5193261e-09
1.3171096e-07
2.6417285e-09
1.7498548e-07
3.5015438e-09
2.0080236e-07
3.9140404e-09
2.1541993e-07
3.8324852e-09
2.2298641e-07
3.2994065e-09
2.2639418e-07
2.4056961e-09
2.2760749e-07
1.2650405e-09
2.2786025e-07
7.2425832e-14
2.2783922e-07
-1.2648923e-09
2.278392e-07
-2.4055521e-09
2.278602e-07
-3.2993086e-09
2.276074e-07
-3.8323988e-09
2.2639411e-07
-3.9139485e-09
2.2298639e-07
-3.5015003e-09
2.1541999e-07
-2.6416944e-09
2.0080249e-07
-1.5193044e-09
1.7498567e-07
-4.8407334e-10
1.3171114e-07
6.0202317e-08
2.9410876e-10
5.990805e-08
9.4976839e-10
1.3105521e-07
1.6950891e-09
1.7424009e-07
2.30242e-09
2.0019495e-07
2.6305776e-09
2.1509169e-07
2.6241064e-09
2.229928e-07
2.2927991e-09
2.267254e-07
1.6897504e-09
2.2821048e-07
8.9428159e-10
2.2865563e-07
4.2589464e-14
2.2873336e-07
-8.9416824e-10
2.2873335e-07
-1.6896247e-09
2.2865557e-07
-2.2927243e-09
2.2821042e-07
-2.6240307e-09
2.2672538e-07
-2.6305319e-09
2.2299283e-07
-2.3023799e-09
2.1509179e-07
-1.6950653e-09
2.0019515e-07
-9.4975021e-10
1.7424033e-07
-2.9409839e-10
1.3105543e-07
5.9908168e-08
1.788723e-10
5.9729121e-08
5.9257295e-10
1.3064142e-07
1.0818946e-09
1.7375068e-07
1.5012215e-09
1.9977557e-07
1.7485766e-09
2.1484425e-07
1.7733229e-09
2.22968e-07
1.5700676e-09
2.2692861e-07
1.1682387e-09
2.2861221e-07
6.2186615e-10
2.2920192e-07
2.7645643e-14
2.2935513e-07
-6.2178668e-10
2.2935512e-07
-1.1681637e-09
2.2920188e-07
-1.5699774e-09
2.2861218e-07
-1.7732557e-09
2.2692857e-07
-1.7485237e-09
2.2296801e-07
-1.5011835e-09
2.1484438e-07
-1.0818692e-09
1.9977577e-07
-5.9256502e-10
1.7375094e-07
-1.7886385e-10
1.3064166e-07
5.9729275e-08
1.0838026e-10
5.9620697e-08
3.6848265e-10
1.3038125e-07
6.8711194e-10
1.7343198e-07
9.7199309e-10
1.9949065e-07
1.151889e-09
2.1466432e-07
1.1855977e-09
2.2293423e-07
1.0622284e-09
2.2705191e-07
7.972128e-10
2.2887717e-07
4.2658625e-10
2.2957249e-07
1.1319614e-14
2.2978162e-07
-4.2652252e-10
2.2978161e-07
-7.9714159e-10
2.2957245e-07
-1.0621777e-09
2.2887712e-07
-1.1855602e-09
2.270519e-07
-1.1518605e-09
2.2293426e-07
-9.7196905e-10
2.1466444e-07
-6.871294e-10
1.9949085e-07
-3.684771e-10
1.7343225e-07
-1.0839505e-10
1.303815e-07
5.9620851e-08
6.5116932e-11
5.9555504e-08
2.2793479e-10
1.3021837e-07
4.3406367e-10
1.7322573e-07
6.2529678e-10
1.9929934e-07
7.5292622e-10
2.1453665e-07
7.8546311e-10
2.229016e-07
7.1131194e-10
2.2712599e-07
5.3802204e-10
2.2905038e-07
2.8924838e-10
2.2982121e-07
2.1815273e-14
2.3007081e-07
-2.8922997e-10
2.3007079e-07
-5.3800256e-10
2.2982118e-07
-7.1128843e-10
2.2905037e-07
-7.8543255e-10
2.2712599e-07
-7.5290509e-10
2.2290166e-07
-6.2529606e-10
2.1453678e-07
-4.3408084e-10
1.9929958e-07
-2.2793906e-10
1.7322602e-07
-6.5126326e-11
1.3021863e-07
5.9555676e-08
3.8575051e-11
5.9516887e-08
1.3985129e-10
1.3011705e-07
2.7243902e-10
1.7309307e-07
3.9962312e-10
1.9917212e-07
4.885392e-10
2.1444766e-07
5.1614419e-10
2.22874e-07
4.7204225e-10
2.2716999e-07
3.5958711e-10
2.2916279e-07
1.9416141e-10
2.299866e-07
1.1734162e-14
2.3026489e-07
-1.9416008e-10
2.3026488e-07
-3.5960577e-10
2.2998656e-07
-4.7201742e-10
2.2916278e-07
-5.1611551e-10
2.2716998e-07
-4.8855979e-10
2.2287403e-07
-3.9963037e-10
2.1444779e-07
-2.7244907e-10
1.9917232e-07
-1.3986222e-10
1.7309338e-07
-3.8593014e-11
1.3011732e-07
5.9517058e-08
2.2363056e-11
5.9494479e-08
8.4828747e-11
1.3005455e-07
1.6956648e-10
1.7300829e-07
2.535043e-10
1.9908813e-07
3.1466798e-10
2.1438651e-07
3.3643995e-10
2.2285215e-07
3.1063263e-10
2.271958e-07
2.3821952e-10
2.2923518e-07
1.2912319e-10
2.3009564e-07
-1.1712421e-15
2.3039397e-07
-1.2914655e-10
2.3039396e-07
-2.3822502e-10
2.3009562e-07
-3.1064871e-10
2.2923513e-07
-3.3648147e-10
2.2719577e-07
-3.146466e-10
2.2285218e-07
-2.5353063e-10
2.1438659e-07
-1.6957368e-10
1.9908833e-07
-8.4831913e-11
1.7300857e-07
-2.2374599e-11
1.3005481e-07
5.9494636e-08
1.2550311e-11
5.9481904e-08
5.0623145e-11
1.3001644e-07
1.0440796e-10
1.7295451e-07
1.5941024e-10
1.9903308e-07
2.0102074e-10
2.1434487e-07
2.1757735e-10
2.2283555e-07
2.0270727e-10
2.2721062e-07
1.5645392e-10
2.2928142e-07
8.5117888e-11
2.3016694e-07
-1.9235759e-14
2.3047909e-07
-8.5171123e-11
2.3047909e-07
-1.5647886e-10
2.3016691e-07
-2.0275591e-10
2.2928136e-07
-2.1761572e-10
2.272106e-07
-2.0103926e-10
2.2283556e-07
-1.5943842e-10
2.1434496e-07
-1.044171e-10
1.9903326e-07
-5.0637316e-11
1.7295476e-07
-1.2568247e-11
1.300167e-07
5.9482063e-08
6.6729911e-12
5.9475173e-08
2.9532374e-11
1.2999359e-07
6.3364814e-11
1.7292062e-07
9.9180492e-11
1.9899724e-07
1.2726185e-10
2.1431679e-07
1.395025e-10
2.2282328e-07
1.3118188e-10
2.2721891e-07
1.018845e-10
2.2931069e-07
5.5638998e-11
2.3021318e-07
-1.2022892e-14
2.3053474e-07
-5.5693734e-11
2.3053473e-07
-1.0194879e-10
2.3021313e-07
-1.3124479e-10
2.2931064e-07
-1.3955893e-10
2.2721889e-07
-1.2729232e-10
2.2282329e-07
-9.920185e-11
2.1431685e-07
-6.3371528e-11
1.989974e-07
-2.9533034e-11
1.7292089e-07
-6.6867564e-12
1.2999385e-07
5.9475342e-08
3.2585141e-12
5.9471912e-08
1.6673979e-11
1.2998017e-07
3.7729372e-11
1.7289955e-07
6.0888975e-11
1.9897408e-07
7.9702407e-11
2.1429798e-07
8.8612351e-11
2.2281439e-07
8.4153916e-11
2.2722338e-07
6.5782211e-11
2.2932904e-07
3.6057073e-11
2.3024293e-07
-2.2013876e-14
2.3057085e-07
-3.6136495e-11
2.3057082e-07
-6.5874229e-11
2.3024286e-07
-8.4216422e-11
2.2932899e-07
-8.86749e-11
2.2722333e-07
-7.9763475e-11
2.2281437e-07
-6.0931896e-11
2.1429802e-07
-3.7746885e-11
1.989742e-07
-1.666934e-11
1.7289976e-07
-3.2787332e-12
1.2998043e-07
5.9472072e-08
1.3364018e-12
5.9470593e-08
8.937336e-12
1.2997257e-07
2.1916593e-11
1.7288661e-07
3.6772177e-11
1.9895922e-07
4.931348e-11
2.1428545e-07
5.5680999e-11
2.2280801e-07
5.346867e-11
2.2722563e-07
4.2075782e-11
2.2934044e-07
2.3143219e-11
2.3026188e-07
-6.0357307e-14
2.3059406e-07
-2.3238534e-11
2.3059403e-07
-4.2183222e-11
2.302618e-07
-5.3573908e-11
2.2934036e-07
-5.5772689e-11
2.2722557e-07
-4.9391687e-11
2.2280797e-07
-3.683615e-11
2.1428545e-07
-2.1960393e-11
1.9895931e-07
-8.9630606e-12
1.7288678e-07
-1.332466e-12
1.2997277e-07
5.9470724e-08
2.9120604e-13
5.9470326e-08
4.4558016e-12
1.2996841e-07
1.2321411e-11
1.7287874e-07
2.1793714e-11
1.9894976e-07
3.0104727e-11
2.1427717e-07
3.4632151e-11
2.2280352e-07
3.3640386e-11
2.2722663e-07
2.6672174e-11
2.2934741e-07
1.4706616e-11
2.3027385e-07
-9.0233821e-14
2.3060884e-07
-1.4870641e-11
2.3060881e-07
-2.6818747e-11
2.3027377e-07
-3.375284e-11
2.2934734e-07
-3.4752941e-11
2.2722655e-07
-3.0204642e-11
2.2280343e-07
-2.1885282e-11
2.1427711e-07
-1.239141e-11
1.9894981e-07
-4.4851677e-12
1.7287886e-07
-2.9380291e-13
1.2996857e-07
5.9470427e-08
-2.154306e-13
5.9470575e-08
1.9479348e-12
1.2996627e-07
6.6642754e-12
1.7287405e-07
1.2667168e-11
1.9894377e-07
1.8155551e-11
2.1427172e-07
2.1301083e-11
2.2280035e-07
2.0985236e-11
2.2722698e-07
1.6755129e-11
2.2935165e-07
9.2530849e-12
2.3028136e-07
-1.130149e-13
2.3061823e-07
-9.4754425e-12
2.3061821e-07
-1.6950982e-11
2.3028129e-07
-2.11428e-11
2.2935156e-07
-2.1486342e-11
2.2722688e-07
-1.8277654e-11
2.2280022e-07
-1.2785454e-11
2.1427162e-07
-6.7451372e-12
1.9894375e-07
-1.9751876e-12
1.7287412e-07
2.1744073e-13
1.2996638e-07
5.9470633e-08
-4.0200798e-13
5.9471002e-08
6.7577181e-13
1.2996523e-07
3.4882571e-12
1.7287126e-07
7.2898311e-12
1.9894e-07
1.0891459e-11
2.1426815e-07
1.3074648e-11
2.2279817e-07
1.3038671e-11
2.2722704e-07
1.0480795e-11
2.2935422e-07
5.7911787e-12
2.3028606e-07
-1.436031e-13
2.3062416e-07
-6.0690263e-12
2.3062415e-07
-1.0738424e-11
2.3028599e-07
-1.3261447e-11
2.293541e-07
-1.3305017e-11
2.2722689e-07
-1.1072311e-11
2.2279801e-07
-7.4221876e-12
2.1426803e-07
-3.5798267e-12
1.9893993e-07
-7.2162926e-13
1.7287127e-07
3.8736345e-13
1.2996526e-07
5.9471005e-08
-3.6819958e-13
5.9471393e-08
1.6214717e-13
1.2996473e-07
1.8778458e-12
1.7286959e-07
4.3302315e-12
1.989376e-07
6.675447e-12
2.1426583e-07
8.1402521e-12
2.2279672e-07
8.2003895e-12
2.2722702e-07
6.5926692e-12
2.2935583e-07
3.6181869e-12
2.3028907e-07
-1.3882571e-13
2.3062797e-07
-3.9558397e-12
2.3062794e-07
-6.9289425e-12
2.30289e-07
-8.4781854e-12
2.2935569e-07
-8.4277832e-12
2.2722686e-07
-6.8996054e-12
2.2279652e-07
-4.5149171e-12
2.1426562e-07
-2.0384421e-12
1.9893744e-07
-2.497442e-13
1.7286948e-07
3.4889368e-13
1.299647e-07
5.9471357e-08
-2.1003093e-13
5.9471605e-08
1.7358695e-13
1.2996437e-07
1.350435e-12
1.7286846e-07
2.9384119e-12
1.9893606e-07
4.4565896e-12
2.1426433e-07
5.3792762e-12
2.2279582e-07
5.3652557e-12
2.2722705e-07
4.3071901e-12
2.2935691e-07
2.3310802e-12
2.3029108e-07
-1.814933e-13
2.306305e-07
-2.6723016e-12
2.3063048e-07
-4.6771773e-12
2.3029098e-07
-5.7323377e-12
2.2935676e-07
-5.7029018e-12
2.2722687e-07
-4.7376708e-12
2.2279556e-07
-3.1713223e-12
2.1426408e-07
-1.5202076e-12
1.989358e-07
-2.7643952e-13
1.7286826e-07
1.7046184e-13
1.2996423e-07
5.9471548e-08
9.6516784e-14
5.9471523e-08
6.0906818e-13
1.2996382e-07
1.552121e-12
1.7286755e-07
2.6245393e-12
1.9893499e-07
3.5656973e-12
2.1426344e-07
4.0436594e-12
2.2279535e-07
3.8874034e-12
2.2722722e-07
3.0267309e-12
2.2935779e-07
1.5785877e-12
2.3029256e-07
-2.2201367e-13
2.3063231e-07
-2.0012066e-12
2.3063227e-07
-3.4407977e-12
2.3029243e-07
-4.2995934e-12
2.2935762e-07
-4.4273977e-12
2.2722699e-07
-3.8857019e-12
2.2279504e-07
-2.9258555e-12
2.1426311e-07
-1.7676476e-12
1.9893466e-07
-7.4679416e-13
1.7286726e-07
-1.0712347e-13
1.2996362e-07
5.9471417e-08
5.2462962e-13
5.947099e-08
1.5073524e-12
1.2996287e-07
2.4116954e-12
1.7286664e-07
3.1523281e-12
1.9893429e-07
3.6140782e-12
2.1426301e-07
3.6883091e-12
2.227953e-07
3.2920437e-12
2.2722763e-07
2.4381598e-12
2.2935865e-07
1.2196419e-12
2.302938e-07
-2.3895996e-13
2.3063376e-07
-1.6835231e-12
2.3063372e-07
-2.9135964e-12
2.3029368e-07
-3.7547242e-12
2.2935847e-07
-4.1054651e-12
2.2722736e-07
-3.9763174e-12
2.2279495e-07
-3.46569e-12
2.1426259e-07
-2.6534291e-12
1.9893385e-07
-1.6284867e-12
1.7286624e-07
-5.8126395e-13
1.2996258e-07
5.947088e-08
1.4085451e-12
5.9469582e-08
2.9700444e-12
1.2996133e-07
3.8929096e-12
1.728657e-07
4.281811e-12
1.9893388e-07
4.3162905e-12
2.1426301e-07
3.9552325e-12
2.2279565e-07
3.2542746e-12
2.2722833e-07
2.2943551e-12
2.2935963e-07
1.083433e-12
2.3029502e-07
-2.6649499e-13
2.3063511e-07
-1.5831064e-12
2.3063508e-07
-2.8179019e-12
2.3029491e-07
-3.7791611e-12
2.2935947e-07
-4.4314977e-12
2.2722802e-07
-4.7285443e-12
2.2279525e-07
-4.6604834e-12
2.1426253e-07
-4.1562609e-12
1.9893336e-07
-3.1108741e-12
1.7286521e-07
-1.4611602e-12
1.2996093e-07
5.9469393e-08
2.7646846e-12
5.9466808e-08
4.880398e-12
1.2995921e-07
5.6640688e-12
1.7286492e-07
5.6924772e-12
1.9893385e-07
5.2694889e-12
2.1426346e-07
4.5230911e-12
2.227964e-07
3.5072558e-12
2.2722932e-07
2.3543865e-12
2.2936083e-07
1.0735293e-12
2.3029631e-07
-2.8766927e-13
2.3063646e-07
-1.625056e-12
2.3063643e-07
-2.9129888e-12
2.3029618e-07
-4.0842726e-12
2.2936061e-07
-5.0149851e-12
2.2722899e-07
-5.7112375e-12
2.2279596e-07
-6.0734908e-12
2.1426292e-07
-5.9562614e-12
1.9893324e-07
-5.0426756e-12
1.728643e-07
-2.8205588e-12
1.2995871e-07
5.9466615e-08
3.3107994e-12
5.577616e-12
6.3567058e-12
6.2656603e-12
5.6887424e-12
4.7728255e-12
3.6254593e-12
2.3699321e-12
1.0448153e-12
-3.0947528e-13
-1.6714656e-12
-2.9795831e-12
-4.2255632e-12
-5.2940831e-12
-6.1272411e-12
-6.6534306e-12
-6.6535234e-12
-5.765854e-12
-3.3712703e-12
)
;

boundaryField
{
    Wall
    {
        type            calculated;
        value           uniform 0;
    }
    frontAndBack
    {
        type            empty;
        value           nonuniform 0();
    }
    atmosphere
    {
        type            calculated;
        value           nonuniform List<scalar> 
20
(
5.9463532e-08
1.2995693e-07
1.7286415e-07
1.9893397e-07
2.1426405e-07
2.2279736e-07
2.2723044e-07
2.2936209e-07
2.3029764e-07
2.3063784e-07
2.3063779e-07
2.302975e-07
2.2936184e-07
2.2723006e-07
2.2279683e-07
2.1426341e-07
1.9893325e-07
1.7286342e-07
1.2995632e-07
5.9463271e-08
)
;
    }
}


// ************************************************************************* //
