/*--------------------------------*- C++ -*----------------------------------*\
| =========                 |                                                 |
| \\      /  F ield         | OpenFOAM: The Open Source CFD Toolbox           |
|  \\    /   O peration     | Version:  3.0.1                                 |
|   \\  /    A nd           | Web:      www.OpenFOAM.org                      |
|    \\/     M anipulation  |                                                 |
\*---------------------------------------------------------------------------*/
FoamFile
{
    version     2.0;
    format      ascii;
    class       volScalarField;
    location    "18";
    object      Psi2;
}
// * * * * * * * * * * * * * * * * * * * * * * * * * * * * * * * * * * * * * //

dimensions      [0 -2 2 0 0 0 0];

internalField   nonuniform List<scalar> 
800
(
0.0016698709
0.0016698433
0.0016698484
0.0016698533
0.001669857
0.00166986
0.0016698622
0.0016698638
0.0016698648
0.0016698653
0.0016698653
0.0016698648
0.0016698638
0.0016698622
0.00166986
0.001669857
0.0016698533
0.0016698484
0.0016698433
0.0016698709
0.0017651133
0.0017620992
0.0017617797
0.0017617337
0.0017617145
0.0017616843
0.0017616514
0.0017616237
0.0017616044
0.0017615948
0.0017615947
0.0017616044
0.0017616237
0.0017616514
0.0017616843
0.0017617145
0.0017617337
0.0017617796
0.0017620992
0.0017651133
0.0018868185
0.0018823054
0.0018804134
0.0018802699
0.0018802144
0.0018801474
0.0018800799
0.0018800237
0.001879985
0.0018799654
0.0018799654
0.001879985
0.0018800237
0.0018800799
0.0018801474
0.0018802144
0.0018802699
0.0018804133
0.0018823054
0.0018868185
0.0020707005
0.0020620278
0.0020589603
0.0020587798
0.0020586994
0.0020586004
0.0020584996
0.0020584156
0.0020583578
0.0020583285
0.0020583285
0.0020583578
0.0020584156
0.0020584996
0.0020586004
0.0020586994
0.0020587797
0.0020589603
0.0020620278
0.0020707006
0.0023771481
0.0023610611
0.0023567837
0.0023542846
0.0023541256
0.0023539557
0.0023537972
0.0023536723
0.0023535887
0.002353547
0.002353547
0.0023535887
0.0023536723
0.0023537972
0.0023539557
0.0023541255
0.0023542845
0.0023567836
0.0023610611
0.0023771482
0.0028263542
0.0027998042
0.002793864
0.0027916246
0.0027911546
0.002790783
0.0027905039
0.0027903129
0.0027901928
0.0027901351
0.0027901351
0.0027901928
0.0027903129
0.0027905039
0.0027907829
0.0027911546
0.0027916245
0.0027938639
0.0027998042
0.0028263542
0.0035002454
0.0034486533
0.0034375497
0.0034347443
0.0034335346
0.0034327563
0.0034322583
0.0034319612
0.0034317884
0.0034317112
0.0034317112
0.0034317884
0.0034319612
0.0034322584
0.0034327562
0.0034335345
0.0034347442
0.0034375495
0.0034486531
0.0035002453
0.0046451517
0.0045414574
0.0045123379
0.0045073199
0.0045048676
0.0045035127
0.004502766
0.0045023576
0.004502145
0.0045020598
0.0045020598
0.0045021451
0.0045023577
0.004502766
0.0045035126
0.0045048674
0.0045073195
0.0045123375
0.0045414569
0.0046451513
0.0062973231
0.006147884
0.0061036424
0.0060951278
0.0060919125
0.0060907253
0.0060903343
0.0060902228
0.0060902277
0.0060902658
0.0060902658
0.0060902278
0.0060902228
0.0060903342
0.0060907249
0.0060919118
0.006095127
0.0061036414
0.0061478828
0.006297322
0.0080595827
0.0078266139
0.0077536301
0.007740247
0.0077395149
0.0077414944
0.0077435159
0.0077449511
0.0077458757
0.0077463749
0.007746375
0.0077458758
0.0077449513
0.0077435157
0.0077414938
0.007739514
0.0077402458
0.0077536289
0.0078266122
0.0080595809
0.009603713
0.0092181577
0.0091001569
0.0090767972
0.0090806624
0.0090897099
0.0090975742
0.0091029517
0.0091062309
0.0091078629
0.0091078631
0.0091062312
0.0091029522
0.0090975743
0.0090897095
0.0090806616
0.0090767961
0.0091001557
0.0092181562
0.0096037112
0.01053771
0.010143325
0.0099996638
0.0099617977
0.0099630118
0.0099748982
0.009986877
0.0099957417
0.010001348
0.010004121
0.010004121
0.010001348
0.0099957424
0.0099868774
0.0099748981
0.0099630113
0.009961797
0.0099996631
0.010143324
0.010537709
0.010872707
0.010636425
0.010516319
0.010474518
0.010469518
0.010477697
0.010488156
0.010496645
0.010502269
0.010505091
0.010505092
0.01050227
0.010496646
0.010488157
0.010477697
0.010469518
0.010474518
0.010516318
0.010636425
0.010872707
0.010949541
0.010850969
0.010775566
0.010742095
0.010734304
0.010737773
0.010744337
0.010750219
0.010754298
0.01075638
0.010756381
0.010754298
0.010750219
0.010744337
0.010737774
0.010734304
0.010742095
0.010775566
0.010850969
0.010949541
0.010962335
0.010929668
0.010891301
0.010869943
0.010863037
0.010863703
0.010866999
0.010870307
0.010872707
0.010873954
0.010873954
0.010872708
0.010870307
0.010866999
0.010863703
0.010863037
0.010869943
0.010891301
0.010929668
0.010962335
0.010964043
0.010954742
0.010938091
0.01092654
0.010921879
0.010921517
0.010922907
0.010924512
0.010925734
0.010926379
0.010926379
0.010925734
0.010924513
0.010922907
0.010921517
0.010921879
0.01092654
0.010938091
0.010954742
0.010964043
0.010964239
0.010961859
0.010955473
0.010949969
0.010947325
0.010946831
0.010947328
0.010948023
0.010948579
0.010948878
0.010948878
0.010948579
0.010948023
0.010947328
0.010946831
0.010947325
0.010949969
0.010955473
0.010961859
0.010964239
0.010964259
0.010963697
0.010961476
0.010959106
0.010957784
0.010957431
0.010957577
0.01095785
0.010958083
0.01095821
0.01095821
0.010958083
0.01095785
0.010957577
0.010957431
0.010957784
0.010959106
0.010961476
0.010963697
0.010964259
0.010964261
0.010964136
0.010963422
0.010962483
0.010961883
0.010961685
0.010961715
0.010961814
0.010961904
0.010961954
0.010961954
0.010961904
0.010961814
0.010961715
0.010961685
0.010961883
0.010962483
0.010963422
0.010964136
0.010964261
0.010964261
0.010964235
0.01096402
0.010963673
0.010963421
0.010963325
0.010963325
0.010963358
0.01096339
0.010963409
0.010963409
0.01096339
0.010963358
0.010963325
0.010963325
0.010963421
0.010963673
0.01096402
0.010964235
0.010964261
0.010964261
0.010964256
0.010964194
0.010964073
0.010963975
0.010963932
0.010963928
0.010963938
0.010963949
0.010963956
0.010963956
0.010963949
0.010963938
0.010963928
0.010963932
0.010963975
0.010964073
0.010964194
0.010964256
0.010964261
0.010964261
0.01096426
0.010964243
0.010964203
0.010964167
0.010964149
0.010964146
0.010964149
0.010964153
0.010964155
0.010964155
0.010964153
0.010964149
0.010964146
0.010964149
0.010964167
0.010964203
0.010964243
0.01096426
0.010964261
0.010964261
0.010964261
0.010964256
0.010964244
0.010964231
0.010964224
0.010964223
0.010964223
0.010964225
0.010964225
0.010964225
0.010964225
0.010964223
0.010964223
0.010964224
0.010964231
0.010964244
0.010964256
0.010964261
0.010964261
0.010964261
0.010964261
0.01096426
0.010964256
0.010964252
0.010964249
0.010964249
0.010964249
0.010964249
0.010964249
0.010964249
0.010964249
0.010964249
0.010964249
0.010964249
0.010964252
0.010964256
0.01096426
0.010964261
0.010964261
0.010964261
0.010964261
0.010964261
0.01096426
0.010964258
0.010964257
0.010964257
0.010964257
0.010964257
0.010964257
0.010964257
0.010964257
0.010964257
0.010964257
0.010964257
0.010964258
0.01096426
0.010964261
0.010964261
0.010964261
0.010964261
0.010964261
0.010964261
0.010964261
0.01096426
0.01096426
0.01096426
0.01096426
0.01096426
0.01096426
0.01096426
0.01096426
0.01096426
0.01096426
0.01096426
0.01096426
0.010964261
0.010964261
0.010964261
0.010964261
0.010964261
0.010964261
0.010964261
0.010964261
0.010964261
0.010964261
0.010964261
0.010964261
0.010964261
0.010964261
0.010964261
0.010964261
0.010964261
0.010964261
0.010964261
0.010964261
0.010964261
0.010964261
0.010964261
0.010964261
0.010964261
0.010964261
0.010964261
0.010964261
0.010964261
0.010964261
0.010964261
0.010964261
0.010964261
0.010964261
0.010964261
0.010964261
0.010964261
0.010964261
0.010964261
0.010964261
0.010964261
0.010964261
0.010964261
0.010964261
0.010964261
0.010964261
0.010964261
0.010964261
0.010964261
0.010964261
0.010964261
0.010964261
0.010964261
0.010964261
0.010964261
0.010964261
0.010964261
0.010964261
0.010964261
0.010964261
0.010964261
0.010964261
0.010964261
0.010964261
0.010964261
0.010964261
0.010964261
0.010964261
0.010964261
0.010964261
0.010964261
0.010964261
0.010964261
0.010964261
0.010964261
0.010964261
0.010964261
0.010964261
0.010964261
0.010964261
0.010964261
0.010964261
0.010964261
0.010964261
0.010964261
0.010964261
0.010964261
0.010964261
0.010964261
0.010964261
0.010964261
0.010964261
0.010964261
0.010964261
0.010964261
0.010964261
0.010964261
0.010964261
0.010964261
0.010964261
0.010964261
0.010964261
0.010964261
0.010964261
0.010964261
0.010964261
0.010964261
0.010964261
0.010964261
0.010964261
0.010964261
0.010964261
0.010964261
0.010964261
0.010964261
0.010964261
0.010964261
0.010964261
0.010964261
0.010964261
0.010964261
0.010964261
0.010964261
0.010964261
0.010964261
0.010964261
0.010964261
0.010964261
0.010964261
0.010964261
0.010964261
0.010964261
0.010964261
0.010964261
0.010964261
0.010964261
0.010964261
0.010964261
0.010964261
0.010964261
0.010964261
0.010964261
0.010964261
0.010964261
0.010964261
0.010964261
0.010964261
0.010964261
0.010964261
0.010964261
0.010964261
0.010964261
0.010964261
0.010964261
0.010964261
0.010964261
0.010964261
0.010964261
0.010964261
0.010964261
0.010964261
0.010964261
0.010964261
0.010964261
0.010964261
0.010964261
0.010964261
0.010964261
0.010964261
0.010964261
0.010964261
0.010964261
0.010964261
0.010964261
0.010964261
0.010964261
0.010964261
0.010964261
0.010964261
0.010964261
0.010964261
0.010964261
0.010964261
0.010964261
0.010964261
0.010964261
0.010964261
0.010964261
0.010964261
0.010964261
0.010964261
0.010964261
0.010964261
0.010964261
0.010964261
0.010964261
0.010964261
0.010964261
0.010964261
0.010964261
0.010964261
0.010964261
0.010964261
0.010964261
0.010964261
0.010964261
0.010964261
0.010964261
0.010964261
0.010964261
0.010964261
0.010964261
0.010964261
0.010964261
0.010964261
0.010964261
0.010964261
0.010964261
0.010964261
0.010964261
0.010964261
0.010964261
0.010964261
0.010964261
0.010964261
0.010964261
0.010964261
0.010964261
0.010964261
0.010964261
0.010964261
0.010964261
0.010964261
0.010964261
0.010964261
0.010964261
0.010964261
0.010964261
0.010964261
0.010964261
0.010964261
0.010964261
0.010964261
0.010964261
0.010964261
0.010964261
0.010964261
0.010964261
0.010964261
0.010964261
0.010964261
0.010964261
0.010964261
0.010964261
0.010964261
0.010964261
0.010964261
0.010964261
0.010964261
0.010964261
0.010964261
0.010964261
0.010964261
0.010964261
0.010964261
0.010964261
0.010964261
0.010964261
0.010964261
0.010964261
0.010964261
0.010964261
0.010964261
0.010964261
0.010964261
0.010964261
0.010964261
0.010964261
0.010964261
0.010964261
0.010964261
0.010964261
0.010964261
0.010964261
)
;

boundaryField
{
    Wall
    {
        type            calculated;
        value           nonuniform List<scalar> 
100
(
9.9999998e-21
9.9999998e-21
9.9999998e-21
9.9999998e-21
9.9999998e-21
9.9999998e-21
9.9999998e-21
9.9999999e-21
1e-20
1e-20
1e-20
1e-20
1e-20
1e-20
1e-20
1e-20
1e-20
1e-20
1e-20
1e-20
1e-20
1e-20
1e-20
1e-20
1e-20
1e-20
1e-20
1e-20
1e-20
1e-20
1e-20
1e-20
1e-20
1e-20
1e-20
1e-20
1e-20
1e-20
1e-20
1e-20
9.9999998e-21
9.9999998e-21
9.9999998e-21
9.9999998e-21
9.9999998e-21
9.9999998e-21
9.9999998e-21
9.9999999e-21
1e-20
1e-20
1e-20
1e-20
1e-20
1e-20
1e-20
1e-20
1e-20
1e-20
1e-20
1e-20
1e-20
1e-20
1e-20
1e-20
1e-20
1e-20
1e-20
1e-20
1e-20
1e-20
1e-20
1e-20
1e-20
1e-20
1e-20
1e-20
1e-20
1e-20
1e-20
1e-20
9.9999998e-21
9.9999998e-21
9.9999998e-21
9.9999998e-21
9.9999998e-21
9.9999998e-21
9.9999998e-21
9.9999998e-21
9.9999998e-21
9.9999998e-21
9.9999998e-21
9.9999998e-21
9.9999998e-21
9.9999998e-21
9.9999998e-21
9.9999998e-21
9.9999998e-21
9.9999998e-21
9.9999998e-21
9.9999998e-21
)
;
    }
    frontAndBack
    {
        type            empty;
    }
    atmosphere
    {
        type            calculated;
        value           uniform 1e-20;
    }
}


// ************************************************************************* //
