/*--------------------------------*- C++ -*----------------------------------*\
| =========                 |                                                 |
| \\      /  F ield         | OpenFOAM: The Open Source CFD Toolbox           |
|  \\    /   O peration     | Version:  3.0.1                                 |
|   \\  /    A nd           | Web:      www.OpenFOAM.org                      |
|    \\/     M anipulation  |                                                 |
\*---------------------------------------------------------------------------*/
FoamFile
{
    version     2.0;
    format      ascii;
    class       volScalarField;
    location    "18";
    object      rho;
}
// * * * * * * * * * * * * * * * * * * * * * * * * * * * * * * * * * * * * * //

dimensions      [1 -3 0 0 0 0 0];

internalField   nonuniform List<scalar> 
800
(
166.98709
166.98434
166.98485
166.98533
166.98571
166.986
166.98622
166.98638
166.98649
166.98654
166.98654
166.98649
166.98638
166.98622
166.986
166.98571
166.98533
166.98484
166.98434
166.98709
176.51134
176.20992
176.17797
176.17338
176.17145
176.16843
176.16515
176.16237
176.16045
176.15948
176.15948
176.16045
176.16237
176.16515
176.16843
176.17145
176.17338
176.17797
176.20992
176.51134
188.67753
188.22645
188.03728
188.02292
188.01737
188.01067
188.00391
187.9983
187.99443
187.99247
187.99247
187.99443
187.9983
188.00391
188.01067
188.01737
188.02292
188.03727
188.22645
188.67753
207.04545
206.17984
205.87326
205.85518
205.84712
205.83721
205.82712
205.81872
205.81294
205.81001
205.81001
205.81294
205.81873
205.82712
205.83721
205.84712
205.85518
205.87326
206.17984
207.04546
237.61224
236.0127
235.58604
235.33628
235.32034
235.30332
235.28743
235.27492
235.26654
235.26237
235.26237
235.26654
235.27492
235.28743
235.30331
235.32033
235.33628
235.58603
236.0127
237.61225
282.1547
279.56046
278.97519
278.75313
278.70638
278.66908
278.64097
278.62163
278.60946
278.60359
278.60359
278.60946
278.62163
278.64097
278.66908
278.70638
278.75313
278.97518
279.56046
282.15471
345.57353
341.36462
340.41044
340.16255
340.04871
339.96874
339.91484
339.88049
339.86
339.85043
339.85043
339.86001
339.8805
339.91485
339.96875
340.04871
340.16255
340.41043
341.36462
345.57355
355.01757
368.62462
370.33291
370.69982
370.64224
370.42179
370.21018
370.02763
369.90822
369.84381
369.84383
369.90829
370.02775
370.21037
370.42205
370.64255
370.70019
370.3333
368.62507
355.01814
110.58507
129.94912
133.75866
134.46292
134.52778
134.33617
134.12265
133.92515
133.79303
133.72003
133.72006
133.79311
133.9253
134.12288
134.33649
134.52818
134.46339
133.75915
129.94963
110.58558
7.5001562
10.231117
10.888569
10.96073
10.952961
10.916983
10.882398
10.852659
10.833138
10.822497
10.822501
10.833148
10.852677
10.882428
10.917024
10.953013
10.960791
10.888634
10.231185
7.5002111
1.2411972
1.2903618
1.306651
1.3072089
1.3060924
1.3046878
1.30359
1.302773
1.302262
1.3019956
1.3019957
1.3022622
1.3027733
1.3035904
1.3046885
1.3060933
1.30721
1.3066521
1.2903629
1.2411978
1.2000157
1.2000861
1.2001258
1.2001276
1.2001233
1.2001186
1.2001152
1.2001128
1.2001113
1.2001106
1.2001106
1.2001113
1.2001128
1.2001152
1.2001186
1.2001233
1.2001276
1.2001258
1.2000861
1.2000157
1.2000009
1.2000009
1.2000009
1.2000008
1.2000009
1.2000009
1.2000009
1.2000009
1.2000009
1.2000009
1.2000009
1.2000009
1.2000009
1.2000009
1.2000009
1.2000009
1.2000008
1.2000009
1.2000009
1.2000009
1.2000001
1.2000006
1.2000008
1.2000008
1.2000009
1.2000009
1.2000009
1.2000009
1.2000009
1.2000009
1.2000009
1.2000009
1.2000009
1.2000009
1.2000009
1.2000009
1.2000008
1.2000008
1.2000006
1.2000001
1.2
1.2000003
1.2000005
1.2000006
1.2000007
1.2000007
1.2000007
1.2000007
1.2000007
1.2000007
1.2000007
1.2000007
1.2000007
1.2000007
1.2000007
1.2000007
1.2000006
1.2000005
1.2000003
1.2
1.2
1.2000001
1.2000003
1.2000004
1.2000004
1.2000005
1.2000004
1.2000004
1.2000004
1.2000004
1.2000004
1.2000004
1.2000004
1.2000004
1.2000005
1.2000004
1.2000004
1.2000003
1.2000001
1.2
1.2
1.2
1.2000001
1.2000002
1.2000003
1.2000003
1.2000003
1.2000003
1.2000003
1.2000003
1.2000003
1.2000003
1.2000003
1.2000003
1.2000003
1.2000003
1.2000002
1.2000001
1.2
1.2
1.2
1.2
1.2000001
1.2000001
1.2000001
1.2000002
1.2000002
1.2000002
1.2000002
1.2000001
1.2000001
1.2000002
1.2000002
1.2000002
1.2000002
1.2000001
1.2000001
1.2000001
1.2
1.2
1.2
1.2
1.2
1.2000001
1.2000001
1.2000001
1.2000001
1.2000001
1.2000001
1.2000001
1.2000001
1.2000001
1.2000001
1.2000001
1.2000001
1.2000001
1.2000001
1.2
1.2
1.2
1.2
1.2
1.2
1.2
1.2
1.2
1.2
1.2
1.2
1.2
1.2
1.2
1.2
1.2
1.2
1.2
1.2
1.2
1.2
1.2
1.2
1.2
1.2
1.2
1.2
1.2
1.2
1.2
1.2
1.2
1.2
1.2
1.2
1.2
1.2
1.2
1.2
1.2
1.2
1.2
1.2
1.2
1.2
1.2
1.2
1.2
1.2
1.2
1.2
1.2
1.2
1.2
1.2
1.2
1.2
1.2
1.2
1.2
1.2
1.2
1.2
1.2
1.2
1.2
1.2
1.2
1.2
1.2
1.2
1.2
1.2
1.2
1.2
1.2
1.2
1.2
1.2
1.2
1.2
1.2
1.2
1.2
1.2
1.2
1.2
1.2
1.2
1.2
1.2
1.2
1.2
1.2
1.2
1.2
1.2
1.2
1.2
1.2
1.2
1.2
1.2
1.2
1.2
1.2
1.2
1.2
1.2
1.2
1.2
1.2
1.2
1.2
1.2
1.2
1.2
1.2
1.2
1.2
1.2
1.2
1.2
1.2
1.2
1.2
1.2
1.2
1.2
1.2
1.2
1.2
1.2
1.2
1.2
1.2
1.2
1.2
1.2
1.2
1.2
1.2
1.2
1.2
1.2
1.2
1.2
1.2
1.2
1.2
1.2
1.2
1.2
1.2
1.2
1.2
1.2
1.2
1.2
1.2
1.2
1.2
1.2
1.2
1.2
1.2
1.2
1.2
1.2
1.2
1.2
1.2
1.2
1.2
1.2
1.2
1.2
1.2
1.2
1.2
1.2
1.2
1.2
1.2
1.2
1.2
1.2
1.2
1.2
1.2
1.2
1.2
1.2
1.2
1.2
1.2
1.2
1.2
1.2
1.2
1.2
1.2
1.2
1.2
1.2
1.2
1.2
1.2
1.2
1.2
1.2
1.2
1.2
1.2
1.2
1.2
1.2
1.2
1.2
1.2
1.2
1.2
1.2
1.2
1.2
1.2
1.2
1.2
1.2
1.2
1.2
1.2
1.2
1.2
1.2
1.2
1.2
1.2
1.2
1.2
1.2
1.2
1.2
1.2
1.2
1.2
1.2
1.2
1.2
1.2
1.2
1.2
1.2
1.2
1.2
1.2
1.2
1.2
1.2
1.2
1.2
1.2
1.2
1.2
1.2
1.2
1.2
1.2
1.2
1.2
1.2
1.2
1.2
1.2
1.2
1.2
1.2
1.2
1.2
1.2
1.2
1.2
1.2
1.2
1.2
1.2
1.2
1.2
1.2
1.2
1.2
1.2
1.2
1.2
1.2
1.2
1.2
1.2
1.2
1.2
1.2
1.2
1.2
1.2
1.2
1.2
1.2
1.2
1.2
1.2
1.2
1.2
1.2
1.2
1.2
1.2
1.2
1.2
1.2
1.2
1.2
1.2
1.2
1.2
1.2
1.2
1.2
1.2
1.2
1.2
1.2
1.2
1.2
1.2
1.2
1.2
1.2
1.2
1.2
1.2
1.2
1.2
1.2
1.2
1.2
1.2
1.2
1.2
1.2
1.2
1.2
1.2
1.2
1.2
1.2
1.2
1.2
1.2
1.2
1.2
1.2
1.2
1.2
1.2
1.2
1.2
1.2
1.2
1.2
1.2
1.2
1.2
1.2
1.2
1.2
1.2
1.2
1.2
1.2
1.2
1.2
1.2
1.2
1.2
1.2
1.2
1.2
1.2
1.2
1.2
1.2
1.2
1.2
1.2
1.2
1.2
1.2
1.2
1.2
1.2
1.2
1.2
1.2
1.2
1.2
1.2
1.2
1.2
1.2
1.2
1.2
1.2
1.2
1.2
1.2
1.2
1.2
1.2
1.2
1.2
1.2
1.2
)
;

boundaryField
{
    Wall
    {
        type            calculated;
        value           nonuniform List<scalar> 
100
(
1e-15
4.6038489e-12
2.7648036e-05
0.00014341316
0.00052043206
0.0020497249
0.015312047
0.28360201
0.99116096
1.1906056
1.1999485
1.2
1.2
1.2
1.2
1.2
1.2
1.2
1.2
1.2
1.2
1.2
1.2
1.2
1.2
1.2
1.2
1.2
1.2
1.2
1.2
1.2
1.2
1.2
1.2
1.2
1.2
1.2
1.2
1.2
1e-15
2.1061588e-14
2.7648028e-05
0.00014341302
0.00052043105
0.002049718
0.015311953
0.28360049
0.99115995
1.1906056
1.1999485
1.2
1.2
1.2
1.2
1.2
1.2
1.2
1.2
1.2
1.2
1.2
1.2
1.2
1.2
1.2
1.2
1.2
1.2
1.2
1.2
1.2
1.2
1.2
1.2
1.2
1.2
1.2
1.2
1.2
1e-15
1e-15
1.0000005e-15
1.000001e-15
1e-15
1.0000013e-15
1.0000011e-15
1.0000001e-15
1e-15
1e-15
1e-15
1e-15
1e-15
1.0000001e-15
1.0000001e-15
1e-15
1e-15
1e-15
1e-15
1e-15
)
;
    }
    frontAndBack
    {
        type            empty;
    }
    atmosphere
    {
        type            calculated;
        value           nonuniform List<scalar> 
20
(
1.2
1.2
1.2
1.2
1.2
1.2
1.2
1.2
1.2
1.2
1.2
1.2
1.2
1.2
1.2
1.2
1.2
1.2
1.2
1.2
)
;
    }
}


// ************************************************************************* //
