/*--------------------------------*- C++ -*----------------------------------*\
| =========                 |                                                 |
| \\      /  F ield         | OpenFOAM: The Open Source CFD Toolbox           |
|  \\    /   O peration     | Version:  3.0.1                                 |
|   \\  /    A nd           | Web:      www.OpenFOAM.org                      |
|    \\/     M anipulation  |                                                 |
\*---------------------------------------------------------------------------*/
FoamFile
{
    version     2.0;
    format      ascii;
    class       volScalarField;
    location    "18";
    object      rho_foam;
}
// * * * * * * * * * * * * * * * * * * * * * * * * * * * * * * * * * * * * * //

dimensions      [1 -3 0 0 0 0 0];

internalField   nonuniform List<scalar> 
800
(
166.98709
166.98434
166.98485
166.98533
166.98571
166.986
166.98622
166.98638
166.98649
166.98654
166.98654
166.98649
166.98638
166.98622
166.986
166.98571
166.98533
166.98484
166.98434
166.98709
176.51134
176.20992
176.17797
176.17338
176.17145
176.16843
176.16515
176.16237
176.16045
176.15948
176.15948
176.16045
176.16237
176.16515
176.16843
176.17145
176.17338
176.17797
176.20992
176.51134
188.68185
188.23054
188.04134
188.02699
188.02144
188.01475
188.00799
188.00238
187.99851
187.99654
187.99654
187.99851
188.00238
188.00799
188.01475
188.02144
188.02699
188.04134
188.23054
188.68185
207.07005
206.20278
205.89604
205.87798
205.86995
205.86005
205.84996
205.84157
205.83579
205.83285
205.83285
205.83579
205.84157
205.84996
205.86004
205.86994
205.87798
205.89603
206.20278
207.07006
237.71481
236.10612
235.67837
235.42846
235.41256
235.39558
235.37972
235.36724
235.35887
235.35471
235.35471
235.35887
235.36724
235.37972
235.39558
235.41256
235.42846
235.67837
236.10611
237.71482
282.63542
279.98043
279.3864
279.16246
279.11547
279.0783
279.05039
279.03129
279.01929
279.01351
279.01351
279.01929
279.0313
279.05039
279.0783
279.11546
279.16245
279.38639
279.98042
282.63543
350.02455
344.86534
343.75498
343.47444
343.35347
343.27563
343.22584
343.19612
343.17884
343.17113
343.17113
343.17885
343.19613
343.22584
343.27562
343.35346
343.47442
343.75495
344.86532
350.02454
464.51517
454.14574
451.2338
450.73199
450.48677
450.35127
450.27661
450.23576
450.21451
450.20598
450.20598
450.21452
450.23577
450.27661
450.35126
450.48674
450.73196
451.23376
454.14569
464.51514
629.73231
614.7884
610.36424
609.51278
609.19125
609.07253
609.03343
609.02228
609.02277
609.02658
609.02658
609.02278
609.02228
609.03342
609.07249
609.19119
609.5127
610.36415
614.78828
629.7322
805.95827
782.66139
775.36302
774.0247
773.95149
774.14944
774.35159
774.49511
774.58757
774.63749
774.6375
774.58758
774.49513
774.35157
774.14938
773.9514
774.02458
775.36289
782.66123
805.95809
960.3713
921.81577
910.01569
907.67972
908.06624
908.97099
909.75742
910.29517
910.62309
910.78629
910.78632
910.62312
910.29522
909.75743
908.97095
908.06616
907.67961
910.01558
921.81562
960.37112
1053.771
1014.3325
999.96638
996.17977
996.30118
997.48982
998.6877
999.57417
1000.1348
1000.4121
1000.4121
1000.1348
999.57424
998.68774
997.48981
996.30113
996.1797
999.96631
1014.3324
1053.7709
1087.2707
1063.6425
1051.6319
1047.4518
1046.9518
1047.7697
1048.8156
1049.6645
1050.2269
1050.5091
1050.5092
1050.227
1049.6646
1048.8157
1047.7697
1046.9518
1047.4518
1051.6318
1063.6425
1087.2707
1094.9541
1085.0969
1077.5566
1074.2095
1073.4304
1073.7773
1074.4337
1075.0219
1075.4298
1075.638
1075.6381
1075.4298
1075.0219
1074.4337
1073.7774
1073.4304
1074.2095
1077.5566
1085.0969
1094.9541
1096.2335
1092.9668
1089.1301
1086.9943
1086.3037
1086.3703
1086.6999
1087.0307
1087.2707
1087.3954
1087.3954
1087.2708
1087.0307
1086.6999
1086.3703
1086.3037
1086.9943
1089.1301
1092.9668
1096.2335
1096.4043
1095.4742
1093.8091
1092.654
1092.1879
1092.1517
1092.2907
1092.4512
1092.5734
1092.6379
1092.6379
1092.5734
1092.4513
1092.2907
1092.1517
1092.1879
1092.654
1093.8091
1095.4742
1096.4043
1096.4239
1096.1859
1095.5473
1094.9969
1094.7325
1094.6831
1094.7328
1094.8023
1094.8579
1094.8878
1094.8878
1094.8579
1094.8023
1094.7328
1094.6831
1094.7325
1094.9969
1095.5473
1096.1859
1096.4239
1096.4259
1096.3697
1096.1476
1095.9106
1095.7784
1095.7431
1095.7577
1095.785
1095.8083
1095.821
1095.821
1095.8083
1095.785
1095.7577
1095.7431
1095.7784
1095.9106
1096.1476
1096.3697
1096.4259
1096.4261
1096.4136
1096.3422
1096.2483
1096.1883
1096.1685
1096.1715
1096.1814
1096.1904
1096.1954
1096.1954
1096.1904
1096.1814
1096.1715
1096.1685
1096.1883
1096.2483
1096.3422
1096.4136
1096.4261
1096.4261
1096.4235
1096.402
1096.3673
1096.3421
1096.3325
1096.3325
1096.3358
1096.339
1096.3409
1096.3409
1096.339
1096.3358
1096.3325
1096.3325
1096.3421
1096.3673
1096.402
1096.4235
1096.4261
1096.4261
1096.4256
1096.4194
1096.4073
1096.3975
1096.3932
1096.3928
1096.3938
1096.3949
1096.3956
1096.3956
1096.3949
1096.3938
1096.3928
1096.3932
1096.3975
1096.4073
1096.4194
1096.4256
1096.4261
1096.4261
1096.426
1096.4243
1096.4203
1096.4167
1096.4149
1096.4146
1096.4149
1096.4153
1096.4155
1096.4155
1096.4153
1096.4149
1096.4146
1096.4149
1096.4167
1096.4203
1096.4243
1096.426
1096.4261
1096.4261
1096.4261
1096.4256
1096.4244
1096.4231
1096.4224
1096.4223
1096.4223
1096.4225
1096.4225
1096.4225
1096.4225
1096.4223
1096.4223
1096.4224
1096.4231
1096.4244
1096.4256
1096.4261
1096.4261
1096.4261
1096.4261
1096.426
1096.4256
1096.4252
1096.4249
1096.4249
1096.4249
1096.4249
1096.4249
1096.4249
1096.4249
1096.4249
1096.4249
1096.4249
1096.4252
1096.4256
1096.426
1096.4261
1096.4261
1096.4261
1096.4261
1096.4261
1096.426
1096.4258
1096.4257
1096.4257
1096.4257
1096.4257
1096.4257
1096.4257
1096.4257
1096.4257
1096.4257
1096.4257
1096.4258
1096.426
1096.4261
1096.4261
1096.4261
1096.4261
1096.4261
1096.4261
1096.4261
1096.426
1096.426
1096.426
1096.426
1096.426
1096.426
1096.426
1096.426
1096.426
1096.426
1096.426
1096.426
1096.4261
1096.4261
1096.4261
1096.4261
1096.4261
1096.4261
1096.4261
1096.4261
1096.4261
1096.4261
1096.4261
1096.4261
1096.4261
1096.4261
1096.4261
1096.4261
1096.4261
1096.4261
1096.4261
1096.4261
1096.4261
1096.4261
1096.4261
1096.4261
1096.4261
1096.4261
1096.4261
1096.4261
1096.4261
1096.4261
1096.4261
1096.4261
1096.4261
1096.4261
1096.4261
1096.4261
1096.4261
1096.4261
1096.4261
1096.4261
1096.4261
1096.4261
1096.4261
1096.4261
1096.4261
1096.4261
1096.4261
1096.4261
1096.4261
1096.4261
1096.4261
1096.4261
1096.4261
1096.4261
1096.4261
1096.4261
1096.4261
1096.4261
1096.4261
1096.4261
1096.4261
1096.4261
1096.4261
1096.4261
1096.4261
1096.4261
1096.4261
1096.4261
1096.4261
1096.4261
1096.4261
1096.4261
1096.4261
1096.4261
1096.4261
1096.4261
1096.4261
1096.4261
1096.4261
1096.4261
1096.4261
1096.4261
1096.4261
1096.4261
1096.4261
1096.4261
1096.4261
1096.4261
1096.4261
1096.4261
1096.4261
1096.4261
1096.4261
1096.4261
1096.4261
1096.4261
1096.4261
1096.4261
1096.4261
1096.4261
1096.4261
1096.4261
1096.4261
1096.4261
1096.4261
1096.4261
1096.4261
1096.4261
1096.4261
1096.4261
1096.4261
1096.4261
1096.4261
1096.4261
1096.4261
1096.4261
1096.4261
1096.4261
1096.4261
1096.4261
1096.4261
1096.4261
1096.4261
1096.4261
1096.4261
1096.4261
1096.4261
1096.4261
1096.4261
1096.4261
1096.4261
1096.4261
1096.4261
1096.4261
1096.4261
1096.4261
1096.4261
1096.4261
1096.4261
1096.4261
1096.4261
1096.4261
1096.4261
1096.4261
1096.4261
1096.4261
1096.4261
1096.4261
1096.4261
1096.4261
1096.4261
1096.4261
1096.4261
1096.4261
1096.4261
1096.4261
1096.4261
1096.4261
1096.4261
1096.4261
1096.4261
1096.4261
1096.4261
1096.4261
1096.4261
1096.4261
1096.4261
1096.4261
1096.4261
1096.4261
1096.4261
1096.4261
1096.4261
1096.4261
1096.4261
1096.4261
1096.4261
1096.4261
1096.4261
1096.4261
1096.4261
1096.4261
1096.4261
1096.4261
1096.4261
1096.4261
1096.4261
1096.4261
1096.4261
1096.4261
1096.4261
1096.4261
1096.4261
1096.4261
1096.4261
1096.4261
1096.4261
1096.4261
1096.4261
1096.4261
1096.4261
1096.4261
1096.4261
1096.4261
1096.4261
1096.4261
1096.4261
1096.4261
1096.4261
1096.4261
1096.4261
1096.4261
1096.4261
1096.4261
1096.4261
1096.4261
1096.4261
1096.4261
1096.4261
1096.4261
1096.4261
1096.4261
1096.4261
1096.4261
1096.4261
1096.4261
1096.4261
1096.4261
1096.4261
1096.4261
1096.4261
1096.4261
1096.4261
1096.4261
1096.4261
1096.4261
1096.4261
1096.4261
1096.4261
1096.4261
1096.4261
1096.4261
1096.4261
1096.4261
1096.4261
1096.4261
1096.4261
1096.4261
1096.4261
1096.4261
1096.4261
1096.4261
1096.4261
1096.4261
1096.4261
1096.4261
1096.4261
1096.4261
1096.4261
1096.4261
1096.4261
1096.4261
1096.4261
1096.4261
1096.4261
1096.4261
1096.4261
1096.4261
1096.4261
1096.4261
1096.4261
1096.4261
1096.4261
1096.4261
1096.4261
1096.4261
1096.4261
1096.4261
1096.4261
1096.4261
1096.4261
1096.4261
1096.4261
1096.4261
)
;

boundaryField
{
    Wall
    {
        type            zeroGradient;
    }
    frontAndBack
    {
        type            empty;
    }
    atmosphere
    {
        type            zeroGradient;
    }
}


// ************************************************************************* //
