/*--------------------------------*- C++ -*----------------------------------*\
| =========                 |                                                 |
| \\      /  F ield         | OpenFOAM: The Open Source CFD Toolbox           |
|  \\    /   O peration     | Version:  3.0.1                                 |
|   \\  /    A nd           | Web:      www.OpenFOAM.org                      |
|    \\/     M anipulation  |                                                 |
\*---------------------------------------------------------------------------*/
FoamFile
{
    version     2.0;
    format      ascii;
    class       volScalarField;
    location    "18";
    object      thermalDiff_gas;
}
// * * * * * * * * * * * * * * * * * * * * * * * * * * * * * * * * * * * * * //

dimensions      [0 2 -1 0 0 0 0];

internalField   nonuniform List<scalar> 
800
(
0.00026937469
0.00026937847
0.0002693789
0.00026937896
0.00026937899
0.00026937901
0.00026937904
0.00026937906
0.00026937907
0.00026937907
0.00026937907
0.00026937907
0.00026937906
0.00026937904
0.00026937901
0.00026937899
0.00026937896
0.0002693789
0.00026937847
0.00026937469
0.00026433716
0.00026444789
0.00026446297
0.00026446482
0.00026446531
0.00026446625
0.00026446736
0.00026446835
0.00026446905
0.0002644694
0.0002644694
0.00026446905
0.00026446835
0.00026446736
0.00026446625
0.00026446532
0.00026446482
0.00026446297
0.00026444789
0.00026433716
0.00026048847
0.00026065186
0.00026068389
0.00026068873
0.00026068973
0.00026069093
0.00026069235
0.00026069364
0.00026069457
0.00026069506
0.00026069506
0.00026069457
0.00026069364
0.00026069235
0.00026069093
0.00026068973
0.00026068874
0.00026068389
0.00026065187
0.00026048847
0.0002575134
0.00025773222
0.00025778457
0.00025779294
0.00025779429
0.00025779507
0.00025779614
0.0002577971
0.00025779786
0.00025779826
0.00025779826
0.00025779786
0.0002577971
0.00025779615
0.00025779507
0.0002577943
0.00025779295
0.00025778457
0.00025773223
0.0002575134
0.00025462264
0.00025490755
0.00025499577
0.00025501219
0.00025501554
0.00025501629
0.00025501704
0.0002550175
0.00025501795
0.00025501814
0.00025501814
0.00025501795
0.0002550175
0.00025501704
0.00025501629
0.00025501554
0.0002550122
0.00025499578
0.00025490756
0.00025462265
0.000250308
0.00025074419
0.00025089358
0.00025093116
0.00025094227
0.00025094605
0.00025094803
0.00025094884
0.00025094942
0.00025094958
0.00025094958
0.00025094943
0.00025094885
0.00025094804
0.00025094606
0.00025094228
0.00025093117
0.00025089359
0.0002507442
0.00025030801
0.00024423779
0.00024460723
0.00024475387
0.00024480577
0.00024482724
0.00024483841
0.00024484554
0.00024485005
0.00024485296
0.00024485429
0.00024485429
0.00024485296
0.00024485005
0.00024484554
0.00024483841
0.00024482725
0.00024480577
0.00024475388
0.00024460724
0.0002442378
0.0002410568
0.0002410777
0.00024110202
0.00024113047
0.00024115275
0.00024116953
0.00024118189
0.00024119063
0.00024119622
0.00024119896
0.00024119896
0.00024119622
0.00024119062
0.00024118189
0.00024116952
0.00024115274
0.00024113047
0.00024110202
0.0002410777
0.0002410568
0.00023899683
0.00023899354
0.00023900505
0.00023902404
0.00023904302
0.0002390592
0.00023907184
0.00023908101
0.00023908694
0.00023908985
0.00023908985
0.00023908693
0.00023908101
0.00023907184
0.0002390592
0.00023904302
0.00023902404
0.00023900505
0.00023899354
0.00023899683
0.00023777318
0.00023778095
0.00023779594
0.00023781453
0.00023783274
0.0002378484
0.00023786077
0.00023786978
0.00023787562
0.00023787848
0.00023787848
0.00023787562
0.00023786978
0.00023786077
0.0002378484
0.00023783273
0.00023781453
0.00023779594
0.00023778094
0.00023777317
0.00023666654
0.00023668219
0.00023670156
0.00023672157
0.00023673999
0.00023675553
0.00023676773
0.0002367766
0.00023678234
0.00023678515
0.00023678515
0.00023678234
0.0002367766
0.00023676773
0.00023675553
0.00023673999
0.00023672157
0.00023670156
0.00023668219
0.00023666654
0.0002356683
0.00023569132
0.00023571653
0.00023573968
0.00023575947
0.0002357755
0.0002357878
0.00023579663
0.0002358023
0.00023580507
0.00023580507
0.0002358023
0.00023579663
0.0002357878
0.0002357755
0.00023575947
0.00023573968
0.00023571653
0.00023569131
0.0002356683
0.00023477238
0.00023479982
0.00023483034
0.00023485742
0.0002348796
0.00023489693
0.00023490986
0.00023491898
0.00023492476
0.00023492756
0.00023492756
0.00023492475
0.00023491897
0.00023490986
0.00023489693
0.0002348796
0.00023485742
0.00023483034
0.00023479982
0.00023477238
0.00023396979
0.00023399892
0.00023403295
0.00023406351
0.00023408838
0.00023410752
0.00023412157
0.00023413133
0.00023413744
0.00023414039
0.00023414039
0.00023413744
0.00023413133
0.00023412157
0.00023410752
0.00023408838
0.00023406351
0.00023403294
0.00023399892
0.00023396979
0.00023325067
0.00023327969
0.00023331531
0.00023334825
0.00023337541
0.00023339639
0.00023341176
0.00023342238
0.00023342901
0.00023343219
0.00023343219
0.00023342901
0.00023342238
0.00023341176
0.00023339639
0.00023337541
0.00023334825
0.00023331531
0.00023327969
0.00023325067
0.00023260584
0.00023263374
0.00023266945
0.0002327035
0.00023273218
0.00023275464
0.00023277122
0.00023278273
0.00023278992
0.00023279338
0.00023279338
0.00023278992
0.00023278273
0.00023277122
0.00023275464
0.00023273218
0.0002327035
0.00023266945
0.00023263374
0.00023260584
0.00023202733
0.00023205362
0.00023208835
0.00023212241
0.00023215174
0.00023217509
0.00023219257
0.0002322048
0.0002322125
0.0002322162
0.0002322162
0.0002322125
0.0002322048
0.00023219257
0.00023217509
0.00023215174
0.00023212241
0.00023208835
0.00023205362
0.00023202733
0.0002315083
0.00023153275
0.00023156585
0.00023159904
0.00023162822
0.00023165186
0.0002316698
0.00023168249
0.00023169054
0.00023169443
0.00023169443
0.00023169054
0.00023168249
0.0002316698
0.00023165186
0.00023162822
0.00023159904
0.00023156585
0.00023153275
0.0002315083
0.0002310428
0.00023106536
0.00023109643
0.00023112817
0.00023115655
0.0002311799
0.00023119787
0.00023121072
0.00023121894
0.00023122294
0.00023122294
0.00023121894
0.00023121072
0.00023119787
0.0002311799
0.00023115655
0.00023112817
0.00023109643
0.00023106536
0.0002310428
0.0002306256
0.00023064628
0.00023067514
0.00023070503
0.00023073214
0.00023075475
0.00023077236
0.00023078509
0.00023079329
0.0002307973
0.0002307973
0.00023079329
0.00023078509
0.00023077236
0.00023075475
0.00023073215
0.00023070503
0.00023067514
0.00023064628
0.0002306256
0.00023025202
0.00023027088
0.00023029746
0.00023032529
0.00023035082
0.00023037235
0.0002303893
0.00023040166
0.00023040968
0.00023041361
0.00023041361
0.00023040968
0.00023040166
0.0002303893
0.00023037235
0.00023035082
0.00023032529
0.00023029746
0.00023027088
0.00023025202
0.00022991782
0.00022993495
0.00022995926
0.00022998494
0.00023000871
0.00023002894
0.000230045
0.00023005681
0.00023006451
0.0002300683
0.0002300683
0.00023006451
0.00023005681
0.000230045
0.00023002894
0.00023000871
0.00022998494
0.00022995927
0.00022993495
0.00022991782
0.00022961918
0.00022963469
0.00022965681
0.00022968033
0.00022970225
0.00022972105
0.00022973608
0.0002297472
0.00022975449
0.00022975809
0.00022975809
0.00022975449
0.0002297472
0.00022973608
0.00022972105
0.00022970225
0.00022968033
0.00022965681
0.00022963469
0.00022961918
0.00022935266
0.00022936664
0.00022938667
0.00022940808
0.00022942815
0.00022944547
0.00022945939
0.00022946974
0.00022947655
0.00022947993
0.00022947993
0.00022947655
0.00022946974
0.00022945939
0.00022944547
0.00022942815
0.00022940808
0.00022938667
0.00022936664
0.00022935266
0.00022911512
0.00022912769
0.00022914576
0.00022916515
0.0002291834
0.00022919923
0.00022921201
0.00022922155
0.00022922786
0.00022923099
0.00022923099
0.00022922786
0.00022922155
0.00022921201
0.00022919923
0.00022918341
0.00022916515
0.00022914576
0.00022912769
0.00022911512
0.00022890376
0.00022891503
0.00022893127
0.00022894874
0.00022896526
0.00022897963
0.00022899128
0.00022900001
0.00022900579
0.00022900866
0.00022900866
0.00022900579
0.00022900001
0.00022899128
0.00022897963
0.00022896526
0.00022894874
0.00022893127
0.00022891503
0.00022890376
0.00022871606
0.00022872613
0.00022874067
0.00022875635
0.00022877122
0.0002287842
0.00022879475
0.00022880267
0.00022880794
0.00022881056
0.00022881056
0.00022880794
0.00022880267
0.00022879475
0.0002287842
0.00022877122
0.00022875635
0.00022874067
0.00022872613
0.00022871606
0.00022854976
0.00022855872
0.00022857169
0.00022858572
0.00022859904
0.00022861069
0.00022862019
0.00022862735
0.00022863211
0.00022863448
0.00022863448
0.00022863211
0.00022862735
0.00022862019
0.00022861069
0.00022859904
0.00022858572
0.00022857169
0.00022855872
0.00022854976
0.00022840282
0.00022841077
0.0002284223
0.00022843479
0.00022844668
0.00022845709
0.0002284656
0.00022847202
0.0002284763
0.00022847843
0.00022847843
0.0002284763
0.00022847202
0.0002284656
0.00022845709
0.00022844668
0.00022843479
0.0002284223
0.00022841077
0.00022840282
0.00022827344
0.00022828048
0.00022829068
0.00022830175
0.00022831231
0.00022832158
0.00022832917
0.0002283349
0.00022833872
0.00022834063
0.00022834063
0.00022833872
0.0002283349
0.00022832917
0.00022832158
0.00022831231
0.00022830175
0.00022829068
0.00022828048
0.00022827344
0.00022816004
0.00022816623
0.00022817523
0.000228185
0.00022819433
0.00022820254
0.00022820926
0.00022821435
0.00022821775
0.00022821945
0.00022821945
0.00022821775
0.00022821435
0.00022820926
0.00022820254
0.00022819433
0.000228185
0.00022817523
0.00022816623
0.00022816004
0.00022806121
0.00022806663
0.00022807452
0.0002280831
0.0002280913
0.00022809853
0.00022810447
0.00022810897
0.00022811197
0.00022811348
0.00022811348
0.00022811197
0.00022810897
0.00022810447
0.00022809854
0.0002280913
0.0002280831
0.00022807452
0.00022806663
0.00022806121
0.00022797575
0.00022798046
0.00022798733
0.00022799482
0.000228002
0.00022800834
0.00022801355
0.0002280175
0.00022802015
0.00022802147
0.00022802147
0.00022802015
0.0002280175
0.00022801355
0.00022800834
0.000228002
0.00022799482
0.00022798733
0.00022798046
0.00022797575
0.00022790263
0.0002279067
0.00022791264
0.00022791913
0.00022792537
0.00022793089
0.00022793544
0.0002279389
0.00022794122
0.00022794238
0.00022794238
0.00022794122
0.0002279389
0.00022793544
0.00022793089
0.00022792537
0.00022791913
0.00022791264
0.0002279067
0.00022790263
0.00022784101
0.00022784448
0.00022784957
0.00022785515
0.00022786054
0.00022786532
0.00022786928
0.00022787229
0.00022787432
0.00022787533
0.00022787533
0.00022787432
0.00022787229
0.00022786928
0.00022786532
0.00022786054
0.00022785516
0.00022784957
0.00022784448
0.00022784101
0.00022779023
0.00022779316
0.00022779747
0.00022780224
0.00022780686
0.00022781098
0.00022781441
0.00022781703
0.0002278188
0.00022781968
0.00022781968
0.0002278188
0.00022781703
0.00022781441
0.00022781098
0.00022780686
0.00022780224
0.00022779747
0.00022779316
0.00022779023
0.00022774982
0.00022775225
0.00022775587
0.0002277599
0.00022776385
0.00022776741
0.00022777038
0.00022777266
0.00022777421
0.00022777498
0.00022777498
0.00022777421
0.00022777266
0.00022777038
0.00022776741
0.00022776385
0.0002277599
0.00022775587
0.00022775225
0.00022774982
0.00022771949
0.00022772147
0.00022772449
0.0002277279
0.00022773129
0.00022773436
0.00022773696
0.00022773897
0.00022774034
0.00022774103
0.00022774103
0.00022774034
0.00022773897
0.00022773696
0.00022773436
0.00022773129
0.0002277279
0.00022772449
0.00022772147
0.00022771949
0.00022769913
0.00022770075
0.00022770328
0.00022770621
0.00022770916
0.00022771189
0.00022771421
0.00022771602
0.00022771725
0.00022771788
0.00022771788
0.00022771725
0.00022771602
0.00022771421
0.00022771189
0.00022770916
0.00022770621
0.00022770328
0.00022770075
0.00022769913
0.00022768884
0.00022769022
0.00022769244
0.00022769508
0.00022769778
0.0002277003
0.00022770247
0.00022770417
0.00022770534
0.00022770593
0.00022770593
0.00022770534
0.00022770417
0.00022770247
0.0002277003
0.00022769778
0.00022769508
0.00022769244
0.00022769022
0.00022768884
)
;

boundaryField
{
    Wall
    {
        type            calculated;
        value           uniform 0.1;
    }
    frontAndBack
    {
        type            empty;
    }
    atmosphere
    {
        type            calculated;
        value           uniform 0.1;
    }
}


// ************************************************************************* //
