/*--------------------------------*- C++ -*----------------------------------*\
| =========                 |                                                 |
| \\      /  F ield         | OpenFOAM: The Open Source CFD Toolbox           |
|  \\    /   O peration     | Version:  3.0.1                                 |
|   \\  /    A nd           | Web:      www.OpenFOAM.org                      |
|    \\/     M anipulation  |                                                 |
\*---------------------------------------------------------------------------*/
FoamFile
{
    version     2.0;
    format      ascii;
    class       volScalarField;
    location    "18";
    object      thermalDiffusivity;
}
// * * * * * * * * * * * * * * * * * * * * * * * * * * * * * * * * * * * * * //

dimensions      [0 2 -1 0 0 0 0];

internalField   nonuniform List<scalar> 
800
(
9.3576204e-08
9.3576693e-08
9.3576599e-08
9.3576509e-08
9.3576441e-08
9.3576387e-08
9.3576346e-08
9.3576318e-08
9.3576299e-08
9.3576289e-08
9.3576289e-08
9.3576299e-08
9.3576317e-08
9.3576347e-08
9.3576387e-08
9.3576441e-08
9.357651e-08
9.3576599e-08
9.3576693e-08
9.3576204e-08
9.1955137e-08
9.2002841e-08
9.2007912e-08
9.2008639e-08
9.2008949e-08
9.2009444e-08
9.2009968e-08
9.2010412e-08
9.2010726e-08
9.2010903e-08
9.2010884e-08
9.201073e-08
9.2010415e-08
9.2009968e-08
9.2009442e-08
9.200895e-08
9.2008633e-08
9.2007895e-08
9.2002845e-08
9.1955136e-08
9.6182436e-08
9.5938582e-08
9.5936458e-08
9.5945602e-08
9.5952363e-08
9.5956521e-08
9.5958825e-08
9.5960177e-08
9.5960934e-08
9.5961286e-08
9.5961273e-08
9.5960935e-08
9.5960177e-08
9.5958823e-08
9.5956516e-08
9.595236e-08
9.5945592e-08
9.5936442e-08
9.593858e-08
9.6182433e-08
1.187936e-07
1.1695758e-07
1.1681605e-07
1.1685777e-07
1.1688761e-07
1.1690432e-07
1.1691451e-07
1.1691995e-07
1.1692348e-07
1.1692508e-07
1.1692506e-07
1.1692347e-07
1.1691994e-07
1.1691449e-07
1.169043e-07
1.1688758e-07
1.1685773e-07
1.1681601e-07
1.1695755e-07
1.1879357e-07
1.9589606e-07
1.8694579e-07
1.8601777e-07
1.8598389e-07
1.8603871e-07
1.8608709e-07
1.861282e-07
1.8616122e-07
1.8618375e-07
1.8619462e-07
1.861946e-07
1.8618372e-07
1.8616116e-07
1.861281e-07
1.8608696e-07
1.8603856e-07
1.8598372e-07
1.8601758e-07
1.8694561e-07
1.9589585e-07
5.108257e-07
4.6110486e-07
4.5426811e-07
4.5292659e-07
4.5278954e-07
4.5296482e-07
4.531901e-07
4.5343546e-07
4.5360151e-07
4.5369378e-07
4.536937e-07
4.5360132e-07
4.5343512e-07
4.5318959e-07
4.5296413e-07
4.5278873e-07
4.5292563e-07
4.542671e-07
4.6110379e-07
5.1082428e-07
3.1977893e-06
2.5732046e-06
2.4712336e-06
2.4503543e-06
2.4463021e-06
2.4484713e-06
2.4518248e-06
2.4553893e-06
2.4578363e-06
2.4592359e-06
2.4592352e-06
2.4578344e-06
2.4553859e-06
2.4518194e-06
2.448464e-06
2.446293e-06
2.4503434e-06
2.471222e-06
2.5731912e-06
3.1977703e-06
5.7033926e-05
4.5585685e-05
4.3410287e-05
4.2997945e-05
4.2924651e-05
4.2986154e-05
4.3069011e-05
4.3150567e-05
4.320631e-05
4.3237631e-05
4.3237618e-05
4.3206275e-05
4.3150503e-05
4.3068907e-05
4.2986009e-05
4.292447e-05
4.2997731e-05
4.3410059e-05
4.5585422e-05
5.703362e-05
0.00023899683
0.00023899354
0.00023900505
0.00023902404
0.00023904302
0.0002390592
0.00023907184
0.00023908101
0.00023908694
0.00023908985
0.00023908985
0.00023908693
0.00023908101
0.00023907184
0.0002390592
0.00023904302
0.00023902404
0.00023900505
0.00023899354
0.00023899683
0.00023777318
0.00023778095
0.00023779594
0.00023781453
0.00023783274
0.0002378484
0.00023786077
0.00023786978
0.00023787562
0.00023787848
0.00023787848
0.00023787562
0.00023786978
0.00023786077
0.0002378484
0.00023783273
0.00023781453
0.00023779594
0.00023778094
0.00023777317
0.00023666654
0.00023668219
0.00023670156
0.00023672157
0.00023673999
0.00023675553
0.00023676773
0.0002367766
0.00023678234
0.00023678515
0.00023678515
0.00023678234
0.0002367766
0.00023676773
0.00023675553
0.00023673999
0.00023672157
0.00023670156
0.00023668219
0.00023666654
0.0002356683
0.00023569132
0.00023571653
0.00023573968
0.00023575947
0.0002357755
0.0002357878
0.00023579663
0.0002358023
0.00023580507
0.00023580507
0.0002358023
0.00023579663
0.0002357878
0.0002357755
0.00023575947
0.00023573968
0.00023571653
0.00023569131
0.0002356683
0.00023477238
0.00023479982
0.00023483034
0.00023485742
0.0002348796
0.00023489693
0.00023490986
0.00023491898
0.00023492476
0.00023492756
0.00023492756
0.00023492475
0.00023491897
0.00023490986
0.00023489693
0.0002348796
0.00023485742
0.00023483034
0.00023479982
0.00023477238
0.00023396979
0.00023399892
0.00023403295
0.00023406351
0.00023408838
0.00023410752
0.00023412157
0.00023413133
0.00023413744
0.00023414039
0.00023414039
0.00023413744
0.00023413133
0.00023412157
0.00023410752
0.00023408838
0.00023406351
0.00023403294
0.00023399892
0.00023396979
0.00023325067
0.00023327969
0.00023331531
0.00023334825
0.00023337541
0.00023339639
0.00023341176
0.00023342238
0.00023342901
0.00023343219
0.00023343219
0.00023342901
0.00023342238
0.00023341176
0.00023339639
0.00023337541
0.00023334825
0.00023331531
0.00023327969
0.00023325067
0.00023260584
0.00023263374
0.00023266945
0.0002327035
0.00023273218
0.00023275464
0.00023277122
0.00023278273
0.00023278992
0.00023279338
0.00023279338
0.00023278992
0.00023278273
0.00023277122
0.00023275464
0.00023273218
0.0002327035
0.00023266945
0.00023263374
0.00023260584
0.00023202733
0.00023205362
0.00023208835
0.00023212241
0.00023215174
0.00023217509
0.00023219257
0.0002322048
0.0002322125
0.0002322162
0.0002322162
0.0002322125
0.0002322048
0.00023219257
0.00023217509
0.00023215174
0.00023212241
0.00023208835
0.00023205362
0.00023202733
0.0002315083
0.00023153275
0.00023156585
0.00023159904
0.00023162822
0.00023165186
0.0002316698
0.00023168249
0.00023169054
0.00023169443
0.00023169443
0.00023169054
0.00023168249
0.0002316698
0.00023165186
0.00023162822
0.00023159904
0.00023156585
0.00023153275
0.0002315083
0.0002310428
0.00023106536
0.00023109643
0.00023112817
0.00023115655
0.0002311799
0.00023119787
0.00023121072
0.00023121894
0.00023122294
0.00023122294
0.00023121894
0.00023121072
0.00023119787
0.0002311799
0.00023115655
0.00023112817
0.00023109643
0.00023106536
0.0002310428
0.0002306256
0.00023064628
0.00023067514
0.00023070503
0.00023073214
0.00023075475
0.00023077236
0.00023078509
0.00023079329
0.0002307973
0.0002307973
0.00023079329
0.00023078509
0.00023077236
0.00023075475
0.00023073215
0.00023070503
0.00023067514
0.00023064628
0.0002306256
0.00023025202
0.00023027088
0.00023029746
0.00023032529
0.00023035082
0.00023037235
0.0002303893
0.00023040166
0.00023040968
0.00023041361
0.00023041361
0.00023040968
0.00023040166
0.0002303893
0.00023037235
0.00023035082
0.00023032529
0.00023029746
0.00023027088
0.00023025202
0.00022991782
0.00022993495
0.00022995926
0.00022998494
0.00023000871
0.00023002894
0.000230045
0.00023005681
0.00023006451
0.0002300683
0.0002300683
0.00023006451
0.00023005681
0.000230045
0.00023002894
0.00023000871
0.00022998494
0.00022995927
0.00022993495
0.00022991782
0.00022961918
0.00022963469
0.00022965681
0.00022968033
0.00022970225
0.00022972105
0.00022973608
0.0002297472
0.00022975449
0.00022975809
0.00022975809
0.00022975449
0.0002297472
0.00022973608
0.00022972105
0.00022970225
0.00022968033
0.00022965681
0.00022963469
0.00022961918
0.00022935266
0.00022936664
0.00022938667
0.00022940808
0.00022942815
0.00022944547
0.00022945939
0.00022946974
0.00022947655
0.00022947993
0.00022947993
0.00022947655
0.00022946974
0.00022945939
0.00022944547
0.00022942815
0.00022940808
0.00022938667
0.00022936664
0.00022935266
0.00022911512
0.00022912769
0.00022914576
0.00022916515
0.0002291834
0.00022919923
0.00022921201
0.00022922155
0.00022922786
0.00022923099
0.00022923099
0.00022922786
0.00022922155
0.00022921201
0.00022919923
0.00022918341
0.00022916515
0.00022914576
0.00022912769
0.00022911512
0.00022890376
0.00022891503
0.00022893127
0.00022894874
0.00022896526
0.00022897963
0.00022899128
0.00022900001
0.00022900579
0.00022900866
0.00022900866
0.00022900579
0.00022900001
0.00022899128
0.00022897963
0.00022896526
0.00022894874
0.00022893127
0.00022891503
0.00022890376
0.00022871606
0.00022872613
0.00022874067
0.00022875635
0.00022877122
0.0002287842
0.00022879475
0.00022880267
0.00022880794
0.00022881056
0.00022881056
0.00022880794
0.00022880267
0.00022879475
0.0002287842
0.00022877122
0.00022875635
0.00022874067
0.00022872613
0.00022871606
0.00022854976
0.00022855872
0.00022857169
0.00022858572
0.00022859904
0.00022861069
0.00022862019
0.00022862735
0.00022863211
0.00022863448
0.00022863448
0.00022863211
0.00022862735
0.00022862019
0.00022861069
0.00022859904
0.00022858572
0.00022857169
0.00022855872
0.00022854976
0.00022840282
0.00022841077
0.0002284223
0.00022843479
0.00022844668
0.00022845709
0.0002284656
0.00022847202
0.0002284763
0.00022847843
0.00022847843
0.0002284763
0.00022847202
0.0002284656
0.00022845709
0.00022844668
0.00022843479
0.0002284223
0.00022841077
0.00022840282
0.00022827344
0.00022828048
0.00022829068
0.00022830175
0.00022831231
0.00022832158
0.00022832917
0.0002283349
0.00022833872
0.00022834063
0.00022834063
0.00022833872
0.0002283349
0.00022832917
0.00022832158
0.00022831231
0.00022830175
0.00022829068
0.00022828048
0.00022827344
0.00022816004
0.00022816623
0.00022817523
0.000228185
0.00022819433
0.00022820254
0.00022820926
0.00022821435
0.00022821775
0.00022821945
0.00022821945
0.00022821775
0.00022821435
0.00022820926
0.00022820254
0.00022819433
0.000228185
0.00022817523
0.00022816623
0.00022816004
0.00022806121
0.00022806663
0.00022807452
0.0002280831
0.0002280913
0.00022809853
0.00022810447
0.00022810897
0.00022811197
0.00022811348
0.00022811348
0.00022811197
0.00022810897
0.00022810447
0.00022809854
0.0002280913
0.0002280831
0.00022807452
0.00022806663
0.00022806121
0.00022797575
0.00022798046
0.00022798733
0.00022799482
0.000228002
0.00022800834
0.00022801355
0.0002280175
0.00022802015
0.00022802147
0.00022802147
0.00022802015
0.0002280175
0.00022801355
0.00022800834
0.000228002
0.00022799482
0.00022798733
0.00022798046
0.00022797575
0.00022790263
0.0002279067
0.00022791264
0.00022791913
0.00022792537
0.00022793089
0.00022793544
0.0002279389
0.00022794122
0.00022794238
0.00022794238
0.00022794122
0.0002279389
0.00022793544
0.00022793089
0.00022792537
0.00022791913
0.00022791264
0.0002279067
0.00022790263
0.00022784101
0.00022784448
0.00022784957
0.00022785515
0.00022786054
0.00022786532
0.00022786928
0.00022787229
0.00022787432
0.00022787533
0.00022787533
0.00022787432
0.00022787229
0.00022786928
0.00022786532
0.00022786054
0.00022785516
0.00022784957
0.00022784448
0.00022784101
0.00022779023
0.00022779316
0.00022779747
0.00022780224
0.00022780686
0.00022781098
0.00022781441
0.00022781703
0.0002278188
0.00022781968
0.00022781968
0.0002278188
0.00022781703
0.00022781441
0.00022781098
0.00022780686
0.00022780224
0.00022779747
0.00022779316
0.00022779023
0.00022774982
0.00022775225
0.00022775587
0.0002277599
0.00022776385
0.00022776741
0.00022777038
0.00022777266
0.00022777421
0.00022777498
0.00022777498
0.00022777421
0.00022777266
0.00022777038
0.00022776741
0.00022776385
0.0002277599
0.00022775587
0.00022775225
0.00022774982
0.00022771949
0.00022772147
0.00022772449
0.0002277279
0.00022773129
0.00022773436
0.00022773696
0.00022773897
0.00022774034
0.00022774103
0.00022774103
0.00022774034
0.00022773897
0.00022773696
0.00022773436
0.00022773129
0.0002277279
0.00022772449
0.00022772147
0.00022771949
0.00022769913
0.00022770075
0.00022770328
0.00022770621
0.00022770916
0.00022771189
0.00022771421
0.00022771602
0.00022771725
0.00022771788
0.00022771788
0.00022771725
0.00022771602
0.00022771421
0.00022771189
0.00022770916
0.00022770621
0.00022770328
0.00022770075
0.00022769913
0.00022768884
0.00022769022
0.00022769244
0.00022769508
0.00022769778
0.0002277003
0.00022770247
0.00022770417
0.00022770534
0.00022770593
0.00022770593
0.00022770534
0.00022770417
0.00022770247
0.0002277003
0.00022769778
0.00022769508
0.00022769244
0.00022769022
0.00022768884
)
;

boundaryField
{
    Wall
    {
        type            calculated;
        value           uniform 4e-05;
    }
    frontAndBack
    {
        type            empty;
    }
    atmosphere
    {
        type            calculated;
        value           uniform 4e-05;
    }
}


// ************************************************************************* //
