/*--------------------------------*- C++ -*----------------------------------*\
| =========                 |                                                 |
| \\      /  F ield         | OpenFOAM: The Open Source CFD Toolbox           |
|  \\    /   O peration     | Version:  3.0.1                                 |
|   \\  /    A nd           | Web:      www.OpenFOAM.org                      |
|    \\/     M anipulation  |                                                 |
\*---------------------------------------------------------------------------*/
FoamFile
{
    version     2.0;
    format      ascii;
    class       volScalarField;
    location    "18";
    object      TS;
}
// * * * * * * * * * * * * * * * * * * * * * * * * * * * * * * * * * * * * * //

dimensions      [0 0 0 1 0 0 0];

internalField   nonuniform List<scalar> 
800
(
325.60999
325.61245
325.61273
325.61277
325.61279
325.61281
325.61282
325.61284
325.61284
325.61285
325.61285
325.61284
325.61284
325.61282
325.61281
325.61279
325.61277
325.61273
325.61245
325.60999
322.36761
322.43929
322.44908
322.45026
322.45057
322.45116
322.45187
322.45251
322.45296
322.45319
322.45319
322.45296
322.45251
322.45187
322.45116
322.45057
322.45026
322.44908
322.43929
322.36761
319.88202
319.98804
320.00886
320.01198
320.01261
320.01338
320.0143
320.01513
320.01574
320.01605
320.01605
320.01574
320.01513
320.0143
320.01338
320.01261
320.01198
320.00886
319.98804
319.88202
317.9598
318.10186
318.13587
318.14126
318.14212
318.14261
318.14331
318.14394
318.14444
318.1447
318.1447
318.14444
318.14394
318.14331
318.14262
318.14212
318.14126
318.13587
318.10186
317.9598
316.1013
316.28604
316.3433
316.35388
316.35602
316.35649
316.35699
316.35729
316.35759
316.35772
316.35772
316.35759
316.35729
316.35699
316.3565
316.35602
316.35389
316.34331
316.28604
316.1013
313.3365
313.62012
313.71749
313.74185
313.749
313.75143
313.7527
313.75323
313.75361
313.75372
313.75372
313.75361
313.75323
313.75271
313.75143
313.74901
313.74185
313.7175
313.62012
313.33651
309.35649
309.60731
309.70384
309.73818
309.75235
309.75962
309.76421
309.76709
309.76892
309.76976
309.76976
309.76892
309.76709
309.76422
309.75963
309.75235
309.73818
309.70384
309.60732
309.35649
307.16072
307.17198
307.18567
307.20335
307.21758
307.22852
307.23669
307.24249
307.24622
307.24804
307.24804
307.24622
307.24249
307.23669
307.22852
307.21758
307.20334
307.18567
307.17198
307.16072
305.78668
305.78355
305.78995
305.80162
305.81368
305.82417
305.83248
305.83856
305.84251
305.84445
305.84445
305.84251
305.83856
305.83248
305.82417
305.81368
305.80162
305.78994
305.78355
305.78668
304.97768
304.98222
304.99137
305.00305
305.01473
305.02494
305.03309
305.03908
305.04298
305.04489
305.04489
305.04297
305.03908
305.03309
305.02494
305.01473
305.00305
304.99136
304.98222
304.97768
304.24293
304.25287
304.26521
304.27808
304.29006
304.30026
304.30834
304.31425
304.31809
304.31997
304.31997
304.31809
304.31425
304.30834
304.30026
304.29005
304.27808
304.26521
304.25287
304.24293
303.57809
303.59314
303.60959
303.62471
303.63772
303.64831
303.65648
303.66237
303.66617
303.66803
303.66803
303.66617
303.66237
303.65648
303.64831
303.63771
303.62471
303.60959
303.59314
303.57809
302.98035
302.99852
303.01867
303.03655
303.05122
303.06271
303.07132
303.0774
303.08127
303.08314
303.08314
303.08126
303.0774
303.07132
303.06271
303.05122
303.03654
303.01867
302.99852
302.98034
302.4445
302.46391
302.48652
302.50681
302.52332
302.53605
302.5454
302.55191
302.55599
302.55796
302.55796
302.55599
302.55191
302.5454
302.53605
302.52332
302.50681
302.48652
302.46391
302.4445
301.96433
301.98371
302.00747
302.0294
302.04749
302.06145
302.07169
302.07877
302.08319
302.08531
302.08531
302.08319
302.07877
302.07169
302.06145
302.04749
302.0294
302.00747
301.98371
301.96432
301.5338
301.55246
301.57632
301.59904
301.61816
301.63313
301.64419
301.65186
301.65665
301.65895
301.65895
301.65665
301.65185
301.64419
301.63313
301.61816
301.59904
301.57632
301.55246
301.5338
301.14756
301.16516
301.18839
301.21114
301.23073
301.24631
301.25797
301.26613
301.27126
301.27373
301.27373
301.27126
301.26613
301.25797
301.24631
301.23073
301.21114
301.18839
301.16516
301.14756
300.80101
300.81739
300.83954
300.86174
300.88124
300.89703
300.90901
300.91749
300.92286
300.92545
300.92545
300.92286
300.91749
300.90901
300.89703
300.88124
300.86174
300.83954
300.81739
300.80101
300.49014
300.50526
300.52607
300.54731
300.5663
300.58191
300.59392
300.60251
300.608
300.61067
300.61067
300.608
300.60251
300.59392
300.58191
300.5663
300.54731
300.52607
300.50526
300.49014
300.21144
300.22531
300.24465
300.26467
300.28282
300.29795
300.30974
300.31825
300.32373
300.32641
300.32641
300.32373
300.31825
300.30974
300.29795
300.28282
300.26467
300.24465
300.22531
300.21144
299.96179
299.97445
299.99227
300.01092
300.02803
300.04245
300.0538
300.06208
300.06744
300.07008
300.07008
300.06744
300.06208
300.0538
300.04245
300.02803
300.01092
299.99227
299.97445
299.96179
299.73839
299.74988
299.7662
299.78342
299.79935
299.81292
299.82368
299.83159
299.83675
299.83929
299.83929
299.83675
299.83159
299.82368
299.81292
299.79936
299.78342
299.7662
299.74989
299.73839
299.53868
299.54909
299.56394
299.57972
299.59443
299.60704
299.61712
299.62458
299.62947
299.63188
299.63188
299.62947
299.62458
299.61712
299.60704
299.59443
299.57972
299.56394
299.54909
299.53868
299.36039
299.36978
299.38324
299.39761
299.41108
299.4227
299.43204
299.43899
299.44356
299.44583
299.44583
299.44356
299.43899
299.43204
299.4227
299.41108
299.39761
299.38324
299.36978
299.36039
299.20144
299.20989
299.22203
299.23505
299.24731
299.25793
299.26652
299.27293
299.27716
299.27926
299.27926
299.27716
299.27293
299.26652
299.25794
299.24731
299.23505
299.22203
299.20989
299.20144
299.05997
299.06754
299.07845
299.0902
299.10129
299.11095
299.11877
299.12464
299.12852
299.13045
299.13045
299.12852
299.12464
299.11877
299.11095
299.10129
299.0902
299.07845
299.06754
299.05997
298.9343
298.94106
298.95084
298.96138
298.97137
298.98009
298.98719
298.99251
298.99605
298.99781
298.99781
298.99605
298.99251
298.98719
298.98009
298.97137
298.96138
298.95084
298.94106
298.9343
298.82291
298.82894
298.83767
298.84709
298.85605
298.86389
298.87028
298.87509
298.87829
298.87988
298.87988
298.87829
298.87509
298.87028
298.86389
298.85605
298.84709
298.83767
298.82894
298.82291
298.72448
298.72983
298.73758
298.74598
298.75398
298.76098
298.76671
298.77103
298.7739
298.77534
298.77534
298.7739
298.77103
298.76671
298.76098
298.75398
298.74598
298.73758
298.72983
298.72448
298.63778
298.64252
298.64938
298.65683
298.66394
298.67017
298.67528
298.67913
298.6817
298.68299
298.68299
298.6817
298.67913
298.67528
298.67017
298.66394
298.65683
298.64938
298.64252
298.63778
298.56177
298.56594
298.57199
298.57857
298.58485
298.59037
298.5949
298.59833
298.60062
298.60176
298.60176
298.60062
298.59833
298.5949
298.59037
298.58485
298.57857
298.57199
298.56594
298.56177
298.49551
298.49916
298.50447
298.51025
298.51577
298.52064
298.52464
298.52766
298.52969
298.5307
298.5307
298.52969
298.52767
298.52464
298.52064
298.51577
298.51025
298.50447
298.49916
298.49551
298.4382
298.44138
298.446
298.45104
298.45588
298.46015
298.46365
298.46632
298.4681
298.46899
298.46899
298.4681
298.46632
298.46365
298.46015
298.45588
298.45105
298.446
298.44138
298.4382
298.38916
298.39189
298.3959
298.40027
298.40447
298.40819
298.41125
298.41358
298.41515
298.41593
298.41593
298.41515
298.41358
298.41125
298.40819
298.40447
298.40027
298.3959
298.3919
298.38916
298.34781
298.35015
298.35358
298.35734
298.36097
298.36419
298.36686
298.36889
298.37026
298.37094
298.37094
298.37026
298.36889
298.36686
298.36419
298.36097
298.35734
298.35358
298.35015
298.34781
298.31374
298.31571
298.31862
298.32183
298.32494
298.32772
298.33003
298.3318
298.33299
298.33359
298.33359
298.33299
298.3318
298.33003
298.32772
298.32494
298.32183
298.31862
298.31571
298.31374
298.28661
298.28825
298.29069
298.29341
298.29607
298.29846
298.30047
298.30201
298.30305
298.30357
298.30357
298.30305
298.30201
298.30047
298.29846
298.29607
298.29341
298.29069
298.28825
298.28661
298.26625
298.26759
298.26962
298.27192
298.2742
298.27628
298.27803
298.27938
298.2803
298.28077
298.28077
298.2803
298.27938
298.27803
298.27628
298.2742
298.27192
298.26962
298.26759
298.26625
298.25258
298.25367
298.25538
298.25735
298.25934
298.26118
298.26275
298.26397
298.2648
298.26522
298.26522
298.2648
298.26397
298.26275
298.26118
298.25934
298.25735
298.25538
298.25367
298.25258
298.24567
298.2466
298.2481
298.24988
298.2517
298.2534
298.25486
298.25601
298.25679
298.25719
298.25719
298.25679
298.25601
298.25486
298.2534
298.2517
298.24988
298.2481
298.2466
298.24567
)
;

boundaryField
{
    Wall
    {
        type            zeroGradient;
    }
    frontAndBack
    {
        type            empty;
    }
    atmosphere
    {
        type            zeroGradient;
    }
}


// ************************************************************************* //
