/*--------------------------------*- C++ -*----------------------------------*\
| =========                 |                                                 |
| \\      /  F ield         | OpenFOAM: The Open Source CFD Toolbox           |
|  \\    /   O peration     | Version:  3.0.1                                 |
|   \\  /    A nd           | Web:      www.OpenFOAM.org                      |
|    \\/     M anipulation  |                                                 |
\*---------------------------------------------------------------------------*/
FoamFile
{
    version     2.0;
    format      ascii;
    class       volVectorField;
    location    "18";
    object      U;
}
// * * * * * * * * * * * * * * * * * * * * * * * * * * * * * * * * * * * * * //

dimensions      [0 1 -1 0 0 0 0];

internalField   nonuniform List<vector> 
800
(
(4.4411967e-06 0.00032934379 0)
(5.0791861e-06 0.00033185363 0)
(4.3774522e-06 0.00033249802 0)
(3.2081788e-06 0.00033231938 0)
(2.4043612e-06 0.00033209867 0)
(1.8545294e-06 0.00033196556 0)
(1.4229102e-06 0.00033190916 0)
(1.0201028e-06 0.00033190004 0)
(6.1829393e-07 0.00033190843 0)
(2.078512e-07 0.00033191672 0)
(-2.0719671e-07 0.00033191671 0)
(-6.1772459e-07 0.00033190841 0)
(-1.0196564e-06 0.0003319 0)
(-1.4225864e-06 0.00033190911 0)
(-1.8542872e-06 0.0003319655 0)
(-2.4041391e-06 0.00033209862 0)
(-3.2079166e-06 0.00033231935 0)
(-4.3771528e-06 0.00033249802 0)
(-5.0788761e-06 0.00033185366 0)
(-4.44107e-06 0.00032934375 0)
(2.2639336e-06 0.00059489035 0)
(2.6642441e-06 0.00060089063 0)
(2.8782218e-06 0.00060267425 0)
(2.3522593e-06 0.00060256082 0)
(1.9816683e-06 0.00060231485 0)
(1.626304e-06 0.0006021144 0)
(1.2914564e-06 0.00060201956 0)
(9.4659037e-07 0.00060199729 0)
(5.8115154e-07 0.00060200519 0)
(1.9654275e-07 0.00060201596 0)
(-1.9594402e-07 0.00060201594 0)
(-5.8061614e-07 0.00060200515 0)
(-9.4615098e-07 0.00060199721 0)
(-1.2911125e-06 0.00060201945 0)
(-1.6260296e-06 0.00060211428 0)
(-1.981419e-06 0.00060231473 0)
(-2.3519938e-06 0.00060256071 0)
(-2.8779385e-06 0.00060267414 0)
(-2.6640263e-06 0.00060089049 0)
(-2.2638622e-06 0.00059489002 0)
(3.0270159e-06 0.0010890891 0)
(3.4591067e-06 0.0010983779 0)
(2.3757024e-06 0.0011010144 0)
(1.6563801e-06 0.0011004948 0)
(1.5601753e-06 0.0011001853 0)
(1.3703256e-06 0.0010999079 0)
(1.1661721e-06 0.0010998162 0)
(8.9578263e-07 0.0010998251 0)
(5.6532571e-07 0.0010998648 0)
(1.9366265e-07 0.0010998953 0)
(-1.9315511e-07 0.0010998952 0)
(-5.6487045e-07 0.0010998647 0)
(-8.9540679e-07 0.0010998249 0)
(-1.1658643e-06 0.001099816 0)
(-1.3700746e-06 0.0010999077 0)
(-1.5599465e-06 0.001100185 0)
(-1.6561507e-06 0.0011004945 0)
(-2.3754886e-06 0.0011010141 0)
(-3.4589857e-06 0.0010983775 0)
(-3.0269884e-06 0.0010890885 0)
(1.4741039e-06 0.0016009161 0)
(1.9027095e-06 0.0016105984 0)
(8.4512914e-07 0.0016127827 0)
(4.6119075e-07 0.0016115567 0)
(1.1381579e-06 0.001611102 0)
(1.1836637e-06 0.0016108276 0)
(1.1522458e-06 0.0016108183 0)
(9.416452e-07 0.0016109141 0)
(6.1237524e-07 0.0016110186 0)
(2.1272863e-07 0.0016110823 0)
(-2.1233659e-07 0.0016110823 0)
(-6.1203227e-07 0.0016110185 0)
(-9.4133231e-07 0.0016109138 0)
(-1.1519876e-06 0.0016108181 0)
(-1.1834611e-06 0.0016108272 0)
(-1.1379784e-06 0.0016111016 0)
(-4.6102213e-07 0.0016115562 0)
(-8.4502627e-07 0.0016127822 0)
(-1.9027571e-06 0.0016105977 0)
(-1.4741748e-06 0.0016009151 0)
(-1.0061162e-06 0.0021621556 0)
(-8.7939824e-07 0.0021740369 0)
(-1.1325569e-06 0.002175925 0)
(-6.5247788e-07 0.002175123 0)
(9.646729e-07 0.0021748281 0)
(1.2949763e-06 0.0021748798 0)
(1.3846865e-06 0.0021751122 0)
(1.1624625e-06 0.0021753783 0)
(7.6158317e-07 0.0021755877 0)
(2.6465666e-07 0.0021757004 0)
(-2.6439687e-07 0.0021757003 0)
(-7.6135345e-07 0.0021755875 0)
(-1.1622544e-06 0.002175378 0)
(-1.3845166e-06 0.0021751118 0)
(-1.2948413e-06 0.0021748793 0)
(-9.645693e-07 0.0021748275 0)
(6.5255838e-07 0.0021751224 0)
(1.1325393e-06 0.0021759243 0)
(8.7922042e-07 0.002174036 0)
(1.0059899e-06 0.0021621546 0)
(-2.9044994e-06 0.0027033324 0)
(-3.3984686e-06 0.0027181894 0)
(-2.2092226e-06 0.0027208624 0)
(-4.8759297e-07 0.0027217152 0)
(1.6021812e-06 0.0027221966 0)
(2.0717563e-06 0.0027229165 0)
(2.0487646e-06 0.0027235641 0)
(1.6558943e-06 0.002724075 0)
(1.0604285e-06 0.0027244164 0)
(3.6438215e-07 0.0027245871 0)
(-3.642789e-07 0.002724587 0)
(-1.0603397e-06 0.0027244162 0)
(-1.655818e-06 0.0027240746 0)
(-2.0487046e-06 0.0027235636 0)
(-2.0717096e-06 0.0027229159 0)
(-1.6021637e-06 0.0027221959 0)
(4.8758094e-07 0.0027217145 0)
(2.2091202e-06 0.0027208615 0)
(3.3982334e-06 0.0027181885 0)
(2.9043472e-06 0.0027033314 0)
(-3.9758484e-06 0.0031574578 0)
(-4.1769082e-06 0.003173048 0)
(-4.5802823e-07 0.0031779492 0)
(2.1086455e-06 0.0031808977 0)
(3.660384e-06 0.0031826978 0)
(3.8001143e-06 0.0031842124 0)
(3.3120969e-06 0.003185286 0)
(2.5055121e-06 0.003186015 0)
(1.5481891e-06 0.0031864538 0)
(5.2364855e-07 0.0031866627 0)
(-5.237389e-07 0.0031866626 0)
(-1.5482813e-06 0.0031864535 0)
(-2.5056053e-06 0.0031860146 0)
(-3.312187e-06 0.0031852854 0)
(-3.8001903e-06 0.0031842117 0)
(-3.6604786e-06 0.003182697 0)
(-2.1087476e-06 0.0031808968 0)
(4.5789702e-07 0.0031779483 0)
(4.176696e-06 0.0031730471 0)
(3.9757103e-06 0.0031574569 0)
(-5.3578836e-06 0.0035098632 0)
(-2.8788523e-06 0.0035314793 0)
(5.153429e-06 0.0035393694 0)
(7.1926616e-06 0.0035444788 0)
(7.3283306e-06 0.0035475471 0)
(6.4950724e-06 0.0035495309 0)
(5.1614736e-06 0.0035507202 0)
(3.70344e-06 0.0035514449 0)
(2.2183162e-06 0.0035518367 0)
(7.403641e-07 0.0035520148 0)
(-7.4067047e-07 0.0035520147 0)
(-2.2186168e-06 0.0035518365 0)
(-3.7037437e-06 0.0035514446 0)
(-5.1617646e-06 0.0035507197 0)
(-6.4953169e-06 0.0035495304 0)
(-7.3285673e-06 0.0035475466 0)
(-7.1928404e-06 0.0035444782 0)
(-5.1535522e-06 0.0035393688 0)
(2.878704e-06 0.0035314789 0)
(5.3577916e-06 0.0035098627 0)
(3.0140476e-05 0.0038768747 0)
(4.428044e-05 0.0039098732 0)
(3.0764506e-05 0.0039176712 0)
(2.2578179e-05 0.0039243317 0)
(1.6548642e-05 0.0039282306 0)
(1.2273249e-05 0.003930461 0)
(8.8077235e-06 0.0039316802 0)
(5.9457465e-06 0.0039323986 0)
(3.4321792e-06 0.0039327572 0)
(1.1238724e-06 0.0039329279 0)
(-1.1242591e-06 0.0039329278 0)
(-3.4325495e-06 0.003932757 0)
(-5.9461016e-06 0.0039323982 0)
(-8.8080381e-06 0.0039316797 0)
(-1.2273489e-05 0.0039304605 0)
(-1.6548868e-05 0.0039282301 0)
(-2.2578328e-05 0.0039243311 0)
(-3.0764544e-05 0.0039176707 0)
(-4.4280397e-05 0.0039098729 0)
(-3.0140407e-05 0.0038768745 0)
(0.00021503988 0.0038646591 0)
(0.00030006444 0.0040658712 0)
(0.00020646833 0.0040713099 0)
(0.00013598081 0.0040693548 0)
(9.0875704e-05 0.004068348 0)
(6.1759436e-05 0.0040681025 0)
(4.164997e-05 0.0040681986 0)
(2.6854265e-05 0.0040683931 0)
(1.5058706e-05 0.0040685471 0)
(4.8649013e-06 0.0040686801 0)
(-4.8657516e-06 0.0040686799 0)
(-1.5059506e-05 0.0040685469 0)
(-2.6854943e-05 0.0040683927 0)
(-4.1650481e-05 0.0040681981 0)
(-6.1759725e-05 0.004068102 0)
(-9.0875788e-05 0.0040683476 0)
(-0.00013598067 0.0040693543 0)
(-0.00020646789 0.0040713096 0)
(-0.00030006363 0.0040658711 0)
(-0.00021503922 0.00386466 0)
(0.00046124862 0.003090234 0)
(0.00083538864 0.0039398387 0)
(0.00075948529 0.0040299768 0)
(0.00059989232 0.0040047252 0)
(0.00044896304 0.0039715673 0)
(0.00032552897 0.003947088 0)
(0.00022792681 0.0039311889 0)
(0.00014993856 0.0039214025 0)
(8.5045333e-05 0.0039158229 0)
(2.7667781e-05 0.003913265 0)
(-2.767096e-05 0.0039132646 0)
(-8.5048226e-05 0.0039158224 0)
(-0.0001499411 0.0039214017 0)
(-0.00022792885 0.0039311879 0)
(-0.00032553022 0.0039470869 0)
(-0.00044896364 0.0039715663 0)
(-0.00059989248 0.0040047239 0)
(-0.00075948541 0.0040299762 0)
(-0.00083538833 0.0039398388 0)
(-0.00046124827 0.0030902359 0)
(0.00034626447 0.0023786575 0)
(0.00077010777 0.00370114 0)
(0.00085065734 0.0040425214 0)
(0.00076862381 0.0040962117 0)
(0.00063045422 0.0040683587 0)
(0.00048654634 0.0040250916 0)
(0.00035528115 0.0039868586 0)
(0.00024014675 0.0039586606 0)
(0.00013844993 0.0039406493 0)
(4.5449853e-05 0.0039318392 0)
(-4.5454138e-05 0.0039318387 0)
(-0.00013845392 0.0039406486 0)
(-0.00024015033 0.0039586592 0)
(-0.0003552839 0.0039868569 0)
(-0.00048654798 0.0040250899 0)
(-0.00063045505 0.0040683574 0)
(-0.00076862432 0.0040962101 0)
(-0.00085065766 0.0040425206 0)
(-0.00077010777 0.0037011397 0)
(-0.00034626436 0.0023786582 0)
(0.00020440431 0.0019035722 0)
(0.00055411494 0.003447294 0)
(0.00071519675 0.0040163753 0)
(0.00071715022 0.0041914186 0)
(0.00063384161 0.0042113366 0)
(0.00051669501 0.0041773025 0)
(0.00039246581 0.0041319712 0)
(0.00027256429 0.0040925444 0)
(0.00015982121 0.0040651029 0)
(5.2931604e-05 0.0040511666 0)
(-5.2935483e-05 0.0040511662 0)
(-0.00015982492 0.0040651016 0)
(-0.00027256771 0.0040925422 0)
(-0.00039246835 0.0041319692 0)
(-0.00051669669 0.0041773009 0)
(-0.00063384259 0.004211335 0)
(-0.00071715087 0.0041914173 0)
(-0.00071519694 0.0040163739 0)
(-0.00055411471 0.0034472932 0)
(-0.00020440414 0.0019035717 0)
(0.00011044201 0.0016083656 0)
(0.00035982386 0.0032013895 0)
(0.00053297436 0.0039215869 0)
(0.00058334376 0.0042103652 0)
(0.00054963133 0.0042948114 0)
(0.0004703094 0.0042897601 0)
(0.00037038092 0.0042529124 0)
(0.00026392574 0.004212566 0)
(0.00015733485 0.0041816429 0)
(5.2536545e-05 0.0041652874 0)
(-5.2539768e-05 0.004165287 0)
(-0.00015733795 0.0041816411 0)
(-0.00026392835 0.0042125637 0)
(-0.00037038292 0.0042529099 0)
(-0.00047031101 0.0042897578 0)
(-0.00054963209 0.0042948094 0)
(-0.00058334424 0.004210364 0)
(-0.00053297468 0.0039215855 0)
(-0.0003598236 0.0032013885 0)
(-0.00011044177 0.0016083643 0)
(5.7499741e-05 0.0014339643 0)
(0.00022153345 0.0030046281 0)
(0.00037145449 0.0038088972 0)
(0.00043885812 0.0041847544 0)
(0.00043736609 0.004331188 0)
(0.00039071723 0.0043624486 0)
(0.00031791859 0.0043434747 0)
(0.00023197042 0.0043101754 0)
(0.00014043441 0.0042811548 0)
(4.7232581e-05 0.0042650247 0)
(-4.7234402e-05 0.0042650241 0)
(-0.00014043615 0.0042811527 0)
(-0.00023197189 0.0043101728 0)
(-0.00031791993 0.0043434718 0)
(-0.00039071804 0.0043624457 0)
(-0.00043736635 0.004331186 0)
(-0.00043885807 0.0041847533 0)
(-0.00037145423 0.0038088963 0)
(-0.00022153322 0.0030046273 0)
(-5.7499545e-05 0.0014339631 0)
(2.9947724e-05 0.0013332184 0)
(0.00013328626 0.0028646834 0)
(0.00024859067 0.0037099278 0)
(0.0003139307 0.0041451806 0)
(0.00032875152 0.0043422422 0)
(0.0003051677 0.0044085228 0)
(0.00025572344 0.0044107019 0)
(0.00019065777 0.0043887937 0)
(0.00011706774 0.0043652174 0)
(3.9621966e-05 0.0043512111 0)
(-3.9622487e-05 0.0043512103 0)
(-0.00011706783 0.0043652149 0)
(-0.0001906578 0.0043887907 0)
(-0.00025572358 0.0044106987 0)
(-0.00030516769 0.0044085201 0)
(-0.00032875106 0.0043422402 0)
(-0.00031393012 0.00414518 0)
(-0.00024859035 0.0037099275 0)
(-0.000133286 0.0028646831 0)
(-2.9947521e-05 0.0013332177 0)
(1.6001498e-05 0.001274846 0)
(7.9863599e-05 0.002770199 0)
(0.00016229524 0.0036325488 0)
(0.00021695602 0.0041052434 0)
(0.00023729954 0.004339812 0)
(0.00022792695 0.0044356285 0)
(0.0001961255 0.0044581442 0)
(0.00014911614 0.0044488981 0)
(9.2749714e-05 0.0044323911 0)
(3.1566625e-05 0.0044215096 0)
(-3.1565721e-05 0.0044215087 0)
(-9.2748429e-05 0.004432389 0)
(-0.00014911508 0.0044488953 0)
(-0.00019612463 0.0044581414 0)
(-0.00022792602 0.0044356261 0)
(-0.00023729845 0.0043398106 0)
(-0.00021695467 0.0041052435 0)
(-0.00016229444 0.0036325492 0)
(-7.9863378e-05 0.0027701996 0)
(-1.6001368e-05 0.001274846 0)
(8.8333019e-06 0.0012405919 0)
(4.8061696e-05 0.0027081349 0)
(0.00010435929 0.0035758049 0)
(0.0001463353 0.0040707313 0)
(0.00016624716 0.0043313078 0)
(0.00016460511 0.004450024 0)
(0.00014505796 0.0044899711 0)
(0.0001122656 0.0044926654 0)
(7.0654749e-05 0.0044834134 0)
(2.4167439e-05 0.0044759258 0)
(-2.4165538e-05 0.0044759253 0)
(-7.0652421e-05 0.0044834118 0)
(-0.00011226354 0.0044926633 0)
(-0.0001450561 0.0044899689 0)
(-0.00016460326 0.0044500219 0)
(-0.00016624546 0.0043313072 0)
(-0.00014633394 0.0040707319 0)
(-0.00010435839 0.0035758061 0)
(-4.8061381e-05 0.0027081365 0)
(-8.8333643e-06 0.0012405926 0)
(5.0176596e-06 0.0012202198 0)
(2.9112394e-05 0.0026681014 0)
(6.648172e-05 0.003536015 0)
(9.7001199e-05 0.0040435572 0)
(0.00011388958 0.0043213537 0)
(0.0001158466 0.0044568309 0)
(0.00010430328 0.0045106488 0)
(8.203229e-05 0.0045235594 0)
(5.2181753e-05 0.0045208875 0)
(1.7930547e-05 0.004516592 0)
(-1.7927897e-05 0.0045165918 0)
(-5.2179175e-05 0.004520886 0)
(-8.2030092e-05 0.0045235577 0)
(-0.00010430119 0.004510647 0)
(-0.00011584476 0.0044568295 0)
(-0.00011388855 0.0043213538 0)
(-9.7000463e-05 0.0040435585 0)
(-6.6481053e-05 0.0035360173 0)
(-2.9112092e-05 0.0026681041 0)
(-5.0176083e-06 0.0012202212 0)
(2.9083159e-06 0.0012079668 0)
(1.7736325e-05 0.0026425611 0)
(4.2109391e-05 0.0035089423 0)
(6.350371e-05 0.004023397 0)
(7.6715168e-05 0.0043122365 0)
(7.9918901e-05 0.0044594949 0)
(7.3353427e-05 0.0045237932 0)
(5.8534336e-05 0.0045448931 0)
(3.7596643e-05 0.0045477376 0)
(1.2973112e-05 0.0045461918 0)
(-1.2970138e-05 0.0045461913 0)
(-3.7593696e-05 0.0045477362 0)
(-5.8531915e-05 0.0045448913 0)
(-7.335156e-05 0.0045237918 0)
(-7.9917073e-05 0.0044594942 0)
(-7.6713802e-05 0.0043122373 0)
(-6.3502937e-05 0.0040233993 0)
(-4.2108797e-05 0.0035089457 0)
(-1.7736161e-05 0.0026425646 0)
(-2.9083582e-06 0.0012079686 0)
(1.7033244e-06 0.0012005403 0)
(1.0844247e-05 0.0026263661 0)
(2.65698e-05 0.0034908761 0)
(4.1199761e-05 0.0040090039 0)
(5.1017023e-05 0.0043047717 0)
(5.4282069e-05 0.0044600753 0)
(5.0687718e-05 0.004532001 0)
(4.0979162e-05 0.0045593658 0)
(2.6551824e-05 0.0045665867 0)
(9.1969148e-06 0.0045672697 0)
(-9.1949384e-06 0.0045672694 0)
(-2.6549405e-05 0.0045665855 0)
(-4.0977124e-05 0.0045593643 0)
(-5.0686217e-05 0.0045320001 0)
(-5.4280838e-05 0.0044600754 0)
(-5.1016125e-05 0.0043047732 0)
(-4.1199109e-05 0.0040090072 0)
(-2.6569385e-05 0.0034908803 0)
(-1.0844078e-05 0.0026263701 0)
(-1.7033099e-06 0.0012005425 0)
(9.9789359e-07 0.0011960245 0)
(6.633934e-06 0.0026161361 0)
(1.6710387e-05 0.0034789739 0)
(2.654527e-05 0.0039989921 0)
(3.3592054e-05 0.0042990423 0)
(3.6418654e-05 0.0044597279 0)
(3.4534816e-05 0.0045370528 0)
(2.8249076e-05 0.004569046 0)
(1.8447836e-05 0.0045795999 0)
(6.4123614e-06 0.0045820112 0)
(-6.4110319e-06 0.0045820111 0)
(-1.8446243e-05 0.0045795989 0)
(-2.8247378e-05 0.0045690452 0)
(-3.4533231e-05 0.0045370522 0)
(-3.6417442e-05 0.0044597282 0)
(-3.359114e-05 0.0042990445 0)
(-2.6544633e-05 0.0039989962 0)
(-1.6710039e-05 0.0034789789 0)
(-6.6338467e-06 0.0026161408 0)
(-9.9786928e-07 0.0011960272 0)
(5.7864427e-07 0.0011932824 0)
(4.0458835e-06 0.0026096961 0)
(1.0470465e-05 0.0034712036 0)
(1.7003049e-05 0.003992155 0)
(2.1940575e-05 0.0042948256 0)
(2.4190526e-05 0.004459059 0)
(2.3258662e-05 0.0045401268 0)
(1.9226919e-05 0.0045754501 0)
(1.2645327e-05 0.0045884641 0)
(4.4096193e-06 0.0045921708 0)
(-4.4087835e-06 0.0045921707 0)
(-1.2643959e-05 0.0045884633 0)
(-1.9225671e-05 0.0045754494 0)
(-2.3257755e-05 0.0045401264 0)
(-2.4189861e-05 0.0044590594 0)
(-2.1940052e-05 0.0042948281 0)
(-1.7002959e-05 0.0039921591 0)
(-1.0470575e-05 0.0034712089 0)
(-4.0460755e-06 0.002609701 0)
(-5.7886192e-07 0.0011932855 0)
(3.283918e-07 0.0011916276 0)
(2.4504981e-06 0.0026056575 0)
(6.5283598e-06 0.0034661653 0)
(1.0828874e-05 0.0039875473 0)
(1.4228972e-05 0.0042918099 0)
(1.5931605e-05 0.0044583567 0)
(1.5511417e-05 0.0045419788 0)
(1.2945504e-05 0.0045796488 0)
(8.5688298e-06 0.0045944352 0)
(2.9971203e-06 0.0045990874 0)
(-2.9964747e-06 0.0045990871 0)
(-8.5684428e-06 0.0045944345 0)
(-1.2945058e-05 0.0045796482 0)
(-1.5510843e-05 0.0045419787 0)
(-1.5931085e-05 0.0044583576 0)
(-1.4228748e-05 0.0042918124 0)
(-1.0829035e-05 0.0039875517 0)
(-6.5285575e-06 0.0034661708 0)
(-2.4507425e-06 0.0026056626 0)
(-3.2859425e-07 0.0011916308 0)
(1.7965087e-07 0.0011906401 0)
(1.4668023e-06 0.0026031382 0)
(4.0421007e-06 0.0034629175 0)
(6.8532558e-06 0.0039844732 0)
(9.1643954e-06 0.0042896958 0)
(1.041114e-05 0.0044577396 0)
(1.0255421e-05 0.0045430831 0)
(8.6340203e-06 0.0045823798 0)
(5.7486209e-06 0.0045984186 0)
(2.0162448e-06 0.0046037463 0)
(-2.0160546e-06 0.004603746 0)
(-5.7487867e-06 0.0045984179 0)
(-8.6339719e-06 0.0045823796 0)
(-1.025489e-05 0.004543083 0)
(-1.0411032e-05 0.0044577405 0)
(-9.1646664e-06 0.0042896984 0)
(-6.8534313e-06 0.0039844777 0)
(-4.0422736e-06 0.0034629234 0)
(-1.4672014e-06 0.0026031435 0)
(-1.7995437e-07 0.0011906435 0)
(9.2294339e-08 0.0011900616 0)
(8.6258927e-07 0.0026015786 0)
(2.4784562e-06 0.0034608367 0)
(4.304061e-06 0.0039824391 0)
(5.8597438e-06 0.0042882361 0)
(6.7515137e-06 0.0044572416 0)
(6.7246063e-06 0.0045437335 0)
(5.7086957e-06 0.0045841435 0)
(3.8215794e-06 0.0046010528 0)
(1.3436189e-06 0.0046068546 0)
(-1.3439418e-06 0.0046068545 0)
(-3.8218806e-06 0.0046010522 0)
(-5.7089394e-06 0.0045841429 0)
(-6.7251486e-06 0.0045437332 0)
(-6.7517099e-06 0.0044572422 0)
(-5.8598282e-06 0.0042882382 0)
(-4.3043676e-06 0.0039824432 0)
(-2.4784926e-06 0.0034608426 0)
(-8.6281835e-07 0.0026015839 0)
(-9.2497328e-08 0.0011900649 0)
(4.2098672e-08 0.0011897317 0)
(4.9405425e-07 0.0026006228 0)
(1.499524e-06 0.0034595127 0)
(2.6774956e-06 0.0039811024 0)
(3.7157734e-06 0.0042872395 0)
(4.3435576e-06 0.0044568585 0)
(4.3737617e-06 0.0045441104 0)
(3.7424597e-06 0.0045852734 0)
(2.5183182e-06 0.0046027803 0)
(8.8741635e-07 0.0046089107 0)
(-8.8831435e-07 0.0046089106 0)
(-2.5191227e-06 0.0046027799 0)
(-3.7432087e-06 0.0045852724 0)
(-4.3746334e-06 0.0045441098 0)
(-4.3441551e-06 0.0044568589 0)
(-3.7162564e-06 0.0042872412 0)
(-2.6778363e-06 0.0039811063 0)
(-1.4996794e-06 0.0034595182 0)
(-4.9440845e-07 0.002600628 0)
(-4.2315131e-08 0.0011897348 0)
(1.4031588e-08 0.0011895511 0)
(2.717417e-07 0.0026000454 0)
(8.9060055e-07 0.0034586766 0)
(1.6454013e-06 0.00398023 0)
(2.3337127e-06 0.0042865649 0)
(2.7702725e-06 0.0044565729 0)
(2.8209836e-06 0.0045443233 0)
(2.4329984e-06 0.0045859911 0)
(1.645521e-06 0.0046039041 0)
(5.8130323e-07 0.0046102592 0)
(-5.8207789e-07 0.004610259 0)
(-1.6467256e-06 0.0046039033 0)
(-2.4342761e-06 0.0045859901 0)
(-2.8221995e-06 0.0045443229 0)
(-2.7711716e-06 0.0044565731 0)
(-2.334242e-06 0.0042865665 0)
(-1.6456713e-06 0.0039802335 0)
(-8.9062193e-07 0.0034586819 0)
(-2.718485e-07 0.0026000506 0)
(-1.414817e-08 0.0011895544 0)
(-5.2699073e-10 0.001189459 0)
(1.4021999e-07 0.0025997032 0)
(5.1554079e-07 0.0034581535 0)
(9.9532965e-07 0.0039796647 0)
(1.4485979e-06 0.0042861122 0)
(1.7495659e-06 0.0044563646 0)
(1.8033259e-06 0.0045444396 0)
(1.5681989e-06 0.0045864427 0)
(1.0661055e-06 0.0046046291 0)
(3.7739067e-07 0.0046111363 0)
(-3.7862633e-07 0.0046111359 0)
(-1.0678294e-06 0.0046046279 0)
(-1.5697601e-06 0.0045864416 0)
(-1.8045992e-06 0.0045444391 0)
(-1.7508336e-06 0.0044563646 0)
(-1.449654e-06 0.0042861132 0)
(-9.959152e-07 0.0039796676 0)
(-5.1561525e-07 0.0034581584 0)
(-1.4033825e-07 0.0025997085 0)
(3.1768552e-10 0.0011894623 0)
(-7.1804006e-09 0.0011894181 0)
(6.4258371e-08 0.0025995061 0)
(2.8762193e-07 0.0034578308 0)
(5.9015926e-07 0.0039793011 0)
(8.8684974e-07 0.0042858101 0)
(1.0926375e-06 0.0044562149 0)
(1.141322e-06 0.0045445 0)
(1.0014228e-06 0.0045867239 0)
(6.843178e-07 0.0046050927 0)
(2.4231622e-07 0.0046117022 0)
(-2.4451843e-07 0.0046117016 0)
(-6.8636861e-07 0.0046050912 0)
(-1.0035573e-06 0.0045867226 0)
(-1.1433127e-06 0.0045444989 0)
(-1.0943758e-06 0.0044562142 0)
(-8.8829993e-07 0.0042858105 0)
(-5.9124243e-07 0.0039793033 0)
(-2.8827755e-07 0.0034578347 0)
(-6.4385054e-08 0.0025995108 0)
(7.2822073e-09 0.001189421 0)
(-9.6768976e-09 0.0011894052 0)
(2.2510143e-08 0.0025993969 0)
(1.5255723e-07 0.003457634 0)
(3.4143594e-07 0.003979069 0)
(5.3459824e-07 0.0042856098 0)
(6.7462816e-07 0.0044561085 0)
(7.1533659e-07 0.0045445283 0)
(6.3363217e-07 0.004586897 0)
(4.3527527e-07 0.0046053863 0)
(1.5388455e-07 0.0046120638 0)
(-1.5733456e-07 0.0046120632 0)
(-4.3838088e-07 0.0046053846 0)
(-6.3623891e-07 0.0045868955 0)
(-7.1771352e-07 0.0045445268 0)
(-6.7688302e-07 0.0044561071 0)
(-5.3654185e-07 0.0042856093 0)
(-3.4307521e-07 0.0039790704 0)
(-1.5353266e-07 0.003457637 0)
(-2.2661668e-08 0.0025994006 0)
(9.8150654e-09 0.0011894076 0)
(-9.7444244e-09 0.001189407 0)
(1.2290076e-09 0.0025993392 0)
(7.5166486e-08 0.0034575157 0)
(1.9225263e-07 0.0039789218 0)
(3.1748329e-07 0.0042854779 0)
(4.1189546e-07 0.0044560336 0)
(4.4410563e-07 0.0045445392 0)
(3.9753754e-07 0.0045870021 0)
(2.7435844e-07 0.0046055706 0)
(9.654985e-08 0.0046122932 0)
(-1.0102738e-07 0.0046122927 0)
(-2.7856791e-07 0.0046055691 0)
(-4.0109485e-07 0.0045870005 0)
(-4.475691e-07 0.0045445374 0)
(-4.1501742e-07 0.0044560315 0)
(-3.1993403e-07 0.0042854764 0)
(-1.9427214e-07 0.0039789221 0)
(-7.6255229e-08 0.0034575177 0)
(-1.3357428e-09 0.002599342 0)
(9.9002455e-09 0.0011894086 0)
(-8.5659721e-09 0.001189415 0)
(-7.6401489e-09 0.0025993107 0)
(3.386735e-08 0.0034574457 0)
(1.0633101e-07 0.0039788291 0)
(1.8727229e-07 0.0042853913 0)
(2.5064696e-07 0.0044559815 0)
(2.7495481e-07 0.0045445418 0)
(2.4843645e-07 0.0045870657 0)
(1.7215549e-07 0.0046056858 0)
(5.9882895e-08 0.0046124382 0)
(-6.5563587e-08 0.0046124379 0)
(-1.7755328e-07 0.0046056845 0)
(-2.532641e-07 0.0045870637 0)
(-2.7951763e-07 0.0045445393 0)
(-2.5482437e-07 0.0044559786 0)
(-1.9046886e-07 0.0042853892 0)
(-1.0862413e-07 0.0039788283 0)
(-3.5245724e-08 0.0034574466 0)
(7.1903996e-09 0.0025993122 0)
(8.54309e-09 0.0011894156 0)
(-6.3951568e-09 0.0011894239 0)
(-8.7591965e-09 0.0025992976 0)
(1.5048679e-08 0.0034574043 0)
(6.0771628e-08 0.0039787706 0)
(1.1336503e-07 0.0042853349 0)
(1.5522376e-07 0.0044559461 0)
(1.7239837e-07 0.0045445411 0)
(1.5660945e-07 0.0045871046 0)
(1.0834848e-07 0.0046057584 0)
(3.7066976e-08 0.0046125302 0)
(-4.3211975e-08 0.0046125298 0)
(-1.1512153e-07 0.0046057571 0)
(-1.6281842e-07 0.0045871021 0)
(-1.7809945e-07 0.0045445381 0)
(-1.6038421e-07 0.0044559426 0)
(-1.1753624e-07 0.0042853316 0)
(-6.4291384e-08 0.0039787684 0)
(-1.7544006e-08 0.0034574033 0)
(7.853139e-09 0.0025992976 0)
(6.3528144e-09 0.0011894236 0)
(-3.7732837e-09 0.0011894304 0)
(-4.6700247e-09 0.0025992905 0)
(1.1836686e-08 0.0034573782 0)
(4.2107042e-08 0.0039787331 0)
(7.6167814e-08 0.0042852981 0)
(1.0299652e-07 0.004455923 0)
(1.1336618e-07 0.0045445403 0)
(1.0246016e-07 0.0045871295 0)
(7.0480202e-08 0.0046058054 0)
(2.2967211e-08 0.0046125899 0)
(-3.003109e-08 0.0046125893 0)
(-7.7625291e-08 0.0046058038 0)
(-1.098694e-07 0.0045871265 0)
(-1.2033776e-07 0.004544537 0)
(-1.0913658e-07 0.0044559185 0)
(-8.1386662e-08 0.0042852936 0)
(-4.6227911e-08 0.003978729 0)
(-1.4615835e-08 0.0034573752 0)
(3.4682769e-09 0.0025992887 0)
(3.5812544e-09 0.0011894294 0)
(-1.7210182e-10 0.0011894325 0)
(4.312885e-09 0.002599283 0)
(1.9987436e-08 0.0034573594 0)
(4.1739861e-08 0.0039787086 0)
(6.3677403e-08 0.0042852753 0)
(7.9339963e-08 0.0044559098 0)
(8.3261317e-08 0.004544542 0)
(7.2923982e-08 0.004587148 0)
(4.8767665e-08 0.0046058385 0)
(1.4525534e-08 0.0046126311 0)
(-2.321952e-08 0.0046126305 0)
(-5.7132793e-08 0.0046058363 0)
(-8.12381e-08 0.0045871447 0)
(-9.130435e-08 0.004544538 0)
(-8.6462915e-08 0.0044559042 0)
(-6.9991963e-08 0.0042852696 0)
(-4.7027904e-08 0.0039787027 0)
(-2.3575899e-08 0.0034573546 0)
(-5.4730133e-09 0.0025992796 0)
(3.9037202e-10 0.0011894309 0)
(4.5668446e-09 0.0011894291 0)
(1.8928092e-08 0.0025992725 0)
(3.9423165e-08 0.0034573458 0)
(5.659544e-08 0.0039786953 0)
(6.9386202e-08 0.0042852664 0)
(7.5439595e-08 0.0044559087 0)
(7.2510673e-08 0.0045445515 0)
(5.9794621e-08 0.0045871685 0)
(3.8324922e-08 0.0046058686 0)
(1.040967e-08 0.0046126662 0)
(-1.9862e-08 0.0046126655 0)
(-4.7715923e-08 0.0046058661 0)
(-6.9230442e-08 0.004587165 0)
(-8.1409886e-08 0.0045445465 0)
(-8.3314171e-08 0.0044559021 0)
(-7.6271557e-08 0.004285259 0)
(-6.2273575e-08 0.0039786876 0)
(-4.3087904e-08 0.003457339 0)
(-2.0463151e-08 0.0025992677 0)
(-4.9105611e-09 0.001189427 0)
(1.510206e-08 0.0011894089 0)
(4.4726114e-08 0.0025992436 0)
(7.0894726e-08 0.0034573223 0)
(8.3672583e-08 0.0039786788 0)
(8.7801094e-08 0.0042852565 0)
(8.4605745e-08 0.0044559058 0)
(7.3951241e-08 0.0045445562 0)
(5.7063604e-08 0.0045871801 0)
(3.4844757e-08 0.0046058861 0)
(8.5535301e-09 0.004612687 0)
(-1.8866771e-08 0.0046126863 0)
(-4.5106939e-08 0.0046058839 0)
(-6.7625657e-08 0.0045871767 0)
(-8.405126e-08 0.0045445505 0)
(-9.3601706e-08 0.0044558982 0)
(-9.5834437e-08 0.0042852476 0)
(-9.0225051e-08 0.0039786692 0)
(-7.4971968e-08 0.0034573134 0)
(-4.6379486e-08 0.0025992368 0)
(-1.5396987e-08 0.0011894059 0)
(3.10945e-08 0.0011893691 0)
(8.0194636e-08 0.0025991937 0)
(1.0985424e-07 0.0034572814 0)
(1.1628654e-07 0.0039786459 0)
(1.1148454e-07 0.0042852294 0)
(9.947099e-08 0.004455883 0)
(8.1555142e-08 0.0045445377 0)
(5.9566706e-08 0.0045871652 0)
(3.4863383e-08 0.0046058737 0)
(8.0556389e-09 0.0046126761 0)
(-1.9328227e-08 0.0046126755 0)
(-4.6016755e-08 0.0046058713 0)
(-7.1002817e-08 0.0045871614 0)
(-9.2356993e-08 0.0045445313 0)
(-1.089036e-07 0.0044558745 0)
(-1.1983655e-07 0.0042852192 0)
(-1.2316319e-07 0.0039786345 0)
(-1.1441093e-07 0.0034572702 0)
(-8.212678e-08 0.0025991846 0)
(-3.145091e-08 0.0011893652 0)
(3.6781192e-08 0.0011892864 0)
(9.468622e-08 0.0025991545 0)
(1.2486708e-07 0.0034572989 0)
(1.2939258e-07 0.0039786955 0)
(1.2150332e-07 0.0042852974 0)
(1.0600489e-07 0.0044559636 0)
(8.495151e-08 0.004544626 0)
(6.053537e-08 0.0045872588 0)
(3.4449548e-08 0.0046059699 0)
(7.456742e-09 0.0046127738 0)
(-1.9921424e-08 0.0046127729 0)
(-4.688283e-08 0.0046059671 0)
(-7.2727377e-08 0.0045872539 0)
(-9.6251615e-08 0.0045446183 0)
(-1.156872e-07 0.0044559533 0)
(-1.2986473e-07 0.0042852849 0)
(-1.363877e-07 0.0039786812 0)
(-1.2976722e-07 0.0034572845 0)
(-9.6952971e-08 0.0025991423 0)
(-3.7216454e-08 0.0011892814 0)
)
;

boundaryField
{
    Wall
    {
        type            fixedValue;
        value           uniform (0 0 0);
    }
    frontAndBack
    {
        type            empty;
    }
    atmosphere
    {
        type            pressureInletOutletVelocity;
        value           nonuniform List<vector> 
20
(
(3.6781192e-08 0.0011892864 0)
(9.468622e-08 0.0025991545 0)
(1.2486708e-07 0.0034572989 0)
(1.2939258e-07 0.0039786955 0)
(1.2150332e-07 0.0042852974 0)
(1.0600489e-07 0.0044559636 0)
(8.495151e-08 0.004544626 0)
(6.053537e-08 0.0045872588 0)
(3.4449548e-08 0.0046059699 0)
(7.456742e-09 0.0046127738 0)
(-1.9921424e-08 0.0046127729 0)
(-4.688283e-08 0.0046059671 0)
(-7.2727377e-08 0.0045872539 0)
(-9.6251615e-08 0.0045446183 0)
(-1.156872e-07 0.0044559533 0)
(-1.2986473e-07 0.0042852849 0)
(-1.363877e-07 0.0039786812 0)
(-1.2976722e-07 0.0034572845 0)
(-9.6952971e-08 0.0025991423 0)
(-3.7216454e-08 0.0011892814 0)
)
;
    }
}


// ************************************************************************* //
