/*--------------------------------*- C++ -*----------------------------------*\
| =========                 |                                                 |
| \\      /  F ield         | OpenFOAM: The Open Source CFD Toolbox           |
|  \\    /   O peration     | Version:  3.0.1                                 |
|   \\  /    A nd           | Web:      www.OpenFOAM.org                      |
|    \\/     M anipulation  |                                                 |
\*---------------------------------------------------------------------------*/
FoamFile
{
    version     2.0;
    format      ascii;
    class       volScalarField;
    location    "18";
    object      wBA_l;
}
// * * * * * * * * * * * * * * * * * * * * * * * * * * * * * * * * * * * * * //

dimensions      [0 0 0 0 0 0 0];

internalField   nonuniform List<scalar> 
800
(
0.055308503
0.055308223
0.055308221
0.055308224
0.055308227
0.055308229
0.05530823
0.055308231
0.055308232
0.055308232
0.055308232
0.055308232
0.055308231
0.05530823
0.055308229
0.055308227
0.055308224
0.055308221
0.055308223
0.055308503
0.055693746
0.055685517
0.055683868
0.055683324
0.055682989
0.055682706
0.055682473
0.055682297
0.05568218
0.055682122
0.055682122
0.05568218
0.055682297
0.055682473
0.055682707
0.055682989
0.055683324
0.055683868
0.055685517
0.055693746
0.053683643
0.05370217
0.05370508
0.053704893
0.053704232
0.053703841
0.053703635
0.053703534
0.053703487
0.053703471
0.053703471
0.053703487
0.053703534
0.053703635
0.053703841
0.053704231
0.053704892
0.053705079
0.05370217
0.053683642
0.049984858
0.050051038
0.05005937
0.050058065
0.050056987
0.050056449
0.050056251
0.050056206
0.050056208
0.050056219
0.050056219
0.050056208
0.050056206
0.050056251
0.050056449
0.050056987
0.050058065
0.050059371
0.050051038
0.049984857
0.0451228
0.045258995
0.045275133
0.045273645
0.045272524
0.045271957
0.045271711
0.045271593
0.045271527
0.045271498
0.045271498
0.045271527
0.045271594
0.045271712
0.045271959
0.045272525
0.045273647
0.045275134
0.045258996
0.0451228
0.039450796
0.039694363
0.039729043
0.039733035
0.039733527
0.03973339
0.039733069
0.039732638
0.03973232
0.039732146
0.039732147
0.039732321
0.039732639
0.039733071
0.039733393
0.039733529
0.039733038
0.039729047
0.039694366
0.039450799
0.03313708
0.033538382
0.033617576
0.033636117
0.033640569
0.033640939
0.03364023
0.033639102
0.033638252
0.033637732
0.033637733
0.033638252
0.033639104
0.033640232
0.033640942
0.033640573
0.033636122
0.033617581
0.033538387
0.033137086
0.026385859
0.027000532
0.027172505
0.027218077
0.02722833
0.027228011
0.027225335
0.027222717
0.027220752
0.027219534
0.027219534
0.027220752
0.027222718
0.027225338
0.027228015
0.027228336
0.027218084
0.027172511
0.02700054
0.026385869
0.019300586
0.020271223
0.020632808
0.020733548
0.020751521
0.020745955
0.020736639
0.020729724
0.020724903
0.020722103
0.020722103
0.020724903
0.020729723
0.020736641
0.020745959
0.020751527
0.020733557
0.020632816
0.020271233
0.0193006
0.011993301
0.013463311
0.014122455
0.014325895
0.014356398
0.014336996
0.014311659
0.014293907
0.014282458
0.014276333
0.014276331
0.014282457
0.014293904
0.014311659
0.014336999
0.014356403
0.014325903
0.014122462
0.013463322
0.011993317
0.0057625166
0.0078730176
0.0087981113
0.0091172126
0.0091667194
0.0091270856
0.0090750267
0.009036867
0.0090127374
0.0090004851
0.0090004827
0.0090127342
0.0090368603
0.0090750239
0.0091270861
0.0091667219
0.0091172178
0.0087981152
0.0078730253
0.0057625288
0.0019260043
0.0040520359
0.0050563519
0.0054435115
0.005519511
0.0054745339
0.0054045032
0.0053485874
0.0053121166
0.0052937814
0.0052937784
0.005312112
0.0053485789
0.0054044979
0.0054745318
0.0055195105
0.0054435133
0.0050563527
0.0040520394
0.0019260099
0.00044780066
0.0018232642
0.0026685453
0.0030470057
0.0031456269
0.0031176868
0.0030541622
0.0029982082
0.0029600403
0.0029406467
0.0029406439
0.0029600354
0.0029981996
0.003054156
0.0031176832
0.0031456244
0.0030470053
0.0026685442
0.0018232648
0.00044780219
7.6791995e-05
0.00071561176
0.0012896231
0.0015942304
0.0016939793
0.0016870527
0.0016434586
0.0016006341
0.0015700363
0.001554248
0.0015542458
0.001570032
0.001600627
0.001643453
0.0016870489
0.001693976
0.001594229
0.0012896214
0.00071561133
7.679226e-05
1.0446054e-05
0.00024632606
0.00057140533
0.00077909147
0.00086072358
0.00086662538
0.00084249831
0.0008154892
0.00079525976
0.0007846556
0.00078465407
0.00079525656
0.00081548404
0.00084249393
0.00086662213
0.00086072054
0.00077908993
0.00057140394
0.00024632557
1.044609e-05
1.2005394e-06
7.5368215e-05
0.00023315979
0.00035614258
0.0004125908
0.00042232803
0.00041132213
0.00039666905
0.0003851288
0.00037898312
0.00037898217
0.00038512669
0.00039666572
0.00041131914
0.00042232568
0.00041258852
0.00035614138
0.00023315894
7.5367938e-05
1.200544e-06
1.2197946e-07
2.0855805e-05
8.8194203e-05
0.00015273625
0.0001867813
0.00019525758
0.00019120404
0.00018419642
0.00017835577
0.00017519347
0.00017519293
0.00017835452
0.00018419447
0.00019120221
0.00019525609
0.00018677985
0.00015273547
8.8193774e-05
2.085569e-05
1.2198001e-07
1.1288293e-08
5.3084271e-06
3.1154761e-05
6.1680647e-05
7.9999379e-05
8.5705517e-05
8.4638183e-05
8.1644766e-05
7.8975717e-05
7.7503935e-05
7.7503658e-05
7.8975044e-05
8.1643732e-05
8.4637166e-05
8.5704669e-05
7.9998566e-05
6.168021e-05
3.1154572e-05
5.3083876e-06
1.1288356e-08
9.6998661e-10
1.2608575e-06
1.035196e-05
2.354557e-05
3.2487032e-05
3.5755409e-05
3.5693703e-05
3.4545912e-05
3.3432059e-05
3.2804697e-05
3.2804566e-05
3.3431721e-05
3.4545405e-05
3.5693181e-05
3.5754967e-05
3.2486623e-05
2.354535e-05
1.0351884e-05
1.2608458e-06
9.69993e-10
7.8402569e-11
2.8270437e-07
3.2557912e-06
8.5266156e-06
1.2536002e-05
1.4196873e-05
1.4351058e-05
1.3957364e-05
1.3529783e-05
1.328274e-05
1.3282682e-05
1.3529626e-05
1.3957131e-05
1.435081e-05
1.419666e-05
1.2535815e-05
8.5265157e-06
3.2557632e-06
2.8270127e-07
7.8403165e-11
6.0183999e-12
6.0371888e-08
9.7419408e-07
2.9383818e-06
4.6061515e-06
5.3725186e-06
5.5058018e-06
5.3869665e-06
5.2353517e-06
5.1449394e-06
5.144915e-06
5.2352832e-06
5.3868664e-06
5.5056925e-06
5.3724226e-06
4.6060724e-06
2.9383401e-06
9.7418441e-07
6.0371123e-08
6.0184503e-12
4.4228591e-13
1.236193e-08
2.7842771e-07
9.6613887e-07
1.6146002e-06
1.9404486e-06
2.017491e-06
1.9873486e-06
1.9376168e-06
1.9067363e-06
1.9067266e-06
1.9375886e-06
1.987308e-06
2.0174457e-06
1.9404081e-06
1.614569e-06
9.6612278e-07
2.7842455e-07
1.2361754e-08
4.4228977e-13
3.1353295e-14
2.4389587e-09
7.6234019e-08
3.0373741e-07
5.4082915e-07
6.6978661e-07
7.067689e-07
7.0127509e-07
6.8620847e-07
6.7633951e-07
6.7633582e-07
6.861975e-07
7.012595e-07
7.0675113e-07
6.6977048e-07
5.4081754e-07
3.0373158e-07
7.623304e-08
2.4389201e-09
3.1353561e-14
2.1604447e-15
4.6520341e-10
2.0040058e-08
9.1460902e-08
1.7336197e-07
2.2121294e-07
2.3693892e-07
2.3686999e-07
2.3267878e-07
2.2972422e-07
2.2972287e-07
2.3267474e-07
2.3686427e-07
2.3693233e-07
2.2120687e-07
1.7335787e-07
9.1458915e-08
2.0039768e-08
4.6519536e-10
2.1604595e-15
1.4583166e-16
8.5963147e-11
5.0657625e-09
2.641575e-08
5.3247583e-08
6.9986366e-08
7.6085035e-08
7.6644133e-08
7.5587945e-08
7.475971e-08
7.4759238e-08
7.5586529e-08
7.6642137e-08
7.6082711e-08
6.9984204e-08
5.3246205e-08
2.6415113e-08
5.06568e-09
8.596153e-11
1.458322e-16
9.7144571e-18
1.5406365e-11
1.2327655e-09
7.3263662e-09
1.5688856e-08
2.1232399e-08
2.3424346e-08
2.3776408e-08
2.3542522e-08
2.3325677e-08
2.332552e-08
2.354205e-08
2.3775741e-08
2.3423564e-08
2.1231667e-08
1.5688411e-08
7.326171e-09
1.232743e-09
1.5406052e-11
9.7144463e-18
6.4255571e-19
2.6791027e-12
2.890503e-10
1.9531986e-09
4.4388938e-09
6.1829063e-09
6.920442e-09
7.0773403e-09
7.0353806e-09
6.982661e-09
6.9826107e-09
7.0352306e-09
7.0771265e-09
6.9201903e-09
6.1826699e-09
4.4387555e-09
1.9531416e-09
2.8904439e-10
2.6790439e-12
6.4255083e-19
4.2367364e-20
4.5203046e-13
6.5344923e-11
5.0097938e-10
1.2071547e-09
1.7298051e-09
1.9637366e-09
2.0230779e-09
2.0188303e-09
2.0070653e-09
2.0070498e-09
2.0187845e-09
2.0230122e-09
1.9636591e-09
1.7297322e-09
1.2071133e-09
5.0096337e-10
6.5343425e-11
4.5201973e-13
4.2366722e-20
2.7877638e-21
7.3981081e-14
1.4250779e-11
1.2372552e-10
3.1582276e-10
4.6537008e-10
5.3566554e-10
5.5582462e-10
5.5672684e-10
5.5437398e-10
5.5436941e-10
5.567134e-10
5.5580524e-10
5.3564269e-10
4.6534859e-10
3.1581075e-10
1.237212e-10
1.4250415e-11
7.3979177e-14
2.7876998e-21
2.9710452e-22
1.1740881e-14
2.9996798e-12
2.9443807e-11
7.955827e-11
1.2049503e-10
1.4058431e-10
1.4689582e-10
1.4766319e-10
1.4726515e-10
1.4726385e-10
1.476594e-10
1.4689032e-10
1.4057784e-10
1.2048896e-10
7.9554912e-11
2.9442678e-11
2.9995937e-12
1.1740553e-14
2.9565533e-22
9.5012767e-23
1.8062316e-15
6.0972596e-13
6.7567785e-12
1.9312724e-11
3.0051833e-11
3.5528584e-11
3.7375711e-11
3.7700691e-11
3.7654033e-11
3.7653678e-11
3.7699664e-11
3.7374212e-11
3.5526822e-11
3.005019e-11
1.9311819e-11
6.7564944e-12
6.0970634e-13
1.8061766e-15
9.7723059e-23
7.1423488e-23
2.6930467e-16
1.1973834e-13
1.4962484e-12
4.5212813e-12
7.2253112e-12
8.6531721e-12
9.1629667e-12
9.2732398e-12
9.274618e-12
9.2745244e-12
9.2729717e-12
9.1625737e-12
8.6527112e-12
7.2248838e-12
4.5210461e-12
1.4961794e-12
1.1973404e-13
2.6929569e-16
7.2187201e-23
2.0296478e-23
3.8910689e-17
2.2729567e-14
3.1995368e-13
1.021581e-12
1.6759839e-12
2.0327339e-12
2.1662198e-12
2.1992433e-12
2.2024669e-12
2.2024433e-12
2.199176e-12
2.1661206e-12
2.0326179e-12
1.675877e-12
1.0215222e-12
3.1993746e-13
2.2728655e-14
3.8909255e-17
2.0104576e-23
3.0942442e-24
5.4482696e-18
4.1728756e-15
6.6112872e-14
2.2294707e-13
3.7535861e-13
4.609321e-13
4.9423714e-13
5.0329625e-13
5.0466399e-13
5.0465826e-13
5.0327997e-13
4.9421298e-13
4.6090401e-13
3.753329e-13
2.229329e-13
6.6109183e-14
4.1726887e-15
5.4480326e-18
3.0172485e-24
3.0833501e-25
7.3937681e-19
7.4130807e-16
1.3209658e-14
4.7028806e-14
8.1229412e-14
1.0096706e-13
1.0891149e-13
1.1123071e-13
1.1166539e-13
1.1166405e-13
1.1122691e-13
1.0890582e-13
1.009605e-13
8.1223453e-14
4.7025515e-14
1.3208846e-14
7.4127095e-16
7.3933795e-19
2.8424575e-25
1.6276061e-26
9.7270188e-20
1.2750229e-16
2.5538171e-15
9.595467e-15
1.699765e-14
2.1381331e-14
2.3197858e-14
2.3758003e-14
2.3877766e-14
2.3877466e-14
2.3757149e-14
2.3196577e-14
2.1379852e-14
1.6996317e-14
9.5947316e-15
2.5536439e-15
1.2749515e-16
9.7264322e-20
1.5021774e-26
7.7241596e-28
1.2408655e-20
2.1243817e-17
4.780362e-16
1.8949868e-15
3.4417735e-15
4.3804481e-15
4.7794633e-15
4.9079915e-15
4.938032e-15
4.9379669e-15
4.907806e-15
4.7791843e-15
4.3801262e-15
3.4414855e-15
1.8948283e-15
4.780005e-16
2.1242486e-17
1.2407846e-20
7.0068276e-28
3.1265924e-29
1.5355148e-21
3.4306956e-18
8.6691903e-17
3.624709e-16
6.7482837e-16
8.6883578e-16
9.5318836e-16
9.8134299e-16
9.8836061e-16
9.8834696e-16
9.8130406e-16
9.5312967e-16
8.6876808e-16
6.7476822e-16
3.6243791e-16
8.6684768e-17
3.4304548e-18
1.5354085e-21
2.7405166e-29
1.093431e-30
1.843907e-22
5.3728627e-19
1.5240887e-17
6.7196555e-17
1.2820715e-16
1.6695086e-16
1.8413982e-16
1.900488e-16
1.9159494e-16
1.9159216e-16
1.9004091e-16
1.8412789e-16
1.6693709e-16
1.2819499e-16
6.7189928e-17
1.5239507e-17
5.3724401e-19
1.843769e-22
9.099803e-31
3.5249801e-32
2.149621e-23
8.1647058e-20
2.5990607e-18
1.2080891e-17
2.3616712e-17
3.1099794e-17
3.4480745e-17
3.5672227e-17
3.5996033e-17
3.5995488e-17
3.5670677e-17
3.4478396e-17
3.1097087e-17
2.3614334e-17
1.2079604e-17
2.598802e-18
8.1639844e-20
2.1494425e-23
2.7441651e-32
)
;

boundaryField
{
    Wall
    {
        type            zeroGradient;
    }
    frontAndBack
    {
        type            empty;
    }
    atmosphere
    {
        type            zeroGradient;
    }
}


// ************************************************************************* //
