/*--------------------------------*- C++ -*----------------------------------*\
| =========                 |                                                 |
| \\      /  F ield         | OpenFOAM: The Open Source CFD Toolbox           |
|  \\    /   O peration     | Version:  3.0.1                                 |
|   \\  /    A nd           | Web:      www.OpenFOAM.org                      |
|    \\/     M anipulation  |                                                 |
\*---------------------------------------------------------------------------*/
FoamFile
{
    version     2.0;
    format      ascii;
    class       volScalarField;
    location    "18";
    object      wBA_g;
}
// * * * * * * * * * * * * * * * * * * * * * * * * * * * * * * * * * * * * * //

dimensions      [0 0 0 0 0 0 0];

internalField   nonuniform List<scalar> 
800
(
0.033316899
0.033320909
0.033321484
0.033321624
0.033321716
0.03332179
0.03332185
0.033321894
0.033321922
0.033321936
0.033321936
0.033321922
0.033321894
0.03332185
0.033321791
0.033321716
0.033321624
0.033321485
0.033320909
0.0333169
0.03423641
0.034319959
0.034326287
0.034326008
0.034325101
0.034324916
0.034325128
0.034325446
0.034325709
0.034325852
0.034325852
0.034325709
0.034325446
0.034325127
0.034324915
0.0343251
0.034326008
0.034326287
0.034319959
0.034236408
0.030887398
0.031015772
0.031110505
0.031112023
0.031111728
0.031112614
0.031114059
0.031115473
0.031116514
0.03111706
0.03111706
0.031116513
0.031115472
0.031114057
0.031112612
0.031111727
0.031112021
0.031110504
0.03101577
0.030887393
0.024563657
0.024817359
0.024916333
0.024915286
0.024914934
0.024916564
0.024918961
0.024921303
0.024922983
0.024923869
0.024923869
0.024922982
0.024921302
0.024918959
0.024916562
0.024914932
0.024915284
0.024916331
0.024817356
0.024563651
0.015688888
0.016110512
0.016181395
0.016388155
0.01638771
0.016389546
0.016392166
0.016394664
0.016396437
0.01639737
0.01639737
0.016396436
0.016394663
0.016392164
0.016389544
0.016387708
0.016388153
0.016181393
0.016110509
0.015688883
0.0064408131
0.0066667614
0.0067149111
0.0067987272
0.0068006785
0.0068032435
0.0068056297
0.0068075507
0.0068088324
0.0068094785
0.0068094784
0.006808832
0.0068075499
0.0068056288
0.0068032425
0.0068006774
0.0067987261
0.00671491
0.0066667599
0.0064408105
0.0030879306
0.0031897504
0.0032187076
0.0032403458
0.0032429055
0.0032451462
0.0032468781
0.0032481161
0.0032488938
0.0032492723
0.0032492723
0.0032488935
0.0032481156
0.0032468775
0.0032451457
0.0032429049
0.0032403453
0.0032187071
0.0031897497
0.0030879295
0.0016482954
0.001701147
0.0017187964
0.0017251695
0.0017274115
0.0017290144
0.001730102
0.0017308204
0.0017312466
0.0017314468
0.0017314467
0.0017312464
0.0017308201
0.0017301017
0.0017290141
0.0017274112
0.0017251693
0.0017187963
0.0017011469
0.0016482949
0.00089200594
0.00093297348
0.00094704524
0.00095072041
0.0009522865
0.00095311611
0.00095357509
0.00095384714
0.00095399053
0.00095404919
0.00095404916
0.00095399043
0.00095384698
0.00095357496
0.00095311605
0.00095228651
0.00095072046
0.00094704535
0.00093297363
0.00089200598
0.0004319611
0.00047500652
0.00048992666
0.00049308369
0.00049354501
0.00049337163
0.00049312037
0.00049293795
0.00049281557
0.00049274515
0.00049274512
0.0004928155
0.00049293784
0.00049312031
0.00049337166
0.00049354511
0.00049308383
0.00048992683
0.00047500675
0.00043196133
0.00016860795
0.0002218943
0.00023950158
0.00024319637
0.00024275355
0.00024149974
0.00024039848
0.00023964964
0.00023919378
0.0002389657
0.00023896567
0.00023919371
0.00023964953
0.00024039843
0.00024149976
0.00024275364
0.00024319649
0.0002395017
0.00022189447
0.00016860817
4.7005119e-05
9.3204777e-05
0.00011095836
0.00011573567
0.0001155928
0.00011410885
0.00011262046
0.00011152679
0.00011083782
0.00011049705
0.00011049702
0.00011083775
0.00011152668
0.0001126204
0.00011410884
0.00011559284
0.00011573574
0.00011095843
9.3204868e-05
4.7005213e-05
9.3122811e-06
3.4569288e-05
4.7898729e-05
5.2602424e-05
5.3148515e-05
5.2205314e-05
5.1013822e-05
5.0054462e-05
4.9421546e-05
4.9104411e-05
4.9104382e-05
4.9421489e-05
5.005437e-05
5.101376e-05
5.2205296e-05
5.3148527e-05
5.260246e-05
4.7898755e-05
3.4569323e-05
9.3123037e-06
1.3832336e-06
1.1267607e-05
1.9090775e-05
2.2607633e-05
2.3417336e-05
2.3035212e-05
2.2330671e-05
2.1704905e-05
2.1272737e-05
2.1052477e-05
2.1052457e-05
2.1272696e-05
2.170484e-05
2.2330624e-05
2.3035191e-05
2.3417332e-05
2.2607648e-05
1.9090782e-05
1.1267617e-05
1.3832369e-06
1.6499172e-07
3.2431612e-06
7.0133073e-06
9.1445175e-06
9.8320494e-06
9.7575889e-06
9.4201459e-06
9.0849607e-06
8.8427101e-06
8.7171441e-06
8.717132e-06
8.842684e-06
9.0849199e-06
9.4201145e-06
9.757572e-06
9.8320411e-06
9.1445223e-06
7.0133082e-06
3.2431633e-06
1.6499212e-07
1.6781327e-08
8.3435644e-07
2.3817129e-06
3.4789115e-06
3.9234584e-06
3.9552526e-06
3.8193028e-06
3.6641919e-06
3.5466489e-06
3.484709e-06
3.4847024e-06
3.5466345e-06
3.6641692e-06
3.8192846e-06
3.9552416e-06
3.9234512e-06
3.4789126e-06
2.3817127e-06
8.3435671e-07
1.6781374e-08
1.5194789e-09
1.9478812e-07
7.5188773e-07
1.2471846e-06
1.4875343e-06
1.5318817e-06
1.4855869e-06
1.4218179e-06
1.3709154e-06
1.3436393e-06
1.343636e-06
1.3709082e-06
1.4218064e-06
1.4855773e-06
1.5318756e-06
1.4875298e-06
1.2471846e-06
7.5188757e-07
1.9478814e-07
1.5194846e-09
1.2593091e-10
4.1870222e-08
2.2215271e-07
4.2270897e-07
5.3645188e-07
5.6678507e-07
5.5392647e-07
5.302645e-07
5.102159e-07
4.9928114e-07
4.9927964e-07
5.1021261e-07
5.3025919e-07
5.5392191e-07
5.6678201e-07
5.364495e-07
4.2270876e-07
2.2215267e-07
4.187022e-08
1.2593155e-10
9.718156e-12
8.3886641e-09
6.1852126e-08
1.3596469e-07
1.843763e-07
2.00482e-07
1.9799823e-07
1.9000809e-07
1.8273812e-07
1.7869538e-07
1.7869476e-07
1.8273671e-07
1.9000583e-07
1.9799621e-07
2.0048062e-07
1.843752e-07
1.3596452e-07
6.1852124e-08
8.3886644e-09
9.7182221e-12
7.0570188e-13
1.581963e-09
1.6330596e-08
4.1662595e-08
6.0532441e-08
6.7882315e-08
6.7888824e-08
6.5427966e-08
6.298118e-08
6.1590395e-08
6.1590154e-08
6.2980614e-08
6.5427064e-08
6.7887991e-08
6.7881735e-08
6.0531979e-08
4.1662507e-08
1.6330599e-08
1.5819636e-09
7.0570822e-13
4.8543943e-14
2.8305161e-10
4.1115893e-09
1.2205505e-08
1.9028542e-08
2.203642e-08
2.2350857e-08
2.1662793e-08
2.0894455e-08
2.0446421e-08
2.0446334e-08
2.0894241e-08
2.1662455e-08
2.2350535e-08
2.2036192e-08
1.9028364e-08
1.2205466e-08
4.1115909e-09
2.8305178e-10
4.8544508e-14
3.1774893e-15
4.8371352e-11
9.9189067e-10
3.429619e-09
5.7403084e-09
6.8697653e-09
7.0738907e-09
6.9019956e-09
6.6762053e-09
6.5404427e-09
6.540413e-09
6.6761282e-09
6.9018767e-09
7.0737742e-09
6.8696802e-09
5.7402449e-09
3.4296033e-09
9.9189121e-10
4.8371399e-11
3.1775365e-15
1.9859141e-16
7.9413558e-12
2.3022198e-10
9.2688886e-10
1.6652065e-09
2.0599297e-09
2.1548639e-09
2.1180723e-09
2.0559217e-09
2.017106e-09
2.0170962e-09
2.0558953e-09
2.1180325e-09
2.1548236e-09
2.0598996e-09
1.6651851e-09
9.2688304e-10
2.3022212e-10
7.9413661e-12
1.9859514e-16
1.1887509e-17
1.2591697e-12
5.1590038e-11
2.4150823e-10
4.6536098e-10
5.9499515e-10
6.3254105e-10
6.2663793e-10
6.1063782e-10
6.0014685e-10
6.0014374e-10
6.1062913e-10
6.2662511e-10
6.3252777e-10
5.9498493e-10
4.6535414e-10
2.4150626e-10
5.1590055e-11
1.2591716e-12
1.188778e-17
6.8368244e-19
1.9376414e-13
1.1193682e-11
6.0788113e-11
1.2548106e-10
1.6576675e-10
1.7911594e-10
1.7889077e-10
1.7505688e-10
1.723745e-10
1.7237355e-10
1.7505415e-10
1.7888683e-10
1.7911175e-10
1.6576344e-10
1.2547898e-10
6.0787489e-11
1.1193679e-11
1.9376441e-13
6.8370082e-19
3.7920066e-20
2.9065568e-14
2.3571041e-12
1.4804394e-11
3.2689386e-11
4.4596834e-11
4.8975127e-11
4.9318366e-11
4.8472191e-11
4.7823734e-11
4.7823455e-11
4.8471374e-11
4.9317199e-11
4.8973857e-11
4.4595803e-11
3.2688777e-11
1.4804207e-11
2.3571011e-12
2.9065597e-14
3.7921223e-20
2.0378496e-21
4.266342e-15
4.8257587e-13
3.4930945e-12
8.2367664e-12
1.1597467e-11
1.2941403e-11
1.3140064e-11
1.2971782e-11
1.2823892e-11
1.2823812e-11
1.2971547e-11
1.3139729e-11
1.2941032e-11
1.1597159e-11
8.2365941e-12
3.4930415e-12
4.8257447e-13
4.2663424e-15
2.0379171e-21
1.0675714e-22
6.146365e-16
9.618447e-14
7.9931744e-13
2.0092275e-12
2.9177139e-12
3.3073079e-12
3.385628e-12
3.3570043e-12
3.3253334e-12
3.3253115e-12
3.3569389e-12
3.3855352e-12
3.3072035e-12
2.9176252e-12
2.0091802e-12
7.9930298e-13
9.6183979e-14
6.1463561e-16
1.0676079e-22
5.494198e-24
8.7091538e-17
1.8680236e-14
1.7752461e-13
4.748528e-13
7.1065498e-13
8.1797615e-13
8.4409408e-13
8.4058466e-13
8.3427265e-13
8.3426677e-13
8.4056709e-13
8.4406917e-13
8.1794782e-13
7.1063045e-13
4.7484011e-13
1.7752083e-13
1.868009e-14
8.7091223e-17
5.4943797e-24
3.7404358e-25
1.2150935e-17
3.5369535e-15
3.8290401e-14
1.0880015e-13
1.6768208e-13
1.9590046e-13
2.037454e-13
2.0375393e-13
2.0260336e-13
2.0260182e-13
2.0374937e-13
2.0373892e-13
1.9589302e-13
1.6767555e-13
1.0879684e-13
3.8289447e-14
3.536914e-15
1.2150857e-17
3.7287114e-25
7.8436229e-26
1.6695717e-18
6.5306937e-16
8.0244598e-15
2.4181563e-14
3.8350479e-14
4.5456292e-14
4.7637714e-14
4.7833722e-14
4.7649011e-14
4.7648622e-14
4.7832576e-14
4.7636079e-14
4.5454405e-14
3.8348807e-14
2.4180725e-14
8.024228e-15
6.5305947e-16
1.6695552e-18
8.0491743e-26
5.4996251e-26
2.2580394e-19
1.1759899e-16
1.634547e-15
5.2160195e-15
8.5061715e-15
1.0224381e-14
1.0794236e-14
1.0881037e-14
1.0857525e-14
1.0857429e-14
1.0880759e-14
1.0793837e-14
1.0223919e-14
8.5057589e-15
5.2158134e-15
1.6344926e-15
1.1759669e-16
2.2580078e-19
5.5548771e-26
1.4658503e-26
3.0029634e-20
2.0651163e-17
3.2372013e-16
1.0924215e-15
1.8305655e-15
2.2303677e-15
2.3714718e-15
2.3994822e-15
2.3981671e-15
2.3981445e-15
2.3994167e-15
2.3713773e-15
2.2302583e-15
1.8304674e-15
1.0923724e-15
3.2370779e-16
2.0650657e-17
3.0029065e-20
1.4510514e-26
2.1116808e-27
3.9221137e-21
3.5362438e-18
6.2352427e-17
2.2223955e-16
3.8240546e-16
4.7208425e-16
5.053993e-16
5.1319241e-16
5.1369377e-16
5.136886e-16
5.131775e-16
5.0537758e-16
4.7205917e-16
3.8238298e-16
2.2222824e-16
6.2349709e-17
3.5361377e-18
3.9220068e-21
2.0594091e-27
2.0088029e-28
5.0243759e-22
5.9041126e-19
1.1683241e-17
4.3934857e-17
7.7579273e-17
9.6999817e-17
1.045316e-16
1.0650373e-16
1.0676109e-16
1.0675995e-16
1.0650045e-16
1.0452677e-16
9.6994252e-17
7.7574297e-17
4.3932329e-17
1.1682662e-17
5.9038991e-19
5.0241829e-22
1.8528089e-28
1.023856e-29
6.3054653e-23
9.6106145e-20
2.1301732e-18
8.4435814e-18
1.5291248e-17
1.9356845e-17
2.0992471e-17
2.1457549e-17
2.1538533e-17
2.1538289e-17
2.1456848e-17
2.0991431e-17
1.9355649e-17
1.5290182e-17
8.4430364e-18
2.1300533e-18
9.6102014e-20
6.3051606e-23
9.4621454e-30
4.7331063e-31
7.7444233e-24
1.5251768e-20
3.7803064e-19
1.5781387e-18
2.9295956e-18
3.7533064e-18
4.0953429e-18
4.1989131e-18
4.2201363e-18
4.2200856e-18
4.1987675e-18
4.0951262e-18
3.7530571e-18
2.9293746e-18
1.578025e-18
3.7800659e-19
1.5250997e-20
7.7439981e-24
4.302334e-31
1.8760587e-32
9.3016331e-25
2.3597853e-21
6.5316694e-20
2.8696948e-19
5.4579764e-19
7.0747739e-19
7.764904e-19
7.9844868e-19
8.0344879e-19
8.0343858e-19
7.9841944e-19
7.7644663e-19
7.0742703e-19
5.4575325e-19
2.8694653e-19
6.531201e-20
2.3596461e-21
9.301073e-25
1.6484807e-32
6.4393912e-34
1.0918926e-25
3.5599332e-22
1.0991002e-20
5.0788998e-20
9.8925049e-20
1.2969786e-19
1.431559e-19
1.4761231e-19
1.4870501e-19
1.4870301e-19
1.4760661e-19
1.4314734e-19
1.2968799e-19
9.8916395e-20
5.0784515e-20
1.0990117e-20
3.5596896e-22
1.0918194e-25
5.3726971e-34
2.0388675e-35
1.2522274e-26
5.2370205e-23
1.8017864e-21
8.7522313e-21
1.7451079e-20
2.3135349e-20
2.5675388e-20
2.654451e-20
2.6769603e-20
2.6769225e-20
2.6543431e-20
2.5673758e-20
2.3133474e-20
1.7449442e-20
8.751383e-21
1.8016241e-21
5.2366065e-23
1.2521313e-26
1.5903885e-35
)
;

boundaryField
{
    Wall
    {
        type            zeroGradient;
    }
    frontAndBack
    {
        type            empty;
    }
    atmosphere
    {
        type            zeroGradient;
    }
}


// ************************************************************************* //
