/*--------------------------------*- C++ -*----------------------------------*\
| =========                 |                                                 |
| \\      /  F ield         | OpenFOAM: The Open Source CFD Toolbox           |
|  \\    /   O peration     | Version:  3.0.1                                 |
|   \\  /    A nd           | Web:      www.OpenFOAM.org                      |
|    \\/     M anipulation  |                                                 |
\*---------------------------------------------------------------------------*/
FoamFile
{
    version     2.0;
    format      ascii;
    class       volScalarField;
    location    "18";
    object      wBA_l_0;
}
// * * * * * * * * * * * * * * * * * * * * * * * * * * * * * * * * * * * * * //

dimensions      [0 0 0 0 0 0 0];

internalField   nonuniform List<scalar> 
800
(
0.05532442
0.055324144
0.055324142
0.055324145
0.055324147
0.055324149
0.05532415
0.055324151
0.055324152
0.055324153
0.055324153
0.055324152
0.055324151
0.05532415
0.055324149
0.055324147
0.055324145
0.055324142
0.055324144
0.05532442
0.055706442
0.055698297
0.055696655
0.05569611
0.055695773
0.055695489
0.055695255
0.055695079
0.055694962
0.055694904
0.055694904
0.055694962
0.055695079
0.055695255
0.055695489
0.055695773
0.05569611
0.055696655
0.055698298
0.055706442
0.053673659
0.053692404
0.053695332
0.053695153
0.053694494
0.053694108
0.053693905
0.053693806
0.05369376
0.053693743
0.053693743
0.053693759
0.053693805
0.053693904
0.053694108
0.053694494
0.053695152
0.053695332
0.053692404
0.053673658
0.049940623
0.050007178
0.050015521
0.050014248
0.050013177
0.050012648
0.050012453
0.050012408
0.050012408
0.050012418
0.050012418
0.050012408
0.050012408
0.050012453
0.050012648
0.050013177
0.050014248
0.050015522
0.050007178
0.049940622
0.045037718
0.045174539
0.045190738
0.045189171
0.045188068
0.04518751
0.045187259
0.045187132
0.045187057
0.045187024
0.045187024
0.045187057
0.045187132
0.04518726
0.045187511
0.04518807
0.045189173
0.04519074
0.04517454
0.045037718
0.039318914
0.039564272
0.039599254
0.039603365
0.039603899
0.039603754
0.039603409
0.03960295
0.039602611
0.039602427
0.039602427
0.039602612
0.039602951
0.03960341
0.039603756
0.039603901
0.039603369
0.039599257
0.039564275
0.039318917
0.032958613
0.033363626
0.0334439
0.033462785
0.033467289
0.033467606
0.033466831
0.033465644
0.033464753
0.033464211
0.033464212
0.033464754
0.033465646
0.033466834
0.033467609
0.033467293
0.033462791
0.033443905
0.033363631
0.032958619
0.026168785
0.026789697
0.026964342
0.027010584
0.027020869
0.027020406
0.027017584
0.027014865
0.027012833
0.027011577
0.027011577
0.027012833
0.027014865
0.027017587
0.02702041
0.027020874
0.027010591
0.026964348
0.026789705
0.026168795
0.019038025
0.020021294
0.020389177
0.02049143
0.020509402
0.020503478
0.020493826
0.020486699
0.020481745
0.020478874
0.020478874
0.020481745
0.020486698
0.020493828
0.020503482
0.020509408
0.020491439
0.020389185
0.020021305
0.019038039
0.011730437
0.013216981
0.013883216
0.014088912
0.014119439
0.014099409
0.014073446
0.014055286
0.014043592
0.014037346
0.014037345
0.014043591
0.014055282
0.014073446
0.014099412
0.014119444
0.01408892
0.013883223
0.013216992
0.011730452
0.0055609566
0.0076820336
0.0086082434
0.0089275243
0.0089767108
0.0089364434
0.008883711
0.008845046
0.0088205931
0.008808187
0.0088081845
0.0088205898
0.0088450393
0.0088837081
0.0089364438
0.0089767133
0.0089275294
0.0086082471
0.0076820411
0.0055609685
0.0018298852
0.0039268322
0.0049222207
0.0053067677
0.0053824982
0.0053378551
0.0052681152
0.0052123579
0.0051759535
0.0051576518
0.0051576489
0.0051759489
0.0052123494
0.0052681099
0.005337853
0.0053824976
0.0053067695
0.0049222214
0.0039268356
0.0018298906
0.00041926506
0.001753867
0.002583406
0.0029563379
0.0030540331
0.003026893
0.0029644737
0.0029093973
0.0028717859
0.0028526714
0.0028526686
0.0028717809
0.0029093889
0.0029644676
0.0030268894
0.0030540305
0.0029563375
0.0025834048
0.0017538676
0.0004192665
7.1005782e-05
0.00068305991
0.0012412335
0.0015390285
0.0016370265
0.0016306477
0.0015882689
0.0015465444
0.0015166999
0.0015012984
0.0015012962
0.0015166957
0.0015465374
0.0015882633
0.0016306439
0.0016370232
0.0015390271
0.0012412318
0.00068305944
7.1006031e-05
9.5596841e-06
0.00023333103
0.0005467317
0.00074823921
0.00082779194
0.00083379402
0.00081056189
0.00078447181
0.00076490917
0.00075465408
0.00075465258
0.00076490602
0.00078446675
0.00081055757
0.00083379082
0.00082778891
0.00074823768
0.00054673032
0.00023333055
9.5597184e-06
1.0891799e-06
7.0880319e-05
0.00022180038
0.00034026748
0.0003948635
0.00040440828
0.00039391087
0.00037986497
0.00036878963
0.00036289168
0.00036289076
0.00036878758
0.00037986173
0.00039390795
0.00040440598
0.00039486125
0.00034026629
0.00022179955
7.0880049e-05
1.0891841e-06
1.098286e-07
1.9484892e-05
8.3428821e-05
0.00014517844
0.00017787443
0.0001860733
0.00018225
0.00017558116
0.00017001506
0.00016700156
0.00016700104
0.00017001385
0.00017557928
0.00018224823
0.00018607186
0.00017787301
0.00014517768
8.3428405e-05
1.9484781e-05
1.0982911e-07
1.0093914e-08
4.9298523e-06
2.9314262e-05
5.8331998e-05
7.5808035e-05
8.1276642e-05
8.0288825e-05
7.746015e-05
7.4933527e-05
7.3540334e-05
7.354007e-05
7.4932879e-05
7.7459157e-05
8.0287844e-05
8.1275822e-05
7.5807249e-05
5.8331574e-05
2.931408e-05
4.9298146e-06
1.0093971e-08
8.6178165e-10
1.1645938e-06
9.6909529e-06
2.2156581e-05
3.0632901e-05
3.3741212e-05
3.3695166e-05
3.2618241e-05
3.1570674e-05
3.0980632e-05
3.0980508e-05
3.157035e-05
3.2617757e-05
3.3694666e-05
3.3740787e-05
3.0632509e-05
2.215637e-05
9.6908808e-06
1.1645827e-06
8.6178734e-10
6.923457e-11
2.5983476e-07
3.0330973e-06
7.9843278e-06
1.1762161e-05
1.3330823e-05
1.3480889e-05
1.3114265e-05
1.2714715e-05
1.2483834e-05
1.2483779e-05
1.2714565e-05
1.3114044e-05
1.3480653e-05
1.3330619e-05
1.1761983e-05
7.984232e-06
3.0330707e-06
2.5983184e-07
6.9235094e-11
5.2845426e-12
5.5238354e-08
9.0330858e-07
2.7381725e-06
4.300441e-06
5.0196138e-06
5.1461872e-06
5.0364586e-06
4.8956973e-06
4.8117277e-06
4.8117048e-06
4.8956326e-06
5.036364e-06
5.1460837e-06
5.0195226e-06
4.300366e-06
2.7381328e-06
9.0329943e-07
5.5237637e-08
5.2845861e-12
3.8635146e-13
1.1263778e-08
2.5698934e-07
8.9597175e-07
1.4999535e-06
1.8038615e-06
1.8761949e-06
1.84867e-06
1.8028017e-06
1.7743007e-06
1.7742916e-06
1.8027752e-06
1.848632e-06
1.8761522e-06
1.8038232e-06
1.4999241e-06
8.9595651e-07
2.5698636e-07
1.1263613e-08
3.8635475e-13
2.7264987e-14
2.2136351e-09
7.004734e-08
2.8032075e-07
4.9991562e-07
6.1947504e-07
6.5390515e-07
6.4899583e-07
6.3519424e-07
6.2614283e-07
6.261394e-07
6.3518399e-07
6.4898127e-07
6.5388852e-07
6.1945989e-07
4.9990474e-07
2.8031526e-07
7.004642e-08
2.2135993e-09
2.7265207e-14
1.8718611e-15
4.2064806e-10
1.8331159e-08
8.4001077e-08
1.5943922e-07
2.035444e-07
2.1807868e-07
2.1806973e-07
2.1425819e-07
2.115656e-07
2.1156435e-07
2.1425443e-07
2.1806442e-07
2.1807254e-07
2.0353873e-07
1.594354e-07
8.3999222e-08
1.8330888e-08
4.2064063e-10
1.8718728e-15
1.2601242e-16
7.7444844e-11
4.6129134e-09
2.4142774e-08
4.8721772e-08
6.4061366e-08
6.9659982e-08
7.0187559e-08
6.9234765e-08
6.8484863e-08
6.8484428e-08
6.9233456e-08
7.0185716e-08
6.965783e-08
6.4059358e-08
4.8720495e-08
2.4142181e-08
4.6128366e-09
7.7443359e-11
1.2601278e-16
8.3799345e-18
1.3828592e-11
1.1174532e-09
6.6629172e-09
1.4281403e-08
1.9332473e-08
2.1331759e-08
2.1656493e-08
2.1447568e-08
2.1252547e-08
2.1252403e-08
2.1447135e-08
2.1655879e-08
2.1331038e-08
1.9331797e-08
1.4280993e-08
6.662737e-09
1.1174324e-09
1.3828306e-11
8.3799155e-18
5.5380286e-19
2.3956817e-12
2.6080208e-10
1.767449e-09
4.0196097e-09
5.599607e-09
6.2681071e-09
6.4111901e-09
6.3742673e-09
6.3271879e-09
6.3271419e-09
6.3741304e-09
6.4109946e-09
6.2678768e-09
5.5993901e-09
4.019483e-09
1.7673966e-09
2.6079664e-10
2.3956281e-12
5.5379791e-19
3.6502115e-20
4.0263702e-13
5.8681783e-11
4.5104117e-10
1.0873625e-09
1.5581519e-09
1.7688812e-09
1.8225337e-09
1.818974e-09
1.8085481e-09
1.808534e-09
1.8189324e-09
1.822474e-09
1.7688107e-09
1.5580854e-09
1.0873247e-09
4.5102654e-10
5.868041e-11
4.0262728e-13
3.6501507e-20
2.4011649e-21
6.5630502e-14
1.2736397e-11
1.1082101e-10
2.8296335e-10
4.16899e-10
4.7983617e-10
4.9792605e-10
4.9879443e-10
4.9672797e-10
4.9672383e-10
4.987823e-10
4.9790853e-10
4.7981547e-10
4.1687951e-10
2.8295243e-10
1.1081707e-10
1.2736064e-11
6.562878e-14
2.401106e-21
2.7297881e-22
1.0371779e-14
2.6678517e-12
2.6235794e-11
7.0895939e-11
1.0734815e-10
1.2522549e-10
1.3084961e-10
1.3154541e-10
1.3120005e-10
1.3119888e-10
1.31542e-10
1.3084466e-10
1.2521966e-10
1.0734268e-10
7.0892902e-11
2.6234774e-11
2.6677736e-12
1.0371484e-14
2.7151362e-22
9.2972207e-23
1.5886309e-15
5.3958979e-13
5.9889346e-12
1.711607e-11
2.6623454e-11
3.1467708e-11
3.3102627e-11
3.3392619e-11
3.3353191e-11
3.3352873e-11
3.3391702e-11
3.3101287e-11
3.1466131e-11
2.6621981e-11
1.7115256e-11
5.9886792e-12
5.3957208e-13
1.5885817e-15
9.5730372e-23
6.1382838e-23
2.3578936e-16
1.0543139e-13
1.3191583e-12
3.9849528e-12
6.3649439e-12
7.6202748e-12
8.0685488e-12
8.1659457e-12
8.167515e-12
8.1674319e-12
8.165708e-12
8.0681994e-12
7.6198647e-12
6.3645633e-12
3.9847425e-12
1.3190966e-12
1.0542753e-13
2.3578136e-16
6.2032634e-23
1.7197146e-23
3.3909396e-17
1.9911476e-14
2.8056868e-13
8.9539334e-13
1.4680163e-12
1.7797645e-12
1.8963855e-12
1.9253093e-12
1.9281897e-12
1.9281689e-12
1.9252498e-12
1.8962977e-12
1.7796621e-12
1.4679218e-12
8.9534103e-13
2.8055426e-13
1.9910663e-14
3.3908123e-17
1.709143e-23
2.5970949e-24
4.7252798e-18
3.6365862e-15
5.7659955e-14
1.9431306e-13
3.2689679e-13
4.0122343e-13
4.3013492e-13
4.3800958e-13
4.3920749e-13
4.3920246e-13
4.379953e-13
4.301137e-13
4.0119876e-13
3.2687418e-13
1.9430053e-13
5.7656692e-14
3.6364206e-15
4.7250689e-18
2.5380312e-24
2.5625139e-25
6.3812446e-19
6.4265308e-16
1.1457641e-14
4.0757232e-14
7.0333574e-14
8.7373275e-14
9.4225956e-14
9.6227611e-14
9.6604099e-14
9.6602935e-14
9.6224303e-14
9.4221007e-14
8.7367547e-14
7.0328364e-14
4.0754343e-14
1.1456927e-14
6.4262041e-16
6.3809e-19
2.3743252e-25
1.3524456e-26
8.3531115e-20
1.0994894e-16
2.202874e-15
8.2685639e-15
1.4632105e-14
1.8393616e-14
1.9950614e-14
2.0430742e-14
2.0533571e-14
2.0533311e-14
2.0430003e-14
1.9949504e-14
1.8392333e-14
1.4630946e-14
8.2679219e-15
2.2027227e-15
1.099427e-16
8.3525993e-20
1.2471571e-26
6.2619872e-28
1.0601972e-20
1.8221281e-17
4.1005238e-16
1.623594e-15
2.945463e-15
3.7460164e-15
4.08587e-15
4.1952986e-15
4.2208921e-15
4.2208361e-15
4.1951389e-15
4.0856295e-15
3.7457387e-15
2.9452144e-15
1.6234566e-15
4.1002137e-16
1.8220123e-17
1.0601276e-20
5.6571584e-28
2.4444377e-29
1.3052068e-21
2.9267251e-18
7.3946839e-17
3.0877127e-16
5.7412185e-16
7.3857415e-16
8.0996815e-16
8.3378044e-16
8.3971601e-16
8.3970434e-16
8.3374714e-16
8.0991789e-16
7.3851614e-16
5.7407025e-16
3.0874286e-16
7.3940679e-17
2.9265169e-18
1.3051161e-21
2.1232864e-29
8.2569357e-31
1.5591989e-22
4.5586979e-19
1.2927036e-17
5.6910122e-17
1.0843004e-16
1.4107108e-16
1.5552802e-16
1.6049295e-16
1.6179158e-16
1.6178922e-16
1.6048624e-16
1.5551786e-16
1.4105935e-16
1.0841968e-16
5.6904449e-17
1.2925851e-17
4.5583343e-19
1.5590814e-22
6.7696282e-31
2.6187154e-32
1.8081658e-23
6.8896055e-20
2.1919915e-18
1.0172025e-17
1.985508e-17
2.6120911e-17
2.894664e-17
2.994126e-17
3.0211385e-17
3.0210924e-17
2.9939951e-17
2.8944654e-17
2.611862e-17
1.9853064e-17
1.017093e-17
2.1917708e-18
6.8889884e-20
1.8080139e-23
1.9994744e-32
)
;

boundaryField
{
    Wall
    {
        type            zeroGradient;
    }
    frontAndBack
    {
        type            empty;
    }
    atmosphere
    {
        type            zeroGradient;
    }
}


// ************************************************************************* //
