/*--------------------------------*- C++ -*----------------------------------*\
| =========                 |                                                 |
| \\      /  F ield         | OpenFOAM: The Open Source CFD Toolbox           |
|  \\    /   O peration     | Version:  3.0.1                                 |
|   \\  /    A nd           | Web:      www.OpenFOAM.org                      |
|    \\/     M anipulation  |                                                 |
\*---------------------------------------------------------------------------*/
FoamFile
{
    version     2.0;
    format      ascii;
    class       volScalarField;
    location    "18";
    object      wCO2_l;
}
// * * * * * * * * * * * * * * * * * * * * * * * * * * * * * * * * * * * * * //

dimensions      [0 0 0 0 0 0 0];

internalField   nonuniform List<scalar> 
800
(
0.0031014776
0.0031014388
0.0031014366
0.0031014373
0.003101438
0.0031014384
0.0031014387
0.003101439
0.0031014391
0.0031014392
0.0031014392
0.0031014391
0.003101439
0.0031014387
0.0031014384
0.003101438
0.0031014373
0.0031014366
0.0031014388
0.0031014776
0.0031314394
0.0031285102
0.003128458
0.0031283993
0.0031283325
0.0031282801
0.0031282444
0.0031282228
0.003128211
0.0031282059
0.0031282059
0.003128211
0.0031282228
0.0031282445
0.0031282802
0.0031283326
0.0031283994
0.0031284581
0.0031285102
0.0031314395
0.0036908542
0.0036791878
0.003672994
0.0036728098
0.0036727396
0.0036726436
0.0036725533
0.003672482
0.0036724349
0.0036724114
0.0036724114
0.003672435
0.0036724821
0.0036725534
0.0036726438
0.0036727398
0.00367281
0.0036729942
0.003679188
0.0036908546
0.0048455002
0.0048144948
0.0048057007
0.0048055455
0.0048053983
0.0048051746
0.0048049565
0.0048047773
0.004804658
0.0048045976
0.0048045976
0.0048046581
0.0048047776
0.0048049568
0.0048051749
0.0048053986
0.0048055459
0.0048057012
0.0048144954
0.0048455009
0.0065564968
0.0064998142
0.0064917414
0.0064844648
0.0064841283
0.0064836913
0.006483304
0.0064830002
0.0064828055
0.0064827081
0.0064827082
0.0064828057
0.0064830005
0.0064833045
0.0064836918
0.0064841288
0.0064844654
0.006491742
0.0064998149
0.0065564978
0.0083348581
0.0082854778
0.0082818436
0.0082785542
0.0082782704
0.0082778378
0.0082774844
0.0082772079
0.0082770406
0.0082769554
0.0082769555
0.0082770407
0.0082772082
0.0082774848
0.0082778383
0.008278271
0.0082785549
0.0082818443
0.0082854786
0.008334859
0.0093792875
0.0094074763
0.0093988957
0.0094011697
0.009402533
0.0094031998
0.009403575
0.009403761
0.0094038712
0.0094039121
0.0094039121
0.0094038713
0.0094037611
0.0094035752
0.0094032001
0.0094025334
0.0094011703
0.0093988963
0.0094074769
0.0093792881
0.008233752
0.0084973621
0.0085735141
0.0085833382
0.0085881945
0.0085908225
0.0085922769
0.0085931185
0.0085935702
0.0085937556
0.0085937556
0.0085935701
0.0085931183
0.0085922768
0.0085908226
0.0085881948
0.0085833387
0.0085735146
0.0084973628
0.0082337527
0.0048132468
0.0051059993
0.0052069369
0.0052226331
0.0052275173
0.0052287418
0.0052288065
0.0052286739
0.0052284783
0.0052283196
0.0052283195
0.0052284782
0.0052286737
0.0052288066
0.0052287423
0.0052275182
0.0052226343
0.0052069382
0.005106001
0.0048132486
0.0025142446
0.0028114138
0.0029221824
0.0029447125
0.0029467447
0.0029439095
0.0029407972
0.0029386299
0.0029372378
0.0029364895
0.0029364893
0.0029372377
0.0029386296
0.0029407973
0.0029439101
0.0029467458
0.0029447139
0.0029221838
0.0028114156
0.0025142468
0.0010665904
0.0014251312
0.0015559698
0.0015883601
0.001588089
0.0015798715
0.0015719179
0.0015663864
0.0015629795
0.0015612705
0.0015612702
0.0015629791
0.0015663857
0.0015719177
0.0015798719
0.0015880897
0.0015883611
0.0015559707
0.0014251325
0.0010665921
0.000326283
0.00065314037
0.00078799531
0.00082956844
0.00083237553
0.00082296341
0.00081237428
0.00080438534
0.00079929524
0.00079676388
0.00079676357
0.00079929476
0.00080438452
0.00081237383
0.0008229634
0.00083237583
0.000829569
0.00078799579
0.00065314108
0.00032628379
7.1523635e-05
0.00026634441
0.00037380565
0.00041534796
0.00042273874
0.00041668257
0.00040770481
0.00040024554
0.00039526496
0.0003927555
0.00039275523
0.00039526448
0.00040024474
0.00040770428
0.00041668239
0.00042273877
0.0004153482
0.0003738058
0.00026634467
7.1523839e-05
1.1834403e-05
9.6257201e-05
0.00016484266
0.00019765617
0.00020659089
0.00020426869
0.00019853245
0.0001932379
0.00018953168
0.00018763198
0.00018763178
0.00018953129
0.00019323726
0.00019853198
0.00020426845
0.00020659076
0.00019765623
0.00016484265
9.6257255e-05
1.1834437e-05
1.5807079e-06
3.0968746e-05
6.7509529e-05
8.9060021e-05
9.6674833e-05
9.6542271e-05
9.3552503e-05
9.0434693e-05
8.8146514e-05
8.6953421e-05
8.6953286e-05
8.8146233e-05
9.0434248e-05
9.355215e-05
9.6542052e-05
9.6674676e-05
8.9060001e-05
6.7509488e-05
3.0968743e-05
1.5807125e-06
1.8078298e-07
8.9725504e-06
2.5754531e-05
3.7982899e-05
4.3219956e-05
4.385937e-05
4.2548894e-05
4.0952992e-05
3.9722256e-05
3.9069668e-05
3.9069587e-05
3.972208e-05
4.0952715e-05
4.2548662e-05
4.3859211e-05
4.3219824e-05
3.7982863e-05
2.5754499e-05
8.972542e-06
1.8078358e-07
1.8472322e-08
2.3761911e-06
9.2023569e-06
1.536124e-05
1.845388e-05
1.9124571e-05
1.8644236e-05
1.7915623e-05
1.7322105e-05
1.7001966e-05
1.7001921e-05
1.7322005e-05
1.7915467e-05
1.8644098e-05
1.9124471e-05
1.8453793e-05
1.5361211e-05
9.2023396e-06
2.3761867e-06
1.8472399e-08
1.7337601e-09
5.8369022e-07
3.0996986e-06
5.9085476e-06
7.5321759e-06
8.0013477e-06
7.8634338e-06
7.5625132e-06
7.301291e-06
7.1577906e-06
7.157768e-06
7.3012392e-06
7.5624319e-06
7.8633592e-06
8.0012912e-06
7.5321262e-06
5.9085289e-06
3.0996909e-06
5.8368857e-07
1.7337695e-09
1.5211343e-10
1.3467883e-07
9.906521e-07
2.168643e-06
2.9433998e-06
3.2133527e-06
3.1913408e-06
3.0781989e-06
2.9720728e-06
2.9125713e-06
2.9125609e-06
2.9720474e-06
3.0781598e-06
3.1913032e-06
3.2133235e-06
2.9433744e-06
2.1686328e-06
9.9064902e-07
1.3467833e-07
1.5211448e-10
1.2616292e-11
2.9491291e-08
3.0214739e-07
7.619571e-07
1.1031403e-06
1.2397534e-06
1.2465361e-06
1.2078329e-06
1.167743e-06
1.1447279e-06
1.1447233e-06
1.1677313e-06
1.2078152e-06
1.2465185e-06
1.2397394e-06
1.1031285e-06
7.6195217e-07
3.0214624e-07
2.9491157e-08
1.2616401e-11
9.9677041e-13
6.1792516e-09
8.8372277e-08
2.5699662e-07
3.9719484e-07
4.5996459e-07
4.6881002e-07
4.5688113e-07
4.4273757e-07
4.3438453e-07
4.3438263e-07
4.4273257e-07
4.5687358e-07
4.6880227e-07
4.5995829e-07
3.9718977e-07
2.5699445e-07
8.8371871e-08
6.1792174e-09
9.967808e-13
7.5450127e-14
1.2470163e-09
2.4882024e-08
8.3405345e-08
1.3760471e-07
1.642724e-07
1.6986043e-07
1.6663681e-07
1.6196736e-07
1.5911125e-07
1.591105e-07
1.619653e-07
1.6663376e-07
1.6985721e-07
1.6426973e-07
1.3760268e-07
8.3404467e-08
2.4881888e-08
1.2470081e-09
7.5451061e-14
5.4990638e-15
2.4364141e-10
6.7639804e-09
2.6094048e-08
4.5929537e-08
5.6528698e-08
5.9326773e-08
5.8619447e-08
5.7177372e-08
5.6254942e-08
5.6254658e-08
5.7176565e-08
5.8618274e-08
5.9325503e-08
5.6527621e-08
4.5928762e-08
2.6093713e-08
6.7639361e-09
2.4363955e-10
5.4991432e-15
3.8779567e-16
4.626981e-11
1.7790842e-09
7.8813555e-09
1.4786324e-08
1.8759064e-08
1.9986216e-08
1.9896379e-08
1.9481177e-08
1.9199395e-08
1.9199291e-08
1.9480876e-08
1.9895945e-08
1.9985738e-08
1.875865e-08
1.4786044e-08
7.8812358e-09
1.7790703e-09
4.6269402e-11
3.8780186e-16
2.6598941e-17
8.5655914e-12
4.534371e-10
2.3006754e-09
4.5955659e-09
6.0079262e-09
6.4980247e-09
6.5184242e-09
6.4078655e-09
6.3264397e-09
6.3264029e-09
6.4077576e-09
6.5182707e-09
6.4978525e-09
6.0077749e-09
4.5954689e-09
2.300635e-09
4.534329e-10
8.5655046e-12
2.6599387e-17
1.7846604e-18
1.54859e-12
1.1209701e-10
6.4964307e-10
1.3799633e-09
1.8582694e-09
2.0400657e-09
2.0622157e-09
2.0354441e-09
2.0132169e-09
2.0132045e-09
2.0354072e-09
2.0621633e-09
2.0400061e-09
1.8582164e-09
1.3799311e-09
6.4963005e-10
1.1209578e-10
1.5485721e-12
1.7846896e-18
1.1785399e-19
2.73689e-13
2.6896606e-11
1.7756135e-10
4.0062681e-10
5.5544023e-10
6.1880611e-10
6.3029779e-10
6.2462129e-10
6.189092e-10
6.189051e-10
6.2460917e-10
6.3028054e-10
6.1878631e-10
5.5542243e-10
4.0061642e-10
1.7755733e-10
2.6896257e-11
2.7368539e-13
1.1785566e-19
7.7074167e-21
4.7296904e-14
6.2659842e-12
4.7001494e-11
1.1251755e-10
1.6053417e-10
1.814457e-10
1.8620263e-10
1.852557e-10
1.8388295e-10
1.8388165e-10
1.8525186e-10
1.8619715e-10
1.8143937e-10
1.6052842e-10
1.1251431e-10
4.7000302e-11
6.2658882e-12
4.7296192e-14
7.7074949e-21
5.0191607e-22
7.9901169e-15
1.4176404e-12
1.2055012e-11
3.058819e-11
4.4889664e-11
5.1458372e-11
5.3195292e-11
5.3128538e-11
5.2823931e-11
5.2823532e-11
5.3127363e-11
5.319361e-11
5.145642e-11
4.4887883e-11
3.0587209e-11
1.205467e-11
1.4176151e-12
7.9899798e-15
5.0191823e-22
4.6111645e-23
1.3187876e-15
3.1152465e-13
2.9971121e-12
8.0533406e-12
1.2151134e-11
1.4122837e-11
1.4704067e-11
1.4740303e-11
1.4679499e-11
1.467938e-11
1.4739956e-11
1.4703568e-11
1.4122256e-11
1.2150603e-11
8.0530522e-12
2.9970173e-12
3.1151814e-13
1.3187619e-15
4.5942021e-23
1.248785e-23
2.1251835e-16
6.6500401e-14
7.2260117e-13
2.054558e-12
3.1858174e-12
3.7530843e-12
3.9347559e-12
3.9586026e-12
3.9483518e-12
3.9483177e-12
3.9585034e-12
3.9346126e-12
3.7529173e-12
3.1856646e-12
2.0544758e-12
7.2257573e-13
6.6498786e-14
2.1251366e-16
1.2827547e-23
9.4798298e-24
3.3413092e-17
1.379191e-14
1.6901949e-13
5.0817267e-13
8.0947164e-13
9.6628153e-13
1.0199089e-12
1.0296276e-12
1.0284666e-12
1.0284571e-12
1.0296001e-12
1.0198692e-12
9.6623519e-13
8.0942924e-13
5.0814999e-13
1.6901288e-13
1.3791524e-14
3.3412255e-17
9.5820306e-24
2.880953e-24
5.1224067e-18
2.7795299e-15
3.8371108e-14
1.2192316e-13
1.9943619e-13
2.4116842e-13
2.5622518e-13
2.5952269e-13
2.595908e-13
2.5958825e-13
2.5951536e-13
2.562145e-13
2.41156e-13
1.9942484e-13
1.219171e-13
3.8369442e-14
2.7794409e-15
5.1222603e-18
2.8566677e-24
4.7393214e-25
7.6536247e-19
5.4445637e-16
8.4585264e-15
2.8390693e-14
4.767322e-14
5.8383995e-14
6.242477e-14
6.3428907e-14
6.3529379e-14
6.3528716e-14
6.3427013e-14
6.242199e-14
5.8380772e-14
4.7670287e-14
2.8389127e-14
8.4581184e-15
5.444365e-16
7.6533554e-19
4.6252818e-25
5.132923e-26
1.114182e-19
1.0368543e-16
1.8113721e-15
6.4197016e-15
1.1062694e-14
1.371767e-14
1.4757987e-14
1.5041077e-14
1.5083809e-14
1.5083643e-14
1.5040604e-14
1.4757286e-14
1.371686e-14
1.1061961e-14
6.4193094e-15
1.8112751e-15
1.0368112e-16
1.1141329e-19
4.7459246e-26
3.0181524e-27
1.5800177e-20
1.9203131e-17
3.7700633e-16
1.4103843e-15
2.493509e-15
3.1299443e-15
3.3876082e-15
3.4626975e-15
3.4766794e-15
3.4766392e-15
3.4625826e-15
3.3874372e-15
3.1297471e-15
2.4933314e-15
1.4102893e-15
3.7698392e-16
1.9202225e-17
1.5799357e-20
2.8064708e-27
1.6306647e-28
2.1825566e-21
3.4600221e-18
7.630048e-17
3.012162e-16
5.4622484e-16
6.9393335e-16
7.5546605e-16
7.7438557e-16
7.7839618e-16
7.7838672e-16
7.7435851e-16
7.5542567e-16
6.938868e-16
5.4618318e-16
3.0119393e-16
7.6295459e-17
3.459837e-18
2.1824314e-21
1.505169e-28
7.7577236e-30
2.9369717e-22
6.0674194e-19
1.5022983e-17
6.2570656e-17
1.163556e-16
1.4958101e-16
1.6377583e-16
1.6833242e-16
1.693877e-16
1.6938554e-16
1.6832625e-16
1.6376658e-16
1.4957035e-16
1.1634612e-16
6.2565594e-17
1.5021888e-17
6.067052e-19
2.9367906e-22
7.0251131e-30
3.2761702e-31
3.8506824e-23
1.0359138e-19
2.8790519e-18
1.2648701e-17
2.4115732e-17
3.1366193e-17
3.4534362e-17
3.5587958e-17
3.5848169e-17
3.5847689e-17
3.558659e-17
3.4532306e-17
3.1363821e-17
2.4113635e-17
1.2647585e-17
2.87882e-18
1.0358428e-19
3.8504254e-23
2.8763247e-31
1.2745527e-32
4.9202021e-24
1.7227495e-20
5.3730637e-19
2.4896171e-18
4.8657421e-18
6.4020393e-18
7.0871044e-18
7.3217561e-18
7.3826079e-18
7.3825045e-18
7.3214616e-18
7.08666e-18
6.4015271e-18
4.8652918e-18
2.4893787e-18
5.3725864e-19
1.7226159e-20
4.9198392e-24
1.0718089e-32
)
;

boundaryField
{
    Wall
    {
        type            zeroGradient;
    }
    frontAndBack
    {
        type            empty;
    }
    atmosphere
    {
        type            zeroGradient;
    }
}


// ************************************************************************* //
