/*--------------------------------*- C++ -*----------------------------------*\
| =========                 |                                                 |
| \\      /  F ield         | OpenFOAM: The Open Source CFD Toolbox           |
|  \\    /   O peration     | Version:  3.0.1                                 |
|   \\  /    A nd           | Web:      www.OpenFOAM.org                      |
|    \\/     M anipulation  |                                                 |
\*---------------------------------------------------------------------------*/
FoamFile
{
    version     2.0;
    format      ascii;
    class       volScalarField;
    location    "18";
    object      wCO2_g;
}
// * * * * * * * * * * * * * * * * * * * * * * * * * * * * * * * * * * * * * //

dimensions      [0 0 0 0 0 0 0];

internalField   nonuniform List<scalar> 
800
(
0.0077698949
0.0077702351
0.0077702902
0.0077703118
0.0077703275
0.0077703392
0.0077703482
0.0077703545
0.0077703586
0.0077703605
0.0077703606
0.0077703586
0.0077703545
0.0077703482
0.0077703393
0.0077703275
0.0077703119
0.0077702903
0.0077702351
0.0077698949
0.0075662097
0.0075771963
0.0075782466
0.0075783954
0.0075784614
0.0075785683
0.0075786839
0.007578781
0.0075788478
0.0075788814
0.0075788814
0.0075788478
0.007578781
0.0075786839
0.0075785683
0.0075784614
0.0075783954
0.0075782467
0.0075771963
0.0075662096
0.0072137948
0.0072286983
0.0072367398
0.0072372151
0.0072374176
0.0072376682
0.007237919
0.0072381257
0.0072382673
0.0072383389
0.0072383389
0.0072382672
0.0072381256
0.0072379189
0.0072376682
0.0072374176
0.0072372151
0.0072367398
0.0072286983
0.0072137946
0.0065957138
0.0066243114
0.0066356133
0.0066360595
0.0066363118
0.0066366505
0.006636998
0.0066372889
0.0066374883
0.0066375896
0.0066375896
0.0066374882
0.0066372888
0.0066369979
0.0066366505
0.0066363117
0.0066360595
0.0066356134
0.0066243114
0.0065957135
0.005634683
0.0056801313
0.0056924822
0.0057003069
0.0057007112
0.0057011808
0.0057016272
0.0057019827
0.0057022204
0.0057023392
0.0057023392
0.0057022203
0.0057019826
0.0057016271
0.0057011808
0.0057007112
0.005700307
0.0056924823
0.0056801313
0.0056346827
0.0045261547
0.0045822163
0.0045948897
0.004599742
0.0046006883
0.0046014585
0.0046020411
0.0046024419
0.0046026937
0.0046028149
0.0046028149
0.0046026936
0.0046024419
0.0046020411
0.0046014586
0.0046006884
0.0045997422
0.0045948899
0.0045822165
0.0045261545
0.0033656528
0.0034396384
0.0034554819
0.0034594559
0.0034611661
0.0034622714
0.0034629762
0.0034633945
0.0034636363
0.0034637438
0.0034637438
0.0034636362
0.0034633945
0.0034629762
0.0034622715
0.0034611663
0.0034594561
0.0034554821
0.0034396387
0.0033656528
0.0021345782
0.0022208126
0.0022454486
0.0022496786
0.0022517706
0.0022529342
0.0022535747
0.0022539225
0.0022541023
0.0022541745
0.0022541745
0.0022541022
0.0022539224
0.0022535746
0.0022529343
0.0022517708
0.0022496789
0.0022454489
0.002220813
0.0021345784
0.0011428893
0.0012080679
0.0012277939
0.0012316612
0.0012332113
0.0012338279
0.0012340555
0.0012341344
0.0012341475
0.0012341382
0.0012341382
0.0012341474
0.0012341344
0.0012340556
0.001233828
0.0012332115
0.0012316615
0.0012277943
0.0012080684
0.0011428898
0.00054516111
0.00060427689
0.00062331444
0.000626854
0.00062715644
0.00062672914
0.00062625988
0.00062591746
0.0006256927
0.00062556984
0.00062556982
0.00062569267
0.00062591742
0.00062625991
0.00062672929
0.0006271567
0.00062685433
0.0006233148
0.00060427733
0.00054516157
0.00020975598
0.00027742249
0.00029900715
0.00030318188
0.00030240312
0.00030072973
0.00029930036
0.00029833004
0.00029774003
0.0002974458
0.00029744577
0.00029773998
0.00029832995
0.00029930035
0.00030072982
0.00030240328
0.0003031821
0.00029900737
0.00027742277
0.00020975631
5.7668456e-05
0.00011462111
0.00013609297
0.00014163479
0.00014128591
0.00013939422
0.00013754523
0.00013619414
0.00013534522
0.00013492613
0.00013492609
0.00013534516
0.00013619403
0.00013754518
0.00013939424
0.00014128599
0.00014163491
0.00013609309
0.00011462125
5.7668587e-05
1.1277736e-05
4.1844598e-05
5.7780852e-05
6.3276428e-05
6.3826328e-05
6.2643282e-05
6.1194271e-05
6.0034978e-05
5.9272288e-05
5.8890731e-05
5.8890699e-05
5.9272227e-05
6.003488e-05
6.119421e-05
6.2643274e-05
6.3826357e-05
6.3276485e-05
5.7780898e-05
4.1844651e-05
1.1277766e-05
1.6555522e-06
1.3438152e-05
2.2676823e-05
2.6769017e-05
2.7672821e-05
2.7193707e-05
2.6350879e-05
2.5607471e-05
2.5095503e-05
2.4834934e-05
2.4834912e-05
2.5095457e-05
2.56074e-05
2.6350829e-05
2.7193689e-05
2.7672823e-05
2.6769041e-05
2.2676837e-05
1.3438167e-05
1.6555566e-06
1.9537303e-07
3.8157915e-06
8.2132613e-06
1.067256e-05
1.1450263e-05
1.1350531e-05
1.0952451e-05
1.0560081e-05
1.0277312e-05
1.0130925e-05
1.0130912e-05
1.0277283e-05
1.0560037e-05
1.0952417e-05
1.1350514e-05
1.1450257e-05
1.0672568e-05
8.2132645e-06
3.815795e-06
1.9537354e-07
1.9678606e-08
9.6974891e-07
2.7533697e-06
4.007331e-06
4.5093694e-06
4.5404589e-06
4.3819569e-06
4.2027435e-06
4.0673325e-06
3.9960551e-06
3.9960478e-06
4.0673165e-06
4.2027187e-06
4.3819372e-06
4.5404474e-06
4.5093625e-06
4.0073333e-06
2.7533701e-06
9.6974951e-07
1.9678663e-08
1.7660005e-09
2.2395026e-07
8.5919218e-07
1.4198421e-06
1.6897234e-06
1.7380345e-06
1.6845544e-06
1.6117259e-06
1.5537667e-06
1.5227391e-06
1.5227354e-06
1.5537588e-06
1.6117133e-06
1.6845441e-06
1.7380281e-06
1.6897188e-06
1.4198425e-06
8.5919223e-07
2.2395035e-07
1.7660072e-09
1.4517511e-10
4.7685776e-08
2.5130125e-07
4.7632367e-07
6.0319197e-07
6.3658273e-07
6.2180368e-07
5.9505274e-07
5.7245756e-07
5.6014408e-07
5.6014243e-07
5.7245396e-07
5.9504695e-07
6.2179873e-07
6.3657946e-07
6.0318951e-07
4.7632357e-07
2.5130128e-07
4.7685788e-08
1.4517584e-10
1.1120767e-11
9.4786355e-09
6.9381551e-08
1.5190918e-07
2.0556936e-07
2.2329528e-07
2.2042163e-07
2.1146647e-07
2.0334478e-07
1.9883155e-07
1.9883087e-07
2.0334324e-07
2.1146401e-07
2.2041944e-07
2.2329379e-07
2.055682e-07
1.5190904e-07
6.9381564e-08
9.4786382e-09
1.1120842e-11
8.0223616e-13
1.7766598e-09
1.8201359e-08
4.6244158e-08
6.7052484e-08
7.5123431e-08
7.5100007e-08
7.2361884e-08
6.9648329e-08
6.8106746e-08
6.8106483e-08
6.9647711e-08
7.2360903e-08
7.5099103e-08
7.5122803e-08
6.7051994e-08
4.624407e-08
1.8201365e-08
1.7766607e-09
8.022432e-13
5.4868434e-14
3.1664844e-10
4.5638733e-09
1.3489223e-08
2.0986606e-08
2.4282998e-08
2.4621754e-08
2.3860771e-08
2.3013611e-08
2.251978e-08
2.2519685e-08
2.3013378e-08
2.3860404e-08
2.4621404e-08
2.4282749e-08
2.0986415e-08
1.3489181e-08
4.563875e-09
3.1664864e-10
5.4869054e-14
3.5746194e-15
5.4046412e-11
1.0994264e-09
3.7832606e-09
6.3182333e-09
7.5550931e-09
7.7778979e-09
7.5888171e-09
7.3409661e-09
7.1919376e-09
7.191905e-09
7.3408817e-09
7.5886872e-09
7.7777703e-09
7.5549995e-09
6.3181642e-09
3.7832432e-09
1.0994268e-09
5.4046453e-11
3.5746708e-15
2.2266354e-16
8.8911329e-12
2.5557329e-10
1.023249e-09
1.8336565e-09
2.2663286e-09
2.3704729e-09
2.3302792e-09
2.262279e-09
2.2197829e-09
2.2197721e-09
2.2622498e-09
2.3302354e-09
2.3704284e-09
2.2662951e-09
1.8336329e-09
1.0232424e-09
2.5557332e-10
8.8911397e-12
2.2266755e-16
1.3308521e-17
1.4181254e-12
5.7541898e-11
2.6754865e-10
5.1394301e-10
6.5645312e-10
6.9783482e-10
6.9149793e-10
6.7403599e-10
6.6256575e-10
6.625623e-10
6.7402636e-10
6.9148374e-10
6.9782005e-10
6.5644162e-10
5.1393535e-10
2.6754634e-10
5.7541871e-11
1.4181261e-12
1.330881e-17
7.6632004e-19
2.2049229e-13
1.2585364e-11
6.7762342e-11
1.3933148e-10
1.8383751e-10
1.9863602e-10
1.9846191e-10
1.9428844e-10
1.9135653e-10
1.9135546e-10
1.9428539e-10
1.984575e-10
1.9863131e-10
1.8383373e-10
1.3932912e-10
6.7761598e-11
1.2585346e-11
2.2049225e-13
7.6633936e-19
4.272333e-20
3.3578519e-14
2.6800708e-12
1.6649298e-11
3.6580282e-11
4.9826818e-11
5.4716073e-11
5.5126583e-11
5.4209274e-11
5.3500225e-11
5.3499909e-11
5.4208349e-11
5.5125259e-11
5.4714626e-11
4.9825625e-11
3.6579576e-11
1.664907e-11
2.6800628e-12
3.3578476e-14
4.2724523e-20
2.3213926e-21
5.0278661e-15
5.5656351e-13
3.9728636e-12
9.3092142e-12
1.3081127e-11
1.4595316e-11
1.4827869e-11
1.4647136e-11
1.4485357e-11
1.4485266e-11
1.4646867e-11
1.4827484e-11
1.4594887e-11
1.3080765e-11
9.3090102e-12
3.9727978e-12
5.5656067e-13
5.027851e-15
2.32146e-21
1.2399111e-22
7.42178e-16
1.1282082e-13
9.2137852e-13
2.2980023e-12
3.3285449e-12
3.7720915e-12
3.8638289e-12
3.8338604e-12
3.7992336e-12
3.799208e-12
3.8337844e-12
3.8637205e-12
3.771969e-12
3.3284393e-12
2.2979451e-12
9.2136029e-13
1.1281993e-13
7.42174e-16
1.2399457e-22
6.5798729e-24
1.0814552e-16
2.2333597e-14
2.0778061e-13
5.5053288e-13
8.2130151e-13
9.4493718e-13
9.7573197e-13
9.7241134e-13
9.6553356e-13
9.6552656e-13
9.7239059e-13
9.757024e-13
9.4490339e-13
8.2127186e-13
5.5051722e-13
2.0777576e-13
2.2333351e-14
1.0814461e-16
6.58003e-24
4.800168e-25
1.5556515e-17
4.3175406e-15
4.5574479e-14
1.2804939e-13
1.9658779e-13
2.2952294e-13
2.3886163e-13
2.3905908e-13
2.3781826e-13
2.378164e-13
2.390536e-13
2.3885381e-13
2.2951392e-13
1.9657978e-13
1.2804523e-13
4.5573235e-14
4.3174764e-15
1.5556329e-17
4.7839601e-25
1.0941491e-25
2.2070368e-18
8.1492429e-16
9.724043e-15
2.8924164e-14
4.5661907e-14
5.4073426e-14
5.670018e-14
5.6978258e-14
5.6784668e-14
5.678419e-14
5.6976859e-14
5.669817e-14
5.4071099e-14
4.5659823e-14
2.892309e-14
9.7237357e-15
8.149086e-16
2.2070014e-18
1.1233504e-25
7.7637584e-26
3.0832534e-19
1.5011727e-16
2.0183958e-15
6.3465597e-15
1.0294787e-14
1.23595e-14
1.3054551e-14
1.31696e-14
1.3147198e-14
1.3147079e-14
1.3169254e-14
1.3054051e-14
1.235892e-14
1.0294265e-14
6.3462908e-15
2.0183226e-15
1.5011366e-16
3.0831896e-19
7.8437933e-26
2.1259767e-26
4.2335006e-20
2.6976432e-17
4.0758046e-16
1.3530235e-15
2.2535283e-15
2.7415848e-15
2.9160897e-15
2.9526701e-15
2.9523683e-15
2.9523396e-15
2.9525872e-15
2.9159692e-15
2.7414452e-15
2.2534023e-15
1.3529583e-15
4.0756356e-16
2.6975643e-17
4.2333906e-20
2.1051433e-26
3.1497819e-27
5.7026509e-21
4.7271239e-18
8.0072431e-17
2.8032101e-16
4.7908106e-16
5.903585e-16
6.3216679e-16
6.423429e-16
6.4324275e-16
6.4323606e-16
6.4232369e-16
6.3213863e-16
5.9032594e-16
4.7905171e-16
2.8030575e-16
8.0068652e-17
4.7269585e-18
5.7024548e-21
3.071364e-27
3.0755728e-28
7.5235304e-22
8.0745156e-19
1.5305292e-17
5.6453113e-17
9.8941612e-17
1.2344697e-16
1.3304388e-16
1.3563494e-16
1.3601638e-16
1.3601488e-16
1.3563063e-16
1.3303751e-16
1.2343962e-16
9.8935009e-17
5.6449651e-17
1.5304474e-17
8.0741819e-19
7.5231895e-22
2.8352392e-28
1.6005353e-29
9.7082574e-23
1.3441015e-19
2.8466365e-18
1.1053721e-17
1.9856583e-17
2.5075024e-17
2.7192023e-17
2.7808879e-17
2.7923935e-17
2.7923608e-17
2.7807942e-17
2.7190628e-17
2.5073417e-17
1.9855145e-17
1.1052964e-17
2.8464645e-18
1.3440366e-19
9.7077247e-23
1.4771934e-29
7.5191444e-31
1.2240114e-23
2.1801008e-20
5.1524681e-19
2.1049093e-18
3.873698e-18
4.9494027e-18
5.3992335e-18
5.5381873e-18
5.5679943e-18
5.5679253e-18
5.5379896e-18
5.3989379e-18
4.9490623e-18
3.873395e-18
2.104749e-18
5.152118e-19
2.1799787e-20
1.2239363e-23
6.8200759e-31
3.0213359e-32
1.5067428e-24
3.4452835e-21
9.0776017e-20
3.8993116e-19
7.3483718e-19
9.4967849e-19
1.0419225e-18
1.07176e-18
1.0787827e-18
1.0787686e-18
1.0717196e-18
1.0418619e-18
9.4960858e-19
7.3477533e-19
3.8989833e-19
9.0769097e-20
3.4450612e-21
1.506642e-24
2.6470797e-32
1.0523036e-33
1.8100863e-25
5.305061e-22
1.5570266e-20
7.0292114e-20
1.3559893e-19
1.77207e-19
1.9549097e-19
2.0162914e-19
2.0317252e-19
2.0316971e-19
2.0162113e-19
1.954789e-19
1.7719308e-19
1.3558668e-19
7.028561e-20
1.5568939e-20
5.3046681e-22
1.8099521e-25
8.7477266e-34
3.3959795e-35
2.1215441e-26
7.9601164e-23
2.6007691e-21
1.233479e-20
2.4349087e-20
3.2169063e-20
3.5676794e-20
3.6890924e-20
3.7211647e-20
3.7211106e-20
3.6889383e-20
3.5674462e-20
3.2166375e-20
2.4346731e-20
1.2333542e-20
2.6005224e-21
7.9594415e-23
2.1213659e-26
2.6381981e-35
)
;

boundaryField
{
    Wall
    {
        type            zeroGradient;
    }
    frontAndBack
    {
        type            empty;
    }
    atmosphere
    {
        type            zeroGradient;
    }
}


// ************************************************************************* //
