/*--------------------------------*- C++ -*----------------------------------*\
| =========                 |                                                 |
| \\      /  F ield         | OpenFOAM: The Open Source CFD Toolbox           |
|  \\    /   O peration     | Version:  3.0.1                                 |
|   \\  /    A nd           | Web:      www.OpenFOAM.org                      |
|    \\/     M anipulation  |                                                 |
\*---------------------------------------------------------------------------*/
FoamFile
{
    version     2.0;
    format      ascii;
    class       volScalarField;
    location    "18";
    object      weight0;
}
// * * * * * * * * * * * * * * * * * * * * * * * * * * * * * * * * * * * * * //

dimensions      [0 0 0 0 0 0 0];

internalField   nonuniform List<scalar> 
800
(
1.4774067e+10
1.4775013e+10
1.4775237e+10
1.4775323e+10
1.4775385e+10
1.4775434e+10
1.4775473e+10
1.47755e+10
1.4775518e+10
1.4775527e+10
1.4775527e+10
1.4775518e+10
1.47755e+10
1.4775473e+10
1.4775434e+10
1.4775385e+10
1.4775323e+10
1.4775237e+10
1.4775013e+10
1.4774067e+10
41681524
34506733
33789311
33545038
33369253
33223443
33107449
33022578
32967773
32940938
32940944
32967782
33022591
33107464
33223456
33369259
33545035
33789299
34506716
41681564
4.0197876e+08
3.7006302e+08
3.5367839e+08
3.5175615e+08
3.5051304e+08
3.4954501e+08
3.4880423e+08
3.4827039e+08
3.4792617e+08
3.4775726e+08
3.4775732e+08
3.4792627e+08
3.4827055e+08
3.4880443e+08
3.4954523e+08
3.5051326e+08
3.5175636e+08
3.5367857e+08
3.7006323e+08
4.0197924e+08
1.7018133e+09
1.5734033e+09
1.5381022e+09
1.5320569e+09
1.5279424e+09
1.5249082e+09
1.5226816e+09
1.5211241e+09
1.5201339e+09
1.5196522e+09
1.5196524e+09
1.5201344e+09
1.521125e+09
1.5226827e+09
1.5249096e+09
1.5279438e+09
1.5320586e+09
1.5381038e+09
1.5734052e+09
1.701816e+09
6.2640666e+09
5.8406033e+09
5.8087705e+09
5.7510831e+09
5.7357252e+09
5.7248832e+09
5.7175131e+09
5.7126869e+09
5.7097442e+09
5.7083496e+09
5.7083506e+09
5.7097467e+09
5.7126909e+09
5.7175184e+09
5.7248892e+09
5.7357317e+09
5.7510907e+09
5.808778e+09
5.8406113e+09
6.2640779e+09
2.1862834e+10
2.0516542e+10
2.0670203e+10
2.0630688e+10
2.0568865e+10
2.052223e+10
2.04918e+10
2.0471989e+10
2.0460281e+10
2.0454709e+10
2.0454712e+10
2.046029e+10
2.0472004e+10
2.049182e+10
2.0522252e+10
2.0568888e+10
2.0630715e+10
2.0670228e+10
2.0516567e+10
2.1862874e+10
8.570513e+10
8.241871e+10
8.2933161e+10
8.2979527e+10
8.2772914e+10
8.2572751e+10
8.2436972e+10
8.2347321e+10
8.2294182e+10
8.2267352e+10
8.2267364e+10
8.2294209e+10
8.2347368e+10
8.243704e+10
8.257282e+10
8.2772991e+10
8.2979627e+10
8.2933243e+10
8.2418789e+10
8.5705289e+10
2.4349129e+11
2.4878478e+11
2.5309864e+11
2.5486503e+11
2.5467972e+11
2.5415737e+11
2.5373276e+11
2.5346166e+11
2.532927e+11
2.5319924e+11
2.5319925e+11
2.5329274e+11
2.5346172e+11
2.5373289e+11
2.5415751e+11
2.5467989e+11
2.5486531e+11
2.5309882e+11
2.4878498e+11
2.4349173e+11
0
0
0
0
0
0
0
0
0
0
0
0
0
0
0
0
0
0
0
0
0
0
0
0
0
0
0
0
0
0
0
0
0
0
0
0
0
0
0
0
0
0
0
0
0
0
0
0
0
0
0
0
0
0
0
0
0
0
0
0
0
0
0
0
0
0
0
0
0
0
0
0
0
0
0
0
0
0
0
0
0
0
0
0
0
0
0
0
0
0
0
0
0
0
0
0
0
0
0
0
0
0
0
0
0
0
0
0
0
0
0
0
0
0
0
0
0
0
0
0
0
0
0
0
0
0
0
0
0
0
0
0
0
0
0
0
0
0
0
0
0
0
0
0
0
0
0
0
0
0
0
0
0
0
0
0
0
0
0
0
0
0
0
0
0
0
0
0
0
0
0
0
0
0
0
0
0
0
0
0
0
0
0
0
0
0
0
0
0
0
0
0
0
0
0
0
0
0
0
0
0
0
0
0
0
0
0
0
0
0
0
0
0
0
0
0
0
0
0
0
0
0
0
0
0
0
0
0
0
0
0
0
0
0
0
0
0
0
0
0
0
0
0
0
0
0
0
0
0
0
0
0
0
0
0
0
0
0
0
0
0
0
0
0
0
0
0
0
0
0
0
0
0
0
0
0
0
0
0
0
0
0
0
0
0
0
0
0
0
0
0
0
0
0
0
0
0
0
0
0
0
0
0
0
0
0
0
0
0
0
0
0
0
0
0
0
0
0
0
0
0
0
0
0
0
0
0
0
0
0
0
0
0
0
0
0
0
0
0
0
0
0
0
0
0
0
0
0
0
0
0
0
0
0
0
0
0
0
0
0
0
0
0
0
0
0
0
0
0
0
0
0
0
0
0
0
0
0
0
0
0
0
0
0
0
0
0
0
0
0
0
0
0
0
0
0
0
0
0
0
0
0
0
0
0
0
0
0
0
0
0
0
0
0
0
0
0
0
0
0
0
0
0
0
0
0
0
0
0
0
0
0
0
0
0
0
0
0
0
0
0
0
0
0
0
0
0
0
0
0
0
0
0
0
0
0
0
0
0
0
0
0
0
0
0
0
0
0
0
0
0
0
0
0
0
0
0
0
0
0
0
0
0
0
0
0
0
0
0
0
0
0
0
0
0
0
0
0
0
0
0
0
0
0
0
0
0
0
0
0
0
0
0
0
0
0
0
0
0
0
0
0
0
0
0
0
0
0
0
0
0
0
0
0
0
0
0
0
0
0
0
0
0
0
0
0
0
0
0
0
0
0
0
0
0
0
0
0
0
0
0
0
0
0
0
0
0
0
0
0
0
0
0
0
0
0
0
0
0
0
0
0
0
0
0
0
0
0
0
0
0
0
0
0
0
0
0
0
0
0
0
0
0
0
0
0
0
0
0
0
0
0
0
0
0
0
0
0
0
0
0
0
0
0
0
0
0
0
0
0
0
0
0
0
0
0
0
0
0
0
)
;

boundaryField
{
    Wall
    {
        type            zeroGradient;
    }
    frontAndBack
    {
        type            empty;
    }
    atmosphere
    {
        type            zeroGradient;
    }
}


// ************************************************************************* //
