/*--------------------------------*- C++ -*----------------------------------*\
| =========                 |                                                 |
| \\      /  F ield         | OpenFOAM: The Open Source CFD Toolbox           |
|  \\    /   O peration     | Version:  3.0.1                                 |
|   \\  /    A nd           | Web:      www.OpenFOAM.org                      |
|    \\/     M anipulation  |                                                 |
\*---------------------------------------------------------------------------*/
FoamFile
{
    version     2.0;
    format      ascii;
    class       volScalarField;
    location    "19";
    object      alpha.gas;
}
// * * * * * * * * * * * * * * * * * * * * * * * * * * * * * * * * * * * * * //

dimensions      [0 0 0 0 0 0 0];

internalField   nonuniform List<scalar> 
800
(
3.0060298e-28
2.3191149e-25
4.4628963e-22
8.6903645e-22
4.256466e-24
1.0746161e-21
9.3442488e-22
5.5549855e-23
9.6575933e-26
6.2257271e-29
3.0597118e-23
2.9821611e-23
1.7965165e-25
6.9331798e-23
6.8395225e-23
1.6134989e-27
3.6808506e-32
8.3231666e-36
1.642103e-39
3.0498196e-43
3.5224596e-12
7.9907734e-13
5.8307374e-11
2.077025e-11
8.0637534e-13
2.754974e-11
2.1646863e-11
2.6064748e-11
5.2989201e-11
1.3304053e-10
6.6835701e-11
6.6562078e-11
3.6012531e-11
2.1341709e-11
2.017617e-11
3.9336724e-12
2.2484395e-16
5.9202659e-14
1.1229894e-11
1.5352695e-14
1.1980844e-05
1.1315031e-05
1.1241612e-05
1.1258213e-05
1.1272158e-05
1.1280465e-05
1.1283818e-05
1.1284939e-05
1.1285137e-05
1.1285126e-05
1.1285082e-05
1.1285144e-05
1.1284942e-05
1.1283813e-05
1.1280454e-05
1.1272153e-05
1.1258189e-05
1.1241564e-05
1.1315031e-05
1.1980844e-05
5.8714119e-05
5.4917421e-05
5.4532077e-05
5.4626678e-05
5.4692554e-05
5.472898e-05
5.4745713e-05
5.4751225e-05
5.4753439e-05
5.4753953e-05
5.4753911e-05
5.4753435e-05
5.475121e-05
5.4745682e-05
5.4728934e-05
5.4692508e-05
5.4626604e-05
5.4531992e-05
5.4917379e-05
5.871409e-05
0.00018677899
0.00017216051
0.00017060401
0.00017069089
0.00017083593
0.00017092033
0.000170969
0.0001709956
0.00017101122
0.00017101737
0.00017101732
0.00017101118
0.00017099552
0.00017096888
0.00017092015
0.00017083573
0.00017069064
0.00017060375
0.00017216029
0.00018677875
0.00056689358
0.00050813095
0.00050059943
0.00049948294
0.00049945971
0.00049957838
0.00049970935
0.00049985548
0.00049995288
0.00050000631
0.0005000062
0.00049995269
0.00049985513
0.00049970884
0.00049957768
0.0004994589
0.00049948197
0.00050059841
0.00050812993
0.00056689228
0.0022922487
0.0019442172
0.0018866648
0.0018739575
0.0018708298
0.0018707214
0.0018714588
0.0018725947
0.0018734096
0.0018739047
0.0018739043
0.0018734087
0.001872593
0.0018714562
0.0018707177
0.0018708252
0.001873952
0.001886659
0.0019442106
0.0022922398
0.023214619
0.017349438
0.016295743
0.016056411
0.015988646
0.015988403
0.016006509
0.016030094
0.016047383
0.016057577
0.016057572
0.016047371
0.016030072
0.016006472
0.01598835
0.015988578
0.016056329
0.016295654
0.017349331
0.023214463
0.37196905
0.30919215
0.2957386
0.29265304
0.29181147
0.29188205
0.29218223
0.29253368
0.29278845
0.29293585
0.2929358
0.29278829
0.29253339
0.29218174
0.29188136
0.29181059
0.29265199
0.29573746
0.30919087
0.37196762
0.89845315
0.86883981
0.86161117
0.86003758
0.85964219
0.8597212
0.85990961
0.86011502
0.86026174
0.86034581
0.86034578
0.86026166
0.86011486
0.85990935
0.85972083
0.85964172
0.86003702
0.86161057
0.86883917
0.89845256
0.99713039
0.99519573
0.99460755
0.99451471
0.99450613
0.99452486
0.99454658
0.99456609
0.9945793
0.9945866
0.9945866
0.99457929
0.99456608
0.99454656
0.99452483
0.9945061
0.99451467
0.9946075
0.99519569
0.99713036
0.99999163
0.99997595
0.99996939
0.99996877
0.99996908
0.99996955
0.99996995
0.99997025
0.99997044
0.99997054
0.99997054
0.99997044
0.99997025
0.99996995
0.99996955
0.99996908
0.99996877
0.99996939
0.99997595
0.99999163
1
0.99999999
0.99999998
0.99999998
0.99999998
0.99999998
0.99999998
0.99999998
0.99999998
0.99999998
0.99999998
0.99999998
0.99999998
0.99999998
0.99999998
0.99999998
0.99999998
0.99999998
0.99999999
1
1
1
1
1
1
1
1
1
1
1
1
1
1
1
1
1
1
1
1
1
1
1
1
1
1
1
1
1
1
1
1
1
1
1
1
1
1
1
1
1
1
1
1
1
1
1
1
1
1
1
1
1
1
1
1
1
1
1
1
1
1
1
1
1
1
1
1
1
1
1
1
1
1
1
1
1
1
1
1
1
1
1
1
1
1
1
1
1
1
1
1
1
1
1
1
1
1
1
1
1
1
1
1
1
1
1
1
1
1
1
1
1
1
1
1
1
1
1
1
1
1
1
1
1
1
1
1
1
1
1
1
1
1
1
1
1
1
1
1
1
1
1
1
1
1
1
1
1
1
1
1
1
1
1
1
1
1
1
1
1
1
1
1
1
1
1
1
1
1
1
1
1
1
1
1
1
1
1
1
1
1
1
1
1
1
1
1
1
1
1
1
1
1
1
1
1
1
1
1
1
1
1
1
1
1
1
1
1
1
1
1
1
1
1
1
1
1
1
1
1
1
1
1
1
1
1
1
1
1
1
1
1
1
1
1
1
1
1
1
1
1
1
1
1
1
1
1
1
1
1
1
1
1
1
1
1
1
1
1
1
1
1
1
1
1
1
1
1
1
1
1
1
1
1
1
1
1
1
1
1
1
1
1
1
1
1
1
1
1
1
1
1
1
1
1
1
1
1
1
1
1
1
1
1
1
1
1
1
1
1
1
1
1
1
1
1
1
1
1
1
1
1
1
1
1
1
1
1
1
1
1
1
1
1
1
1
1
1
1
1
1
1
1
1
1
1
1
1
1
1
1
1
1
1
1
1
1
1
1
1
1
1
1
1
1
1
1
1
1
1
1
1
1
1
1
1
1
1
1
1
1
1
1
1
1
1
1
1
1
1
1
1
1
1
1
1
1
1
1
1
1
1
1
1
1
1
1
1
1
1
1
1
1
1
1
1
1
1
1
1
1
1
1
1
1
1
1
1
1
1
1
1
1
1
1
1
1
1
1
1
1
1
1
1
1
1
1
1
1
1
1
1
1
1
1
1
1
1
1
1
1
1
1
1
1
1
1
1
1
1
1
1
1
1
1
1
1
1
1
1
1
1
1
1
1
1
1
1
1
1
1
1
1
1
1
1
1
1
1
1
1
1
1
1
1
1
1
1
1
1
1
1
1
1
1
1
1
1
1
1
1
1
1
1
1
1
1
1
1
1
1
1
1
1
1
1
1
1
1
1
)
;

boundaryField
{
    Wall
    {
        type            zeroGradient;
    }
    frontAndBack
    {
        type            empty;
    }
    atmosphere
    {
        type            zeroGradient;
    }
}


// ************************************************************************* //
