/*--------------------------------*- C++ -*----------------------------------*\
| =========                 |                                                 |
| \\      /  F ield         | OpenFOAM: The Open Source CFD Toolbox           |
|  \\    /   O peration     | Version:  3.0.1                                 |
|   \\  /    A nd           | Web:      www.OpenFOAM.org                      |
|    \\/     M anipulation  |                                                 |
\*---------------------------------------------------------------------------*/
FoamFile
{
    version     2.0;
    format      ascii;
    class       volScalarField;
    location    "19";
    object      g1_CO2;
}
// * * * * * * * * * * * * * * * * * * * * * * * * * * * * * * * * * * * * * //

dimensions      [0 0 0 0 0 0 0];

internalField   nonuniform List<scalar> 
800
(
0.46775088
0.46777931
0.46778369
0.46778442
0.46778482
0.46778518
0.46778551
0.46778576
0.46778592
0.46778601
0.46778601
0.46778592
0.46778576
0.46778551
0.46778518
0.46778482
0.46778442
0.46778369
0.46777931
0.46775088
0.49086453
0.4908445
0.49087723
0.4908561
0.49082954
0.49081074
0.49079959
0.49079379
0.49079107
0.49079002
0.49079002
0.49079107
0.49079379
0.49079959
0.49081073
0.49082953
0.4908561
0.49087723
0.49084449
0.49086453
0.53509654
0.53451674
0.53438193
0.53435043
0.53431948
0.53429716
0.53428525
0.53428004
0.5342782
0.53427772
0.53427772
0.5342782
0.53428005
0.53428525
0.53429716
0.53431949
0.53435044
0.53438193
0.53451675
0.53509654
0.60570672
0.60442147
0.6042298
0.60416703
0.6041183
0.60408667
0.60407168
0.60406682
0.60406585
0.60406613
0.60406613
0.60406585
0.60406683
0.60407169
0.60408669
0.60411831
0.60416704
0.60422981
0.60442149
0.60570673
0.67751544
0.67677856
0.67668512
0.67804505
0.67794783
0.67789191
0.67786885
0.67786392
0.67786478
0.67786675
0.67786675
0.67786479
0.67786393
0.67786886
0.67789193
0.67794784
0.67804507
0.67668514
0.67677858
0.67751544
0.64792306
0.66298254
0.66338659
0.66527153
0.66514203
0.66507885
0.66506303
0.6650675
0.66507686
0.66508337
0.66508337
0.66507687
0.66506751
0.66506305
0.66507887
0.66514204
0.66527156
0.66338661
0.66298255
0.64792305
0.46949842
0.48147063
0.48215522
0.48402491
0.48410519
0.48417255
0.48423427
0.48428182
0.4843148
0.48433086
0.48433086
0.48431479
0.48428181
0.48423427
0.48417255
0.48410521
0.48402493
0.48215524
0.48147064
0.46949841
0.34201887
0.35376497
0.35584998
0.35726309
0.35755996
0.3577403
0.3578556
0.3579294
0.35797318
0.35799253
0.35799253
0.35797317
0.35792938
0.35785558
0.35774029
0.35755996
0.3572631
0.35584999
0.35376499
0.34201887
0.18157554
0.19843471
0.20439696
0.2055515
0.20592976
0.20611194
0.20620408
0.20625747
0.20628459
0.20629494
0.20629494
0.20628457
0.20625745
0.20620406
0.20611193
0.20592977
0.20555152
0.20439698
0.19843474
0.18157557
0
0
0
0
0
0
0
0
0
0
0
0
0
0
0
0
0
0
0
0
0
0
0
0
0
0
0
0
0
0
0
0
0
0
0
0
0
0
0
0
0
0
0
0
0
0
0
0
0
0
0
0
0
0
0
0
0
0
0
0
0
0
0
0
0
0
0
0
0
0
0
0
0
0
0
0
0
0
0
0
0
0
0
0
0
0
0
0
0
0
0
0
0
0
0
0
0
0
0
0
0
0
0
0
0
0
0
0
0
0
0
0
0
0
0
0
0
0
0
0
0
0
0
0
0
0
0
0
0
0
0
0
0
0
0
0
0
0
0
0
0
0
0
0
0
0
0
0
0
0
0
0
0
0
0
0
0
0
0
0
0
0
0
0
0
0
0
0
0
0
0
0
0
0
0
0
0
0
0
0
0
0
0
0
0
0
0
0
0
0
0
0
0
0
0
0
0
0
0
0
0
0
0
0
0
0
0
0
0
0
0
0
0
0
0
0
0
0
0
0
0
0
0
0
0
0
0
0
0
0
0
0
0
0
0
0
0
0
0
0
0
0
0
0
0
0
0
0
0
0
0
0
0
0
0
0
0
0
0
0
0
0
0
0
0
0
0
0
0
0
0
0
0
0
0
0
0
0
0
0
0
0
0
0
0
0
0
0
0
0
0
0
0
0
0
0
0
0
0
0
0
0
0
0
0
0
0
0
0
0
0
0
0
0
0
0
0
0
0
0
0
0
0
0
0
0
0
0
0
0
0
0
0
0
0
0
0
0
0
0
0
0
0
0
0
0
0
0
0
0
0
0
0
0
0
0
0
0
0
0
0
0
0
0
0
0
0
0
0
0
0
0
0
0
0
0
0
0
0
0
0
0
0
0
0
0
0
0
0
0
0
0
0
0
0
0
0
0
0
0
0
0
0
0
0
0
0
0
0
0
0
0
0
0
0
0
0
0
0
0
0
0
0
0
0
0
0
0
0
0
0
0
0
0
0
0
0
0
0
0
0
0
0
0
0
0
0
0
0
0
0
0
0
0
0
0
0
0
0
0
0
0
0
0
0
0
0
0
0
0
0
0
0
0
0
0
0
0
0
0
0
0
0
0
0
0
0
0
0
0
0
0
0
0
0
0
0
0
0
0
0
0
0
0
0
0
0
0
0
0
0
0
0
0
0
0
0
0
0
0
0
0
0
0
0
0
0
0
0
0
0
0
0
0
0
0
0
0
0
0
0
0
0
0
0
0
0
0
0
0
0
0
0
0
0
0
0
0
0
0
0
0
0
0
0
0
0
0
0
0
0
0
0
0
0
0
0
0
0
0
0
0
0
0
0
0
0
0
0
0
0
0
0
0
0
0
0
0
0
0
0
0
0
0
0
0
0
0
0
0
0
0
0
0
0
0
0
0
0
0
)
;

boundaryField
{
    Wall
    {
        type            zeroGradient;
    }
    frontAndBack
    {
        type            empty;
    }
    atmosphere
    {
        type            zeroGradient;
    }
}


// ************************************************************************* //
