/*--------------------------------*- C++ -*----------------------------------*\
| =========                 |                                                 |
| \\      /  F ield         | OpenFOAM: The Open Source CFD Toolbox           |
|  \\    /   O peration     | Version:  3.0.1                                 |
|   \\  /    A nd           | Web:      www.OpenFOAM.org                      |
|    \\/     M anipulation  |                                                 |
\*---------------------------------------------------------------------------*/
FoamFile
{
    version     2.0;
    format      ascii;
    class       volScalarField;
    location    "19";
    object      M1;
}
// * * * * * * * * * * * * * * * * * * * * * * * * * * * * * * * * * * * * * //

dimensions      [0 0 0 0 0 0 0];

internalField   nonuniform List<scalar> 
800
(
0.86295626
0.86295968
0.86295947
0.86295913
0.86295886
0.86295865
0.86295849
0.86295838
0.86295831
0.86295827
0.86295827
0.86295831
0.86295838
0.86295849
0.86295865
0.86295886
0.86295913
0.86295947
0.86295968
0.86295626
0.85602
0.85625235
0.85627894
0.85628168
0.85628211
0.85628365
0.8562857
0.8562876
0.85628896
0.85628967
0.85628967
0.85628896
0.8562876
0.8562857
0.85628365
0.85628211
0.85628168
0.85627895
0.85625235
0.85602
0.84808052
0.84841954
0.84854636
0.84855567
0.84855821
0.8485619
0.8485662
0.84857003
0.84857277
0.84857419
0.84857419
0.84857277
0.84857003
0.8485662
0.8485619
0.84855821
0.84855568
0.84854636
0.84841955
0.84808052
0.83758681
0.83816434
0.83837173
0.83838154
0.8383847
0.83838971
0.83839589
0.83840149
0.83840551
0.8384076
0.83840761
0.83840551
0.83840149
0.83839589
0.83838971
0.8383847
0.83838154
0.83837173
0.83816434
0.83758681
0.82113198
0.82217021
0.82245692
0.82263953
0.82264437
0.82265192
0.82266103
0.82266913
0.82267489
0.82267786
0.82267786
0.82267489
0.82266913
0.82266103
0.82265192
0.82264437
0.82263954
0.82245692
0.82217021
0.82113197
0.7934666
0.79555331
0.79596559
0.79622403
0.79624229
0.79626081
0.79627788
0.79629123
0.79630029
0.79630482
0.79630482
0.79630029
0.79629123
0.79627788
0.79626081
0.79624229
0.79622404
0.7959656
0.79555331
0.79346659
0.7524291
0.75571234
0.75636801
0.75667243
0.75673443
0.75678129
0.75681583
0.75683925
0.75685397
0.75686096
0.75686096
0.75685396
0.75683924
0.75681583
0.75678129
0.75673444
0.75667244
0.75636801
0.75571234
0.75242909
0.68947792
0.69538707
0.69685097
0.69726958
0.69742336
0.69752291
0.69758643
0.69762591
0.69764887
0.69765924
0.69765923
0.69764887
0.6976259
0.69758642
0.6975229
0.69742336
0.69726958
0.69685097
0.69538708
0.68947792
0.5828854
0.59414396
0.59773719
0.59841777
0.59870892
0.59887159
0.59896261
0.59901535
0.59904334
0.59905522
0.59905521
0.59904332
0.59901533
0.5989626
0.59887159
0.59870892
0.59841778
0.59773721
0.59414399
0.58288542
0.43665402
0.45286141
0.45834337
0.45950409
0.45987249
0.45999973
0.46003902
0.46005085
0.46005047
0.46004692
0.46004691
0.46005045
0.46005083
0.46003901
0.45999974
0.45987252
0.45950414
0.45834343
0.45286149
0.43665409
0.27579762
0.30312729
0.31250783
0.31454286
0.31467783
0.31440813
0.31412785
0.3139277
0.31380061
0.31373418
0.31373417
0.31380059
0.31392767
0.31412784
0.31440815
0.31467787
0.31454293
0.31250791
0.30312741
0.27579776
0.12875136
0.17461311
0.18965485
0.19322349
0.19304062
0.19199045
0.19100229
0.19029841
0.18986221
0.18964574
0.18964572
0.18986217
0.19029835
0.19100226
0.19199046
0.19304066
0.19322355
0.18965492
0.17461322
0.1287515
0.040098406
0.085221528
0.10299714
0.10829778
0.10856797
0.10728465
0.10585985
0.10475883
0.10404839
0.10369439
0.10369436
0.10404834
0.10475875
0.1058598
0.10728464
0.108568
0.10829782
0.10299718
0.08522159
0.04009847
0.0086466443
0.035493628
0.050325201
0.055927991
0.056875411
0.05602226
0.054779083
0.053723635
0.053009859
0.052648
0.052647976
0.053009808
0.05372356
0.054779032
0.056022243
0.056875418
0.055928016
0.050325221
0.035493654
0.0086466581
0.0014204631
0.012862926
0.022363948
0.026844891
0.028037186
0.027703184
0.026905932
0.026154853
0.025622801
0.025347955
0.025347936
0.025622761
0.026154793
0.026905888
0.027703164
0.028037184
0.026844903
0.022363955
0.012862934
0.001420465
0.00019307786
0.0041434076
0.0091481537
0.012072636
0.013093513
0.013068809
0.012656597
0.012217356
0.011891274
0.011719701
0.011719689
0.011891246
0.012217315
0.012656566
0.013068792
0.013093507
0.012072642
0.0091481562
0.0041434101
0.0001930781
2.3005504e-05
0.001209845
0.003481513
0.0051219722
0.0058204744
0.0059049588
0.0057262793
0.0055031847
0.0053291128
0.0052358309
0.0052358233
0.0053290958
0.0055031594
0.0057262589
0.0059049467
0.0058204686
0.0051219747
0.003481514
0.0012098457
2.300554e-05
2.4951014e-06
0.00032563213
0.0012437356
0.0020617689
0.0024717944
0.0025616331
0.0024967229
0.0023952409
0.0023115482
0.0022658447
0.0022658405
0.0023115387
0.0023952266
0.0024967111
0.0025616257
0.0024717903
0.0020617699
0.0012437361
0.00032563238
2.4951074e-06
2.5221092e-07
8.1876699e-05
0.00042018609
0.00079116506
0.0010057789
0.0010687979
0.0010502085
0.0010081559
0.00097117564
0.00095057095
0.00095056882
0.00097117071
0.0010081484
0.0010502022
0.0010687938
0.0010057765
0.00079116542
0.0004201864
8.187679e-05
2.5221183e-07
2.4109525e-08
1.9430816e-05
0.00013508307
0.00029057707
0.00039313897
0.00042955534
0.00042653644
0.00041052669
0.00039531821
0.0003866555
0.00038665448
0.00039531582
0.00041052304
0.00042653331
0.00042955327
0.00039313771
0.00029057717
0.00013508322
1.9430848e-05
2.4109646e-08
2.1992756e-09
4.3863304e-06
4.1538831e-05
0.00010250049
0.00014796328
0.00016654709
0.00016741754
0.00016180733
0.00015593771
0.00015251069
0.00015251023
0.00015593662
0.00016180565
0.00016741608
0.00016654612
0.00014796268
0.00010250051
4.1538898e-05
4.3863401e-06
2.1992898e-09
1.9253622e-10
9.4750104e-07
1.2271173e-05
3.4831455e-05
5.3734793e-05
6.2387949e-05
6.3569588e-05
6.1769688e-05
5.9632429e-05
5.8348685e-05
5.8348487e-05
5.9631957e-05
6.176896e-05
6.356894e-05
6.2387519e-05
5.3734523e-05
3.4831454e-05
1.2271201e-05
9.4750387e-07
1.925378e-10
1.6237291e-11
1.9677329e-07
3.4953213e-06
1.1432638e-05
1.8867145e-05
2.2612908e-05
2.3376672e-05
2.2857013e-05
2.2120433e-05
2.1663052e-05
2.1662971e-05
2.2120237e-05
2.2856712e-05
2.3376398e-05
2.2612726e-05
1.8867031e-05
1.1432633e-05
3.4953315e-06
1.9677403e-07
1.6237459e-11
1.3225626e-12
3.9440077e-08
9.6297309e-07
3.6329312e-06
6.4163359e-06
7.9420232e-06
8.334934e-06
8.2058685e-06
7.9652734e-06
7.8097919e-06
7.8097608e-06
7.9651951e-06
8.2057496e-06
8.3348233e-06
7.941949e-06
6.4162905e-06
3.632928e-06
9.6297649e-07
3.9440262e-08
1.3225797e-12
1.0424962e-13
7.6548809e-09
2.5729825e-07
1.1199173e-06
2.1169251e-06
2.7065683e-06
2.8847442e-06
2.8609303e-06
2.7864915e-06
2.7359577e-06
2.735946e-06
2.7864613e-06
2.8608851e-06
2.8847013e-06
2.706539e-06
2.1169077e-06
1.1199156e-06
2.5729931e-07
7.6549237e-09
1.0425128e-13
7.9651694e-15
1.4429884e-09
6.6829963e-08
3.3550901e-07
6.7857167e-07
8.9613093e-07
9.7023829e-07
9.6958269e-07
9.4783472e-07
9.3211396e-07
9.3210969e-07
9.4782352e-07
9.6956608e-07
9.7022224e-07
8.9611978e-07
6.7856527e-07
3.3550821e-07
6.6830272e-08
1.4429978e-09
7.9653212e-15
5.9077478e-16
2.6491425e-10
1.6908378e-08
9.7832615e-08
2.1160315e-07
2.8859738e-07
3.1744255e-07
3.1971215e-07
3.1375361e-07
3.0907168e-07
3.0907018e-07
3.1374959e-07
3.1970625e-07
3.1743674e-07
2.8859326e-07
2.1160087e-07
9.783228e-08
1.6908462e-08
2.6491616e-10
5.9078805e-16
4.2598558e-17
4.748785e-11
4.1744182e-09
2.7803948e-08
6.4266322e-08
9.0497429e-08
1.011301e-07
1.026613e-07
1.0115155e-07
9.9817962e-08
9.9817451e-08
1.0115015e-07
1.0265926e-07
1.0112805e-07
9.0495951e-08
6.4265532e-08
2.7803818e-08
4.1744388e-09
4.7488218e-11
4.2599663e-17
2.9908432e-18
8.3317548e-12
1.0071888e-09
7.7103406e-09
1.9029093e-08
2.7657284e-08
3.1397748e-08
3.2127294e-08
3.1783876e-08
3.1421448e-08
3.1421278e-08
3.1783403e-08
3.212661e-08
3.1397049e-08
2.7656768e-08
1.9028826e-08
7.710292e-09
1.0071934e-09
8.3318213e-12
2.9909306e-18
3.0147286e-19
1.4339164e-12
2.3779422e-10
2.0883968e-09
5.498069e-09
8.2446829e-09
9.5072752e-09
9.8056551e-09
9.7406548e-09
9.6471078e-09
9.6470518e-09
9.7404989e-09
9.8054314e-09
9.5070423e-09
8.2445071e-09
5.4979806e-09
2.0883796e-09
2.3779507e-10
1.4339276e-12
3.0066071e-19
8.7477723e-20
2.4254723e-13
5.4995149e-11
5.5295314e-10
1.5513009e-09
2.3991141e-09
2.8096698e-09
2.9207857e-09
2.913313e-09
2.8905698e-09
2.890552e-09
2.913263e-09
2.9207144e-09
2.8095943e-09
2.3990558e-09
1.5512723e-09
5.5294726e-10
5.499527e-11
2.4254897e-13
8.8505502e-20
4.270106e-20
4.0391008e-14
1.2469452e-11
1.4322096e-10
4.2773081e-10
6.8190897e-10
8.1090113e-10
8.4957611e-10
8.5084612e-10
8.4571801e-10
8.4571248e-10
8.5083047e-10
8.4955391e-10
8.1087732e-10
6.8189021e-10
4.2772179e-10
1.4321905e-10
1.2469455e-11
4.0391295e-14
4.2790147e-20
9.949704e-21
6.6313317e-15
2.7736795e-12
3.6310057e-11
1.1531707e-10
1.8943341e-10
2.2868615e-10
2.4144627e-10
2.4277654e-10
2.4173819e-10
2.4173653e-10
2.4277177e-10
2.4143952e-10
2.2867883e-10
1.8942754e-10
1.1531428e-10
3.6309464e-11
2.7736734e-12
6.6313536e-15
9.9159889e-21
1.6667128e-21
1.0746092e-15
6.0557369e-13
9.0150631e-12
3.041558e-11
5.1460341e-11
6.305155e-11
6.7076685e-11
6.7711825e-11
6.7538133e-11
6.753764e-11
6.7710405e-11
6.7074677e-11
6.3049352e-11
5.1458553e-11
3.041474e-11
9.0148847e-12
6.055705e-13
1.0745613e-15
1.6381863e-21
2.1614709e-22
1.7192086e-16
1.2981871e-13
2.1929035e-12
7.8520952e-12
1.3676837e-11
1.7003688e-11
1.8224593e-11
1.8468072e-11
1.8451487e-11
1.8451344e-11
1.846766e-11
1.8224008e-11
1.7003045e-11
1.3676308e-11
7.8518475e-12
2.1928515e-12
1.2981756e-13
1.7190254e-16
2.1174239e-22
1.8956271e-23
2.7151692e-17
2.7332448e-14
5.2280734e-13
1.9849556e-12
3.5578759e-12
4.4872067e-12
4.8447326e-12
4.9279337e-12
4.931483e-12
4.9314425e-12
4.9278171e-12
4.8445662e-12
4.4870229e-12
3.557723e-12
1.9848844e-12
5.2279266e-13
2.733209e-14
2.7148741e-17
1.7913323e-23
1.1998841e-24
4.2347973e-18
5.6528595e-15
1.2220225e-13
4.9154848e-13
9.062973e-13
1.1592534e-12
1.2606347e-12
1.2869863e-12
1.2899298e-12
1.2899186e-12
1.286954e-12
1.2605884e-12
1.1592021e-12
9.062543e-13
4.9152849e-13
1.2219822e-13
5.6527573e-15
4.2344131e-18
1.1223046e-24
6.862703e-26
6.5219531e-19
1.1485792e-15
2.8013204e-14
1.1928776e-13
2.261511e-13
2.9330948e-13
3.2121171e-13
3.2909608e-13
3.3034717e-13
3.3034416e-13
3.2908733e-13
3.2119911e-13
2.9329546e-13
2.261393e-13
1.1928228e-13
2.8012128e-14
1.1485518e-15
6.5214971e-19
6.338064e-26
3.7897733e-27
9.9146645e-20
2.2929685e-16
6.2996239e-15
2.837887e-14
5.5302037e-14
7.2709186e-14
8.0176365e-14
8.2429208e-14
8.286309e-14
8.2862293e-14
8.2426895e-14
8.0173016e-14
7.2705442e-14
5.5298877e-14
2.8377403e-14
6.2993435e-15
2.2928991e-16
9.9141031e-20
3.4623268e-27
2.0845168e-28
1.4870671e-20
4.4979658e-17
1.3901197e-15
6.6208583e-15
1.325742e-14
1.7665812e-14
1.961195e-14
2.0230941e-14
2.0365967e-14
2.0365761e-14
2.0230342e-14
1.9611079e-14
1.7664834e-14
1.3256595e-14
6.6204747e-15
1.3900485e-15
4.4977968e-17
1.4869898e-20
1.8909103e-28
)
;

boundaryField
{
    Wall
    {
        type            zeroGradient;
    }
    frontAndBack
    {
        type            empty;
    }
    atmosphere
    {
        type            zeroGradient;
    }
}


// ************************************************************************* //
