/*--------------------------------*- C++ -*----------------------------------*\
| =========                 |                                                 |
| \\      /  F ield         | OpenFOAM: The Open Source CFD Toolbox           |
|  \\    /   O peration     | Version:  3.0.1                                 |
|   \\  /    A nd           | Web:      www.OpenFOAM.org                      |
|    \\/     M anipulation  |                                                 |
\*---------------------------------------------------------------------------*/
FoamFile
{
    version     2.0;
    format      ascii;
    class       volScalarField;
    location    "19";
    object      M3;
}
// * * * * * * * * * * * * * * * * * * * * * * * * * * * * * * * * * * * * * //

dimensions      [0 0 0 0 0 0 0];

internalField   nonuniform List<scalar> 
800
(
3.1551395e-25
3.1553997e-25
3.1554027e-25
3.155389e-25
3.155378e-25
3.1553694e-25
3.1553631e-25
3.1553586e-25
3.1553558e-25
3.1553543e-25
3.1553543e-25
3.1553558e-25
3.1553586e-25
3.1553631e-25
3.1553694e-25
3.155378e-25
3.1553891e-25
3.1554027e-25
3.1553997e-25
3.1551395e-25
2.8260478e-25
2.8364294e-25
2.8376518e-25
2.8377448e-25
2.8377316e-25
2.8377797e-25
2.8378595e-25
2.8379374e-25
2.8379949e-25
2.8380247e-25
2.8380248e-25
2.8379949e-25
2.8379374e-25
2.8378595e-25
2.8377797e-25
2.8377317e-25
2.8377449e-25
2.8376519e-25
2.8364295e-25
2.8260477e-25
2.691306e-25
2.7027834e-25
2.7077859e-25
2.708089e-25
2.7081833e-25
2.7083267e-25
2.7084919e-25
2.7086375e-25
2.708741e-25
2.7087941e-25
2.7087941e-25
2.708741e-25
2.7086375e-25
2.708492e-25
2.7083268e-25
2.7081834e-25
2.7080892e-25
2.7077861e-25
2.7027835e-25
2.691306e-25
2.6131632e-25
2.6289509e-25
2.6364858e-25
2.6368705e-25
2.6370247e-25
2.637232e-25
2.6374619e-25
2.637662e-25
2.6378033e-25
2.6378758e-25
2.6378758e-25
2.6378033e-25
2.637662e-25
2.637462e-25
2.6372321e-25
2.6370248e-25
2.6368707e-25
2.636486e-25
2.628951e-25
2.6131632e-25
2.4489156e-25
2.472222e-25
2.4811496e-25
2.4879024e-25
2.4881111e-25
2.4883838e-25
2.4886844e-25
2.4889437e-25
2.4891265e-25
2.4892201e-25
2.4892201e-25
2.4891265e-25
2.4889437e-25
2.4886844e-25
2.4883838e-25
2.4881112e-25
2.4879025e-25
2.4811497e-25
2.4722221e-25
2.4489154e-25
2.1029234e-25
2.1395344e-25
2.1489789e-25
2.1563659e-25
2.1567725e-25
2.157213e-25
2.1576334e-25
2.1579732e-25
2.1582055e-25
2.1583225e-25
2.1583225e-25
2.1582055e-25
2.1579731e-25
2.1576333e-25
2.157213e-25
2.1567724e-25
2.1563659e-25
2.1489789e-25
2.1395344e-25
2.1029231e-25
1.7096553e-25
1.7426536e-25
1.7513145e-25
1.7567767e-25
1.7575726e-25
1.7582823e-25
1.7588589e-25
1.7592855e-25
1.7595625e-25
1.7596989e-25
1.7596988e-25
1.7595624e-25
1.7592853e-25
1.7588587e-25
1.7582821e-25
1.7575725e-25
1.7567766e-25
1.7513144e-25
1.7426535e-25
1.7096549e-25
1.3016765e-25
1.3381254e-25
1.3489065e-25
1.3527431e-25
1.3539526e-25
1.3549106e-25
1.355611e-25
1.3560967e-25
1.356398e-25
1.3565441e-25
1.3565441e-25
1.3563979e-25
1.3560965e-25
1.3556108e-25
1.3549104e-25
1.3539524e-25
1.3527429e-25
1.3489063e-25
1.3381252e-25
1.3016762e-25
8.0948009e-26
8.5377601e-26
8.7044282e-26
8.7327277e-26
8.7461283e-26
8.7558672e-26
8.7624766e-26
8.7668607e-26
8.7694751e-26
8.7707368e-26
8.7707366e-26
8.7694741e-26
8.7668592e-26
8.7624748e-26
8.7558654e-26
8.7461265e-26
8.7327258e-26
8.7044268e-26
8.5377585e-26
8.0947982e-26
4.0891308e-26
4.3634535e-26
4.4696691e-26
4.4890652e-26
4.4997585e-26
4.5068701e-26
4.5113688e-26
4.5141799e-26
4.5157732e-26
4.5165305e-26
4.5165303e-26
4.5157726e-26
4.514179e-26
4.5113678e-26
4.5068691e-26
4.4997576e-26
4.4890644e-26
4.4696686e-26
4.3634531e-26
4.0891298e-26
1.7801519e-26
1.9810247e-26
2.0438914e-26
2.0538001e-26
2.0576614e-26
2.0601316e-26
2.0616941e-26
2.0626459e-26
2.0631532e-26
2.063378e-26
2.0633779e-26
2.0631529e-26
2.0626455e-26
2.0616936e-26
2.0601312e-26
2.057661e-26
2.0537998e-26
2.0438913e-26
1.9810248e-26
1.7801519e-26
5.7520609e-27
7.8460768e-27
8.3874755e-27
8.4462764e-27
8.4171454e-27
8.3838906e-27
8.3592765e-27
8.3429765e-27
8.3330249e-27
8.3281186e-27
8.3281179e-27
8.3330232e-27
8.3429738e-27
8.3592737e-27
8.3838884e-27
8.4171443e-27
8.4462751e-27
8.3874758e-27
7.8460784e-27
5.7520646e-27
1.2225765e-27
2.6183136e-27
3.0853638e-27
3.1734213e-27
3.1517579e-27
3.109973e-27
3.0731669e-27
3.0464523e-27
3.0295431e-27
3.021235e-27
3.0212345e-27
3.0295418e-27
3.0464505e-27
3.0731651e-27
3.1099718e-27
3.1517573e-27
3.1734209e-27
3.085364e-27
2.6183144e-27
1.2225778e-27
1.7728988e-28
7.3310684e-28
1.0127289e-27
1.0938692e-27
1.0949956e-27
1.0727131e-27
1.048539e-27
1.0293354e-27
1.0166184e-27
1.0102635e-27
1.0102632e-27
1.0166177e-27
1.0293344e-27
1.048538e-27
1.0727124e-27
1.0949953e-27
1.093869e-27
1.0127289e-27
7.3310708e-28
1.7729005e-28
1.9307038e-29
1.7519584e-28
2.9818495e-28
3.4717326e-28
3.553884e-28
3.4799172e-28
3.3713638e-28
3.2765143e-28
3.2108869e-28
3.1774921e-28
3.1774907e-28
3.2108831e-28
3.276509e-28
3.3713586e-28
3.4799137e-28
3.5538823e-28
3.4717319e-28
2.9818495e-28
1.7519588e-28
1.9307049e-29
1.7154751e-30
3.6544987e-29
7.9498958e-29
1.0189586e-28
1.0811777e-28
1.0668177e-28
1.0287015e-28
9.9149141e-29
9.6457537e-29
9.5063358e-29
9.5063298e-29
9.6457365e-29
9.914891e-29
1.0286993e-28
1.0668161e-28
1.0811769e-28
1.0189584e-28
7.9498959e-29
3.6545e-29
1.7154757e-30
1.318402e-31
6.7970191e-30
1.9379166e-29
2.7783374e-29
3.0897544e-29
3.0956043e-29
2.985329e-29
2.8613586e-29
2.7672906e-29
2.7176755e-29
2.7176733e-29
2.767284e-29
2.8613498e-29
2.9853201e-29
3.0955978e-29
3.0897512e-29
2.7783369e-29
1.9379167e-29
6.7970229e-30
1.3184026e-31
9.1058958e-33
1.1475819e-30
4.3574747e-30
7.0689859e-30
8.3096157e-30
8.5068059e-30
8.2413102e-30
7.87818e-30
7.5873552e-30
7.4309755e-30
7.4309678e-30
7.5873321e-30
7.878149e-30
8.2412789e-30
8.5067823e-30
8.3096045e-30
7.0689853e-30
4.357476e-30
1.147583e-30
9.1059049e-33
5.7892869e-34
1.783611e-31
9.1063892e-31
1.685175e-30
2.1069521e-30
2.2147265e-30
2.1634589e-30
2.0681661e-30
1.9868799e-30
1.9422375e-30
1.9422352e-30
1.9868725e-30
2.0681561e-30
2.163449e-30
2.214719e-30
2.1069486e-30
1.6851752e-30
9.1063956e-31
1.7836136e-31
5.7892975e-34
3.4383853e-35
2.5786183e-32
1.779842e-31
3.7776964e-31
5.0458946e-31
5.4656948e-31
5.399277e-31
5.1730247e-31
4.9648345e-31
4.8477703e-31
4.8477634e-31
4.9648127e-31
5.1729956e-31
5.3992481e-31
5.4656731e-31
5.0458855e-31
3.7776975e-31
1.7798442e-31
2.5786242e-32
3.4383947e-35
1.9250907e-36
3.4940199e-33
3.2698219e-32
7.9887922e-32
1.1434536e-31
1.2796182e-31
1.2810724e-31
1.232288e-31
1.1829895e-31
1.154524e-31
1.1545221e-31
1.1829836e-31
1.2322801e-31
1.2810646e-31
1.2796125e-31
1.1434514e-31
7.9887968e-32
3.2698283e-32
3.4940313e-33
1.9250975e-36
1.0218559e-37
4.4615464e-34
5.6690561e-33
1.5980743e-32
2.4561768e-32
2.8447648e-32
2.8908009e-32
2.7954652e-32
2.6868672e-32
2.622247e-32
2.6222421e-32
2.6868524e-32
2.7954452e-32
2.8907813e-32
2.8447512e-32
2.456172e-32
1.598076e-32
5.6690725e-33
4.4615662e-34
1.0218605e-37
5.1614906e-39
5.390131e-35
9.3051331e-34
3.0310813e-33
5.0094214e-33
6.0119993e-33
6.2078068e-33
6.0406129e-33
5.8170839e-33
5.6794318e-33
5.67942e-33
5.8170494e-33
6.0405658e-33
6.2077611e-33
6.0119687e-33
5.009412e-33
3.0310861e-33
9.3051702e-34
5.3901618e-35
5.1615193e-39
2.4870925e-40
6.1796389e-36
1.44967e-34
5.4621503e-34
9.7158704e-34
1.2092061e-33
1.2696454e-33
1.2439918e-33
1.2008684e-33
1.1732446e-33
1.173242e-33
1.2008607e-33
1.2439813e-33
1.2696352e-33
1.2091996e-33
9.7158535e-34
5.462163e-34
1.4496775e-34
6.1796838e-36
2.4871101e-40
1.1452683e-41
6.7387221e-37
2.1481125e-35
9.3682367e-35
1.7946122e-34
2.3173802e-34
2.475412e-34
2.4432446e-34
2.3651117e-34
2.3127238e-34
2.3127183e-34
2.3650956e-34
2.4432226e-34
2.4753909e-34
2.3173672e-34
1.7946095e-34
9.3682661e-35
2.1481267e-35
6.7387827e-37
1.1452784e-41
5.0465263e-43
7.0023302e-38
3.0327924e-36
1.5316052e-35
3.1610592e-35
4.236489e-35
4.6052459e-35
4.5801666e-35
4.447082e-35
4.3529539e-35
4.3529426e-35
4.4470499e-35
4.5801227e-35
4.6052043e-35
4.2364643e-35
3.1610552e-35
1.5316114e-35
3.0328171e-36
7.0024064e-38
5.0465804e-43
2.1300866e-44
6.9441575e-39
4.0857458e-37
2.3901199e-36
5.316173e-36
7.3961159e-36
8.1832023e-36
8.2023411e-36
7.9892572e-36
7.8287039e-36
7.8286821e-36
7.9891963e-36
8.2022577e-36
8.1831246e-36
7.3960711e-36
5.3161679e-36
2.3901318e-36
4.085786e-37
6.9442464e-39
2.1301142e-44
8.6197382e-46
6.5807072e-40
5.2590251e-38
3.5645385e-37
8.5459285e-37
1.2343659e-36
1.3902023e-36
1.4045043e-36
1.3724805e-36
1.3464417e-36
1.3464378e-36
1.3724695e-36
1.4044893e-36
1.3901883e-36
1.2343582e-36
8.5459223e-37
3.5645595e-37
5.2590857e-38
6.5808049e-40
8.6198708e-46
3.3466228e-47
5.9661749e-41
6.4750613e-39
5.0859803e-38
1.3145145e-37
1.9713158e-37
2.2600801e-37
2.3015597e-37
2.2565345e-37
2.2163317e-37
2.2163248e-37
2.2565155e-37
2.3015335e-37
2.2600562e-37
1.9713029e-37
1.3145136e-37
5.0860145e-38
6.4751466e-39
5.9662757e-41
3.3466825e-47
1.3801272e-48
5.1800363e-42
7.6337636e-40
6.9497704e-39
1.9365905e-38
3.0154107e-38
3.5192689e-38
3.6125406e-38
3.5536893e-38
3.4945435e-38
3.4945317e-38
3.5536579e-38
3.6124971e-38
3.5192293e-38
3.0153898e-38
1.9365891e-38
6.9498218e-39
7.6338752e-40
5.1801348e-42
1.3790346e-48
1.0129072e-49
4.3110925e-43
8.6258793e-41
9.1032084e-40
2.7350765e-39
4.4217962e-39
5.2533823e-39
5.4357657e-39
5.3650919e-39
5.2821264e-39
5.2821072e-39
5.3650419e-39
5.4356968e-39
5.2533195e-39
4.4217633e-39
2.7350743e-39
9.1032796e-40
8.6260174e-41
4.3111834e-43
1.0180597e-49
1.8613124e-50
3.4421949e-44
9.3502129e-42
1.1439929e-40
3.7062073e-40
6.221236e-40
7.5238842e-40
7.847284e-40
7.771117e-40
7.6601145e-40
7.6600848e-40
7.7710406e-40
7.8471793e-40
7.5237889e-40
6.2211861e-40
3.7062033e-40
1.1440022e-40
9.3503738e-42
3.4422753e-44
1.8790774e-50
1.917157e-51
2.6390057e-45
9.7308725e-43
1.380418e-41
4.8224425e-41
8.4047675e-41
1.0346757e-40
1.0877473e-40
1.0807737e-40
1.0666075e-40
1.0666032e-40
1.0807626e-40
1.087732e-40
1.0346618e-40
8.4046946e-41
4.8224352e-41
1.3804296e-41
9.7310502e-43
2.6390705e-45
1.9230139e-51
1.4031889e-52
1.9443879e-46
9.7304295e-44
1.6006271e-42
6.0299229e-42
1.0911245e-41
1.3672647e-41
1.4488124e-41
1.4442921e-41
1.4270521e-41
1.4270462e-41
1.4442764e-41
1.4487909e-41
1.3672451e-41
1.0911141e-41
6.0299101e-42
1.6006405e-42
9.7306142e-44
1.9444025e-46
1.3926395e-52
7.8770898e-54
1.3775222e-47
9.3558202e-45
1.7847536e-43
7.2506607e-43
1.3621826e-42
1.737399e-42
1.8555964e-42
1.8559025e-42
1.8359096e-42
1.8359015e-42
1.8558813e-42
1.8555673e-42
1.7373724e-42
1.3621683e-42
7.2506386e-43
1.7847679e-43
9.356002e-45
1.3774988e-47
7.7840421e-54
3.0004708e-55
9.3887535e-49
8.6557438e-46
1.915029e-44
8.390021e-44
1.6364661e-43
2.1244356e-43
2.286865e-43
2.2947387e-43
2.2726725e-43
2.272662e-43
2.2947111e-43
2.2868268e-43
2.1244009e-43
1.6364471e-43
8.3899863e-44
1.9150431e-44
8.6559123e-46
9.3885691e-49
2.8721443e-55
8.8126659e-57
6.1610652e-50
7.7105864e-47
1.9786426e-45
9.3487308e-45
1.8931017e-44
2.5013221e-44
2.7137406e-44
2.7319615e-44
2.7088303e-44
2.7088174e-44
2.731927e-44
2.7136925e-44
2.5012783e-44
1.8930771e-44
9.3486797e-45
1.9786552e-45
7.7107326e-47
6.1609421e-50
8.3808703e-57
2.1878259e-58
3.8951731e-51
6.6176677e-48
1.9698201e-46
1.0037318e-45
2.1101222e-45
2.8375911e-45
3.1026982e-45
3.1336603e-45
3.110706e-45
3.1106908e-45
3.1336188e-45
3.1026399e-45
2.8375377e-45
2.1100913e-45
1.0037247e-45
1.9698296e-46
6.6177859e-48
3.8951206e-51
2.0599808e-58
4.7303048e-60
2.374074e-52
5.4754306e-49
1.8906568e-47
1.0390034e-46
2.2676032e-46
3.1034435e-46
3.4199073e-46
3.4651799e-46
3.4437296e-46
3.443712e-46
3.4651319e-46
3.4198393e-46
3.1033805e-46
2.2675657e-46
1.0389939e-46
1.890662e-47
5.4755194e-49
2.3740693e-52
4.3385535e-60
9.7087612e-62
1.3957545e-53
4.3699551e-50
1.7505465e-48
1.0375222e-47
2.3507115e-47
3.2741558e-47
3.636142e-47
3.6961083e-47
3.6773983e-47
3.6773788e-47
3.6960546e-47
3.6360654e-47
3.2740839e-47
2.3506677e-47
1.0375102e-47
1.7505469e-48
4.3700155e-50
1.3957651e-53
8.6922728e-62
)
;

boundaryField
{
    Wall
    {
        type            zeroGradient;
    }
    frontAndBack
    {
        type            empty;
    }
    atmosphere
    {
        type            zeroGradient;
    }
}


// ************************************************************************* //
