/*--------------------------------*- C++ -*----------------------------------*\
| =========                 |                                                 |
| \\      /  F ield         | OpenFOAM: The Open Source CFD Toolbox           |
|  \\    /   O peration     | Version:  3.0.1                                 |
|   \\  /    A nd           | Web:      www.OpenFOAM.org                      |
|    \\/     M anipulation  |                                                 |
\*---------------------------------------------------------------------------*/
FoamFile
{
    version     2.0;
    format      ascii;
    class       volScalarField;
    location    "19";
    object      mOne;
}
// * * * * * * * * * * * * * * * * * * * * * * * * * * * * * * * * * * * * * //

dimensions      [0 0 0 0 0 0 0];

internalField   nonuniform List<scalar> 
800
(
6.2969404
6.2971223
6.2971115
6.2970932
6.2970788
6.2970675
6.2970592
6.2970532
6.2970494
6.2970474
6.2970475
6.2970494
6.2970532
6.2970592
6.2970675
6.2970788
6.2970932
6.2971115
6.2971223
6.2969404
5.945409
5.9566353
5.9579227
5.9580552
5.9580761
5.9581506
5.95825
5.9583416
5.9584077
5.9584418
5.9584418
5.9584077
5.9583416
5.95825
5.9581506
5.9580761
5.9580553
5.9579228
5.9566354
5.945409
5.5824344
5.5971565
5.6026805
5.6030865
5.603197
5.603358
5.6035455
5.6037125
5.6038322
5.6038941
5.6038941
5.6038322
5.6037125
5.6035455
5.6033581
5.603197
5.6030867
5.6026806
5.5971566
5.5824343
5.1571354
5.1791078
5.1870365
5.1874119
5.1875329
5.1877248
5.1879614
5.1881758
5.1883299
5.18841
5.18841
5.1883299
5.1881757
5.1879614
5.1877248
5.187533
5.187412
5.1870366
5.1791078
5.1571352
4.5907142
4.6233548
4.6324357
4.638235
4.6383889
4.6386287
4.6389186
4.639176
4.6393593
4.6394539
4.6394539
4.6393593
4.639176
4.6389186
4.6386288
4.6383889
4.6382351
4.6324358
4.6233548
4.590714
3.8418318
3.8912506
3.9011341
3.90735
3.9077898
3.9082359
3.9086471
3.9089688
3.9091871
3.9092964
3.9092964
3.9091871
3.9089688
3.9086471
3.9082359
3.9077898
3.9073501
3.9011342
3.8912506
3.8418315
3.039247
3.0935346
3.1045512
3.1096864
3.1107339
3.1115258
3.1121098
3.1125058
3.1127547
3.112873
3.112873
3.1127547
3.1125057
3.1121097
3.1115258
3.1107339
3.1096865
3.1045513
3.0935347
3.0392468
2.2203829
2.2828547
2.2987075
2.3032689
2.3049478
2.3060355
2.30673
2.3071617
2.3074128
2.3075262
2.3075262
2.3074128
2.3071616
2.3067299
2.3060355
2.3049478
2.303269
2.2987076
2.2828549
2.2203829
1.3974227
1.4639279
1.485937
1.49015
1.4919567
1.4929673
1.4935331
1.493861
1.4940351
1.494109
1.494109
1.494035
1.4938609
1.493533
1.4929673
1.4919567
1.4901501
1.4859371
1.463928
1.3974228
0.77510807
0.82769049
0.84618807
0.85015277
0.85141467
0.85185091
0.85198567
0.85202625
0.85202493
0.85201277
0.85201275
0.85202488
0.85202617
0.85198562
0.85185095
0.85141478
0.85015292
0.84618826
0.82769075
0.7751083
0.38082948
0.4349823
0.45456202
0.45888043
0.45916773
0.45859372
0.45799768
0.45757234
0.45730237
0.45716132
0.45716129
0.45730232
0.45757225
0.45799765
0.45859376
0.45916783
0.45888057
0.45456219
0.43498253
0.38082975
0.14777797
0.21155305
0.23404206
0.23950064
0.23921974
0.23760913
0.23609744
0.2350229
0.23435792
0.2340282
0.23402816
0.23435786
0.2350228
0.23609739
0.23760915
0.23921981
0.23950073
0.23404217
0.2115532
0.14777817
0.041773455
0.093160837
0.11482364
0.12145061
0.12179052
0.12017789
0.1183929
0.11701744
0.11613171
0.11569088
0.11569085
0.11613165
0.11701734
0.11839284
0.12017788
0.12179055
0.12145067
0.1148237
0.093160911
0.041773524
0.0087220608
0.036799786
0.052992036
0.059241234
0.060305299
0.059347014
0.057953736
0.056773726
0.055977202
0.055573852
0.055573825
0.055977146
0.056773643
0.057953679
0.059346995
0.060305307
0.059241263
0.052992059
0.036799814
0.0087220749
0.0014224837
0.013030537
0.022875535
0.027585418
0.028845945
0.028492518
0.027649878
0.026857301
0.026296594
0.026007184
0.026007164
0.026296551
0.026857239
0.027649831
0.028492496
0.028845943
0.027585432
0.022875543
0.013030545
0.0014224856
0.00019311514
0.0041606468
0.009232615
0.012220166
0.013267228
0.013241865
0.01281884
0.012368466
0.012034378
0.011858682
0.011858669
0.01203435
0.012368423
0.012818808
0.013241847
0.013267222
0.012220171
0.0092326177
0.0041606494
0.00019311538
2.3006033e-05
0.0012113104
0.0034936763
0.0051483419
0.0058545506
0.0059400345
0.0057592585
0.0055336373
0.0053576644
0.0052633891
0.0052633815
0.0053576472
0.0055336117
0.0057592378
0.0059400222
0.0058545448
0.0051483444
0.0034936773
0.0012113112
2.3006069e-05
2.4951077e-06
0.0003257382
0.0012452844
0.0020660286
0.0024779193
0.002568212
0.0025029721
0.0024009919
0.0023169038
0.0022709904
0.0022709861
0.0023168943
0.0024009775
0.0025029603
0.0025682044
0.0024779152
0.0020660296
0.0012452849
0.00032573845
2.4951136e-06
2.5221098e-07
8.1883404e-05
0.00042036272
0.0007917915
0.0010067915
0.0010699415
0.0010513126
0.0010091733
0.00097211974
0.0009514754
0.00095147326
0.0009721148
0.0010091658
0.0010513063
0.0010699373
0.0010067891
0.00079179186
0.00042036303
8.1883495e-05
2.5221189e-07
2.4109526e-08
1.9431194e-05
0.00013510132
0.00029066153
0.00039329358
0.00042973994
0.00042671845
0.00041069529
0.00039547455
0.00038680506
0.00038680404
0.00039547216
0.00041069164
0.00042671532
0.00042973787
0.00039329233
0.00029066163
0.00013510147
1.9431225e-05
2.4109647e-08
2.1992756e-09
4.3863496e-06
4.1540556e-05
0.000102511
0.00014798517
0.00016657483
0.00016744557
0.00016183351
0.00015596203
0.00015253396
0.00015253349
0.00015596094
0.00016183184
0.00016744411
0.00016657387
0.00014798457
0.00010251102
4.1540624e-05
4.3863594e-06
2.1992898e-09
1.9253622e-10
9.4750194e-07
1.2271324e-05
3.4832668e-05
5.373768e-05
6.2391842e-05
6.3573629e-05
6.1773503e-05
5.9635985e-05
5.835209e-05
5.8351891e-05
5.9635513e-05
6.1772776e-05
6.3572981e-05
6.2391412e-05
5.373741e-05
3.4832667e-05
1.2271351e-05
9.4750477e-07
1.925378e-10
1.6237291e-11
1.9677333e-07
3.4953335e-06
1.1432769e-05
1.8867501e-05
2.261342e-05
2.3377219e-05
2.2857535e-05
2.2120922e-05
2.1663521e-05
2.1663441e-05
2.2120726e-05
2.2857235e-05
2.3376945e-05
2.2613237e-05
1.8867387e-05
1.1432764e-05
3.4953437e-06
1.9677407e-07
1.6237459e-11
1.3225626e-12
3.9440079e-08
9.6297402e-07
3.6329444e-06
6.4163771e-06
7.9420863e-06
8.3350034e-06
8.2059359e-06
7.9653369e-06
7.8098529e-06
7.8098218e-06
7.9652586e-06
8.2058169e-06
8.3348927e-06
7.9420121e-06
6.4163317e-06
3.6329411e-06
9.6297741e-07
3.9440264e-08
1.3225797e-12
1.0424962e-13
7.6548809e-09
2.5729832e-07
1.1199186e-06
2.1169296e-06
2.7065756e-06
2.8847525e-06
2.8609385e-06
2.7864992e-06
2.7359652e-06
2.7359535e-06
2.7864691e-06
2.8608933e-06
2.8847096e-06
2.7065463e-06
2.1169122e-06
1.1199169e-06
2.5729938e-07
7.6549237e-09
1.0425128e-13
7.9651694e-15
1.4429884e-09
6.6829967e-08
3.3550912e-07
6.7857213e-07
8.9613174e-07
9.7023924e-07
9.6958363e-07
9.4783562e-07
9.3211483e-07
9.3211056e-07
9.4782442e-07
9.6956702e-07
9.7022318e-07
8.9612058e-07
6.7856573e-07
3.3550832e-07
6.6830276e-08
1.4429978e-09
7.9653212e-15
5.9077478e-16
2.6491425e-10
1.6908378e-08
9.7832625e-08
2.116032e-07
2.8859746e-07
3.1744265e-07
3.1971225e-07
3.1375371e-07
3.0907178e-07
3.0907028e-07
3.1374969e-07
3.1970635e-07
3.1743684e-07
2.8859334e-07
2.1160092e-07
9.783229e-08
1.6908462e-08
2.6491616e-10
5.9078805e-16
4.2598558e-17
4.748785e-11
4.1744182e-09
2.7803949e-08
6.4266326e-08
9.0497437e-08
1.0113011e-07
1.0266131e-07
1.0115156e-07
9.9817972e-08
9.9817461e-08
1.0115016e-07
1.0265927e-07
1.0112806e-07
9.0495959e-08
6.4265537e-08
2.7803818e-08
4.1744388e-09
4.7488218e-11
4.2599663e-17
2.9908432e-18
8.3317548e-12
1.0071888e-09
7.7103406e-09
1.9029093e-08
2.7657285e-08
3.1397749e-08
3.2127296e-08
3.1783877e-08
3.1421449e-08
3.1421279e-08
3.1783404e-08
3.2126611e-08
3.139705e-08
2.7656768e-08
1.9028826e-08
7.7102921e-09
1.0071934e-09
8.3318213e-12
2.9909306e-18
3.0147286e-19
1.4339164e-12
2.3779422e-10
2.0883968e-09
5.4980691e-09
8.244683e-09
9.5072752e-09
9.8056552e-09
9.7406549e-09
9.6471078e-09
9.6470519e-09
9.740499e-09
9.8054315e-09
9.5070424e-09
8.2445072e-09
5.4979806e-09
2.0883796e-09
2.3779507e-10
1.4339276e-12
3.0066071e-19
8.7477723e-20
2.4254723e-13
5.4995149e-11
5.5295314e-10
1.5513009e-09
2.3991141e-09
2.8096698e-09
2.9207857e-09
2.913313e-09
2.8905698e-09
2.890552e-09
2.913263e-09
2.9207144e-09
2.8095943e-09
2.3990558e-09
1.5512723e-09
5.5294726e-10
5.499527e-11
2.4254897e-13
8.8505502e-20
4.270106e-20
4.0391008e-14
1.2469452e-11
1.4322096e-10
4.2773081e-10
6.8190897e-10
8.1090113e-10
8.4957611e-10
8.5084612e-10
8.4571801e-10
8.4571248e-10
8.5083048e-10
8.4955392e-10
8.1087732e-10
6.8189021e-10
4.2772179e-10
1.4321905e-10
1.2469455e-11
4.0391295e-14
4.2790147e-20
9.949704e-21
6.6313317e-15
2.7736795e-12
3.6310057e-11
1.1531707e-10
1.8943341e-10
2.2868615e-10
2.4144627e-10
2.4277654e-10
2.4173819e-10
2.4173653e-10
2.4277177e-10
2.4143952e-10
2.2867883e-10
1.8942754e-10
1.1531428e-10
3.6309464e-11
2.7736734e-12
6.6313536e-15
9.9159889e-21
1.6667128e-21
1.0746092e-15
6.0557369e-13
9.0150631e-12
3.041558e-11
5.1460341e-11
6.305155e-11
6.7076685e-11
6.7711825e-11
6.7538133e-11
6.753764e-11
6.7710405e-11
6.7074677e-11
6.3049352e-11
5.1458553e-11
3.041474e-11
9.0148847e-12
6.055705e-13
1.0745613e-15
1.6381863e-21
2.1614709e-22
1.7192086e-16
1.2981871e-13
2.1929035e-12
7.8520952e-12
1.3676837e-11
1.7003688e-11
1.8224593e-11
1.8468072e-11
1.8451487e-11
1.8451344e-11
1.846766e-11
1.8224008e-11
1.7003045e-11
1.3676308e-11
7.8518475e-12
2.1928515e-12
1.2981756e-13
1.7190254e-16
2.1174239e-22
1.8956271e-23
2.7151692e-17
2.7332448e-14
5.2280734e-13
1.9849556e-12
3.5578759e-12
4.4872067e-12
4.8447326e-12
4.9279337e-12
4.931483e-12
4.9314425e-12
4.9278171e-12
4.8445662e-12
4.4870229e-12
3.557723e-12
1.9848844e-12
5.2279266e-13
2.733209e-14
2.7148741e-17
1.7913323e-23
1.1998841e-24
4.2347973e-18
5.6528595e-15
1.2220225e-13
4.9154848e-13
9.062973e-13
1.1592534e-12
1.2606347e-12
1.2869863e-12
1.2899298e-12
1.2899186e-12
1.286954e-12
1.2605884e-12
1.1592021e-12
9.062543e-13
4.9152849e-13
1.2219822e-13
5.6527573e-15
4.2344131e-18
1.1223046e-24
6.862703e-26
6.5219531e-19
1.1485792e-15
2.8013204e-14
1.1928776e-13
2.261511e-13
2.9330948e-13
3.2121171e-13
3.2909608e-13
3.3034717e-13
3.3034416e-13
3.2908733e-13
3.2119911e-13
2.9329546e-13
2.261393e-13
1.1928228e-13
2.8012128e-14
1.1485518e-15
6.5214971e-19
6.338064e-26
3.7897733e-27
9.9146645e-20
2.2929685e-16
6.2996239e-15
2.837887e-14
5.5302037e-14
7.2709186e-14
8.0176365e-14
8.2429208e-14
8.286309e-14
8.2862293e-14
8.2426895e-14
8.0173016e-14
7.2705442e-14
5.5298877e-14
2.8377403e-14
6.2993435e-15
2.2928991e-16
9.9141031e-20
3.4623268e-27
2.0845168e-28
1.4870671e-20
4.4979658e-17
1.3901197e-15
6.6208583e-15
1.325742e-14
1.7665812e-14
1.961195e-14
2.0230941e-14
2.0365967e-14
2.0365761e-14
2.0230342e-14
1.9611079e-14
1.7664834e-14
1.3256595e-14
6.6204747e-15
1.3900485e-15
4.4977968e-17
1.4869898e-20
1.8909103e-28
)
;

boundaryField
{
    Wall
    {
        type            zeroGradient;
    }
    frontAndBack
    {
        type            empty;
    }
    atmosphere
    {
        type            zeroGradient;
    }
}


// ************************************************************************* //
