/*--------------------------------*- C++ -*----------------------------------*\
| =========                 |                                                 |
| \\      /  F ield         | OpenFOAM: The Open Source CFD Toolbox           |
|  \\    /   O peration     | Version:  3.0.1                                 |
|   \\  /    A nd           | Web:      www.OpenFOAM.org                      |
|    \\/     M anipulation  |                                                 |
\*---------------------------------------------------------------------------*/
FoamFile
{
    version     2.0;
    format      ascii;
    class       volScalarField;
    location    "19";
    object      mThree;
}
// * * * * * * * * * * * * * * * * * * * * * * * * * * * * * * * * * * * * * //

dimensions      [0 0 0 0 0 0 0];

internalField   nonuniform List<scalar> 
800
(
2.3022865e-24
2.3025337e-24
2.3025325e-24
2.3025168e-24
2.3025042e-24
2.3024943e-24
2.3024871e-24
2.302482e-24
2.3024787e-24
2.302477e-24
2.302477e-24
2.3024787e-24
2.302482e-24
2.3024871e-24
2.3024944e-24
2.3025042e-24
2.3025168e-24
2.3025326e-24
2.3025337e-24
2.3022865e-24
1.9628058e-24
1.9732005e-24
1.9744162e-24
1.9745185e-24
1.9745152e-24
1.9745698e-24
1.9746535e-24
1.9747338e-24
1.9747925e-24
1.974823e-24
1.974823e-24
1.9747925e-24
1.9747338e-24
1.9746536e-24
1.9745699e-24
1.9745153e-24
1.9745186e-24
1.9744163e-24
1.9732006e-24
1.9628057e-24
1.7715345e-24
1.7830685e-24
1.7878645e-24
1.7881746e-24
1.7882668e-24
1.7884051e-24
1.7885649e-24
1.7887064e-24
1.7888071e-24
1.7888589e-24
1.7888589e-24
1.7888071e-24
1.7887063e-24
1.788565e-24
1.7884051e-24
1.7882669e-24
1.7881748e-24
1.7878647e-24
1.7830686e-24
1.7715345e-24
1.60896e-24
1.6244571e-24
1.6312034e-24
1.6315404e-24
1.6316677e-24
1.6318466e-24
1.6320513e-24
1.6322316e-24
1.6323597e-24
1.6324257e-24
1.6324257e-24
1.6323597e-24
1.6322316e-24
1.6320513e-24
1.6318467e-24
1.6316678e-24
1.6315405e-24
1.6312035e-24
1.6244572e-24
1.6089599e-24
1.3691187e-24
1.3902182e-24
1.3974916e-24
1.4027379e-24
1.4028938e-24
1.4031072e-24
1.4033489e-24
1.4035592e-24
1.4037079e-24
1.4037842e-24
1.4037842e-24
1.4037079e-24
1.4035591e-24
1.4033489e-24
1.4031072e-24
1.4028938e-24
1.4027379e-24
1.3974916e-24
1.3902182e-24
1.3691186e-24
1.0182001e-24
1.0464999e-24
1.0532434e-24
1.0582042e-24
1.0584986e-24
1.058811e-24
1.0591061e-24
1.0593423e-24
1.0595035e-24
1.0595845e-24
1.0595845e-24
1.0595034e-24
1.0593423e-24
1.0591061e-24
1.058811e-24
1.0584986e-24
1.0582042e-24
1.0532434e-24
1.0464999e-24
1.0182e-24
6.90572e-25
7.133613e-25
7.1883602e-25
7.2198013e-25
7.2249133e-25
7.2292229e-25
7.2326209e-25
7.2350717e-25
7.236649e-25
7.237418e-25
7.2374179e-25
7.2366485e-25
7.235071e-25
7.2326201e-25
7.2292223e-25
7.2249128e-25
7.2198009e-25
7.1883599e-25
7.1336124e-25
6.9057183e-25
4.1918969e-25
4.3928713e-25
4.4496479e-25
4.4684743e-25
4.4747427e-25
4.4793825e-25
4.4826394e-25
4.4848311e-25
4.4861681e-25
4.4868052e-25
4.4868051e-25
4.4861676e-25
4.4848304e-25
4.4826386e-25
4.4793818e-25
4.474742e-25
4.4684738e-25
4.4496476e-25
4.3928708e-25
4.1918957e-25
1.940666e-25
2.1036425e-25
2.163866e-25
2.1745802e-25
2.1794973e-25
2.1828091e-25
2.1849525e-25
2.1863332e-25
2.1871379e-25
2.1875174e-25
2.1875173e-25
2.1871376e-25
2.1863327e-25
2.184952e-25
2.1828086e-25
2.1794969e-25
2.1745798e-25
2.1638658e-25
2.1036422e-25
1.9406654e-25
7.2586491e-26
7.9750424e-26
8.2518498e-26
8.3054565e-26
8.3309189e-26
8.3460514e-26
8.3549903e-26
8.3603796e-26
8.3633245e-26
8.3646721e-26
8.3646717e-26
8.3633233e-26
8.3603777e-26
8.3549883e-26
8.3460498e-26
8.3309178e-26
8.3054555e-26
8.2518497e-26
7.9750428e-26
7.2586483e-26
2.4580862e-26
2.8427354e-26
2.9729668e-26
2.9962488e-26
3.002473e-26
3.0048951e-26
3.0059452e-26
3.0064556e-26
3.0066381e-26
3.0066746e-26
3.0066744e-26
3.0066376e-26
3.0064548e-26
3.0059444e-26
3.0048945e-26
3.0024728e-26
2.9962486e-26
2.9729671e-26
2.842736e-26
2.4580867e-26
6.6020889e-27
9.5059383e-27
1.0350498e-26
1.0469165e-26
1.0430693e-26
1.037598e-26
1.033288e-26
1.0303767e-26
1.0285935e-26
1.0277133e-26
1.0277132e-26
1.0285933e-26
1.0303763e-26
1.0332876e-26
1.0375977e-26
1.0430692e-26
1.0469164e-26
1.0350499e-26
9.5059414e-27
6.6020941e-27
1.2736478e-27
2.8622379e-27
3.4396365e-27
3.5588353e-27
3.5356122e-27
3.483723e-27
3.4370081e-27
3.4029403e-27
3.3813691e-27
3.3707643e-27
3.3707637e-27
3.3813675e-27
3.4029381e-27
3.4370058e-27
3.4837217e-27
3.5356115e-27
3.5588349e-27
3.4396369e-27
2.862239e-27
1.2736492e-27
1.7883621e-28
7.6008502e-28
1.0663954e-27
1.1586714e-27
1.1610297e-27
1.1363755e-27
1.1093057e-27
1.0877746e-27
1.0735259e-27
1.0664078e-27
1.0664074e-27
1.073525e-27
1.0877734e-27
1.1093046e-27
1.1363747e-27
1.1610293e-27
1.1586712e-27
1.0663955e-27
7.6008528e-28
1.7883638e-28
1.9334502e-29
1.7747873e-28
3.0500609e-28
3.5675018e-28
3.6563992e-28
3.5790688e-28
3.4645816e-28
3.3645127e-28
3.2953223e-28
3.2601297e-28
3.2601282e-28
3.2953182e-28
3.364507e-28
3.4645761e-28
3.5790651e-28
3.6563973e-28
3.5675011e-28
3.0500609e-28
1.7747878e-28
1.9334513e-29
1.7158064e-30
3.6697037e-29
8.0232941e-29
1.0314104e-28
1.0955219e-28
1.0809443e-28
1.0418883e-28
1.0037546e-28
9.7618344e-29
9.6190684e-29
9.6190622e-29
9.7618167e-29
1.0037523e-28
1.041886e-28
1.0809427e-28
1.0955211e-28
1.0314102e-28
8.0232942e-29
3.6697051e-29
1.715807e-30
1.3184324e-31
6.8052524e-30
1.944687e-29
2.7926413e-29
3.1078435e-29
3.1139923e-29
3.0025223e-29
2.8771924e-29
2.7821169e-29
2.7319797e-29
2.7319774e-29
2.7821102e-29
2.8771834e-29
3.0025132e-29
3.1139857e-29
3.1078403e-29
2.7926408e-29
1.9446872e-29
6.8052562e-30
1.318433e-31
9.1059185e-33
1.1479557e-30
4.362901e-30
7.0835906e-30
8.3302062e-30
8.5286531e-30
8.2619379e-30
7.8970955e-30
7.6049344e-30
7.4478511e-30
7.4478435e-30
7.6049111e-30
7.8970642e-30
8.2619065e-30
8.5286295e-30
8.330195e-30
7.08359e-30
4.3629023e-30
1.1479568e-30
9.1059276e-33
5.7892883e-34
1.783757e-31
9.1102172e-31
1.6865094e-30
2.1090734e-30
2.2170962e-30
2.1657334e-30
2.0702532e-30
1.9888114e-30
1.9440855e-30
1.9440831e-30
1.9888039e-30
2.0702433e-30
2.1657234e-30
2.2170886e-30
2.1090699e-30
1.6865095e-30
9.1102236e-31
1.7837597e-31
5.7892989e-34
3.4383854e-35
2.5786684e-32
1.7800824e-31
3.7787945e-31
5.0478791e-31
5.4680436e-31
5.4015809e-31
5.1751493e-31
4.966798e-31
4.8496454e-31
4.8496386e-31
4.9667761e-31
5.1751201e-31
5.401552e-31
5.4680219e-31
5.04787e-31
3.7787955e-31
1.7800847e-31
2.5786743e-32
3.4383948e-35
1.9250907e-36
3.4940352e-33
3.2699577e-32
7.9896111e-32
1.1436228e-31
1.2798314e-31
1.2812869e-31
1.2324875e-31
1.183174e-31
1.1547002e-31
1.1546982e-31
1.1831681e-31
1.2324796e-31
1.2812791e-31
1.2798257e-31
1.1436206e-31
7.9896157e-32
3.2699641e-32
3.4940466e-33
1.9250975e-36
1.0218559e-37
4.4615507e-34
5.6691257e-33
1.59813e-32
2.4563088e-32
2.8449423e-32
2.8909846e-32
2.7956379e-32
2.6870274e-32
2.6224e-32
2.6223951e-32
2.6870126e-32
2.7956179e-32
2.8909651e-32
2.8449287e-32
2.456304e-32
1.5981317e-32
5.6691421e-33
4.4615705e-34
1.0218605e-37
5.1614906e-39
5.390132e-35
9.3051656e-34
3.031116e-33
5.009516e-33
6.0121353e-33
6.207952e-33
6.040751e-33
5.8172126e-33
5.6795549e-33
5.6795431e-33
5.8171781e-33
6.0407038e-33
6.2079062e-33
6.0121046e-33
5.0095065e-33
3.0311208e-33
9.3052027e-34
5.3901629e-35
5.1615193e-39
2.4870925e-40
6.1796391e-36
1.4496714e-34
5.4621701e-34
9.7159327e-34
1.2092157e-33
1.269656e-33
1.244002e-33
1.2008779e-33
1.1732538e-33
1.1732512e-33
1.2008703e-33
1.2439915e-33
1.2696458e-33
1.2092092e-33
9.7159158e-34
5.4621828e-34
1.4496789e-34
6.179684e-36
2.4871101e-40
1.1452683e-41
6.7387222e-37
2.1481131e-35
9.3682472e-35
1.794616e-34
2.3173865e-34
2.4754191e-34
2.4432516e-34
2.3651183e-34
2.3127301e-34
2.3127246e-34
2.3651022e-34
2.4432296e-34
2.475398e-34
2.3173735e-34
1.7946133e-34
9.3682766e-35
2.1481272e-35
6.7387827e-37
1.1452784e-41
5.0465263e-43
7.0023302e-38
3.0327926e-36
1.5316057e-35
3.1610613e-35
4.2364928e-35
4.6052504e-35
4.5801711e-35
4.4470862e-35
4.352958e-35
4.3529466e-35
4.4470541e-35
4.5801272e-35
4.6052088e-35
4.2364681e-35
3.1610574e-35
1.5316119e-35
3.0328173e-36
7.0024064e-38
5.0465804e-43
2.1300866e-44
6.9441575e-39
4.0857459e-37
2.3901201e-36
5.3161741e-36
7.396118e-36
8.1832048e-36
8.2023437e-36
7.9892597e-36
7.8287063e-36
7.8286845e-36
7.9891989e-36
8.2022603e-36
8.1831272e-36
7.3960732e-36
5.316169e-36
2.390132e-36
4.0857861e-37
6.9442464e-39
2.1301142e-44
8.6197382e-46
6.5807072e-40
5.2590251e-38
3.5645386e-37
8.5459291e-37
1.234366e-36
1.3902024e-36
1.4045045e-36
1.3724806e-36
1.3464418e-36
1.3464379e-36
1.3724696e-36
1.4044894e-36
1.3901885e-36
1.2343583e-36
8.5459228e-37
3.5645596e-37
5.2590857e-38
6.5808049e-40
8.6198708e-46
3.3466228e-47
5.9661749e-41
6.4750613e-39
5.0859803e-38
1.3145145e-37
1.9713158e-37
2.2600802e-37
2.3015598e-37
2.2565346e-37
2.2163317e-37
2.2163248e-37
2.2565156e-37
2.3015336e-37
2.2600562e-37
1.9713029e-37
1.3145137e-37
5.0860146e-38
6.4751466e-39
5.9662757e-41
3.3466825e-47
1.3801272e-48
5.1800363e-42
7.6337636e-40
6.9497704e-39
1.9365905e-38
3.0154108e-38
3.5192689e-38
3.6125406e-38
3.5536893e-38
3.4945436e-38
3.4945318e-38
3.5536579e-38
3.6124972e-38
3.5192293e-38
3.0153898e-38
1.9365891e-38
6.9498218e-39
7.6338752e-40
5.1801348e-42
1.3790346e-48
1.0129072e-49
4.3110925e-43
8.6258793e-41
9.1032084e-40
2.7350765e-39
4.4217962e-39
5.2533823e-39
5.4357657e-39
5.365092e-39
5.2821264e-39
5.2821072e-39
5.3650419e-39
5.4356968e-39
5.2533195e-39
4.4217633e-39
2.7350743e-39
9.1032796e-40
8.6260174e-41
4.3111834e-43
1.0180597e-49
1.8613124e-50
3.4421949e-44
9.3502129e-42
1.1439929e-40
3.7062073e-40
6.221236e-40
7.5238842e-40
7.847284e-40
7.771117e-40
7.6601145e-40
7.6600848e-40
7.7710406e-40
7.8471793e-40
7.5237889e-40
6.2211861e-40
3.7062033e-40
1.1440022e-40
9.3503738e-42
3.4422753e-44
1.8790774e-50
1.917157e-51
2.6390057e-45
9.7308725e-43
1.380418e-41
4.8224425e-41
8.4047675e-41
1.0346757e-40
1.0877473e-40
1.0807737e-40
1.0666075e-40
1.0666032e-40
1.0807626e-40
1.087732e-40
1.0346618e-40
8.4046946e-41
4.8224352e-41
1.3804296e-41
9.7310502e-43
2.6390705e-45
1.9230139e-51
1.4031889e-52
1.9443879e-46
9.7304295e-44
1.6006271e-42
6.0299229e-42
1.0911245e-41
1.3672647e-41
1.4488124e-41
1.4442921e-41
1.4270521e-41
1.4270462e-41
1.4442764e-41
1.4487909e-41
1.3672451e-41
1.0911141e-41
6.0299101e-42
1.6006405e-42
9.7306142e-44
1.9444025e-46
1.3926395e-52
7.8770898e-54
1.3775222e-47
9.3558202e-45
1.7847536e-43
7.2506607e-43
1.3621826e-42
1.737399e-42
1.8555964e-42
1.8559025e-42
1.8359096e-42
1.8359015e-42
1.8558813e-42
1.8555673e-42
1.7373724e-42
1.3621683e-42
7.2506386e-43
1.7847679e-43
9.356002e-45
1.3774988e-47
7.7840421e-54
3.0004708e-55
9.3887535e-49
8.6557438e-46
1.915029e-44
8.390021e-44
1.6364661e-43
2.1244356e-43
2.286865e-43
2.2947387e-43
2.2726725e-43
2.272662e-43
2.2947111e-43
2.2868268e-43
2.1244009e-43
1.6364471e-43
8.3899863e-44
1.9150431e-44
8.6559123e-46
9.3885691e-49
2.8721443e-55
8.8126659e-57
6.1610652e-50
7.7105864e-47
1.9786426e-45
9.3487308e-45
1.8931017e-44
2.5013221e-44
2.7137406e-44
2.7319615e-44
2.7088303e-44
2.7088174e-44
2.731927e-44
2.7136925e-44
2.5012783e-44
1.8930771e-44
9.3486797e-45
1.9786552e-45
7.7107326e-47
6.1609421e-50
8.3808703e-57
2.1878259e-58
3.8951731e-51
6.6176677e-48
1.9698201e-46
1.0037318e-45
2.1101222e-45
2.8375911e-45
3.1026982e-45
3.1336603e-45
3.110706e-45
3.1106908e-45
3.1336188e-45
3.1026399e-45
2.8375377e-45
2.1100913e-45
1.0037247e-45
1.9698296e-46
6.6177859e-48
3.8951206e-51
2.0599808e-58
4.7303048e-60
2.374074e-52
5.4754306e-49
1.8906568e-47
1.0390034e-46
2.2676032e-46
3.1034435e-46
3.4199073e-46
3.4651799e-46
3.4437296e-46
3.443712e-46
3.4651319e-46
3.4198393e-46
3.1033805e-46
2.2675657e-46
1.0389939e-46
1.890662e-47
5.4755194e-49
2.3740693e-52
4.3385535e-60
9.7087612e-62
1.3957545e-53
4.3699551e-50
1.7505465e-48
1.0375222e-47
2.3507115e-47
3.2741558e-47
3.636142e-47
3.6961083e-47
3.6773983e-47
3.6773788e-47
3.6960546e-47
3.6360654e-47
3.2740839e-47
2.3506677e-47
1.0375102e-47
1.7505469e-48
4.3700155e-50
1.3957651e-53
8.6922728e-62
)
;

boundaryField
{
    Wall
    {
        type            zeroGradient;
    }
    frontAndBack
    {
        type            empty;
    }
    atmosphere
    {
        type            zeroGradient;
    }
}


// ************************************************************************* //
