/*--------------------------------*- C++ -*----------------------------------*\
| =========                 |                                                 |
| \\      /  F ield         | OpenFOAM: The Open Source CFD Toolbox           |
|  \\    /   O peration     | Version:  3.0.1                                 |
|   \\  /    A nd           | Web:      www.OpenFOAM.org                      |
|    \\/     M anipulation  |                                                 |
\*---------------------------------------------------------------------------*/
FoamFile
{
    version     2.0;
    format      ascii;
    class       volScalarField;
    location    "19";
    object      mTwo;
}
// * * * * * * * * * * * * * * * * * * * * * * * * * * * * * * * * * * * * * //

dimensions      [0 0 0 0 0 0 0];

internalField   nonuniform List<scalar> 
800
(
3.9595993e-12
3.9598278e-12
3.9598141e-12
3.959791e-12
3.959773e-12
3.9597587e-12
3.9597482e-12
3.9597407e-12
3.9597359e-12
3.9597334e-12
3.9597335e-12
3.9597359e-12
3.9597407e-12
3.9597482e-12
3.9597587e-12
3.959773e-12
3.9597911e-12
3.9598141e-12
3.9598278e-12
3.9595994e-12
3.5426535e-12
3.555418e-12
3.556886e-12
3.5570229e-12
3.5570332e-12
3.5571095e-12
3.5572178e-12
3.5573196e-12
3.5573935e-12
3.5574317e-12
3.5574317e-12
3.5573935e-12
3.5573195e-12
3.5572179e-12
3.5571096e-12
3.5570333e-12
3.5570231e-12
3.5568861e-12
3.5554181e-12
3.5426534e-12
3.2464787e-12
3.2615565e-12
3.2674006e-12
3.267811e-12
3.2679373e-12
3.2681178e-12
3.2683235e-12
3.2685048e-12
3.2686337e-12
3.2687002e-12
3.2687002e-12
3.2686337e-12
3.2685047e-12
3.2683235e-12
3.2681179e-12
3.2679374e-12
3.2678111e-12
3.2674008e-12
3.2615567e-12
3.2464786e-12
2.9615671e-12
2.9822648e-12
2.9905257e-12
2.9909473e-12
2.9911118e-12
2.9913405e-12
2.9916026e-12
2.9918339e-12
2.9919981e-12
2.9920829e-12
2.9920829e-12
2.9919981e-12
2.9918338e-12
2.9916026e-12
2.9913405e-12
2.9911119e-12
2.9909474e-12
2.9905259e-12
2.9822648e-12
2.9615669e-12
2.5734892e-12
2.6022552e-12
2.6113994e-12
2.6177271e-12
2.6179312e-12
2.6182088e-12
2.6185228e-12
2.6187956e-12
2.6189882e-12
2.6190871e-12
2.6190871e-12
2.6189882e-12
2.6187955e-12
2.6185228e-12
2.6182089e-12
2.6179313e-12
2.6177272e-12
2.6113995e-12
2.6022552e-12
2.5734889e-12
2.0360731e-12
2.0766136e-12
2.0857248e-12
2.0920655e-12
2.0924868e-12
2.0929231e-12
2.093329e-12
2.0936507e-12
2.0938693e-12
2.093979e-12
2.093979e-12
2.0938693e-12
2.0936506e-12
2.0933289e-12
2.092923e-12
2.0924868e-12
2.0920655e-12
2.0857248e-12
2.0766135e-12
2.0360729e-12
1.4999027e-12
1.5375343e-12
1.5460099e-12
1.550535e-12
1.5513489e-12
1.5520099e-12
1.55252e-12
1.5528813e-12
1.5531121e-12
1.5532239e-12
1.5532238e-12
1.553112e-12
1.5528812e-12
1.5525199e-12
1.5520098e-12
1.5513488e-12
1.550535e-12
1.5460099e-12
1.5375342e-12
1.4999024e-12
1.005115e-12
1.0429144e-12
1.0531661e-12
1.0563884e-12
1.0575117e-12
1.0583067e-12
1.0588488e-12
1.0592056e-12
1.0594205e-12
1.0595215e-12
1.0595215e-12
1.0594204e-12
1.0592055e-12
1.0588487e-12
1.0583066e-12
1.0575116e-12
1.0563884e-12
1.0531661e-12
1.0429144e-12
1.0051148e-12
5.4929945e-13
5.8436714e-13
5.9677733e-13
5.9905931e-13
6.0009325e-13
6.0075227e-13
6.0116246e-13
6.0141969e-13
6.015664e-13
6.0163423e-13
6.0163421e-13
6.0156634e-13
6.014196e-13
6.0116236e-13
6.0075219e-13
6.0009319e-13
5.9905926e-13
5.9677731e-13
5.8436713e-13
5.4929937e-13
2.5789839e-13
2.7838689e-13
2.8587928e-13
2.8740647e-13
2.8804328e-13
2.8837987e-13
2.8856228e-13
2.886661e-13
2.8871947e-13
2.887423e-13
2.8874229e-13
2.8871944e-13
2.8866605e-13
2.8856223e-13
2.8837984e-13
2.8804327e-13
2.8740647e-13
2.858793e-13
2.7838693e-13
2.5789841e-13
1.0966958e-13
1.2545772e-13
1.3087991e-13
1.3193143e-13
1.320761e-13
1.3203998e-13
1.3197975e-13
1.3193267e-13
1.3190019e-13
1.3188212e-13
1.3188211e-13
1.3190017e-13
1.3193264e-13
1.3197973e-13
1.3203997e-13
1.320761e-13
1.3193144e-13
1.3087994e-13
1.2545777e-13
1.0966963e-13
3.7479913e-14
5.3270362e-14
5.8346124e-14
5.9331463e-14
5.9170014e-14
5.8809667e-14
5.850109e-14
5.8287071e-14
5.8155595e-14
5.8090721e-14
5.8090714e-14
5.8155581e-14
5.8287049e-14
5.8501073e-14
5.880966e-14
5.9170018e-14
5.933147e-14
5.8346139e-14
5.3270386e-14
3.7479949e-14
9.4481936e-15
2.0687051e-14
2.5101746e-14
2.6259542e-14
2.6212589e-14
2.5849342e-14
2.5487828e-14
2.5216495e-14
2.5043281e-14
2.4957618e-14
2.4957613e-14
2.5043269e-14
2.5216477e-14
2.5487814e-14
2.5849336e-14
2.6212589e-14
2.6259545e-14
2.5101753e-14
2.0687061e-14
9.4482054e-15
1.778603e-15
7.2522114e-15
1.0248037e-14
1.1294448e-14
1.1413231e-14
1.1206685e-14
1.0946241e-14
1.0731917e-14
1.0588583e-14
1.051644e-14
1.0516436e-14
1.0588573e-14
1.0731904e-14
1.094623e-14
1.120668e-14
1.141323e-14
1.129445e-14
1.0248039e-14
7.252215e-15
1.778605e-15
2.6387026e-16
2.2930586e-15
3.9401508e-15
4.6748585e-15
4.8430274e-15
4.7659946e-15
4.6226102e-15
4.4920362e-15
4.4005843e-15
4.3536575e-15
4.3536548e-15
4.400578e-15
4.4920273e-15
4.6226029e-15
4.7659906e-15
4.8430262e-15
4.6748593e-15
3.9401514e-15
2.2930596e-15
2.6387046e-16
3.2820334e-17
6.5811571e-16
1.4247517e-15
1.8528807e-15
1.9903582e-15
1.9770397e-15
1.9115142e-15
1.8443206e-15
1.7950128e-15
1.7692273e-15
1.7692258e-15
1.795009e-15
1.8443153e-15
1.9115097e-15
1.9770371e-15
1.9903572e-15
1.8528812e-15
1.424752e-15
6.5811601e-16
3.2820352e-17
3.6036417e-18
1.7335446e-16
4.8560777e-16
7.0223815e-16
7.8948499e-16
7.9660413e-16
7.7096e-16
7.4039719e-16
7.1683717e-16
7.04282e-16
7.0428117e-16
7.1683516e-16
7.4039433e-16
7.7095755e-16
7.9660261e-16
7.8948435e-16
7.0223839e-16
4.856079e-16
1.7335457e-16
3.6036444e-18
3.6211141e-19
4.2433768e-17
1.5665113e-16
2.5468212e-16
3.018335e-16
3.1098226e-16
3.0239783e-16
2.8980238e-16
2.7955045e-16
2.739803e-16
2.7397989e-16
2.7954945e-16
2.8980093e-16
3.0239658e-16
3.1098146e-16
3.0183314e-16
2.5468226e-16
1.5665121e-16
4.2433807e-17
3.6211191e-19
3.4076124e-20
9.7607761e-18
4.8055203e-17
8.8551656e-17
1.1122707e-16
1.1748308e-16
1.1513639e-16
1.1036672e-16
1.0623521e-16
1.0394394e-16
1.0394375e-16
1.0623474e-16
1.1036603e-16
1.1513581e-16
1.174827e-16
1.112269e-16
8.8551726e-17
4.8055251e-17
9.7607904e-18
3.4076206e-20
3.0460474e-21
2.1287225e-18
1.4082912e-17
2.9585539e-17
3.9539024e-17
4.2939005e-17
4.2513213e-17
4.0841014e-17
3.9281923e-17
3.8397864e-17
3.839778e-17
3.9281718e-17
4.0840709e-17
4.2512952e-17
4.2938838e-17
3.9538948e-17
2.9585571e-17
1.4082936e-17
2.1287272e-18
3.0460583e-21
2.6090347e-22
4.4311796e-19
3.9586161e-18
9.5208042e-18
1.3575132e-17
1.518882e-17
1.5219656e-17
1.4675489e-17
1.4120399e-17
1.3797849e-17
1.3797813e-17
1.4120314e-17
1.4675361e-17
1.5219547e-17
1.5188751e-17
1.3575101e-17
9.5208177e-18
3.9586259e-18
4.4311938e-19
2.6090471e-22
2.1528484e-23
8.8476246e-20
1.0709737e-18
2.9576883e-18
4.5078722e-18
5.2037376e-18
5.2840093e-18
5.1200576e-18
4.9326196e-18
4.8206818e-18
4.8206677e-18
4.9325863e-18
5.1200067e-18
5.2839655e-18
5.203711e-18
4.5078599e-18
2.9576938e-18
1.0709774e-18
8.8476634e-20
2.1528618e-23
1.717154e-24
1.7007425e-20
2.7966893e-19
8.8880613e-19
1.4498882e-18
1.7284022e-18
1.7801401e-18
1.7348639e-18
1.6746217e-18
1.63751e-18
1.6375047e-18
1.6746091e-18
1.7348446e-18
1.7801235e-18
1.7283924e-18
1.4498836e-18
8.8880814e-19
2.7967023e-19
1.7007522e-20
1.7171679e-24
1.3268664e-25
3.1563677e-21
7.0663395e-20
2.5884769e-19
4.5232232e-19
5.5715905e-19
5.8240196e-19
5.7122533e-19
5.5275653e-19
5.4096407e-19
5.4096218e-19
5.5275196e-19
5.7121829e-19
5.8239584e-19
5.5715551e-19
4.5232069e-19
2.5884838e-19
7.0663813e-20
3.1563905e-21
1.3268802e-25
9.9477452e-27
5.6685512e-22
1.73118e-20
7.3180441e-20
1.3705722e-19
1.7450316e-19
1.8521155e-19
1.8290364e-19
1.7749803e-19
1.7389822e-19
1.7389756e-19
1.7749643e-19
1.8290117e-19
1.852094e-19
1.7450192e-19
1.3705666e-19
7.3180664e-20
1.7311926e-20
5.6686017e-22
9.9478768e-27
7.2440708e-28
9.8706456e-23
4.1199988e-21
2.011524e-20
4.0388193e-20
5.3161913e-20
5.7307658e-20
5.7000199e-20
5.5490581e-20
5.4433181e-20
5.4432958e-20
5.5490037e-20
5.6999366e-20
5.7306924e-20
5.3161491e-20
4.0388003e-20
2.0115305e-20
4.1200349e-21
9.8707516e-23
7.2441885e-28
5.1284071e-29
1.6694605e-23
9.5410065e-22
5.3832613e-21
1.1588565e-20
1.5770347e-20
1.7269652e-20
1.7304373e-20
1.6903081e-20
1.6603929e-20
1.6603857e-20
1.6902901e-20
1.73041e-20
1.7269409e-20
1.5770207e-20
1.1588502e-20
5.3832793e-21
9.5411038e-22
1.6694815e-23
5.1285082e-29
3.5322567e-30
2.7471676e-24
2.1533395e-22
1.4044885e-21
3.2412837e-21
4.5601005e-21
5.0733949e-21
5.1221131e-21
5.0210955e-21
4.9395579e-21
4.9395352e-21
5.0210382e-21
5.1220264e-21
5.0733166e-21
4.5600547e-21
3.2412635e-21
1.404493e-21
2.1533642e-22
2.7472072e-24
3.5323394e-30
2.3686215e-31
4.4052625e-25
4.7433585e-23
3.5765322e-22
8.8464967e-22
1.2865409e-21
1.4543118e-21
1.479566e-21
1.4557195e-21
1.4343179e-21
1.4343109e-21
1.4557016e-21
1.4795391e-21
1.4542872e-21
1.2865262e-21
8.8464323e-22
3.5765421e-22
4.7434179e-23
4.4053339e-25
2.368686e-31
1.9603869e-32
6.8949031e-26
1.0211955e-23
8.8992869e-23
2.3583746e-22
3.5447371e-22
4.0713287e-22
4.174177e-22
4.1223933e-22
4.0683698e-22
4.0683487e-22
4.1223389e-22
4.1740961e-22
4.071253e-22
3.5446906e-22
2.3583543e-22
8.8993042e-23
1.021209e-23
6.8950263e-26
1.9569477e-32
3.8878721e-33
1.0549879e-26
2.1514819e-24
2.1658876e-23
6.1465003e-23
9.5459965e-23
1.1139963e-22
1.1510518e-22
1.1411394e-22
1.1280573e-22
1.1280511e-22
1.1411232e-22
1.151028e-22
1.1139735e-22
9.5458523e-23
6.1464381e-23
2.165889e-23
2.1515109e-24
1.0550083e-26
3.9258185e-33
1.5503191e-33
1.5806353e-27
4.4410942e-25
5.1606483e-24
1.5673651e-23
2.5146125e-23
2.9814086e-23
3.1046789e-23
3.0899135e-23
3.0596553e-23
3.0596376e-23
3.0898665e-23
3.1046105e-23
2.981342e-23
2.5145687e-23
1.5673464e-23
5.1606433e-24
4.4411529e-25
1.5806689e-27
1.5565417e-33
3.1886837e-34
2.3227835e-28
8.991709e-26
1.2048213e-24
3.9134639e-24
6.4839561e-24
7.8098547e-24
8.1963469e-24
8.189321e-24
8.122968e-24
8.1229188e-24
8.1891878e-24
8.1961543e-24
7.8096637e-24
6.4838263e-24
3.9134087e-24
1.2048177e-24
8.9918215e-26
2.3228307e-28
3.1833741e-34
4.7359498e-35
3.353935e-29
1.7874233e-26
2.758143e-25
9.5739901e-25
1.6375975e-24
2.0036188e-24
2.1191629e-24
2.1256624e-24
2.1120494e-24
2.112036e-24
2.1256254e-24
2.1191098e-24
2.0035652e-24
1.6375599e-24
9.573831e-25
2.7581279e-25
1.7874433e-26
3.3538711e-29
4.6661643e-35
5.4621019e-36
4.7643952e-30
3.4916642e-27
6.1955126e-26
2.2963e-25
4.0534563e-25
5.037098e-25
5.3688786e-25
5.4064645e-25
5.3810138e-25
5.3809778e-25
5.4063641e-25
5.3687351e-25
5.0369509e-25
4.0533499e-25
2.2962551e-25
6.1954603e-26
3.4916963e-27
4.7640397e-30
5.363852e-36
4.3061674e-37
6.6660474e-31
6.7080458e-28
1.3663482e-26
5.4026396e-26
9.8384036e-26
1.2415357e-25
1.3334955e-25
1.3480693e-25
1.3439968e-25
1.3439874e-25
1.3480426e-25
1.3334574e-25
1.2414962e-25
9.8381099e-26
5.4025158e-26
1.3663318e-26
6.7080895e-28
6.6655134e-31
4.0853509e-37
2.5078708e-38
9.2022312e-32
1.2682607e-28
2.9600281e-27
1.2474972e-26
2.3426816e-26
3.0015975e-26
3.248501e-26
3.2967039e-26
3.2922465e-26
3.2922222e-26
3.2966345e-26
3.2484017e-26
3.0014934e-26
2.3426024e-26
1.2474639e-26
2.9599806e-27
1.2682644e-28
9.2016117e-32
2.3582392e-38
1.3187016e-39
1.2550603e-32
2.3610951e-29
6.3020146e-28
2.8282865e-27
5.474971e-27
7.1210545e-27
7.7649164e-27
7.9102534e-27
7.9125685e-27
7.9125073e-27
7.9100765e-27
7.764663e-27
7.1207857e-27
5.4747625e-27
2.8281989e-27
6.3018836e-28
2.3610915e-29
1.255e-32
1.2253915e-39
6.6485371e-41
1.6930254e-33
4.3302213e-30
1.3191272e-28
6.2984527e-28
1.256334e-27
1.6584594e-27
1.8218743e-27
1.8629655e-27
1.86652e-27
1.8665048e-27
1.8629214e-27
1.8218109e-27
1.6583913e-27
1.2562804e-27
6.2982271e-28
1.3190927e-28
4.3301916e-30
1.6929701e-33
6.1098178e-41
3.3342034e-42
2.2608015e-34
7.826331e-31
2.7156376e-29
1.3782644e-28
2.8316846e-28
3.793084e-28
4.1974199e-28
4.3079856e-28
4.3230186e-28
4.3229815e-28
4.3078775e-28
4.1972642e-28
3.7929148e-28
2.83155e-28
1.3782076e-28
2.7155501e-29
7.8262279e-31
2.2607456e-34
3.0427362e-42
)
;

boundaryField
{
    Wall
    {
        type            zeroGradient;
    }
    frontAndBack
    {
        type            empty;
    }
    atmosphere
    {
        type            zeroGradient;
    }
}


// ************************************************************************* //
