/*--------------------------------*- C++ -*----------------------------------*\
| =========                 |                                                 |
| \\      /  F ield         | OpenFOAM: The Open Source CFD Toolbox           |
|  \\    /   O peration     | Version:  3.0.1                                 |
|   \\  /    A nd           | Web:      www.OpenFOAM.org                      |
|    \\/     M anipulation  |                                                 |
\*---------------------------------------------------------------------------*/
FoamFile
{
    version     2.0;
    format      ascii;
    class       volScalarField;
    location    "19";
    object      mZero;
}
// * * * * * * * * * * * * * * * * * * * * * * * * * * * * * * * * * * * * * //

dimensions      [0 0 0 0 0 0 0];

internalField   nonuniform List<scalar> 
800
(
1e+13
1e+13
1e+13
1e+13
1e+13
1e+13
1e+13
1e+13
1e+13
1e+13
1e+13
1e+13
1e+13
1e+13
1e+13
1e+13
1e+13
1e+13
1e+13
1e+13
1e+13
1e+13
1e+13
1e+13
1e+13
1e+13
1e+13
1e+13
1e+13
1e+13
1e+13
1e+13
1e+13
1e+13
1e+13
1e+13
1e+13
1e+13
1e+13
1e+13
9.6442744e+12
9.6488289e+12
9.6497461e+12
9.649839e+12
9.6497881e+12
9.6497639e+12
9.6497659e+12
9.6497794e+12
9.6497932e+12
9.6498017e+12
9.6498017e+12
9.6497932e+12
9.6497794e+12
9.6497658e+12
9.6497639e+12
9.649788e+12
9.6498389e+12
9.649746e+12
9.6488288e+12
9.6442742e+12
9.0467278e+12
9.0584905e+12
9.060302e+12
9.0602371e+12
9.0600984e+12
9.0600286e+12
9.0600242e+12
9.0600458e+12
9.0600692e+12
9.0600837e+12
9.0600837e+12
9.0600691e+12
9.0600458e+12
9.0600241e+12
9.0600286e+12
9.0600983e+12
9.0602371e+12
9.0603019e+12
9.0584904e+12
9.0467275e+12
8.2907152e+12
8.3124218e+12
8.3152168e+12
8.3150335e+12
8.3148449e+12
8.3147559e+12
8.3147481e+12
8.3147696e+12
8.3147925e+12
8.3148065e+12
8.3148065e+12
8.3147925e+12
8.3147696e+12
8.3147481e+12
8.314756e+12
8.314845e+12
8.3150336e+12
8.3152169e+12
8.3124219e+12
8.2907151e+12
7.4247336e+12
7.4611452e+12
7.4660766e+12
7.4665036e+12
7.4664695e+12
7.4664536e+12
7.4664633e+12
7.4664683e+12
7.4664753e+12
7.466479e+12
7.466479e+12
7.4664753e+12
7.4664684e+12
7.4664634e+12
7.4664539e+12
7.4664698e+12
7.4665039e+12
7.4660769e+12
7.4611455e+12
7.4247338e+12
6.466366e+12
6.5252682e+12
6.5358537e+12
6.5381222e+12
6.5386389e+12
6.5387766e+12
6.538805e+12
6.5387643e+12
6.5387287e+12
6.5387011e+12
6.5387011e+12
6.5387288e+12
6.5387644e+12
6.5388053e+12
6.538777e+12
6.5386394e+12
6.5381228e+12
6.5358543e+12
6.5252689e+12
6.4663667e+12
5.4341565e+12
5.5238225e+12
5.5464164e+12
5.5524065e+12
5.5538945e+12
5.554126e+12
5.5540183e+12
5.5538387e+12
5.5536881e+12
5.553583e+12
5.553583e+12
5.5536882e+12
5.5538388e+12
5.5540187e+12
5.5541265e+12
5.5538951e+12
5.5524073e+12
5.5464172e+12
5.5238234e+12
5.4341576e+12
4.3421565e+12
4.4778917e+12
4.524008e+12
4.5373435e+12
4.5402388e+12
4.5401216e+12
4.5393625e+12
4.5387326e+12
4.5382653e+12
4.5379781e+12
4.537978e+12
4.5382653e+12
4.5387326e+12
4.5393628e+12
4.5401222e+12
4.5402396e+12
4.5373447e+12
4.524009e+12
4.477893e+12
4.3421583e+12
3.1374116e+12
3.3507766e+12
3.4431435e+12
3.4717129e+12
3.4770125e+12
3.4755027e+12
3.472882e+12
3.4709605e+12
3.4696708e+12
3.4689557e+12
3.4689556e+12
3.4696707e+12
3.4709602e+12
3.4728822e+12
3.4755032e+12
3.4770134e+12
3.4717142e+12
3.4431447e+12
3.3507783e+12
3.1374139e+12
1.9176755e+12
2.2370711e+12
2.3916439e+12
2.4460203e+12
2.4561994e+12
2.452009e+12
2.4455103e+12
2.4406815e+12
2.4375916e+12
2.4359876e+12
2.4359872e+12
2.4375912e+12
2.4406806e+12
2.44551e+12
2.4520092e+12
2.4562e+12
2.4460214e+12
2.3916448e+12
2.2370728e+12
1.9176779e+12
8.9599973e+11
1.3372147e+12
1.5406215e+12
1.618871e+12
1.6351362e+12
1.6279488e+12
1.6160749e+12
1.6066742e+12
1.6006126e+12
1.5975496e+12
1.5975491e+12
1.6006119e+12
1.6066729e+12
1.6160742e+12
1.6279487e+12
1.6351364e+12
1.6188716e+12
1.540622e+12
1.3372158e+12
8.9600145e+11
2.9808058e+11
7.1304438e+11
9.2579759e+11
1.0162671e+12
1.0390273e+12
1.0323007e+12
1.0177886e+12
1.0052249e+12
9.9679618e+11
9.9252079e+11
9.9252025e+11
9.9679526e+11
1.0052233e+12
1.0177875e+12
1.0323002e+12
1.0390271e+12
1.0162673e+12
9.2579763e+11
7.1304484e+11
2.9808128e+11
7.1889941e+10
3.3829926e+11
5.1704571e+11
6.0380503e+11
6.3050671e+11
6.2746674e+11
6.1469382e+11
6.0243993e+11
5.9382349e+11
5.8938377e+11
5.8938326e+11
5.9382252e+11
6.0243837e+11
6.1469267e+11
6.2746601e+11
6.3050618e+11
6.0380485e+11
5.1704546e+11
3.3829931e+11
7.1890112e+10
1.3350742e+10
1.4277404e+11
2.6795325e+11
3.3873157e+11
3.6465843e+11
3.6542132e+11
3.5657458e+11
3.4701602e+11
3.3996544e+11
3.3626704e+11
3.3626662e+11
3.3996458e+11
3.4701467e+11
3.565735e+11
3.6542056e+11
3.6465781e+11
3.3873127e+11
2.6795293e+11
1.4277395e+11
1.3350771e+10
2.0417718e+09
5.3905694e+10
1.2903467e+11
1.7935044e+11
2.0075897e+11
2.0367211e+11
1.9863216e+11
1.9231116e+11
1.8741326e+11
1.8479805e+11
1.8479773e+11
1.8741259e+11
1.9231013e+11
1.9863128e+11
2.0367145e+11
2.0075839e+11
1.7935014e+11
1.2903443e+11
5.3905608e+10
2.041776e+09
2.7172618e+08
1.8426165e+10
5.7958524e+10
8.9747184e+10
1.0521062e+11
1.0858109e+11
1.0620679e+11
1.025401e+11
9.9543216e+10
9.7914301e+10
9.791409e+10
9.9542746e+10
1.0253938e+11
1.0620614e+11
1.0858059e+11
1.0521017e+11
8.9746951e+10
5.7958364e+10
1.8426116e+10
2.7172685e+08
32701674
5.7860232e+09
2.4414695e+10
4.2551855e+10
5.2539708e+10
5.537736e+10
5.4497857e+10
5.2595194e+10
5.0942084e+10
5.0026607e+10
5.0026477e+10
5.0941781e+10
5.2594733e+10
5.449743e+10
5.5377012e+10
5.2539397e+10
4.2551697e+10
2.4414608e+10
5.7860009e+09
32701779
3648438.7
1.6923295e+09
9.7040953e+09
1.9176598e+10
2.5042957e+10
2.7039293e+10
2.684288e+10
2.5950681e+10
2.5116149e+10
2.4644375e+10
2.4644301e+10
2.5115968e+10
2.5950408e+10
2.6842618e+10
2.7039075e+10
2.5042766e+10
1.9176502e+10
9.7040536e+09
1.6923211e+09
3648454.3
383361.43
4.6644697e+08
3.6609991e+09
8.2417376e+09
1.141602e+10
1.2654434e+10
1.2698523e+10
1.2319482e+10
1.1930084e+10
1.1704682e+10
1.1704642e+10
1.1929983e+10
1.2319331e+10
1.2698374e+10
1.2654309e+10
1.1415913e+10
8.2416842e+09
3.6609806e+09
4.6644416e+08
383363.49
38332.101
1.222776e+08
1.3178602e+09
3.3886639e+09
4.9873357e+09
5.6841402e+09
5.7744854e+09
5.6294899e+09
5.4604748e+09
5.3598511e+09
5.3598307e+09
5.4604216e+09
5.6294113e+09
5.7744056e+09
5.684073e+09
4.98728e+09
3.3886365e+09
1.3178525e+09
1.2227673e+08
38332.343
3673.5815
30707372
4.5465686e+08
1.3366875e+09
2.0922321e+09
2.4540609e+09
2.5266091e+09
2.477717e+09
2.4092262e+09
2.3670216e+09
2.3670117e+09
2.4091998e+09
2.4776784e+09
2.5265689e+09
2.4540267e+09
2.0922051e+09
1.3366746e+09
4.5465389e+08
30707122
3673.6081
339.2857
7428614
1.5086967e+08
5.0709537e+08
8.4437859e+08
1.0198206e+09
1.0648524e+09
1.051165e+09
1.0252221e+09
1.0085264e+09
1.0085219e+09
1.0252097e+09
1.051147e+09
1.0648332e+09
1.0198042e+09
8.4436621e+08
5.0708956e+08
1.5086857e+08
7428545.8
339.28846
30.339208
1738642
48290920
1.8540263e+08
3.2837721e+08
4.0848241e+08
4.3275168e+08
4.3022219e+08
4.2105284e+08
4.1480844e+08
4.1480646e+08
4.2104723e+08
4.3021413e+08
4.3274295e+08
4.0847489e+08
3.2837183e+08
1.8540018e+08
48290525
1738624.3
30.339477
2.6380869
394985.75
14943543
65445015
1.2324342e+08
1.5790323e+08
1.6976642e+08
1.7002094e+08
1.6701449e+08
1.6480396e+08
1.6480312e+08
1.6701207e+08
1.7001749e+08
1.6976263e+08
1.5789993e+08
1.2324119e+08
65444032
14943407
394981.31
2.6381112
0.22402917
87317.183
4478548.7
22336887
44697918
58978629
64354716
64936910
64034439
63294037
63293693
64033438
64935493
64353139
58977246
44697027
22336511
4478503.5
87316.113
0.22403113
0.018663313
18817.127
1301748.8
7380932.3
15684213
21309098
23597118
23991175
23750347
23516231
23516095
23749949
23990613
23596487
21308541
15683870
7380794
1301734.2
18816.875
0.018663452
0.0015321873
3958.1738
367377.89
2363884
5330409
7455033.8
8377291.4
8581589.6
8528705.7
8459173.7
8459121.9
8528553.3
8581374.2
8377047.7
7454818
5330281.5
2363835.1
367373.28
3958.1162
0.001532195
0.00012450368
813.37549
100761.86
734505.96
1756352.9
2527940.8
2882125
2974527.8
2967652.3
2948448.8
2948429.6
2967595.9
2974447.9
2882034.2
2527860
1756306.8
734489.21
100760.44
813.36253
0.00012450383
2.2991592e-05
163.36875
26879.113
221617.57
561585.47
831593.37
961764.5
999933.1
1001420.2
996586.65
996579.71
1001400
999904.41
961731.73
831564.17
561569.23
221611.99
26878.681
163.3659
2.2881268e-05
1.1879619e-05
32.081749
6978.525
64983.995
174400.06
265616.73
311557.91
326276.2
327977.98
326918.92
326916.49
327970.95
326266.21
311546.45
265606.52
174394.51
64982.185
6978.3975
32.081131
1.2045718e-05
7.193317e-06
6.1607321
1764.4423
18532.398
52645.005
82443.41
98056.597
103421.43
104338.08
104162.51
104161.68
104335.71
103418.05
98052.723
82439.952
52643.154
18531.829
1764.4056
6.1606077
7.1911609e-06
1.9165966e-06
1.1570676
434.70282
5143.8846
15459.069
24885.894
30007.126
31870.267
32266.228
32260.105
32259.837
32265.453
31869.158
30005.854
24884.76
15458.469
5143.7103
434.69252
1.1570391
1.9067132e-06
3.6158056e-07
0.21258565
104.41262
1390.5363
4419.2272
7310.9639
8935.3503
9555.2189
9707.1112
9719.2439
9719.1585
9706.8647
9554.8652
8934.9446
7310.6028
4419.0377
1390.4842
104.4098
0.21257072
3.5460971e-07
5.2068986e-08
0.038196569
24.463377
366.34528
1230.7069
2091.8735
2590.9411
2789.3014
2843.079
2850.5777
2850.5512
2843.0029
2789.1916
2590.8153
2091.7618
1230.6486
366.33012
24.462626
0.038191823
5.0903268e-08
4.9773659e-09
0.0067103605
5.5937777
94.122181
334.12213
583.36425
732.10112
793.34242
811.25396
814.47885
814.47087
811.23109
793.30921
732.06323
583.3307
334.10472
94.117868
5.5935824
0.006709546
4.6888638e-09
3.3527512e-10
0.0011532771
1.2489327
23.596844
88.488084
158.66522
201.72095
220.00745
225.68177
226.87007
226.86775
225.67508
219.99768
201.70983
158.65542
88.483016
23.595648
1.248883
0.0011531595
3.1235357e-10
2.0350553e-11
0.00019395403
0.27241785
5.7761192
22.875476
42.115831
54.235843
59.527447
61.249349
61.648139
61.647477
61.247441
59.524649
54.232663
42.113036
22.874039
5.7757946
0.27240551
0.00019393781
1.8713262e-11
1.1932987e-12
3.1925583e-05
0.058077866
1.3813106
5.7760257
10.917054
14.238256
15.724708
16.22767
16.35286
16.352675
16.227141
15.723927
14.237369
10.916278
5.7756284
1.3812246
0.058074872
3.1923228e-05
1.085678e-12
6.9427174e-14
5.14467e-06
0.012108192
0.32289846
1.4253484
2.7652075
3.6520146
4.0579469
4.1998682
4.2371589
4.237109
4.1997247
4.0577345
3.651773
2.7649975
1.4252413
0.32287619
0.012107482
5.1443009e-06
6.2697685e-14
)
;

boundaryField
{
    Wall
    {
        type            zeroGradient;
    }
    frontAndBack
    {
        type            empty;
    }
    atmosphere
    {
        type            zeroGradient;
    }
}


// ************************************************************************* //
