/*--------------------------------*- C++ -*----------------------------------*\
| =========                 |                                                 |
| \\      /  F ield         | OpenFOAM: The Open Source CFD Toolbox           |
|  \\    /   O peration     | Version:  3.0.1                                 |
|   \\  /    A nd           | Web:      www.OpenFOAM.org                      |
|    \\/     M anipulation  |                                                 |
\*---------------------------------------------------------------------------*/
FoamFile
{
    version     2.0;
    format      ascii;
    class       volScalarField;
    location    "19";
    object      node1;
}
// * * * * * * * * * * * * * * * * * * * * * * * * * * * * * * * * * * * * * //

dimensions      [0 0 0 0 0 0 0];

internalField   nonuniform List<scalar> 
800
(
6.2754135e-13
6.2755928e-13
6.2755816e-13
6.2755632e-13
6.2755488e-13
6.2755375e-13
6.2755291e-13
6.2755232e-13
6.2755193e-13
6.2755174e-13
6.2755174e-13
6.2755193e-13
6.2755232e-13
6.2755291e-13
6.2755375e-13
6.2755489e-13
6.2755633e-13
6.2755816e-13
6.2755928e-13
6.2754136e-13
5.9151456e-13
5.9262925e-13
5.9275667e-13
5.9276984e-13
5.9277201e-13
5.927795e-13
5.9278943e-13
5.9279857e-13
5.9280515e-13
5.9280854e-13
5.9280854e-13
5.9280515e-13
5.9279856e-13
5.9278943e-13
5.927795e-13
5.9277201e-13
5.9276985e-13
5.9275668e-13
5.9262926e-13
5.9151455e-13
5.7583289e-13
5.7707123e-13
5.7758474e-13
5.7762068e-13
5.7763498e-13
5.7765297e-13
5.7767211e-13
5.7768846e-13
5.7769991e-13
5.7770576e-13
5.7770576e-13
5.7769991e-13
5.7768846e-13
5.7767211e-13
5.7765298e-13
5.7763499e-13
5.7762069e-13
5.7758476e-13
5.7707124e-13
5.7583289e-13
5.669751e-13
5.6863946e-13
5.693932e-13
5.6943766e-13
5.694592e-13
5.6948437e-13
5.695104e-13
5.6953241e-13
5.6954775e-13
5.6955557e-13
5.6955557e-13
5.6954775e-13
5.6953241e-13
5.6951041e-13
5.6948438e-13
5.6945921e-13
5.6943768e-13
5.6939322e-13
5.6863947e-13
5.6697509e-13
5.5070184e-13
5.5312612e-13
5.5402318e-13
5.547219e-13
5.5475145e-13
5.5478514e-13
5.5481965e-13
5.5484852e-13
5.5486859e-13
5.548788e-13
5.5487881e-13
5.5486859e-13
5.5484851e-13
5.5481965e-13
5.5478514e-13
5.5475145e-13
5.547219e-13
5.5402319e-13
5.5312612e-13
5.5070182e-13
5.1604303e-13
5.1990934e-13
5.2089422e-13
5.2167865e-13
5.2173399e-13
5.2179021e-13
5.2184132e-13
5.2188178e-13
5.219091e-13
5.2192278e-13
5.2192278e-13
5.2190909e-13
5.2188177e-13
5.2184131e-13
5.217902e-13
5.2173398e-13
5.2167864e-13
5.2089421e-13
5.1990932e-13
5.1604299e-13
4.7476209e-13
4.7841931e-13
4.7937359e-13
4.79991e-13
4.800953e-13
4.8018986e-13
4.8026579e-13
4.8032181e-13
4.8035797e-13
4.8037583e-13
4.8037583e-13
4.8035796e-13
4.8032179e-13
4.8026577e-13
4.8018983e-13
4.8009527e-13
4.7999097e-13
4.7937357e-13
4.7841928e-13
4.7476204e-13
4.2742375e-13
4.3169305e-13
4.3298123e-13
4.3343159e-13
4.3359101e-13
4.3372819e-13
4.3383099e-13
4.3390302e-13
4.3394798e-13
4.3397018e-13
4.3397017e-13
4.3394797e-13
4.33903e-13
4.3383096e-13
4.3372816e-13
4.3359098e-13
4.3343155e-13
4.3298119e-13
4.3169301e-13
4.2742368e-13
3.6035847e-13
3.6666784e-13
3.6911222e-13
3.6943885e-13
3.6963658e-13
3.6980638e-13
3.6992982e-13
3.7001342e-13
3.7006442e-13
3.700898e-13
3.7008979e-13
3.700644e-13
3.700134e-13
3.6992978e-13
3.6980634e-13
3.6963654e-13
3.694388e-13
3.6911218e-13
3.6666779e-13
3.603584e-13
0
0
0
0
0
0
0
0
0
0
0
0
0
0
0
0
0
0
0
0
0
0
0
0
0
0
0
0
0
0
0
0
0
0
0
0
0
0
0
0
0
0
0
0
0
0
0
0
0
0
0
0
0
0
0
0
0
0
0
0
0
0
0
0
0
0
0
0
0
0
0
0
0
0
0
0
0
0
0
0
0
0
0
0
0
0
0
0
0
0
0
0
0
0
0
0
0
0
0
0
0
0
0
0
0
0
0
0
0
0
0
0
0
0
0
0
0
0
0
0
0
0
0
0
0
0
0
0
0
0
0
0
0
0
0
0
0
0
0
0
0
0
0
0
0
0
0
0
0
0
0
0
0
0
0
0
0
0
0
0
0
0
0
0
0
0
0
0
0
0
0
0
0
0
0
0
0
0
0
0
0
0
0
0
0
0
0
0
0
0
0
0
0
0
0
0
0
0
0
0
0
0
0
0
0
0
0
0
0
0
0
0
0
0
0
0
0
0
0
0
0
0
0
0
0
0
0
0
0
0
0
0
0
0
0
0
0
0
0
0
0
0
0
0
0
0
0
0
0
0
0
0
0
0
0
0
0
0
0
0
0
0
0
0
0
0
0
0
0
0
0
0
0
0
0
0
0
0
0
0
0
0
0
0
0
0
0
0
0
0
0
0
0
0
0
0
0
0
0
0
0
0
0
0
0
0
0
0
0
0
0
0
0
0
0
0
0
0
0
0
0
0
0
0
0
0
0
0
0
0
0
0
0
0
0
0
0
0
0
0
0
0
0
0
0
0
0
0
0
0
0
0
0
0
0
0
0
0
0
0
0
0
0
0
0
0
0
0
0
0
0
0
0
0
0
0
0
0
0
0
0
0
0
0
0
0
0
0
0
0
0
0
0
0
0
0
0
0
0
0
0
0
0
0
0
0
0
0
0
0
0
0
0
0
0
0
0
0
0
0
0
0
0
0
0
0
0
0
0
0
0
0
0
0
0
0
0
0
0
0
0
0
0
0
0
0
0
0
0
0
0
0
0
0
0
0
0
0
0
0
0
0
0
0
0
0
0
0
0
0
0
0
0
0
0
0
0
0
0
0
0
0
0
0
0
0
0
0
0
0
0
0
0
0
0
0
0
0
0
0
0
0
0
0
0
0
0
0
0
0
0
0
0
0
0
0
0
0
0
0
0
0
0
0
0
0
0
0
0
0
0
0
0
0
0
0
0
0
0
0
0
0
0
0
0
0
0
0
0
0
0
0
0
0
0
0
0
0
0
0
0
0
0
0
0
0
0
0
0
0
0
0
0
0
0
0
0
0
0
0
0
0
0
0
0
0
0
0
0
0
0
0
0
0
0
0
0
0
0
0
0
0
0
0
0
0
0
0
0
0
0
0
0
0
0
0
0
0
0
0
)
;

boundaryField
{
    Wall
    {
        type            zeroGradient;
    }
    frontAndBack
    {
        type            empty;
    }
    atmosphere
    {
        type            zeroGradient;
    }
}


// ************************************************************************* //
