/*--------------------------------*- C++ -*----------------------------------*\
| =========                 |                                                 |
| \\      /  F ield         | OpenFOAM: The Open Source CFD Toolbox           |
|  \\    /   O peration     | Version:  3.0.1                                 |
|   \\  /    A nd           | Web:      www.OpenFOAM.org                      |
|    \\/     M anipulation  |                                                 |
\*---------------------------------------------------------------------------*/
FoamFile
{
    version     2.0;
    format      ascii;
    class       surfaceScalarField;
    location    "19";
    object      phi;
}
// * * * * * * * * * * * * * * * * * * * * * * * * * * * * * * * * * * * * * //

dimensions      [0 3 -1 0 0 0 0];

internalField   nonuniform List<scalar> 
1540
(
2.6454548e-10
2.0799064e-08
2.7052658e-10
2.1070166e-08
2.1769502e-10
2.1129951e-08
1.6748663e-10
2.112773e-08
1.2778725e-10
2.1117596e-08
9.705235e-11
2.1109033e-08
7.11763e-11
2.11045e-08
4.7172044e-11
2.1102854e-08
2.3588025e-11
2.110257e-08
-1.7829608e-14
2.1102655e-08
-2.3625512e-11
2.1102655e-08
-4.7213838e-11
2.110257e-08
-7.1221734e-11
2.1102853e-08
-9.7099059e-11
2.1104499e-08
-1.2783006e-10
2.1109033e-08
-1.6752069e-10
2.1117598e-08
-2.1771626e-10
2.1127733e-08
-2.7053046e-10
2.1129955e-08
-2.6453592e-10
2.1070172e-08
2.0799065e-08
1.2375157e-10
4.2026062e-08
1.7799068e-10
4.2356462e-08
1.6465754e-10
4.2495724e-08
1.3952566e-10
4.2504841e-08
1.1282977e-10
4.2495423e-08
8.8947865e-11
4.2483512e-08
6.6635165e-11
4.2477111e-08
4.4657219e-11
4.2474989e-08
2.245606e-11
4.2474871e-08
-1.9171778e-14
4.247521e-08
-2.2494984e-11
4.2475209e-08
-4.4699257e-11
4.2474871e-08
-6.6679515e-11
4.2474988e-08
-8.8992301e-11
4.2477111e-08
-1.1286961e-10
4.2483512e-08
-1.3955721e-10
4.2495426e-08
-1.6467777e-10
4.2504846e-08
-1.7799679e-10
4.2495728e-08
-1.2374623e-10
4.2356463e-08
4.2026052e-08
1.9579622e-10
6.4261107e-08
1.8007682e-10
6.479597e-08
1.3792588e-10
6.4944096e-08
1.139174e-10
6.4932986e-08
9.4381769e-11
6.4917485e-08
7.7882609e-11
6.490131e-08
6.0701242e-11
6.4894769e-08
4.1823505e-11
6.4893841e-08
2.1366154e-11
6.489502e-08
-2.013539e-14
6.489616e-08
-2.1408416e-11
6.489616e-08
-4.1866229e-11
6.4895019e-08
-6.0744255e-11
6.489384e-08
-7.7924249e-11
6.4894768e-08
-9.4417373e-11
6.4901308e-08
-1.1394677e-10
6.4917489e-08
-1.3794538e-10
6.4932989e-08
-1.800852e-10
6.4944095e-08
-1.9579698e-10
6.4795962e-08
6.4261086e-08
1.3651376e-10
8.8719622e-08
1.2561625e-10
8.935525e-08
8.1088438e-11
8.9503814e-08
7.6730599e-11
8.9496396e-08
7.4302582e-11
8.9476961e-08
6.8571657e-11
8.9462325e-08
5.7636474e-11
8.9459671e-08
4.1526705e-11
8.9462988e-08
2.1718138e-11
8.9467291e-08
-1.9560001e-14
8.9470083e-08
-2.175702e-11
8.9470082e-08
-4.1566286e-11
8.9467289e-08
-5.7676302e-11
8.9462985e-08
-6.8610917e-11
8.9459669e-08
-7.4341941e-11
8.9462324e-08
-7.6758577e-11
8.9476955e-08
-8.1106025e-11
8.949639e-08
-1.2562985e-10
8.9503807e-08
-1.3652322e-10
8.9355233e-08
8.8719592e-08
-7.0063951e-12
1.1627493e-07
1.2823639e-11
1.1687052e-07
1.9696928e-11
1.169991e-07
4.1181509e-11
1.1696965e-07
6.0918472e-11
1.1695077e-07
6.7760309e-11
1.1694711e-07
6.193749e-11
1.1695523e-07
4.6638663e-11
1.1696653e-07
2.4882727e-11
1.1697631e-07
-1.8554419e-14
1.1698177e-07
-2.4919919e-11
1.1698177e-07
-4.6676473e-11
1.1697631e-07
-6.197572e-11
1.1696653e-07
-6.779446e-11
1.1695522e-07
-6.094782e-11
1.1694711e-07
-4.1208019e-11
1.1695076e-07
-1.9721571e-11
1.1696964e-07
-1.2842782e-11
1.1699908e-07
6.9883302e-12
1.1687049e-07
1.1627489e-07
-2.0458527e-10
1.4593632e-07
-1.2630439e-10
1.4669879e-07
-5.5534158e-11
1.4683252e-07
2.118681e-11
1.4683433e-07
6.8572155e-11
1.4684281e-07
8.5519005e-11
1.4686592e-07
8.0539894e-11
1.4689308e-07
6.0697542e-11
1.4691714e-07
3.2328097e-11
1.4693419e-07
-1.7088285e-14
1.4694301e-07
-3.2362091e-11
1.4694301e-07
-6.073099e-11
1.4693419e-07
-8.0571604e-11
1.4691714e-07
-8.5549269e-11
1.4689307e-07
-6.859909e-11
1.4686591e-07
-2.1212942e-11
1.468428e-07
5.5511867e-11
1.4683432e-07
1.2628202e-10
1.4683251e-07
2.0456358e-10
1.4669877e-07
1.459363e-07
-3.6590274e-10
1.7068494e-07
-2.2343835e-10
1.714749e-07
-7.6819577e-11
1.7169932e-07
5.2490527e-11
1.7180179e-07
1.1909596e-10
1.7187106e-07
1.3448697e-10
1.7194134e-07
1.192483e-10
1.7199629e-07
8.6772868e-11
1.7203617e-07
4.5376193e-11
1.7206137e-07
-1.5811696e-14
1.7207382e-07
-4.5407445e-11
1.7207382e-07
-8.6803328e-11
1.7206137e-07
-1.1927751e-10
1.7203616e-07
-1.3451404e-10
1.7199628e-07
-1.1912118e-10
1.7194133e-07
-5.2513827e-11
1.7187105e-07
7.679714e-11
1.7180179e-07
2.234164e-10
1.7169931e-07
3.6588259e-10
1.7147489e-07
1.7068493e-07
-4.0409824e-10
1.9548431e-07
-1.901916e-10
1.9543928e-07
3.6947352e-11
1.9566221e-07
1.8592629e-10
1.9587924e-07
2.3372632e-10
1.9602699e-07
2.2226474e-10
1.9614595e-07
1.8134716e-10
1.9622662e-07
1.258927e-10
1.962811e-07
6.4305732e-11
1.9631326e-07
-1.4704409e-14
1.9632913e-07
-6.4334919e-11
1.9632913e-07
-1.2592152e-10
1.9631325e-07
-1.8137515e-10
1.962811e-07
-2.2229086e-10
1.9622661e-07
-2.3375008e-10
1.9614594e-07
-1.8594748e-10
1.9602698e-07
-3.6964673e-11
1.9587923e-07
1.901752e-10
1.9566221e-07
4.0408346e-10
1.9543928e-07
1.9548432e-07
-3.7268703e-10
2.146713e-07
6.4925499e-11
2.1657125e-07
3.4013455e-10
2.1741904e-07
4.3246224e-10
2.1799258e-07
4.1187698e-10
2.1827754e-07
3.4533645e-10
2.184307e-07
2.6338812e-10
2.1850928e-07
1.7563056e-10
2.1855229e-07
8.7811119e-11
2.1857274e-07
-1.4317033e-14
2.1858186e-07
-8.7839425e-11
2.1858186e-07
-1.7565936e-10
2.1857275e-07
-2.6341752e-10
2.1855231e-07
-3.4536405e-10
2.185093e-07
-4.1190142e-10
2.1843072e-07
-4.3248275e-10
2.1827758e-07
-3.4014849e-10
2.1799262e-07
-6.493466e-11
2.174191e-07
3.7268159e-10
2.1657132e-07
2.1467139e-07
3.530329e-09
2.0640589e-07
2.6006014e-09
2.1310435e-07
1.8164928e-09
2.139386e-07
1.3029322e-09
2.1426234e-07
9.4980654e-10
2.1438281e-07
6.8868562e-10
2.1443355e-07
4.8048999e-10
2.1445002e-07
3.0442477e-10
2.144538e-07
1.4715486e-10
2.1445098e-07
-1.3887371e-14
2.1444764e-07
-1.4718253e-10
2.1444764e-07
-3.0445275e-10
2.1445099e-07
-4.8051654e-10
2.1445381e-07
-6.8870916e-10
2.1445005e-07
-9.4982543e-10
2.1443358e-07
-1.3029467e-09
2.1438285e-07
-1.8165002e-09
2.1426238e-07
-2.6006004e-09
2.1393866e-07
-3.5303175e-09
2.1310443e-07
2.0640602e-07
2.3933978e-08
1.8140598e-07
1.955623e-08
2.1613414e-07
1.3688041e-08
2.1840793e-07
9.375352e-09
2.1716426e-07
6.4385896e-09
2.1590155e-07
4.4112768e-09
2.1503955e-07
2.9413068e-09
2.1449745e-07
1.8047219e-09
2.1416785e-07
8.567107e-10
2.1397673e-07
-3.3307415e-14
2.1388241e-07
-8.5678753e-10
2.138824e-07
-1.8047918e-09
2.1397673e-07
-2.9413656e-09
2.1416786e-07
-4.4113199e-09
2.1449745e-07
-6.4386075e-09
2.1503956e-07
-9.3753552e-09
2.1590157e-07
-1.3688007e-08
2.1716427e-07
-1.9556168e-08
2.1840796e-07
-2.39339e-08
2.1613421e-07
1.8140616e-07
3.8607218e-08
1.4277762e-07
4.5483962e-08
2.0921838e-07
3.9886748e-08
2.2396211e-07
3.1570002e-08
2.2543786e-07
2.373924e-08
2.2368923e-07
1.7172822e-08
2.2156298e-07
1.1817388e-08
2.1980997e-07
7.3838953e-09
2.1855852e-07
3.5469441e-09
2.1777092e-07
-1.1496123e-13
2.1738673e-07
-3.5471585e-09
2.173867e-07
-7.3840885e-09
2.1777088e-07
-1.1817566e-08
2.185585e-07
-1.7172936e-08
2.1980994e-07
-2.3739333e-08
2.2156297e-07
-3.1570049e-08
2.2368921e-07
-3.9886794e-08
2.2543784e-07
-4.548397e-08
2.2396211e-07
-3.8607212e-08
2.0921842e-07
1.4277771e-07
2.9159782e-08
1.1361791e-07
4.2853444e-08
1.9552469e-07
4.3631551e-08
2.231839e-07
3.8333966e-08
2.3073534e-07
3.1034221e-08
2.3098888e-07
2.3636116e-08
2.2896102e-07
1.6842181e-08
2.2660383e-07
1.0760611e-08
2.2464003e-07
5.2336546e-09
2.2329778e-07
-1.2476573e-13
2.2262041e-07
-5.233867e-09
2.2262039e-07
-1.0760784e-08
2.2329773e-07
-1.6842347e-08
2.2463997e-07
-2.3636256e-08
2.2660379e-07
-3.1034336e-08
2.2896098e-07
-3.8334026e-08
2.3098886e-07
-4.3631589e-08
2.3073533e-07
-4.2853442e-08
2.2318389e-07
-2.9159784e-08
1.9552469e-07
1.1361792e-07
1.8730901e-08
9.4887035e-08
3.2683246e-08
1.8157239e-07
3.7371427e-08
2.1849572e-07
3.5739403e-08
2.3236737e-07
3.0817182e-08
2.359111e-07
2.459014e-08
2.3518808e-07
1.8116992e-08
2.3307699e-07
1.1837506e-08
2.3091952e-07
5.8325683e-09
2.2930271e-07
-1.0347489e-13
2.2845311e-07
-5.8327751e-09
2.2845308e-07
-1.1837688e-08
2.2930266e-07
-1.8117136e-08
2.3091947e-07
-2.4590263e-08
2.3307692e-07
-3.0817274e-08
2.3518802e-07
-3.5739452e-08
2.3591108e-07
-3.7371463e-08
2.3236737e-07
-3.2683263e-08
2.1849571e-07
-1.8730898e-08
1.8157236e-07
9.4887008e-08
1.1277403e-08
8.3609568e-08
2.2747965e-08
1.7010179e-07
2.8670713e-08
2.1257288e-07
2.9462992e-08
2.3157504e-07
2.683476e-08
2.3853932e-07
2.2322565e-08
2.397002e-07
1.6959473e-08
2.3844002e-07
1.1318281e-08
2.3656067e-07
5.646823e-09
2.3497414e-07
-6.4548034e-14
2.3409997e-07
-5.6469705e-09
2.3409993e-07
-1.1318402e-08
2.3497407e-07
-1.695959e-08
2.3656058e-07
-2.232266e-08
2.3843993e-07
-2.6834794e-08
2.3970012e-07
-2.9463045e-08
2.3853928e-07
-2.8670763e-08
2.3157503e-07
-2.2747972e-08
2.125729e-07
-1.1277418e-08
1.701018e-07
8.3609569e-08
6.5806385e-09
7.7028863e-08
1.5055338e-08
1.6162702e-07
2.0643188e-08
2.0698494e-07
2.257977e-08
2.2963837e-07
2.1577725e-08
2.395413e-07
1.862754e-08
2.426503e-07
1.4551019e-08
2.4251644e-07
9.90108e-09
2.4121055e-07
4.9967035e-09
2.3987842e-07
-3.5207093e-14
2.3909661e-07
-4.9967778e-09
2.3909659e-07
-9.901144e-09
2.3987836e-07
-1.4551101e-08
2.4121047e-07
-1.8627592e-08
2.4251635e-07
-2.1577735e-08
2.4265025e-07
-2.2579795e-08
2.3954128e-07
-2.0643209e-08
2.2963838e-07
-1.5055335e-08
2.0698499e-07
-6.5806644e-09
1.6162707e-07
7.7028884e-08
3.8212948e-09
7.3207491e-08
9.6936531e-09
1.5575456e-07
1.4274719e-08
2.0240383e-07
1.6480746e-08
2.2743225e-07
1.642902e-08
2.3959292e-07
1.4658822e-08
2.4442042e-07
1.1740828e-08
2.4543436e-07
8.1305767e-09
2.4482073e-07
4.1460892e-09
2.4386282e-07
-4.7629653e-15
2.4324264e-07
-4.1460766e-09
2.4324262e-07
-8.1305608e-09
2.4386278e-07
-1.1740835e-08
2.4482062e-07
-1.4658836e-08
2.4543429e-07
-1.6428995e-08
2.4442035e-07
-1.648073e-08
2.3959291e-07
-1.4274714e-08
2.2743231e-07
-9.6936658e-09
2.024039e-07
-3.8213177e-09
1.5575463e-07
7.3207545e-08
2.239502e-09
7.0967899e-08
6.152141e-09
1.5184184e-07
9.6061464e-09
1.9894977e-07
1.1616046e-08
2.2542233e-07
1.2017037e-08
2.3919186e-07
1.1042192e-08
2.4539521e-07
9.0452979e-09
2.4743122e-07
6.3643264e-09
2.4750164e-07
3.2761759e-09
2.4695095e-07
4.1655875e-14
2.4651872e-07
-3.2760936e-09
2.4651869e-07
-6.3642593e-09
2.4695087e-07
-9.045218e-09
2.4750154e-07
-1.1042141e-08
2.4743115e-07
-1.2016972e-08
2.4539514e-07
-1.1616008e-08
2.3919186e-07
-9.6061303e-09
2.2542239e-07
-6.1521551e-09
1.9894988e-07
-2.2395276e-09
1.5184198e-07
7.0968e-08
1.3283605e-09
6.9639491e-08
3.8729261e-09
1.4929728e-07
6.340298e-09
1.9648236e-07
7.9749741e-09
2.2378762e-07
8.5230215e-09
2.3864381e-07
8.0397173e-09
2.4587848e-07
6.7205431e-09
2.4875039e-07
4.7972246e-09
2.4942495e-07
2.490723e-09
2.4925742e-07
6.5212783e-14
2.4900934e-07
-2.4905911e-09
2.4900932e-07
-4.7970868e-09
2.4925734e-07
-6.7204331e-09
2.4942483e-07
-8.0396183e-09
2.487503e-07
-8.5229298e-09
2.4587842e-07
-7.9749218e-09
2.3864383e-07
-6.3402596e-09
2.2378774e-07
-3.8729127e-09
1.9648251e-07
-1.3283985e-09
1.4929741e-07
6.9639625e-08
7.9568177e-10
6.8843815e-08
2.4249831e-09
1.4766797e-07
4.1243711e-09
1.9478299e-07
5.3645844e-09
2.2254741e-07
5.8992399e-09
2.3810914e-07
5.6966489e-09
2.4608107e-07
4.8497698e-09
2.4959728e-07
3.5073524e-09
2.5076736e-07
1.8352458e-09
2.5092953e-07
6.512387e-14
2.5084454e-07
-1.8351088e-09
2.5084451e-07
-3.507209e-09
2.5092947e-07
-4.8496456e-09
2.5076727e-07
-5.6965537e-09
2.4959718e-07
-5.8991373e-09
2.4608101e-07
-5.3644976e-09
2.3810917e-07
-4.1243186e-09
2.225475e-07
-2.4249802e-09
1.9478314e-07
-7.9567519e-10
1.4766816e-07
6.8843923e-08
4.7935612e-10
6.8364453e-08
1.511633e-09
1.4663569e-07
2.6525464e-09
1.9364209e-07
3.550572e-09
2.2164938e-07
4.0037644e-09
2.3765593e-07
3.9482003e-09
2.4613659e-07
3.4172451e-09
2.5012825e-07
2.5008345e-09
2.5168377e-07
1.3179271e-09
2.5211246e-07
6.1079537e-14
2.521624e-07
-1.3177784e-09
2.5216237e-07
-2.5007128e-09
2.5211242e-07
-3.4171203e-09
2.5168369e-07
-3.9480877e-09
2.5012819e-07
-4.0036506e-09
2.4613657e-07
-3.5504773e-09
2.3765598e-07
-2.6524835e-09
2.2164949e-07
-1.5116232e-09
1.9364225e-07
-4.7936332e-10
1.4663585e-07
6.8364567e-08
2.8909553e-10
6.8075355e-08
9.3789228e-10
1.4598691e-07
1.6899167e-09
1.9289009e-07
2.3190617e-09
2.2102019e-07
2.6739603e-09
2.3730105e-07
2.6870142e-09
2.4612351e-07
2.3607093e-09
2.5045456e-07
1.7463516e-09
2.5229807e-07
9.2630216e-10
2.5293254e-07
5.8265644e-14
2.5308864e-07
-9.2619182e-10
2.5308863e-07
-1.7462764e-09
2.529325e-07
-2.3605849e-09
2.5229802e-07
-2.6868962e-09
2.5045451e-07
-2.6738415e-09
2.4612353e-07
-2.3190044e-09
2.373011e-07
-1.6898454e-09
2.2102032e-07
-9.3787184e-10
1.9289027e-07
-2.8908196e-10
1.4598708e-07
6.807547e-08
1.7367172e-10
6.7901693e-08
5.7854287e-10
1.4558204e-07
1.0674166e-09
1.9240121e-07
1.4977755e-09
2.2058983e-07
1.7618995e-09
2.3703691e-07
1.8009698e-09
2.4608442e-07
1.6039447e-09
2.5065157e-07
1.1982676e-09
2.527037e-07
6.393625e-10
2.5349146e-07
4.862864e-14
2.5372796e-07
-6.3927223e-10
2.5372795e-07
-1.1982011e-09
2.5349142e-07
-1.6038432e-09
2.5270367e-07
-1.8008738e-09
2.5065155e-07
-1.7618271e-09
2.4608445e-07
-1.4977232e-09
2.3703699e-07
-1.0673897e-09
2.2058998e-07
-5.785114e-10
1.924014e-07
-1.7364696e-10
1.4558222e-07
6.7901791e-08
1.0337593e-10
6.779835e-08
3.5412866e-10
1.4533126e-07
6.6846805e-10
1.9208686e-07
9.5758969e-10
2.2030068e-07
1.1473904e-09
2.3684709e-07
1.1913395e-09
2.4604042e-07
1.0743324e-09
2.5076855e-07
8.0990954e-10
2.5296812e-07
4.3450647e-10
2.5386684e-07
3.6499932e-14
2.5416241e-07
-4.3445057e-10
2.5416242e-07
-8.0985854e-10
2.5386681e-07
-1.0742671e-09
2.5296807e-07
-1.191276e-09
2.5076854e-07
-1.1473357e-09
2.4604046e-07
-9.5754377e-10
2.3684718e-07
-6.6844236e-10
2.2030083e-07
-3.5410731e-10
1.9208708e-07
-1.0335999e-10
1.4533144e-07
6.7798438e-08
6.0577132e-11
6.7737762e-08
2.1449134e-10
1.4517731e-07
4.146707e-10
1.9188666e-07
6.0617765e-10
2.2010914e-07
7.3919116e-10
2.3671407e-07
7.7888297e-10
2.4600073e-07
7.1060992e-10
2.5083682e-07
5.4019971e-10
2.5313847e-07
2.9129361e-10
2.5411577e-07
2.1472225e-14
2.5445367e-07
-2.912649e-10
2.5445364e-07
-5.4019461e-10
2.5411572e-07
-7.1057698e-10
2.5313843e-07
-7.7885401e-10
2.5083679e-07
-7.3916393e-10
2.4600076e-07
-6.061802e-10
2.3671415e-07
-4.1464902e-10
2.2010931e-07
-2.1449289e-10
1.9188688e-07
-6.0558155e-11
1.4517752e-07
6.7737858e-08
3.4669396e-11
6.770308e-08
1.280635e-10
1.450839e-07
2.5430734e-10
1.9176039e-07
3.7973237e-10
2.1998371e-07
4.7119019e-10
2.3662259e-07
5.0363169e-10
2.4596829e-07
4.6460858e-10
2.5087581e-07
3.5601942e-10
2.5324706e-07
1.9288237e-10
2.5427891e-07
1.0887638e-14
2.5464653e-07
-1.9288224e-10
2.5464651e-07
-3.5601248e-10
2.5427887e-07
-4.6460258e-10
2.5324702e-07
-5.0361763e-10
2.508758e-07
-4.7119329e-10
2.4596831e-07
-3.7973695e-10
2.3662267e-07
-2.5433366e-10
2.1998387e-07
-1.2806636e-10
1.9176062e-07
-3.4645286e-11
1.450841e-07
6.7703178e-08
1.9124749e-11
6.7683954e-08
7.4945891e-11
1.4502809e-07
1.5376544e-10
1.9168155e-07
2.3504953e-10
2.1990241e-07
2.9703945e-10
2.3656059e-07
3.2210465e-10
2.4594326e-07
3.0039423e-10
2.5089749e-07
2.3198208e-10
2.5331549e-07
1.2623209e-10
2.5438463e-07
-8.6823032e-15
2.5477279e-07
-1.2626336e-10
2.5477279e-07
-2.31992e-10
2.543846e-07
-3.004081e-10
2.5331543e-07
-3.2209345e-10
2.5089747e-07
-2.9706826e-10
2.4594328e-07
-2.350796e-10
2.3656069e-07
-1.5376982e-10
2.1990257e-07
-7.4942655e-11
1.9168177e-07
-1.9122132e-11
1.4502828e-07
6.7684058e-08
9.972963e-12
6.7673998e-08
4.2610366e-11
1.4499544e-07
9.1240759e-11
1.9163293e-07
1.4343097e-10
2.1985024e-07
1.8494422e-10
2.3651908e-07
2.0361608e-10
2.4592462e-07
1.9205708e-10
2.5090908e-07
1.4943329e-10
2.5335808e-07
8.1692578e-11
2.5445239e-07
-2.7488651e-14
2.5485453e-07
-8.1744519e-11
2.548545e-07
-1.4950496e-10
2.5445234e-07
-1.9208055e-10
2.5335805e-07
-2.0363966e-10
2.5090906e-07
-1.8498205e-10
2.4592464e-07
-1.4346308e-10
2.3651914e-07
-9.1247528e-11
2.198504e-07
-4.2605683e-11
1.9163313e-07
-9.9675451e-12
1.4499563e-07
6.7674125e-08
4.6709616e-12
6.766934e-08
2.3209514e-11
1.4497692e-07
5.2794763e-11
1.9160341e-07
8.5946853e-11
2.1981711e-07
1.1349914e-10
2.3649156e-07
1.2706329e-10
2.4591109e-07
1.2130855e-10
2.5091488e-07
9.5166743e-11
2.5338424e-07
5.2260472e-11
2.544953e-07
-5.6762205e-14
2.5490684e-07
-5.2322632e-11
2.5490681e-07
-9.5214519e-11
2.5449527e-07
-1.2135478e-10
2.5338419e-07
-1.2711546e-10
2.5091483e-07
-1.1355601e-10
2.4591105e-07
-8.5990036e-11
2.3649157e-07
-5.2801463e-11
2.1981722e-07
-2.3217583e-11
1.9160359e-07
-4.6646141e-12
1.4497709e-07
6.7669448e-08
1.7151012e-12
6.7667655e-08
1.1792294e-11
1.4496686e-07
2.9469148e-11
1.9158577e-07
5.0306014e-11
2.1979631e-07
6.8419628e-11
2.3647348e-07
7.813154e-11
2.4590142e-07
7.5595156e-11
2.5091744e-07
5.9836491e-11
2.5340005e-07
3.3018983e-11
2.5452214e-07
-6.3006901e-14
2.5493993e-07
-3.3108969e-11
2.5493993e-07
-5.9924301e-11
2.5452212e-07
-7.5683811e-11
2.534e-07
-7.8211809e-11
2.5091739e-07
-6.8518046e-11
2.4590134e-07
-5.0397761e-11
2.3647348e-07
-2.9479626e-11
2.1979638e-07
-1.1831625e-11
1.9158593e-07
-1.7205367e-12
1.4496701e-07
6.7667747e-08
1.4329499e-13
6.766755e-08
5.2996421e-12
1.4496175e-07
1.5615755e-11
1.9157553e-07
2.8556279e-11
2.1978337e-07
4.0364781e-11
2.3646169e-07
4.723733e-11
2.458946e-07
4.6440246e-11
2.5091833e-07
3.7107632e-11
2.5340942e-07
2.0577425e-11
2.5453874e-07
-7.0626316e-14
2.5496061e-07
-2.0706604e-11
2.5496059e-07
-3.72483e-11
2.5453869e-07
-4.6546015e-11
2.5340935e-07
-4.7376696e-11
2.5091824e-07
-4.0501198e-11
2.4589453e-07
-2.8643018e-11
2.3646167e-07
-1.5665419e-11
2.1978341e-07
-5.3344895e-12
1.9157562e-07
-1.6290922e-13
1.4496188e-07
6.7667615e-08
-5.6046217e-13
6.7668153e-08
1.77314e-12
1.4495944e-07
7.6462989e-12
1.915697e-07
1.5592107e-11
2.1977543e-07
2.3256101e-11
2.3645409e-07
2.8050147e-11
2.4588987e-07
2.8078791e-11
2.5091834e-07
2.268458e-11
2.5341486e-07
1.263226e-11
2.5454884e-07
-8.3215885e-14
2.5497339e-07
-1.2810638e-11
2.5497335e-07
-2.2871767e-11
2.5454878e-07
-2.8249811e-11
2.5341475e-07
-2.8194481e-11
2.5091822e-07
-2.3405233e-11
2.4588977e-07
-1.5725062e-11
2.3645402e-07
-7.7152372e-12
2.1977546e-07
-1.804549e-12
1.9156976e-07
5.693878e-13
1.4495952e-07
6.7668197e-08
-7.7909877e-13
6.7668964e-08
6.5108826e-14
1.4495863e-07
3.3128607e-12
1.9156651e-07
8.1565345e-12
2.1977065e-07
1.3076158e-11
2.3644921e-07
1.6373675e-11
2.4588661e-07
1.6748943e-11
2.5091797e-07
1.369664e-11
2.5341794e-07
7.6548532e-12
2.5455492e-07
-1.2294388e-13
2.5498119e-07
-7.8887677e-12
2.5498118e-07
-1.3927639e-11
2.5455484e-07
-1.6973885e-11
2.5341785e-07
-1.6568565e-11
2.5091786e-07
-1.3258057e-11
2.4588647e-07
-8.305993e-12
2.364491e-07
-3.403608e-12
2.197706e-07
-9.895032e-14
1.915665e-07
7.7772003e-13
1.4495867e-07
6.7669001e-08
-7.0259543e-13
6.7669718e-08
-5.2989233e-13
1.4495848e-07
1.2397668e-12
1.9156476e-07
4.1678103e-12
2.1976774e-07
7.2970884e-12
2.3644613e-07
9.5155348e-12
2.4588442e-07
9.951726e-12
2.5091761e-07
8.2303356e-12
2.5341972e-07
4.6092305e-12
2.5455859e-07
-1.4428501e-13
2.5498598e-07
-4.8925831e-12
2.5498593e-07
-8.5137466e-12
2.5455851e-07
-1.02177e-11
2.5341959e-07
-9.7707221e-12
2.5091744e-07
-7.5406197e-12
2.4588425e-07
-4.3623238e-12
2.3644596e-07
-1.3588973e-12
2.1976765e-07
4.7496684e-13
1.915647e-07
7.0877571e-13
1.4495849e-07
6.7669703e-08
-4.6381198e-13
6.7670204e-08
-4.3387584e-13
1.4495847e-07
5.9176978e-13
1.9156374e-07
2.4000169e-12
2.1976597e-07
4.3415863e-12
2.3644419e-07
5.773229e-12
2.4588304e-07
6.0824572e-12
2.509173e-07
5.0270326e-12
2.5342078e-07
2.7810689e-12
2.5456086e-07
-1.8273565e-13
2.5498895e-07
-3.1401155e-12
2.5498893e-07
-5.3759969e-12
2.5456079e-07
-6.3985117e-12
2.5342065e-07
-6.0591559e-12
2.5091713e-07
-4.6099352e-12
2.4588282e-07
-2.6000528e-12
2.36444e-07
-7.4212877e-13
2.197658e-07
3.7798296e-13
1.9156364e-07
4.687462e-13
1.4495842e-07
6.7670186e-08
-8.7630174e-14
6.7670334e-08
1.6440501e-13
1.4495824e-07
9.1434674e-13
1.9156301e-07
2.063281e-12
2.1976488e-07
3.1945881e-12
2.3644305e-07
4.0085609e-12
2.4588225e-07
4.062024e-12
2.5091724e-07
3.318851e-12
2.5342156e-07
1.7770798e-12
2.5456243e-07
-2.0215817e-13
2.5499094e-07
-2.1784845e-12
2.5499091e-07
-3.7018523e-12
2.5456232e-07
-4.4519487e-12
2.5342141e-07
-4.3419704e-12
2.5091704e-07
-3.5045902e-12
2.4588202e-07
-2.2972401e-12
2.364428e-07
-1.0981529e-12
2.1976463e-07
-2.4669417e-13
1.9156281e-07
9.490162e-14
1.4495811e-07
6.7670273e-08
4.9409613e-13
6.766985e-08
1.2920093e-12
1.4495744e-07
2.0465732e-12
1.9156223e-07
2.7205174e-12
2.1976416e-07
3.2691221e-12
2.364425e-07
3.5292248e-12
2.4588204e-07
3.2766157e-12
2.5091747e-07
2.5313653e-12
2.5342233e-07
1.278106e-12
2.5456365e-07
-2.1875732e-13
2.5499244e-07
-1.7215061e-12
2.5499243e-07
-2.9444667e-12
2.5456356e-07
-3.7068392e-12
2.5342216e-07
-3.8994932e-12
2.5091728e-07
-3.6108613e-12
2.4588174e-07
-3.0088703e-12
2.3644221e-07
-2.2352739e-12
2.1976386e-07
-1.3644811e-12
1.9156195e-07
-5.0776031e-13
1.4495726e-07
6.766978e-08
1.5615533e-12
6.7668286e-08
3.0860122e-12
1.4495591e-07
3.9011515e-12
1.9156145e-07
4.1705273e-12
2.1976388e-07
4.1550446e-12
2.3644254e-07
3.8576422e-12
2.4588234e-07
3.2526044e-12
2.5091806e-07
2.3104554e-12
2.5342326e-07
1.0941191e-12
2.5456484e-07
-2.3115859e-13
2.5499381e-07
-1.5850717e-12
2.5499377e-07
-2.8098128e-12
2.5456476e-07
-3.7097857e-12
2.5342309e-07
-4.2945449e-12
2.5091783e-07
-4.5389774e-12
2.4588199e-07
-4.4911754e-12
2.3644214e-07
-4.0972575e-12
2.1976346e-07
-3.2053495e-12
1.9156107e-07
-1.5783356e-12
1.4495565e-07
6.76682e-08
3.2958733e-12
6.7665012e-08
5.4454093e-12
1.4495377e-07
6.0827632e-12
1.9156081e-07
5.91399e-12
2.1976404e-07
5.3575736e-12
2.3644307e-07
4.5472708e-12
2.4588313e-07
3.5850086e-12
2.5091907e-07
2.4166511e-12
2.5342442e-07
1.0920775e-12
2.5456614e-07
-2.5356837e-13
2.5499518e-07
-1.6241766e-12
2.5499516e-07
-2.9442952e-12
2.5456604e-07
-4.0683861e-12
2.5342423e-07
-5.0207382e-12
2.5091878e-07
-5.7910503e-12
2.4588274e-07
-6.2406053e-12
2.3644264e-07
-6.3106992e-12
2.1976354e-07
-5.581172e-12
1.9156034e-07
-3.3266351e-12
1.449534e-07
6.7664867e-08
3.9577946e-12
6.3215684e-12
6.9994267e-12
6.6984691e-12
5.9834394e-12
4.9508874e-12
3.8003337e-12
2.4856866e-12
1.1142538e-12
-2.6375589e-13
-1.6782719e-12
-3.0313728e-12
-4.3224693e-12
-5.4475748e-12
-6.3870523e-12
-7.0678067e-12
-7.2332628e-12
-6.4695648e-12
-3.9978586e-12
)
;

boundaryField
{
    Wall
    {
        type            calculated;
        value           uniform 0;
    }
    frontAndBack
    {
        type            empty;
        value           nonuniform 0();
    }
    atmosphere
    {
        type            calculated;
        value           nonuniform List<scalar> 
20
(
6.7661004e-08
1.4495138e-07
1.9156014e-07
2.1976432e-07
2.3644381e-07
2.4588413e-07
2.5092025e-07
2.5342574e-07
2.5456752e-07
2.5499662e-07
2.5499655e-07
2.545674e-07
2.5342553e-07
2.5091993e-07
2.458837e-07
2.3644328e-07
2.1976374e-07
1.915596e-07
1.4495089e-07
6.7660826e-08
)
;
    }
}


// ************************************************************************* //
