/*--------------------------------*- C++ -*----------------------------------*\
| =========                 |                                                 |
| \\      /  F ield         | OpenFOAM: The Open Source CFD Toolbox           |
|  \\    /   O peration     | Version:  3.0.1                                 |
|   \\  /    A nd           | Web:      www.OpenFOAM.org                      |
|    \\/     M anipulation  |                                                 |
\*---------------------------------------------------------------------------*/
FoamFile
{
    version     2.0;
    format      ascii;
    class       volScalarField;
    location    "19";
    object      Psi2;
}
// * * * * * * * * * * * * * * * * * * * * * * * * * * * * * * * * * * * * * //

dimensions      [0 -2 2 0 0 0 0];

internalField   nonuniform List<scalar> 
800
(
0.0015299973
0.0015299602
0.0015299626
0.0015299664
0.0015299694
0.0015299717
0.0015299735
0.0015299747
0.0015299755
0.0015299759
0.0015299759
0.0015299755
0.0015299747
0.0015299735
0.0015299717
0.0015299694
0.0015299664
0.0015299626
0.0015299602
0.0015299973
0.0016068929
0.0016043288
0.0016040362
0.0016040056
0.0016040003
0.0016039829
0.00160396
0.0016039389
0.0016039238
0.001603916
0.001603916
0.0016039238
0.0016039389
0.00160396
0.0016039829
0.0016040003
0.0016040055
0.0016040361
0.0016043288
0.0016068929
0.0016951023
0.0016913585
0.0016899532
0.0016898497
0.0016898209
0.0016897794
0.0016897316
0.0016896891
0.0016896587
0.001689643
0.0016896429
0.0016896587
0.0016896891
0.0016897316
0.0016897794
0.0016898209
0.0016898497
0.0016899532
0.0016913584
0.0016951024
0.001812275
0.0018058661
0.0018035673
0.0018034576
0.0018034214
0.0018033649
0.0018032961
0.0018032339
0.0018031893
0.0018031662
0.0018031662
0.0018031893
0.0018032339
0.0018032961
0.0018033649
0.0018034214
0.0018034575
0.0018035672
0.0018058661
0.0018122751
0.0019967442
0.0019851834
0.0019820002
0.0019799688
0.0019799123
0.0019798267
0.0019797247
0.0019796347
0.0019795708
0.0019795379
0.0019795379
0.0019795708
0.0019796347
0.0019797247
0.0019798267
0.0019799123
0.0019799687
0.0019820002
0.0019851834
0.0019967443
0.0023062282
0.0022832302
0.0022786442
0.0022758055
0.0022755946
0.0022753843
0.002275193
0.0022750444
0.002274944
0.0022748938
0.0022748938
0.002274944
0.0022750444
0.002275193
0.0022753843
0.0022755946
0.0022758055
0.0022786441
0.0022832302
0.0023062283
0.0027618512
0.002725546
0.0027182251
0.0027149113
0.0027142096
0.0027136839
0.0027132995
0.0027130406
0.0027128784
0.0027128016
0.0027128016
0.0027128784
0.0027130406
0.0027132996
0.0027136839
0.0027142096
0.0027149113
0.002718225
0.002725546
0.0027618513
0.0034656182
0.0033996651
0.0033831921
0.003378604
0.0033768811
0.0033757735
0.003375071
0.0033746366
0.0033743849
0.0033742717
0.0033742717
0.003374385
0.0033746367
0.0033750711
0.0033757735
0.0033768811
0.0033786039
0.003383192
0.003399665
0.0034656182
0.0046619924
0.0045358577
0.0044953948
0.0044878921
0.0044846678
0.0044828844
0.0044818956
0.0044813269
0.0044810274
0.0044809012
0.0044809013
0.0044810275
0.0044813271
0.0044818957
0.0044828845
0.0044846678
0.004487892
0.0044953946
0.0045358574
0.0046619922
0.0062755145
0.006095698
0.0060348944
0.0060221177
0.0060181617
0.0060168684
0.0060165155
0.006016438
0.006016474
0.0060165291
0.0060165291
0.0060164742
0.0060164383
0.0060165157
0.0060168683
0.0060181614
0.0060221173
0.0060348938
0.0060956972
0.0062755137
0.0080358088
0.0077312912
0.0076274415
0.0076050649
0.0076038647
0.0076071193
0.0076104133
0.0076127502
0.0076142266
0.0076149951
0.0076149953
0.0076142269
0.0076127507
0.0076104134
0.0076071191
0.0076038641
0.0076050642
0.0076274406
0.00773129
0.0080358073
0.0096218897
0.0091189316
0.0089538763
0.0089146465
0.008916758
0.0089284838
0.0089395284
0.0089474058
0.0089522902
0.0089547124
0.0089547126
0.0089522906
0.0089474065
0.0089395287
0.0089284837
0.0089167575
0.0089146459
0.0089538756
0.0091189305
0.0096218882
0.010554238
0.010072295
0.0098805351
0.0098229739
0.0098198812
0.009833733
0.0098491962
0.0098611738
0.0098689122
0.0098727693
0.0098727696
0.0098689128
0.0098611746
0.0098491967
0.009833733
0.0098198809
0.0098229735
0.0098805346
0.010072295
0.010554237
0.010877253
0.010596148
0.010438508
0.010378512
0.010368185
0.010377186
0.010390432
0.010401708
0.010409343
0.010413215
0.010413215
0.010409343
0.010401708
0.010390432
0.010377186
0.010368185
0.010378512
0.010438508
0.010596148
0.010877253
0.010950144
0.010831967
0.010732176
0.010684746
0.010671994
0.010675429
0.010683814
0.010691737
0.010697357
0.010700261
0.010700261
0.010697357
0.010691738
0.010683814
0.010675429
0.010671994
0.010684746
0.010732176
0.010831967
0.010950144
0.010962361
0.010921971
0.010869917
0.010839253
0.010828468
0.010828667
0.010832958
0.010837547
0.010840959
0.010842754
0.010842754
0.010840959
0.010837548
0.010832958
0.010828667
0.010828468
0.010839253
0.010869917
0.010921971
0.010962361
0.010964036
0.010951999
0.010928569
0.010911506
0.010904196
0.010903285
0.010905128
0.01090744
0.010909247
0.010910215
0.010910215
0.010909247
0.01090744
0.010905128
0.010903285
0.010904196
0.010911506
0.010928569
0.010951999
0.010964036
0.010964237
0.010960982
0.010951582
0.010943135
0.010938877
0.010937933
0.010938596
0.01093964
0.010940503
0.010940974
0.010940974
0.010940503
0.01093964
0.010938596
0.010937933
0.010938877
0.010943135
0.010951582
0.010960982
0.010964237
0.010964259
0.010963442
0.010960001
0.010956195
0.010953982
0.010953327
0.010953515
0.010953945
0.010954323
0.010954535
0.010954535
0.010954324
0.010953945
0.010953515
0.010953327
0.010953982
0.010956195
0.010960001
0.010963442
0.010964259
0.010964261
0.010964068
0.010962899
0.010961313
0.010960262
0.010959887
0.010959916
0.010960079
0.010960234
0.010960322
0.010960322
0.010960234
0.010960079
0.010959916
0.010959887
0.010960262
0.010961313
0.010962899
0.010964068
0.010964261
0.010964261
0.010964218
0.010963844
0.010963226
0.010962763
0.010962573
0.010962563
0.01096262
0.01096268
0.010962714
0.010962714
0.01096268
0.01096262
0.010962563
0.010962573
0.010962763
0.010963226
0.010963844
0.010964218
0.010964261
0.010964261
0.010964252
0.010964138
0.010963911
0.010963719
0.010963632
0.010963619
0.010963637
0.010963659
0.010963672
0.010963672
0.010963659
0.010963637
0.010963619
0.010963632
0.010963719
0.010963911
0.010964138
0.010964252
0.010964261
0.010964261
0.010964259
0.010964226
0.010964147
0.010964072
0.010964034
0.010964026
0.010964031
0.010964039
0.010964043
0.010964043
0.010964039
0.010964031
0.010964026
0.010964034
0.010964072
0.010964147
0.010964226
0.010964259
0.010964261
0.010964261
0.010964261
0.010964251
0.010964225
0.010964197
0.010964182
0.010964178
0.010964179
0.010964181
0.010964183
0.010964183
0.010964181
0.010964179
0.010964178
0.010964182
0.010964197
0.010964225
0.010964251
0.010964261
0.010964261
0.010964261
0.010964261
0.010964258
0.01096425
0.01096424
0.010964234
0.010964232
0.010964232
0.010964233
0.010964234
0.010964234
0.010964233
0.010964232
0.010964232
0.010964234
0.01096424
0.01096425
0.010964258
0.010964261
0.010964261
0.010964261
0.010964261
0.01096426
0.010964258
0.010964254
0.010964252
0.010964251
0.010964251
0.010964252
0.010964252
0.010964252
0.010964252
0.010964251
0.010964251
0.010964252
0.010964254
0.010964258
0.01096426
0.010964261
0.010964261
0.010964261
0.010964261
0.010964261
0.01096426
0.010964259
0.010964258
0.010964258
0.010964258
0.010964258
0.010964258
0.010964258
0.010964258
0.010964258
0.010964258
0.010964258
0.010964259
0.01096426
0.010964261
0.010964261
0.010964261
0.010964261
0.010964261
0.010964261
0.010964261
0.01096426
0.01096426
0.01096426
0.01096426
0.01096426
0.01096426
0.01096426
0.01096426
0.01096426
0.01096426
0.01096426
0.01096426
0.010964261
0.010964261
0.010964261
0.010964261
0.010964261
0.010964261
0.010964261
0.010964261
0.010964261
0.010964261
0.010964261
0.010964261
0.010964261
0.010964261
0.010964261
0.010964261
0.010964261
0.010964261
0.010964261
0.010964261
0.010964261
0.010964261
0.010964261
0.010964261
0.010964261
0.010964261
0.010964261
0.010964261
0.010964261
0.010964261
0.010964261
0.010964261
0.010964261
0.010964261
0.010964261
0.010964261
0.010964261
0.010964261
0.010964261
0.010964261
0.010964261
0.010964261
0.010964261
0.010964261
0.010964261
0.010964261
0.010964261
0.010964261
0.010964261
0.010964261
0.010964261
0.010964261
0.010964261
0.010964261
0.010964261
0.010964261
0.010964261
0.010964261
0.010964261
0.010964261
0.010964261
0.010964261
0.010964261
0.010964261
0.010964261
0.010964261
0.010964261
0.010964261
0.010964261
0.010964261
0.010964261
0.010964261
0.010964261
0.010964261
0.010964261
0.010964261
0.010964261
0.010964261
0.010964261
0.010964261
0.010964261
0.010964261
0.010964261
0.010964261
0.010964261
0.010964261
0.010964261
0.010964261
0.010964261
0.010964261
0.010964261
0.010964261
0.010964261
0.010964261
0.010964261
0.010964261
0.010964261
0.010964261
0.010964261
0.010964261
0.010964261
0.010964261
0.010964261
0.010964261
0.010964261
0.010964261
0.010964261
0.010964261
0.010964261
0.010964261
0.010964261
0.010964261
0.010964261
0.010964261
0.010964261
0.010964261
0.010964261
0.010964261
0.010964261
0.010964261
0.010964261
0.010964261
0.010964261
0.010964261
0.010964261
0.010964261
0.010964261
0.010964261
0.010964261
0.010964261
0.010964261
0.010964261
0.010964261
0.010964261
0.010964261
0.010964261
0.010964261
0.010964261
0.010964261
0.010964261
0.010964261
0.010964261
0.010964261
0.010964261
0.010964261
0.010964261
0.010964261
0.010964261
0.010964261
0.010964261
0.010964261
0.010964261
0.010964261
0.010964261
0.010964261
0.010964261
0.010964261
0.010964261
0.010964261
0.010964261
0.010964261
0.010964261
0.010964261
0.010964261
0.010964261
0.010964261
0.010964261
0.010964261
0.010964261
0.010964261
0.010964261
0.010964261
0.010964261
0.010964261
0.010964261
0.010964261
0.010964261
0.010964261
0.010964261
0.010964261
0.010964261
0.010964261
0.010964261
0.010964261
0.010964261
0.010964261
0.010964261
0.010964261
0.010964261
0.010964261
0.010964261
0.010964261
0.010964261
0.010964261
0.010964261
0.010964261
0.010964261
0.010964261
0.010964261
0.010964261
0.010964261
0.010964261
0.010964261
0.010964261
0.010964261
0.010964261
0.010964261
0.010964261
0.010964261
0.010964261
0.010964261
0.010964261
0.010964261
0.010964261
0.010964261
0.010964261
0.010964261
0.010964261
0.010964261
0.010964261
0.010964261
0.010964261
0.010964261
0.010964261
0.010964261
0.010964261
0.010964261
0.010964261
0.010964261
0.010964261
0.010964261
0.010964261
0.010964261
0.010964261
0.010964261
0.010964261
0.010964261
0.010964261
0.010964261
0.010964261
0.010964261
0.010964261
0.010964261
0.010964261
)
;

boundaryField
{
    Wall
    {
        type            calculated;
        value           nonuniform List<scalar> 
100
(
9.9999997e-21
9.9999997e-21
9.9999997e-21
9.9999997e-21
9.9999997e-21
9.9999997e-21
9.9999998e-21
9.9999998e-21
9.9999999e-21
1e-20
1e-20
1e-20
1e-20
1e-20
1e-20
1e-20
1e-20
1e-20
1e-20
1e-20
1e-20
1e-20
1e-20
1e-20
1e-20
1e-20
1e-20
1e-20
1e-20
1e-20
1e-20
1e-20
1e-20
1e-20
1e-20
1e-20
1e-20
1e-20
1e-20
1e-20
9.9999997e-21
9.9999997e-21
9.9999997e-21
9.9999997e-21
9.9999997e-21
9.9999997e-21
9.9999998e-21
9.9999998e-21
9.9999999e-21
1e-20
1e-20
1e-20
1e-20
1e-20
1e-20
1e-20
1e-20
1e-20
1e-20
1e-20
1e-20
1e-20
1e-20
1e-20
1e-20
1e-20
1e-20
1e-20
1e-20
1e-20
1e-20
1e-20
1e-20
1e-20
1e-20
1e-20
1e-20
1e-20
1e-20
1e-20
9.9999997e-21
9.9999997e-21
9.9999997e-21
9.9999997e-21
9.9999997e-21
9.9999997e-21
9.9999997e-21
9.9999997e-21
9.9999997e-21
9.9999997e-21
9.9999997e-21
9.9999997e-21
9.9999997e-21
9.9999997e-21
9.9999997e-21
9.9999997e-21
9.9999997e-21
9.9999997e-21
9.9999997e-21
9.9999997e-21
)
;
    }
    frontAndBack
    {
        type            empty;
    }
    atmosphere
    {
        type            calculated;
        value           uniform 1e-20;
    }
}


// ************************************************************************* //
