/*--------------------------------*- C++ -*----------------------------------*\
| =========                 |                                                 |
| \\      /  F ield         | OpenFOAM: The Open Source CFD Toolbox           |
|  \\    /   O peration     | Version:  3.0.1                                 |
|   \\  /    A nd           | Web:      www.OpenFOAM.org                      |
|    \\/     M anipulation  |                                                 |
\*---------------------------------------------------------------------------*/
FoamFile
{
    version     2.0;
    format      ascii;
    class       volScalarField;
    location    "19";
    object      rho;
}
// * * * * * * * * * * * * * * * * * * * * * * * * * * * * * * * * * * * * * //

dimensions      [1 -3 0 0 0 0 0];

internalField   nonuniform List<scalar> 
800
(
152.99973
152.99603
152.99626
152.99664
152.99694
152.99718
152.99735
152.99747
152.99755
152.99759
152.99759
152.99755
152.99747
152.99735
152.99718
152.99694
152.99664
152.99626
152.99603
152.99973
160.68929
160.43288
160.40362
160.40056
160.40003
160.39829
160.396
160.3939
160.39238
160.3916
160.3916
160.39238
160.3939
160.396
160.39829
160.40003
160.40056
160.40362
160.43288
160.68929
169.50822
169.13395
168.99344
168.98309
168.98021
168.97606
168.97127
168.96702
168.96398
168.96241
168.96241
168.96398
168.96702
168.97127
168.97606
168.9802
168.98308
168.99344
169.13395
169.50822
181.21693
180.57677
180.34696
180.33598
180.33234
180.3267
180.31981
180.31359
180.30913
180.30682
180.30682
180.30913
180.31359
180.31981
180.32669
180.33234
180.33597
180.34696
180.57677
181.21694
199.63736
198.48437
198.16642
197.96329
197.95762
197.94904
197.93884
197.92983
197.92344
197.92015
197.92015
197.92344
197.92983
197.93884
197.94904
197.95761
197.96329
198.16642
198.48437
199.63737
230.49276
228.20762
227.75095
227.46748
227.44641
227.42536
227.40621
227.39133
227.38127
227.37624
227.37624
227.38127
227.39133
227.40621
227.42536
227.44641
227.46748
227.75095
228.20762
230.49278
275.55479
272.02704
271.31194
270.98463
270.91543
270.86299
270.82442
270.79827
270.78186
270.77406
270.77406
270.78187
270.79827
270.82442
270.86299
270.91543
270.98462
271.31194
272.02704
275.55481
338.54438
334.08911
332.8256
332.45485
332.30812
332.19921
332.124
332.07333
332.04275
332.02818
332.02818
332.04276
332.07335
332.12403
332.19924
332.30814
332.45487
332.82562
334.08913
338.54444
293.23391
313.71164
316.9482
317.80087
317.94921
317.79135
317.58716
317.38983
317.25478
317.17999
317.18001
317.25486
317.38997
317.58738
317.79167
317.9496
317.80133
316.94869
313.7122
293.23457
64.80402
80.993899
84.550133
85.319063
85.501171
85.435575
85.317492
85.193071
85.105475
85.055764
85.055783
85.105526
85.193167
85.317648
85.435796
85.50145
85.319394
84.550487
80.99428
64.804379
3.5025211
4.9085561
5.3065926
5.3650182
5.3708721
5.3584369
5.3437352
5.3301816
5.3209426
5.3158028
5.3158044
5.320947
5.3301898
5.3437487
5.3584562
5.3708968
5.3650473
5.3066238
4.9085879
3.5025441
1.2080388
1.2218997
1.2273743
1.2278006
1.2275342
1.2271476
1.2268272
1.2265845
1.22643
1.2263489
1.2263489
1.22643
1.2265846
1.2268273
1.2271478
1.2275345
1.2278008
1.2273746
1.2219
1.2080389
1.2000019
1.2000112
1.2000181
1.2000186
1.200018
1.2000173
1.2000166
1.2000162
1.200016
1.2000159
1.2000159
1.200016
1.2000162
1.2000166
1.2000173
1.200018
1.2000186
1.2000181
1.2000112
1.2000019
1.2000004
1.2000009
1.2000009
1.2000009
1.200001
1.200001
1.2000011
1.2000011
1.2000011
1.2000011
1.2000011
1.2000011
1.2000011
1.2000011
1.200001
1.200001
1.2000009
1.2000009
1.2000009
1.2000004
1.2000001
1.2000005
1.2000007
1.2000008
1.2000009
1.2000009
1.2000009
1.2000009
1.2000009
1.2000008
1.2000008
1.2000009
1.2000009
1.2000009
1.2000009
1.2000009
1.2000008
1.2000007
1.2000005
1.2000001
1.2
1.2000002
1.2000005
1.2000006
1.2000006
1.2000006
1.2000006
1.2000006
1.2000006
1.2000006
1.2000006
1.2000006
1.2000006
1.2000006
1.2000006
1.2000006
1.2000006
1.2000005
1.2000002
1.2
1.2
1.2000001
1.2000003
1.2000004
1.2000004
1.2000004
1.2000004
1.2000004
1.2000004
1.2000004
1.2000004
1.2000004
1.2000004
1.2000004
1.2000004
1.2000004
1.2000004
1.2000003
1.2000001
1.2
1.2
1.2
1.2000001
1.2000002
1.2000003
1.2000003
1.2000003
1.2000003
1.2000003
1.2000003
1.2000003
1.2000003
1.2000003
1.2000003
1.2000003
1.2000003
1.2000002
1.2000001
1.2
1.2
1.2
1.2
1.2000001
1.2000001
1.2000002
1.2000002
1.2000002
1.2000002
1.2000002
1.2000002
1.2000002
1.2000002
1.2000002
1.2000002
1.2000002
1.2000002
1.2000001
1.2000001
1.2
1.2
1.2
1.2
1.2
1.2000001
1.2000001
1.2000001
1.2000001
1.2000001
1.2000001
1.2000001
1.2000001
1.2000001
1.2000001
1.2000001
1.2000001
1.2000001
1.2000001
1.2
1.2
1.2
1.2
1.2
1.2
1.2
1.2
1.2
1.2
1.2
1.2
1.2
1.2
1.2
1.2
1.2
1.2
1.2
1.2
1.2
1.2
1.2
1.2
1.2
1.2
1.2
1.2
1.2
1.2
1.2
1.2
1.2
1.2
1.2
1.2
1.2
1.2
1.2
1.2
1.2
1.2
1.2
1.2
1.2
1.2
1.2
1.2
1.2
1.2
1.2
1.2
1.2
1.2
1.2
1.2
1.2
1.2
1.2
1.2
1.2
1.2
1.2
1.2
1.2
1.2
1.2
1.2
1.2
1.2
1.2
1.2
1.2
1.2
1.2
1.2
1.2
1.2
1.2
1.2
1.2
1.2
1.2
1.2
1.2
1.2
1.2
1.2
1.2
1.2
1.2
1.2
1.2
1.2
1.2
1.2
1.2
1.2
1.2
1.2
1.2
1.2
1.2
1.2
1.2
1.2
1.2
1.2
1.2
1.2
1.2
1.2
1.2
1.2
1.2
1.2
1.2
1.2
1.2
1.2
1.2
1.2
1.2
1.2
1.2
1.2
1.2
1.2
1.2
1.2
1.2
1.2
1.2
1.2
1.2
1.2
1.2
1.2
1.2
1.2
1.2
1.2
1.2
1.2
1.2
1.2
1.2
1.2
1.2
1.2
1.2
1.2
1.2
1.2
1.2
1.2
1.2
1.2
1.2
1.2
1.2
1.2
1.2
1.2
1.2
1.2
1.2
1.2
1.2
1.2
1.2
1.2
1.2
1.2
1.2
1.2
1.2
1.2
1.2
1.2
1.2
1.2
1.2
1.2
1.2
1.2
1.2
1.2
1.2
1.2
1.2
1.2
1.2
1.2
1.2
1.2
1.2
1.2
1.2
1.2
1.2
1.2
1.2
1.2
1.2
1.2
1.2
1.2
1.2
1.2
1.2
1.2
1.2
1.2
1.2
1.2
1.2
1.2
1.2
1.2
1.2
1.2
1.2
1.2
1.2
1.2
1.2
1.2
1.2
1.2
1.2
1.2
1.2
1.2
1.2
1.2
1.2
1.2
1.2
1.2
1.2
1.2
1.2
1.2
1.2
1.2
1.2
1.2
1.2
1.2
1.2
1.2
1.2
1.2
1.2
1.2
1.2
1.2
1.2
1.2
1.2
1.2
1.2
1.2
1.2
1.2
1.2
1.2
1.2
1.2
1.2
1.2
1.2
1.2
1.2
1.2
1.2
1.2
1.2
1.2
1.2
1.2
1.2
1.2
1.2
1.2
1.2
1.2
1.2
1.2
1.2
1.2
1.2
1.2
1.2
1.2
1.2
1.2
1.2
1.2
1.2
1.2
1.2
1.2
1.2
1.2
1.2
1.2
1.2
1.2
1.2
1.2
1.2
1.2
1.2
1.2
1.2
1.2
1.2
1.2
1.2
1.2
1.2
1.2
1.2
1.2
1.2
1.2
1.2
1.2
1.2
1.2
1.2
1.2
1.2
1.2
1.2
1.2
1.2
1.2
1.2
1.2
1.2
1.2
1.2
1.2
1.2
1.2
1.2
1.2
1.2
1.2
1.2
1.2
1.2
1.2
1.2
1.2
1.2
1.2
1.2
1.2
1.2
1.2
1.2
1.2
1.2
1.2
1.2
1.2
1.2
1.2
1.2
1.2
1.2
1.2
1.2
1.2
1.2
1.2
1.2
1.2
1.2
1.2
1.2
1.2
1.2
1.2
1.2
1.2
1.2
1.2
1.2
1.2
1.2
1.2
1.2
1.2
1.2
1.2
1.2
1.2
1.2
)
;

boundaryField
{
    Wall
    {
        type            calculated;
        value           nonuniform List<scalar> 
100
(
1e-15
4.2279516e-12
1.4377013e-05
7.0456943e-05
0.00022413478
0.0006802723
0.0027506984
0.027857543
0.44636286
1.0781438
1.1965565
1.19999
1.2
1.2
1.2
1.2
1.2
1.2
1.2
1.2
1.2
1.2
1.2
1.2
1.2
1.2
1.2
1.2
1.2
1.2
1.2
1.2
1.2
1.2
1.2
1.2
1.2
1.2
1.2
1.2
1e-15
1.9423234e-14
1.4377013e-05
7.0456908e-05
0.0002241345
0.00068027073
0.0027506878
0.027857355
0.44636114
1.0781431
1.1965564
1.19999
1.2
1.2
1.2
1.2
1.2
1.2
1.2
1.2
1.2
1.2
1.2
1.2
1.2
1.2
1.2
1.2
1.2
1.2
1.2
1.2
1.2
1.2
1.2
1.2
1.2
1.2
1.2
1.2
1e-15
1e-15
1.0000005e-15
1.000001e-15
1e-15
1.0000013e-15
1.0000011e-15
1.0000001e-15
1e-15
1e-15
1e-15
1e-15
1e-15
1.0000001e-15
1.0000001e-15
1e-15
1e-15
1e-15
1e-15
1e-15
)
;
    }
    frontAndBack
    {
        type            empty;
    }
    atmosphere
    {
        type            calculated;
        value           nonuniform List<scalar> 
20
(
1.2
1.2
1.2
1.2
1.2
1.2
1.2
1.2
1.2
1.2
1.2
1.2
1.2
1.2
1.2
1.2
1.2
1.2
1.2
1.2
)
;
    }
}


// ************************************************************************* //
