/*--------------------------------*- C++ -*----------------------------------*\
| =========                 |                                                 |
| \\      /  F ield         | OpenFOAM: The Open Source CFD Toolbox           |
|  \\    /   O peration     | Version:  3.0.1                                 |
|   \\  /    A nd           | Web:      www.OpenFOAM.org                      |
|    \\/     M anipulation  |                                                 |
\*---------------------------------------------------------------------------*/
FoamFile
{
    version     2.0;
    format      ascii;
    class       volScalarField;
    location    "19";
    object      rho_foam;
}
// * * * * * * * * * * * * * * * * * * * * * * * * * * * * * * * * * * * * * //

dimensions      [1 -3 0 0 0 0 0];

internalField   nonuniform List<scalar> 
800
(
152.99973
152.99603
152.99626
152.99664
152.99694
152.99718
152.99735
152.99747
152.99755
152.99759
152.99759
152.99755
152.99747
152.99735
152.99718
152.99694
152.99664
152.99626
152.99603
152.99973
160.68929
160.43288
160.40362
160.40056
160.40003
160.39829
160.396
160.3939
160.39238
160.3916
160.3916
160.39238
160.3939
160.396
160.39829
160.40003
160.40056
160.40362
160.43288
160.68929
169.51024
169.13585
168.99533
168.98497
168.9821
168.97795
168.97316
168.96891
168.96587
168.9643
168.9643
168.96587
168.96891
168.97316
168.97795
168.9821
168.98497
168.99532
169.13585
169.51024
181.2275
180.58662
180.35673
180.34576
180.34214
180.3365
180.32961
180.3234
180.31894
180.31662
180.31662
180.31894
180.3234
180.32961
180.3365
180.34214
180.34576
180.35673
180.58662
181.22751
199.67443
198.51835
198.20003
197.99688
197.99124
197.98268
197.97248
197.96348
197.95708
197.95379
197.95379
197.95709
197.96348
197.97248
197.98267
197.99123
197.99688
198.20003
198.51834
199.67444
230.62282
228.32303
227.86442
227.58056
227.55947
227.53844
227.51931
227.50445
227.4944
227.48939
227.48939
227.49441
227.50445
227.51931
227.53844
227.55947
227.58055
227.86442
228.32303
230.62283
276.18513
272.55461
271.82251
271.49114
271.42097
271.3684
271.32996
271.30406
271.28785
271.28016
271.28016
271.28785
271.30407
271.32996
271.3684
271.42097
271.49114
271.82251
272.55461
276.18514
346.56182
339.96651
338.31921
337.86041
337.68811
337.57735
337.50711
337.46366
337.4385
337.42717
337.42718
337.4385
337.46368
337.50712
337.57736
337.68811
337.8604
338.3192
339.9665
346.56183
466.19924
453.58577
449.53949
448.78921
448.46678
448.28844
448.18956
448.1327
448.10274
448.09013
448.09013
448.10275
448.13272
448.18958
448.28845
448.46678
448.7892
449.53947
453.58574
466.19923
627.55146
609.5698
603.48945
602.21177
601.81617
601.68684
601.65155
601.6438
601.6474
601.65291
601.65292
601.64742
601.64383
601.65157
601.68683
601.81614
602.21173
603.48938
609.56972
627.55137
803.58088
773.12912
762.74415
760.50649
760.38647
760.71193
761.04133
761.27502
761.42266
761.49951
761.49953
761.42269
761.27507
761.04135
760.71191
760.38641
760.50642
762.74406
773.129
803.58073
962.18898
911.89316
895.38763
891.46465
891.6758
892.84838
893.95284
894.74058
895.22902
895.47124
895.47126
895.22906
894.74065
893.95287
892.84837
891.67575
891.46459
895.38756
911.89305
962.18882
1055.4238
1007.2295
988.05351
982.29739
981.98812
983.3733
984.91962
986.11738
986.89122
987.27693
987.27696
986.89128
986.11746
984.91967
983.3733
981.98809
982.29735
988.05346
1007.2295
1055.4237
1087.7253
1059.6148
1043.8508
1037.8512
1036.8185
1037.7186
1039.0432
1040.1708
1040.9343
1041.3215
1041.3215
1040.9343
1040.1708
1039.0432
1037.7186
1036.8185
1037.8512
1043.8508
1059.6148
1087.7253
1095.0144
1083.1967
1073.2176
1068.4746
1067.1994
1067.5429
1068.3814
1069.1737
1069.7357
1070.0261
1070.0261
1069.7357
1069.1738
1068.3814
1067.5429
1067.1994
1068.4746
1073.2176
1083.1967
1095.0144
1096.2361
1092.1971
1086.9917
1083.9253
1082.8468
1082.8667
1083.2958
1083.7547
1084.0959
1084.2754
1084.2754
1084.0959
1083.7548
1083.2958
1082.8667
1082.8468
1083.9253
1086.9917
1092.1971
1096.2361
1096.4036
1095.1999
1092.8569
1091.1506
1090.4196
1090.3285
1090.5128
1090.744
1090.9247
1091.0215
1091.0215
1090.9247
1090.744
1090.5128
1090.3285
1090.4196
1091.1506
1092.8569
1095.1999
1096.4036
1096.4237
1096.0982
1095.1582
1094.3135
1093.8877
1093.7933
1093.8596
1093.964
1094.0503
1094.0974
1094.0974
1094.0503
1093.964
1093.8596
1093.7933
1093.8877
1094.3135
1095.1582
1096.0982
1096.4237
1096.4259
1096.3442
1096.0001
1095.6195
1095.3982
1095.3327
1095.3515
1095.3945
1095.4323
1095.4535
1095.4535
1095.4324
1095.3945
1095.3515
1095.3327
1095.3982
1095.6195
1096.0001
1096.3442
1096.4259
1096.4261
1096.4068
1096.2899
1096.1313
1096.0262
1095.9887
1095.9916
1096.0079
1096.0234
1096.0322
1096.0322
1096.0234
1096.0079
1095.9916
1095.9887
1096.0262
1096.1313
1096.2899
1096.4068
1096.4261
1096.4261
1096.4218
1096.3844
1096.3226
1096.2763
1096.2573
1096.2563
1096.262
1096.268
1096.2714
1096.2714
1096.268
1096.262
1096.2563
1096.2573
1096.2763
1096.3226
1096.3844
1096.4218
1096.4261
1096.4261
1096.4252
1096.4138
1096.3911
1096.3719
1096.3632
1096.3619
1096.3637
1096.3659
1096.3672
1096.3672
1096.3659
1096.3637
1096.3619
1096.3632
1096.3719
1096.3911
1096.4138
1096.4252
1096.4261
1096.4261
1096.4259
1096.4226
1096.4147
1096.4072
1096.4034
1096.4026
1096.4031
1096.4039
1096.4043
1096.4043
1096.4039
1096.4031
1096.4026
1096.4034
1096.4072
1096.4147
1096.4226
1096.4259
1096.4261
1096.4261
1096.4261
1096.4251
1096.4225
1096.4197
1096.4182
1096.4178
1096.4179
1096.4181
1096.4183
1096.4183
1096.4181
1096.4179
1096.4178
1096.4182
1096.4197
1096.4225
1096.4251
1096.4261
1096.4261
1096.4261
1096.4261
1096.4258
1096.425
1096.424
1096.4234
1096.4232
1096.4233
1096.4233
1096.4234
1096.4234
1096.4233
1096.4233
1096.4232
1096.4234
1096.424
1096.425
1096.4258
1096.4261
1096.4261
1096.4261
1096.4261
1096.426
1096.4258
1096.4254
1096.4252
1096.4251
1096.4251
1096.4252
1096.4252
1096.4252
1096.4252
1096.4251
1096.4251
1096.4252
1096.4254
1096.4258
1096.426
1096.4261
1096.4261
1096.4261
1096.4261
1096.4261
1096.426
1096.4259
1096.4258
1096.4258
1096.4258
1096.4258
1096.4258
1096.4258
1096.4258
1096.4258
1096.4258
1096.4258
1096.4259
1096.426
1096.4261
1096.4261
1096.4261
1096.4261
1096.4261
1096.4261
1096.4261
1096.426
1096.426
1096.426
1096.426
1096.426
1096.426
1096.426
1096.426
1096.426
1096.426
1096.426
1096.426
1096.4261
1096.4261
1096.4261
1096.4261
1096.4261
1096.4261
1096.4261
1096.4261
1096.4261
1096.4261
1096.4261
1096.4261
1096.4261
1096.4261
1096.4261
1096.4261
1096.4261
1096.4261
1096.4261
1096.4261
1096.4261
1096.4261
1096.4261
1096.4261
1096.4261
1096.4261
1096.4261
1096.4261
1096.4261
1096.4261
1096.4261
1096.4261
1096.4261
1096.4261
1096.4261
1096.4261
1096.4261
1096.4261
1096.4261
1096.4261
1096.4261
1096.4261
1096.4261
1096.4261
1096.4261
1096.4261
1096.4261
1096.4261
1096.4261
1096.4261
1096.4261
1096.4261
1096.4261
1096.4261
1096.4261
1096.4261
1096.4261
1096.4261
1096.4261
1096.4261
1096.4261
1096.4261
1096.4261
1096.4261
1096.4261
1096.4261
1096.4261
1096.4261
1096.4261
1096.4261
1096.4261
1096.4261
1096.4261
1096.4261
1096.4261
1096.4261
1096.4261
1096.4261
1096.4261
1096.4261
1096.4261
1096.4261
1096.4261
1096.4261
1096.4261
1096.4261
1096.4261
1096.4261
1096.4261
1096.4261
1096.4261
1096.4261
1096.4261
1096.4261
1096.4261
1096.4261
1096.4261
1096.4261
1096.4261
1096.4261
1096.4261
1096.4261
1096.4261
1096.4261
1096.4261
1096.4261
1096.4261
1096.4261
1096.4261
1096.4261
1096.4261
1096.4261
1096.4261
1096.4261
1096.4261
1096.4261
1096.4261
1096.4261
1096.4261
1096.4261
1096.4261
1096.4261
1096.4261
1096.4261
1096.4261
1096.4261
1096.4261
1096.4261
1096.4261
1096.4261
1096.4261
1096.4261
1096.4261
1096.4261
1096.4261
1096.4261
1096.4261
1096.4261
1096.4261
1096.4261
1096.4261
1096.4261
1096.4261
1096.4261
1096.4261
1096.4261
1096.4261
1096.4261
1096.4261
1096.4261
1096.4261
1096.4261
1096.4261
1096.4261
1096.4261
1096.4261
1096.4261
1096.4261
1096.4261
1096.4261
1096.4261
1096.4261
1096.4261
1096.4261
1096.4261
1096.4261
1096.4261
1096.4261
1096.4261
1096.4261
1096.4261
1096.4261
1096.4261
1096.4261
1096.4261
1096.4261
1096.4261
1096.4261
1096.4261
1096.4261
1096.4261
1096.4261
1096.4261
1096.4261
1096.4261
1096.4261
1096.4261
1096.4261
1096.4261
1096.4261
1096.4261
1096.4261
1096.4261
1096.4261
1096.4261
1096.4261
1096.4261
1096.4261
1096.4261
1096.4261
1096.4261
1096.4261
1096.4261
1096.4261
1096.4261
1096.4261
1096.4261
1096.4261
1096.4261
1096.4261
1096.4261
1096.4261
1096.4261
1096.4261
1096.4261
1096.4261
1096.4261
1096.4261
1096.4261
1096.4261
1096.4261
1096.4261
1096.4261
1096.4261
1096.4261
1096.4261
1096.4261
1096.4261
1096.4261
1096.4261
1096.4261
1096.4261
1096.4261
1096.4261
1096.4261
1096.4261
1096.4261
1096.4261
1096.4261
1096.4261
1096.4261
1096.4261
1096.4261
1096.4261
)
;

boundaryField
{
    Wall
    {
        type            zeroGradient;
    }
    frontAndBack
    {
        type            empty;
    }
    atmosphere
    {
        type            zeroGradient;
    }
}


// ************************************************************************* //
