/*--------------------------------*- C++ -*----------------------------------*\
| =========                 |                                                 |
| \\      /  F ield         | OpenFOAM: The Open Source CFD Toolbox           |
|  \\    /   O peration     | Version:  3.0.1                                 |
|   \\  /    A nd           | Web:      www.OpenFOAM.org                      |
|    \\/     M anipulation  |                                                 |
\*---------------------------------------------------------------------------*/
FoamFile
{
    version     2.0;
    format      ascii;
    class       volScalarField;
    location    "19";
    object      thermalDiff_foam;
}
// * * * * * * * * * * * * * * * * * * * * * * * * * * * * * * * * * * * * * //

dimensions      [0 2 -1 0 0 0 0];

internalField   nonuniform List<scalar> 
800
(
9.6415165e-08
9.6415988e-08
9.6415932e-08
9.6415846e-08
9.6415778e-08
9.6415725e-08
9.6415685e-08
9.6415657e-08
9.6415639e-08
9.641563e-08
9.641563e-08
9.6415639e-08
9.6415657e-08
9.6415685e-08
9.6415725e-08
9.6415778e-08
9.6415846e-08
9.6415933e-08
9.6415988e-08
9.6415165e-08
9.4772383e-08
9.48239e-08
9.4829771e-08
9.4830395e-08
9.4830511e-08
9.483087e-08
9.4831336e-08
9.4831763e-08
9.4832069e-08
9.4832227e-08
9.4832227e-08
9.4832069e-08
9.4831763e-08
9.4831336e-08
9.483087e-08
9.4830511e-08
9.4830395e-08
9.4829772e-08
9.4823901e-08
9.4772383e-08
9.3107352e-08
9.3173126e-08
9.3198039e-08
9.3199878e-08
9.32004e-08
9.3201145e-08
9.3201998e-08
9.3202752e-08
9.3203291e-08
9.3203569e-08
9.3203569e-08
9.3203291e-08
9.3202752e-08
9.3201998e-08
9.3201145e-08
9.32004e-08
9.3199878e-08
9.319804e-08
9.3173127e-08
9.3107352e-08
9.1203057e-08
9.12981e-08
9.1332398e-08
9.1334046e-08
9.1334603e-08
9.133546e-08
9.1336495e-08
9.1337425e-08
9.1338091e-08
9.1338437e-08
9.1338437e-08
9.1338091e-08
9.1337425e-08
9.1336495e-08
9.133546e-08
9.1334604e-08
9.1334047e-08
9.1332399e-08
9.12981e-08
9.1203056e-08
8.8794195e-08
8.8925726e-08
8.8962206e-08
8.8985691e-08
8.8986372e-08
8.898738e-08
8.8988565e-08
8.8989605e-08
8.8990342e-08
8.899072e-08
8.899072e-08
8.8990341e-08
8.8989605e-08
8.8988565e-08
8.898738e-08
8.8986372e-08
8.8985692e-08
8.8962206e-08
8.8925726e-08
8.8794194e-08
8.5969684e-08
8.6135921e-08
8.6169984e-08
8.6190975e-08
8.6192609e-08
8.6194216e-08
8.619566e-08
8.6196776e-08
8.6197527e-08
8.6197901e-08
8.6197901e-08
8.6197527e-08
8.6196776e-08
8.619566e-08
8.6194216e-08
8.6192609e-08
8.6190976e-08
8.6169985e-08
8.6135921e-08
8.5969683e-08
8.3617297e-08
8.3747449e-08
8.3774911e-08
8.3787176e-08
8.3789873e-08
8.3791881e-08
8.3793339e-08
8.3794317e-08
8.3794927e-08
8.3795215e-08
8.3795215e-08
8.3794926e-08
8.3794316e-08
8.3793339e-08
8.3791881e-08
8.3789873e-08
8.3787177e-08
8.3774912e-08
8.3747449e-08
8.3617296e-08
8.2366701e-08
8.2399884e-08
8.2410452e-08
8.2413482e-08
8.241466e-08
8.2415418e-08
8.2415898e-08
8.2416194e-08
8.2416365e-08
8.2416442e-08
8.2416442e-08
8.2416365e-08
8.2416194e-08
8.2415898e-08
8.2415418e-08
8.241466e-08
8.2413482e-08
8.2410452e-08
8.2399884e-08
8.2366701e-08
8.3547206e-08
8.3303956e-08
8.3230137e-08
8.3216976e-08
8.3211325e-08
8.3208238e-08
8.3206544e-08
8.3205578e-08
8.3205074e-08
8.3204863e-08
8.3204863e-08
8.3205074e-08
8.3205579e-08
8.3206545e-08
8.3208238e-08
8.3211325e-08
8.3216976e-08
8.3230136e-08
8.3303955e-08
8.3547205e-08
0.00023995001
0.00023996609
0.00024000108
0.00024003524
0.00024006172
0.00024008127
0.00024009561
0.00024010585
0.00024011252
0.00024011582
0.00024011582
0.00024011252
0.00024010585
0.00024009561
0.00024008127
0.00024006171
0.00024003524
0.00024000107
0.00023996608
0.00023995001
0.00023863493
0.00023865379
0.00023868222
0.00023871063
0.00023873438
0.00023875287
0.00023876678
0.00023877679
0.0002387833
0.00023878652
0.00023878652
0.0002387833
0.00023877679
0.00023876678
0.00023875287
0.00023873438
0.00023871062
0.00023868222
0.00023865379
0.00023863493
0.00023746076
0.00023748444
0.00023751248
0.00023753906
0.0002375616
0.00023757957
0.00023759327
0.00023760318
0.00023760962
0.0002376128
0.0002376128
0.00023760962
0.00023760318
0.00023759327
0.00023757956
0.0002375616
0.00023753905
0.00023751248
0.00023748444
0.00023746075
0.00023640226
0.00023643185
0.00023646421
0.00023649301
0.00023651674
0.00023653539
0.00023654949
0.00023655959
0.0002365661
0.00023656929
0.00023656929
0.0002365661
0.00023655959
0.00023654949
0.00023653539
0.00023651673
0.00023649301
0.0002364642
0.00023643185
0.00023640226
0.0002354466
0.00023548004
0.00023551748
0.00023555045
0.00023557711
0.00023559768
0.00023561295
0.00023562369
0.00023563052
0.00023563384
0.00023563384
0.00023563052
0.00023562369
0.00023561294
0.00023559768
0.00023557711
0.00023555045
0.00023551748
0.00023548004
0.0002354466
0.0002345843
0.0002346192
0.0002346603
0.00023469728
0.00023472733
0.00023475041
0.00023476737
0.00023477916
0.00023478657
0.00023479015
0.00023479015
0.00023478657
0.00023477916
0.00023476737
0.00023475041
0.00023472733
0.00023469728
0.00023466029
0.0002346192
0.0002345843
0.00023380735
0.00023384194
0.00023388472
0.00023392447
0.00023395737
0.00023398286
0.00023400161
0.00023401461
0.00023402275
0.00023402667
0.00023402667
0.00023402275
0.00023401461
0.00023400161
0.00023398286
0.00023395737
0.00023392447
0.00023388472
0.00023384194
0.00023380735
0.00023310841
0.00023314162
0.00023318438
0.00023322536
0.00023326007
0.00023328739
0.00023330767
0.00023332181
0.00023333069
0.00023333496
0.00023333496
0.00023333069
0.00023332181
0.00023330767
0.00023328739
0.00023326007
0.00023322536
0.00023318438
0.00023314162
0.00023310841
0.00023248056
0.00023251182
0.00023255331
0.00023259418
0.00023262959
0.00023265794
0.00023267928
0.00023269429
0.00023270377
0.00023270834
0.00023270834
0.00023270377
0.00023269429
0.00023267928
0.00023265794
0.00023262959
0.00023259419
0.00023255331
0.00023251182
0.00023248056
0.00023191721
0.00023194626
0.00023198571
0.00023202544
0.00023206054
0.00023208914
0.00023211097
0.00023212649
0.00023213637
0.00023214116
0.00023214116
0.00023213637
0.00023212649
0.00023211097
0.00023208914
0.00023206054
0.00023202544
0.00023198571
0.00023194627
0.00023191721
0.00023141217
0.00023143894
0.00023147591
0.00023151379
0.00023154783
0.00023157599
0.00023159777
0.00023161342
0.00023162347
0.00023162836
0.00023162836
0.00023162347
0.00023161342
0.00023159777
0.00023157599
0.00023154783
0.00023151379
0.00023147591
0.00023143895
0.00023141217
0.00023095972
0.00023098424
0.00023101852
0.00023105412
0.00023108656
0.00023111374
0.00023113502
0.00023115046
0.00023116045
0.00023116534
0.00023116534
0.00023116045
0.00023115046
0.00023113502
0.00023111374
0.00023108656
0.00023105413
0.00023101852
0.00023098424
0.00023095972
0.00023055463
0.00023057698
0.00023060852
0.00023064162
0.00023067211
0.00023069794
0.00023071836
0.00023073331
0.00023074305
0.00023074783
0.00023074783
0.00023074305
0.00023073331
0.00023071836
0.00023069794
0.00023067211
0.00023064162
0.00023060852
0.00023057698
0.00023055463
0.00023019218
0.00023021249
0.00023024132
0.00023027184
0.00023030019
0.00023032442
0.00023034374
0.00023035799
0.00023036731
0.00023037191
0.00023037191
0.00023036731
0.00023035799
0.00023034374
0.00023032442
0.00023030019
0.00023027184
0.00023024132
0.00023021249
0.00023019219
0.00022986817
0.00022988654
0.00022991277
0.00022994071
0.00022996685
0.00022998934
0.0002300074
0.0002300208
0.00023002962
0.00023003398
0.00023003398
0.00023002962
0.0002300208
0.0002300074
0.00022998935
0.00022996685
0.00022994072
0.00022991278
0.00022988654
0.00022986817
0.00022957879
0.00022959537
0.00022961914
0.00022964457
0.00022966849
0.0002296892
0.00022970591
0.00022971838
0.00022972661
0.00022973069
0.00022973069
0.00022972661
0.00022971838
0.00022970591
0.0002296892
0.00022966849
0.00022964457
0.00022961914
0.00022959537
0.00022957879
0.0002293207
0.00022933561
0.00022935706
0.0002293801
0.00022940186
0.00022942078
0.00022943612
0.00022944761
0.00022945522
0.000229459
0.000229459
0.00022945522
0.00022944761
0.00022943612
0.00022942078
0.00022940186
0.0002293801
0.00022935706
0.00022933561
0.0002293207
0.00022909088
0.00022910425
0.00022912354
0.00022914431
0.000229164
0.00022918119
0.00022919517
0.00022920568
0.00022921265
0.00022921612
0.00022921612
0.00022921265
0.00022920568
0.00022919517
0.00022918119
0.00022916401
0.00022914431
0.00022912354
0.00022910426
0.00022909088
0.00022888666
0.00022889862
0.00022891589
0.00022893455
0.00022895228
0.0002289678
0.00022898047
0.00022899001
0.00022899635
0.00022899952
0.00022899952
0.00022899635
0.00022899001
0.00022898047
0.0002289678
0.00022895228
0.00022893455
0.00022891589
0.00022889862
0.00022888666
0.00022870566
0.00022871632
0.00022873173
0.00022874842
0.00022876431
0.00022877826
0.00022878967
0.00022879828
0.00022880401
0.00022880688
0.00022880688
0.00022880402
0.00022879828
0.00022878967
0.00022877826
0.00022876431
0.00022874842
0.00022873173
0.00022871632
0.00022870566
0.00022854578
0.00022855524
0.00022856894
0.0002285838
0.00022859798
0.00022861045
0.00022862067
0.00022862839
0.00022863355
0.00022863613
0.00022863613
0.00022863355
0.0002286284
0.00022862067
0.00022861045
0.00022859798
0.0002285838
0.00022856894
0.00022855524
0.00022854578
0.00022840516
0.00022841351
0.00022842564
0.00022843881
0.0002284514
0.00022846249
0.0002284716
0.0002284785
0.00022848311
0.00022848541
0.00022848541
0.00022848311
0.0002284785
0.0002284716
0.0002284625
0.0002284514
0.00022843881
0.00022842564
0.00022841352
0.00022840516
0.00022828218
0.00022828952
0.0002283002
0.00022831181
0.00022832293
0.00022833275
0.00022834082
0.00022834695
0.00022835105
0.0002283531
0.0002283531
0.00022835105
0.00022834695
0.00022834082
0.00022833275
0.00022832293
0.00022831181
0.0002283002
0.00022828952
0.00022828218
0.00022817546
0.00022818187
0.0002281912
0.00022820138
0.00022821115
0.00022821979
0.00022822691
0.00022823232
0.00022823595
0.00022823776
0.00022823776
0.00022823595
0.00022823232
0.00022822691
0.00022821979
0.00022821115
0.00022820138
0.0002281912
0.00022818187
0.00022817546
0.00022808382
0.00022808937
0.00022809747
0.00022810633
0.00022811486
0.00022812242
0.00022812866
0.00022813342
0.00022813661
0.00022813821
0.00022813821
0.00022813661
0.00022813342
0.00022812866
0.00022812242
0.00022811486
0.00022810633
0.00022809747
0.00022808937
0.00022808382
0.00022800631
0.00022801107
0.00022801804
0.00022802569
0.00022803309
0.00022803967
0.00022804512
0.00022804928
0.00022805208
0.00022805348
0.00022805348
0.00022805208
0.00022804928
0.00022804512
0.00022803967
0.00022803309
0.00022802569
0.00022801804
0.00022801107
0.00022800631
0.00022794222
0.00022794625
0.00022795218
0.00022795874
0.00022796511
0.0002279708
0.00022797554
0.00022797918
0.00022798163
0.00022798286
0.00022798286
0.00022798163
0.00022797918
0.00022797554
0.0002279708
0.00022796511
0.00022795874
0.00022795218
0.00022794625
0.00022794223
0.00022789105
0.0002278944
0.0002278994
0.00022790497
0.00022791043
0.00022791536
0.00022791948
0.00022792266
0.00022792481
0.0002279259
0.0002279259
0.00022792481
0.00022792266
0.00022791948
0.00022791536
0.00022791043
0.00022790497
0.0002278994
0.0002278944
0.00022789105
0.00022785252
0.00022785527
0.00022785945
0.00022786417
0.00022786887
0.00022787315
0.00022787677
0.00022787957
0.00022788148
0.00022788244
0.00022788244
0.00022788148
0.00022787957
0.00022787677
0.00022787315
0.00022786887
0.00022786417
0.00022785945
0.00022785527
0.00022785252
0.00022782659
0.00022782884
0.00022783235
0.00022783642
0.00022784053
0.00022784433
0.00022784756
0.00022785009
0.00022785182
0.0002278527
0.0002278527
0.00022785182
0.00022785009
0.00022784756
0.00022784433
0.00022784053
0.00022783642
0.00022783235
0.00022782884
0.00022782659
0.00022781345
0.00022781536
0.00022781846
0.00022782213
0.00022782589
0.00022782941
0.00022783244
0.00022783481
0.00022783645
0.00022783727
0.00022783727
0.00022783645
0.00022783481
0.00022783244
0.00022782941
0.00022782589
0.00022782213
0.00022781846
0.00022781536
0.00022781345
)
;

boundaryField
{
    Wall
    {
        type            calculated;
        value           uniform 4e-05;
    }
    frontAndBack
    {
        type            empty;
    }
    atmosphere
    {
        type            calculated;
        value           uniform 4e-05;
    }
}


// ************************************************************************* //
