/*--------------------------------*- C++ -*----------------------------------*\
| =========                 |                                                 |
| \\      /  F ield         | OpenFOAM: The Open Source CFD Toolbox           |
|  \\    /   O peration     | Version:  3.0.1                                 |
|   \\  /    A nd           | Web:      www.OpenFOAM.org                      |
|    \\/     M anipulation  |                                                 |
\*---------------------------------------------------------------------------*/
FoamFile
{
    version     2.0;
    format      ascii;
    class       volScalarField;
    location    "19";
    object      thermalDiffusivity;
}
// * * * * * * * * * * * * * * * * * * * * * * * * * * * * * * * * * * * * * //

dimensions      [0 2 -1 0 0 0 0];

internalField   nonuniform List<scalar> 
800
(
9.6415165e-08
9.6415988e-08
9.6415932e-08
9.6415846e-08
9.6415778e-08
9.6415725e-08
9.6415685e-08
9.6415657e-08
9.6415639e-08
9.641563e-08
9.641563e-08
9.6415639e-08
9.6415657e-08
9.6415685e-08
9.6415725e-08
9.6415778e-08
9.6415846e-08
9.6415933e-08
9.6415988e-08
9.6415165e-08
9.4772384e-08
9.4823901e-08
9.4829787e-08
9.48304e-08
9.4830511e-08
9.4830877e-08
9.4831342e-08
9.483177e-08
9.4832083e-08
9.4832262e-08
9.4832245e-08
9.4832087e-08
9.4831772e-08
9.4831342e-08
9.4830875e-08
9.4830512e-08
9.4830395e-08
9.4829772e-08
9.4823904e-08
9.4772383e-08
9.6271758e-08
9.6163521e-08
9.6169405e-08
9.6175681e-08
9.6179896e-08
9.6182845e-08
9.6184598e-08
9.6185663e-08
9.6186265e-08
9.6186545e-08
9.6186534e-08
9.6186267e-08
9.6185664e-08
9.6184597e-08
9.6182842e-08
9.6179894e-08
9.6175675e-08
9.6169393e-08
9.6163521e-08
9.6271758e-08
1.0655369e-07
1.0566778e-07
1.0560408e-07
1.0563088e-07
1.0564872e-07
1.0565914e-07
1.0566461e-07
1.0566704e-07
1.0566833e-07
1.0566883e-07
1.0566882e-07
1.0566833e-07
1.0566703e-07
1.056646e-07
1.0565913e-07
1.0564871e-07
1.0563086e-07
1.0560406e-07
1.0566777e-07
1.0655368e-07
1.3720311e-07
1.335908e-07
1.332375e-07
1.3328587e-07
1.3332455e-07
1.3334751e-07
1.3336145e-07
1.3336951e-07
1.333744e-07
1.3337643e-07
1.3337642e-07
1.3337439e-07
1.3336949e-07
1.3336142e-07
1.3334747e-07
1.333245e-07
1.332858e-07
1.3323744e-07
1.3359075e-07
1.3720305e-07
2.312689e-07
2.1656219e-07
2.1473123e-07
2.1448039e-07
2.1447985e-07
2.1451305e-07
2.1454886e-07
2.1458788e-07
2.1461398e-07
2.146282e-07
2.1462817e-07
2.1461393e-07
2.145878e-07
2.1454873e-07
2.1451287e-07
2.1447965e-07
2.1448014e-07
2.1473098e-07
2.1656194e-07
2.3126857e-07
6.5950114e-07
5.7332033e-07
5.5918518e-07
5.5609972e-07
5.5535138e-07
5.5534169e-07
5.5553784e-07
5.5582975e-07
5.5603874e-07
5.5616498e-07
5.5616488e-07
5.5603852e-07
5.5582934e-07
5.5553718e-07
5.5534078e-07
5.5535025e-07
5.5609836e-07
5.5918373e-07
5.733187e-07
6.5949894e-07
5.7606434e-06
4.3336159e-06
4.0786835e-06
4.0209645e-06
4.0047566e-06
4.0049428e-06
4.0095574e-06
4.015464e-06
4.0197845e-06
4.0223237e-06
4.0223226e-06
4.0197816e-06
4.0154585e-06
4.0095482e-06
4.0049297e-06
4.00474e-06
4.0209444e-06
4.0786617e-06
4.3335895e-06
5.7606051e-06
9.007707e-05
7.4912415e-05
7.167853e-05
7.0946373e-05
7.0751508e-05
7.0774449e-05
7.0851284e-05
7.0939348e-05
7.1002976e-05
7.1039635e-05
7.1039621e-05
7.1002939e-05
7.0939278e-05
7.0851167e-05
7.0774281e-05
7.0751294e-05
7.0946117e-05
7.1678254e-05
7.4912104e-05
9.0076721e-05
0.00023995001
0.00023996609
0.00024000108
0.00024003524
0.00024006172
0.00024008127
0.00024009561
0.00024010585
0.00024011252
0.00024011582
0.00024011582
0.00024011252
0.00024010585
0.00024009561
0.00024008127
0.00024006171
0.00024003524
0.00024000107
0.00023996608
0.00023995001
0.00023863493
0.00023865379
0.00023868222
0.00023871063
0.00023873438
0.00023875287
0.00023876678
0.00023877679
0.0002387833
0.00023878652
0.00023878652
0.0002387833
0.00023877679
0.00023876678
0.00023875287
0.00023873438
0.00023871062
0.00023868222
0.00023865379
0.00023863493
0.00023746076
0.00023748444
0.00023751248
0.00023753906
0.0002375616
0.00023757957
0.00023759327
0.00023760318
0.00023760962
0.0002376128
0.0002376128
0.00023760962
0.00023760318
0.00023759327
0.00023757956
0.0002375616
0.00023753905
0.00023751248
0.00023748444
0.00023746075
0.00023640226
0.00023643185
0.00023646421
0.00023649301
0.00023651674
0.00023653539
0.00023654949
0.00023655959
0.0002365661
0.00023656929
0.00023656929
0.0002365661
0.00023655959
0.00023654949
0.00023653539
0.00023651673
0.00023649301
0.0002364642
0.00023643185
0.00023640226
0.0002354466
0.00023548004
0.00023551748
0.00023555045
0.00023557711
0.00023559768
0.00023561295
0.00023562369
0.00023563052
0.00023563384
0.00023563384
0.00023563052
0.00023562369
0.00023561294
0.00023559768
0.00023557711
0.00023555045
0.00023551748
0.00023548004
0.0002354466
0.0002345843
0.0002346192
0.0002346603
0.00023469728
0.00023472733
0.00023475041
0.00023476737
0.00023477916
0.00023478657
0.00023479015
0.00023479015
0.00023478657
0.00023477916
0.00023476737
0.00023475041
0.00023472733
0.00023469728
0.00023466029
0.0002346192
0.0002345843
0.00023380735
0.00023384194
0.00023388472
0.00023392447
0.00023395737
0.00023398286
0.00023400161
0.00023401461
0.00023402275
0.00023402667
0.00023402667
0.00023402275
0.00023401461
0.00023400161
0.00023398286
0.00023395737
0.00023392447
0.00023388472
0.00023384194
0.00023380735
0.00023310841
0.00023314162
0.00023318438
0.00023322536
0.00023326007
0.00023328739
0.00023330767
0.00023332181
0.00023333069
0.00023333496
0.00023333496
0.00023333069
0.00023332181
0.00023330767
0.00023328739
0.00023326007
0.00023322536
0.00023318438
0.00023314162
0.00023310841
0.00023248056
0.00023251182
0.00023255331
0.00023259418
0.00023262959
0.00023265794
0.00023267928
0.00023269429
0.00023270377
0.00023270834
0.00023270834
0.00023270377
0.00023269429
0.00023267928
0.00023265794
0.00023262959
0.00023259419
0.00023255331
0.00023251182
0.00023248056
0.00023191721
0.00023194626
0.00023198571
0.00023202544
0.00023206054
0.00023208914
0.00023211097
0.00023212649
0.00023213637
0.00023214116
0.00023214116
0.00023213637
0.00023212649
0.00023211097
0.00023208914
0.00023206054
0.00023202544
0.00023198571
0.00023194627
0.00023191721
0.00023141217
0.00023143894
0.00023147591
0.00023151379
0.00023154783
0.00023157599
0.00023159777
0.00023161342
0.00023162347
0.00023162836
0.00023162836
0.00023162347
0.00023161342
0.00023159777
0.00023157599
0.00023154783
0.00023151379
0.00023147591
0.00023143895
0.00023141217
0.00023095972
0.00023098424
0.00023101852
0.00023105412
0.00023108656
0.00023111374
0.00023113502
0.00023115046
0.00023116045
0.00023116534
0.00023116534
0.00023116045
0.00023115046
0.00023113502
0.00023111374
0.00023108656
0.00023105413
0.00023101852
0.00023098424
0.00023095972
0.00023055463
0.00023057698
0.00023060852
0.00023064162
0.00023067211
0.00023069794
0.00023071836
0.00023073331
0.00023074305
0.00023074783
0.00023074783
0.00023074305
0.00023073331
0.00023071836
0.00023069794
0.00023067211
0.00023064162
0.00023060852
0.00023057698
0.00023055463
0.00023019218
0.00023021249
0.00023024132
0.00023027184
0.00023030019
0.00023032442
0.00023034374
0.00023035799
0.00023036731
0.00023037191
0.00023037191
0.00023036731
0.00023035799
0.00023034374
0.00023032442
0.00023030019
0.00023027184
0.00023024132
0.00023021249
0.00023019219
0.00022986817
0.00022988654
0.00022991277
0.00022994071
0.00022996685
0.00022998934
0.0002300074
0.0002300208
0.00023002962
0.00023003398
0.00023003398
0.00023002962
0.0002300208
0.0002300074
0.00022998935
0.00022996685
0.00022994072
0.00022991278
0.00022988654
0.00022986817
0.00022957879
0.00022959537
0.00022961914
0.00022964457
0.00022966849
0.0002296892
0.00022970591
0.00022971838
0.00022972661
0.00022973069
0.00022973069
0.00022972661
0.00022971838
0.00022970591
0.0002296892
0.00022966849
0.00022964457
0.00022961914
0.00022959537
0.00022957879
0.0002293207
0.00022933561
0.00022935706
0.0002293801
0.00022940186
0.00022942078
0.00022943612
0.00022944761
0.00022945522
0.000229459
0.000229459
0.00022945522
0.00022944761
0.00022943612
0.00022942078
0.00022940186
0.0002293801
0.00022935706
0.00022933561
0.0002293207
0.00022909088
0.00022910425
0.00022912354
0.00022914431
0.000229164
0.00022918119
0.00022919517
0.00022920568
0.00022921265
0.00022921612
0.00022921612
0.00022921265
0.00022920568
0.00022919517
0.00022918119
0.00022916401
0.00022914431
0.00022912354
0.00022910426
0.00022909088
0.00022888666
0.00022889862
0.00022891589
0.00022893455
0.00022895228
0.0002289678
0.00022898047
0.00022899001
0.00022899635
0.00022899952
0.00022899952
0.00022899635
0.00022899001
0.00022898047
0.0002289678
0.00022895228
0.00022893455
0.00022891589
0.00022889862
0.00022888666
0.00022870566
0.00022871632
0.00022873173
0.00022874842
0.00022876431
0.00022877826
0.00022878967
0.00022879828
0.00022880401
0.00022880688
0.00022880688
0.00022880402
0.00022879828
0.00022878967
0.00022877826
0.00022876431
0.00022874842
0.00022873173
0.00022871632
0.00022870566
0.00022854578
0.00022855524
0.00022856894
0.0002285838
0.00022859798
0.00022861045
0.00022862067
0.00022862839
0.00022863355
0.00022863613
0.00022863613
0.00022863355
0.0002286284
0.00022862067
0.00022861045
0.00022859798
0.0002285838
0.00022856894
0.00022855524
0.00022854578
0.00022840516
0.00022841351
0.00022842564
0.00022843881
0.0002284514
0.00022846249
0.0002284716
0.0002284785
0.00022848311
0.00022848541
0.00022848541
0.00022848311
0.0002284785
0.0002284716
0.0002284625
0.0002284514
0.00022843881
0.00022842564
0.00022841352
0.00022840516
0.00022828218
0.00022828952
0.0002283002
0.00022831181
0.00022832293
0.00022833275
0.00022834082
0.00022834695
0.00022835105
0.0002283531
0.0002283531
0.00022835105
0.00022834695
0.00022834082
0.00022833275
0.00022832293
0.00022831181
0.0002283002
0.00022828952
0.00022828218
0.00022817546
0.00022818187
0.0002281912
0.00022820138
0.00022821115
0.00022821979
0.00022822691
0.00022823232
0.00022823595
0.00022823776
0.00022823776
0.00022823595
0.00022823232
0.00022822691
0.00022821979
0.00022821115
0.00022820138
0.0002281912
0.00022818187
0.00022817546
0.00022808382
0.00022808937
0.00022809747
0.00022810633
0.00022811486
0.00022812242
0.00022812866
0.00022813342
0.00022813661
0.00022813821
0.00022813821
0.00022813661
0.00022813342
0.00022812866
0.00022812242
0.00022811486
0.00022810633
0.00022809747
0.00022808937
0.00022808382
0.00022800631
0.00022801107
0.00022801804
0.00022802569
0.00022803309
0.00022803967
0.00022804512
0.00022804928
0.00022805208
0.00022805348
0.00022805348
0.00022805208
0.00022804928
0.00022804512
0.00022803967
0.00022803309
0.00022802569
0.00022801804
0.00022801107
0.00022800631
0.00022794222
0.00022794625
0.00022795218
0.00022795874
0.00022796511
0.0002279708
0.00022797554
0.00022797918
0.00022798163
0.00022798286
0.00022798286
0.00022798163
0.00022797918
0.00022797554
0.0002279708
0.00022796511
0.00022795874
0.00022795218
0.00022794625
0.00022794223
0.00022789105
0.0002278944
0.0002278994
0.00022790497
0.00022791043
0.00022791536
0.00022791948
0.00022792266
0.00022792481
0.0002279259
0.0002279259
0.00022792481
0.00022792266
0.00022791948
0.00022791536
0.00022791043
0.00022790497
0.0002278994
0.0002278944
0.00022789105
0.00022785252
0.00022785527
0.00022785945
0.00022786417
0.00022786887
0.00022787315
0.00022787677
0.00022787957
0.00022788148
0.00022788244
0.00022788244
0.00022788148
0.00022787957
0.00022787677
0.00022787315
0.00022786887
0.00022786417
0.00022785945
0.00022785527
0.00022785252
0.00022782659
0.00022782884
0.00022783235
0.00022783642
0.00022784053
0.00022784433
0.00022784756
0.00022785009
0.00022785182
0.0002278527
0.0002278527
0.00022785182
0.00022785009
0.00022784756
0.00022784433
0.00022784053
0.00022783642
0.00022783235
0.00022782884
0.00022782659
0.00022781345
0.00022781536
0.00022781846
0.00022782213
0.00022782589
0.00022782941
0.00022783244
0.00022783481
0.00022783645
0.00022783727
0.00022783727
0.00022783645
0.00022783481
0.00022783244
0.00022782941
0.00022782589
0.00022782213
0.00022781846
0.00022781536
0.00022781345
)
;

boundaryField
{
    Wall
    {
        type            calculated;
        value           uniform 4e-05;
    }
    frontAndBack
    {
        type            empty;
    }
    atmosphere
    {
        type            calculated;
        value           uniform 4e-05;
    }
}


// ************************************************************************* //
