/*--------------------------------*- C++ -*----------------------------------*\
| =========                 |                                                 |
| \\      /  F ield         | OpenFOAM: The Open Source CFD Toolbox           |
|  \\    /   O peration     | Version:  3.0.1                                 |
|   \\  /    A nd           | Web:      www.OpenFOAM.org                      |
|    \\/     M anipulation  |                                                 |
\*---------------------------------------------------------------------------*/
FoamFile
{
    version     2.0;
    format      ascii;
    class       volScalarField;
    location    "19";
    object      TS;
}
// * * * * * * * * * * * * * * * * * * * * * * * * * * * * * * * * * * * * * //

dimensions      [0 0 0 1 0 0 0];

internalField   nonuniform List<scalar> 
800
(
327.56755
327.5704
327.57075
327.5708
327.57082
327.57084
327.57086
327.57087
327.57088
327.57089
327.57089
327.57088
327.57087
327.57086
327.57084
327.57082
327.5708
327.57075
327.5704
327.56755
324.59976
324.67114
324.68152
324.6825
324.68254
324.6829
324.68347
324.68402
324.68443
324.68465
324.68465
324.68443
324.68402
324.68347
324.68291
324.68254
324.6825
324.68152
324.67114
324.59976
322.29968
322.40524
322.42689
322.42972
322.43008
322.4306
322.43139
322.43217
322.43277
322.43308
322.43308
322.43277
322.43217
322.4314
322.43061
322.43008
322.42972
322.42689
322.40524
322.29968
320.57314
320.71097
320.74466
320.74928
320.7498
320.7501
320.75076
320.75143
320.75198
320.75227
320.75227
320.75198
320.75143
320.75076
320.7501
320.7498
320.74928
320.74467
320.71098
320.57314
319.11394
319.28295
319.33624
319.34506
319.34641
319.34659
319.34705
319.34747
319.34787
319.34808
319.34808
319.34788
319.34747
319.34705
319.34659
319.34642
319.34506
319.33625
319.28295
319.11394
317.28319
317.52243
317.61055
317.62972
317.63457
317.63597
317.63689
317.63738
317.6378
317.63797
317.63797
317.63781
317.63738
317.63689
317.63597
317.63457
317.62973
317.61055
317.52244
317.2832
314.0381
314.41569
314.52966
314.56583
314.57869
314.58405
314.58706
314.58864
314.58966
314.59005
314.59005
314.58966
314.58865
314.58706
314.58405
314.57869
314.56584
314.52967
314.4157
314.0381
309.68782
309.97443
310.10282
310.14374
310.16128
310.17147
310.17849
310.1833
310.18644
310.18795
310.18795
310.18644
310.18331
310.17849
310.17147
310.16128
310.14374
310.10282
309.97443
309.68782
307.84542
307.88777
307.93062
307.9621
307.98207
307.99549
308.005
308.01172
308.01609
308.01825
308.01825
308.01609
308.01172
308.00499
307.99548
307.98206
307.9621
307.93062
307.88777
307.84542
306.4442
306.45145
306.47156
306.49288
306.51021
306.52332
306.53301
306.53991
306.54439
306.5466
306.5466
306.54439
306.53991
306.533
306.52332
306.51021
306.49288
306.47155
306.45145
306.4442
305.56333
305.57458
305.59228
305.61068
305.62649
305.63897
305.64839
305.65515
305.65954
305.6617
305.6617
305.65954
305.65515
305.64839
305.63897
305.62649
305.61068
305.59228
305.57458
305.56333
304.77637
304.79167
304.80997
304.82761
304.84275
304.8549
304.86417
304.87085
304.87518
304.87731
304.87731
304.87518
304.87085
304.86417
304.8549
304.84275
304.82761
304.80997
304.79167
304.77637
304.06807
304.08766
304.10913
304.12834
304.14425
304.15679
304.16627
304.17305
304.1774
304.17954
304.17954
304.1774
304.17305
304.16627
304.15679
304.14425
304.12834
304.10912
304.08766
304.06807
303.42978
303.45206
303.47699
303.49896
303.51676
303.5305
303.54069
303.54786
303.55242
303.55463
303.55463
303.55242
303.54786
303.54069
303.5305
303.51676
303.49896
303.47699
303.45206
303.42978
302.85454
302.87784
302.90522
302.92985
302.94986
302.96523
302.97651
302.98435
302.98928
302.99165
302.99165
302.98928
302.98435
302.97651
302.96523
302.94986
302.92985
302.90522
302.87784
302.85454
302.33645
302.35957
302.3881
302.41458
302.43647
302.45343
302.4659
302.47454
302.47995
302.48255
302.48255
302.47995
302.47454
302.4659
302.45343
302.43647
302.41458
302.3881
302.35957
302.33645
301.87032
301.89254
301.92108
301.94841
301.97154
301.98972
302.00322
302.01262
302.01852
302.02136
302.02136
302.01852
302.01262
302.00322
301.98972
301.97154
301.94841
301.92108
301.89254
301.87032
301.45142
301.47235
301.50008
301.52737
301.55099
301.56989
301.58411
301.5941
301.60041
301.60346
301.60346
301.60041
301.5941
301.58411
301.56989
301.55099
301.52737
301.50008
301.47235
301.45142
301.07536
301.09483
301.12122
301.14778
301.17123
301.19032
301.20489
301.21524
301.22183
301.22502
301.22502
301.22183
301.21524
301.20489
301.19032
301.17123
301.14778
301.12123
301.09483
301.07536
300.73805
300.75601
300.78076
300.80612
300.82888
300.8477
300.86226
300.87271
300.87942
300.88269
300.88269
300.87942
300.87271
300.86226
300.8477
300.82888
300.80612
300.78076
300.75601
300.73806
300.43573
300.45218
300.47515
300.49901
300.52072
300.53891
300.55315
300.56348
300.57016
300.57342
300.57342
300.57016
300.56348
300.55315
300.53892
300.52072
300.49901
300.47515
300.45218
300.43573
300.16494
300.17995
300.2011
300.22329
300.24372
300.26102
300.2747
300.28471
300.29122
300.29443
300.29443
300.29123
300.28471
300.2747
300.26102
300.24372
300.22329
300.2011
300.17995
300.16494
299.92258
299.93621
299.95556
299.97603
299.99504
300.01129
300.02423
300.03379
300.04003
300.04312
300.04312
300.04004
300.03379
300.02423
300.01129
299.99504
299.97603
299.95556
299.93621
299.92258
299.70584
299.71818
299.73579
299.75455
299.77208
299.78717
299.79929
299.80828
299.81419
299.81711
299.81711
299.81419
299.80828
299.79929
299.78717
299.77208
299.75455
299.73579
299.71818
299.70584
299.51222
299.52336
299.53932
299.5564
299.57246
299.58636
299.59757
299.60594
299.61146
299.6142
299.6142
299.61146
299.60594
299.59757
299.58636
299.57246
299.5564
299.53932
299.52336
299.51222
299.33948
299.3495
299.36391
299.37939
299.394
299.40671
299.41702
299.42473
299.42984
299.43238
299.43238
299.42984
299.42473
299.41702
299.40671
299.394
299.37939
299.36391
299.3495
299.33948
299.18562
299.19461
299.20757
299.22153
299.23477
299.24631
299.25571
299.26277
299.26745
299.26979
299.26979
299.26745
299.26277
299.25571
299.24631
299.23477
299.22154
299.20757
299.19461
299.18562
299.04886
299.05691
299.06852
299.08106
299.09298
299.10342
299.11193
299.11834
299.12261
299.12474
299.12474
299.12261
299.11834
299.11193
299.10342
299.09298
299.08106
299.06852
299.05691
299.04886
298.92763
298.9348
298.94516
298.95639
298.96707
298.97645
298.98412
298.98991
298.99377
298.9957
298.9957
298.99377
298.98991
298.98412
298.97645
298.96707
298.95639
298.94517
298.9348
298.92763
298.82051
298.82687
298.83609
298.84609
298.85563
298.86401
298.87089
298.87609
298.87956
298.88129
298.88129
298.87956
298.87609
298.87089
298.86401
298.85563
298.84609
298.83609
298.82687
298.82051
298.72627
298.73189
298.74005
298.74892
298.75739
298.76485
298.77098
298.77562
298.77872
298.78028
298.78028
298.77872
298.77562
298.77098
298.76485
298.75739
298.74892
298.74005
298.73189
298.72627
298.64383
298.64878
298.65596
298.66378
298.67126
298.67787
298.68331
298.68743
298.69019
298.69157
298.69157
298.69019
298.68743
298.68331
298.67787
298.67126
298.66378
298.65596
298.64878
298.64383
298.57227
298.57659
298.58288
298.58973
298.59631
298.60213
298.60692
298.61056
298.613
298.61423
298.61423
298.613
298.61056
298.60692
298.60213
298.59631
298.58973
298.58288
298.57659
298.57227
298.51082
298.51455
298.52001
298.52598
298.53172
298.53681
298.54102
298.54422
298.54637
298.54745
298.54745
298.54637
298.54422
298.54102
298.53681
298.53172
298.52598
298.52001
298.51456
298.51082
298.45883
298.46203
298.46673
298.47188
298.47686
298.48129
298.48497
298.48777
298.48966
298.4906
298.4906
298.48966
298.48777
298.48497
298.48129
298.47686
298.47188
298.46673
298.46203
298.45883
298.41583
298.41854
298.42254
298.42695
298.43124
298.43508
298.43828
298.44073
298.44238
298.44321
298.44321
298.44238
298.44073
298.43828
298.43508
298.43124
298.42695
298.42254
298.41854
298.41583
298.38148
298.38374
298.38711
298.39086
298.39455
298.39787
298.40065
298.40279
298.40424
298.40497
298.40497
298.40424
298.40279
298.40065
298.39787
298.39455
298.39087
298.38711
298.38374
298.38148
298.35562
298.35747
298.36029
298.36348
298.36664
298.36953
298.37196
298.37385
298.37514
298.37579
298.37579
298.37514
298.37386
298.37196
298.36953
298.36664
298.36348
298.36029
298.35747
298.35562
298.33821
298.33973
298.3421
298.34484
298.34761
298.35017
298.35235
298.35406
298.35522
298.35581
298.35581
298.35522
298.35406
298.35235
298.35017
298.34761
298.34484
298.3421
298.33973
298.33821
298.32938
298.33067
298.33276
298.33524
298.33778
298.34015
298.34219
298.34379
298.34489
298.34545
298.34545
298.34489
298.34379
298.34219
298.34015
298.33778
298.33524
298.33276
298.33067
298.32938
)
;

boundaryField
{
    Wall
    {
        type            zeroGradient;
    }
    frontAndBack
    {
        type            empty;
    }
    atmosphere
    {
        type            zeroGradient;
    }
}


// ************************************************************************* //
