/*--------------------------------*- C++ -*----------------------------------*\
| =========                 |                                                 |
| \\      /  F ield         | OpenFOAM: The Open Source CFD Toolbox           |
|  \\    /   O peration     | Version:  3.0.1                                 |
|   \\  /    A nd           | Web:      www.OpenFOAM.org                      |
|    \\/     M anipulation  |                                                 |
\*---------------------------------------------------------------------------*/
FoamFile
{
    version     2.0;
    format      ascii;
    class       volVectorField;
    location    "19";
    object      U;
}
// * * * * * * * * * * * * * * * * * * * * * * * * * * * * * * * * * * * * * //

dimensions      [0 1 -1 0 0 0 0];

internalField   nonuniform List<vector> 
800
(
(4.6823313e-06 0.00032085512 0)
(5.5124016e-06 0.00032326665 0)
(5.0182031e-06 0.00032400025 0)
(3.8167214e-06 0.00032388742 0)
(2.8953066e-06 0.00032367454 0)
(2.2152688e-06 0.00032352093 0)
(1.6708697e-06 0.00032344417 0)
(1.1812551e-06 0.0003234186 0)
(7.0837677e-07 0.00032341619 0)
(2.3635293e-07 0.00032341919 0)
(-2.3708965e-07 0.00032341919 0)
(-7.0918308e-07 0.00032341619 0)
(-1.1821314e-06 0.00032341859 0)
(-1.6717873e-06 0.00032344416 0)
(-2.2161588e-06 0.00032352093 0)
(-2.8960711e-06 0.00032367455 0)
(-3.8172617e-06 0.00032388746 0)
(-5.0184533e-06 0.00032400032 0)
(-5.5123281e-06 0.00032326677 0)
(-4.682235e-06 0.00032085517 0)
(2.4393613e-06 0.00057751398 0)
(3.0579392e-06 0.00058359688 0)
(3.573984e-06 0.00058560839 0)
(3.0172923e-06 0.00058572035 0)
(2.5005285e-06 0.00058553815 0)
(2.0047866e-06 0.00058533544 0)
(1.5526431e-06 0.0005852207 0)
(1.1143169e-06 0.00058517599 0)
(6.7375856e-07 0.00058516635 0)
(2.2563651e-07 0.00058516748 0)
(-2.2642492e-07 0.00058516748 0)
(-6.7459922e-07 0.00058516636 0)
(-1.1151924e-06 0.00058517598 0)
(-1.553523e-06 0.0005852207 0)
(-2.0056199e-06 0.00058533545 0)
(-2.5012401e-06 0.00058553821 0)
(-3.0178056e-06 0.00058572044 0)
(-3.5742275e-06 0.00058560849 0)
(-3.0579439e-06 0.00058359696 0)
(-2.43932e-06 0.0005775139 0)
(3.3776534e-06 0.0010498561 0)
(3.9646031e-06 0.0010598279 0)
(3.1746874e-06 0.0010629468 0)
(2.3967996e-06 0.0010630218 0)
(2.0787795e-06 0.0010627825 0)
(1.7241379e-06 0.0010624925 0)
(1.3972692e-06 0.0010623487 0)
(1.0373135e-06 0.0010623067 0)
(6.4036039e-07 0.00106231 0)
(2.1653073e-07 0.0010623211 0)
(-2.1733411e-07 0.0010623211 0)
(-6.4119179e-07 0.00106231 0)
(-1.0381725e-06 0.0010623067 0)
(-1.398116e-06 0.0010623487 0)
(-1.7249088e-06 0.0010624925 0)
(-2.0794278e-06 0.0010627826 0)
(-2.3972965e-06 0.0010630219 0)
(-3.174964e-06 0.0010629468 0)
(-3.9646843e-06 0.0010598278 0)
(-3.3776577e-06 0.0010498558 0)
(2.2716877e-06 0.0015266392 0)
(2.8403449e-06 0.0015369811 0)
(1.9514402e-06 0.0015399709 0)
(1.3929334e-06 0.0015397617 0)
(1.5728866e-06 0.0015393624 0)
(1.4467528e-06 0.0015390134 0)
(1.2956493e-06 0.0015388932 0)
(1.0182771e-06 0.0015389017 0)
(6.4855687e-07 0.001538949 0)
(2.2257728e-07 0.0015389855 0)
(-2.2336099e-07 0.0015389855 0)
(-6.4936272e-07 0.0015389489 0)
(-1.019082e-06 0.0015389016 0)
(-1.2964382e-06 0.0015388932 0)
(-1.4474286e-06 0.0015390133 0)
(-1.5734504e-06 0.0015393623 0)
(-1.3934476e-06 0.0015397617 0)
(-1.9517953e-06 0.0015399709 0)
(-2.8405622e-06 0.0015369808 0)
(-2.2717869e-06 0.0015266386 0)
(-5.0373534e-07 0.0020519594 0)
(6.8712929e-08 0.0020628733 0)
(3.8111649e-07 0.0020654515 0)
(4.6640745e-07 0.0020648922 0)
(1.1995704e-06 0.0020644132 0)
(1.3434656e-06 0.0020641704 0)
(1.3613472e-06 0.0020641942 0)
(1.1299082e-06 0.0020643259 0)
(7.3727419e-07 0.0020644612 0)
(2.5586051e-07 0.0020645423 0)
(-2.5660291e-07 0.0020645422 0)
(-7.3802769e-07 0.0020644612 0)
(-1.1306263e-06 0.0020643259 0)
(-1.3620348e-06 0.0020641942 0)
(-1.3441056e-06 0.0020641704 0)
(-1.2001269e-06 0.0020644131 0)
(-4.6688881e-07 0.002064892 0)
(-3.8153486e-07 0.0020654513 0)
(-6.907512e-08 0.0020628729 0)
(5.0356411e-07 0.0020519588 0)
(-4.2176645e-06 0.0026344096 0)
(-4.0125854e-06 0.0026482891 0)
(-1.6363273e-06 0.0026507186 0)
(-3.6771711e-07 0.0026502674 0)
(1.2122751e-06 0.0026500612 0)
(1.6543376e-06 0.0026502044 0)
(1.7484832e-06 0.0026505389 0)
(1.4620352e-06 0.0026508882 0)
(9.555351e-07 0.0026511571 0)
(3.3130452e-07 0.0026513007 0)
(-3.3198689e-07 0.0026513007 0)
(-9.5621405e-07 0.002651157 0)
(-1.4626859e-06 0.0026508881 0)
(-1.7490951e-06 0.0026505388 0)
(-1.6549168e-06 0.0026502043 0)
(-1.2127904e-06 0.002650061 0)
(3.672393e-07 0.0026502671 0)
(1.6358538e-06 0.0026507183 0)
(4.0121622e-06 0.0026482887 0)
(4.2174569e-06 0.002634409 0)
(-6.4955632e-06 0.0031774533 0)
(-7.0014303e-06 0.0031954962 0)
(-2.7658217e-06 0.0031991401 0)
(-4.668922e-08 0.0032001299 0)
(2.159068e-06 0.0032008624 0)
(2.688825e-06 0.0032017868 0)
(2.6295416e-06 0.0032026125 0)
(2.1087256e-06 0.0032032561 0)
(1.3448901e-06 0.0032036819 0)
(4.6112133e-07 0.0032038942 0)
(-4.6175232e-07 0.0032038942 0)
(-1.3455103e-06 0.0032036818 0)
(-2.1093243e-06 0.003203256 0)
(-2.6301061e-06 0.0032026124 0)
(-2.6893491e-06 0.0032017866 0)
(-2.1595545e-06 0.0032008622 0)
(4.6231606e-08 0.0032001297 0)
(2.765374e-06 0.0031991399 0)
(7.001021e-06 0.003195496 0)
(6.4953587e-06 0.003177453 0)
(-7.5961191e-06 0.003619832 0)
(-7.4804887e-06 0.0036387056 0)
(-7.8163746e-07 0.0036450854 0)
(2.6592898e-06 0.0036486535 0)
(4.5733822e-06 0.0036509323 0)
(4.7205912e-06 0.0036528118 0)
(4.120947e-06 0.0036541243 0)
(3.1131853e-06 0.0036550108 0)
(1.9203933e-06 0.0036555395 0)
(6.4903909e-07 0.0036557908 0)
(-6.4962795e-07 0.0036557908 0)
(-1.9209758e-06 0.0036555394 0)
(-3.113757e-06 0.0036550107 0)
(-4.1214928e-06 0.0036541242 0)
(-4.7210874e-06 0.0036528117 0)
(-4.5738379e-06 0.0036509322 0)
(-2.6596939e-06 0.0036486534 0)
(7.8127495e-07 0.0036450854 0)
(7.480175e-06 0.0036387057 0)
(7.5959624e-06 0.0036198322 0)
(-7.6333219e-06 0.0039643145 0)
(-3.7247285e-06 0.0039840983 0)
(6.4095045e-06 0.0039918567 0)
(8.5906067e-06 0.0039980648 0)
(8.8123435e-06 0.0040017539 0)
(7.7859812e-06 0.0040042585 0)
(6.202746e-06 0.0040057913 0)
(4.453451e-06 0.0040067494 0)
(2.6652936e-06 0.004007277 0)
(8.8909828e-07 0.0040075226 0)
(-8.8967318e-07 0.0040075226 0)
(-2.6658683e-06 0.004007277 0)
(-4.4540402e-06 0.0040067494 0)
(-6.2033268e-06 0.0040057913 0)
(-7.7864988e-06 0.0040042585 0)
(-8.8128074e-06 0.0040017539 0)
(-8.5909606e-06 0.0039980648 0)
(-6.4097473e-06 0.0039918569 0)
(3.7245914e-06 0.0039840986 0)
(7.6332812e-06 0.0039643149 0)
(4.9475078e-05 0.004329087 0)
(6.8905707e-05 0.0043730217 0)
(4.5988276e-05 0.0043803774 0)
(3.2271643e-05 0.0043888385 0)
(2.3207303e-05 0.0043935632 0)
(1.6891017e-05 0.0043964208 0)
(1.20037e-05 0.0043980318 0)
(8.040891e-06 0.0043990078 0)
(4.6160715e-06 0.0043995184 0)
(1.5076999e-06 0.0043997682 0)
(-1.5082593e-06 0.0043997682 0)
(-4.6166331e-06 0.0043995185 0)
(-8.0414492e-06 0.0043990079 0)
(-1.2004222e-05 0.004398032 0)
(-1.6891441e-05 0.0043964211 0)
(-2.3207658e-05 0.0043935636 0)
(-3.2271874e-05 0.0043888389 0)
(-4.5988332e-05 0.0043803782 0)
(-6.8905554e-05 0.0043730227 0)
(-4.9474883e-05 0.0043290882 0)
(0.0003279179 0.0041543953 0)
(0.00046666886 0.0044956739 0)
(0.00034275859 0.0045044596 0)
(0.00023337439 0.0044976954 0)
(0.00015860524 0.0044928315 0)
(0.00010843368 0.0044905581 0)
(7.328112e-05 0.0044895951 0)
(4.7226545e-05 0.0044892743 0)
(2.6460947e-05 0.0044891916 0)
(8.5502399e-06 0.0044892373 0)
(-8.5516954e-06 0.0044892373 0)
(-2.6462442e-05 0.0044891919 0)
(-4.7227841e-05 0.0044892747 0)
(-7.3282147e-05 0.0044895956 0)
(-0.0001084343 0.0044905587 0)
(-0.00015860547 0.0044928325 0)
(-0.00023337409 0.0044976964 0)
(-0.00034275762 0.0045044609 0)
(-0.0004666673 0.0044956757 0)
(-0.00032791677 0.0041543992 0)
(0.00048777785 0.0032345753 0)
(0.00092193737 0.0043111091 0)
(0.00088349826 0.0044643562 0)
(0.00072137128 0.0044459173 0)
(0.00055134681 0.0044051205 0)
(0.00040516196 0.0043715748 0)
(0.00028613184 0.0043483583 0)
(0.00018919561 0.0043334441 0)
(0.00010761661 0.0043246622 0)
(3.5079128e-05 0.0043205222 0)
(-3.5083667e-05 0.0043205219 0)
(-0.00010762072 0.004324662 0)
(-0.00018919934 0.0043334442 0)
(-0.00028613475 0.0043483582 0)
(-0.00040516401 0.0043715751 0)
(-0.00055134819 0.0044051208 0)
(-0.00072137218 0.0044459176 0)
(-0.00088349872 0.0044643569 0)
(-0.0009219373 0.0043111109 0)
(-0.0004877778 0.0032345788 0)
(0.00034079492 0.0025250036 0)
(0.00079025717 0.0040438073 0)
(0.00090415227 0.004472421 0)
(0.00083658521 0.0045560408 0)
(0.0006980468 0.0045333497 0)
(0.00054547746 0.0044862088 0)
(0.00040185098 0.0044418192 0)
(0.00027321442 0.0044079841 0)
(0.00015805886 0.0043859133 0)
(5.2002214e-05 0.0043749736 0)
(-5.200687e-05 0.0043749732 0)
(-0.00015806273 0.0043859124 0)
(-0.00027321783 0.0044079833 0)
(-0.00040185402 0.0044418184 0)
(-0.00054547997 0.0044862083 0)
(-0.00069804853 0.0045333491 0)
(-0.00083658615 0.0045560405 0)
(-0.00090415259 0.0044724209 0)
(-0.0007902572 0.0040438076 0)
(-0.000340795 0.0025250046 0)
(0.00019678613 0.0020556206 0)
(0.00055517257 0.0037657093 0)
(0.00073691348 0.0044254946 0)
(0.00075313028 0.0046422943 0)
(0.0006755261 0.0046776518 0)
(0.0005570654 0.0046463582 0)
(0.00042681691 0.0045984188 0)
(0.00029822942 0.0045549229 0)
(0.00017553494 0.0045239514 0)
(5.8273387e-05 0.0045080191 0)
(-5.8277473e-05 0.0045080186 0)
(-0.00017553885 0.0045239503 0)
(-0.00029823269 0.0045549218 0)
(-0.00042681958 0.0045984177 0)
(-0.00055706751 0.0046463572 0)
(-0.00067552746 0.0046776514 0)
(-0.00075313109 0.0046422941 0)
(-0.00073691398 0.0044254943 0)
(-0.00055517274 0.0037657089 0)
(-0.00019678612 0.0020556203 0)
(0.00010545877 0.0017651314 0)
(0.00035685322 0.0035070824 0)
(0.00054156188 0.0043141512 0)
(0.00060249267 0.0046488713 0)
(0.00057519087 0.0047549244 0)
(0.00049745703 0.0047579776 0)
(0.00039501123 0.0047223096 0)
(0.00028316334 0.0046801843 0)
(0.00016944979 0.0046469187 0)
(5.6713858e-05 0.0046290577 0)
(-5.6716624e-05 0.004629057 0)
(-0.00016945253 0.0046469174 0)
(-0.00028316575 0.0046801829 0)
(-0.00039501335 0.0047223079 0)
(-0.0004974583 0.0047579762 0)
(-0.00057519169 0.0047549238 0)
(-0.00060249366 0.0046488711 0)
(-0.00054156243 0.0043141512 0)
(-0.00035685348 0.0035070821 0)
(-0.00010545895 0.0017651311 0)
(5.4894774e-05 0.0015941207 0)
(0.00021891437 0.0033059323 0)
(0.00037494458 0.0041928371 0)
(0.0004494626 0.0046154412 0)
(0.00045337403 0.0047867813 0)
(0.00040906488 0.004829925 0)
(0.00033545449 0.0048153458 0)
(0.00024616815 0.0047825511 0)
(0.00014958167 0.0047525646 0)
(5.041981e-05 0.004735564 0)
(-5.042117e-05 0.0047355634 0)
(-0.00014958307 0.0047525633 0)
(-0.00024616963 0.0047825493 0)
(-0.00033545585 0.0048153441 0)
(-0.00040906547 0.0048299236 0)
(-0.00045337432 0.0047867807 0)
(-0.00044946303 0.0046154413 0)
(-0.00037494472 0.0041928378 0)
(-0.00021891465 0.0033059328 0)
(-5.489507e-05 0.0015941209 0)
(2.8782074e-05 0.0014951486 0)
(0.00013179406 0.0031643903 0)
(0.00025024329 0.0040891854 0)
(0.00032017094 0.0045708076 0)
(0.00033906937 0.0047944506 0)
(0.00031769425 0.0048751476 0)
(0.00026818208 0.004884207 0)
(0.00020102888 0.0048647635 0)
(0.00012386903 0.0048415072 0)
(4.2009518e-05 0.0048272587 0)
(-4.2009508e-05 0.0048272583 0)
(-0.00012386877 0.0048415061 0)
(-0.00020102881 0.0048647616 0)
(-0.00026818228 0.0048842054 0)
(-0.00031769412 0.0048751462 0)
(-0.00033906892 0.0047944503 0)
(-0.00032017067 0.0045708083 0)
(-0.0002502433 0.0040891865 0)
(-0.00013179449 0.0031643915 0)
(-2.8782385e-05 0.0014951493 0)
(1.55216e-05 0.0014375284 0)
(7.9144685e-05 0.0030691369 0)
(0.00016320936 0.0040089732 0)
(0.00022078087 0.0045273408 0)
(0.00024404476 0.0047892941 0)
(0.00023648016 0.0049011857 0)
(0.00020489778 0.0049324117 0)
(0.00015657864 0.0049271869 0)
(9.7712546e-05 0.0049120803 0)
(3.3318397e-05 0.0049015019 0)
(-3.3316699e-05 0.0049015015 0)
(-9.7711038e-05 0.004912079 0)
(-0.00015657716 0.0049271848 0)
(-0.00020489647 0.0049324103 0)
(-0.00023647898 0.0049011841 0)
(-0.00024404368 0.0047892939 0)
(-0.00022078028 0.0045273421 0)
(-0.00016320929 0.0040089749 0)
(-7.9145182e-05 0.0030691391 0)
(-1.5521975e-05 0.00143753 0)
(8.6347867e-06 0.0014035685 0)
(4.7700992e-05 0.0030067011 0)
(0.0001048409 0.0039505356 0)
(0.00014864154 0.0044904545 0)
(0.0001705831 0.0047787618 0)
(0.00017032932 0.0049146149 0)
(0.00015109261 0.0049645725 0)
(0.00011749824 0.004972463 0)
(7.4177451e-05 0.0049654631 0)
(2.5416427e-05 0.004958719 0)
(-2.5413898e-05 0.0049587185 0)
(-7.4174754e-05 0.0049654614 0)
(-0.00011749574 0.0049724608 0)
(-0.0001510905 0.0049645708 0)
(-0.00017032738 0.0049146134 0)
(-0.00017058165 0.004778762 0)
(-0.00014864059 0.0044904563 0)
(-0.00010484032 0.0039505382 0)
(-4.7701368e-05 0.0030067039 0)
(-8.6353095e-06 0.0014035708 0)
(4.9239319e-06 0.0013833286 0)
(2.8874012e-05 0.0029665307 0)
(6.66349e-05 0.0039097764 0)
(9.8263937e-05 0.0044617461 0)
(0.00011652402 0.0047673822 0)
(0.00011950872 0.0049206556 0)
(0.00010828831 0.0049853766 0)
(8.5560224e-05 0.0050043358 0)
(5.4587329e-05 0.005004557 0)
(1.8787111e-05 0.0050013433 0)
(-1.878442e-05 0.0050013428 0)
(-5.4584515e-05 0.0050045555 0)
(-8.5557531e-05 0.0050043337 0)
(-0.00010828608 0.0049853748 0)
(-0.00011950672 0.0049206543 0)
(-0.00011652213 0.0047673828 0)
(-9.826252e-05 0.0044617482 0)
(-6.663428e-05 0.0039097794 0)
(-2.8874028e-05 0.0029665339 0)
(-4.9239776e-06 0.0013833311 0)
(2.8501907e-06 0.0013711698 0)
(1.7522435e-05 0.0029410031 0)
(4.2013251e-05 0.0038821894 0)
(6.4039951e-05 0.004440626 0)
(7.814678e-05 0.0047572874 0)
(8.2090152e-05 0.0049227281 0)
(7.582682e-05 0.0049985189 0)
(6.0784848e-05 0.0050262627 0)
(3.9156216e-05 0.0050324638 0)
(1.353191e-05 0.0050322487 0)
(-1.3529174e-05 0.0050322481 0)
(-3.9153463e-05 0.0050324628 0)
(-6.0782366e-05 0.0050262609 0)
(-7.5824432e-05 0.0049985174 0)
(-8.2087876e-05 0.0049227273 0)
(-7.8144707e-05 0.0047572881 0)
(-6.4038322e-05 0.004440628 0)
(-4.2012465e-05 0.0038821925 0)
(-1.7522493e-05 0.0029410066 0)
(-2.850321e-06 0.0013711721 0)
(1.6568559e-06 0.0013638396 0)
(1.0629373e-05 0.0029249186 0)
(2.6308466e-05 0.0038638993 0)
(4.1255771e-05 0.004425664 0)
(5.1630201e-05 0.0047491705 0)
(5.5413194e-05 0.0049228591 0)
(5.2085289e-05 0.0050066464 0)
(4.230672e-05 0.0050410532 0)
(2.7493923e-05 0.0050519528 0)
(9.538171e-06 0.0050541429 0)
(-9.5358429e-06 0.0050541425 0)
(-2.7492021e-05 0.005051952 0)
(-4.2304718e-05 0.0050410519 0)
(-5.2082868e-05 0.0050066453 0)
(-5.5410818e-05 0.0049228591 0)
(-5.1628413e-05 0.0047491715 0)
(-4.1254459e-05 0.0044256664 0)
(-2.6307524e-05 0.0038639026 0)
(-1.0629102e-05 0.0029249219 0)
(-1.6567751e-06 0.0013638419 0)
(9.5662236e-07 0.001359427 0)
(6.4217372e-06 0.0029148554 0)
(1.6361661e-05 0.0038519547 0)
(2.6314594e-05 0.0044153466 0)
(3.3685694e-05 0.0047430236 0)
(3.6863716e-05 0.0049221785 0)
(3.5204547e-05 0.0050115792 0)
(2.8941839e-05 0.0050508674 0)
(1.8960802e-05 0.0050653144 0)
(6.6015301e-06 0.0050693525 0)
(-6.599648e-06 0.0050693524 0)
(-1.8959214e-05 0.0050653137 0)
(-2.8940158e-05 0.0050508666 0)
(-3.5202558e-05 0.0050115785 0)
(-3.6862006e-05 0.004922179 0)
(-3.3684439e-05 0.0047430249 0)
(-2.6313767e-05 0.0044153494 0)
(-1.6361029e-05 0.0038519584 0)
(-6.4212644e-06 0.0029148589 0)
(-9.5647173e-07 0.0013594292 0)
(5.4209843e-07 0.0013567888 0)
(3.847493e-06 0.0029086038 0)
(1.0096682e-05 0.0038442457 0)
(1.6629609e-05 0.0044083731 0)
(2.1737309e-05 0.0047385534 0)
(2.4217361e-05 0.0049212687 0)
(2.3467622e-05 0.0050145229 0)
(1.9507993e-05 0.0050572919 0)
(1.2875762e-05 0.0050743341 0)
(4.498085e-06 0.0050797455 0)
(-4.4968366e-06 0.0050797455 0)
(-1.2874673e-05 0.0050743335 0)
(-1.9506819e-05 0.0050572911 0)
(-2.3466307e-05 0.0050145226 0)
(-2.4216161e-05 0.0049212693 0)
(-2.1736299e-05 0.0047385551 0)
(-1.6628891e-05 0.0044083761 0)
(-1.0096168e-05 0.0038442498 0)
(-3.8472065e-06 0.0029086075 0)
(-5.4205601e-07 0.0013567907 0)
(2.968729e-07 0.0013552309 0)
(2.2740013e-06 0.0029047515 0)
(6.170359e-06 0.0038393194 0)
(1.0409223e-05 0.0044037317 0)
(1.3882773e-05 0.0047353946 0)
(1.5730461e-05 0.0049203973 0)
(1.5453421e-05 0.0050162507 0)
(1.2979092e-05 0.0050614476 0)
(8.6257935e-06 0.005080342 0)
(3.0230943e-06 0.0050867467 0)
(-3.0224049e-06 0.0050867465 0)
(-8.6254413e-06 0.0050803413 0)
(-1.2978708e-05 0.0050614467 0)
(-1.5452809e-05 0.0050162503 0)
(-1.572988e-05 0.004920398 0)
(-1.3882502e-05 0.0047353962 0)
(-1.0409026e-05 0.0044037349 0)
(-6.1701223e-06 0.0038393237 0)
(-2.2739217e-06 0.0029047554 0)
(-2.9678315e-07 0.0013552327 0)
(1.5338751e-07 0.0013543287 0)
(1.316956e-06 0.0029024021 0)
(3.7231732e-06 0.0038362006 0)
(6.4460672e-06 0.0044006804 0)
(8.7742723e-06 0.0047332087 0)
(1.0107928e-05 0.0049196645 0)
(1.0061229e-05 0.0050172455 0)
(8.5335287e-06 0.0050641062 0)
(5.7083757e-06 0.005084296 0)
(2.0067259e-06 0.0050914034 0)
(-2.0063886e-06 0.0050914029 0)
(-5.7083113e-06 0.0050842952 0)
(-8.5334247e-06 0.0050641054 0)
(-1.0060998e-05 0.0050172452 0)
(-1.0107808e-05 0.004919665 0)
(-8.7743677e-06 0.0047332102 0)
(-6.4463442e-06 0.0044006837 0)
(-3.7234071e-06 0.0038362051 0)
(-1.3168253e-06 0.0029024062 0)
(-1.5323006e-07 0.0013543306 0)
(7.0940053e-08 0.0013538219 0)
(7.3961781e-07 0.0029009887 0)
(2.2086494e-06 0.0038342455 0)
(3.9408824e-06 0.0043986954 0)
(5.482954e-06 0.0047317199 0)
(6.424356e-06 0.004919089 0)
(6.47862e-06 0.0050178043 0)
(5.5477202e-06 0.0050657888 0)
(3.7343221e-06 0.005086869 0)
(1.3163475e-06 0.0050944645 0)
(-1.3167707e-06 0.0050944643 0)
(-3.7347609e-06 0.0050868683 0)
(-5.547992e-06 0.0050657879 0)
(-6.4786474e-06 0.0050178041 0)
(-6.424529e-06 0.0049190893 0)
(-5.48353e-06 0.0047317217 0)
(-3.9412133e-06 0.0043986986 0)
(-2.2086057e-06 0.0038342501 0)
(-7.3960158e-07 0.0029009926 0)
(-7.0972517e-08 0.0013538239 0)
(2.5435464e-08 0.0013535505 0)
(3.9616933e-07 0.002900154 0)
(1.279344e-06 0.0038330336 0)
(2.3705314e-06 0.0043974168 0)
(3.3816381e-06 0.004730719 0)
(4.0349788e-06 0.0049186556 0)
(4.1246527e-06 0.0050181078 0)
(3.5661897e-06 0.0050668409 0)
(2.4153336e-06 0.0050885247 0)
(8.537958e-07 0.0050964545 0)
(-8.5478651e-07 0.0050964542 0)
(-2.4165958e-06 0.0050885239 0)
(-3.5671615e-06 0.0050668402 0)
(-4.1251338e-06 0.0050181075 0)
(-4.035578e-06 0.004918656 0)
(-3.3823529e-06 0.0047307206 0)
(-2.3709306e-06 0.00439742 0)
(-1.2792907e-06 0.0038330379 0)
(-3.9607718e-07 0.0029001577 0)
(-2.5432242e-08 0.0013535528 0)
(1.1088527e-09 0.0013534163 0)
(1.954127e-07 0.0028996737 0)
(7.1634665e-07 0.0038322928 0)
(1.3959188e-06 0.0043966017 0)
(2.0527015e-06 0.0047300532 0)
(2.5004833e-06 0.0049183385 0)
(2.5937638e-06 0.0050182641 0)
(2.2657748e-06 0.0050674905 0)
(1.544577e-06 0.0050895781 0)
(5.4719017e-07 0.0050977335 0)
(-5.4898643e-07 0.0050977329 0)
(-1.5457053e-06 0.0050895773 0)
(-2.2667372e-06 0.0050674897 0)
(-2.594761e-06 0.0050182635 0)
(-2.5015945e-06 0.0049183383 0)
(-2.0537179e-06 0.004730054 0)
(-1.3964019e-06 0.0043966044 0)
(-7.1640952e-07 0.0038322967 0)
(-1.9543942e-07 0.0028996773 0)
(-1.0952218e-09 0.0013534186 0)
(-1.0364947e-08 0.0013533601 0)
(8.1837935e-08 0.0028994077 0)
(3.8079001e-07 0.0038318475 0)
(7.9850653e-07 0.0043960875 0)
(1.2212118e-06 0.0047296144 0)
(1.5251292e-06 0.0049181108 0)
(1.6086909e-06 0.0050183372 0)
(1.4211042e-06 0.0050678854 0)
(9.755456e-07 0.00509024 0)
(3.464567e-07 0.005098546 0)
(-3.485968e-07 0.0050985457 0)
(-9.7732036e-07 0.0050902395 0)
(-1.4228747e-06 0.0050678844 0)
(-1.6104069e-06 0.0050183361 0)
(-1.52695e-06 0.0049181097 0)
(-1.2231297e-06 0.0047296145 0)
(-7.9953106e-07 0.0043960894 0)
(-3.8123981e-07 0.0038318509 0)
(-8.2299522e-08 0.002899411 0)
(1.0271674e-08 0.0013533621 0)
(-1.4677173e-08 0.0013533466 0)
(2.0849444e-08 0.0028992685 0)
(1.8622898e-07 0.0038315855 0)
(4.3896263e-07 0.0043957667 0)
(7.0846591e-07 0.0047293276 0)
(9.130833e-07 0.0049179496 0)
(9.8270104e-07 0.0050183654 0)
(8.7920723e-07 0.0050681212 0)
(6.0794159e-07 0.0050906508 0)
(2.1627012e-07 0.0050990561 0)
(-2.1902265e-07 0.0050990558 0)
(-6.106493e-07 0.0050906501 0)
(-8.8169842e-07 0.0050681201 0)
(-9.8518218e-07 0.0050183638 0)
(-9.1585769e-07 0.0049179481 0)
(-7.1074573e-07 0.0047293274 0)
(-4.4034329e-07 0.0043957679 0)
(-1.8702143e-07 0.003831588 0)
(-2.1264602e-08 0.0028992714 0)
(1.4607857e-08 0.0013533482 0)
(-1.4805106e-08 0.0013533546 0)
(-8.883554e-09 0.0028992016 0)
(7.7831854e-08 0.0038314356 0)
(2.2837766e-07 0.004395569 0)
(3.9902733e-07 0.0047291417 0)
(5.3582385e-07 0.0049178369 0)
(5.9057324e-07 0.0050183706 0)
(5.3603126e-07 0.005068259 0)
(3.7355332e-07 0.0050909023 0)
(1.3288061e-07 0.0050993723 0)
(-1.363301e-07 0.0050993717 0)
(-3.772311e-07 0.0050909012 0)
(-5.3962875e-07 0.0050682574 0)
(-5.9374793e-07 0.0050183684 0)
(-5.3881578e-07 0.0049178352 0)
(-4.0188152e-07 0.0047291409 0)
(-2.3041517e-07 0.0043955696 0)
(-7.8812861e-08 0.0038314372 0)
(8.775204e-09 0.0028992037 0)
(1.4983559e-08 0.0013533557 0)
(-1.2880178e-08 0.0013533704 0)
(-2.010727e-08 0.0028991751 0)
(2.2341674e-08 0.0038313524 0)
(1.1065649e-07 0.0043954488 0)
(2.1786407e-07 0.0047290225 0)
(3.0834379e-07 0.0049177591 0)
(3.4975574e-07 0.0050183648 0)
(3.2275319e-07 0.0050683377 0)
(2.2676948e-07 0.005091054 0)
(8.0140578e-08 0.005099566 0)
(-8.495082e-08 0.0050995655 0)
(-2.3146109e-07 0.0050910527 0)
(-3.2735138e-07 0.0050683357 0)
(-3.53976e-07 0.0050183625 0)
(-3.1217437e-07 0.0049177567 0)
(-2.2122133e-07 0.0047290207 0)
(-1.1307926e-07 0.0043954487 0)
(-2.3502546e-08 0.0038313529 0)
(1.996609e-08 0.0028991763 0)
(1.2964079e-08 0.0013533712 0)
(-9.6866366e-09 0.001353387 0)
(-2.0391496e-08 0.0028991688 0)
(-9.1544712e-10 0.0038313071 0)
(5.062187e-08 0.0043953765 0)
(1.1747269e-07 0.0047289465 0)
(1.7652112e-07 0.0049177062 0)
(2.063491e-07 0.0050183562 0)
(1.9354006e-07 0.0050683821 0)
(1.3696662e-07 0.005091145 0)
(4.7782147e-08 0.0050996841 0)
(-5.3521236e-08 0.0050996835 0)
(-1.4266868e-07 0.0050911434 0)
(-1.9907824e-07 0.0050683799 0)
(-2.1160959e-07 0.0050183534 0)
(-1.8158237e-07 0.004917703 0)
(-1.2190689e-07 0.0047289437 0)
(-5.3800627e-08 0.0043953751 0)
(-8.1284364e-10 0.0038313065 0)
(2.0040955e-08 0.0028991693 0)
(9.8463922e-09 0.0013533872 0)
(-5.9379923e-09 0.0013533999 0)
(-1.3870607e-08 0.0028991691 0)
(-3.6424828e-09 0.0038312821 0)
(2.7462717e-08 0.0043953325 0)
(6.894713e-08 0.0047288983 0)
(1.0630533e-07 0.0049176712 0)
(1.2592177e-07 0.0050183484 0)
(1.1858569e-07 0.0050684076 0)
(8.3602249e-08 0.0050912 0)
(2.801952e-08 0.0050997564 0)
(-3.5243342e-08 0.0050997557 0)
(-9.0704044e-08 0.0050911985 0)
(-1.2528481e-07 0.005068405 0)
(-1.3199747e-07 0.0050183451 0)
(-1.1193825e-07 0.0049176673 0)
(-7.3713304e-08 0.0047288948 0)
(-3.1041968e-08 0.00439533 0)
(1.5621003e-09 0.0038312806 0)
(1.3530319e-08 0.0028991687 0)
(6.163256e-09 0.0013533996 0)
(-1.5876746e-09 0.0013534069 0)
(-2.0401424e-09 0.0028991685 0)
(8.0722325e-09 0.0038312669 0)
(2.8555578e-08 0.0043953059 0)
(5.3703729e-08 0.0047288691 0)
(7.5361343e-08 0.0049176503 0)
(8.5405945e-08 0.0050183444 0)
(7.8589494e-08 0.0050684245 0)
(5.4475732e-08 0.0050912359 0)
(1.7042887e-08 0.0050998029 0)
(-2.510663e-08 0.0050998024 0)
(-6.2353679e-08 0.005091234 0)
(-8.6375512e-08 0.0050684217 0)
(-9.2708059e-08 0.0050183408 0)
(-8.186849e-08 0.0049176458 0)
(-5.9230679e-08 0.0047288647 0)
(-3.2831855e-08 0.0043953017 0)
(-1.0727384e-08 0.0038312639 0)
(1.5299463e-09 0.0028991667 0)
(1.8533934e-09 0.0013534061 0)
(4.6629277e-09 0.0013534075 0)
(1.6608117e-08 0.0028991644 0)
(3.3062706e-08 0.0038312577 0)
(4.7832059e-08 0.0043952938 0)
(6.1076332e-08 0.0047288581 0)
(7.0297215e-08 0.0049176458 0)
(7.1080741e-08 0.0050183509 0)
(6.1109763e-08 0.0050684442 0)
(4.0315543e-08 0.0050912673 0)
(1.1383973e-08 0.005099841 0)
(-2.0224816e-08 0.0050998407 0)
(-4.8900971e-08 0.0050912653 0)
(-6.9592591e-08 0.005068441 0)
(-7.9178329e-08 0.0050183471 0)
(-7.7498346e-08 0.0049176405 0)
(-6.746734e-08 0.0047288527 0)
(-5.2706446e-08 0.0043952883 0)
(-3.5667737e-08 0.0038312531 0)
(-1.7142482e-08 0.0028991613 0)
(-4.5285687e-09 0.0013534062 0)
(1.725351e-08 0.0013533833 0)
(4.7894212e-08 0.002899135 0)
(7.20847e-08 0.0038312349 0)
(8.2181996e-08 0.0043952764 0)
(8.4606969e-08 0.0047288456 0)
(8.1831708e-08 0.0049176389 0)
(7.3047456e-08 0.005018351 0)
(5.7467046e-08 0.0050684524 0)
(3.538508e-08 0.0050912822 0)
(9.1107322e-09 0.0050998603 0)
(-1.8659081e-08 0.0050998599 0)
(-4.5301748e-08 0.0050912805 0)
(-6.7120875e-08 0.0050684491 0)
(-8.2087543e-08 0.0050183468 0)
(-9.0109331e-08 0.0049176325 0)
(-9.1770088e-08 0.0047288387 0)
(-8.7464883e-08 0.0043952693 0)
(-7.5227772e-08 0.0038312285 0)
(-4.9001607e-08 0.0028991306 0)
(-1.7202968e-08 0.0013533818 0)
(3.7282459e-08 0.0013533713 0)
(9.2042119e-08 0.0028991093 0)
(1.200856e-07 0.0038312201 0)
(1.2249886e-07 0.0043952693 0)
(1.1421584e-07 0.0047288418 0)
(1.0035378e-07 0.0049176379 0)
(8.2554038e-08 0.0050183532 0)
(6.10641e-08 0.0050684582 0)
(3.5818986e-08 0.0050912911 0)
(8.6475666e-09 0.0050998712 0)
(-1.9037233e-08 0.0050998707 0)
(-4.6440643e-08 0.0050912892 0)
(-7.1282506e-08 0.0050684546 0)
(-9.2220222e-08 0.005018348 0)
(-1.0949306e-07 0.0049176305 0)
(-1.2192568e-07 0.0047288334 0)
(-1.2814873e-07 0.00439526 0)
(-1.2373559e-07 0.0038312116 0)
(-9.3512302e-08 0.0028991029 0)
(-3.7432883e-08 0.0013533689 0)
(4.4222813e-08 0.0013532211 0)
(1.099909e-07 0.0028990285 0)
(1.3954693e-07 0.0038312045 0)
(1.4017495e-07 0.0043952887 0)
(1.2845961e-07 0.0047288792 0)
(1.1048096e-07 0.0049176861 0)
(8.8391648e-08 0.0050184087 0)
(6.3482186e-08 0.0050685187 0)
(3.6381557e-08 0.0050913544 0)
(8.6417994e-09 0.0050999363 0)
(-1.956576e-08 0.0050999352 0)
(-4.7550445e-08 0.005091352 0)
(-7.4259592e-08 0.0050685146 0)
(-9.8647426e-08 0.0050184021 0)
(-1.1956351e-07 0.0049176774 0)
(-1.3629852e-07 0.0047288692 0)
(-1.4630612e-07 0.004395277 0)
(-1.4338993e-07 0.0038311936 0)
(-1.1167786e-07 0.0028990192 0)
(-4.4459463e-08 0.0013532175 0)
)
;

boundaryField
{
    Wall
    {
        type            fixedValue;
        value           uniform (0 0 0);
    }
    frontAndBack
    {
        type            empty;
    }
    atmosphere
    {
        type            pressureInletOutletVelocity;
        value           nonuniform List<vector> 
20
(
(4.4222813e-08 0.0013532211 0)
(1.099909e-07 0.0028990285 0)
(1.3954693e-07 0.0038312045 0)
(1.4017495e-07 0.0043952887 0)
(1.2845961e-07 0.0047288792 0)
(1.1048096e-07 0.0049176861 0)
(8.8391648e-08 0.0050184087 0)
(6.3482186e-08 0.0050685187 0)
(3.6381557e-08 0.0050913544 0)
(8.6417994e-09 0.0050999363 0)
(-1.956576e-08 0.0050999352 0)
(-4.7550445e-08 0.005091352 0)
(-7.4259592e-08 0.0050685146 0)
(-9.8647426e-08 0.0050184021 0)
(-1.1956351e-07 0.0049176774 0)
(-1.3629852e-07 0.0047288692 0)
(-1.4630612e-07 0.004395277 0)
(-1.4338993e-07 0.0038311936 0)
(-1.1167786e-07 0.0028990192 0)
(-4.4459463e-08 0.0013532175 0)
)
;
    }
}


// ************************************************************************* //
