/*--------------------------------*- C++ -*----------------------------------*\
| =========                 |                                                 |
| \\      /  F ield         | OpenFOAM: The Open Source CFD Toolbox           |
|  \\    /   O peration     | Version:  3.0.1                                 |
|   \\  /    A nd           | Web:      www.OpenFOAM.org                      |
|    \\/     M anipulation  |                                                 |
\*---------------------------------------------------------------------------*/
FoamFile
{
    version     2.0;
    format      ascii;
    class       volScalarField;
    location    "19";
    object      wBA_l;
}
// * * * * * * * * * * * * * * * * * * * * * * * * * * * * * * * * * * * * * //

dimensions      [0 0 0 0 0 0 0];

internalField   nonuniform List<scalar> 
800
(
0.054937553
0.054937188
0.054937174
0.054937179
0.054937183
0.054937185
0.054937186
0.054937187
0.054937187
0.054937188
0.054937188
0.054937187
0.054937187
0.054937186
0.054937185
0.054937183
0.054937179
0.054937174
0.054937187
0.054937553
0.055390428
0.055380296
0.055378438
0.055377924
0.055377632
0.055377374
0.05537715
0.055376974
0.055376854
0.055376794
0.055376794
0.055376854
0.055376974
0.05537715
0.055377374
0.055377632
0.055377923
0.055378438
0.055380296
0.055390429
0.053815597
0.053829324
0.053831756
0.053831461
0.053830772
0.053830311
0.053830046
0.053829905
0.053829836
0.053829809
0.053829809
0.053829836
0.053829905
0.053830045
0.053830311
0.053830771
0.053831461
0.053831755
0.053829323
0.053815596
0.050771759
0.050829812
0.05083775
0.050836319
0.050835121
0.05083442
0.050834141
0.050834072
0.050834074
0.050834092
0.050834092
0.050834074
0.050834072
0.050834141
0.05083442
0.050835121
0.050836319
0.05083775
0.050829811
0.050771757
0.046706269
0.046826925
0.046841796
0.046840731
0.046839298
0.046838528
0.046838284
0.046838262
0.046838298
0.046838331
0.046838331
0.046838298
0.046838262
0.046838284
0.046838528
0.046839299
0.046840731
0.046841796
0.046826925
0.046706268
0.041907566
0.042113891
0.042142846
0.042145053
0.042144629
0.042144371
0.042144306
0.042144263
0.042144256
0.042144254
0.042144254
0.042144256
0.042144264
0.042144307
0.042144373
0.042144631
0.042145055
0.042142848
0.042113893
0.041907567
0.036552623
0.036883694
0.036944265
0.036956456
0.036959355
0.036960144
0.036960297
0.036960077
0.036959876
0.036959723
0.036959723
0.036959876
0.036960078
0.036960299
0.036960146
0.036959358
0.036956459
0.036944268
0.036883698
0.036552627
0.030685234
0.031190286
0.031315278
0.031348276
0.031357014
0.031358665
0.03135827
0.03135736
0.031356561
0.031356
0.031356
0.031356561
0.031357361
0.031358272
0.031358668
0.031357017
0.03134828
0.031315283
0.031190291
0.03068524
0.024415796
0.025152925
0.025400617
0.025471968
0.025488378
0.025488528
0.025484967
0.025481839
0.025479458
0.025477982
0.025477982
0.025479458
0.025481839
0.025484969
0.025488531
0.025488382
0.025471974
0.025400623
0.025152933
0.024415805
0.017682691
0.018829094
0.019321111
0.01947274
0.019501443
0.019494141
0.019480809
0.01947093
0.019464241
0.019460516
0.019460515
0.01946424
0.019470928
0.019480809
0.019494144
0.019501448
0.019472747
0.019321118
0.018829103
0.017682705
0.01076655
0.012487531
0.013321084
0.013610396
0.013663123
0.013640243
0.013605703
0.013580174
0.013563845
0.013555354
0.013555352
0.013563843
0.013580169
0.013605702
0.013640244
0.013663126
0.013610402
0.01332109
0.01248754
0.010766564
0.0049578943
0.0073540612
0.0084538118
0.0088705592
0.0089529616
0.0089113463
0.0088463666
0.0087955397
0.0087629279
0.0087464625
0.0087464599
0.0087629241
0.0087955327
0.0088463628
0.0089113455
0.0089529629
0.0088705627
0.0084538148
0.0073540676
0.0049579043
0.0015905978
0.0038344827
0.0049774452
0.0054565003
0.0055714139
0.0055303799
0.0054499175
0.0053813405
0.0053356211
0.0053124813
0.0053124783
0.0053356161
0.005381332
0.0054499118
0.0055303773
0.0055714127
0.0054565012
0.0049774456
0.0038344856
0.0015906018
0.00036127758
0.0017618964
0.0027056369
0.0031594133
0.0032944853
0.0032736203
0.0032031338
0.0031367863
0.0030904544
0.003066648
0.0030666452
0.0030904492
0.0031367779
0.0032031276
0.0032736165
0.0032944826
0.0031594126
0.0027056357
0.0017618968
0.00036127851
6.1893009e-05
0.00071184194
0.0013540743
0.0017164668
0.0018464921
0.0018470187
0.0017989845
0.0017482879
0.0017111745
0.00169177
0.0016917678
0.00171117
0.0017482808
0.0017989789
0.0018470148
0.001846489
0.0017164653
0.0013540728
0.00071184156
6.1893157e-05
8.5900143e-06
0.00025414442
0.00062432135
0.00087408182
0.00097922839
0.00099184573
0.00096512666
0.00093260011
0.00090760344
0.00089430663
0.00089430502
0.00090760004
0.00093259483
0.0009651222
0.00099184236
0.00097922551
0.0008740804
0.00062432012
0.00025414404
8.5900348e-06
1.0244951e-06
8.1186567e-05
0.00026614055
0.00041764237
0.00049119519
0.00050647819
0.0004942405
0.00047608461
0.00046137673
0.00045341634
0.0004534153
0.00046137444
0.00047608107
0.00049423735
0.00050647572
0.00049119298
0.00041764127
0.00026613979
8.1186351e-05
1.024498e-06
1.0939555e-07
2.3573507e-05
0.00010548612
0.00018770485
0.00023325467
0.00024592081
0.00024150038
0.0002325038
0.00022476073
0.00022049274
0.00022049213
0.00022475931
0.00023250162
0.00024149837
0.00024591919
0.0002332532
0.00018770413
0.00010548572
2.3573414e-05
1.0939596e-07
1.0736756e-08
6.3161469e-06
3.9130177e-05
7.9614448e-05
0.00010503103
0.00011361039
0.00011260254
0.00010860395
0.00010490043
0.00010281731
0.00010281697
0.00010489963
0.00010860273
0.00011260137
0.00011360943
0.00010503017
7.9614026e-05
3.9129997e-05
6.3161143e-06
1.073681e-08
9.8469213e-10
1.581606e-06
1.3673541e-05
3.1980292e-05
4.493532e-05
4.9991439e-05
5.0121815e-05
4.8523835e-05
4.6898441e-05
4.5962529e-05
4.596236e-05
4.6898015e-05
4.8523195e-05
5.0121183e-05
4.9990913e-05
4.4934861e-05
3.198007e-05
1.3673466e-05
1.5815958e-06
9.8469838e-10
8.5291408e-11
3.7391823e-07
4.5271798e-06
1.2207174e-05
1.8304561e-05
2.0979811e-05
2.1314428e-05
2.0744013e-05
2.0085362e-05
1.9695301e-05
1.969522e-05
2.0085152e-05
2.0743701e-05
2.1314111e-05
2.0979546e-05
1.8304337e-05
1.2207066e-05
4.5271509e-06
3.7391537e-07
8.5292048e-11
7.0287049e-12
8.4128252e-08
1.4271656e-06
4.441287e-06
7.1141135e-06
8.409108e-06
8.6672927e-06
8.4894785e-06
8.2422044e-06
8.0905901e-06
8.090554e-06
8.2421073e-06
8.4893356e-06
8.6671436e-06
8.4089824e-06
7.1140121e-06
4.4412392e-06
1.4271552e-06
8.4127501e-08
7.028766e-12
5.5418302e-13
1.8125234e-08
4.3006446e-07
1.5441847e-06
2.6429587e-06
3.2236739e-06
3.3735488e-06
3.3281571e-06
3.2420916e-06
3.186931e-06
3.1869158e-06
3.2420492e-06
3.3280955e-06
3.3734828e-06
3.2236179e-06
2.6429158e-06
1.5441649e-06
4.3006092e-07
1.8125049e-08
5.541885e-13
4.2010938e-14
3.7573695e-09
1.2426542e-07
5.1420844e-07
9.4015471e-07
1.1835489e-06
1.2581275e-06
1.250787e-06
1.2230847e-06
1.2042603e-06
1.2042541e-06
1.223067e-06
1.2507618e-06
1.2581e-06
1.1835253e-06
9.4013766e-07
5.1420078e-07
1.2426427e-07
3.7573267e-09
4.2011394e-14
3.0765729e-15
7.5219118e-10
3.4511324e-08
1.6429256e-07
3.2069475e-07
4.166728e-07
4.5001816e-07
4.5098482e-07
4.4279904e-07
4.3676923e-07
4.3676687e-07
4.427921e-07
4.5097497e-07
4.5000724e-07
4.1666331e-07
3.2068833e-07
1.6428976e-07
3.4510964e-08
7.5218172e-10
3.0766079e-15
2.1873518e-16
1.4580898e-10
9.2290658e-09
5.0441425e-08
1.0503486e-07
1.4082307e-07
1.5453302e-07
1.5613113e-07
1.539466e-07
1.5213555e-07
1.5213467e-07
1.5394399e-07
1.5612746e-07
1.545289e-07
1.4081946e-07
1.0503255e-07
5.0440457e-08
9.2289577e-09
1.4580697e-10
2.1873758e-16
1.5177473e-17
2.741986e-11
2.3797868e-09
1.4900128e-08
3.3069146e-08
4.5737955e-08
5.099154e-08
5.194173e-08
5.143466e-08
5.0926325e-08
5.092601e-08
5.1433725e-08
5.1940419e-08
5.0990055e-08
4.5736639e-08
3.3068351e-08
1.489981e-08
2.3797557e-09
2.7419449e-11
1.5177618e-17
1.0333921e-18
5.0082995e-12
5.9232407e-10
4.2392017e-09
1.0018562e-08
1.4289672e-08
1.6182363e-08
1.6618398e-08
1.6526505e-08
1.63941e-08
1.6393993e-08
1.6526185e-08
1.6617949e-08
1.618185e-08
1.4289216e-08
1.0018299e-08
4.2391017e-09
5.9231534e-10
5.0082178e-12
1.0333991e-18
6.9402808e-20
8.8909155e-13
1.4242165e-10
1.1626925e-09
2.9233658e-09
4.2983189e-09
4.9433047e-09
5.1173912e-09
5.1105314e-09
5.0789736e-09
5.0789381e-09
5.1104261e-09
5.1172428e-09
4.9431348e-09
4.298167e-09
2.9232817e-09
1.1626623e-09
1.4241928e-10
8.8907577e-13
6.9402989e-20
1.3538316e-20
1.5344436e-13
3.3103347e-11
3.0766781e-10
8.2229225e-10
1.2458612e-09
1.4547043e-09
1.5178516e-09
1.5220613e-09
1.5153801e-09
1.5153687e-09
1.522028e-09
1.5178045e-09
1.4546501e-09
1.2458127e-09
8.2226617e-10
3.0765901e-10
3.310272e-11
1.5344139e-13
1.3462375e-20
6.9424577e-21
2.5745977e-14
7.4419239e-12
7.8605489e-11
2.2314096e-10
3.4824084e-10
4.1271651e-10
4.3396972e-10
4.3691725e-10
4.3575292e-10
4.3574944e-10
4.3690711e-10
4.3395534e-10
4.1269992e-10
3.4822595e-10
2.2313316e-10
7.860301e-11
7.441764e-12
2.5745431e-14
7.0363508e-21
4.016823e-21
4.1992553e-15
1.6189255e-12
1.9403138e-11
5.8461258e-11
9.3941502e-11
1.1297341e-10
1.1969084e-10
1.2097193e-10
1.2085025e-10
1.2084923e-10
1.2096895e-10
1.196866e-10
1.1296851e-10
9.3937117e-11
5.8458998e-11
1.9402464e-11
1.618886e-12
4.1991621e-15
4.0277481e-21
9.1396412e-22
6.6572464e-16
3.4095188e-13
4.6303993e-12
1.4798016e-11
2.4474806e-11
2.9858365e-11
3.1867615e-11
3.2329736e-11
3.2348689e-11
3.2348398e-11
3.2328894e-11
3.1866408e-11
2.9856975e-11
2.4473564e-11
1.4797383e-11
4.6302226e-12
3.4094244e-13
6.6570704e-16
9.0984623e-22
1.4354255e-22
1.0259098e-16
6.9546327e-14
1.0689577e-12
3.6214631e-12
6.1626946e-12
7.624847e-12
8.1966223e-12
8.3456723e-12
8.3632983e-12
8.3632186e-12
8.3454421e-12
8.1962914e-12
7.6244665e-12
6.1623557e-12
3.6212914e-12
1.0689127e-12
6.9544144e-14
1.0258295e-16
1.4126817e-22
1.7067898e-23
1.5358844e-17
1.3745479e-14
2.3886836e-13
8.5742989e-13
1.5007498e-12
1.8826678e-12
2.0380758e-12
2.0824108e-12
2.0898528e-12
2.0898316e-12
2.0823501e-12
2.037988e-12
1.8825672e-12
1.5006606e-12
8.5738486e-13
2.3885728e-13
1.3744992e-14
1.5356659e-17
1.6727267e-23
1.3217801e-24
2.2328649e-18
2.6335476e-15
5.1697218e-14
1.9652923e-13
3.5368825e-13
4.4976766e-13
4.90233e-13
5.0259243e-13
5.0509252e-13
5.0508711e-13
5.02577e-13
4.9021049e-13
4.49742e-13
3.5366562e-13
1.9651783e-13
5.1694568e-14
2.633442e-15
2.2325535e-18
1.2542518e-24
7.2703514e-26
3.1539321e-19
4.8934131e-16
1.0842652e-14
4.363568e-14
8.0721347e-14
1.040308e-13
1.1414884e-13
1.1740922e-13
1.1815093e-13
1.181496e-13
1.1740541e-13
1.1414326e-13
1.0402447e-13
8.07158e-14
4.3632891e-14
1.0842038e-14
4.893191e-16
3.1535656e-19
6.7637912e-26
3.3945708e-27
4.3293207e-20
8.822038e-17
2.2049988e-15
9.3908977e-15
1.7851924e-14
2.3311728e-14
2.574602e-14
2.6565041e-14
2.67671e-14
2.6766784e-14
2.6564136e-14
2.5744686e-14
2.3310218e-14
1.7850608e-14
9.3902381e-15
2.2048606e-15
8.8215851e-17
4.3289361e-20
3.1067973e-27
1.4958762e-28
5.7762565e-21
1.5438737e-17
4.3503697e-16
1.9601118e-15
3.8280415e-15
5.0640498e-15
5.6285161e-15
5.8253092e-15
5.876831e-15
5.8767581e-15
5.8251008e-15
5.6282076e-15
5.0637007e-15
3.8277395e-15
1.9599608e-15
4.3500679e-16
1.5437841e-17
5.7758299e-21
1.3505452e-28
6.6229485e-30
7.4922854e-22
2.6238698e-18
8.3315402e-17
3.9702127e-16
7.9638329e-16
1.0670799e-15
1.1934132e-15
1.2387913e-15
1.2512231e-15
1.2512069e-15
1.2387448e-15
1.1933441e-15
1.0670017e-15
7.9631619e-16
3.9698785e-16
8.3309009e-17
2.6236978e-18
7.49175e-22
5.9428914e-30
)
;

boundaryField
{
    Wall
    {
        type            zeroGradient;
    }
    frontAndBack
    {
        type            empty;
    }
    atmosphere
    {
        type            zeroGradient;
    }
}


// ************************************************************************* //
