/*--------------------------------*- C++ -*----------------------------------*\
| =========                 |                                                 |
| \\      /  F ield         | OpenFOAM: The Open Source CFD Toolbox           |
|  \\    /   O peration     | Version:  3.0.1                                 |
|   \\  /    A nd           | Web:      www.OpenFOAM.org                      |
|    \\/     M anipulation  |                                                 |
\*---------------------------------------------------------------------------*/
FoamFile
{
    version     2.0;
    format      ascii;
    class       volScalarField;
    location    "19";
    object      wBA_g;
}
// * * * * * * * * * * * * * * * * * * * * * * * * * * * * * * * * * * * * * //

dimensions      [0 0 0 0 0 0 0];

internalField   nonuniform List<scalar> 
800
(
0.035965819
0.035969976
0.035970601
0.035970748
0.035970841
0.035970917
0.035970979
0.035971025
0.035971055
0.03597107
0.03597107
0.035971055
0.035971025
0.035970979
0.035970917
0.035970841
0.035970748
0.035970602
0.035969976
0.035965819
0.037637815
0.03770305
0.03770815
0.037707491
0.037706304
0.037705775
0.037705684
0.037705781
0.037705904
0.03770598
0.03770598
0.037705904
0.03770578
0.037705683
0.037705774
0.037706303
0.03770749
0.037708149
0.037703049
0.037637813
0.035493
0.035603297
0.035684132
0.035684594
0.035683576
0.035683702
0.035684571
0.035685607
0.035686426
0.035686871
0.035686871
0.035686425
0.035685605
0.035684569
0.0356837
0.035683574
0.035684592
0.03568413
0.035603294
0.035492995
0.030691535
0.030905873
0.031001362
0.030998629
0.03099727
0.030998002
0.030999888
0.031001994
0.031003577
0.031004435
0.031004435
0.031003576
0.031001992
0.030999885
0.030997999
0.030997267
0.030998626
0.031001359
0.030905869
0.030691527
0.024014574
0.024361102
0.02443397
0.024573268
0.024570921
0.024571774
0.024574187
0.024576899
0.024578919
0.024580023
0.024580023
0.024578917
0.024576897
0.024574184
0.024571771
0.024570918
0.024573264
0.024433966
0.024361097
0.024014566
0.014934282
0.015728867
0.015777631
0.015887651
0.015885483
0.015886667
0.01588917
0.015891797
0.015893734
0.015894782
0.015894782
0.015893733
0.015891796
0.015889168
0.015886665
0.01588548
0.015887648
0.015777628
0.015728862
0.014934276
0.0061761877
0.0065309526
0.0065727591
0.0066311368
0.0066331287
0.0066359804
0.0066387255
0.0066409712
0.0066424844
0.0066432538
0.0066432537
0.0066424837
0.0066409702
0.0066387242
0.006635979
0.0066331271
0.0066311351
0.0065727573
0.0065309505
0.0061761845
0.003038775
0.0031716892
0.0032001757
0.0032251552
0.0032281436
0.0032308242
0.0032329066
0.0032344162
0.0032353687
0.0032358357
0.0032358356
0.0032353684
0.0032344156
0.0032329059
0.0032308233
0.0032281427
0.0032251543
0.0032001748
0.0031716882
0.0030387735
0.00165958
0.0017240015
0.0017438265
0.0017546824
0.0017573907
0.0017593272
0.001760641
0.0017615237
0.0017620488
0.0017622982
0.0017622982
0.0017620486
0.0017615233
0.0017606405
0.0017593267
0.0017573903
0.001754682
0.0017438261
0.0017240011
0.0016595794
0.00090040078
0.00095218127
0.00097087216
0.00097721352
0.00097910539
0.00098004113
0.00098054119
0.00098084135
0.00098099897
0.0009810642
0.00098106414
0.00098099883
0.00098084112
0.00098054096
0.00098004097
0.00097910528
0.00097721345
0.00097087215
0.0009521813
0.00090040072
0.00043274081
0.00048998007
0.0005112591
0.00051664309
0.00051724941
0.0005168414
0.0005163476
0.00051599453
0.00051576781
0.00051564633
0.00051564629
0.00051576771
0.00051599437
0.00051634748
0.00051684135
0.00051724942
0.00051664314
0.0005112592
0.00048998022
0.00043274098
0.00016338137
0.00023292784
0.00025766848
0.00026387023
0.00026366939
0.00026197364
0.00026036717
0.00025922898
0.00025852572
0.00025817618
0.00025817614
0.00025852563
0.00025922884
0.00026036707
0.00026197361
0.00026366941
0.00026387028
0.00025766855
0.00023292796
0.00016338155
4.4053965e-05
9.9815984e-05
0.00012348177
0.00013077473
0.000131157
0.00012939016
0.00012743555
0.00012593469
0.00012497019
0.00012449013
0.00012449009
0.0001249701
0.00012593456
0.00012743546
0.00012939013
0.00013115701
0.00013077477
0.00012348181
9.9816049e-05
4.4054033e-05
8.5751608e-06
3.8036001e-05
5.5359283e-05
6.2086161e-05
6.3220703e-05
6.2169534e-05
6.0653055e-05
5.9374769e-05
5.8514081e-05
5.8078612e-05
5.807858e-05
5.8514013e-05
5.9374668e-05
6.0652981e-05
6.2169502e-05
6.32207e-05
6.2086182e-05
5.5359298e-05
3.8036025e-05
8.5751739e-06
1.277516e-06
1.2843814e-05
2.3033847e-05
2.7963462e-05
2.9278442e-05
2.8893149e-05
2.7995313e-05
2.7156247e-05
2.6564482e-05
2.6259506e-05
2.6259483e-05
2.6564433e-05
2.7156174e-05
2.7995258e-05
2.8893121e-05
2.9278433e-05
2.7963471e-05
2.303385e-05
1.284382e-05
1.2775177e-06
1.5588408e-07
3.862163e-06
8.880152e-06
1.1893815e-05
1.2953107e-05
1.2920545e-05
1.2483861e-05
1.2022877e-05
1.1682156e-05
1.1503354e-05
1.150334e-05
1.1682125e-05
1.202283e-05
1.2483825e-05
1.2920524e-05
1.2953097e-05
1.1893819e-05
8.8801525e-06
3.8621647e-06
1.5588427e-07
1.6485953e-08
1.0461342e-06
3.1796349e-06
4.7731895e-06
5.4594448e-06
5.5403651e-06
5.3611781e-06
5.1399374e-06
4.968059e-06
4.8762269e-06
4.8762188e-06
4.9680411e-06
5.1399102e-06
5.361156e-06
5.5403514e-06
5.4594372e-06
4.7731908e-06
3.1796349e-06
1.0461346e-06
1.6485981e-08
1.5717738e-09
2.5884278e-07
1.0624527e-06
1.8100358e-06
2.1909564e-06
2.2741863e-06
2.2126271e-06
2.1176564e-06
2.0396502e-06
1.9971931e-06
1.9971889e-06
2.0396408e-06
2.1176418e-06
2.212615e-06
2.2741784e-06
2.1909515e-06
1.8100362e-06
1.0624528e-06
2.588429e-07
1.5717779e-09
1.3849973e-10
5.927296e-08
3.3323337e-07
6.503359e-07
8.3790344e-07
8.9325862e-07
8.7668217e-07
8.3973715e-07
8.0735447e-07
7.893759e-07
7.8937388e-07
8.0734987e-07
8.3973e-07
8.7667611e-07
8.9325452e-07
8.3790077e-07
6.5033595e-07
3.3323345e-07
5.9273003e-08
1.3850028e-10
1.1452116e-11
1.2697888e-08
9.868518e-08
2.2210961e-07
3.0586526e-07
3.3590244e-07
3.3341172e-07
3.2030618e-07
3.0787626e-07
3.0082226e-07
3.0082136e-07
3.0787417e-07
3.203029e-07
3.3340889e-07
3.3590051e-07
3.0586396e-07
2.2210957e-07
9.8685236e-08
1.2697901e-08
1.1452181e-11
8.9679689e-13
2.5664303e-09
2.7744327e-08
7.234569e-08
1.0678272e-07
1.2105793e-07
1.2176127e-07
1.1752157e-07
1.1307812e-07
1.1049295e-07
1.1049256e-07
1.1307723e-07
1.1752017e-07
1.2176003e-07
1.2105708e-07
1.0678214e-07
7.2345644e-08
2.7744353e-08
2.5664342e-09
8.9680351e-13
6.6885197e-14
4.9262732e-10
7.4402357e-09
2.2544237e-08
3.5728191e-08
4.1870316e-08
4.2735267e-08
4.1493983e-08
4.0007761e-08
3.9117719e-08
3.9117569e-08
4.0007402e-08
4.1493421e-08
4.2734757e-08
4.1869969e-08
3.5727949e-08
2.254421e-08
7.4402462e-09
4.9262834e-10
6.688583e-14
4.768318e-15
9.0283939e-11
1.9110968e-09
6.740264e-09
1.1480077e-08
1.3918598e-08
1.4430212e-08
1.4108468e-08
1.3642163e-08
1.3353116e-08
1.335306e-08
1.3642026e-08
1.4108255e-08
1.4430013e-08
1.3918463e-08
1.1479983e-08
6.7402509e-09
1.9111005e-09
9.0284178e-11
4.7683753e-15
3.2574885e-16
1.5869528e-11
4.7186026e-10
1.9383982e-09
3.5492055e-09
4.4535812e-09
4.6932501e-09
4.6236778e-09
4.486366e-09
4.3975752e-09
4.3975557e-09
4.4863157e-09
4.623601e-09
4.6931768e-09
4.4535305e-09
3.5491715e-09
1.9383927e-09
4.7186134e-10
1.586958e-11
3.2575376e-16
2.1365921e-17
2.6861362e-12
1.1233798e-10
5.374119e-10
1.0576112e-09
1.3736317e-09
1.4719786e-09
1.4619288e-09
1.4240514e-09
1.3982098e-09
1.3982032e-09
1.4240338e-09
1.4619023e-09
1.4719528e-09
1.3736135e-09
1.0575995e-09
5.3740972e-10
1.1233827e-10
2.6861466e-12
2.1366317e-17
1.3478249e-18
4.3947141e-13
2.5858048e-11
1.4391898e-10
3.0423297e-10
4.0893741e-10
4.4570647e-10
4.4639144e-10
4.3665566e-10
4.2952632e-10
4.2952414e-10
4.3664974e-10
4.4638272e-10
4.4569775e-10
4.0893114e-10
3.0422911e-10
1.4391819e-10
2.5858118e-11
4.3947334e-13
1.3478548e-18
8.1921381e-20
6.9746227e-14
5.7681634e-12
3.7291293e-11
8.4599855e-11
1.1765067e-10
1.3042904e-10
1.317525e-10
1.2944691e-10
1.275838e-10
1.2758311e-10
1.29445e-10
1.3174973e-10
1.3042621e-10
1.1764859e-10
8.4598642e-11
3.7291027e-11
5.7681783e-12
6.9746551e-14
8.1923508e-20
4.8074214e-21
1.077385e-14
1.2494549e-12
9.362682e-12
2.2768709e-11
3.274557e-11
3.6922746e-11
3.7620836e-11
3.7129593e-11
3.6669488e-11
3.6669281e-11
3.7129001e-11
3.7619987e-11
3.6921862e-11
3.2744904e-11
2.2768341e-11
9.3625975e-12
1.2494574e-12
1.07739e-14
4.8075642e-21
2.7307914e-22
1.6249863e-15
2.6325066e-13
2.2804642e-12
5.9369777e-12
8.8256368e-12
1.0120007e-11
1.0400732e-11
1.0311807e-11
1.0204947e-11
1.0204886e-11
1.031163e-11
1.0400481e-11
1.0119741e-11
8.8254311e-12
5.9368693e-12
2.2804386e-12
2.632509e-13
1.6249931e-15
2.7308816e-22
2.6664288e-23
2.399788e-16
5.4021788e-14
5.3940438e-13
1.5012087e-12
2.305361e-12
2.6876092e-12
2.7859322e-12
2.774709e-12
2.7515781e-12
2.7515605e-12
2.774658e-12
2.78586e-12
2.6875313e-12
2.3052995e-12
1.5011776e-12
5.393969e-13
5.4021743e-14
2.3997957e-16
2.6566525e-23
8.5603589e-24
3.4781454e-17
1.0808632e-14
1.2400346e-13
3.6838461e-13
5.8405025e-13
6.9206062e-13
7.23473e-13
7.2380898e-13
7.192227e-13
7.192178e-13
7.2379471e-13
7.2345292e-13
6.9203862e-13
5.8403251e-13
3.6837596e-13
1.2400137e-13
1.0808599e-14
3.4781511e-17
8.6634734e-24
4.2488783e-24
4.9560018e-18
2.1101116e-15
2.7725169e-14
8.7788306e-14
1.4360197e-13
1.7289314e-13
1.8224957e-13
1.8314179e-13
1.8233948e-13
1.8233816e-13
1.8313792e-13
1.8224415e-13
1.7288713e-13
1.4359704e-13
8.7785963e-14
2.7724608e-14
2.1100989e-15
4.9560043e-18
4.2670881e-24
8.6489553e-25
6.9507015e-19
4.021594e-16
6.0321658e-15
2.0328196e-14
3.4286119e-14
4.192802e-14
4.4558314e-14
4.4970004e-14
4.4858356e-14
4.4858009e-14
4.496899e-14
4.455689e-14
4.1926429e-14
3.4284797e-14
2.0327579e-14
6.0320218e-15
4.0215561e-16
6.9506729e-19
8.6193222e-25
1.2317152e-25
9.6018116e-20
7.4849503e-17
1.2776881e-15
4.5762522e-15
7.9533074e-15
9.8750978e-15
1.0578353e-14
1.0720915e-14
1.0713937e-14
1.0713849e-14
1.0720657e-14
1.057799e-14
9.8746904e-15
7.9529647e-15
4.5760939e-15
1.2776522e-15
7.4848491e-17
9.6012386e-20
1.213824e-25
1.3472129e-26
1.3056945e-20
1.3606698e-17
2.6356613e-16
1.0020021e-15
1.793301e-15
2.2599127e-15
2.4396719e-15
2.4825971e-15
2.4853513e-15
2.4853294e-15
2.4825335e-15
2.4395819e-15
2.2598114e-15
1.7932152e-15
1.0019626e-15
2.6355753e-16
1.3606451e-17
1.3055225e-20
1.3217117e-26
9.7432162e-28
1.7461377e-21
2.4161281e-18
5.2966932e-17
2.1347945e-16
3.9321031e-16
5.0274427e-16
5.4683652e-16
5.5863964e-16
5.6020135e-16
5.6019611e-16
5.5862446e-16
5.4681484e-16
5.0271988e-16
3.9318953e-16
2.134699e-16
5.2964931e-17
2.4160714e-18
1.7459054e-21
9.2607428e-28
5.092579e-29
2.2958918e-22
4.1907742e-19
1.0372711e-17
4.427321e-17
8.387705e-17
1.0876583e-16
1.1917344e-16
1.2220539e-16
1.2274396e-16
1.2274275e-16
1.2220186e-16
1.1916837e-16
1.0876013e-16
8.3872183e-17
4.427097e-17
1.037226e-17
4.1906506e-19
2.2956374e-22
4.7457064e-29
2.2709447e-30
2.9656528e-23
7.1001578e-20
1.9799981e-18
8.9409486e-18
1.7413313e-17
2.289325e-17
2.5262551e-17
2.5999318e-17
2.6153892e-17
2.6153618e-17
2.5998523e-17
2.5261399e-17
2.2891955e-17
1.7412207e-17
8.9404389e-18
1.9798994e-18
7.0999005e-20
2.9654126e-23
2.0819718e-30
9.5711451e-32
3.7601225e-24
1.1749876e-20
3.6849474e-19
1.7588893e-18
3.5197243e-18
4.6899529e-18
5.2110892e-18
5.3817736e-18
5.4216651e-18
5.421605e-18
5.3815996e-18
5.2108352e-18
4.6896672e-18
3.5194809e-18
1.7587766e-18
3.6847377e-19
1.1749361e-20
3.7598834e-24
8.6511911e-32
4.0759411e-33
4.6753627e-25
1.8992865e-21
6.6880687e-20
3.3717632e-19
6.9293273e-19
9.3551306e-19
1.0464294e-18
1.0843241e-18
1.0938782e-18
1.0938654e-18
1.084287e-18
1.0463751e-18
9.3545177e-19
6.9288077e-19
3.3715219e-19
6.6876362e-20
1.8991873e-21
4.6750794e-25
3.6613834e-33
)
;

boundaryField
{
    Wall
    {
        type            zeroGradient;
    }
    frontAndBack
    {
        type            empty;
    }
    atmosphere
    {
        type            zeroGradient;
    }
}


// ************************************************************************* //
