/*--------------------------------*- C++ -*----------------------------------*\
| =========                 |                                                 |
| \\      /  F ield         | OpenFOAM: The Open Source CFD Toolbox           |
|  \\    /   O peration     | Version:  3.0.1                                 |
|   \\  /    A nd           | Web:      www.OpenFOAM.org                      |
|    \\/     M anipulation  |                                                 |
\*---------------------------------------------------------------------------*/
FoamFile
{
    version     2.0;
    format      ascii;
    class       volScalarField;
    location    "19";
    object      wBA_l_0;
}
// * * * * * * * * * * * * * * * * * * * * * * * * * * * * * * * * * * * * * //

dimensions      [0 0 0 0 0 0 0];

internalField   nonuniform List<scalar> 
800
(
0.054956886
0.054956526
0.054956513
0.054956517
0.054956521
0.054956523
0.054956524
0.054956525
0.054956525
0.054956526
0.054956526
0.054956525
0.054956525
0.054956524
0.054956523
0.054956521
0.054956517
0.054956512
0.054956526
0.054956886
0.055406552
0.055396515
0.055394668
0.055394152
0.055393857
0.055393598
0.055393373
0.055393196
0.055393077
0.055393017
0.055393017
0.055393077
0.055393196
0.055393373
0.055393598
0.055393857
0.055394152
0.055394668
0.055396515
0.055406552
0.053812625
0.053826587
0.053829043
0.05382875
0.053828058
0.053827599
0.053827336
0.053827197
0.053827129
0.053827103
0.053827103
0.053827129
0.053827197
0.053827335
0.053827599
0.053828058
0.053828749
0.053829043
0.053826587
0.053812624
0.05074014
0.050798588
0.050806543
0.050805098
0.050803901
0.050803205
0.05080293
0.050802863
0.050802866
0.050802883
0.050802883
0.050802866
0.050802863
0.05080293
0.050803205
0.050803901
0.050805098
0.050806543
0.050798587
0.050740139
0.046639889
0.046761285
0.046776196
0.046775125
0.046773701
0.04677294
0.046772699
0.046772676
0.04677271
0.046772742
0.046772742
0.04677271
0.046772676
0.046772699
0.04677294
0.046773702
0.046775126
0.046776197
0.046761285
0.046639888
0.041803085
0.042010363
0.04203953
0.042041798
0.042041415
0.042041173
0.042041106
0.042041053
0.042041037
0.04204103
0.04204103
0.042041037
0.042041054
0.042041107
0.042041174
0.042041416
0.0420418
0.042039532
0.042010365
0.041803086
0.036403974
0.036737815
0.036799111
0.036811565
0.036814553
0.036815352
0.036815487
0.03681524
0.036815017
0.036814851
0.036814851
0.036815017
0.036815241
0.036815489
0.036815355
0.036814555
0.036811568
0.036799114
0.036737819
0.036403978
0.030492343
0.031002265
0.031129157
0.031162741
0.031171607
0.031173215
0.031172745
0.03117177
0.031170924
0.031170337
0.031170337
0.031170925
0.031171771
0.031172746
0.031173218
0.031171611
0.031162746
0.031129161
0.031002271
0.030492349
0.024185661
0.024931293
0.02518329
0.025255864
0.025272394
0.025272352
0.025268581
0.02526531
0.025262833
0.025261306
0.025261306
0.025262833
0.025265309
0.025268582
0.025272355
0.025272398
0.02525587
0.025183295
0.024931301
0.024185671
0.017405252
0.018567571
0.019068452
0.019222635
0.019251485
0.019243674
0.019229829
0.01921961
0.019212711
0.019208879
0.019208878
0.01921271
0.019219608
0.019229829
0.019243677
0.019251489
0.019222643
0.019068458
0.018567581
0.017405265
0.010494426
0.01223807
0.013079666
0.013371858
0.013424763
0.013401053
0.013365612
0.013339442
0.013322724
0.013314043
0.013314041
0.013322722
0.013339437
0.01336561
0.013401054
0.013424766
0.013371864
0.013079671
0.01223808
0.01049444
0.0047595947
0.0071626434
0.0082628109
0.008679482
0.008761539
0.0087192431
0.0086534839
0.0086020199
0.0085689845
0.0085523143
0.0085523116
0.0085689807
0.0086020126
0.00865348
0.0087192421
0.0087615403
0.0086794852
0.0082628137
0.0071626496
0.0047596044
0.0015019422
0.003709024
0.0048405972
0.0053159201
0.0054302112
0.0053895193
0.0053094499
0.0052411088
0.0051954978
0.0051724096
0.0051724066
0.0051954928
0.0052411002
0.0053094441
0.0053895166
0.0054302099
0.0053159209
0.0048405975
0.0037090267
0.001501946
0.00033602797
0.0016915475
0.0026167991
0.0030635357
0.0031970736
0.0031769412
0.0031077106
0.0030424168
0.0029967683
0.0029733068
0.0029733041
0.0029967631
0.0030424084
0.0031077045
0.0031769373
0.0031970709
0.0030635348
0.0026167979
0.0016915478
0.00033602884
5.6843615e-05
0.00067810292
0.0013020231
0.001656063
0.0017836519
0.001784607
0.0017379317
0.001688537
0.0016523353
0.0016334035
0.0016334013
0.0016523309
0.00168853
0.0017379261
0.0017846031
0.0017836487
0.0016560616
0.0013020215
0.00067810251
5.6843752e-05
7.8085595e-06
0.00024023921
0.00059676891
0.00083896819
0.00094137279
0.00095394552
0.00092823584
0.00089681387
0.0008726367
0.00085977399
0.00085977241
0.00087263336
0.00089680868
0.00092823145
0.0009539422
0.00094136992
0.00083896677
0.0005967677
0.00024023882
7.8085781e-06
9.2340503e-07
7.6187374e-05
0.00025290042
0.00039877145
0.00046989147
0.00048482775
0.00047317236
0.00045576783
0.0004416489
0.00043400649
0.00043400547
0.00044164666
0.00045576437
0.00047316927
0.00048482532
0.00046988929
0.00039877037
0.00025289967
7.6187163e-05
9.2340764e-07
9.7876176e-08
2.1973334e-05
9.9665446e-05
0.00017829089
0.00022203219
0.00023427603
0.00023012128
0.00022155977
0.00021417844
0.00021010944
0.00021010884
0.00021417707
0.00022155766
0.00023011933
0.00023427445
0.00022203076
0.00017829019
9.966506e-05
2.1973245e-05
9.7876541e-08
9.5418534e-09
5.8510092e-06
3.6767833e-05
7.5232805e-05
9.948053e-05
0.00010770341
0.00010678426
0.00010300626
9.9499177e-05
9.7526263e-05
9.7525941e-05
9.9498401e-05
0.00010300508
0.00010678313
0.00010770247
9.9479693e-05
7.5232395e-05
3.6767659e-05
5.8509779e-06
9.5419008e-09
8.6957767e-10
1.4567791e-06
1.2780419e-05
3.0067316e-05
4.2349118e-05
4.7159366e-05
4.7301673e-05
4.5802863e-05
4.4273627e-05
4.3392878e-05
4.3392717e-05
4.427322e-05
4.5802251e-05
4.7301067e-05
4.7158861e-05
4.2348676e-05
3.00671e-05
1.2780348e-05
1.4567694e-06
8.6958314e-10
7.4863015e-11
3.4258874e-07
4.2101022e-06
1.1419804e-05
1.7165477e-05
1.9693451e-05
2.0016576e-05
1.9485755e-05
1.8870036e-05
1.8505258e-05
1.8505182e-05
1.8869836e-05
1.9485459e-05
2.0016274e-05
1.9693197e-05
1.7165263e-05
1.1419701e-05
4.2100747e-06
3.4258603e-07
7.4863575e-11
6.1330981e-12
7.6700929e-08
1.3207425e-06
4.1343984e-06
6.6383508e-06
7.8542861e-06
8.099242e-06
7.935295e-06
7.7056261e-06
7.5647171e-06
7.5646831e-06
7.7055343e-06
7.9351601e-06
8.0991006e-06
7.8541668e-06
6.6382545e-06
4.1343529e-06
1.3207327e-06
7.6700227e-08
6.1331511e-12
4.8084097e-13
1.6449197e-08
3.9611095e-07
1.430484e-06
2.4539858e-06
2.9959356e-06
3.1366916e-06
3.0953934e-06
3.0159811e-06
2.9650327e-06
2.9650184e-06
3.0159413e-06
3.0953356e-06
3.1366295e-06
2.9958826e-06
2.4539454e-06
1.4304653e-06
3.9610762e-07
1.6449025e-08
4.8084569e-13
3.625686e-14
3.3951996e-09
1.1392419e-07
4.7403947e-07
8.6859706e-07
1.0944058e-06
1.1638904e-06
1.1574396e-06
1.1320541e-06
1.1147756e-06
1.1147699e-06
1.1320376e-06
1.157416e-06
1.1638646e-06
1.0943836e-06
8.6858109e-07
4.7403227e-07
1.139231e-07
3.3951601e-09
3.6257251e-14
2.6421733e-15
6.768985e-10
3.1494564e-08
1.5072569e-07
2.9480771e-07
3.8333814e-07
4.1418809e-07
4.1519561e-07
4.0774987e-07
4.0225036e-07
4.0224817e-07
4.0774342e-07
4.1518647e-07
4.1417793e-07
3.8332927e-07
2.9480172e-07
1.5072307e-07
3.1494227e-08
6.768898e-10
2.642203e-15
1.8703601e-16
1.3069533e-10
8.383995e-09
4.6051698e-08
9.6071581e-08
1.2889527e-07
1.4149643e-07
1.4299764e-07
1.4102736e-07
1.3938635e-07
1.3938553e-07
1.4102495e-07
1.4299426e-07
1.4149261e-07
1.2889191e-07
9.6069442e-08
4.6050799e-08
8.3838946e-09
1.3069349e-10
1.8703801e-16
1.2930687e-17
2.4482729e-11
2.1520323e-09
1.3537103e-08
3.0094163e-08
4.1648156e-08
4.6446655e-08
4.73235e-08
4.6871112e-08
4.6413635e-08
4.6413346e-08
4.6870253e-08
4.7322296e-08
4.6445287e-08
4.1646941e-08
3.0093431e-08
1.353681e-08
2.1520035e-09
2.4482354e-11
1.2930804e-17
8.7789775e-19
4.4546616e-12
5.3318197e-10
3.8324885e-09
9.0707517e-09
1.2944203e-08
1.4662409e-08
1.5060633e-08
1.4980183e-08
1.4861891e-08
1.4861793e-08
1.4979891e-08
1.5060223e-08
1.4661939e-08
1.2943783e-08
9.0705105e-09
3.8323967e-09
5.3317393e-10
4.4545875e-12
8.7790311e-19
5.883758e-20
7.8774868e-13
1.276079e-10
1.0459304e-09
2.6331699e-09
3.8731376e-09
4.4551539e-09
4.6128495e-09
4.6074466e-09
4.5794813e-09
4.5794491e-09
4.6073509e-09
4.6127145e-09
4.454999e-09
3.8729988e-09
2.6330931e-09
1.0459028e-09
1.2760572e-10
7.8773443e-13
5.8837672e-20
1.2946396e-20
1.3541805e-13
2.9521173e-11
2.7538414e-10
7.3681427e-10
1.116663e-09
1.3039986e-09
1.3607873e-09
1.3647624e-09
1.3589007e-09
1.3588905e-09
1.3647323e-09
1.3607447e-09
1.3039496e-09
1.1166189e-09
7.3679061e-10
2.7537615e-10
2.9520601e-11
1.3541538e-13
1.2869462e-20
6.864007e-21
2.2629419e-14
6.6050857e-12
7.0001169e-11
1.9889566e-10
3.1045405e-10
3.6794868e-10
3.8693262e-10
3.8960869e-10
3.8860263e-10
3.885995e-10
3.8959957e-10
3.8691968e-10
3.6793372e-10
3.1044061e-10
1.9888861e-10
6.9998929e-11
6.6049407e-12
2.262893e-14
6.9601322e-21
3.5818369e-21
3.6755431e-15
1.4299517e-12
1.7190804e-11
5.1833027e-11
8.3294804e-11
1.0016625e-10
1.0612746e-10
1.0727385e-10
1.0717349e-10
1.0717257e-10
1.0727119e-10
1.0612366e-10
1.0016187e-10
8.3290868e-11
5.1830994e-11
1.7190198e-11
1.429916e-12
3.6754606e-15
3.5853229e-21
7.9181731e-22
5.8019892e-16
2.9968033e-13
4.081229e-12
1.3050081e-11
2.1582456e-11
2.6326859e-11
2.8098599e-11
2.8508097e-11
2.8526445e-11
2.8526186e-11
2.8507348e-11
2.8097526e-11
2.6325621e-11
2.1581348e-11
1.3049514e-11
4.0810709e-12
2.9967188e-13
5.8018312e-16
7.8775688e-22
1.2299525e-22
8.9013248e-17
6.0824725e-14
9.3725677e-13
3.1764699e-12
5.4044683e-12
6.6854605e-12
7.1864956e-12
7.3175001e-12
7.3332794e-12
7.3332089e-12
7.3172967e-12
7.1862026e-12
6.6851235e-12
5.4041677e-12
3.1763171e-12
9.3721678e-13
6.082278e-14
8.900609e-17
1.2063895e-22
1.4495728e-23
1.326491e-17
1.1961291e-14
2.0833418e-13
7.4798173e-13
1.3087961e-12
1.6414276e-12
1.7767652e-12
1.8154461e-12
1.821991e-12
1.8219724e-12
1.8153928e-12
1.776688e-12
1.6413391e-12
1.3087176e-12
7.4794189e-13
2.0832438e-13
1.1960858e-14
1.3262998e-17
1.4168971e-23
1.1171573e-24
1.9193852e-18
2.2800509e-15
4.4848967e-14
1.7050339e-13
3.0672393e-13
3.8991165e-13
4.2493413e-13
4.3564251e-13
4.3781761e-13
4.3781288e-13
4.3562902e-13
4.2491443e-13
3.898892e-13
3.067041e-13
1.7049336e-13
4.4846636e-14
2.2799579e-15
1.9191194e-18
1.0503262e-24
5.9055579e-26
2.6981528e-19
4.2147852e-16
9.3558873e-15
3.7648183e-14
6.9608444e-14
8.967126e-14
9.8374654e-14
1.0118057e-13
1.0182034e-13
1.0181919e-13
1.0117727e-13
9.8369807e-14
8.9665754e-14
6.9603612e-14
3.7645744e-14
9.3553502e-15
4.2145908e-16
2.6978519e-19
5.4797081e-26
2.6672506e-27
3.6856555e-20
7.5590927e-17
1.8923619e-15
8.0573055e-15
1.5306978e-14
1.9978545e-14
2.2059677e-14
2.2759924e-14
2.2932884e-14
2.2932612e-14
2.2759142e-14
2.2058524e-14
1.9977239e-14
1.5305838e-14
8.056732e-15
1.8922417e-15
7.5586982e-17
3.6853464e-20
2.431363e-27
1.1669018e-28
4.8931173e-21
1.315917e-17
3.7132294e-16
1.6723574e-15
3.2636045e-15
4.3149058e-15
4.794532e-15
4.9617019e-15
5.0054902e-15
5.0054277e-15
4.9615231e-15
4.794267e-15
4.3146056e-15
3.2633446e-15
1.6722269e-15
3.7129684e-16
1.3158394e-17
4.8927681e-21
1.0504949e-28
5.1848083e-30
6.314828e-22
2.2246189e-18
7.0723755e-17
3.3683222e-16
6.7506585e-16
9.0394335e-16
1.0106331e-15
1.0489346e-15
1.0594282e-15
1.0594144e-15
1.048895e-15
1.0105741e-15
9.0387653e-16
6.7500845e-16
3.3680351e-16
7.0718258e-17
2.2244708e-18
6.3143796e-22
4.6479659e-30
)
;

boundaryField
{
    Wall
    {
        type            zeroGradient;
    }
    frontAndBack
    {
        type            empty;
    }
    atmosphere
    {
        type            zeroGradient;
    }
}


// ************************************************************************* //
