/*--------------------------------*- C++ -*----------------------------------*\
| =========                 |                                                 |
| \\      /  F ield         | OpenFOAM: The Open Source CFD Toolbox           |
|  \\    /   O peration     | Version:  3.0.1                                 |
|   \\  /    A nd           | Web:      www.OpenFOAM.org                      |
|    \\/     M anipulation  |                                                 |
\*---------------------------------------------------------------------------*/
FoamFile
{
    version     2.0;
    format      ascii;
    class       volScalarField;
    location    "19";
    object      wCO2_l;
}
// * * * * * * * * * * * * * * * * * * * * * * * * * * * * * * * * * * * * * //

dimensions      [0 0 0 0 0 0 0];

internalField   nonuniform List<scalar> 
800
(
0.0031333806
0.0031333553
0.003133354
0.0031333547
0.0031333553
0.0031333557
0.003133356
0.0031333562
0.0031333563
0.0031333564
0.0031333564
0.0031333563
0.0031333562
0.003133356
0.0031333557
0.0031333553
0.0031333547
0.003133354
0.0031333553
0.0031333806
0.0031318527
0.0031300317
0.0031301053
0.003130056
0.0031299929
0.0031299416
0.0031299083
0.0031298896
0.0031298804
0.0031298767
0.0031298767
0.0031298804
0.0031298896
0.0031299083
0.0031299416
0.0031299929
0.003130056
0.0031301053
0.0031300317
0.0031318527
0.0035633379
0.0035540676
0.0035491479
0.0035490071
0.0035489595
0.0035488859
0.0035488137
0.0035487553
0.0035487164
0.0035486968
0.0035486968
0.0035487165
0.0035487555
0.0035488138
0.0035488861
0.0035489596
0.0035490073
0.0035491481
0.0035540678
0.0035633383
0.0044905087
0.0044636366
0.0044557375
0.0044557255
0.0044556624
0.0044555104
0.0044553352
0.0044551794
0.0044550716
0.0044550157
0.0044550158
0.0044550717
0.0044551796
0.0044553355
0.0044555108
0.0044556627
0.0044557259
0.0044557379
0.0044636371
0.0044905095
0.005962407
0.0059060608
0.005897754
0.0058896868
0.0058895128
0.0058891714
0.005888812
0.0058885033
0.0058882956
0.0058881888
0.0058881889
0.0058882958
0.0058885037
0.0058888125
0.005889172
0.0058895134
0.0058896874
0.0058977547
0.0059060616
0.0059624082
0.0078545378
0.0077714365
0.007765375
0.0077573048
0.0077569331
0.0077563377
0.0077558069
0.0077553786
0.0077551037
0.007754963
0.0077549631
0.0077551039
0.007755379
0.0077558074
0.0077563384
0.0077569338
0.0077573056
0.0077653759
0.0077714375
0.007854539
0.0095808581
0.0095356929
0.009518191
0.0095146707
0.0095148548
0.009514639
0.0095144041
0.0095141863
0.0095140533
0.0095139793
0.0095139793
0.0095140534
0.0095141865
0.0095144045
0.0095146396
0.0095148554
0.0095146714
0.0095181918
0.0095356937
0.0095808589
0.010231994
0.01031477
0.010318731
0.01032312
0.010326186
0.010327914
0.010328944
0.010329557
0.010329913
0.010330065
0.010330065
0.010329913
0.010329557
0.010328944
0.010327914
0.010326186
0.01032312
0.010318731
0.010314771
0.010231994
0.0080914481
0.008498711
0.0086468253
0.0086619263
0.0086689774
0.0086727396
0.0086747997
0.0086760411
0.008676707
0.0086769917
0.0086769916
0.0086767067
0.0086760406
0.0086747993
0.0086727393
0.0086689773
0.0086619263
0.0086468254
0.0084987114
0.0080914485
0.0047081568
0.0050600485
0.0052010391
0.0052252341
0.005231705
0.0052329542
0.0052327245
0.005232364
0.0052320111
0.005231772
0.0052317719
0.0052320108
0.0052323636
0.0052327244
0.0052329544
0.0052317055
0.0052252349
0.00520104
0.0050600499
0.0047081584
0.0024528203
0.0028213771
0.0029726666
0.0030088182
0.003012508
0.0030082742
0.0030034738
0.0030000521
0.0029978875
0.0029967626
0.0029967624
0.0029978872
0.0030000515
0.0030034736
0.0030082744
0.0030125087
0.0030088191
0.0029726676
0.0028213786
0.0024528223
0.0010065276
0.0014527433
0.0016268863
0.0016761614
0.0016787698
0.0016684028
0.0016574403
0.0016494523
0.0016444626
0.0016419741
0.0016419738
0.0016444621
0.0016494515
0.0016574399
0.0016684029
0.0016787703
0.001676162
0.001626887
0.0014527444
0.0010065291
0.00029744672
0.00067628483
0.00084712902
0.00090563382
0.0009130105
0.00090249085
0.00088917867
0.00087862923
0.00087177095
0.00086833881
0.00086833849
0.00087177039
0.00087862834
0.0008891781
0.00090249071
0.00091301063
0.00090563417
0.00084712935
0.00067628538
0.0002974473
6.3973804e-05
0.00028186276
0.00041443982
0.00046990393
0.00048208689
0.00047588906
0.00046498654
0.00045545437
0.00044895412
0.00044564592
0.00044564565
0.00044895358
0.00045545353
0.00046498596
0.0004758888
0.00048208684
0.00046990408
0.00041443991
0.00028186295
6.3973931e-05
1.0598348e-05
0.00010491483
0.0001893538
0.00023237728
0.00024544104
0.00024349668
0.00023656834
0.00022980373
0.00022496408
0.00022245417
0.00022245396
0.00022496364
0.00022980306
0.00023656784
0.0002434964
0.0002454409
0.00023237732
0.00018935379
0.00010491486
1.0598367e-05
1.4447705e-06
3.5030098e-05
8.0713838e-05
0.00010912738
0.00011990958
0.00012034519
0.00011670772
0.00011265233
0.00010960607
0.00010799676
0.00010799661
0.00010960575
0.00011265185
0.00011670734
0.00012034495
0.00011990943
0.00010912736
8.0713803e-05
3.5030097e-05
1.4447731e-06
1.7128973e-07
1.0604639e-05
3.2174615e-05
4.8638677e-05
5.608252e-05
5.7275582e-05
5.5667217e-05
5.3531274e-05
5.1841219e-05
5.0931887e-05
5.0931794e-05
5.1841016e-05
5.3530964e-05
5.5666958e-05
5.7275403e-05
5.6082393e-05
4.8638648e-05
3.2174589e-05
1.0604634e-05
1.7129011e-07
1.8360552e-08
2.9502452e-06
1.2048798e-05
2.0603875e-05
2.5099311e-05
2.6207679e-05
2.5620994e-05
2.4610963e-05
2.3763687e-05
2.3299121e-05
2.3299068e-05
2.3763567e-05
2.4610779e-05
2.5620834e-05
2.6207564e-05
2.5099223e-05
2.0603852e-05
1.2048784e-05
2.9502426e-06
1.836061e-08
1.824067e-09
7.6411922e-07
4.262336e-06
8.315972e-06
1.0756319e-05
1.1524414e-05
1.1366601e-05
1.0932827e-05
1.0542976e-05
1.0324825e-05
1.0324797e-05
1.054291e-05
1.0932726e-05
1.1366511e-05
1.1524346e-05
1.0756266e-05
8.3159562e-06
4.2623298e-06
7.6411826e-07
1.8240753e-09
1.7055572e-10
1.8628091e-07
1.4323985e-06
3.2072402e-06
4.41995e-06
4.8717188e-06
4.8591431e-06
4.6892333e-06
4.5229407e-06
4.427744e-06
4.4277299e-06
4.5229068e-06
4.6891815e-06
4.8590954e-06
4.8716825e-06
4.4199216e-06
3.207231e-06
1.432396e-06
1.8628059e-07
1.7055677e-10
1.515332e-11
4.3122067e-08
4.5964378e-07
1.1853834e-06
1.7443063e-06
1.9813093e-06
2.001965e-06
1.941442e-06
1.875261e-06
1.8363631e-06
1.8363564e-06
1.8752447e-06
1.9414171e-06
2.0019414e-06
1.9812912e-06
1.7442922e-06
1.1853786e-06
4.5964283e-07
4.3121978e-08
1.5153436e-11
1.2871783e-12
9.5452216e-09
1.414616e-07
4.2096475e-07
6.6220761e-07
7.7599018e-07
7.952951e-07
7.7595407e-07
7.5128697e-07
7.3632595e-07
7.36323e-07
7.512795e-07
7.759428e-07
7.952841e-07
7.7598166e-07
6.6220112e-07
4.2096248e-07
1.4146126e-07
9.5451975e-09
1.2871903e-12
1.0498168e-13
2.0317033e-09
4.1908749e-08
1.4397715e-07
2.4221611e-07
2.9298794e-07
3.0482725e-07
2.9948077e-07
2.9085744e-07
2.8542129e-07
2.8542005e-07
2.908542e-07
2.9947593e-07
3.0482239e-07
2.9298414e-07
2.4221331e-07
1.4397615e-07
4.190863e-08
2.0316971e-09
1.0498286e-13
8.2483571e-15
4.1773998e-10
1.1986761e-08
4.7516445e-08
8.547723e-08
1.0675247e-07
1.1280798e-07
1.1166362e-07
1.0883874e-07
1.0696848e-07
1.0696799e-07
1.0883739e-07
1.1166164e-07
1.1280594e-07
1.0675085e-07
8.5476091e-08
4.7516036e-08
1.198672e-08
4.1773845e-10
8.2484671e-15
6.2613155e-16
8.3282384e-11
3.3177304e-09
1.5156095e-08
2.9137974e-08
3.7571168e-08
4.0336217e-08
4.0242105e-08
3.9378515e-08
3.8768633e-08
3.8768442e-08
3.9377978e-08
4.0241326e-08
4.0335401e-08
3.757051e-08
2.9137533e-08
1.5155936e-08
3.3177167e-09
8.3282021e-11
6.2614125e-16
4.6053629e-17
1.614835e-11
8.9022879e-10
4.6782302e-09
9.6045697e-09
1.2783654e-08
1.3944933e-08
1.4024988e-08
1.3780881e-08
1.3592417e-08
1.3592344e-08
1.3780676e-08
1.4024695e-08
1.3944619e-08
1.2783397e-08
9.6044066e-09
4.6781724e-09
8.9022437e-10
1.6148267e-11
4.6054432e-17
3.2924214e-18
3.0526499e-12
2.3188304e-10
1.3988597e-09
3.064002e-09
4.2083795e-09
4.6642581e-09
4.7293809e-09
4.6668064e-09
4.6117148e-09
4.6116887e-09
4.6667313e-09
4.7292743e-09
4.6641425e-09
4.2082835e-09
3.063944e-09
1.3988395e-09
2.3188165e-10
3.0526314e-12
3.2924841e-18
2.2958077e-19
5.6360871e-13
5.8690951e-11
4.0553109e-10
9.4672129e-10
1.3413312e-09
1.5102711e-09
1.5438665e-09
1.5299556e-09
1.5147817e-09
1.5147726e-09
1.5299291e-09
1.5438291e-09
1.51023e-09
1.3412967e-09
9.4670143e-10
4.0552437e-10
5.8690522e-11
5.6360464e-13
2.2958536e-19
1.5675592e-20
1.0175499e-13
1.4444836e-11
1.1405737e-10
2.8350777e-10
4.1418261e-10
4.7367392e-10
4.8813319e-10
4.8579145e-10
4.818832e-10
4.8188012e-10
4.8578247e-10
4.881205e-10
4.7365984e-10
4.1417066e-10
2.8350117e-10
1.1405521e-10
1.4444707e-11
1.0175412e-13
1.5675904e-20
2.1245653e-21
1.7976702e-14
3.4586426e-12
3.1139683e-11
8.2333087e-11
1.2397507e-10
1.4397624e-10
1.4955684e-10
1.494626e-10
1.485347e-10
1.4853369e-10
1.4945965e-10
1.4955268e-10
1.4397157e-10
1.2397107e-10
8.2330949e-11
3.1139012e-11
3.4586043e-12
1.7976519e-14
2.1154704e-21
9.0671156e-22
3.1085002e-15
8.0593079e-13
8.2566711e-12
2.3199864e-11
3.5991502e-11
4.2434152e-11
4.442507e-11
4.4578979e-11
4.4381879e-11
4.4381557e-11
4.4578042e-11
4.4423746e-11
4.2432658e-11
3.599021e-11
2.3199193e-11
8.2564695e-12
8.0591995e-13
3.1084627e-15
9.1789372e-22
5.3447483e-22
5.2607992e-16
1.8280788e-13
2.127071e-12
6.3462672e-12
1.0139452e-11
1.2133197e-11
1.2800238e-11
1.2895844e-11
1.2861114e-11
1.2861015e-11
1.2895556e-11
1.279983e-11
1.2132734e-11
1.013905e-11
6.3460629e-12
2.1270124e-12
1.8280491e-13
5.2607298e-16
5.3639087e-22
1.2843593e-22
8.7119892e-17
4.0372005e-14
5.3262134e-13
1.686103e-12
2.7733011e-12
3.3673556e-12
3.579242e-12
3.6199493e-12
3.6162281e-12
3.6161983e-12
3.6198633e-12
3.57912e-12
3.3672169e-12
2.7731802e-12
1.6860424e-12
5.3260487e-13
4.0371222e-14
8.7118375e-17
1.2809378e-22
2.1430655e-23
1.4114838e-17
8.6821709e-15
1.2968262e-13
4.3529931e-13
7.3682203e-13
9.0755834e-13
9.7176987e-13
9.8651287e-13
9.8707768e-13
9.870691e-13
9.8648802e-13
9.717345e-13
9.0751808e-13
7.3678687e-13
4.3528187e-13
1.2967813e-13
8.6819714e-15
1.411389e-17
2.1144739e-23
2.7249725e-24
2.2353629e-18
1.818505e-15
3.0714035e-14
1.0925271e-13
1.9024969e-13
2.3765635e-13
2.563025e-13
2.6113683e-13
2.6168757e-13
2.6168515e-13
2.6112987e-13
2.5629254e-13
2.3764502e-13
1.902398e-13
1.0924783e-13
3.0712843e-14
1.818456e-15
2.2350739e-18
2.6793758e-24
2.2912168e-25
3.4577204e-19
3.7104019e-16
7.0786418e-15
2.6669661e-14
4.7763103e-14
6.049659e-14
6.5701926e-14
6.7176655e-14
6.741737e-14
6.7416712e-14
6.7174765e-14
6.5699201e-14
6.0493498e-14
4.7760406e-14
2.6668337e-14
7.0783345e-15
3.7102854e-16
3.4572759e-19
2.1873322e-25
1.4041129e-26
5.2245773e-20
7.3763281e-17
1.5881423e-15
6.3349557e-15
1.1664842e-14
1.4977387e-14
1.6377914e-14
1.6802527e-14
1.688651e-14
1.6886337e-14
1.6802028e-14
1.637719e-14
1.4976567e-14
1.1664129e-14
6.3346071e-15
1.5880653e-15
7.3760593e-17
5.2240047e-20
1.3212974e-26
7.5720598e-28
7.7101934e-21
1.4291466e-17
3.4699771e-16
1.4649062e-15
2.7726347e-15
3.6081226e-15
3.9720398e-15
4.0884461e-15
4.1144369e-15
4.1143927e-15
4.0883183e-15
3.9718534e-15
3.6079119e-15
2.7724519e-15
1.464817e-15
3.4697894e-16
1.4290864e-17
7.7095205e-21
7.0464921e-28
3.8147811e-29
1.1111636e-21
2.6992755e-18
7.3864546e-17
3.2992481e-16
6.4171566e-16
8.4621733e-16
9.3769505e-16
9.682562e-16
9.7567643e-16
9.7566537e-16
9.6822441e-16
9.376484e-16
8.4616462e-16
6.4167013e-16
3.2990266e-16
7.3860089e-17
2.6991447e-18
1.1110831e-21
3.5158738e-29
1.8833552e-30
1.5637101e-22
4.971415e-19
1.5324813e-17
7.2403116e-17
1.4468919e-16
1.9330873e-16
2.1558547e-16
2.2330066e-16
2.2529267e-16
2.2529e-16
2.2329296e-16
2.1557413e-16
1.932959e-16
1.4467818e-16
7.2397772e-17
1.5323784e-17
4.9711387e-19
1.563605e-22
1.7230175e-30
)
;

boundaryField
{
    Wall
    {
        type            zeroGradient;
    }
    frontAndBack
    {
        type            empty;
    }
    atmosphere
    {
        type            zeroGradient;
    }
}


// ************************************************************************* //
