/*--------------------------------*- C++ -*----------------------------------*\
| =========                 |                                                 |
| \\      /  F ield         | OpenFOAM: The Open Source CFD Toolbox           |
|  \\    /   O peration     | Version:  3.0.1                                 |
|   \\  /    A nd           | Web:      www.OpenFOAM.org                      |
|    \\/     M anipulation  |                                                 |
\*---------------------------------------------------------------------------*/
FoamFile
{
    version     2.0;
    format      ascii;
    class       volScalarField;
    location    "19";
    object      wCO2_g;
}
// * * * * * * * * * * * * * * * * * * * * * * * * * * * * * * * * * * * * * //

dimensions      [0 0 0 0 0 0 0];

internalField   nonuniform List<scalar> 
800
(
0.008449772
0.0084501488
0.0084502099
0.008450233
0.0084502495
0.008450262
0.0084502714
0.0084502782
0.0084502825
0.0084502845
0.0084502846
0.0084502825
0.0084502782
0.0084502715
0.008450262
0.0084502495
0.008450233
0.0084502099
0.0084501488
0.008449772
0.0083025285
0.0083126326
0.0083136649
0.0083137679
0.0083137844
0.0083138517
0.0083139399
0.0083140202
0.0083140775
0.0083141069
0.0083141069
0.0083140775
0.0083140201
0.0083139399
0.0083138517
0.0083137844
0.0083137679
0.0083136649
0.0083126326
0.0083025284
0.0080615846
0.0080750817
0.008081939
0.0080823166
0.0080824383
0.0080826213
0.008082827
0.0080830067
0.0080831335
0.0080831987
0.0080831987
0.0080831335
0.0080830066
0.0080828269
0.0080826213
0.0080824383
0.0080823166
0.0080819391
0.0080750817
0.0080615843
0.0076392174
0.0076638047
0.0076742231
0.0076745206
0.0076746526
0.0076748953
0.0076751886
0.0076754533
0.0076756413
0.0076757389
0.0076757389
0.0076756413
0.0076754532
0.0076751885
0.0076748953
0.0076746525
0.0076745206
0.0076742231
0.0076638046
0.007639217
0.0069218057
0.0069644883
0.006976758
0.0069855144
0.0069856754
0.0069859937
0.0069863821
0.0069867298
0.0069869755
0.0069871025
0.0069871025
0.0069869754
0.0069867297
0.0069863821
0.0069859937
0.0069856753
0.0069855145
0.006976758
0.0069644882
0.0069218052
0.005857
0.0059281746
0.005942118
0.0059514237
0.0059519942
0.0059526187
0.0059531997
0.0059536572
0.0059539663
0.0059541216
0.0059541216
0.0059539662
0.0059536571
0.0059531996
0.0059526187
0.0059519942
0.0059514237
0.005942118
0.0059281745
0.0058569996
0.0046621551
0.0047434253
0.0047597217
0.004767276
0.0047687898
0.0047699495
0.004770804
0.0047713826
0.0047717447
0.0047719168
0.0047719168
0.0047717446
0.0047713824
0.0047708039
0.0047699495
0.0047687898
0.004767276
0.0047597218
0.0047434253
0.0046621548
0.0034035488
0.0035009726
0.0035253201
0.0035321199
0.0035346675
0.0035363108
0.0035373503
0.0035379894
0.003538358
0.0035385233
0.0035385233
0.0035383579
0.0035379892
0.0035373501
0.0035363108
0.0035346675
0.0035321199
0.0035253202
0.0035009728
0.0034035488
0.0021072075
0.0022110195
0.0022453326
0.0022516226
0.002254402
0.002255965
0.0022568367
0.0022573371
0.0022576005
0.0022577122
0.0022577122
0.0022576004
0.0022573369
0.0022568365
0.0022559649
0.002254402
0.0022516227
0.0022453327
0.0022110198
0.0021072076
0.0011447566
0.0012228488
0.0012500993
0.0012558973
0.0012578555
0.0012585813
0.0012588313
0.001258919
0.001258931
0.0012589198
0.0012589197
0.0012589309
0.0012589188
0.0012588313
0.0012585813
0.0012578557
0.0012558975
0.0012500996
0.0012228492
0.0011447569
0.0005482231
0.00062531513
0.00065296689
0.00065897447
0.0006594166
0.00065866757
0.00065787573
0.00065730635
0.00065694215
0.00065675056
0.00065675053
0.00065694209
0.00065730624
0.00065787569
0.00065866764
0.00065941677
0.00065897469
0.00065296716
0.00062531549
0.0005482235
0.00020522186
0.00029404104
0.00032497979
0.00033224212
0.00033170301
0.0003294315
0.00032734409
0.00032587226
0.0003249645
0.00032451422
0.00032451418
0.00032496442
0.00032587214
0.00032734402
0.00032943153
0.00033170312
0.00033224226
0.00032497995
0.00029404127
0.00020522215
5.4746592e-05
0.00012434467
0.00015348436
0.00016216802
0.00016242033
0.00016013086
0.00015767311
0.00015579928
0.00015459854
0.00015400192
0.00015400188
0.00015459846
0.00015579916
0.00015767303
0.00016013085
0.00016242038
0.0001621681
0.00015348444
0.00012434478
5.4746691e-05
1.0539962e-05
4.6720092e-05
6.7786257e-05
7.5805051e-05
7.7051482e-05
7.5703063e-05
7.3830954e-05
7.226514e-05
7.121402e-05
7.0683042e-05
7.0683006e-05
7.1213946e-05
7.2265031e-05
7.3830879e-05
7.5703039e-05
7.7051495e-05
7.5805092e-05
6.7786291e-05
4.6720132e-05
1.0539981e-05
1.5536215e-06
1.5558431e-05
2.7795899e-05
3.3636734e-05
3.5145004e-05
3.4644525e-05
3.3552717e-05
3.2540974e-05
3.1829598e-05
3.1463519e-05
3.1463494e-05
3.1829544e-05
3.2540895e-05
3.3552658e-05
3.4644499e-05
3.5145002e-05
3.3636752e-05
2.7795909e-05
1.5558442e-05
1.5536238e-06
1.876715e-07
4.617389e-06
1.0569028e-05
1.4107577e-05
1.5329588e-05
1.5272346e-05
1.4748221e-05
1.4200161e-05
1.3796332e-05
1.3584703e-05
1.3584687e-05
1.3796297e-05
1.4200109e-05
1.4748181e-05
1.5272324e-05
1.5329581e-05
1.4107585e-05
1.0569031e-05
4.6173922e-06
1.8767177e-07
1.9660261e-08
1.2356361e-06
3.7360522e-06
5.5884213e-06
6.3771746e-06
6.4634414e-06
6.2507242e-06
5.9910374e-06
5.7899308e-06
5.6826175e-06
5.6826085e-06
5.7899109e-06
5.9910074e-06
6.2507e-06
6.463427e-06
6.3771676e-06
5.5884242e-06
3.7360532e-06
1.2356369e-06
1.9660297e-08
1.8578671e-09
3.0238344e-07
1.2337733e-06
2.0940666e-06
2.5289332e-06
2.6216735e-06
2.549175e-06
2.4389798e-06
2.3487677e-06
2.2997234e-06
2.2997188e-06
2.3487573e-06
2.4389637e-06
2.5491619e-06
2.6216651e-06
2.5289284e-06
2.0940676e-06
1.2337736e-06
3.0238366e-07
1.8578721e-09
1.6236615e-10
6.8563468e-08
3.8288869e-07
7.4434413e-07
9.5685787e-07
1.0188292e-06
9.9933749e-07
9.5690826e-07
9.1984939e-07
8.9929594e-07
8.9929371e-07
9.198443e-07
9.569004e-07
9.9933087e-07
1.0188248e-06
9.5685515e-07
7.4434438e-07
3.8288889e-07
6.8563537e-08
1.6236681e-10
1.3323727e-11
1.4561199e-08
1.1233877e-07
2.5182244e-07
3.460187e-07
3.795651e-07
3.7654484e-07
3.6162863e-07
3.4753551e-07
3.3954509e-07
3.3954409e-07
3.475332e-07
3.6162504e-07
3.7654176e-07
3.7956303e-07
3.4601735e-07
2.5182247e-07
1.1233886e-07
1.4561218e-08
1.3323803e-11
1.0360957e-12
2.9213387e-09
3.133464e-08
8.1367629e-08
1.1984126e-07
1.3571873e-07
1.3644029e-07
1.3165175e-07
1.2665443e-07
1.2374942e-07
1.23749e-07
1.2665345e-07
1.3165022e-07
1.3643894e-07
1.3571782e-07
1.1984065e-07
8.1367599e-08
3.1334677e-08
2.921344e-09
1.0361032e-12
7.6785969e-14
5.5742699e-10
8.3504864e-09
2.5193045e-08
3.9841434e-08
4.6645152e-08
4.758859e-08
4.619556e-08
4.453561e-08
4.3542228e-08
4.3542063e-08
4.4535216e-08
4.6194945e-08
4.7588034e-08
4.6644775e-08
3.9841177e-08
2.5193021e-08
8.3504993e-09
5.5742825e-10
7.6786683e-14
5.4433235e-15
1.0172685e-10
2.1354136e-09
7.4972219e-09
1.2741904e-08
1.5434307e-08
1.5996037e-08
1.563687e-08
1.5119064e-08
1.4798259e-08
1.4798198e-08
1.5118913e-08
1.5636637e-08
1.5995821e-08
1.5434159e-08
1.2741803e-08
7.4972086e-09
2.1354177e-09
1.0172713e-10
5.4433875e-15
3.7005862e-16
1.7841355e-11
5.2600798e-10
2.1502645e-09
3.928186e-09
4.9247201e-09
5.1883086e-09
5.1110335e-09
4.9592864e-09
4.8611777e-09
4.8611562e-09
4.9592312e-09
5.1109493e-09
5.1882281e-09
4.9246643e-09
3.9281491e-09
2.1502584e-09
5.2600912e-10
1.7841411e-11
3.7006405e-16
2.4177462e-17
3.020582e-12
1.2522573e-10
5.9578864e-10
1.1695276e-09
1.5175793e-09
1.6258896e-09
1.6148377e-09
1.5731498e-09
1.5446932e-09
1.5446859e-09
1.5731303e-09
1.6148086e-09
1.6258611e-09
1.517559e-09
1.1695148e-09
5.9578616e-10
1.2522601e-10
3.0205926e-12
2.4177896e-17
1.521088e-18
4.9573614e-13
2.8896622e-11
1.5980653e-10
3.3681783e-10
4.5226944e-10
4.9285523e-10
4.9368061e-10
4.8300807e-10
4.7517711e-10
4.751747e-10
4.830015e-10
4.9367096e-10
4.9284555e-10
4.522624e-10
3.3681354e-10
1.598056e-10
2.8896683e-11
4.9573797e-13
1.5211205e-18
9.2356439e-20
7.9187427e-14
6.4793222e-12
4.1567227e-11
9.3961729e-11
1.3051091e-10
1.446663e-10
1.4616989e-10
1.4365527e-10
1.4161281e-10
1.4161204e-10
1.4365314e-10
1.461668e-10
1.4466313e-10
1.3050854e-10
9.3960355e-11
4.1566908e-11
6.4793327e-12
7.9187702e-14
9.235873e-20
5.4267103e-21
1.2358077e-14
1.4145913e-12
1.0499751e-11
2.5420587e-11
3.6504905e-11
4.1155646e-11
4.1948103e-11
4.1417166e-11
4.0913714e-11
4.0913481e-11
4.14165e-11
4.1947147e-11
4.1154645e-11
3.6504139e-11
2.5420163e-11
1.0499648e-11
1.4145922e-12
1.2358113e-14
5.4268623e-21
3.0967233e-22
1.8906376e-15
3.0119776e-13
2.5785104e-12
6.6759799e-12
9.905754e-12
1.1356324e-11
1.1676293e-11
1.1582293e-11
1.1465675e-11
1.1465605e-11
1.1582092e-11
1.1676006e-11
1.1356018e-11
9.9055144e-12
6.6758528e-12
2.5784785e-12
3.0119749e-13
1.8906409e-15
3.0968177e-22
3.1371097e-23
2.8434732e-16
6.2618966e-14
6.161644e-13
1.7032342e-12
2.6095501e-12
3.041359e-12
3.1541511e-12
3.1432944e-12
3.1181774e-12
3.1181571e-12
3.1432356e-12
3.1540678e-12
3.0412686e-12
2.6094775e-12
1.7031971e-12
6.1615496e-13
6.261877e-14
2.8434733e-16
3.1251812e-23
1.0581351e-23
4.2127323e-17
1.2721337e-14
1.433635e-13
4.2240541e-13
6.6778654e-13
7.909447e-13
8.2727442e-13
8.2820236e-13
8.2327623e-13
8.232705e-13
8.2818572e-13
8.2725093e-13
7.9091882e-13
6.6776534e-13
4.2239491e-13
1.4336082e-13
1.2721263e-14
4.2127224e-17
1.0711314e-23
5.4078544e-24
6.15563e-18
2.5264984e-15
3.2492958e-14
1.0188024e-13
1.660768e-13
1.9983039e-13
2.1075507e-13
2.1193619e-13
2.1109688e-13
2.110953e-13
2.1193162e-13
2.1074862e-13
1.9982322e-13
1.6607083e-13
1.0187734e-13
3.2492232e-14
2.526475e-15
6.1556035e-18
5.4288525e-24
1.1328051e-24
8.8745994e-19
4.9060022e-16
7.1759502e-15
2.3906837e-14
4.0155872e-14
4.9065233e-14
5.2169377e-14
5.2689943e-14
5.2582405e-14
5.2581987e-14
5.2688727e-14
5.2167659e-14
4.9063306e-14
4.0154249e-14
2.390606e-14
7.1757613e-15
4.9059376e-16
8.8745136e-19
1.1285713e-24
1.6617642e-25
1.2621874e-19
9.313902e-17
1.5445227e-15
5.4595993e-15
9.4428243e-15
1.1711799e-14
1.255148e-14
1.2730024e-14
1.2727492e-14
1.2727384e-14
1.272971e-14
1.2551036e-14
1.1711297e-14
9.4423979e-15
5.4593968e-15
1.5444751e-15
9.3137372e-17
1.2621065e-19
1.6368795e-25
1.8710627e-26
1.7683508e-20
1.7284078e-17
3.2403316e-16
1.2137235e-15
2.1602039e-15
2.7185638e-15
2.9358915e-15
2.9897107e-15
2.9943787e-15
2.9943515e-15
2.9896321e-15
2.9357795e-15
2.7184373e-15
2.1600956e-15
1.2136722e-15
3.2402159e-16
1.7283685e-17
1.7681156e-20
1.8348738e-26
1.3894673e-27
2.4364369e-21
3.1344232e-18
6.6268109e-17
2.6272445e-16
4.8088956e-16
6.1382513e-16
6.678392e-16
6.8272627e-16
6.8493713e-16
6.8493051e-16
6.8270718e-16
6.6781177e-16
6.1379418e-16
4.8086299e-16
2.6271186e-16
6.6265382e-17
3.1343345e-18
2.4361122e-21
1.3196176e-27
7.4159476e-29
3.2984603e-22
5.5532415e-19
1.3212163e-17
5.5385822e-17
1.0419996e-16
1.3485303e-16
1.4777897e-16
1.5163639e-16
1.5236921e-16
1.5236765e-16
1.5163187e-16
1.4777245e-16
1.3484568e-16
1.0419365e-16
5.5382824e-17
1.321154e-17
5.5530494e-19
3.2980926e-22
6.9044766e-29
3.3758553e-30
4.3824446e-23
9.6095923e-20
2.5682307e-18
1.1373886e-17
2.1982409e-17
2.8834407e-17
3.1819074e-17
3.2766206e-17
3.2974189e-17
3.2973833e-17
3.2765173e-17
3.1817569e-17
2.8832713e-17
2.1980954e-17
1.1373194e-17
2.5680925e-18
9.6091927e-20
4.3820771e-23
3.0916231e-30
1.4546239e-31
5.7079311e-24
1.6238533e-20
4.8677609e-19
2.2757714e-18
4.5163226e-18
6.002364e-18
6.6684755e-18
6.8904418e-18
6.9440912e-18
6.9440115e-18
6.8902122e-18
6.6681387e-18
6.0019844e-18
4.5159976e-18
2.2756164e-18
4.8674634e-19
1.6237731e-20
5.707539e-24
1.3135217e-31
6.3248812e-33
7.2806206e-25
2.6792558e-21
8.9973538e-20
4.4377189e-19
9.0389314e-19
1.2168178e-18
1.3607073e-18
1.4106007e-18
1.4235114e-18
1.4234942e-18
1.4105511e-18
1.3606341e-18
1.2167351e-18
9.0382274e-19
4.4373826e-19
8.9967321e-20
2.6791007e-21
7.280133e-25
5.6742384e-33
)
;

boundaryField
{
    Wall
    {
        type            zeroGradient;
    }
    frontAndBack
    {
        type            empty;
    }
    atmosphere
    {
        type            zeroGradient;
    }
}


// ************************************************************************* //
