/*--------------------------------*- C++ -*----------------------------------*\
| =========                 |                                                 |
| \\      /  F ield         | OpenFOAM: The Open Source CFD Toolbox           |
|  \\    /   O peration     | Version:  3.0.1                                 |
|   \\  /    A nd           | Web:      www.OpenFOAM.org                      |
|    \\/     M anipulation  |                                                 |
\*---------------------------------------------------------------------------*/
FoamFile
{
    version     2.0;
    format      ascii;
    class       volScalarField;
    location    "19";
    object      weight0;
}
// * * * * * * * * * * * * * * * * * * * * * * * * * * * * * * * * * * * * * //

dimensions      [0 0 0 0 0 0 0];

internalField   nonuniform List<scalar> 
800
(
1.3927501e+10
1.392842e+10
1.3928629e+10
1.3928705e+10
1.3928758e+10
1.3928801e+10
1.3928835e+10
1.3928859e+10
1.3928875e+10
1.3928883e+10
1.3928883e+10
1.3928875e+10
1.3928859e+10
1.3928835e+10
1.3928801e+10
1.3928758e+10
1.3928705e+10
1.3928629e+10
1.392842e+10
1.3927501e+10
21598751
16987840
16528216
16385608
16286535
16202157
16133415
16082331
16049048
16032676
16032679
16049053
16082338
16133424
16202164
16286537
16385604
16528206
16987828
21598777
2.2950741e+08
2.0711132e+08
1.9646754e+08
1.9522258e+08
1.9443507e+08
1.9381658e+08
1.9333326e+08
1.9297923e+08
1.9274861e+08
1.9263478e+08
1.9263481e+08
1.9274867e+08
1.9297932e+08
1.9333338e+08
1.938167e+08
1.9443518e+08
1.9522269e+08
1.9646762e+08
2.0711141e+08
2.2950771e+08
9.7332645e+08
8.8792836e+08
8.6052755e+08
8.5677158e+08
8.5419921e+08
8.5227778e+08
8.5081478e+08
8.497603e+08
8.490772e+08
8.4874092e+08
8.4874107e+08
8.4907754e+08
8.4976082e+08
8.5081547e+08
8.522786e+08
8.5420007e+08
8.5677255e+08
8.6052848e+08
8.8792947e+08
9.7332819e+08
3.9064583e+09
3.5821522e+09
3.5393233e+09
3.4759199e+09
3.4660853e+09
3.4589365e+09
3.4537793e+09
3.4502349e+09
3.4480014e+09
3.4469221e+09
3.4469228e+09
3.4480031e+09
3.4502376e+09
3.4537827e+09
3.4589404e+09
3.4660896e+09
3.4759249e+09
3.5393283e+09
3.5821578e+09
3.9064664e+09
1.5607095e+10
1.4508885e+10
1.4541419e+10
1.4484404e+10
1.4437258e+10
1.4401303e+10
1.4377004e+10
1.4360843e+10
1.4351085e+10
1.4346418e+10
1.4346421e+10
1.4351092e+10
1.4360855e+10
1.437702e+10
1.4401321e+10
1.4437277e+10
1.4484426e+10
1.454144e+10
1.4508906e+10
1.5607128e+10
5.4577877e+10
5.1893215e+10
5.2180156e+10
5.2263302e+10
5.2098389e+10
5.1951903e+10
5.1852415e+10
5.1786615e+10
5.1747455e+10
5.1728051e+10
5.1728059e+10
5.1747478e+10
5.1786652e+10
5.1852466e+10
5.1951958e+10
5.2098448e+10
5.2263377e+10
5.218022e+10
5.1893278e+10
5.4577991e+10
1.7034002e+11
1.6782634e+11
1.6898639e+11
1.6987555e+11
1.6954315e+11
1.6909424e+11
1.6875849e+11
1.685411e+11
1.6840883e+11
1.6833873e+11
1.6833874e+11
1.6840887e+11
1.6854117e+11
1.6875862e+11
1.6909437e+11
1.6954331e+11
1.6987577e+11
1.6898655e+11
1.6782652e+11
1.7034036e+11
3.4777904e+11
3.6691214e+11
3.7825543e+11
3.8310484e+11
3.8325149e+11
3.8239858e+11
3.8159285e+11
3.81078e+11
3.8075327e+11
3.8057374e+11
3.8057374e+11
3.8075331e+11
3.8107801e+11
3.81593e+11
3.8239877e+11
3.8325174e+11
3.8310525e+11
3.7825569e+11
3.669125e+11
3.4777971e+11
0
0
0
0
0
0
0
0
0
0
0
0
0
0
0
0
0
0
0
0
0
0
0
0
0
0
0
0
0
0
0
0
0
0
0
0
0
0
0
0
0
0
0
0
0
0
0
0
0
0
0
0
0
0
0
0
0
0
0
0
0
0
0
0
0
0
0
0
0
0
0
0
0
0
0
0
0
0
0
0
0
0
0
0
0
0
0
0
0
0
0
0
0
0
0
0
0
0
0
0
0
0
0
0
0
0
0
0
0
0
0
0
0
0
0
0
0
0
0
0
0
0
0
0
0
0
0
0
0
0
0
0
0
0
0
0
0
0
0
0
0
0
0
0
0
0
0
0
0
0
0
0
0
0
0
0
0
0
0
0
0
0
0
0
0
0
0
0
0
0
0
0
0
0
0
0
0
0
0
0
0
0
0
0
0
0
0
0
0
0
0
0
0
0
0
0
0
0
0
0
0
0
0
0
0
0
0
0
0
0
0
0
0
0
0
0
0
0
0
0
0
0
0
0
0
0
0
0
0
0
0
0
0
0
0
0
0
0
0
0
0
0
0
0
0
0
0
0
0
0
0
0
0
0
0
0
0
0
0
0
0
0
0
0
0
0
0
0
0
0
0
0
0
0
0
0
0
0
0
0
0
0
0
0
0
0
0
0
0
0
0
0
0
0
0
0
0
0
0
0
0
0
0
0
0
0
0
0
0
0
0
0
0
0
0
0
0
0
0
0
0
0
0
0
0
0
0
0
0
0
0
0
0
0
0
0
0
0
0
0
0
0
0
0
0
0
0
0
0
0
0
0
0
0
0
0
0
0
0
0
0
0
0
0
0
0
0
0
0
0
0
0
0
0
0
0
0
0
0
0
0
0
0
0
0
0
0
0
0
0
0
0
0
0
0
0
0
0
0
0
0
0
0
0
0
0
0
0
0
0
0
0
0
0
0
0
0
0
0
0
0
0
0
0
0
0
0
0
0
0
0
0
0
0
0
0
0
0
0
0
0
0
0
0
0
0
0
0
0
0
0
0
0
0
0
0
0
0
0
0
0
0
0
0
0
0
0
0
0
0
0
0
0
0
0
0
0
0
0
0
0
0
0
0
0
0
0
0
0
0
0
0
0
0
0
0
0
0
0
0
0
0
0
0
0
0
0
0
0
0
0
0
0
0
0
0
0
0
0
0
0
0
0
0
0
0
0
0
0
0
0
0
0
0
0
0
0
0
0
0
0
0
0
0
0
0
0
0
0
0
0
0
0
0
0
0
0
0
0
0
0
0
0
0
0
0
0
0
0
0
0
0
0
0
0
0
0
0
0
0
0
0
0
0
0
0
0
0
0
0
0
0
0
0
0
0
0
0
0
0
0
0
0
0
0
0
0
0
0
0
0
0
0
0
0
0
0
0
0
0
)
;

boundaryField
{
    Wall
    {
        type            zeroGradient;
    }
    frontAndBack
    {
        type            empty;
    }
    atmosphere
    {
        type            zeroGradient;
    }
}


// ************************************************************************* //
