/*--------------------------------*- C++ -*----------------------------------*\
| =========                 |                                                 |
| \\      /  F ield         | OpenFOAM: The Open Source CFD Toolbox           |
|  \\    /   O peration     | Version:  3.0.1                                 |
|   \\  /    A nd           | Web:      www.OpenFOAM.org                      |
|    \\/     M anipulation  |                                                 |
\*---------------------------------------------------------------------------*/
FoamFile
{
    version     2.0;
    format      ascii;
    class       volScalarField;
    location    "19";
    object      XOH;
}
// * * * * * * * * * * * * * * * * * * * * * * * * * * * * * * * * * * * * * //

dimensions      [0 0 0 0 0 0 0];

internalField   nonuniform List<scalar> 
800
(
0.090436404
0.090439229
0.090439468
0.090439493
0.090439506
0.090439513
0.09043952
0.090439524
0.090439527
0.090439527
0.090439528
0.090439527
0.090439524
0.09043952
0.090439514
0.090439506
0.090439494
0.090439468
0.090439229
0.090436404
0.083544673
0.083676995
0.083695649
0.083698711
0.083700031
0.083701647
0.083703346
0.0837048
0.083705821
0.083706342
0.083706342
0.083705821
0.0837048
0.083703346
0.083701647
0.083700032
0.083698713
0.083695651
0.083676996
0.083544673
0.077290071
0.077507148
0.077544108
0.077550819
0.077553168
0.07755551
0.077557917
0.07755998
0.077561447
0.077562203
0.077562203
0.077561447
0.07755998
0.077557917
0.077555511
0.077553169
0.077550821
0.077544109
0.077507149
0.077290071
0.071025214
0.071341803
0.071394412
0.071403039
0.071406218
0.07140894
0.071411763
0.071414139
0.071415845
0.071416721
0.071416721
0.071415845
0.071414139
0.071411763
0.071408941
0.071406219
0.071403041
0.071394414
0.071341805
0.071025213
0.063950192
0.064414616
0.064484842
0.064497104
0.064502319
0.064506283
0.06451004
0.064513008
0.064515102
0.064516148
0.064516148
0.064515101
0.064513008
0.06451004
0.064506284
0.06450232
0.064497106
0.064484844
0.064414618
0.063950191
0.055110522
0.055797334
0.0558876
0.055909306
0.055919551
0.055927114
0.055933187
0.055937609
0.055940565
0.055942006
0.055942006
0.055940565
0.055937609
0.055933187
0.055927114
0.055919552
0.055909308
0.055887601
0.055797334
0.055110521
0.043391941
0.044378821
0.04459055
0.044624296
0.044642538
0.044655983
0.044665853
0.044672698
0.044677043
0.044679139
0.044679138
0.044677042
0.044672696
0.044665852
0.044655982
0.044642537
0.044624295
0.04459055
0.04437882
0.043391939
0.027768087
0.029115065
0.029600869
0.029639489
0.029663122
0.029681014
0.029693696
0.02970238
0.029707733
0.029710332
0.029710331
0.029707731
0.029702378
0.029693694
0.029681011
0.029663118
0.029639486
0.029600866
0.029115062
0.027768083
0.0063003595
0.0082655972
0.0091902917
0.0092122018
0.0092255708
0.0092355015
0.0092422968
0.0092468998
0.0092496815
0.009251042
0.0092510418
0.0092496809
0.0092468989
0.0092422956
0.0092355001
0.0092255693
0.0092122001
0.0091902902
0.0082655959
0.0063003581
1e-150
1e-150
1e-150
1e-150
1e-150
1e-150
1e-150
1e-150
1e-150
1e-150
1e-150
1e-150
1e-150
1e-150
1e-150
1e-150
1e-150
1e-150
1e-150
1e-150
1e-150
1e-150
1e-150
1e-150
1e-150
1e-150
1e-150
1e-150
1e-150
1e-150
1e-150
1e-150
1e-150
1e-150
1e-150
1e-150
1e-150
1e-150
1e-150
1e-150
1e-150
1e-150
1e-150
1e-150
1e-150
1e-150
1e-150
1e-150
1e-150
1e-150
1e-150
1e-150
1e-150
1e-150
1e-150
1e-150
1e-150
1e-150
1e-150
1e-150
1e-150
1e-150
1e-150
1e-150
1e-150
1e-150
1e-150
1e-150
1e-150
1e-150
1e-150
1e-150
1e-150
1e-150
1e-150
1e-150
1e-150
1e-150
1e-150
1e-150
1e-150
1e-150
1e-150
1e-150
1e-150
1e-150
1e-150
1e-150
1e-150
1e-150
1e-150
1e-150
1e-150
1e-150
1e-150
1e-150
1e-150
1e-150
1e-150
1e-150
1e-150
1e-150
1e-150
1e-150
1e-150
1e-150
1e-150
1e-150
1e-150
1e-150
1e-150
1e-150
1e-150
1e-150
1e-150
1e-150
1e-150
1e-150
1e-150
1e-150
1e-150
1e-150
1e-150
1e-150
1e-150
1e-150
1e-150
1e-150
1e-150
1e-150
1e-150
1e-150
1e-150
1e-150
1e-150
1e-150
1e-150
1e-150
1e-150
1e-150
1e-150
1e-150
1e-150
1e-150
1e-150
1e-150
1e-150
1e-150
1e-150
1e-150
1e-150
1e-150
1e-150
1e-150
1e-150
1e-150
1e-150
1e-150
1e-150
1e-150
1e-150
1e-150
1e-150
1e-150
1e-150
1e-150
1e-150
1e-150
1e-150
1e-150
1e-150
1e-150
1e-150
1e-150
1e-150
1e-150
1e-150
1e-150
1e-150
1e-150
1e-150
1e-150
1e-150
1e-150
1e-150
1e-150
1e-150
1e-150
1e-150
1e-150
1e-150
1e-150
1e-150
1e-150
1e-150
1e-150
1e-150
1e-150
1e-150
1e-150
1e-150
1e-150
1e-150
1e-150
1e-150
1e-150
1e-150
1e-150
1e-150
1e-150
1e-150
1e-150
1e-150
1e-150
1e-150
1e-150
1e-150
1e-150
1e-150
1e-150
1e-150
1e-150
1e-150
1e-150
1e-150
1e-150
1e-150
1e-150
1e-150
1e-150
1e-150
1e-150
1e-150
1e-150
1e-150
1e-150
1e-150
1e-150
1e-150
1e-150
1e-150
1e-150
1e-150
1e-150
1e-150
1e-150
1e-150
1e-150
1e-150
1e-150
1e-150
1e-150
1e-150
1e-150
1e-150
1e-150
1e-150
1e-150
1e-150
1e-150
1e-150
1e-150
1e-150
1e-150
1e-150
1e-150
1e-150
1e-150
1e-150
1e-150
1e-150
1e-150
1e-150
1e-150
1e-150
1e-150
1e-150
1e-150
1e-150
1e-150
1e-150
1e-150
1e-150
1e-150
1e-150
1e-150
1e-150
1e-150
1e-150
1e-150
1e-150
1e-150
1e-150
1e-150
1e-150
1e-150
1e-150
1e-150
1e-150
1e-150
1e-150
1e-150
1e-150
1e-150
1e-150
1e-150
1e-150
1e-150
1e-150
1e-150
1e-150
1e-150
1e-150
1e-150
1e-150
1e-150
1e-150
1e-150
1e-150
1e-150
1e-150
1e-150
1e-150
1e-150
1e-150
1e-150
1e-150
1e-150
1e-150
1e-150
1e-150
1e-150
1e-150
1e-150
1e-150
1e-150
1e-150
1e-150
1e-150
1e-150
1e-150
1e-150
1e-150
1e-150
1e-150
1e-150
1e-150
1e-150
1e-150
1e-150
1e-150
1e-150
1e-150
1e-150
1e-150
1e-150
1e-150
1e-150
1e-150
1e-150
1e-150
1e-150
1e-150
1e-150
1e-150
1e-150
1e-150
1e-150
1e-150
1e-150
1e-150
1e-150
1e-150
1e-150
1e-150
1e-150
1e-150
1e-150
1e-150
1e-150
1e-150
1e-150
1e-150
1e-150
1e-150
1e-150
1e-150
1e-150
1e-150
1e-150
1e-150
1e-150
1e-150
1e-150
1e-150
1e-150
1e-150
1e-150
1e-150
1e-150
1e-150
1e-150
1e-150
1e-150
1e-150
1e-150
1e-150
1e-150
1e-150
1e-150
1e-150
1e-150
1e-150
1e-150
1e-150
1e-150
1e-150
1e-150
1e-150
1e-150
1e-150
1e-150
1e-150
1e-150
1e-150
1e-150
1e-150
1e-150
1e-150
1e-150
1e-150
1e-150
1e-150
1e-150
1e-150
1e-150
1e-150
1e-150
1e-150
1e-150
1e-150
1e-150
1e-150
1e-150
1e-150
1e-150
1e-150
1e-150
1e-150
1e-150
1e-150
1e-150
1e-150
1e-150
1e-150
1e-150
1e-150
1e-150
1e-150
1e-150
1e-150
1e-150
1e-150
1e-150
1e-150
1e-150
1e-150
1e-150
1e-150
1e-150
1e-150
1e-150
1e-150
1e-150
1e-150
1e-150
1e-150
1e-150
1e-150
1e-150
1e-150
1e-150
1e-150
1e-150
1e-150
1e-150
1e-150
1e-150
1e-150
1e-150
1e-150
1e-150
1e-150
1e-150
1e-150
1e-150
1e-150
1e-150
1e-150
1e-150
1e-150
1e-150
1e-150
1e-150
1e-150
1e-150
1e-150
1e-150
1e-150
1e-150
1e-150
1e-150
1e-150
1e-150
1e-150
1e-150
1e-150
1e-150
1e-150
1e-150
1e-150
1e-150
1e-150
1e-150
1e-150
1e-150
1e-150
1e-150
1e-150
1e-150
1e-150
1e-150
1e-150
1e-150
1e-150
1e-150
1e-150
1e-150
1e-150
1e-150
1e-150
1e-150
1e-150
1e-150
1e-150
1e-150
1e-150
1e-150
1e-150
1e-150
1e-150
1e-150
1e-150
1e-150
1e-150
1e-150
1e-150
1e-150
1e-150
1e-150
1e-150
1e-150
1e-150
1e-150
1e-150
1e-150
1e-150
1e-150
1e-150
1e-150
1e-150
1e-150
1e-150
1e-150
1e-150
1e-150
1e-150
1e-150
1e-150
1e-150
1e-150
1e-150
1e-150
1e-150
1e-150
1e-150
1e-150
1e-150
1e-150
1e-150
1e-150
1e-150
1e-150
1e-150
1e-150
1e-150
1e-150
1e-150
1e-150
1e-150
1e-150
1e-150
1e-150
1e-150
1e-150
1e-150
1e-150
1e-150
1e-150
1e-150
1e-150
1e-150
1e-150
1e-150
1e-150
1e-150
1e-150
1e-150
1e-150
1e-150
)
;

boundaryField
{
    Wall
    {
        type            zeroGradient;
    }
    frontAndBack
    {
        type            empty;
    }
    atmosphere
    {
        type            zeroGradient;
    }
}


// ************************************************************************* //
