/*--------------------------------*- C++ -*----------------------------------*\
| =========                 |                                                 |
| \\      /  F ield         | OpenFOAM: The Open Source CFD Toolbox           |
|  \\    /   O peration     | Version:  3.0.1                                 |
|   \\  /    A nd           | Web:      www.OpenFOAM.org                      |
|    \\/     M anipulation  |                                                 |
\*---------------------------------------------------------------------------*/
FoamFile
{
    version     2.0;
    format      ascii;
    class       volScalarField;
    location    "2";
    object      mTwo;
}
// * * * * * * * * * * * * * * * * * * * * * * * * * * * * * * * * * * * * * //

dimensions      [0 0 0 0 0 0 0];

internalField   nonuniform List<scalar> 
800
(
2.7892964e-22
2.7892964e-22
2.7892964e-22
2.7892964e-22
2.7892964e-22
2.7892964e-22
2.7892964e-22
2.7892964e-22
2.7892964e-22
2.7892964e-22
2.7892964e-22
2.7892964e-22
2.7892964e-22
2.7892964e-22
2.7892964e-22
2.7892964e-22
2.7892964e-22
2.7892964e-22
2.7892964e-22
2.7892964e-22
2.7892964e-22
2.7892964e-22
2.7892964e-22
2.7892964e-22
2.7892964e-22
2.7892964e-22
2.7892964e-22
2.7892964e-22
2.7892964e-22
2.7892964e-22
2.7892964e-22
2.7892964e-22
2.7892964e-22
2.7892964e-22
2.7892964e-22
2.7892964e-22
2.7892964e-22
2.7892964e-22
2.7892964e-22
2.7892964e-22
1.717091e-24
1.7562546e-24
1.7586481e-24
1.7588976e-24
1.7589162e-24
1.7589112e-24
1.7589054e-24
1.7589006e-24
1.758898e-24
1.7588967e-24
1.758897e-24
1.7588977e-24
1.758901e-24
1.7589052e-24
1.7589105e-24
1.758916e-24
1.7588971e-24
1.7586472e-24
1.7562535e-24
1.7170915e-24
7.4093144e-27
1.0597211e-26
1.117667e-26
1.1255339e-26
1.1260341e-26
1.1258141e-26
1.1256326e-26
1.1255211e-26
1.125458e-26
1.1254314e-26
1.125432e-26
1.1254591e-26
1.1255226e-26
1.1256334e-26
1.1258134e-26
1.1260316e-26
1.1255292e-26
1.1176605e-26
1.0597126e-26
7.4092639e-27
2.9285594e-29
6.6615414e-29
7.5159783e-29
7.6354431e-29
7.6426123e-29
7.6388295e-29
7.6357433e-29
7.6338333e-29
7.6327417e-29
7.6322738e-29
7.6322831e-29
7.6327605e-29
7.6338533e-29
7.6357563e-29
7.6388206e-29
7.642569e-29
7.6353679e-29
7.5158764e-29
6.6614126e-29
2.9285002e-29
9.3305492e-32
3.3254001e-31
4.0048167e-31
4.1031199e-31
4.1088274e-31
4.1053964e-31
4.1025683e-31
4.1007853e-31
4.0997523e-31
4.0992956e-31
4.0993038e-31
4.0997646e-31
4.1008028e-31
4.1025814e-31
4.1053904e-31
4.1087901e-31
4.103055e-31
4.0047257e-31
3.3252938e-31
9.330205e-32
2.3166199e-34
1.2781825e-33
1.6404289e-33
1.6948903e-33
1.6981309e-33
1.696178e-33
1.6945236e-33
1.6934549e-33
1.6928249e-33
1.69254e-33
1.6925453e-33
1.6928311e-33
1.6934632e-33
1.6945304e-33
1.6961771e-33
1.6981116e-33
1.6948553e-33
1.6403792e-33
1.278127e-33
2.3165015e-34
4.5982941e-37
3.9021766e-36
5.3315875e-36
5.5551806e-36
5.5692915e-36
5.5614912e-36
5.5546261e-36
5.5500801e-36
5.5473605e-36
5.546107e-36
5.5461228e-36
5.5473776e-36
5.5501057e-36
5.5546428e-36
5.5614828e-36
5.5692203e-36
5.5550484e-36
5.3313988e-36
3.9019818e-36
4.5980181e-37
7.505713e-40
9.7641979e-39
1.4194145e-38
1.4915067e-38
1.4963902e-38
1.4940297e-38
1.4918613e-38
1.4903938e-38
1.4895024e-38
1.4890867e-38
1.4890902e-38
1.4895059e-38
1.4903989e-38
1.4918625e-38
1.4940243e-38
1.4963678e-38
1.491469e-38
1.4193615e-38
9.7636862e-39
7.50525e-40
1.0296585e-42
2.0503141e-41
3.1700241e-41
3.3594696e-41
3.3732273e-41
3.3675358e-41
3.3620674e-41
3.3582997e-41
3.3559812e-41
3.354887e-41
3.3548933e-41
3.3559772e-41
3.3582961e-41
3.3620521e-41
3.3675064e-41
3.373164e-41
3.3593819e-41
3.1699085e-41
2.0502127e-41
1.029599e-42
1.2067155e-45
3.6763533e-44
6.0441996e-44
6.4603127e-44
6.4924948e-44
6.4811772e-44
6.4697996e-44
6.4618367e-44
6.4568867e-44
6.454536e-44
6.454539e-44
6.4568527e-44
6.4617928e-44
6.4697268e-44
6.4810779e-44
6.4923323e-44
6.4601208e-44
6.0439704e-44
3.6761785e-44
1.206652e-45
1.2234187e-48
5.703587e-47
9.9700393e-47
1.0748022e-46
1.0811613e-46
1.0792631e-46
1.0772628e-46
1.0758447e-46
1.0749563e-46
1.0745315e-46
1.0745314e-46
1.0749464e-46
1.0758304e-46
1.0772423e-46
1.0792392e-46
1.0811268e-46
1.0747653e-46
9.9696224e-47
5.7033045e-47
1.2233547e-48
1.0835869e-51
7.7347266e-50
1.4374515e-49
1.5629685e-49
1.5737327e-49
1.5709996e-49
1.5679756e-49
1.5658091e-49
1.564444e-49
1.5637882e-49
1.5637862e-49
1.564424e-49
1.5657799e-49
1.5679345e-49
1.5709519e-49
1.5736665e-49
1.5628994e-49
1.4373786e-49
7.7342852e-50
1.0835233e-51
8.4498387e-55
9.2426729e-53
1.8261353e-52
2.0027226e-52
2.0185105e-52
2.0150938e-52
2.0111121e-52
2.0082344e-52
2.0064137e-52
2.005535e-52
2.0055316e-52
2.0063821e-52
2.0081876e-52
2.0110482e-52
2.0150178e-52
2.0184058e-52
2.0026116e-52
1.8260202e-52
9.242025e-53
8.4492278e-55
5.8374956e-58
9.7944238e-56
2.0573108e-55
2.2757419e-55
2.2959923e-55
2.2922468e-55
2.2876364e-55
2.284279e-55
2.2821488e-55
2.2811172e-55
2.2811123e-55
2.2821082e-55
2.2842203e-55
2.2875535e-55
2.292145e-55
2.2958507e-55
2.2755903e-55
2.0571534e-55
9.7935883e-56
5.8369712e-58
3.5905224e-61
9.2512594e-59
2.06592e-58
2.3050223e-58
2.3279047e-58
2.3242802e-58
2.3195509e-58
2.3160843e-58
2.3138801e-58
2.3128104e-58
2.3128064e-58
2.3138374e-58
2.3160219e-58
2.319461e-58
2.3241663e-58
2.3277444e-58
2.3048486e-58
2.0657399e-58
9.2503433e-59
3.5901422e-61
1.974084e-64
7.8203226e-62
1.8566942e-61
2.0895031e-61
2.1124175e-61
2.1093073e-61
2.1049865e-61
2.1017994e-61
2.0997685e-61
2.0987841e-61
2.0987799e-61
2.0997298e-61
2.1017407e-61
2.1048989e-61
2.1091964e-61
2.112261e-61
2.0893337e-61
1.856519e-61
7.8194775e-62
1.9738535e-64
9.7322053e-68
5.9352298e-65
1.4982055e-64
1.7006587e-64
1.7210905e-64
1.7187152e-64
1.7151827e-64
1.7125625e-64
1.7108913e-64
1.7100799e-64
1.7100759e-64
1.7108571e-64
1.7125128e-64
1.7151092e-64
1.7186214e-64
1.7209584e-64
1.7005171e-64
1.4980598e-64
5.9345636e-65
9.7310143e-68
4.3126502e-71
4.0542304e-68
1.0881226e-67
1.2458574e-67
1.2621378e-67
1.2605197e-67
1.2579272e-67
1.2559937e-67
1.2547585e-67
1.2541581e-67
1.2541544e-67
1.2547309e-67
1.2559551e-67
1.2578718e-67
1.26045e-67
1.2620408e-67
1.2457536e-67
1.0880155e-67
4.0537632e-68
4.3121053e-71
1.7208254e-74
2.4970329e-71
7.1260618e-71
8.2297328e-71
8.3459896e-71
8.3361312e-71
8.3190008e-71
8.3061561e-71
8.2979417e-71
8.2939426e-71
8.2939216e-71
8.2977487e-71
8.3058918e-71
8.3186297e-71
8.3356773e-71
8.3453493e-71
8.2290514e-71
7.1253545e-71
2.4967403e-71
1.7206024e-74
6.1902749e-78
1.3884068e-74
4.2132775e-74
4.9079851e-74
4.9825243e-74
4.9771532e-74
4.9669457e-74
4.9592529e-74
4.9543291e-74
4.9519292e-74
4.9519157e-74
4.9542114e-74
4.9590951e-74
4.9667262e-74
4.9768869e-74
4.9821414e-74
4.907573e-74
4.2128527e-74
1.3882422e-74
6.1894566e-78
2.0088569e-81
6.9739578e-78
2.2505234e-77
2.6443235e-77
2.6872972e-77
2.6846841e-77
2.6791952e-77
2.675036e-77
2.6723732e-77
2.6710719e-77
2.6710652e-77
2.672308e-77
2.6749493e-77
2.6790737e-77
2.6845387e-77
2.6870866e-77
2.6440976e-77
2.2502921e-77
6.9731145e-78
2.008586e-81
5.8818219e-85
3.1650125e-81
1.0861873e-80
1.2873152e-80
1.3096084e-80
1.3084745e-80
1.3058091e-80
1.303779e-80
1.3024785e-80
1.3018422e-80
1.3018384e-80
1.3024444e-80
1.3037338e-80
1.3057461e-80
1.3084004e-80
1.3095002e-80
1.2872001e-80
1.0860717e-80
3.16462e-81
5.8810021e-85
1.5532062e-88
1.2972997e-84
4.7349966e-84
5.660437e-84
5.7645137e-84
5.7601428e-84
5.7484524e-84
5.7395059e-84
5.7337738e-84
5.7309643e-84
5.7309437e-84
5.7336103e-84
5.7392925e-84
5.7481519e-84
5.7597876e-84
5.7640011e-84
5.6598981e-84
4.7344713e-84
1.2971338e-84
1.5529822e-88
3.6957213e-92
4.7981713e-88
1.862648e-87
2.2460112e-87
2.2897138e-87
2.2882257e-87
2.2836012e-87
2.280046e-87
2.2777671e-87
2.2766492e-87
2.2766404e-87
2.2776992e-87
2.2799552e-87
2.2834736e-87
2.2880753e-87
2.2894977e-87
2.2457858e-87
1.8624333e-87
4.7975378e-88
3.695168e-92
7.9118096e-96
1.5989591e-91
6.6022799e-91
8.0302102e-91
8.1950749e-91
8.1906451e-91
8.1741741e-91
8.1614508e-91
8.1532979e-91
8.1492918e-91
8.1492613e-91
8.1530477e-91
8.1611214e-91
8.173705e-91
8.1900933e-91
8.1942766e-91
8.0293826e-91
6.6015013e-91
1.5987421e-91
7.910583e-96
1.5207128e-99
4.7908703e-95
2.1042584e-94
2.5815717e-94
2.6373463e-94
2.6362133e-94
2.6309385e-94
2.6268469e-94
2.6242239e-94
2.6229362e-94
2.6229276e-94
2.6241484e-94
2.626746e-94
2.6307924e-94
2.6360381e-94
2.6370902e-94
2.5813046e-94
2.1040059e-94
4.790202e-95
1.5204673e-99
2.6169897e-103
1.2870568e-98
6.013636e-98
7.441755e-98
7.6105422e-98
7.6081135e-98
7.5929749e-98
7.5811776e-98
7.5736152e-98
7.5699052e-98
7.5698911e-98
7.573421e-98
7.5809218e-98
7.592593e-98
7.6076487e-98
7.6098252e-98
7.440999e-98
6.0129122e-98
1.2868745e-98
2.6165595e-103
4.0177948e-107
3.0891178e-102
1.5355226e-101
1.916675e-101
1.9622125e-101
1.9618057e-101
1.9579259e-101
1.9548878e-101
1.9529405e-101
1.9519859e-101
1.9519846e-101
1.9528974e-101
1.9548326e-101
1.9578417e-101
1.961703e-101
1.9620417e-101
1.9164912e-101
1.5353455e-101
3.0886917e-102
4.0171425e-107
5.47831e-111
6.5942687e-106
3.4873743e-105
4.3908214e-105
4.4998833e-105
4.4994595e-105
4.4906208e-105
4.4836633e-105
4.4792042e-105
4.4770206e-105
4.4770239e-105
4.4791232e-105
4.4835628e-105
4.4904682e-105
4.4992783e-105
4.4995498e-105
4.3904623e-105
3.48702e-105
6.5934445e-106
5.4774785e-111
6.5967187e-115
1.2449259e-109
7.0050876e-109
8.8964612e-109
9.1270602e-109
9.1272405e-109
9.1094429e-109
9.0953626e-109
9.0863345e-109
9.0819132e-109
9.0819352e-109
9.0862013e-109
9.0952214e-109
9.1092373e-109
9.1270196e-109
9.1265541e-109
8.8959264e-109
7.0045487e-109
1.2448008e-109
6.595864e-115
6.9656901e-119
2.0639393e-113
1.2357585e-112
1.5830501e-112
1.6258001e-112
1.6260219e-112
1.6228763e-112
1.6203748e-112
1.6187713e-112
1.6179861e-112
1.6179926e-112
1.6187555e-112
1.6203646e-112
1.6228629e-112
1.6260153e-112
1.625753e-112
1.5830058e-112
1.2357065e-112
2.0638077e-113
6.9650285e-119
6.3928085e-123
2.9782589e-117
1.8975535e-116
2.4519632e-116
2.5208458e-116
2.5214875e-116
2.5166536e-116
2.5127892e-116
2.5103141e-116
2.5091049e-116
2.5091218e-116
2.5103076e-116
2.5128054e-116
2.5166805e-116
2.5215449e-116
2.5208605e-116
2.4519983e-116
1.8975637e-116
2.9782147e-117
6.3924998e-123
5.041782e-127
3.6983876e-121
2.5076567e-120
3.2685023e-120
3.3638939e-120
3.365156e-120
3.358769e-120
3.3536365e-120
3.350354e-120
3.3487544e-120
3.3487858e-120
3.3503716e-120
3.3537063e-120
3.3588783e-120
3.3653422e-120
3.3640552e-120
3.2687233e-120
2.5078233e-120
3.6985694e-121
5.041845e-127
3.3669864e-131
3.8944493e-125
2.8103163e-124
3.694866e-124
3.8067598e-124
3.8086606e-124
3.801514e-124
3.7957388e-124
3.7920482e-124
3.7902551e-124
3.7903006e-124
3.7920962e-124
3.7958705e-124
3.8017239e-124
3.8090033e-124
3.8071287e-124
3.6953556e-124
2.8107157e-124
3.8949552e-125
3.3672908e-131
1.866906e-135
3.4097342e-129
2.6188632e-128
3.4731377e-128
3.5821572e-128
3.5844106e-128
3.5777714e-128
3.5723683e-128
3.5689171e-128
3.5672417e-128
3.5672916e-128
3.5689804e-128
3.5725279e-128
3.5780339e-128
3.5848525e-128
3.5826953e-128
3.4738563e-128
2.6194715e-128
3.4105062e-129
1.867248e-135
8.3633446e-140
2.415388e-133
1.9746604e-132
2.641626e-132
2.7274986e-132
2.7295882e-132
2.7246032e-132
2.7205118e-132
2.7178946e-132
2.7166224e-132
2.7166608e-132
2.7179437e-132
2.7206422e-132
2.7248313e-132
2.7299957e-132
2.7280513e-132
2.6423953e-132
1.9753294e-132
2.4162101e-133
8.3657736e-140
2.9083492e-144
1.330079e-137
1.1575166e-136
1.5620013e-136
1.6145576e-136
1.6160315e-136
1.6131228e-136
1.6107074e-136
1.6091561e-136
1.6083999e-136
1.6084204e-136
1.6091771e-136
1.6107727e-136
1.6132491e-136
1.6162889e-136
1.6149583e-136
1.5626054e-136
1.1580553e-136
1.3307083e-137
2.9095435e-144
7.5560852e-149
5.3418614e-142
4.9490807e-141
6.7369912e-141
6.9715671e-141
6.9790925e-141
6.9667e-141
6.9562389e-141
6.9494727e-141
6.9461603e-141
6.9462253e-141
6.9494846e-141
6.9563781e-141
6.9670384e-141
6.9800744e-141
6.9735488e-141
6.7403801e-141
4.9521976e-141
5.3452745e-142
7.5601409e-149
1.905405e-150
1.3919822e-146
1.3729383e-145
1.8853872e-145
1.9533314e-145
1.9558143e-145
1.9523935e-145
1.9494344e-145
1.9475026e-145
1.9465501e-145
1.946556e-145
1.9474691e-145
1.9493994e-145
1.9523781e-145
1.9560013e-145
1.9539514e-145
1.8866179e-145
1.3741042e-145
1.3931778e-146
1.9054059e-150
)
;

boundaryField
{
    Wall
    {
        type            zeroGradient;
    }
    frontAndBack
    {
        type            empty;
    }
    atmosphere
    {
        type            zeroGradient;
    }
}


// ************************************************************************* //
