/*--------------------------------*- C++ -*----------------------------------*\
| =========                 |                                                 |
| \\      /  F ield         | OpenFOAM: The Open Source CFD Toolbox           |
|  \\    /   O peration     | Version:  3.0.1                                 |
|   \\  /    A nd           | Web:      www.OpenFOAM.org                      |
|    \\/     M anipulation  |                                                 |
\*---------------------------------------------------------------------------*/
FoamFile
{
    version     2.0;
    format      ascii;
    class       surfaceScalarField;
    location    "2";
    object      phi;
}
// * * * * * * * * * * * * * * * * * * * * * * * * * * * * * * * * * * * * * //

dimensions      [0 3 -1 0 0 0 0];

internalField   nonuniform List<scalar> 
1540
(
-1.7707672e-13
7.0841364e-10
-1.2865075e-13
7.0957037e-10
-4.4050785e-14
7.0973639e-10
-9.3378864e-15
7.0977044e-10
1.9203995e-15
7.0978089e-10
4.6761167e-15
7.0978433e-10
4.3721497e-15
7.097854e-10
3.1075469e-15
7.0978569e-10
1.5834197e-15
7.0978573e-10
2.2981466e-17
7.0978573e-10
-1.5215696e-15
7.0978573e-10
-3.0320944e-15
7.0978574e-10
-4.3014127e-15
7.0978569e-10
-4.6013335e-15
7.0978542e-10
-1.8452443e-15
7.0978433e-10
9.4097282e-15
7.0978089e-10
4.4113316e-14
7.0977043e-10
1.2868502e-13
7.0973638e-10
1.7708627e-13
7.0957035e-10
7.0841363e-10
1.3155853e-13
6.9199154e-10
9.4227001e-14
7.1257757e-10
4.1062589e-14
7.1481854e-10
2.7591659e-14
7.1517435e-10
2.0104485e-14
7.1521898e-10
1.4623752e-14
7.1522012e-10
1.0265525e-14
7.1521723e-10
6.5393127e-15
7.1521494e-10
3.2156463e-15
7.1521353e-10
2.7612724e-17
7.1521289e-10
-3.1241126e-15
7.152129e-10
-6.4700323e-15
7.1521355e-10
-1.0177884e-14
7.1521497e-10
-1.4544923e-14
7.1521726e-10
-2.0029082e-14
7.152201e-10
-2.750077e-14
7.1521892e-10
-4.0973704e-14
7.1517424e-10
-9.4142637e-14
7.1481838e-10
-1.3148681e-13
7.1257737e-10
6.9199141e-10
2.2869071e-13
8.1322894e-10
2.3831401e-13
1.2693829e-09
1.781406e-13
1.3937848e-09
1.397624e-13
1.4178938e-09
1.0701185e-13
1.4210996e-09
7.9602681e-14
1.421167e-09
5.6496506e-14
1.4209665e-09
3.6330062e-14
1.4208226e-09
1.7938514e-14
1.4207396e-09
3.5861331e-16
1.4207029e-09
-1.7227702e-14
1.4207034e-09
-3.5633813e-14
1.4207408e-09
-5.582358e-14
1.4208238e-09
-7.89839e-14
1.4209674e-09
-1.0645226e-13
1.4211665e-09
-1.3924213e-13
1.4210966e-09
-1.7768675e-13
1.4178886e-09
-2.3796269e-13
1.3937776e-09
-2.2847224e-13
1.2693746e-09
8.132241e-10
5.1301767e-12
1.0184547e-09
7.4533914e-12
2.0171802e-09
7.255561e-12
2.3036033e-09
6.0798517e-12
2.360017e-09
4.7678588e-12
2.3675936e-09
3.5869256e-12
2.3677291e-09
2.5612499e-12
2.3672166e-09
1.6526526e-12
2.3668429e-09
8.1852474e-13
2.3666241e-09
1.7876509e-14
2.3665256e-09
-7.8263157e-13
2.3665268e-09
-1.6187753e-12
2.3666265e-09
-2.5277994e-12
2.3668455e-09
-3.557606e-12
2.3672183e-09
-4.7408958e-12
2.3677276e-09
-6.0562217e-12
2.3675862e-09
-7.2352994e-12
2.3600044e-09
-7.4395196e-12
2.3035856e-09
-5.122134e-12
2.0171595e-09
1.0184426e-09
5.1953721e-12
1.1148733e-09
7.9736032e-12
2.2698432e-09
8.2653484e-12
2.6077348e-09
7.2978812e-12
2.6753571e-09
5.956498e-12
2.6846063e-09
4.6058443e-12
2.684774e-09
3.3487601e-12
2.684106e-09
2.1846698e-12
2.6836021e-09
1.0901911e-12
2.6832993e-09
2.5680512e-14
2.6831579e-09
-1.0381699e-12
2.6831592e-09
-2.1360733e-12
2.6833006e-09
-3.3016001e-12
2.6836054e-09
-4.5652712e-12
2.6841087e-09
-5.919948e-12
2.6847727e-09
-7.2670034e-12
2.6845983e-09
-8.2392043e-12
2.675342e-09
-7.9556012e-12
2.6077122e-09
-5.1858904e-12
2.2698175e-09
1.1148577e-09
3.631843e-12
1.1330954e-09
5.8801228e-12
2.3169436e-09
6.5170971e-12
2.6659307e-09
6.119675e-12
2.7365426e-09
5.2429164e-12
2.746476e-09
4.1983879e-12
2.746771e-09
3.1274003e-12
2.746099e-09
2.0722274e-12
2.74556e-09
1.043772e-12
2.745224e-09
2.8857401e-14
2.745064e-09
-9.875102e-13
2.7450655e-09
-2.0188169e-12
2.7452254e-09
-3.077945e-12
2.7455609e-09
-4.1586762e-12
2.7460999e-09
-5.2085179e-12
2.7467716e-09
-6.0923946e-12
2.7464704e-09
-6.4969052e-12
2.7365302e-09
-5.8679311e-12
2.6659118e-09
-3.6266438e-12
2.3169206e-09
1.1330823e-09
2.3104409e-12
1.134682e-09
3.9226799e-12
2.322136e-09
4.6154723e-12
2.673213e-09
4.5854365e-12
2.7447963e-09
4.1160617e-12
2.7551735e-09
3.4181281e-12
2.755671e-09
2.6120618e-12
2.7550815e-09
1.7614076e-12
2.7545697e-09
8.9882343e-13
2.7542408e-09
3.1097241e-14
2.7540801e-09
-8.3842942e-13
2.7540787e-09
-1.7055133e-12
2.7542392e-09
-2.5611648e-12
2.7545683e-09
-3.3780752e-12
2.7550783e-09
-4.0871158e-12
2.755667e-09
-4.5653448e-12
2.7551694e-09
-4.6034459e-12
2.7447882e-09
-3.9185589e-12
2.6732007e-09
-2.3104775e-12
2.3221234e-09
1.1346745e-09
1.4722981e-12
1.1342709e-09
2.5937912e-12
2.3218073e-09
3.1978022e-12
2.673404e-09
3.3257676e-12
2.7454817e-09
3.1047875e-12
2.7562076e-09
2.660114e-12
2.7569198e-09
2.0795747e-12
2.7564513e-09
1.4261312e-12
2.7560043e-09
7.3605576e-13
2.7557047e-09
2.9874249e-14
2.7555573e-09
-6.7599289e-13
2.7555555e-09
-1.3707923e-12
2.7557022e-09
-2.0306109e-12
2.7559998e-09
-2.6201944e-12
2.7564445e-09
-3.0760207e-12
2.7569128e-09
-3.3080404e-12
2.7562012e-09
-3.1899949e-12
2.7454775e-09
-2.5945205e-12
2.6733998e-09
-1.4765528e-12
2.3218036e-09
1.1342704e-09
9.6335931e-13
1.1338627e-09
1.7417469e-12
2.3211733e-09
2.2219837e-12
2.6729835e-09
2.3938667e-12
2.7453737e-09
2.3054254e-12
2.7563654e-09
2.0250397e-12
2.7572686e-09
1.613339e-12
2.7569256e-09
1.1217518e-12
2.756558e-09
5.8504106e-13
2.7563029e-09
2.781402e-14
2.7561732e-09
-5.289599e-13
2.7561713e-09
-1.0686932e-12
2.7562934e-09
-1.5663634e-12
2.7565451e-09
-1.9848218e-12
2.756911e-09
-2.2747079e-12
2.7572539e-09
-2.3750344e-12
2.7563548e-09
-2.2152875e-12
2.7453704e-09
-1.7443707e-12
2.6729853e-09
-9.6833616e-13
2.3211802e-09
1.1338672e-09
6.4842748e-13
1.1335868e-09
1.1935722e-12
2.3207129e-09
1.5590012e-12
2.6726369e-09
1.7231691e-12
2.7452319e-09
1.6986392e-12
2.7564166e-09
1.5212544e-12
2.7574725e-09
1.231778e-12
2.7572439e-09
8.6596494e-13
2.7569514e-09
4.548562e-13
2.7567428e-09
2.4510852e-14
2.7566375e-09
-4.0611156e-13
2.7566334e-09
-8.1596505e-13
2.7567322e-09
-1.1840511e-12
2.7569356e-09
-1.4788596e-12
2.7572259e-09
-1.6630828e-12
2.7574544e-09
-1.6970376e-12
2.7564e-09
-1.5457377e-12
2.7452214e-09
-1.189702e-12
2.6726327e-09
-6.5014876e-13
2.3207164e-09
1.1335917e-09
4.4781628e-13
1.1334063e-09
8.3300941e-13
2.3204006e-09
1.1054427e-12
2.6723899e-09
1.241643e-12
2.7451186e-09
1.2441783e-12
2.7564437e-09
1.1318635e-12
2.7576216e-09
9.2676131e-13
2.757487e-09
6.568932e-13
2.7572628e-09
3.4827679e-13
2.7570983e-09
1.9910326e-14
2.7570124e-09
-3.0712207e-13
2.7570103e-09
-6.1309777e-13
2.7570881e-09
-8.8251907e-13
2.7572453e-09
-1.0888466e-12
2.7574665e-09
-1.2058149e-12
2.7576028e-09
-1.2097033e-12
2.7564253e-09
-1.082005e-12
2.7451045e-09
-8.1807808e-13
2.672379e-09
-4.4147151e-13
2.3203948e-09
1.1334053e-09
3.1316416e-13
1.1332858e-09
5.8685601e-13
2.3201895e-09
7.8660807e-13
2.6722196e-09
8.9476373e-13
2.7450429e-09
9.0862743e-13
2.7564686e-09
8.3615332e-13
2.7577355e-09
6.9047838e-13
2.7576746e-09
4.9345219e-13
2.7575065e-09
2.6386738e-13
2.7573799e-09
1.715431e-14
2.7573133e-09
-2.2903204e-13
2.7573097e-09
-4.5673005e-13
2.7573706e-09
-6.5089873e-13
2.7574922e-09
-7.9354623e-13
2.7576559e-09
-8.6895733e-13
2.7577128e-09
-8.6000965e-13
2.7564416e-09
-7.584748e-13
2.7450155e-09
-5.6567201e-13
2.6721957e-09
-3.0143121e-13
2.320171e-09
1.1332774e-09
2.2070953e-13
1.1332029e-09
4.1652991e-13
2.320041e-09
5.6304468e-13
2.6720949e-09
6.4554897e-13
2.7449791e-09
6.6117212e-13
2.7564761e-09
6.1461067e-13
2.7578128e-09
5.132457e-13
2.7578091e-09
3.7027608e-13
2.7576858e-09
1.9987877e-13
2.7575902e-09
1.5448283e-14
2.7575385e-09
-1.6768303e-13
2.7575368e-09
-3.3677248e-13
2.7575826e-09
-4.7722686e-13
2.7576737e-09
-5.7720831e-13
2.7577944e-09
-6.2553983e-13
2.7577925e-09
-6.1218012e-13
2.7564503e-09
-5.3322667e-13
2.7449484e-09
-3.9281628e-13
2.6720624e-09
-2.0737567e-13
2.3200105e-09
1.1331869e-09
1.5602766e-13
1.1331371e-09
2.9671017e-13
2.3199196e-09
4.0391051e-13
2.6719867e-09
4.6653832e-13
2.7449142e-09
4.8102009e-13
2.7564627e-09
4.5000504e-13
2.7578482e-09
3.7903019e-13
2.7578883e-09
2.7620906e-13
2.7577997e-09
1.5022304e-13
2.7577284e-09
1.3638577e-14
2.7576898e-09
-1.2136073e-13
2.7576881e-09
-2.4543397e-13
2.7577236e-09
-3.4603851e-13
2.7577935e-09
-4.1882842e-13
2.7578767e-09
-4.5159562e-13
2.7578299e-09
-4.3874352e-13
2.7564371e-09
-3.7742781e-13
2.7448839e-09
-2.7519033e-13
2.6719517e-09
-1.4437939e-13
2.3198847e-09
1.1331175e-09
1.1047463e-13
1.1330764e-09
2.1180514e-13
2.3198042e-09
2.8926483e-13
2.6718755e-09
3.3745866e-13
2.7448323e-09
3.5019812e-13
2.7564169e-09
3.2868626e-13
2.7578389e-09
2.7774563e-13
2.7579125e-09
2.0424141e-13
2.7578512e-09
1.1170281e-13
2.7577986e-09
1.2237247e-14
2.7577705e-09
-8.6062513e-14
2.757771e-09
-1.7591675e-13
2.7577973e-09
-2.5081652e-13
2.7578479e-09
-3.032797e-13
2.7579058e-09
-3.2625927e-13
2.7578264e-09
-3.1543157e-13
2.7563984e-09
-2.7053361e-13
2.7448087e-09
-1.9532862e-13
2.6718479e-09
-1.0307508e-13
2.3197733e-09
1.133059e-09
7.8448983e-14
1.1330187e-09
1.5100313e-13
2.3196926e-09
2.0754307e-13
2.6717627e-09
2.4226029e-13
2.7447392e-09
2.5192087e-13
2.7563503e-09
2.3727275e-13
2.7578014e-09
2.0308662e-13
2.7579019e-09
1.5089929e-13
2.7578609e-09
8.5096436e-14
2.7578213e-09
1.2287599e-14
2.7578031e-09
-6.0310901e-14
2.7578018e-09
-1.2597434e-13
2.7578215e-09
-1.8079684e-13
2.7578582e-09
-2.188205e-13
2.7578944e-09
-2.3380625e-13
2.7577914e-09
-2.2691106e-13
2.7563374e-09
-1.9465924e-13
2.7447238e-09
-1.417944e-13
2.6717445e-09
-7.5480827e-14
2.3196726e-09
1.1330073e-09
5.5986121e-14
1.1329663e-09
1.077098e-13
2.3195882e-09
1.4780007e-13
2.6716526e-09
1.7226143e-13
2.7446429e-09
1.8062233e-13
2.7562748e-09
1.7189557e-13
2.7577469e-09
1.4800693e-13
2.7578666e-09
1.1098109e-13
2.7578424e-09
6.4954348e-14
2.7578161e-09
1.2028978e-14
2.757801e-09
-4.1111675e-14
2.7577996e-09
-9.0094341e-14
2.7578122e-09
-1.291667e-13
2.7578391e-09
-1.557119e-13
2.7578634e-09
-1.6608629e-13
2.7577416e-09
-1.6139945e-13
2.7562686e-09
-1.398733e-13
2.7446371e-09
-1.0320986e-13
2.6716452e-09
-5.5721773e-14
2.3195791e-09
1.1329605e-09
3.9264637e-14
1.132924e-09
7.5654331e-14
2.3195024e-09
1.0538709e-13
2.671558e-09
1.2458906e-13
2.7445574e-09
1.3103961e-13
2.7562027e-09
1.2604149e-13
2.7576914e-09
1.0876763e-13
2.7578261e-09
8.1570383e-14
2.7578131e-09
4.7744043e-14
2.7577927e-09
9.8622079e-15
2.7577808e-09
-2.7585985e-14
2.757779e-09
-6.2232002e-14
2.7577879e-09
-8.9506667e-14
2.7578086e-09
-1.0816931e-13
2.757823e-09
-1.154045e-13
2.7576892e-09
-1.1174691e-13
2.7562035e-09
-9.862169e-14
2.744557e-09
-7.4752795e-14
2.6715551e-09
-4.0822079e-14
2.319496e-09
1.1329201e-09
2.5704684e-14
1.1328906e-09
5.0923195e-14
2.3194352e-09
7.4256296e-14
2.6714872e-09
9.0485516e-14
2.7444908e-09
9.7598943e-14
2.7561477e-09
9.4361584e-14
2.7576438e-09
8.2340981e-14
2.7577873e-09
6.0614189e-14
2.7577814e-09
3.456862e-14
2.7577667e-09
7.0046442e-15
2.7577572e-09
-1.9170674e-14
2.7577578e-09
-4.2116742e-14
2.7577639e-09
-6.0501737e-14
2.7577786e-09
-7.3316937e-14
2.7577861e-09
-7.8314127e-14
2.7576461e-09
-7.6609977e-14
2.7561485e-09
-6.8905565e-14
2.7444918e-09
-5.249363e-14
2.6714851e-09
-2.8233688e-14
2.3194312e-09
1.1328876e-09
1.5425085e-14
1.1328671e-09
3.2100456e-14
2.3193875e-09
4.9906104e-14
2.6714377e-09
6.4641154e-14
2.7444474e-09
7.0682328e-14
2.7561074e-09
6.9553474e-14
2.7576106e-09
6.1525607e-14
2.7577607e-09
4.5297371e-14
2.7577608e-09
2.5660132e-14
2.7577506e-09
6.0204828e-15
2.7577438e-09
-1.2289248e-14
2.7577429e-09
-2.7048607e-14
2.7577498e-09
-3.8595132e-14
2.7577608e-09
-4.6111511e-14
2.7577619e-09
-5.0623105e-14
2.7576128e-09
-5.0895469e-14
2.7561076e-09
-4.6625481e-14
2.7444439e-09
-3.5525588e-14
2.6714336e-09
-1.895262e-14
2.3193846e-09
1.1328647e-09
9.1005606e-15
1.132853e-09
1.9574957e-14
2.3193593e-09
3.2186597e-14
2.6714066e-09
4.3765106e-14
2.7444189e-09
4.9508719e-14
2.7560847e-09
5.0241335e-14
2.7575945e-09
4.5850046e-14
2.7577508e-09
3.4401303e-14
2.7577544e-09
2.0306133e-14
2.7577477e-09
6.3625959e-15
2.7577409e-09
-6.1225641e-15
2.757741e-09
-1.5615646e-14
2.7577464e-09
-2.2374343e-14
2.7577526e-09
-2.7796492e-14
2.7577476e-09
-3.2203878e-14
2.7575922e-09
-3.3547781e-14
2.7560809e-09
-3.059886e-14
2.7444145e-09
-2.2989336e-14
2.6714014e-09
-1.187449e-14
2.3193541e-09
1.1328504e-09
5.0402162e-15
1.1328469e-09
1.1008031e-14
2.3193451e-09
1.9327063e-14
2.6713927e-09
2.868993e-14
2.74441e-09
3.5314626e-14
2.7560793e-09
3.7174823e-14
2.7575922e-09
3.4510667e-14
2.7577514e-09
2.6632816e-14
2.7577586e-09
1.597577e-14
2.7577534e-09
6.0565029e-15
2.7577494e-09
-1.7845144e-15
2.7577478e-09
-7.4883069e-15
2.7577491e-09
-1.1714234e-14
2.7577525e-09
-1.5690214e-14
2.7577437e-09
-1.8998629e-14
2.7575846e-09
-1.9895792e-14
2.7560681e-09
-1.8411737e-14
2.7443988e-09
-1.3488798e-14
2.6713831e-09
-6.6981892e-15
2.3193382e-09
1.1328423e-09
2.6748898e-15
1.1328445e-09
6.1245968e-15
2.3193399e-09
1.110114e-14
2.6713881e-09
1.7239667e-14
2.7444085e-09
2.3243942e-14
2.7560829e-09
2.6215804e-14
2.7575985e-09
2.5364176e-14
2.7577581e-09
1.9919738e-14
2.7577673e-09
1.2405996e-14
2.7577643e-09
4.9385689e-15
2.7577606e-09
7.0680739e-17
2.7577584e-09
-2.3877187e-15
2.7577585e-09
-4.9493129e-15
2.7577603e-09
-8.2821419e-15
2.7577474e-09
-1.0344294e-14
2.7575844e-09
-1.0379352e-14
2.7560664e-09
-9.2322025e-15
2.7443926e-09
-6.3862226e-15
2.6713763e-09
-2.8072975e-15
2.3193311e-09
1.1328396e-09
1.3200632e-15
1.1328435e-09
3.0704884e-15
2.3193378e-09
5.8435044e-15
2.6713867e-09
9.4357497e-15
2.744408e-09
1.3670879e-14
2.7560851e-09
1.7010758e-14
2.7576033e-09
1.7958657e-14
2.7577658e-09
1.506577e-14
2.757778e-09
9.8244143e-15
2.7577764e-09
3.9476831e-15
2.7577745e-09
8.7761091e-16
2.7577735e-09
4.1509007e-16
2.7577734e-09
-1.1654722e-15
2.7577709e-09
-3.7063188e-15
2.7577563e-09
-4.8699108e-15
2.7575918e-09
-4.2016028e-15
2.7560712e-09
-3.0932607e-15
2.7443942e-09
-1.9141869e-15
2.6713753e-09
-7.8642667e-16
2.3193282e-09
1.1328378e-09
4.3807357e-16
1.132842e-09
1.2107058e-15
2.319333e-09
3.2442913e-15
2.67138e-09
6.1447434e-15
2.7444039e-09
8.6979473e-15
2.7560822e-09
1.1420116e-14
2.7576032e-09
1.352033e-14
2.7577699e-09
1.2633254e-14
2.7577845e-09
8.8113317e-15
2.7577863e-09
3.5788835e-15
2.7577852e-09
5.7153898e-16
2.7577853e-09
9.0900628e-17
2.7577847e-09
-8.3910887e-16
2.7577832e-09
-1.9440948e-15
2.7577663e-09
-1.7434083e-15
2.7575985e-09
-3.5634637e-16
2.7560749e-09
6.3147123e-16
2.7443966e-09
-2.0026562e-17
2.6713729e-09
-7.280187e-16
2.3193246e-09
1.1328365e-09
3.9863572e-16
1.1328392e-09
1.5102379e-15
2.3193256e-09
3.5493892e-15
2.6713715e-09
5.7558255e-15
2.7443932e-09
7.0827197e-15
2.7560731e-09
8.9883991e-15
2.7575983e-09
1.1192361e-14
2.7577653e-09
1.1133149e-14
2.7577826e-09
7.8021815e-15
2.7577842e-09
3.5255727e-15
2.7577864e-09
7.9773304e-16
2.7577874e-09
-3.3696967e-16
2.7577901e-09
-1.4359038e-15
2.7577882e-09
-1.4129302e-15
2.7577709e-09
9.2811537e-18
2.7576008e-09
1.5058705e-15
2.756075e-09
1.5749036e-15
2.7443921e-09
-1.5667746e-16
2.671366e-09
-1.2589095e-15
2.3193171e-09
1.1328338e-09
-2.1771729e-16
1.1328333e-09
9.1819666e-16
2.3193132e-09
3.1272646e-15
2.6713554e-09
5.7954696e-15
2.7443786e-09
7.7753559e-15
2.7560607e-09
9.485523e-15
2.7575849e-09
1.1177205e-14
2.7577546e-09
1.0419986e-14
2.7577724e-09
7.6827123e-15
2.7577757e-09
4.4823969e-15
2.7577783e-09
2.18851e-15
2.7577819e-09
-1.0421461e-16
2.7577847e-09
-2.5765649e-15
2.7577852e-09
-2.8915496e-15
2.7577694e-09
-1.4274633e-15
2.7575993e-09
-4.0853778e-16
2.7560696e-09
-4.5818834e-16
2.744384e-09
-1.145214e-15
2.6713549e-09
-1.3959561e-15
2.3193087e-09
1.1328305e-09
4.5621861e-16
1.1328236e-09
1.5324501e-15
2.3192919e-09
3.9008761e-15
2.6713326e-09
7.0606877e-15
2.7443566e-09
9.4063985e-15
2.7560393e-09
1.136236e-14
2.7575671e-09
1.2570254e-14
2.7577398e-09
1.1502786e-14
2.7577592e-09
8.7852349e-15
2.7577635e-09
5.9626606e-15
2.7577668e-09
4.4039698e-15
2.7577698e-09
2.2255275e-15
2.7577736e-09
-1.4630226e-15
2.7577742e-09
-3.8998997e-15
2.7577602e-09
-5.1200994e-15
2.7575909e-09
-5.7282529e-15
2.7560601e-09
-4.7316193e-15
2.7443728e-09
-2.5705386e-15
2.6713465e-09
-1.0878809e-15
2.3193012e-09
1.1328266e-09
1.3215436e-15
1.1328114e-09
3.1986857e-15
2.3192647e-09
6.7666058e-15
2.6713023e-09
1.0946096e-14
2.7443272e-09
1.3471481e-14
2.7560134e-09
1.4982901e-14
2.757545e-09
1.583109e-14
2.7577208e-09
1.456596e-14
2.7577411e-09
1.161226e-14
2.7577461e-09
8.8911499e-15
2.75775e-09
8.0840743e-15
2.7577536e-09
6.2801744e-15
2.7577573e-09
1.1865122e-15
2.7577572e-09
-4.7743362e-15
2.757746e-09
-1.0024426e-14
2.7575778e-09
-1.2422666e-14
2.7560501e-09
-9.7556749e-15
2.7443662e-09
-5.2666993e-15
2.6713398e-09
-2.1099739e-15
2.3192955e-09
1.1328242e-09
2.606024e-15
1.1327975e-09
6.6079354e-15
2.319235e-09
1.1995737e-14
2.6712688e-09
1.6807362e-14
2.7442977e-09
1.9132665e-14
2.7559857e-09
2.0263152e-14
2.7575195e-09
2.0356077e-14
2.7576985e-09
1.8704577e-14
2.7577224e-09
1.6077303e-14
2.7577284e-09
1.3463934e-14
2.7577313e-09
1.2116299e-14
2.7577356e-09
9.2402698e-15
2.7577382e-09
2.9624871e-15
2.7577417e-09
-5.91971e-15
2.7577303e-09
-1.3972397e-14
2.7575633e-09
-1.7207623e-14
2.7560382e-09
-1.4512144e-14
2.7443577e-09
-9.6469893e-15
2.671335e-09
-4.6586639e-15
2.3192925e-09
1.1328235e-09
5.3165331e-15
1.1327821e-09
1.2603312e-14
2.3192034e-09
2.0244394e-14
2.6712343e-09
2.4909313e-14
2.7442629e-09
2.7698948e-14
2.7559556e-09
2.9024713e-14
2.7574967e-09
2.7804481e-14
2.7576784e-09
2.4138155e-14
2.7577042e-09
2.0220892e-14
2.7577132e-09
1.7570313e-14
2.757718e-09
1.5253176e-14
2.7577222e-09
1.1830201e-14
2.7577272e-09
4.5792343e-15
2.7577299e-09
-5.4148956e-15
2.7577184e-09
-1.358477e-14
2.7575519e-09
-1.6107532e-14
2.7560295e-09
-1.4287582e-14
2.7443514e-09
-1.0964648e-14
2.6713279e-09
-5.9401468e-15
2.3192891e-09
1.1328222e-09
8.7166638e-15
1.1327665e-09
1.9194717e-14
2.3191705e-09
2.9640043e-14
2.6711964e-09
3.6760523e-14
2.7442289e-09
4.1403062e-14
2.7559276e-09
4.1332874e-14
2.7574728e-09
3.7755675e-14
2.7576603e-09
3.1452058e-14
2.7576903e-09
2.5533934e-14
2.7577038e-09
2.15634e-14
2.7577135e-09
1.8568451e-14
2.7577206e-09
1.4730165e-14
2.7577238e-09
7.1700237e-15
2.7577258e-09
-2.3379238e-15
2.7577127e-09
-9.9042929e-15
2.7575465e-09
-1.3044643e-14
2.7560242e-09
-1.3054879e-14
2.7443451e-09
-1.0532492e-14
2.6713232e-09
-5.937441e-15
2.3192843e-09
1.1328204e-09
1.3587443e-14
1.1327488e-09
2.851906e-14
2.3191332e-09
4.3827031e-14
2.6711575e-09
5.4676221e-14
2.7441964e-09
6.0680788e-14
2.7559034e-09
5.941675e-14
2.7574555e-09
5.2694973e-14
2.7576474e-09
4.4031967e-14
2.757682e-09
3.4893422e-14
2.7576997e-09
2.7763874e-14
2.7577118e-09
2.2098543e-14
2.7577189e-09
1.6509008e-14
2.7577217e-09
8.7082609e-15
2.7577217e-09
-4.8940244e-16
2.7577081e-09
-7.8221506e-15
2.7575446e-09
-1.1901217e-14
2.7560202e-09
-1.2919774e-14
2.7443426e-09
-1.1041704e-14
2.6713206e-09
-6.3077452e-15
2.3192819e-09
1.1328188e-09
2.1454033e-14
1.1327296e-09
4.4362578e-14
2.3190945e-09
6.6666223e-14
2.6711175e-09
8.1009822e-14
2.7441628e-09
8.6591616e-14
2.7558832e-09
8.235429e-14
2.7574449e-09
7.2815236e-14
2.7576437e-09
6.0930027e-14
2.7576823e-09
4.873487e-14
2.7577007e-09
3.6885633e-14
2.7577136e-09
2.7590898e-14
2.7577206e-09
1.8798995e-14
2.7577215e-09
1.0434703e-14
2.7577207e-09
2.0147571e-15
2.7577063e-09
-5.2717081e-15
2.7575398e-09
-9.7738008e-15
2.7560187e-09
-1.2236328e-14
2.7443404e-09
-1.1676699e-14
2.6713191e-09
-7.3740507e-15
2.3192816e-09
1.1328189e-09
3.2544063e-14
1.1327103e-09
6.6807935e-14
2.3190542e-09
9.8254881e-14
2.6710761e-09
1.1923374e-13
2.744134e-09
1.2253146e-13
2.7558704e-09
1.1305e-13
2.7574475e-09
9.7416673e-14
2.7576536e-09
7.9642543e-14
2.7576925e-09
6.208221e-14
2.7577101e-09
4.5467147e-14
2.7577199e-09
3.200997e-14
2.7577249e-09
2.0790569e-14
2.7577244e-09
1.2174672e-14
2.7577201e-09
4.3820578e-15
2.7577039e-09
-2.358196e-15
2.7575388e-09
-7.553605e-15
2.7560177e-09
-1.1244015e-14
2.7443375e-09
-1.1405405e-14
2.6713161e-09
-7.3691094e-15
2.3192775e-09
1.1328165e-09
4.6422598e-14
1.1326846e-09
9.5431457e-14
2.3190007e-09
1.4134613e-13
2.6710217e-09
1.6926901e-13
2.7440983e-09
1.6921483e-13
2.7558644e-09
1.4981596e-13
2.7574614e-09
1.2325387e-13
2.7576725e-09
9.7601212e-14
2.7577102e-09
7.2897417e-14
2.7577219e-09
5.1463915e-14
2.7577259e-09
3.3724013e-14
2.757726e-09
2.1214036e-14
2.7577231e-09
1.285125e-14
2.7577194e-09
5.612735e-15
2.7577015e-09
-1.3697794e-15
2.7575328e-09
-7.7820651e-15
2.7560091e-09
-1.2400865e-14
2.7443287e-09
-1.2848665e-14
2.6713048e-09
-8.2890356e-15
2.3192641e-09
1.1328073e-09
6.2677704e-14
1.1326415e-09
1.3255744e-13
2.3189207e-09
2.007708e-13
2.6709426e-09
2.3869524e-13
2.7440475e-09
2.3101148e-13
2.7558655e-09
1.9217044e-13
2.7574895e-09
1.4876287e-13
2.7577021e-09
1.100274e-13
2.7577282e-09
7.7441156e-14
2.7577257e-09
5.1133611e-14
2.7577209e-09
3.1622348e-14
2.7577167e-09
1.8710314e-14
2.7577123e-09
1.0787916e-14
2.7577081e-09
4.319816e-15
2.7576877e-09
-2.1546431e-15
2.757517e-09
-9.3627541e-15
2.7559919e-09
-1.5987883e-14
2.7443081e-09
-1.826414e-14
2.6712788e-09
-1.2832884e-14
2.3192276e-09
1.1327794e-09
7.5164376e-14
1.1325249e-09
1.6795952e-13
2.3187521e-09
2.6357759e-13
2.6708045e-09
3.1902211e-13
2.7439774e-09
2.9921674e-13
2.7558784e-09
2.3473207e-13
2.7575568e-09
1.6543339e-13
2.7577645e-09
1.1234323e-13
2.7577675e-09
7.4611277e-14
2.7577416e-09
4.6802163e-14
2.7577234e-09
2.7535536e-14
2.7577136e-09
1.5449832e-14
2.7577105e-09
7.9447051e-15
2.7577109e-09
2.3857772e-15
2.7576835e-09
-3.8422707e-15
2.7575069e-09
-1.2869828e-14
2.7559796e-09
-2.3310381e-14
2.7442938e-09
-3.0454243e-14
2.6712402e-09
-2.4142516e-14
2.3191356e-09
1.1326865e-09
7.487291e-14
1.1323115e-09
1.7765011e-13
2.3184097e-09
2.9166289e-13
2.6705809e-09
3.5433385e-13
2.743886e-09
3.3285877e-13
2.7559041e-09
2.4866785e-13
2.7576511e-09
1.6360373e-13
2.7578672e-09
1.0287536e-13
2.7578439e-09
6.5314885e-14
2.757794e-09
4.0578545e-14
2.7577598e-09
2.4482374e-14
2.7577419e-09
1.4222924e-14
2.7577421e-09
6.7909065e-15
2.7577393e-09
1.205662e-15
2.7577132e-09
-4.6425267e-15
2.7575304e-09
-1.4930159e-14
2.7559983e-09
-3.0396027e-14
2.7442917e-09
-4.4983789e-14
2.6711598e-09
-3.9107691e-14
2.3189178e-09
1.1325039e-09
6.3120612e-14
1.5579476e-13
2.6168974e-13
3.1970413e-13
3.0560953e-13
2.2490258e-13
1.4124878e-13
8.4863545e-14
5.1811162e-14
3.1677551e-14
2.0304739e-14
1.3099991e-14
6.6596936e-15
1.238617e-15
-3.7197667e-15
-1.3022706e-14
-2.9246298e-14
-4.6645576e-14
-4.2396015e-14
)
;

boundaryField
{
    Wall
    {
        type            calculated;
        value           uniform 0;
    }
    frontAndBack
    {
        type            empty;
        value           nonuniform 0();
    }
    atmosphere
    {
        type            calculated;
        value           nonuniform List<scalar> 
20
(
1.1321635e-09
2.318225e-09
2.6704371e-09
2.7438246e-09
2.7559081e-09
2.7577724e-09
2.7579767e-09
2.7579332e-09
2.7578255e-09
2.7577773e-09
2.7577713e-09
2.7577561e-09
2.7578117e-09
2.7577394e-09
2.7575435e-09
2.7560029e-09
2.7442971e-09
2.6711383e-09
2.3188167e-09
1.1324341e-09
)
;
    }
}


// ************************************************************************* //
