/*--------------------------------*- C++ -*----------------------------------*\
| =========                 |                                                 |
| \\      /  F ield         | OpenFOAM: The Open Source CFD Toolbox           |
|  \\    /   O peration     | Version:  3.0.1                                 |
|   \\  /    A nd           | Web:      www.OpenFOAM.org                      |
|    \\/     M anipulation  |                                                 |
\*---------------------------------------------------------------------------*/
FoamFile
{
    version     2.0;
    format      ascii;
    class       volVectorField;
    location    "2";
    object      U;
}
// * * * * * * * * * * * * * * * * * * * * * * * * * * * * * * * * * * * * * //

dimensions      [0 1 -1 0 0 0 0];

internalField   nonuniform List<vector> 
800
(
(-3.0898616e-09 1.3745163e-05 0)
(-3.8236388e-09 1.3768687e-05 0)
(-1.4277758e-09 1.3771004e-05 0)
(-3.6902306e-10 1.3771603e-05 0)
(-1.2310563e-11 1.3771812e-05 0)
(8.689222e-11 1.3771886e-05 0)
(9.6260864e-11 1.3771911e-05 0)
(7.6057326e-11 1.3771919e-05 0)
(4.7111637e-11 1.3771921e-05 0)
(1.6065246e-11 1.3771922e-05 0)
(-1.5003665e-11 1.3771922e-05 0)
(-4.5700491e-11 1.3771921e-05 0)
(-7.4626548e-11 1.3771919e-05 0)
(-9.4813721e-11 1.3771911e-05 0)
(-8.5402749e-11 1.3771886e-05 0)
(1.3764682e-11 1.3771812e-05 0)
(3.7051848e-10 1.3771603e-05 0)
(1.4288279e-09 1.3771004e-05 0)
(3.8239814e-09 1.3768687e-05 0)
(3.0898954e-09 1.3745163e-05 0)
(2.3869358e-09 1.3954057e-05 0)
(2.7522659e-09 1.3998412e-05 0)
(1.0168141e-09 1.4002646e-05 0)
(6.4669805e-10 1.4003384e-05 0)
(4.6775159e-10 1.4003585e-05 0)
(3.4256555e-10 1.4003645e-05 0)
(2.461028e-10 1.4003662e-05 0)
(1.663871e-10 1.4003665e-05 0)
(9.6662826e-11 1.4003665e-05 0)
(3.2128639e-11 1.4003664e-05 0)
(-3.0689036e-11 1.4003664e-05 0)
(-9.50677e-11 1.4003665e-05 0)
(-1.6484025e-10 1.4003665e-05 0)
(-2.444008e-10 1.4003662e-05 0)
(-3.4108453e-10 1.4003645e-05 0)
(-4.6607549e-10 1.4003584e-05 0)
(-6.4480077e-10 1.4003384e-05 0)
(-1.0151471e-09 1.4002645e-05 0)
(-2.7505584e-09 1.3998411e-05 0)
(-2.3858322e-09 1.3954056e-05 0)
(3.5751167e-09 1.3646617e-05 0)
(5.5626608e-09 1.4420653e-05 0)
(3.9773518e-09 1.4505829e-05 0)
(3.1525213e-09 1.4519292e-05 0)
(2.4403879e-09 1.452087e-05 0)
(1.8414818e-09 1.4520852e-05 0)
(1.3434705e-09 1.4520719e-05 0)
(9.1690263e-10 1.4520624e-05 0)
(5.3655352e-10 1.4520567e-05 0)
(1.8113247e-10 1.4520542e-05 0)
(-1.6679859e-10 1.4520543e-05 0)
(-5.2243912e-10 1.4520568e-05 0)
(-9.0317355e-10 1.4520625e-05 0)
(-1.3302915e-09 1.452072e-05 0)
(-1.8298752e-09 1.4520852e-05 0)
(-2.4296264e-09 1.4520867e-05 0)
(-3.142465e-09 1.4519288e-05 0)
(-3.9692471e-09 1.4505824e-05 0)
(-5.556704e-09 1.4420646e-05 0)
(-3.5723419e-09 1.3646613e-05 0)
(6.1314771e-08 1.8916293e-05 0)
(1.4207771e-07 3.6407988e-05 0)
(1.5535433e-07 4.1299383e-05 0)
(1.3548748e-07 4.2250297e-05 0)
(1.0824875e-07 4.2376935e-05 0)
(8.2859043e-08 4.237964e-05 0)
(6.0886946e-08 4.2371749e-05 0)
(4.1727282e-08 4.2366082e-05 0)
(2.4481765e-08 4.2362815e-05 0)
(8.2948753e-09 4.2361372e-05 0)
(-7.5760907e-09 4.2361392e-05 0)
(-2.3780901e-08 4.2362862e-05 0)
(-4.1048028e-08 4.236613e-05 0)
(-6.0250825e-08 4.2371783e-05 0)
(-8.2294972e-08 4.2379619e-05 0)
(-1.0774487e-07 4.2376818e-05 0)
(-1.3504073e-07 4.2250092e-05 0)
(-1.5500178e-07 4.1299102e-05 0)
(-1.4184682e-07 3.6407662e-05 0)
(-6.1226344e-08 1.8916103e-05 0)
(6.0375098e-08 2.1967189e-05 0)
(1.4645187e-07 4.4551507e-05 0)
(1.712428e-07 5.1120889e-05 0)
(1.5881231e-07 5.2427049e-05 0)
(1.3307053e-07 5.2603568e-05 0)
(1.0530093e-07 5.2606303e-05 0)
(7.908066e-08 5.2593698e-05 0)
(5.4953936e-08 5.2584419e-05 0)
(3.2517396e-08 5.2578937e-05 0)
(1.1083198e-08 5.2576432e-05 0)
(-1.0051393e-08 5.2576459e-05 0)
(-3.1508611e-08 5.2578981e-05 0)
(-5.3984732e-08 5.2584477e-05 0)
(-7.8197352e-08 5.2593739e-05 0)
(-1.0452896e-07 5.2606266e-05 0)
(-1.3239502e-07 5.260339e-05 0)
(-1.5823159e-07 5.2426743e-05 0)
(-1.707935e-07 5.1120456e-05 0)
(-1.4617442e-07 4.4551003e-05 0)
(-6.0276333e-08 2.1966892e-05 0)
(4.0846711e-08 2.2626068e-05 0)
(1.0393625e-07 4.623339e-05 0)
(1.305033e-07 5.3178467e-05 0)
(1.2964365e-07 5.4577306e-05 0)
(1.1487457e-07 5.4771051e-05 0)
(9.4740833e-08 5.4775228e-05 0)
(7.3231218e-08 5.4761281e-05 0)
(5.1867324e-08 5.4750484e-05 0)
(3.1058658e-08 5.4743888e-05 0)
(1.0698879e-08 5.4740781e-05 0)
(-9.5402673e-09 5.4740808e-05 0)
(-2.9955776e-08 5.4743923e-05 0)
(-5.0830453e-08 5.4750537e-05 0)
(-7.2326382e-08 5.476133e-05 0)
(-9.3996368e-08 5.477523e-05 0)
(-1.1426391e-07 5.4770916e-05 0)
(-1.2916206e-07 5.4577016e-05 0)
(-1.3017679e-07 5.3178021e-05 0)
(-1.0377443e-07 4.6232868e-05 0)
(-4.0800138e-08 2.2625762e-05 0)
(2.5228402e-08 2.2697328e-05 0)
(6.6936917e-08 4.6442388e-05 0)
(8.9524872e-08 5.3456083e-05 0)
(9.4692229e-08 5.4881498e-05 0)
(8.8467293e-08 5.5085115e-05 0)
(7.6044108e-08 5.5092859e-05 0)
(6.0599814e-08 5.5079966e-05 0)
(4.3837538e-08 5.5069239e-05 0)
(2.6630182e-08 5.5062444e-05 0)
(9.3100254e-09 5.5059166e-05 0)
(-8.0661357e-09 5.5059166e-05 0)
(-2.545375e-08 5.5062445e-05 0)
(-4.2756293e-08 5.5069244e-05 0)
(-5.9684928e-08 5.5079956e-05 0)
(-7.5352478e-08 5.5092842e-05 0)
(-8.7980047e-08 5.5085032e-05 0)
(-9.4371829e-08 5.4881298e-05 0)
(-8.936954e-08 5.3455756e-05 0)
(-6.692148e-08 4.6442012e-05 0)
(-2.5244445e-08 2.269711e-05 0)
(1.5719745e-08 2.2690421e-05 0)
(4.3044808e-08 4.6443486e-05 0)
(6.0434258e-08 5.3472466e-05 0)
(6.720515e-08 5.4910173e-05 0)
(6.5614104e-08 5.5121597e-05 0)
(5.8445885e-08 5.5133746e-05 0)
(4.7850166e-08 5.5123092e-05 0)
(3.5288555e-08 5.5113402e-05 0)
(2.1729381e-08 5.5107031e-05 0)
(7.691887e-09 5.51039e-05 0)
(-6.4920632e-09 5.5103877e-05 0)
(-2.0564564e-08 5.5106992e-05 0)
(-3.4231758e-08 5.5113348e-05 0)
(-4.6952219e-08 5.5122995e-05 0)
(-5.7754381e-08 5.5133642e-05 0)
(-6.5147803e-08 5.5121502e-05 0)
(-6.6952837e-08 5.4910063e-05 0)
(-6.0379191e-08 5.3472312e-05 0)
(-4.3133262e-08 4.6443333e-05 0)
(-1.5789158e-08 2.2690342e-05 0)
(1.0128488e-08 2.2680704e-05 0)
(2.8334312e-08 4.642912e-05 0)
(4.117075e-08 5.3463807e-05 0)
(4.7538858e-08 5.4909088e-05 0)
(4.8050338e-08 5.5126623e-05 0)
(4.4045287e-08 5.5142926e-05 0)
(3.6864616e-08 5.5134848e-05 0)
(2.7626347e-08 5.5126677e-05 0)
(1.7209447e-08 5.5121101e-05 0)
(6.1717364e-09 5.511831e-05 0)
(-5.0543325e-09 5.5118269e-05 0)
(-1.6108375e-08 5.512098e-05 0)
(-2.6615154e-08 5.5126507e-05 0)
(-3.5979221e-08 5.5134639e-05 0)
(-4.3323316e-08 5.5142711e-05 0)
(-4.754618e-08 5.512646e-05 0)
(-4.7286754e-08 5.4909028e-05 0)
(-4.1149383e-08 5.3463814e-05 0)
(-2.8453057e-08 4.6429189e-05 0)
(-1.0209784e-08 2.2680762e-05 0)
(6.7505829e-09 2.2673994e-05 0)
(1.91488e-08 4.6418084e-05 0)
(2.848354e-08 5.3455696e-05 0)
(3.3776746e-08 5.4905927e-05 0)
(3.502121e-08 5.512798e-05 0)
(3.2821064e-08 5.5147745e-05 0)
(2.7970973e-08 5.5142108e-05 0)
(2.1244151e-08 5.5135536e-05 0)
(1.3354754e-08 5.5130902e-05 0)
(4.841313e-09 5.5128547e-05 0)
(-3.8635978e-09 5.5128482e-05 0)
(-1.2358055e-08 5.5130691e-05 0)
(-2.0258957e-08 5.5135231e-05 0)
(-2.7053912e-08 5.5141764e-05 0)
(-3.2024117e-08 5.5147407e-05 0)
(-3.4393517e-08 5.5127707e-05 0)
(-3.3379365e-08 5.4905807e-05 0)
(-2.8323291e-08 5.3455706e-05 0)
(-1.9163813e-08 4.6418222e-05 0)
(-6.7945714e-09 2.2674111e-05 0)
(4.6326259e-09 2.26696e-05 0)
(1.3252651e-08 4.6410582e-05 0)
(2.0005234e-08 5.3449851e-05 0)
(2.4125078e-08 5.4903329e-05 0)
(2.545266e-08 5.5128633e-05 0)
(2.4254367e-08 5.5151125e-05 0)
(2.0954308e-08 5.5147582e-05 0)
(1.6073013e-08 5.5142466e-05 0)
(1.0181917e-08 5.5138762e-05 0)
(3.7213704e-09 5.5136859e-05 0)
(-2.9221112e-09 5.5136794e-05 0)
(-9.3383311e-09 5.5138546e-05 0)
(-1.51893e-08 5.5142129e-05 0)
(-2.0065411e-08 5.514719e-05 0)
(-2.3423338e-08 5.5150749e-05 0)
(-2.4737997e-08 5.5128293e-05 0)
(-2.3569111e-08 5.4903098e-05 0)
(-1.9620052e-08 5.3449723e-05 0)
(-1.3048825e-08 4.6410584e-05 0)
(-4.5816603e-09 2.2669654e-05 0)
(3.2280693e-09 2.2666713e-05 0)
(9.2840587e-09 4.6405549e-05 0)
(1.4145817e-08 5.3445821e-05 0)
(1.7264903e-08 5.4901496e-05 0)
(1.8467329e-08 5.5129154e-05 0)
(1.7829067e-08 5.5153722e-05 0)
(1.556148e-08 5.5151855e-05 0)
(1.2034821e-08 5.5147985e-05 0)
(7.6869675e-09 5.5145107e-05 0)
(2.8475377e-09 5.5143598e-05 0)
(-2.1613653e-09 5.5143539e-05 0)
(-6.9764414e-09 5.5144906e-05 0)
(-1.1272924e-08 5.5147659e-05 0)
(-1.4725908e-08 5.5151459e-05 0)
(-1.6985572e-08 5.5153302e-05 0)
(-1.7710003e-08 5.51287e-05 0)
(-1.6635423e-08 5.4901079e-05 0)
(-1.3642734e-08 5.3445474e-05 0)
(-8.9423022e-09 4.6405311e-05 0)
(-3.1093224e-09 2.2666627e-05 0)
(2.2697866e-09 2.2664776e-05 0)
(6.5605867e-09 4.6402117e-05 0)
(1.0073211e-08 5.3443013e-05 0)
(1.240252e-08 5.4900193e-05 0)
(1.3381599e-08 5.5129534e-05 0)
(1.3038443e-08 5.5155661e-05 0)
(1.1504816e-08 5.5155087e-05 0)
(8.996196e-09 5.5152224e-05 0)
(5.7983909e-09 5.5150031e-05 0)
(2.1814321e-09 5.514886e-05 0)
(-1.5609442e-09 5.5148807e-05 0)
(-5.1494471e-09 5.5149854e-05 0)
(-8.3000516e-09 5.5151948e-05 0)
(-1.0758597e-08 5.5154737e-05 0)
(-1.2294621e-08 5.5155218e-05 0)
(-1.2682956e-08 5.5128984e-05 0)
(-1.1766341e-08 5.489959e-05 0)
(-9.5188586e-09 5.3442425e-05 0)
(-6.1676552e-09 4.640161e-05 0)
(-2.1303977e-09 2.2664522e-05 0)
(1.5996568e-09 2.2663356e-05 0)
(4.6497669e-09 4.6399535e-05 0)
(7.1964684e-09 5.3440788e-05 0)
(8.9281564e-09 5.4898984e-05 0)
(9.7019323e-09 5.5129515e-05 0)
(9.514241e-09 5.5156805e-05 0)
(8.4595012e-09 5.5157222e-05 0)
(6.6829774e-09 5.5155146e-05 0)
(4.3441243e-09 5.5153502e-05 0)
(1.6565388e-09 5.5152615e-05 0)
(-1.1109957e-09 5.5152579e-05 0)
(-3.7494771e-09 5.5153383e-05 0)
(-6.0410649e-09 5.5154969e-05 0)
(-7.8144938e-09 5.5156966e-05 0)
(-8.9036532e-09 5.5156417e-05 0)
(-9.1290082e-09 5.512899e-05 0)
(-8.3836698e-09 5.4898348e-05 0)
(-6.6926812e-09 5.3440084e-05 0)
(-4.2982803e-09 4.6398846e-05 0)
(-1.4833617e-09 2.2662978e-05 0)
(1.1274298e-09 2.2662119e-05 0)
(3.3012584e-09 4.6397222e-05 0)
(5.1472562e-09 5.3438643e-05 0)
(6.4291125e-09 5.4897536e-05 0)
(7.0434193e-09 5.5128915e-05 0)
(6.9403208e-09 5.5157044e-05 0)
(6.1891759e-09 5.515822e-05 0)
(4.9221413e-09 5.5156754e-05 0)
(3.2235995e-09 5.5155533e-05 0)
(1.252885e-09 5.5154882e-05 0)
(-7.6237991e-10 5.515487e-05 0)
(-2.6775285e-09 5.5155485e-05 0)
(-4.3575818e-09 5.5156667e-05 0)
(-5.6637994e-09 5.5158046e-05 0)
(-6.4455303e-09 5.5156738e-05 0)
(-6.5824865e-09 5.5128469e-05 0)
(-6.0180726e-09 5.4896976e-05 0)
(-4.7741246e-09 5.3437984e-05 0)
(-3.0552622e-09 4.6396527e-05 0)
(-1.0584889e-09 2.2661729e-05 0)
(7.9659454e-10 2.2660934e-05 0)
(2.3483833e-09 4.6394947e-05 0)
(3.682078e-09 5.3436388e-05 0)
(4.6079748e-09 5.4895754e-05 0)
(5.0617535e-09 5.5127748e-05 0)
(5.0046823e-09 5.5156511e-05 0)
(4.4928046e-09 5.515828e-05 0)
(3.6134004e-09 5.515728e-05 0)
(2.4113163e-09 5.5156379e-05 0)
(9.8772611e-10 5.5155926e-05 0)
(-4.9622217e-10 5.5155927e-05 0)
(-1.9054486e-09 5.5156377e-05 0)
(-3.1387478e-09 5.5157233e-05 0)
(-4.0898389e-09 5.5158144e-05 0)
(-4.6374747e-09 5.515628e-05 0)
(-4.7256087e-09 5.512742e-05 0)
(-4.3266787e-09 5.4895352e-05 0)
(-3.4463002e-09 5.3435913e-05 0)
(-2.2291255e-09 4.6394428e-05 0)
(-7.8229684e-10 2.266064e-05 0)
(5.6969277e-10 2.2659819e-05 0)
(1.674687e-09 4.6392752e-05 0)
(2.6235897e-09 5.3434099e-05 0)
(3.2791683e-09 5.4893795e-05 0)
(3.6103451e-09 5.5126258e-05 0)
(3.6011239e-09 5.515552e-05 0)
(3.2642413e-09 5.515775e-05 0)
(2.6458009e-09 5.5157118e-05 0)
(1.8018605e-09 5.5156473e-05 0)
(7.8472644e-10 5.5156146e-05 0)
(-3.0356731e-10 5.5156128e-05 0)
(-1.3451892e-09 5.5156438e-05 0)
(-2.2472348e-09 5.5157059e-05 0)
(-2.9194331e-09 5.5157641e-05 0)
(-3.2945881e-09 5.5155364e-05 0)
(-3.3531237e-09 5.5126074e-05 0)
(-3.0884947e-09 5.48936e-05 0)
(-2.4921147e-09 5.3433868e-05 0)
(-1.6396812e-09 4.6392475e-05 0)
(-5.8349514e-10 2.2659656e-05 0)
(4.0010513e-10 2.265886e-05 0)
(1.1704803e-09 4.6390818e-05 0)
(1.8541315e-09 5.3432011e-05 0)
(2.3563156e-09 5.4891921e-05 0)
(2.6184272e-09 5.5124727e-05 0)
(2.6292942e-09 5.515436e-05 0)
(2.4002649e-09 5.5156933e-05 0)
(1.9458936e-09 5.5156583e-05 0)
(1.3196624e-09 5.5156128e-05 0)
(5.8185429e-10 5.5155867e-05 0)
(-1.8736597e-10 5.5155829e-05 0)
(-9.2029291e-10 5.5156032e-05 0)
(-1.5586669e-09 5.5156496e-05 0)
(-2.0297097e-09 5.5156863e-05 0)
(-2.2856805e-09 5.5154296e-05 0)
(-2.3189851e-09 5.512469e-05 0)
(-2.1572632e-09 5.4891891e-05 0)
(-1.7822439e-09 5.3431942e-05 0)
(-1.1976084e-09 4.6390688e-05 0)
(-4.3071309e-10 2.2658773e-05 0)
(2.5810453e-10 2.2658102e-05 0)
(7.6894307e-10 4.6389282e-05 0)
(1.2739147e-09 5.3430352e-05 0)
(1.6919391e-09 5.4890393e-05 0)
(1.9292965e-09 5.5123429e-05 0)
(1.9634723e-09 5.5153296e-05 0)
(1.8147916e-09 5.5156091e-05 0)
(1.4665769e-09 5.5155917e-05 0)
(9.6524762e-10 5.5155576e-05 0)
(4.140162e-10 5.5155367e-05 0)
(-1.3302849e-10 5.5155351e-05 0)
(-6.3075964e-10 5.5155495e-05 0)
(-1.0523526e-09 5.5155841e-05 0)
(-1.3737553e-09 5.5156055e-05 0)
(-1.5479136e-09 5.51533e-05 0)
(-1.5781647e-09 5.5123455e-05 0)
(-1.4937985e-09 5.4890402e-05 0)
(-1.2535806e-09 5.3430309e-05 0)
(-8.372317e-10 4.6389189e-05 0)
(-2.958603e-10 2.2658036e-05 0)
(1.5108573e-10 2.2657534e-05 0)
(4.6405262e-10 4.6388144e-05 0)
(8.2419819e-10 5.3429155e-05 0)
(1.1788088e-09 5.4889296e-05 0)
(1.3949855e-09 5.5122468e-05 0)
(1.4357904e-09 5.5152472e-05 0)
(1.3508642e-09 5.5155412e-05 0)
(1.1001804e-09 5.5155357e-05 0)
(7.1562202e-10 5.515511e-05 0)
(3.1462358e-10 5.5154946e-05 0)
(-7.5088898e-11 5.515495e-05 0)
(-4.1328308e-10 5.515508e-05 0)
(-6.7276511e-10 5.5155337e-05 0)
(-8.6551191e-10 5.5155424e-05 0)
(-9.8310673e-10 5.5152523e-05 0)
(-1.03489e-09 5.5122489e-05 0)
(-1.0051885e-09 5.488927e-05 0)
(-8.5282751e-10 5.342909e-05 0)
(-5.6456948e-10 4.6388072e-05 0)
(-1.9526588e-10 2.2657483e-05 0)
(8.9497201e-11 2.2657163e-05 0)
(2.7452522e-10 4.6387391e-05 0)
(5.1129427e-10 5.3428355e-05 0)
(7.7952023e-10 5.4888572e-05 0)
(9.6328214e-10 5.5121837e-05 0)
(1.0218966e-09 5.5151974e-05 0)
(9.9457998e-10 5.5155049e-05 0)
(8.3045698e-10 5.5155095e-05 0)
(5.5099829e-10 5.5154925e-05 0)
(2.622994e-10 5.5154792e-05 0)
(-9.4245874e-12 5.5154794e-05 0)
(-2.3378334e-10 5.5154912e-05 0)
(-3.8959228e-10 5.5155084e-05 0)
(-5.0671671e-10 5.5155043e-05 0)
(-6.0869783e-10 5.5151997e-05 0)
(-6.7530016e-10 5.512182e-05 0)
(-6.6245152e-10 5.4888515e-05 0)
(-5.5807354e-10 5.3428274e-05 0)
(-3.5823884e-10 4.6387318e-05 0)
(-1.181e-10 2.2657115e-05 0)
(5.1218023e-11 2.2656974e-05 0)
(1.4946848e-10 4.6386987e-05 0)
(2.9085277e-10 5.3427926e-05 0)
(4.8470559e-10 5.4888221e-05 0)
(6.5920199e-10 5.5121576e-05 0)
(7.4725852e-10 5.5151814e-05 0)
(7.4390957e-10 5.5154973e-05 0)
(6.3245356e-10 5.515509e-05 0)
(4.292895e-10 5.5154974e-05 0)
(2.116815e-10 5.5154873e-05 0)
(3.0578615e-11 5.5154858e-05 0)
(-1.0231849e-10 5.5154925e-05 0)
(-1.9555245e-10 5.515502e-05 0)
(-2.7458438e-10 5.5154873e-05 0)
(-3.5520366e-10 5.5151715e-05 0)
(-4.0154634e-10 5.5121432e-05 0)
(-3.9684022e-10 5.488807e-05 0)
(-3.3592534e-10 5.3427786e-05 0)
(-2.0483431e-10 4.6386872e-05 0)
(-6.3093256e-11 2.2656902e-05 0)
(2.7231402e-11 2.2656902e-05 0)
(7.9901557e-11 4.6386826e-05 0)
(1.6517712e-10 5.3427783e-05 0)
(2.8047449e-10 5.4888165e-05 0)
(4.115469e-10 5.5121607e-05 0)
(5.1347185e-10 5.5151889e-05 0)
(5.3885524e-10 5.5155076e-05 0)
(4.7100757e-10 5.5155237e-05 0)
(3.2896753e-10 5.5155157e-05 0)
(1.6515564e-10 5.515508e-05 0)
(3.2387115e-11 5.5155041e-05 0)
(-2.9121758e-11 5.5155051e-05 0)
(-6.5911296e-11 5.5155098e-05 0)
(-1.3206122e-10 5.5154879e-05 0)
(-1.974242e-10 5.5151653e-05 0)
(-2.1503152e-10 5.5121303e-05 0)
(-2.015912e-10 5.488787e-05 0)
(-1.6573399e-10 5.3427557e-05 0)
(-8.9626706e-11 4.6386662e-05 0)
(-2.295375e-11 2.2656806e-05 0)
(1.4040608e-11 2.2656879e-05 0)
(3.8939935e-11 4.6386775e-05 0)
(8.4495728e-11 5.3427752e-05 0)
(1.4805366e-10 5.4888181e-05 0)
(2.2937633e-10 5.5121693e-05 0)
(3.1518383e-10 5.5152029e-05 0)
(3.6789244e-10 5.515525e-05 0)
(3.4730684e-10 5.515546e-05 0)
(2.5782868e-10 5.5155413e-05 0)
(1.3299121e-10 5.5155355e-05 0)
(2.5322473e-11 5.5155317e-05 0)
(1.0085538e-11 5.5155306e-05 0)
(5.5497256e-12 5.5155298e-05 0)
(-5.2168612e-11 5.5155024e-05 0)
(-9.6807799e-11 5.515175e-05 0)
(-9.6827912e-11 5.5121359e-05 0)
(-7.1909566e-11 5.4887856e-05 0)
(-5.1115523e-11 5.3427502e-05 0)
(-2.5378817e-11 4.6386584e-05 0)
(-6.4533357e-12 2.2656768e-05 0)
(5.3308141e-12 2.265686e-05 0)
(1.202142e-11 4.6386718e-05 0)
(3.6861196e-11 5.3427686e-05 0)
(9.3368334e-11 5.4888139e-05 0)
(1.5098409e-10 5.5121694e-05 0)
(1.9830105e-10 5.5152096e-05 0)
(2.5894443e-10 5.5155383e-05 0)
(2.8036526e-10 5.5155656e-05 0)
(2.2750865e-10 5.5155654e-05 0)
(1.2254368e-10 5.5155631e-05 0)
(2.061166e-11 5.5155616e-05 0)
(2.7799988e-12 5.5155606e-05 0)
(6.0985408e-13 5.5155558e-05 0)
(-3.3819518e-11 5.5155237e-05 0)
(-4.3944274e-11 5.5151911e-05 0)
(-2.5006398e-11 5.5121474e-05 0)
(1.1004347e-11 5.4887918e-05 0)
(1.3346613e-11 5.3427495e-05 0)
(-1.4147676e-11 4.6386534e-05 0)
(-1.4462568e-11 2.2656745e-05 0)
(1.5753475e-12 2.2656821e-05 0)
(1.4060774e-11 4.6386607e-05 0)
(4.6348741e-11 5.3427536e-05 0)
(9.6615962e-11 5.488799e-05 0)
(1.3191074e-10 5.5121579e-05 0)
(1.5139805e-10 5.5152042e-05 0)
(2.0665544e-10 5.5155385e-05 0)
(2.41039e-10 5.515571e-05 0)
(2.0143211e-10 5.5155745e-05 0)
(1.1205978e-10 5.5155759e-05 0)
(2.8611507e-11 5.5155771e-05 0)
(3.7289269e-12 5.5155789e-05 0)
(-1.7483887e-11 5.5155748e-05 0)
(-3.9454546e-11 5.5155399e-05 0)
(-1.7375836e-11 5.5152015e-05 0)
(1.8209175e-11 5.5121524e-05 0)
(4.2025644e-11 5.4887911e-05 0)
(1.984552e-11 5.3427409e-05 0)
(-2.5779044e-11 4.638643e-05 0)
(-2.3795949e-11 2.2656708e-05 0)
(-8.6713367e-12 2.265674e-05 0)
(6.1191447e-13 4.6386418e-05 0)
(3.6115952e-11 5.34273e-05 0)
(8.9379485e-11 5.488775e-05 0)
(1.424393e-10 5.5121365e-05 0)
(1.6657119e-10 5.5151856e-05 0)
(2.1284972e-10 5.5155228e-05 0)
(2.3154265e-10 5.5155576e-05 0)
(1.8710416e-10 5.5155631e-05 0)
(1.1937158e-10 5.5155676e-05 0)
(6.083826e-11 5.5155719e-05 0)
(2.7224882e-11 5.5155772e-05 0)
(-3.1393466e-11 5.5155768e-05 0)
(-7.0220863e-11 5.5155435e-05 0)
(-4.4450319e-11 5.5152026e-05 0)
(-1.2648212e-11 5.5121465e-05 0)
(-4.3423716e-12 5.4887773e-05 0)
(-1.3985162e-11 5.3427214e-05 0)
(-3.1823397e-11 4.6386261e-05 0)
(-2.326273e-11 2.2656644e-05 0)
(3.494248e-12 2.2656585e-05 0)
(1.4754496e-11 4.638608e-05 0)
(4.6825497e-11 5.3426917e-05 0)
(1.0970756e-10 5.4887381e-05 0)
(1.713427e-10 5.5121023e-05 0)
(2.0491324e-10 5.5151546e-05 0)
(2.4923244e-10 5.5154963e-05 0)
(2.5357773e-10 5.5155325e-05 0)
(2.0653372e-10 5.51554e-05 0)
(1.4298252e-10 5.515547e-05 0)
(9.6116875e-11 5.5155535e-05 0)
(8.0041917e-11 5.5155608e-05 0)
(8.2393349e-12 5.5155625e-05 0)
(-6.5749946e-11 5.515533e-05 0)
(-9.0246041e-11 5.5151925e-05 0)
(-1.1359735e-10 5.512131e-05 0)
(-1.1553277e-10 5.4887567e-05 0)
(-7.2234615e-11 5.3427004e-05 0)
(-3.0690809e-11 4.6386088e-05 0)
(-1.3130713e-11 2.2656567e-05 0)
(1.438051e-11 2.2656361e-05 0)
(3.8027538e-11 4.6385587e-05 0)
(9.0278158e-11 5.3426368e-05 0)
(1.8084918e-10 5.488686e-05 0)
(2.5500189e-10 5.5120546e-05 0)
(2.8631707e-10 5.5151135e-05 0)
(3.1538004e-10 5.5154618e-05 0)
(3.1492933e-10 5.5155009e-05 0)
(2.6770909e-10 5.5155102e-05 0)
(1.945892e-10 5.515518e-05 0)
(1.610568e-10 5.5155254e-05 0)
(1.6397644e-10 5.5155325e-05 0)
(8.4896669e-11 5.5155334e-05 0)
(-3.7436181e-11 5.5155077e-05 0)
(-1.5353727e-10 5.51517e-05 0)
(-2.4915177e-10 5.5121103e-05 0)
(-2.4400772e-10 5.4887384e-05 0)
(-1.4776527e-10 5.3426852e-05 0)
(-6.3418879e-11 4.6385955e-05 0)
(-2.0800514e-11 2.2656503e-05 0)
(2.3401718e-11 2.2656094e-05 0)
(8.1098461e-11 4.6385009e-05 0)
(1.8246246e-10 5.3425726e-05 0)
(2.9736702e-10 5.4886261e-05 0)
(3.7111464e-10 5.512e-05 0)
(3.9727455e-10 5.5150653e-05 0)
(4.1197729e-10 5.5154197e-05 0)
(3.9937859e-10 5.5154636e-05 0)
(3.5209815e-10 5.5154742e-05 0)
(2.8729442e-10 5.5154804e-05 0)
(2.5126294e-10 5.5154877e-05 0)
(2.3041915e-10 5.5154941e-05 0)
(1.3919164e-10 5.5154971e-05 0)
(-2.19385e-11 5.5154747e-05 0)
(-2.1338841e-10 5.5151403e-05 0)
(-3.4629107e-10 5.5120876e-05 0)
(-3.3728094e-10 5.4887232e-05 0)
(-2.4320481e-10 5.3426744e-05 0)
(-1.4064227e-10 4.6385878e-05 0)
(-4.5704286e-11 2.2656474e-05 0)
(4.5680994e-11 2.26558e-05 0)
(1.6698033e-10 4.6384392e-05 0)
(3.3923546e-10 5.3425037e-05 0)
(4.6556843e-10 5.4885605e-05 0)
(5.3486612e-10 5.5119409e-05 0)
(5.7708415e-10 5.5150154e-05 0)
(5.797632e-10 5.5153761e-05 0)
(5.277083e-10 5.5154251e-05 0)
(4.4055096e-10 5.5154391e-05 0)
(3.7155538e-10 5.5154461e-05 0)
(3.2742207e-10 5.5154542e-05 0)
(2.8494865e-10 5.515462e-05 0)
(1.8553635e-10 5.5154682e-05 0)
(-2.366978e-12 5.5154461e-05 0)
(-2.1258627e-10 5.515113e-05 0)
(-3.2772116e-10 5.5120663e-05 0)
(-3.1328353e-10 5.4887084e-05 0)
(-2.5821975e-10 5.342663e-05 0)
(-1.7739997e-10 4.6385818e-05 0)
(-6.078836e-11 2.265646e-05 0)
(8.1210823e-11 2.2655494e-05 0)
(2.6745573e-10 4.6383749e-05 0)
(5.0125578e-10 5.342431e-05 0)
(6.7857587e-10 5.4884916e-05 0)
(7.9697516e-10 5.5118819e-05 0)
(8.5171014e-10 5.5149675e-05 0)
(8.0710514e-10 5.5153365e-05 0)
(6.9799742e-10 5.5153922e-05 0)
(5.6329413e-10 5.5154143e-05 0)
(4.6159327e-10 5.5154286e-05 0)
(3.9833716e-10 5.5154401e-05 0)
(3.4704221e-10 5.5154481e-05 0)
(2.3889797e-10 5.5154538e-05 0)
(4.9647e-11 5.5154292e-05 0)
(-1.4271914e-10 5.5150968e-05 0)
(-2.520358e-10 5.5120519e-05 0)
(-2.7164323e-10 5.4886955e-05 0)
(-2.4760168e-10 5.3426504e-05 0)
(-1.7552762e-10 4.6385725e-05 0)
(-6.2924297e-11 2.2656424e-05 0)
(1.332652e-10 2.2655158e-05 0)
(4.0836879e-10 4.638305e-05 0)
(7.3527668e-10 5.3423551e-05 0)
(1.0108403e-09 5.488425e-05 0)
(1.184484e-09 5.5118297e-05 0)
(1.2336744e-09 5.5149258e-05 0)
(1.1395809e-09 5.5153043e-05 0)
(9.7306702e-10 5.5153692e-05 0)
(7.8434133e-10 5.5154009e-05 0)
(6.1608111e-10 5.5154235e-05 0)
(4.9045842e-10 5.5154377e-05 0)
(3.9655993e-10 5.5154439e-05 0)
(2.6631078e-10 5.5154462e-05 0)
(8.0760098e-11 5.5154202e-05 0)
(-9.9607989e-11 5.5150896e-05 0)
(-2.1388516e-10 5.5120436e-05 0)
(-2.5938175e-10 5.488687e-05 0)
(-2.5482117e-10 5.3426424e-05 0)
(-1.8482524e-10 4.6385649e-05 0)
(-6.7533771e-11 2.2656387e-05 0)
(2.1241681e-10 2.2654788e-05 0)
(6.4828404e-10 4.6382289e-05 0)
(1.1316101e-09 5.3422755e-05 0)
(1.5252996e-09 5.4883583e-05 0)
(1.7269406e-09 5.5117833e-05 0)
(1.7274748e-09 5.5148959e-05 0)
(1.570878e-09 5.5152863e-05 0)
(1.344835e-09 5.5153598e-05 0)
(1.0959557e-09 5.5153971e-05 0)
(8.4615376e-10 5.5154232e-05 0)
(6.3525351e-10 5.5154379e-05 0)
(4.6290784e-10 5.5154422e-05 0)
(2.9213554e-10 5.5154411e-05 0)
(1.252526e-10 5.5154137e-05 0)
(-4.5404902e-11 5.5150839e-05 0)
(-1.6355889e-10 5.512039e-05 0)
(-2.2739314e-10 5.4886827e-05 0)
(-2.5932238e-10 5.3426397e-05 0)
(-2.1001819e-10 4.6385635e-05 0)
(-8.3115069e-11 2.2656379e-05 0)
(3.2326937e-10 2.2654414e-05 0)
(9.8256973e-10 4.6381517e-05 0)
(1.6851884e-09 5.3421964e-05 0)
(2.2553166e-09 5.4882968e-05 0)
(2.500513e-09 5.5117487e-05 0)
(2.4086291e-09 5.5148854e-05 0)
(2.1219134e-09 5.5152898e-05 0)
(1.7727278e-09 5.5153685e-05 0)
(1.4143904e-09 5.5154069e-05 0)
(1.062879e-09 5.5154312e-05 0)
(7.6113892e-10 5.5154438e-05 0)
(5.1488917e-10 5.5154446e-05 0)
(3.2022235e-10 5.5154394e-05 0)
(1.6423326e-10 5.5154091e-05 0)
(1.1049048e-11 5.5150785e-05 0)
(-1.0483719e-10 5.5120363e-05 0)
(-1.9730701e-10 5.4886786e-05 0)
(-2.4978829e-10 5.3426362e-05 0)
(-2.0854789e-10 4.6385607e-05 0)
(-8.488956e-11 2.2656366e-05 0)
(4.5907088e-10 2.2653988e-05 0)
(1.4028768e-09 4.6380621e-05 0)
(2.4191716e-09 5.3421056e-05 0)
(3.2399733e-09 5.488236e-05 0)
(3.5211576e-09 5.5117329e-05 0)
(3.2528912e-09 5.5149033e-05 0)
(2.7364074e-09 5.5153216e-05 0)
(2.2020383e-09 5.5154013e-05 0)
(1.6955263e-09 5.5154336e-05 0)
(1.2237043e-09 5.5154493e-05 0)
(8.2986741e-10 5.515455e-05 0)
(5.2433755e-10 5.5154512e-05 0)
(3.2707637e-10 5.5154428e-05 0)
(1.8602936e-10 5.515409e-05 0)
(3.9917016e-11 5.5150753e-05 0)
(-9.4743234e-11 5.5120314e-05 0)
(-2.1601274e-10 5.4886708e-05 0)
(-2.7728977e-10 5.3426263e-05 0)
(-2.351866e-10 4.6385487e-05 0)
(-9.5434193e-11 2.265629e-05 0)
(6.062714e-10 2.2653396e-05 0)
(1.9077706e-09 4.6379399e-05 0)
(3.399681e-09 5.3419792e-05 0)
(4.6210957e-09 5.4881561e-05 0)
(4.9267139e-09 5.5117293e-05 0)
(4.3137454e-09 5.5149482e-05 0)
(3.3890811e-09 5.5153763e-05 0)
(2.5499001e-09 5.5154458e-05 0)
(1.8432794e-09 5.5154593e-05 0)
(1.2534727e-09 5.5154603e-05 0)
(7.9688007e-10 5.5154568e-05 0)
(4.7127972e-10 5.5154495e-05 0)
(2.8001062e-10 5.5154406e-05 0)
(1.4913915e-10 5.5154026e-05 0)
(2.3653489e-11 5.5150631e-05 0)
(-1.1003413e-10 5.512014e-05 0)
(-2.6447603e-10 5.48865e-05 0)
(-3.7162307e-10 5.3425994e-05 0)
(-3.5637072e-10 4.6385134e-05 0)
(-1.560391e-10 2.2656028e-05 0)
(6.9573555e-10 2.2652261e-05 0)
(2.3195578e-09 4.6377438e-05 0)
(4.3986367e-09 5.3417907e-05 0)
(6.1713865e-09 5.4880395e-05 0)
(6.5434818e-09 5.5117285e-05 0)
(5.4533404e-09 5.5150106e-05 0)
(3.9302482e-09 5.5154309e-05 0)
(2.6888678e-09 5.5154656e-05 0)
(1.8062122e-09 5.5154436e-05 0)
(1.1707603e-09 5.5154231e-05 0)
(7.0678624e-10 5.5154089e-05 0)
(3.9698424e-10 5.5154009e-05 0)
(2.1880284e-10 5.5153943e-05 0)
(9.9458653e-11 5.51535e-05 0)
(-4.0275674e-12 5.5150043e-05 0)
(-1.4966326e-10 5.5119518e-05 0)
(-3.621623e-10 5.4885849e-05 0)
(-5.7166765e-10 5.3425169e-05 0)
(-6.4672945e-10 4.6383969e-05 0)
(-3.1433749e-10 2.2655102e-05 0)
(6.5017447e-10 2.2648762e-05 0)
(2.3515385e-09 4.6372713e-05 0)
(4.7804082e-09 5.3414398e-05 0)
(6.8478865e-09 5.487868e-05 0)
(7.3093721e-09 5.511777e-05 0)
(5.9646754e-09 5.5151911e-05 0)
(4.0131442e-09 5.5155987e-05 0)
(2.5230838e-09 5.5155744e-05 0)
(1.5965876e-09 5.5154901e-05 0)
(1.0115368e-09 5.5154387e-05 0)
(6.1660577e-10 5.5154121e-05 0)
(3.6564704e-10 5.5154037e-05 0)
(2.0051531e-10 5.5154118e-05 0)
(7.112095e-11 5.5153486e-05 0)
(-2.2579585e-11 5.5149915e-05 0)
(-1.6312148e-10 5.5119358e-05 0)
(-4.3154157e-10 5.488556e-05 0)
(-7.8933057e-10 5.3424145e-05 0)
(-1.0214495e-09 4.638123e-05 0)
(-5.3002758e-10 2.2652362e-05 0)
(5.1967827e-10 2.2643269e-05 0)
(2.0051462e-09 4.6364501e-05 0)
(4.2529064e-09 5.3408741e-05 0)
(6.1543121e-09 5.4876493e-05 0)
(6.695897e-09 5.5118161e-05 0)
(5.4682045e-09 5.5155305e-05 0)
(3.5508223e-09 5.5159535e-05 0)
(2.114562e-09 5.5158664e-05 0)
(1.2799798e-09 5.515651e-05 0)
(7.8271419e-10 5.5155689e-05 0)
(4.8438784e-10 5.5155425e-05 0)
(3.2311072e-10 5.5155265e-05 0)
(1.9667509e-10 5.5156233e-05 0)
(6.7868616e-11 5.5154787e-05 0)
(-1.7843085e-11 5.515087e-05 0)
(-1.3149851e-10 5.5120058e-05 0)
(-3.8940971e-10 5.4885943e-05 0)
(-7.8625806e-10 5.3422765e-05 0)
(-1.0936818e-09 4.6376333e-05 0)
(-5.8491835e-10 2.2648683e-05 0)
)
;

boundaryField
{
    Wall
    {
        type            fixedValue;
        value           uniform (0 0 0);
    }
    frontAndBack
    {
        type            empty;
    }
    atmosphere
    {
        type            pressureInletOutletVelocity;
        value           nonuniform List<vector> 
20
(
(5.1967827e-10 2.2643269e-05 0)
(2.0051462e-09 4.6364501e-05 0)
(4.2529064e-09 5.3408741e-05 0)
(6.1543121e-09 5.4876493e-05 0)
(6.695897e-09 5.5118161e-05 0)
(5.4682045e-09 5.5155305e-05 0)
(3.5508223e-09 5.5159535e-05 0)
(2.114562e-09 5.5158664e-05 0)
(1.2799798e-09 5.515651e-05 0)
(7.8271419e-10 5.5155689e-05 0)
(4.8438784e-10 5.5155425e-05 0)
(3.2311072e-10 5.5155265e-05 0)
(1.9667509e-10 5.5156233e-05 0)
(6.7868616e-11 5.5154787e-05 0)
(-1.7843085e-11 5.515087e-05 0)
(-1.3149851e-10 5.5120058e-05 0)
(-3.8940971e-10 5.4885943e-05 0)
(-7.8625806e-10 5.3422765e-05 0)
(-1.0936818e-09 4.6376333e-05 0)
(-5.8491835e-10 2.2648683e-05 0)
)
;
    }
}


// ************************************************************************* //
