/*--------------------------------*- C++ -*----------------------------------*\
| =========                 |                                                 |
| \\      /  F ield         | OpenFOAM: The Open Source CFD Toolbox           |
|  \\    /   O peration     | Version:  3.0.1                                 |
|   \\  /    A nd           | Web:      www.OpenFOAM.org                      |
|    \\/     M anipulation  |                                                 |
\*---------------------------------------------------------------------------*/
FoamFile
{
    version     2.0;
    format      ascii;
    class       volScalarField;
    location    "2";
    object      wCO2_l;
}
// * * * * * * * * * * * * * * * * * * * * * * * * * * * * * * * * * * * * * //

dimensions      [0 0 0 0 0 0 0];

internalField   nonuniform List<scalar> 
800
(
0.0010377187
0.0010377186
0.0010377186
0.0010377186
0.0010377186
0.0010377186
0.0010377186
0.0010377186
0.0010377186
0.0010377186
0.0010377186
0.0010377186
0.0010377186
0.0010377186
0.0010377186
0.0010377186
0.0010377186
0.0010377186
0.0010377186
0.0010377187
0.00096309068
0.00096309092
0.00096309101
0.00096309116
0.00096309127
0.00096309135
0.0009630914
0.00096309143
0.00096309144
0.00096309145
0.00096309145
0.00096309144
0.00096309143
0.0009630914
0.00096309135
0.00096309127
0.00096309116
0.00096309101
0.00096309092
0.00096309068
2.7390097e-06
2.8140247e-06
2.8197931e-06
2.8204749e-06
2.8205335e-06
2.8205241e-06
2.8205121e-06
2.8205033e-06
2.820498e-06
2.8204957e-06
2.8204958e-06
2.820498e-06
2.8205035e-06
2.8205121e-06
2.8205238e-06
2.8205332e-06
2.8204743e-06
2.8197923e-06
2.8140236e-06
2.7390094e-06
7.0755702e-09
1.0615757e-08
1.1341726e-08
1.1451602e-08
1.1461239e-08
1.1459482e-08
1.145763e-08
1.1456464e-08
1.1455803e-08
1.1455519e-08
1.1455524e-08
1.1455815e-08
1.1456477e-08
1.1457639e-08
1.1459477e-08
1.1461213e-08
1.1451556e-08
1.1341663e-08
1.0615677e-08
7.0755207e-09
1.9550026e-11
4.9114462e-11
5.675976e-11
5.7934585e-11
5.8029679e-11
5.8005286e-11
5.7981856e-11
5.7967097e-11
5.7958645e-11
5.7954982e-11
5.7955044e-11
5.7958786e-11
5.7967234e-11
5.7981956e-11
5.8005233e-11
5.8029353e-11
5.7934028e-11
5.6759005e-11
4.9113543e-11
1.9549629e-11
4.9113554e-14
1.9992545e-13
2.4831329e-13
2.5592486e-13
2.5650561e-13
2.5631578e-13
2.561397e-13
2.5602722e-13
2.5596197e-13
2.5593295e-13
2.5593341e-13
2.5596274e-13
2.5602823e-13
2.561405e-13
2.5631547e-13
2.5650331e-13
2.5592088e-13
2.4830773e-13
1.9991921e-13
4.9111756e-14
1.0376256e-16
6.6657283e-16
8.8584412e-16
9.2136623e-16
9.2403365e-16
9.230716e-16
9.2217494e-16
9.2158969e-16
9.2124437e-16
9.2108773e-16
9.2109031e-16
9.2124777e-16
9.215939e-16
9.2217852e-16
9.2307117e-16
9.2402327e-16
9.2134745e-16
8.8581761e-16
6.6654446e-16
1.037573e-16
1.8385578e-19
1.8358824e-18
2.6037657e-18
2.7323041e-18
2.742124e-18
2.7386106e-18
2.7352466e-18
2.7329993e-18
2.7316536e-18
2.7310323e-18
2.7310394e-18
2.7316622e-18
2.7330111e-18
2.7352545e-18
2.7386066e-18
2.7420891e-18
2.7322398e-18
2.6036746e-18
1.8357923e-18
1.8384483e-19
2.7655287e-22
4.2572998e-21
6.4342144e-21
6.8113624e-21
6.8412187e-21
6.8313035e-21
6.8214426e-21
6.8147155e-21
6.8106261e-21
6.8087168e-21
6.8087313e-21
6.8106424e-21
6.8147368e-21
6.8214474e-21
6.8312792e-21
6.8411165e-21
6.8111915e-21
6.4339769e-21
4.25708e-21
2.7653591e-22
3.5747931e-25
8.4480263e-24
1.3594416e-23
1.4517795e-23
1.4594063e-23
1.4571428e-23
1.4547905e-23
1.4531575e-23
1.4521517e-23
1.4516768e-23
1.4516792e-23
1.4521502e-23
1.4531556e-23
1.4547839e-23
1.4571302e-23
1.459379e-23
1.4517418e-23
1.3593924e-23
8.4476132e-24
3.5745868e-25
4.0123815e-28
1.4528393e-26
2.4881106e-26
2.6804918e-26
2.6970764e-26
2.6927641e-26
2.6880669e-26
2.6847548e-26
2.6826943e-26
2.6817151e-26
2.6817158e-26
2.6826805e-26
2.684736e-26
2.6880367e-26
2.6927231e-26
2.6970092e-26
2.6804123e-26
2.4880169e-26
1.4527708e-26
4.0121698e-28
3.9443971e-31
2.1870647e-29
3.9852813e-29
4.3312771e-29
4.3623331e-29
4.3553386e-29
4.3473212e-29
4.3415945e-29
4.3380038e-29
4.3362862e-29
4.3362848e-29
4.3379646e-29
4.3415363e-29
4.3472388e-29
4.3552426e-29
4.3621945e-29
4.3311281e-29
3.9851155e-29
2.1869569e-29
3.9441897e-31
3.4205552e-34
2.9050675e-32
5.6319014e-32
6.1749614e-32
6.2255365e-32
6.215724e-32
6.2038463e-32
6.1952711e-32
6.1898629e-32
6.1872638e-32
6.1872547e-32
6.1897848e-32
6.1951548e-32
6.2036845e-32
6.2155358e-32
6.2252756e-32
6.1746887e-32
5.6316171e-32
2.9049023e-32
3.4203534e-34
2.6322679e-37
3.426903e-35
7.0679432e-35
7.8181493e-35
7.8903749e-35
7.878351e-35
7.8629052e-35
7.8516527e-35
7.8445263e-35
7.841086e-35
7.8410712e-35
7.8444039e-35
7.8514691e-35
7.862656e-35
7.8780543e-35
7.8899672e-35
7.8177167e-35
7.0674998e-35
3.4266636e-35
2.632077e-37
1.8064015e-40
3.608856e-38
7.9189192e-38
8.8372654e-38
8.9283525e-38
8.9153708e-38
8.8975886e-38
8.8845316e-38
8.8762382e-38
8.8722214e-38
8.8722008e-38
8.8760819e-38
8.8843025e-38
8.8972672e-38
8.9149754e-38
8.9278039e-38
8.8366779e-38
7.9183164e-38
3.6085492e-38
1.8062391e-40
1.1099533e-43
3.4072376e-41
7.9548102e-41
8.9563599e-41
9.05839e-41
9.0459714e-41
9.027729e-41
9.0142408e-41
9.0056548e-41
9.0014876e-41
9.0014702e-41
9.00549e-41
9.0139971e-41
9.0273798e-41
9.0455287e-41
9.0577683e-41
8.955686e-41
7.9541196e-41
3.4069015e-41
1.1098359e-43
6.1268193e-47
2.8939408e-44
7.1892278e-44
8.1666045e-44
8.2685979e-44
8.2580354e-44
8.2412793e-44
8.2288072e-44
8.2208507e-44
8.216993e-44
8.2169749e-44
8.2206998e-44
8.2285768e-44
8.2409371e-44
8.2576013e-44
8.2679875e-44
8.1659433e-44
7.1885525e-44
2.8936292e-44
6.1261047e-47
3.0462047e-50
2.2172763e-47
5.8616026e-47
6.7180066e-47
6.8093484e-47
6.8013389e-47
6.787501e-47
6.7771387e-47
6.7705207e-47
6.7673073e-47
6.7672901e-47
6.7703862e-47
6.7769411e-47
6.7872104e-47
6.8009682e-47
6.8088272e-47
6.7174479e-47
5.8610345e-47
2.217028e-47
3.0458322e-50
1.367044e-53
1.5357494e-50
4.3207774e-50
4.9963994e-50
5.0699044e-50
5.064485e-50
5.0541802e-50
5.0464173e-50
5.0414518e-50
5.0390377e-50
5.0390222e-50
5.0413418e-50
5.046262e-50
5.0539576e-50
5.0642049e-50
5.0695161e-50
4.9959834e-50
4.3203536e-50
1.5355728e-50
1.3668715e-53
5.5460466e-57
9.6312575e-54
2.8841158e-53
3.3649962e-53
3.4182757e-53
3.414998e-53
3.4080597e-53
3.4028023e-53
3.3994355e-53
3.3977962e-53
3.397787e-53
3.3993571e-53
3.402694e-53
3.4079078e-53
3.414812e-53
3.418014e-53
3.3647176e-53
2.8838305e-53
9.6301315e-54
5.5453289e-57
2.0362447e-60
5.4749874e-57
1.7451986e-56
2.0544654e-56
2.0893068e-56
2.0875387e-56
2.0833086e-56
2.0800854e-56
2.0780193e-56
2.0770122e-56
2.0770062e-56
2.0779703e-56
2.0800191e-56
2.0832166e-56
2.0874269e-56
2.0891465e-56
2.054293e-56
1.7450232e-56
5.4743394e-57
2.0359758e-60
6.7700114e-64
2.8228787e-60
9.5792042e-60
1.137811e-59
1.1583925e-59
1.1575455e-59
1.1552087e-59
1.1534175e-59
1.1522689e-59
1.1517076e-59
1.1517045e-59
1.152241e-59
1.15338e-59
1.1551563e-59
1.1574827e-59
1.1583018e-59
1.1377138e-59
9.5782226e-60
2.8225379e-60
6.7690993e-64
2.0386101e-67
1.3203328e-63
4.7702332e-63
5.7170467e-63
5.8269393e-63
5.8233561e-63
5.8116507e-63
5.8026272e-63
5.7968374e-63
5.7940045e-63
5.7939867e-63
5.7966868e-63
5.802426e-63
5.8113705e-63
5.8230253e-63
5.8264587e-63
5.7165357e-63
4.769727e-63
1.3201693e-63
2.0383263e-67
5.5582804e-71
5.600576e-67
2.1545217e-66
2.6054252e-66
2.6584694e-66
2.6571463e-66
2.6518286e-66
2.6477075e-66
2.6450624e-66
2.643766e-66
2.6437562e-66
2.6449875e-66
2.6476089e-66
2.6516902e-66
2.6569822e-66
2.6582336e-66
2.6051773e-66
2.1542835e-66
5.5998609e-67
5.55748e-71
1.3711477e-74
2.1528539e-70
8.8193623e-70
1.0761284e-69
1.0992646e-69
1.0988473e-69
1.096659e-69
1.0949544e-69
1.0938597e-69
1.0933228e-69
1.0933184e-69
1.0938273e-69
1.0949107e-69
1.0965978e-69
1.0987751e-69
1.0991611e-69
1.0760206e-69
8.8183494e-70
2.1525699e-70
1.3709428e-74
3.0565478e-78
7.4901741e-74
3.2678385e-73
4.0233736e-73
4.1144717e-73
4.1134003e-73
4.105255e-73
4.0988757e-73
4.0947803e-73
4.0927681e-73
4.0927523e-73
4.0946555e-73
4.0987103e-73
4.1050198e-73
4.113123e-73
4.114072e-73
4.0229595e-73
3.2674544e-73
7.4891586e-74
3.0560747e-78
6.1463983e-82
2.3545114e-77
1.0940993e-76
1.3592274e-76
1.3915599e-76
1.3913657e-76
1.3886263e-76
1.3864705e-76
1.3850859e-76
1.3844062e-76
1.3844015e-76
1.3850463e-76
1.3864173e-76
1.3885493e-76
1.3912732e-76
1.3914252e-76
1.3590869e-76
1.0939684e-76
2.3541834e-77
6.1454074e-82
1.1123437e-85
6.6715321e-81
3.3022436e-80
4.1395518e-80
4.2427731e-80
4.2426918e-80
4.2343909e-80
4.2278243e-80
4.2236064e-80
4.2215373e-80
4.221529e-80
4.2234987e-80
4.2276815e-80
4.2341782e-80
4.2424323e-80
4.2423745e-80
4.1391318e-80
3.301848e-80
6.6705888e-81
1.1121612e-85
1.8062952e-89
1.6988876e-84
8.9581052e-84
1.1331102e-83
1.1626678e-83
1.1627871e-83
1.1605277e-83
1.1587305e-83
1.1575762e-83
1.1570103e-83
1.1570094e-83
1.1575507e-83
1.1586977e-83
1.1604778e-83
1.1627262e-83
1.1625669e-83
1.1330018e-83
8.9570773e-84
1.6986537e-84
1.8060025e-89
2.6220457e-93
3.8733319e-88
2.1759255e-87
2.7772479e-87
2.8528961e-87
2.8535403e-87
2.8480368e-87
2.8436336e-87
2.8408054e-87
2.8394205e-87
2.8394224e-87
2.8407543e-87
2.8435699e-87
2.8479402e-87
2.853425e-87
2.8526855e-87
2.7770214e-87
2.1757059e-87
3.872849e-88
2.6216489e-93
3.3866314e-97
7.8696734e-92
4.7104567e-91
6.0666867e-91
6.2389451e-91
6.2411278e-91
6.2291886e-91
6.2195816e-91
6.2134081e-91
6.210385e-91
6.2103994e-91
6.2133179e-91
6.2194854e-91
6.2290483e-91
6.2409759e-91
6.238601e-91
6.0663235e-91
4.7100976e-91
7.8688845e-92
3.3861944e-97
3.8695517e-101
1.4166613e-95
9.035628e-95
1.1742682e-94
1.2089716e-94
1.2095478e-94
1.2072541e-94
1.2053976e-94
1.2042048e-94
1.2036208e-94
1.2036255e-94
1.2041932e-94
1.20539e-94
1.2072442e-94
1.2095427e-94
1.2089369e-94
1.1742356e-94
9.0352548e-95
1.4165713e-95
3.8691863e-101
3.8832649e-105
2.2433009e-99
1.5247691e-98
1.9995696e-98
2.0609889e-98
2.0622355e-98
2.0583634e-98
2.0552104e-98
2.0531862e-98
2.0521974e-98
2.052211e-98
2.0531812e-98
2.0552239e-98
2.0583855e-98
2.0622823e-98
2.0610014e-98
1.9995986e-98
1.5247785e-98
2.243268e-99
3.8830798e-105
3.3920663e-109
3.0967406e-103
2.2432835e-102
2.9685434e-102
3.063193e-102
3.0654467e-102
3.0597532e-102
3.0550897e-102
3.0520996e-102
3.0506426e-102
3.0506709e-102
3.052116e-102
3.0551533e-102
3.059853e-102
3.0656158e-102
3.0633406e-102
2.9687446e-102
2.2434344e-102
3.0968932e-103
3.3921111e-109
2.5497202e-113
3.6842119e-107
2.8446247e-106
3.7985194e-106
3.924094e-106
3.9275084e-106
3.9203032e-106
3.9143636e-106
3.910558e-106
3.908709e-106
3.9087556e-106
3.9106079e-106
3.9144995e-106
3.9205198e-106
3.927861e-106
3.924475e-106
3.799023e-106
2.8450312e-106
3.6846904e-107
2.5499525e-113
1.6249607e-117
3.7218964e-111
3.063259e-110
4.127693e-110
4.2690305e-110
4.2733426e-110
4.2656116e-110
4.2591879e-110
4.2550735e-110
4.2530763e-110
4.2531352e-110
4.2551494e-110
4.2593783e-110
4.2659249e-110
4.2738686e-110
4.2696723e-110
4.1285471e-110
3.0639731e-110
3.7227385e-111
1.6252597e-117
8.6086691e-122
3.1302638e-115
2.7464867e-114
3.7345706e-114
3.8669111e-114
3.8713866e-114
3.864488e-114
3.8587021e-114
3.8549902e-114
3.853186e-114
3.8532401e-114
3.8550603e-114
3.8588872e-114
3.8648121e-114
3.871964e-114
3.867695e-114
3.7356579e-114
2.7474196e-114
3.1313284e-115
8.6111775e-122
3.6888245e-126
2.132597e-119
1.9949002e-118
2.7373513e-118
2.8376844e-118
2.8414146e-118
2.8364301e-118
2.832196e-118
2.8294687e-118
2.8281392e-118
2.828175e-118
2.829506e-118
2.8323111e-118
2.8366527e-118
2.8418671e-118
2.8383894e-118
2.7384094e-118
1.9958306e-118
2.1336053e-119
3.6903443e-126
1.2282307e-130
1.1306728e-123
1.127744e-122
1.5616338e-122
1.6208252e-122
1.6232426e-122
1.6204369e-122
1.6180117e-122
1.6164381e-122
1.6156677e-122
1.6156826e-122
1.616441e-122
1.6180441e-122
1.6205162e-122
1.6234717e-122
1.6212869e-122
1.5624186e-122
1.1284553e-122
1.1313949e-123
1.22891e-130
2.9810314e-135
4.3764427e-128
4.6549978e-127
6.5053556e-127
6.7603673e-127
6.7718149e-127
6.7603033e-127
6.7500929e-127
6.7434051e-127
6.7401074e-127
6.7401267e-127
6.7432899e-127
6.7499721e-127
6.7602539e-127
6.7724708e-127
6.7625197e-127
6.5095944e-127
4.6589529e-127
4.3801989e-128
2.9831789e-135
)
;

boundaryField
{
    Wall
    {
        type            zeroGradient;
    }
    frontAndBack
    {
        type            empty;
    }
    atmosphere
    {
        type            zeroGradient;
    }
}


// ************************************************************************* //
