/*--------------------------------*- C++ -*----------------------------------*\
| =========                 |                                                 |
| \\      /  F ield         | OpenFOAM: The Open Source CFD Toolbox           |
|  \\    /   O peration     | Version:  3.0.1                                 |
|   \\  /    A nd           | Web:      www.OpenFOAM.org                      |
|    \\/     M anipulation  |                                                 |
\*---------------------------------------------------------------------------*/
FoamFile
{
    version     2.0;
    format      ascii;
    class       volScalarField;
    location    "13";
    object      alpha.gas;
}
// * * * * * * * * * * * * * * * * * * * * * * * * * * * * * * * * * * * * * //

dimensions      [0 0 0 0 0 0 0];

internalField   nonuniform List<scalar> 
800
(
1.7949139e-28
2.3385216e-25
4.4991696e-22
8.7333884e-22
1.1710399e-24
1.080776e-21
9.3672073e-22
5.4109209e-23
2.9250201e-26
4.8292252e-30
3.0683631e-23
2.9941851e-23
5.4313969e-26
6.9529022e-23
6.8787415e-23
9.8009707e-28
3.0664219e-32
4.7548543e-36
9.3900097e-40
1.7451973e-43
6.205053e-12
1.4033576e-12
1.0374698e-10
3.663953e-11
1.3300561e-12
4.8975138e-11
3.8366966e-11
4.6237994e-11
9.403211e-11
2.3603933e-10
1.1853857e-10
1.1811172e-10
6.3909925e-11
3.7851905e-11
3.5852192e-11
6.9957114e-12
7.0248338e-17
4.4275754e-14
1.9956135e-11
2.7044813e-14
0.0010738849
0.001034051
0.0010328178
0.0010341089
0.0010351853
0.001036057
0.0010367525
0.0010372817
0.0010376358
0.0010378124
0.0010378122
0.0010376354
0.001037281
0.0010367516
0.0010360558
0.0010351839
0.0010341072
0.001032816
0.0010340492
0.0010738831
0.012640869
0.011553207
0.011462278
0.011470462
0.011493948
0.011516723
0.011535836
0.011550212
0.011559626
0.011564287
0.011564284
0.011559617
0.011550198
0.011535817
0.011516698
0.01149392
0.01147043
0.011462245
0.011553172
0.012640822
0.22508523
0.20282063
0.20034951
0.2002701
0.2007236
0.20124965
0.20166347
0.20199978
0.20220834
0.20231547
0.20231541
0.20220819
0.20199951
0.2016631
0.20124917
0.20072305
0.20026947
0.20034884
0.20281993
0.22508437
0.81490434
0.79697086
0.7947749
0.79472621
0.79511928
0.79557754
0.79592578
0.79620696
0.79637904
0.79647101
0.79647096
0.79637892
0.79620676
0.79592549
0.79557717
0.79511885
0.79472569
0.79477436
0.79697031
0.81490372
0.99096041
0.98874847
0.98838905
0.98839777
0.98845847
0.98852379
0.98857191
0.98860679
0.9886284
0.9886406
0.9886406
0.98862839
0.98860677
0.98857188
0.98852375
0.98845842
0.98839771
0.98838899
0.98874841
0.99096035
0.99994367
0.99990151
0.99989075
0.99989091
0.99989253
0.99989422
0.99989549
0.99989627
0.99989678
0.99989706
0.99989706
0.99989678
0.99989627
0.99989549
0.99989422
0.99989253
0.99989091
0.99989075
0.99990151
0.99994366
0.99999998
0.99999991
0.99999988
0.99999988
0.99999988
0.99999989
0.99999989
0.99999989
0.99999989
0.99999989
0.99999989
0.99999989
0.99999989
0.99999989
0.99999989
0.99999988
0.99999988
0.99999988
0.99999991
0.99999998
1
1
1
1
1
1
1
1
1
1
1
1
1
1
1
1
1
1
1
1
1
1
1
1
1
1
1
1
1
1
1
1
1
1
1
1
1
1
1
1
1
1
1
1
1
1
1
1
1
1
1
1
1
1
1
1
1
1
1
1
1
1
1
1
1
1
1
1
1
1
1
1
1
1
1
1
1
1
1
1
1
1
1
1
1
1
1
1
1
1
1
1
1
1
1
1
1
1
1
1
1
1
1
1
1
1
1
1
1
1
1
1
1
1
1
1
1
1
1
1
1
1
1
1
1
1
1
1
1
1
1
1
1
1
1
1
1
1
1
1
1
1
1
1
1
1
1
1
1
1
1
1
1
1
1
1
1
1
1
1
1
1
1
1
1
1
1
1
1
1
1
1
1
1
1
1
1
1
1
1
1
1
1
1
1
1
1
1
1
1
1
1
1
1
1
1
1
1
1
1
1
1
1
1
1
1
1
1
1
1
1
1
1
1
1
1
1
1
1
1
1
1
1
1
1
1
1
1
1
1
1
1
1
1
1
1
1
1
1
1
1
1
1
1
1
1
1
1
1
1
1
1
1
1
1
1
1
1
1
1
1
1
1
1
1
1
1
1
1
1
1
1
1
1
1
1
1
1
1
1
1
1
1
1
1
1
1
1
1
1
1
1
1
1
1
1
1
1
1
1
1
1
1
1
1
1
1
1
1
1
1
1
1
1
1
1
1
1
1
1
1
1
1
1
1
1
1
1
1
1
1
1
1
1
1
1
1
1
1
1
1
1
1
1
1
1
1
1
1
1
1
1
1
1
1
1
1
1
1
1
1
1
1
1
1
1
1
1
1
1
1
1
1
1
1
1
1
1
1
1
1
1
1
1
1
1
1
1
1
1
1
1
1
1
1
1
1
1
1
1
1
1
1
1
1
1
1
1
1
1
1
1
1
1
1
1
1
1
1
1
1
1
1
1
1
1
1
1
1
1
1
1
1
1
1
1
1
1
1
1
1
1
1
1
1
1
1
1
1
1
1
1
1
1
1
1
1
1
1
1
1
1
1
1
1
1
1
1
1
1
1
1
1
1
1
1
1
1
1
1
1
1
1
1
1
1
1
1
1
1
1
1
1
1
1
1
1
1
1
1
1
1
1
1
1
1
1
1
1
1
1
1
1
1
1
1
1
1
1
1
1
1
1
1
1
1
1
1
1
1
1
1
1
1
1
1
1
1
1
1
1
1
1
1
1
1
1
1
1
1
1
1
1
1
1
1
1
1
1
1
1
1
1
1
1
1
1
1
1
1
1
1
1
1
1
1
1
1
1
1
1
1
1
1
1
1
1
1
1
1
1
1
1
1
1
1
1
1
1
1
1
1
1
1
1
1
1
1
1
1
1
1
1
1
1
1
1
1
1
1
)
;

boundaryField
{
    Wall
    {
        type            zeroGradient;
    }
    frontAndBack
    {
        type            empty;
    }
    atmosphere
    {
        type            zeroGradient;
    }
}


// ************************************************************************* //
