/*--------------------------------*- C++ -*----------------------------------*\
| =========                 |                                                 |
| \\      /  F ield         | OpenFOAM: The Open Source CFD Toolbox           |
|  \\    /   O peration     | Version:  3.0.1                                 |
|   \\  /    A nd           | Web:      www.OpenFOAM.org                      |
|    \\/     M anipulation  |                                                 |
\*---------------------------------------------------------------------------*/
FoamFile
{
    version     2.0;
    format      ascii;
    class       volScalarField;
    location    "13";
    object      M3;
}
// * * * * * * * * * * * * * * * * * * * * * * * * * * * * * * * * * * * * * //

dimensions      [0 0 0 0 0 0 0];

internalField   nonuniform List<scalar> 
800
(
2.12708e-26
2.1271105e-26
2.1270829e-26
2.1270649e-26
2.1270516e-26
2.1270407e-26
2.1270325e-26
2.1270265e-26
2.1270226e-26
2.1270207e-26
2.1270207e-26
2.1270226e-26
2.1270265e-26
2.1270325e-26
2.1270408e-26
2.1270516e-26
2.1270649e-26
2.1270829e-26
2.1271105e-26
2.12708e-26
1.5860368e-26
1.5991848e-26
1.6004611e-26
1.6007083e-26
1.6009462e-26
1.6011502e-26
1.6013151e-26
1.6014347e-26
1.6015107e-26
1.6015476e-26
1.6015476e-26
1.6015107e-26
1.6014347e-26
1.6013151e-26
1.6011503e-26
1.6009463e-26
1.6007084e-26
1.6004613e-26
1.5991849e-26
1.5860368e-26
9.762183e-27
9.8645782e-27
9.878026e-27
9.8823728e-27
9.8857737e-27
9.8884779e-27
9.8905298e-27
9.8919713e-27
9.8928782e-27
9.8933167e-27
9.8933168e-27
9.892878e-27
9.8919709e-27
9.8905295e-27
9.8884778e-27
9.8857737e-27
9.882373e-27
9.8780264e-27
9.8645786e-27
9.7621825e-27
6.6149572e-27
6.7188193e-27
6.730831e-27
6.7355875e-27
6.7389142e-27
6.7413848e-27
6.7431355e-27
6.7443074e-27
6.7450281e-27
6.7453716e-27
6.7453715e-27
6.7450278e-27
6.7443069e-27
6.743135e-27
6.7413844e-27
6.7389138e-27
6.7355872e-27
6.7308308e-27
6.7188191e-27
6.6149563e-27
2.9852437e-27
3.1365201e-27
3.1447065e-27
3.1484223e-27
3.1505926e-27
3.1519856e-27
3.1528128e-27
3.1532921e-27
3.1535658e-27
3.1536895e-27
3.1536895e-27
3.1535656e-27
3.1532918e-27
3.1528125e-27
3.1519855e-27
3.1505925e-27
3.1484222e-27
3.1447066e-27
3.1365202e-27
2.9852434e-27
4.7343143e-28
5.0793414e-28
5.1002951e-28
5.1109694e-28
5.1161268e-28
5.118843e-28
5.1201528e-28
5.1206828e-28
5.1209543e-28
5.1210565e-28
5.1210564e-28
5.1209538e-28
5.1206821e-28
5.1201521e-28
5.1188429e-28
5.1161268e-28
5.1109694e-28
5.1002956e-28
5.0793421e-28
4.7343141e-28
4.8028941e-29
5.332474e-29
5.3649591e-29
5.375835e-29
5.3799521e-29
5.3810301e-29
5.3811295e-29
5.3804749e-29
5.3801507e-29
5.3797308e-29
5.3797306e-29
5.3801496e-29
5.3804734e-29
5.3811285e-29
5.38103e-29
5.3799528e-29
5.3758365e-29
5.3649596e-29
5.3324758e-29
4.8028941e-29
3.0687784e-30
3.9146931e-30
3.9692746e-30
3.955607e-30
3.938918e-30
3.926807e-30
3.9179443e-30
3.913035e-30
3.9099485e-30
3.9080722e-30
3.9080709e-30
3.909947e-30
3.9130315e-30
3.9179419e-30
3.9268078e-30
3.938919e-30
3.9556101e-30
3.9692748e-30
3.9146952e-30
3.0687788e-30
1.1171951e-31
2.0755429e-31
2.2384106e-31
2.2419356e-31
2.2140544e-31
2.1858772e-31
2.1635744e-31
2.1493841e-31
2.140659e-31
2.1363596e-31
2.1363576e-31
2.1406566e-31
2.1493789e-31
2.1635709e-31
2.1858775e-31
2.2140545e-31
2.2419379e-31
2.2384105e-31
2.0755433e-31
1.1171951e-31
2.4187618e-33
7.9150431e-33
9.7492065e-33
1.0096636e-32
9.970615e-33
9.7404487e-33
9.5301666e-33
9.3833343e-33
9.2912352e-33
9.2467368e-33
9.2467225e-33
9.291211e-33
9.3832924e-33
9.5301349e-33
9.7404431e-33
9.9706067e-33
1.0096646e-32
9.7492049e-33
7.9150401e-33
2.4187596e-33
3.3746706e-35
2.2003646e-34
3.2872395e-34
3.6297846e-34
3.6336141e-34
3.5275306e-34
3.4119394e-34
3.3248442e-34
3.2687802e-34
3.2417126e-34
3.2417058e-34
3.268766e-34
3.3248216e-34
3.4119212e-34
3.5275244e-34
3.6336069e-34
3.6297863e-34
3.2872383e-34
2.2003617e-34
3.3746624e-35
3.2598134e-37
4.5491529e-36
8.6085925e-36
1.0397054e-35
1.0695649e-35
1.0384256e-35
9.9535525e-36
9.6048729e-36
9.3747471e-36
9.2631447e-36
9.2631203e-36
9.3746924e-36
9.6047876e-36
9.9534778e-36
1.038422e-35
1.0695617e-35
1.0397051e-35
8.6085871e-36
4.5491443e-36
3.2598008e-37
2.2952803e-39
7.1156134e-38
1.755397e-37
2.3631535e-37
2.5268239e-37
2.4693077e-37
2.3535494e-37
2.2526364e-37
2.1843943e-37
2.1510609e-37
2.1510545e-37
2.1843782e-37
2.2526118e-37
2.3535267e-37
2.4692947e-37
2.5268136e-37
2.3631509e-37
1.7553958e-37
7.1155958e-38
2.2952682e-39
1.2125558e-41
8.5015498e-40
2.7841019e-39
4.2330058e-39
4.7454317e-39
4.6938355e-39
4.4639499e-39
4.2465261e-39
4.0957828e-39
4.0215577e-39
4.0215449e-39
4.0957483e-39
4.2464722e-39
4.4638984e-39
4.6938018e-39
4.7454078e-39
4.2329983e-39
2.7841009e-39
8.5015312e-40
1.2125488e-41
4.85019e-44
7.7545748e-42
3.4088075e-41
5.9050828e-41
6.9840369e-41
7.0232553e-41
6.6850129e-41
6.3335836e-41
6.083441e-41
5.9591988e-41
5.959177e-41
6.0833829e-41
6.3334943e-41
6.6849247e-41
7.0231934e-41
6.9839955e-41
5.9050703e-41
3.4088088e-41
7.754564e-42
4.8501635e-44
1.457054e-46
5.3316007e-44
3.1675332e-43
6.2877932e-43
7.8800323e-43
8.0835216e-43
7.7202263e-43
7.2978449e-43
6.9885977e-43
6.8335727e-43
6.8335457e-43
6.9885247e-43
7.2977304e-43
7.7201145e-43
8.0834387e-43
7.8799799e-43
6.2877803e-43
3.1675389e-43
5.3316041e-44
1.4570482e-46
3.200334e-49
2.6840775e-46
2.1642482e-45
4.9414659e-45
6.5816921e-45
6.9043458e-45
6.6294234e-45
6.2619055e-45
5.9844843e-45
5.8440552e-45
5.8440303e-45
5.9844175e-45
6.2617993e-45
6.6293178e-45
6.9042661e-45
6.5816463e-45
4.9414577e-45
2.1642562e-45
2.6840882e-46
3.2003344e-49
4.8675001e-52
9.3607756e-49
1.0271127e-47
2.703877e-47
3.8353897e-47
4.1216834e-47
3.984781e-47
3.7654317e-47
3.5942589e-47
3.5067251e-47
3.5067091e-47
3.5942166e-47
3.7653638e-47
3.9847133e-47
4.1216318e-47
3.835362e-47
2.703875e-47
1.0271187e-47
9.3608521e-49
4.8675226e-52
4.5919573e-55
2.0248296e-51
3.0284358e-50
9.2063788e-50
1.3926981e-49
1.5351289e-49
1.4960149e-49
1.4155305e-49
1.3504005e-49
1.3167374e-49
1.3167313e-49
1.3503835e-49
1.4155036e-49
1.4959884e-49
1.5351092e-49
1.392688e-49
9.2063851e-50
3.0284637e-50
2.0248571e-51
4.5920102e-55
2.0274701e-58
2.0493434e-54
4.1825189e-53
1.4698018e-52
2.3734426e-52
2.6857849e-52
2.640444e-52
2.5033852e-52
2.3879722e-52
2.3276511e-52
2.3276402e-52
2.3879411e-52
2.5033368e-52
2.6403947e-52
2.6857496e-52
2.3734261e-52
1.4698056e-52
4.1825726e-53
2.0493812e-54
2.02751e-58
7.5913082e-151
7.5913082e-151
7.5913082e-151
7.5913082e-151
7.5913082e-151
7.5913082e-151
7.5913082e-151
7.5913082e-151
7.5913082e-151
7.5913082e-151
7.5913082e-151
7.5913082e-151
7.5913082e-151
7.5913082e-151
7.5913082e-151
7.5913082e-151
7.5913082e-151
7.5913082e-151
7.5913082e-151
7.5913082e-151
7.5913082e-151
7.5913082e-151
7.5913082e-151
7.5913082e-151
7.5913082e-151
7.5913082e-151
7.5913082e-151
7.5913082e-151
7.5913082e-151
7.5913082e-151
7.5913082e-151
7.5913082e-151
7.5913082e-151
7.5913082e-151
7.5913082e-151
7.5913082e-151
7.5913082e-151
7.5913082e-151
7.5913082e-151
7.5913082e-151
7.5913082e-151
7.5913082e-151
7.5913082e-151
7.5913082e-151
7.5913082e-151
7.5913082e-151
7.5913082e-151
7.5913082e-151
7.5913082e-151
7.5913082e-151
7.5913082e-151
7.5913082e-151
7.5913082e-151
7.5913082e-151
7.5913082e-151
7.5913082e-151
7.5913082e-151
7.5913082e-151
7.5913082e-151
7.5913082e-151
7.5913082e-151
7.5913082e-151
7.5913082e-151
7.5913082e-151
7.5913082e-151
7.5913082e-151
7.5913082e-151
7.5913082e-151
7.5913082e-151
7.5913082e-151
7.5913082e-151
7.5913082e-151
7.5913082e-151
7.5913082e-151
7.5913082e-151
7.5913082e-151
7.5913082e-151
7.5913082e-151
7.5913082e-151
7.5913082e-151
7.5913082e-151
7.5913082e-151
7.5913082e-151
7.5913082e-151
7.5913082e-151
7.5913082e-151
7.5913082e-151
7.5913082e-151
7.5913082e-151
7.5913082e-151
7.5913082e-151
7.5913082e-151
7.5913082e-151
7.5913082e-151
7.5913082e-151
7.5913082e-151
7.5913082e-151
7.5913082e-151
7.5913082e-151
7.5913082e-151
7.5913082e-151
7.5913082e-151
7.5913082e-151
7.5913082e-151
7.5913082e-151
7.5913082e-151
7.5913082e-151
7.5913082e-151
7.5913082e-151
7.5913082e-151
7.5913082e-151
7.5913082e-151
7.5913082e-151
7.5913082e-151
7.5913082e-151
7.5913082e-151
7.5913082e-151
7.5913082e-151
7.5913082e-151
7.5913082e-151
7.5913082e-151
7.5913082e-151
7.5913082e-151
7.5913082e-151
7.5913082e-151
7.5913082e-151
7.5913082e-151
7.5913082e-151
7.5913082e-151
7.5913082e-151
7.5913082e-151
7.5913082e-151
7.5913082e-151
7.5913082e-151
7.5913082e-151
7.5913082e-151
7.5913082e-151
7.5913082e-151
7.5913082e-151
7.5913082e-151
7.5913082e-151
7.5913082e-151
7.5913082e-151
7.5913082e-151
7.5913082e-151
7.5913082e-151
7.5913082e-151
7.5913082e-151
7.5913082e-151
7.5913082e-151
7.5913082e-151
7.5913082e-151
7.5913082e-151
7.5913082e-151
7.5913082e-151
7.5913082e-151
7.5913082e-151
7.5913082e-151
7.5913082e-151
7.5913082e-151
7.5913082e-151
7.5913082e-151
7.5913082e-151
7.5913082e-151
7.5913082e-151
7.5913082e-151
7.5913082e-151
7.5913082e-151
7.5913082e-151
7.5913082e-151
7.5913082e-151
7.5913082e-151
7.5913082e-151
7.5913082e-151
7.5913082e-151
7.5913082e-151
7.5913082e-151
7.5913082e-151
7.5913082e-151
7.5913082e-151
7.5913082e-151
7.5913082e-151
7.5913082e-151
7.5913082e-151
7.5913082e-151
7.5913082e-151
7.5913082e-151
7.5913082e-151
7.5913082e-151
7.5913082e-151
7.5913082e-151
7.5913082e-151
7.5913082e-151
7.5913082e-151
7.5913082e-151
7.5913082e-151
7.5913082e-151
7.5913082e-151
7.5913082e-151
7.5913082e-151
7.5913082e-151
7.5913082e-151
7.5913082e-151
7.5913082e-151
7.5913082e-151
7.5913082e-151
7.5913082e-151
7.5913082e-151
7.5913082e-151
7.5913082e-151
7.5913082e-151
7.5913082e-151
7.5913082e-151
7.5913082e-151
7.5913082e-151
7.5913082e-151
7.5913082e-151
7.5913082e-151
7.5913082e-151
7.5913082e-151
7.5913082e-151
7.5913082e-151
7.5913082e-151
7.5913082e-151
7.5913082e-151
7.5913082e-151
7.5913082e-151
7.5913082e-151
7.5913082e-151
7.5913082e-151
7.5913082e-151
7.5913082e-151
7.5913082e-151
7.5913082e-151
7.5913082e-151
7.5913082e-151
7.5913082e-151
7.5913082e-151
7.5913082e-151
7.5913082e-151
7.5913082e-151
7.5913082e-151
7.5913082e-151
7.5913082e-151
7.5913082e-151
7.5913082e-151
7.5913082e-151
7.5913082e-151
7.5913082e-151
7.5913082e-151
7.5913082e-151
7.5913082e-151
7.5913082e-151
7.5913082e-151
7.5913082e-151
7.5913082e-151
7.5913082e-151
7.5913082e-151
7.5913082e-151
7.5913082e-151
7.5913082e-151
7.5913082e-151
7.5913082e-151
7.5913082e-151
7.5913082e-151
7.5913082e-151
7.5913082e-151
7.5913082e-151
7.5913082e-151
7.5913082e-151
7.5913082e-151
7.5913082e-151
7.5913082e-151
7.5913082e-151
7.5913082e-151
7.5913082e-151
7.5913082e-151
7.5913082e-151
7.5913082e-151
7.5913082e-151
7.5913082e-151
7.5913082e-151
7.5913082e-151
7.5913082e-151
7.5913082e-151
7.5913082e-151
7.5913082e-151
7.5913082e-151
7.5913082e-151
7.5913082e-151
7.5913082e-151
7.5913082e-151
7.5913082e-151
7.5913082e-151
7.5913082e-151
7.5913082e-151
7.5913082e-151
7.5913082e-151
7.5913082e-151
7.5913082e-151
7.5913082e-151
7.5913082e-151
7.5913082e-151
7.5913082e-151
7.5913082e-151
7.5913082e-151
7.5913082e-151
7.5913082e-151
7.5913082e-151
7.5913082e-151
7.5913082e-151
7.5913082e-151
7.5913082e-151
7.5913082e-151
7.5913082e-151
7.5913082e-151
7.5913082e-151
7.5913082e-151
7.5913082e-151
7.5913082e-151
7.5913082e-151
7.5913082e-151
7.5913082e-151
7.5913082e-151
7.5913082e-151
7.5913082e-151
7.5913082e-151
7.5913082e-151
7.5913082e-151
7.5913082e-151
7.5913082e-151
7.5913082e-151
7.5913082e-151
7.5913082e-151
7.5913082e-151
7.5913082e-151
7.5913082e-151
7.5913082e-151
7.5913082e-151
7.5913082e-151
7.5913082e-151
7.5913082e-151
7.5913082e-151
7.5913082e-151
7.5913082e-151
7.5913082e-151
7.5913082e-151
7.5913082e-151
7.5913082e-151
7.5913082e-151
7.5913082e-151
7.5913082e-151
7.5913082e-151
7.5913082e-151
7.5913082e-151
7.5913082e-151
7.5913082e-151
7.5913082e-151
7.5913082e-151
7.5913082e-151
7.5913082e-151
7.5913082e-151
7.5913082e-151
7.5913082e-151
7.5913082e-151
7.5913082e-151
7.5913082e-151
7.5913082e-151
7.5913082e-151
7.5913082e-151
7.5913082e-151
7.5913082e-151
7.5913082e-151
7.5913082e-151
7.5913082e-151
7.5913082e-151
7.5913082e-151
7.5913082e-151
7.5913082e-151
7.5913082e-151
7.5913082e-151
7.5913082e-151
7.5913082e-151
7.5913082e-151
7.5913082e-151
7.5913082e-151
7.5913082e-151
7.5913082e-151
7.5913082e-151
7.5913082e-151
7.5913082e-151
7.5913082e-151
7.5913082e-151
7.5913082e-151
7.5913082e-151
7.5913082e-151
7.5913082e-151
7.5913082e-151
7.5913082e-151
7.5913082e-151
)
;

boundaryField
{
    Wall
    {
        type            zeroGradient;
    }
    frontAndBack
    {
        type            empty;
    }
    atmosphere
    {
        type            zeroGradient;
    }
}


// ************************************************************************* //
