/*--------------------------------*- C++ -*----------------------------------*\
| =========                 |                                                 |
| \\      /  F ield         | OpenFOAM: The Open Source CFD Toolbox           |
|  \\    /   O peration     | Version:  3.0.1                                 |
|   \\  /    A nd           | Web:      www.OpenFOAM.org                      |
|    \\/     M anipulation  |                                                 |
\*---------------------------------------------------------------------------*/
FoamFile
{
    version     2.0;
    format      ascii;
    class       volScalarField;
    location    "13";
    object      mOne;
}
// * * * * * * * * * * * * * * * * * * * * * * * * * * * * * * * * * * * * * //

dimensions      [0 0 0 0 0 0 0];

internalField   nonuniform List<scalar> 
800
(
3.0232348
3.0231412
3.0230937
3.0230683
3.0230496
3.0230347
3.0230233
3.0230151
3.0230098
3.0230072
3.0230072
3.0230098
3.0230151
3.0230233
3.0230347
3.0230496
3.0230684
3.0230937
3.0231412
3.0232348
2.4980344
2.5085382
2.5096077
2.5099667
2.5102739
2.5105207
2.510711
2.5108468
2.5109331
2.510975
2.510975
2.5109331
2.5108468
2.510711
2.5105207
2.5102739
2.5099667
2.5096078
2.5085382
2.4980344
1.8499625
1.8601347
1.8614945
1.8620035
1.8623677
1.8626437
1.862845
1.8629833
1.8630694
1.8631108
1.8631108
1.8630693
1.8629832
1.8628449
1.8626436
1.8623677
1.8620035
1.8614944
1.8601346
1.8499623
1.2787471
1.2901542
1.2912761
1.2916755
1.2919267
1.2920994
1.2922115
1.2922804
1.2923205
1.2923389
1.2923389
1.2923205
1.2922804
1.2922115
1.2920994
1.2919267
1.2916755
1.2912761
1.2901542
1.2787471
0.7080656
0.72480901
0.72573459
0.72605513
0.72618538
0.72624066
0.72625042
0.72624228
0.72623275
0.72622673
0.72622674
0.72623276
0.7262423
0.72625046
0.72624073
0.72618546
0.72605523
0.7257347
0.72480914
0.70806569
0.30141837
0.31233768
0.31340579
0.31371372
0.31374101
0.31367887
0.31361615
0.31354374
0.31350066
0.31347717
0.31347719
0.31350068
0.31354378
0.31361621
0.31367896
0.31374113
0.31371384
0.31340596
0.31233784
0.30141854
0.11086226
0.11960553
0.12130418
0.12160264
0.12155677
0.12141987
0.1213166
0.12123591
0.12118671
0.1211533
0.12115331
0.12118671
0.12123591
0.12131666
0.12141992
0.12155686
0.1216028
0.1213043
0.11960567
0.11086242
0.031954956
0.040900229
0.043184236
0.043607975
0.043512105
0.043325278
0.043144364
0.043054665
0.042988624
0.042947601
0.042947583
0.042988619
0.04305462
0.04314436
0.043325312
0.043512146
0.043608097
0.043184279
0.040900307
0.03195506
0.0062976087
0.012183826
0.01428931
0.014872152
0.014876157
0.014732205
0.014566883
0.014472369
0.014404103
0.014368176
0.014368156
0.014404094
0.014472315
0.01456686
0.014732215
0.014876156
0.014872202
0.014289319
0.012183845
0.0062976489
0.0008529053
0.0031089533
0.0043550755
0.004822916
0.0048976287
0.0048379862
0.0047477143
0.0046876413
0.0046446259
0.0046229636
0.0046229531
0.0046446163
0.0046876093
0.0047476955
0.0048379846
0.0048976156
0.0048229279
0.0043550738
0.0031089529
0.00085291367
8.4806423e-05
0.00068720222
0.0012263886
0.0014862224
0.0015533337
0.0015393043
0.001503393
0.0014756443
0.0014557018
0.0014458209
0.001445817
0.0014556956
0.0014756299
0.0015033825
0.0015393009
0.0015533232
0.0014862213
0.0012263866
0.00068719975
8.4807567e-05
6.6822376e-06
0.0001352241
0.00032282988
0.00043657271
0.00047452682
0.00047444985
0.00046302993
0.00045261502
0.00044504997
0.00044133084
0.00044132951
0.00044504685
0.00045260956
0.00046302497
0.00047444735
0.00047452155
0.00043657028
0.00032282875
0.00013522304
6.6823494e-06
4.4581545e-07
2.4486584e-05
8.0535392e-05
0.00012280374
0.00013965477
0.00014151787
0.00013850961
0.00013514686
0.00013265634
0.00013143432
0.00013143389
0.00013265504
0.00013514495
0.00013850757
0.00014151646
0.00013965269
0.00012280235
8.0534889e-05
2.4486285e-05
4.4582399e-07
2.6579148e-08
4.210308e-06
1.9265213e-05
3.3211803e-05
3.9600655e-05
4.0792303e-05
4.0143802e-05
3.9181214e-05
3.8444833e-05
3.8082304e-05
3.8082158e-05
3.8444358e-05
3.9180569e-05
4.0143045e-05
4.0791642e-05
3.9599945e-05
3.3211232e-05
1.9265017e-05
4.2102396e-06
2.6579662e-08
1.4863764e-09
7.042041e-07
4.45449e-06
8.6574098e-06
1.0817543e-05
1.1345365e-05
1.1242931e-05
1.0994832e-05
1.0795417e-05
1.0696198e-05
1.069615e-05
1.0795259e-05
1.099462e-05
1.1242669e-05
1.13451e-05
1.0817319e-05
8.6572133e-06
4.4544229e-06
7.0418989e-07
1.4863998e-09
8.1934359e-11
1.1622585e-07
9.9954747e-07
2.1774861e-06
2.8456168e-06
3.0401835e-06
3.0357907e-06
2.9778684e-06
2.9278593e-06
2.9024918e-06
2.902476e-06
2.9278102e-06
2.9778009e-06
3.0357052e-06
3.0400897e-06
2.8455483e-06
2.1774255e-06
9.9952707e-07
1.16223e-07
8.1934844e-11
4.6765308e-12
1.9021471e-08
2.1788845e-07
5.2850255e-07
7.2059246e-07
7.840317e-07
7.8900384e-07
7.7678724e-07
7.6510369e-07
7.5900497e-07
7.5900013e-07
7.6508922e-07
7.7676659e-07
7.8897757e-07
7.8400179e-07
7.2057196e-07
5.2848513e-07
2.1788278e-07
1.9020907e-08
4.6764785e-12
2.8621555e-13
3.0815147e-09
4.6111227e-08
1.2375198e-07
1.7562627e-07
1.9446301e-07
1.971932e-07
1.9489968e-07
1.9234942e-07
1.9096641e-07
1.9096502e-07
1.9234534e-07
1.9489367e-07
1.9718555e-07
1.9445426e-07
1.7562017e-07
1.2374731e-07
4.6109753e-08
3.0814058e-09
2.8620619e-13
1.8887508e-14
4.9177915e-10
9.4620181e-09
2.7948902e-08
4.1201246e-08
4.6381695e-08
4.7378538e-08
4.7010804e-08
4.6490366e-08
4.6194111e-08
4.619373e-08
4.6489265e-08
4.7009143e-08
4.7376435e-08
4.6379314e-08
4.119949e-08
2.7947714e-08
9.4616569e-09
4.917588e-10
1.888649e-14
1.3161866e-15
7.6913721e-11
1.8804475e-09
6.0879976e-09
9.306767e-09
1.0641205e-08
1.0945789e-08
1.0901725e-08
1.0802578e-08
1.074258e-08
1.0742482e-08
1.0802294e-08
1.090129e-08
1.0945241e-08
1.0640594e-08
9.3062885e-09
6.0877057e-09
1.8803642e-09
7.6910036e-11
1.3160934e-15
9.409421e-17
1.1738637e-11
3.6165881e-10
1.2793314e-09
2.0253649e-09
2.3498849e-09
2.4330696e-09
2.4318371e-09
2.4142831e-09
2.4027885e-09
2.4027645e-09
2.4142136e-09
2.4317291e-09
2.4329341e-09
2.3497361e-09
2.0252422e-09
1.2792624e-09
3.6164046e-10
1.1737991e-11
9.4086394e-17
6.7421072e-18
1.7431183e-12
6.7288828e-11
2.5947576e-10
4.2496149e-10
4.9991215e-10
5.2081567e-10
5.2225152e-10
5.193912e-10
5.1730714e-10
5.1730149e-10
5.1937491e-10
5.2222605e-10
5.2078369e-10
4.998775e-10
4.2493198e-10
2.5946003e-10
6.7284988e-11
1.7430095e-12
6.7414862e-18
4.7715063e-19
2.5139055e-13
1.2111674e-11
5.0827966e-11
8.6043756e-11
1.0255933e-10
1.0746965e-10
1.0808817e-10
1.0766807e-10
1.0731055e-10
1.0730928e-10
1.0766442e-10
1.0808244e-10
1.0746246e-10
1.025516e-10
8.603706e-11
5.0824506e-11
1.2110904e-11
2.51373e-13
4.7710325e-19
3.308513e-20
3.5179125e-14
2.1097068e-12
9.6237359e-12
1.6827927e-11
2.0312685e-11
2.1401691e-11
2.1583537e-11
2.1530637e-11
2.1472676e-11
2.1472403e-11
2.1529853e-11
2.1582306e-11
2.1400146e-11
2.0311031e-11
1.6826486e-11
9.6230026e-12
2.109558e-12
3.5176414e-14
3.3081629e-20
2.2384295e-21
4.7753567e-15
3.5581753e-13
1.7627766e-12
3.1821593e-12
3.8882923e-12
4.1178863e-12
4.1631809e-12
4.1583314e-12
4.1494807e-12
4.149424e-12
4.1581695e-12
4.1629274e-12
4.1175676e-12
3.887952e-12
3.181863e-12
1.7626273e-12
3.5578976e-13
4.7749537e-15
2.2381783e-21
1.4748821e-22
6.2887153e-16
5.8144823e-14
3.1265109e-13
5.8242504e-13
7.2017388e-13
7.6642236e-13
7.7660574e-13
7.7659159e-13
7.7532704e-13
7.7531583e-13
7.7655947e-13
7.7655552e-13
7.6635916e-13
7.2010635e-13
5.8236659e-13
3.1262187e-13
5.8139806e-14
6.2881358e-16
1.4747072e-22
9.4570984e-24
8.0374762e-17
9.2130173e-15
5.3744759e-14
1.0328353e-13
1.2920533e-13
1.3814134e-13
1.4026652e-13
1.4040709e-13
1.4024032e-13
1.402382e-13
1.4040096e-13
1.4025692e-13
1.3812922e-13
1.2919238e-13
1.0327241e-13
5.3739246e-14
9.2121398e-15
8.0366665e-17
9.4559164e-24
5.900739e-25
9.9751093e-18
1.4166075e-15
8.9625236e-15
1.7763723e-14
2.2477675e-14
2.4139021e-14
2.4557019e-14
2.4603932e-14
2.4584215e-14
2.4583826e-14
2.4602801e-14
2.4555245e-14
2.4136776e-14
2.2475271e-14
1.7761673e-14
8.9615192e-15
1.4164582e-15
9.9740075e-18
5.8999541e-25
3.5893484e-26
1.2029226e-18
2.1155007e-16
1.4512499e-15
2.9660354e-15
3.7957394e-15
4.0937053e-15
4.1719234e-15
4.1832743e-15
4.1813365e-15
4.1812671e-15
4.1830724e-15
4.1716054e-15
4.0933019e-15
3.7953063e-15
2.9656687e-15
1.4510726e-15
2.115254e-16
1.2027764e-18
3.5830597e-26
2.1610372e-27
1.4105431e-19
3.0708186e-17
2.2838272e-16
4.8125099e-16
6.2279245e-16
6.7445808e-16
6.8847185e-16
6.9084494e-16
6.9072932e-16
6.9071732e-16
6.9080993e-16
6.8841648e-16
6.743878e-16
6.2271667e-16
4.8118723e-16
2.283523e-16
3.0704218e-17
1.4103535e-19
2.1189457e-27
1.3604051e-28
1.609471e-20
4.3364142e-18
3.4960225e-17
7.5948298e-17
9.9380594e-17
1.0805756e-16
1.1047244e-16
1.1092551e-16
1.1093572e-16
1.1093369e-16
1.109196e-16
1.1046307e-16
1.0804565e-16
9.9367707e-17
7.5937503e-17
3.4955154e-17
4.3357929e-18
1.6092301e-20
1.2209426e-28
9.9040489e-30
1.7883484e-21
5.9620404e-19
5.2100757e-18
1.1668032e-17
1.5436972e-17
1.6850679e-17
1.7252311e-17
1.7333309e-17
1.733886e-17
1.7338528e-17
1.7332338e-17
1.7250769e-17
1.6848712e-17
1.5434838e-17
1.1666251e-17
5.2092521e-18
5.9610932e-19
1.7880482e-21
6.8589503e-30
8.8036389e-31
1.9364968e-22
7.9871145e-20
7.5653406e-19
1.7465306e-18
2.3361352e-18
2.5598973e-18
2.6245411e-18
2.6382876e-18
2.6396654e-18
2.6396119e-18
2.6381322e-18
2.6242937e-18
2.559581e-18
2.3357912e-18
1.7462443e-18
7.564038e-19
7.9857063e-20
1.9361294e-22
3.7592283e-31
8.8678762e-32
2.0450137e-23
1.0433949e-20
1.0711988e-19
2.5491994e-19
3.4471877e-19
3.7916901e-19
3.8926007e-19
3.914937e-19
3.9176851e-19
3.9176017e-19
3.9146944e-19
3.892214e-19
3.7911942e-19
3.4466475e-19
2.5487507e-19
1.0709979e-19
1.043191e-20
2.0445712e-23
2.0114762e-32
9.0641173e-33
2.1076703e-24
1.3301276e-21
1.4801225e-20
3.630905e-20
4.9636619e-20
5.4801538e-20
5.6332075e-20
5.6681539e-20
5.6730462e-20
5.672919e-20
5.6677842e-20
5.6326186e-20
5.4793959e-20
4.962835e-20
3.6302192e-20
1.4798208e-20
1.3298399e-21
2.1071466e-24
1.0514829e-33
8.8072775e-34
2.1214835e-25
1.6558991e-22
1.9972233e-21
5.0504367e-21
6.9796428e-21
7.734461e-21
7.9603584e-21
8.0132164e-21
8.0213014e-21
8.0211128e-21
8.012667e-21
7.9594829e-21
7.7333314e-21
6.9784074e-21
5.0494153e-21
1.9967816e-21
1.6555038e-22
2.1208748e-25
5.3734308e-35
7.8957061e-35
2.0868955e-26
2.0145066e-23
2.6336554e-22
6.8651674e-22
9.591054e-22
1.0667355e-21
1.0992223e-21
1.106975e-21
1.1082392e-21
1.1082119e-21
1.1068953e-21
1.0990952e-21
1.0665711e-21
9.5892538e-22
6.8636843e-22
2.6330257e-22
2.0139781e-23
2.086203e-26
2.686254e-36
6.4355328e-36
2.0075606e-27
2.3965369e-24
3.3961258e-23
9.1258467e-23
1.2888304e-22
1.4386985e-22
1.4842738e-22
1.4953259e-22
1.4972168e-22
1.4971782e-22
1.4952131e-22
1.4840938e-22
1.4384649e-22
1.2885744e-22
9.1237458e-23
3.3952512e-23
2.395849e-24
2.0067912e-27
1.3145079e-37
4.7908096e-37
1.8897981e-28
2.7896821e-25
4.2852682e-24
1.1870628e-23
1.6947371e-23
1.8986822e-23
1.9611155e-23
1.9764572e-23
1.9791817e-23
1.9791282e-23
1.9763015e-23
1.9608664e-23
1.8983582e-23
1.6943816e-23
1.1867725e-23
4.2840838e-24
2.7888105e-25
1.8889653e-28
7.0172146e-39
3.3164488e-38
1.7418181e-29
3.1793958e-26
5.2942789e-25
1.5118864e-24
2.1819959e-24
2.4534319e-24
2.5370223e-24
2.557791e-24
2.5615889e-24
2.5615171e-24
2.5575814e-24
2.5366855e-24
2.4529929e-24
2.1815143e-24
1.511495e-24
5.2927151e-25
3.1783203e-26
1.740942e-29
5.1205447e-40
)
;

boundaryField
{
    Wall
    {
        type            zeroGradient;
    }
    frontAndBack
    {
        type            empty;
    }
    atmosphere
    {
        type            zeroGradient;
    }
}


// ************************************************************************* //
