/*--------------------------------*- C++ -*----------------------------------*\
| =========                 |                                                 |
| \\      /  F ield         | OpenFOAM: The Open Source CFD Toolbox           |
|  \\    /   O peration     | Version:  3.0.1                                 |
|   \\  /    A nd           | Web:      www.OpenFOAM.org                      |
|    \\/     M anipulation  |                                                 |
\*---------------------------------------------------------------------------*/
FoamFile
{
    version     2.0;
    format      ascii;
    class       volScalarField;
    location    "13";
    object      mThree;
}
// * * * * * * * * * * * * * * * * * * * * * * * * * * * * * * * * * * * * * //

dimensions      [0 0 0 0 0 0 0];

internalField   nonuniform List<scalar> 
800
(
8.5577423e-26
8.5576658e-26
8.5574536e-26
8.5573275e-26
8.557234e-26
8.5571587e-26
8.5571014e-26
8.5570599e-26
8.557033e-26
8.5570196e-26
8.5570198e-26
8.557033e-26
8.5570599e-26
8.5571014e-26
8.5571589e-26
8.5572341e-26
8.5573277e-26
8.5574538e-26
8.5576658e-26
8.5577424e-26
5.5480112e-26
5.6108008e-26
5.6169906e-26
5.6184329e-26
5.6197598e-26
5.6208711e-26
5.6217544e-26
5.6223919e-26
5.6227969e-26
5.6229934e-26
5.6229935e-26
5.6227969e-26
5.6223919e-26
5.6217545e-26
5.6208713e-26
5.6197601e-26
5.6184334e-26
5.6169912e-26
5.6108015e-26
5.5480114e-26
2.7821855e-26
2.8214022e-26
2.8265917e-26
2.8283386e-26
2.829672e-26
2.8307189e-26
2.8315054e-26
2.8320549e-26
2.8323997e-26
2.8325662e-26
2.8325662e-26
2.8323996e-26
2.8320547e-26
2.8315052e-26
2.8307188e-26
2.8296719e-26
2.8283386e-26
2.8265918e-26
2.8214023e-26
2.7821852e-26
1.5073815e-26
1.5387132e-26
1.5422192e-26
1.5435781e-26
1.5445097e-26
1.5451924e-26
1.5456693e-26
1.5459844e-26
1.5461766e-26
1.5462678e-26
1.5462677e-26
1.5461765e-26
1.5459842e-26
1.5456691e-26
1.5451923e-26
1.5445096e-26
1.543578e-26
1.5422192e-26
1.5387132e-26
1.5073813e-26
5.098992e-27
5.4098981e-27
5.4269288e-27
5.4343504e-27
5.4385068e-27
5.4410857e-27
5.4425445e-27
5.4433461e-27
5.4437885e-27
5.4439831e-27
5.4439831e-27
5.4437882e-27
5.4433457e-27
5.4425441e-27
5.4410858e-27
5.438507e-27
5.4343506e-27
5.4269294e-27
5.4098987e-27
5.0989919e-27
6.1613236e-28
6.6658111e-28
6.6987572e-28
6.7143507e-28
6.7212656e-28
6.7245159e-28
6.7259154e-28
6.7262408e-28
6.7263768e-28
6.7263908e-28
6.7263908e-28
6.7263762e-28
6.7262401e-28
6.7259149e-28
6.7245163e-28
6.7212662e-28
6.7143513e-28
6.6987586e-28
6.6658129e-28
6.1613242e-28
5.3353538e-29
5.9702673e-29
6.0157511e-29
6.0295507e-29
6.0339217e-29
6.0343941e-29
6.0339499e-29
6.0327817e-29
6.0321534e-29
6.031503e-29
6.0315028e-29
6.0321522e-29
6.0327801e-29
6.0339491e-29
6.0343942e-29
6.033923e-29
6.0295533e-29
6.0157523e-29
5.9702701e-29
5.3353546e-29
3.1668411e-30
4.074805e-30
4.1406846e-30
4.128103e-30
4.1103087e-30
4.096937e-30
4.0869815e-30
4.0815094e-30
4.0780318e-30
4.0759146e-30
4.0759131e-30
4.0780302e-30
4.0815056e-30
4.086979e-30
4.0969379e-30
4.1103099e-30
4.1281067e-30
4.140685e-30
4.0748074e-30
3.1668419e-30
1.1242307e-31
2.1008309e-31
2.2703959e-31
2.275278e-31
2.246991e-31
2.21808e-31
2.195091e-31
2.1804908e-31
2.1714933e-31
2.1670552e-31
2.1670531e-31
2.1714908e-31
2.1804854e-31
2.1950873e-31
2.2180803e-31
2.2469911e-31
2.2752805e-31
2.2703959e-31
2.1008314e-31
1.1242308e-31
2.4208248e-33
7.9396506e-33
9.791665e-33
1.0145331e-32
1.0019447e-32
9.7875729e-33
9.5754131e-33
9.42732e-33
9.3343896e-33
9.2894842e-33
9.2894697e-33
9.3343651e-33
9.4272776e-33
9.5753811e-33
9.7875672e-33
1.0019439e-32
1.0145341e-32
9.7916634e-33
7.9396476e-33
2.4208226e-33
3.3749568e-35
2.2018766e-34
3.2912709e-34
3.6351793e-34
3.6392584e-34
3.5329605e-34
3.4170689e-34
3.3297505e-34
3.2735386e-34
3.2463995e-34
3.2463927e-34
3.2735243e-34
3.3297278e-34
3.4170507e-34
3.5329543e-34
3.639251e-34
3.635181e-34
3.2912697e-34
2.2018737e-34
3.3749486e-35
3.2598352e-37
4.5497681e-36
8.6113717e-36
1.0401593e-35
1.0700724e-35
1.0389182e-35
9.9581613e-36
9.6092202e-36
9.3789193e-36
9.2672328e-36
9.2672084e-36
9.3788645e-36
9.6091348e-36
9.9580865e-36
1.0389147e-35
1.0700692e-35
1.040159e-35
8.6113662e-36
4.5497595e-36
3.2598225e-37
2.2952813e-39
7.1157876e-38
1.7555384e-37
2.3634437e-37
2.5271768e-37
2.4696572e-37
2.3538754e-37
2.2529408e-37
2.1846841e-37
2.1513436e-37
2.1513373e-37
2.184668e-37
2.2529162e-37
2.3538527e-37
2.4696441e-37
2.5271665e-37
2.3634411e-37
1.7555372e-37
7.1157701e-38
2.2952692e-39
1.2125558e-41
8.5015856e-40
2.7841555e-39
4.2331464e-39
4.7456196e-39
4.6940269e-39
4.4641291e-39
4.2466924e-39
4.0959403e-39
4.0217109e-39
4.0216981e-39
4.0959058e-39
4.2466386e-39
4.4640776e-39
4.6939933e-39
4.7455958e-39
4.2331389e-39
2.7841546e-39
8.501567e-40
1.2125489e-41
4.85019e-44
7.7545802e-42
3.4088227e-41
5.905134e-41
6.9841124e-41
7.023335e-41
6.685088e-41
6.3336532e-41
6.0835067e-41
5.9592625e-41
5.9592408e-41
6.0834486e-41
6.3335639e-41
6.6849999e-41
7.0232731e-41
6.984071e-41
5.9051214e-41
3.408824e-41
7.7545694e-42
4.8501635e-44
1.457054e-46
5.3316014e-44
3.1675364e-43
6.2878069e-43
7.8800547e-43
8.0835462e-43
7.7202498e-43
7.2978666e-43
6.9886181e-43
6.8335925e-43
6.8335655e-43
6.9885452e-43
7.2977521e-43
7.720138e-43
8.0834633e-43
7.8800023e-43
6.287794e-43
3.167542e-43
5.3316047e-44
1.4570482e-46
3.200334e-49
2.6840776e-46
2.1642487e-45
4.9414685e-45
6.5816968e-45
6.9043512e-45
6.6294286e-45
6.2619104e-45
5.9844889e-45
5.8440596e-45
5.8440348e-45
5.9844221e-45
6.2618041e-45
6.629323e-45
6.9042715e-45
6.5816511e-45
4.9414603e-45
2.1642567e-45
2.6840883e-46
3.2003344e-49
4.8675001e-52
9.3607756e-49
1.0271128e-47
2.7038774e-47
3.8353904e-47
4.1216842e-47
3.9847818e-47
3.7654325e-47
3.5942596e-47
3.5067258e-47
3.5067098e-47
3.5942173e-47
3.7653645e-47
3.9847141e-47
4.1216326e-47
3.8353627e-47
2.7038753e-47
1.0271188e-47
9.3608522e-49
4.8675226e-52
4.5919573e-55
2.0248296e-51
3.0284358e-50
9.2063791e-50
1.3926982e-49
1.535129e-49
1.4960149e-49
1.4155306e-49
1.3504006e-49
1.3167374e-49
1.3167314e-49
1.3503836e-49
1.4155037e-49
1.4959884e-49
1.5351093e-49
1.392688e-49
9.2063854e-50
3.0284637e-50
2.0248571e-51
4.5920102e-55
2.0274701e-58
2.0493434e-54
4.1825189e-53
1.4698018e-52
2.3734426e-52
2.6857849e-52
2.640444e-52
2.5033852e-52
2.3879723e-52
2.3276511e-52
2.3276402e-52
2.3879411e-52
2.5033368e-52
2.6403947e-52
2.6857497e-52
2.3734261e-52
1.4698056e-52
4.1825726e-53
2.0493812e-54
2.02751e-58
7.5913082e-151
7.5913082e-151
7.5913082e-151
7.5913082e-151
7.5913082e-151
7.5913082e-151
7.5913082e-151
7.5913082e-151
7.5913082e-151
7.5913082e-151
7.5913082e-151
7.5913082e-151
7.5913082e-151
7.5913082e-151
7.5913082e-151
7.5913082e-151
7.5913082e-151
7.5913082e-151
7.5913082e-151
7.5913082e-151
7.5913082e-151
7.5913082e-151
7.5913082e-151
7.5913082e-151
7.5913082e-151
7.5913082e-151
7.5913082e-151
7.5913082e-151
7.5913082e-151
7.5913082e-151
7.5913082e-151
7.5913082e-151
7.5913082e-151
7.5913082e-151
7.5913082e-151
7.5913082e-151
7.5913082e-151
7.5913082e-151
7.5913082e-151
7.5913082e-151
7.5913082e-151
7.5913082e-151
7.5913082e-151
7.5913082e-151
7.5913082e-151
7.5913082e-151
7.5913082e-151
7.5913082e-151
7.5913082e-151
7.5913082e-151
7.5913082e-151
7.5913082e-151
7.5913082e-151
7.5913082e-151
7.5913082e-151
7.5913082e-151
7.5913082e-151
7.5913082e-151
7.5913082e-151
7.5913082e-151
7.5913082e-151
7.5913082e-151
7.5913082e-151
7.5913082e-151
7.5913082e-151
7.5913082e-151
7.5913082e-151
7.5913082e-151
7.5913082e-151
7.5913082e-151
7.5913082e-151
7.5913082e-151
7.5913082e-151
7.5913082e-151
7.5913082e-151
7.5913082e-151
7.5913082e-151
7.5913082e-151
7.5913082e-151
7.5913082e-151
7.5913082e-151
7.5913082e-151
7.5913082e-151
7.5913082e-151
7.5913082e-151
7.5913082e-151
7.5913082e-151
7.5913082e-151
7.5913082e-151
7.5913082e-151
7.5913082e-151
7.5913082e-151
7.5913082e-151
7.5913082e-151
7.5913082e-151
7.5913082e-151
7.5913082e-151
7.5913082e-151
7.5913082e-151
7.5913082e-151
7.5913082e-151
7.5913082e-151
7.5913082e-151
7.5913082e-151
7.5913082e-151
7.5913082e-151
7.5913082e-151
7.5913082e-151
7.5913082e-151
7.5913082e-151
7.5913082e-151
7.5913082e-151
7.5913082e-151
7.5913082e-151
7.5913082e-151
7.5913082e-151
7.5913082e-151
7.5913082e-151
7.5913082e-151
7.5913082e-151
7.5913082e-151
7.5913082e-151
7.5913082e-151
7.5913082e-151
7.5913082e-151
7.5913082e-151
7.5913082e-151
7.5913082e-151
7.5913082e-151
7.5913082e-151
7.5913082e-151
7.5913082e-151
7.5913082e-151
7.5913082e-151
7.5913082e-151
7.5913082e-151
7.5913082e-151
7.5913082e-151
7.5913082e-151
7.5913082e-151
7.5913082e-151
7.5913082e-151
7.5913082e-151
7.5913082e-151
7.5913082e-151
7.5913082e-151
7.5913082e-151
7.5913082e-151
7.5913082e-151
7.5913082e-151
7.5913082e-151
7.5913082e-151
7.5913082e-151
7.5913082e-151
7.5913082e-151
7.5913082e-151
7.5913082e-151
7.5913082e-151
7.5913082e-151
7.5913082e-151
7.5913082e-151
7.5913082e-151
7.5913082e-151
7.5913082e-151
7.5913082e-151
7.5913082e-151
7.5913082e-151
7.5913082e-151
7.5913082e-151
7.5913082e-151
7.5913082e-151
7.5913082e-151
7.5913082e-151
7.5913082e-151
7.5913082e-151
7.5913082e-151
7.5913082e-151
7.5913082e-151
7.5913082e-151
7.5913082e-151
7.5913082e-151
7.5913082e-151
7.5913082e-151
7.5913082e-151
7.5913082e-151
7.5913082e-151
7.5913082e-151
7.5913082e-151
7.5913082e-151
7.5913082e-151
7.5913082e-151
7.5913082e-151
7.5913082e-151
7.5913082e-151
7.5913082e-151
7.5913082e-151
7.5913082e-151
7.5913082e-151
7.5913082e-151
7.5913082e-151
7.5913082e-151
7.5913082e-151
7.5913082e-151
7.5913082e-151
7.5913082e-151
7.5913082e-151
7.5913082e-151
7.5913082e-151
7.5913082e-151
7.5913082e-151
7.5913082e-151
7.5913082e-151
7.5913082e-151
7.5913082e-151
7.5913082e-151
7.5913082e-151
7.5913082e-151
7.5913082e-151
7.5913082e-151
7.5913082e-151
7.5913082e-151
7.5913082e-151
7.5913082e-151
7.5913082e-151
7.5913082e-151
7.5913082e-151
7.5913082e-151
7.5913082e-151
7.5913082e-151
7.5913082e-151
7.5913082e-151
7.5913082e-151
7.5913082e-151
7.5913082e-151
7.5913082e-151
7.5913082e-151
7.5913082e-151
7.5913082e-151
7.5913082e-151
7.5913082e-151
7.5913082e-151
7.5913082e-151
7.5913082e-151
7.5913082e-151
7.5913082e-151
7.5913082e-151
7.5913082e-151
7.5913082e-151
7.5913082e-151
7.5913082e-151
7.5913082e-151
7.5913082e-151
7.5913082e-151
7.5913082e-151
7.5913082e-151
7.5913082e-151
7.5913082e-151
7.5913082e-151
7.5913082e-151
7.5913082e-151
7.5913082e-151
7.5913082e-151
7.5913082e-151
7.5913082e-151
7.5913082e-151
7.5913082e-151
7.5913082e-151
7.5913082e-151
7.5913082e-151
7.5913082e-151
7.5913082e-151
7.5913082e-151
7.5913082e-151
7.5913082e-151
7.5913082e-151
7.5913082e-151
7.5913082e-151
7.5913082e-151
7.5913082e-151
7.5913082e-151
7.5913082e-151
7.5913082e-151
7.5913082e-151
7.5913082e-151
7.5913082e-151
7.5913082e-151
7.5913082e-151
7.5913082e-151
7.5913082e-151
7.5913082e-151
7.5913082e-151
7.5913082e-151
7.5913082e-151
7.5913082e-151
7.5913082e-151
7.5913082e-151
7.5913082e-151
7.5913082e-151
7.5913082e-151
7.5913082e-151
7.5913082e-151
7.5913082e-151
7.5913082e-151
7.5913082e-151
7.5913082e-151
7.5913082e-151
7.5913082e-151
7.5913082e-151
7.5913082e-151
7.5913082e-151
7.5913082e-151
7.5913082e-151
7.5913082e-151
7.5913082e-151
7.5913082e-151
7.5913082e-151
7.5913082e-151
7.5913082e-151
7.5913082e-151
7.5913082e-151
7.5913082e-151
7.5913082e-151
7.5913082e-151
7.5913082e-151
7.5913082e-151
7.5913082e-151
7.5913082e-151
7.5913082e-151
7.5913082e-151
7.5913082e-151
7.5913082e-151
7.5913082e-151
7.5913082e-151
7.5913082e-151
7.5913082e-151
7.5913082e-151
7.5913082e-151
7.5913082e-151
7.5913082e-151
7.5913082e-151
7.5913082e-151
7.5913082e-151
7.5913082e-151
7.5913082e-151
7.5913082e-151
7.5913082e-151
7.5913082e-151
7.5913082e-151
7.5913082e-151
7.5913082e-151
7.5913082e-151
7.5913082e-151
7.5913082e-151
7.5913082e-151
7.5913082e-151
7.5913082e-151
7.5913082e-151
7.5913082e-151
7.5913082e-151
7.5913082e-151
7.5913082e-151
7.5913082e-151
7.5913082e-151
7.5913082e-151
7.5913082e-151
7.5913082e-151
7.5913082e-151
7.5913082e-151
7.5913082e-151
7.5913082e-151
7.5913082e-151
7.5913082e-151
7.5913082e-151
7.5913082e-151
7.5913082e-151
7.5913082e-151
7.5913082e-151
7.5913082e-151
7.5913082e-151
7.5913082e-151
7.5913082e-151
7.5913082e-151
7.5913082e-151
7.5913082e-151
7.5913082e-151
7.5913082e-151
7.5913082e-151
7.5913082e-151
7.5913082e-151
7.5913082e-151
7.5913082e-151
7.5913082e-151
7.5913082e-151
7.5913082e-151
7.5913082e-151
7.5913082e-151
7.5913082e-151
7.5913082e-151
7.5913082e-151
7.5913082e-151
)
;

boundaryField
{
    Wall
    {
        type            zeroGradient;
    }
    frontAndBack
    {
        type            empty;
    }
    atmosphere
    {
        type            zeroGradient;
    }
}


// ************************************************************************* //
