/*--------------------------------*- C++ -*----------------------------------*\
| =========                 |                                                 |
| \\      /  F ield         | OpenFOAM: The Open Source CFD Toolbox           |
|  \\    /   O peration     | Version:  3.0.1                                 |
|   \\  /    A nd           | Web:      www.OpenFOAM.org                      |
|    \\/     M anipulation  |                                                 |
\*---------------------------------------------------------------------------*/
FoamFile
{
    version     2.0;
    format      ascii;
    class       volScalarField;
    location    "13";
    object      mTwo;
}
// * * * * * * * * * * * * * * * * * * * * * * * * * * * * * * * * * * * * * //

dimensions      [0 0 0 0 0 0 0];

internalField   nonuniform List<scalar> 
800
(
9.1190972e-13
9.1185312e-13
9.1182441e-13
9.1180913e-13
9.1179783e-13
9.1178881e-13
9.1178195e-13
9.11777e-13
9.117738e-13
9.1177221e-13
9.1177222e-13
9.117738e-13
9.11777e-13
9.1178196e-13
9.1178883e-13
9.1179784e-13
9.1180914e-13
9.1182443e-13
9.1185312e-13
9.1190973e-13
6.3818248e-13
6.4314729e-13
6.4365079e-13
6.4381248e-13
6.4395345e-13
6.4406761e-13
6.4415607e-13
6.4421936e-13
6.4425955e-13
6.4427906e-13
6.4427907e-13
6.4425954e-13
6.4421935e-13
6.4415607e-13
6.4406762e-13
6.4395346e-13
6.4381251e-13
6.4365083e-13
6.4314732e-13
6.3818248e-13
4.0007538e-13
4.0399463e-13
4.0451592e-13
4.0471771e-13
4.0486793e-13
4.0498337e-13
4.0506862e-13
4.0512777e-13
4.051648e-13
4.0518267e-13
4.0518267e-13
4.0516479e-13
4.0512775e-13
4.050686e-13
4.0498335e-13
4.0486791e-13
4.047177e-13
4.0451591e-13
4.0399462e-13
4.0007534e-13
2.4223546e-13
2.4566524e-13
2.4604893e-13
2.462053e-13
2.4631143e-13
2.4638806e-13
2.4644086e-13
2.4647544e-13
2.4649642e-13
2.4650634e-13
2.4650634e-13
2.4649641e-13
2.4647543e-13
2.4644084e-13
2.4638805e-13
2.4631142e-13
2.4620529e-13
2.4604893e-13
2.4566524e-13
2.4223543e-13
1.1284264e-13
1.165621e-13
1.1680409e-13
1.1691054e-13
1.1697048e-13
1.1700767e-13
1.1702871e-13
1.1704034e-13
1.1704677e-13
1.1704959e-13
1.1704959e-13
1.1704676e-13
1.1704034e-13
1.170287e-13
1.1700766e-13
1.1697048e-13
1.1691054e-13
1.1680409e-13
1.1656211e-13
1.1284264e-13
3.8811136e-14
4.0491069e-14
4.064118e-14
4.0703193e-14
4.0725202e-14
4.0731317e-14
4.0732761e-14
4.0729951e-14
4.0728403e-14
4.0727302e-14
4.0727302e-14
4.0728402e-14
4.0729951e-14
4.0732762e-14
4.0731323e-14
4.0725209e-14
4.07032e-14
4.0641192e-14
4.0491081e-14
3.8811144e-14
1.1914663e-14
1.2814021e-14
1.2945752e-14
1.2969479e-14
1.296777e-14
1.2958252e-14
1.2951296e-14
1.2945192e-14
1.294165e-14
1.2938934e-14
1.2938934e-14
1.2941649e-14
1.2945191e-14
1.2951299e-14
1.2958255e-14
1.2967777e-14
1.2969492e-14
1.2945762e-14
1.2814032e-14
1.1914673e-14
2.9704113e-15
3.7224859e-15
3.8739701e-15
3.8902727e-15
3.8759641e-15
3.8586998e-15
3.8436429e-15
3.8360877e-15
3.830718e-15
3.827364e-15
3.8273625e-15
3.8307173e-15
3.8360837e-15
3.8436424e-15
3.8587027e-15
3.8759675e-15
3.8902828e-15
3.8739739e-15
3.7224918e-15
2.970418e-15
5.1972539e-16
9.5955589e-16
1.0950857e-15
1.1252087e-15
1.1199317e-15
1.1070123e-15
1.0939899e-15
1.086506e-15
1.081275e-15
1.0785269e-15
1.0785255e-15
1.0812742e-15
1.0865021e-15
1.0939885e-15
1.1070134e-15
1.1199322e-15
1.1252129e-15
1.0950869e-15
9.5955747e-16
5.1972786e-16
6.3680453e-17
2.1341591e-16
2.8704929e-16
3.1175282e-16
3.138401e-16
3.0873223e-16
3.022975e-16
2.9809983e-16
2.9515654e-16
2.9367067e-16
2.9367001e-16
2.9515596e-16
2.9809786e-16
3.0229647e-16
3.0873237e-16
3.1383967e-16
3.1175405e-16
2.8704952e-16
2.134161e-16
6.3680942e-17
5.7952434e-18
4.1077659e-17
6.9492806e-17
8.2276922e-17
8.5035984e-17
8.3752383e-17
8.1447295e-17
7.9749991e-17
7.854391e-17
7.7944004e-17
7.7943781e-17
7.8543608e-17
7.9749221e-17
8.1446796e-17
8.3752324e-17
8.5035595e-17
8.2277104e-17
6.9492833e-17
4.1077612e-17
5.7953086e-18
4.1978583e-19
6.9818186e-18
1.5657745e-17
2.0699841e-17
2.2244919e-17
2.20813e-17
2.1417888e-17
2.0859561e-17
2.0456387e-17
2.0257257e-17
2.0257192e-17
2.0456261e-17
2.0859308e-17
2.1417686e-17
2.2081236e-17
2.2244734e-17
2.0699819e-17
1.565774e-17
6.9817928e-18
4.1979222e-19
2.5650903e-20
1.0766089e-18
3.3246961e-18
4.986256e-18
5.6207036e-18
5.6550055e-18
5.4948183e-18
5.3361802e-18
5.2193413e-18
5.1617571e-18
5.1617393e-18
5.2192956e-18
5.336105e-18
5.4947471e-18
5.6549685e-18
5.6206368e-18
4.9862275e-18
3.3246911e-18
1.076602e-18
2.5651412e-20
1.3798822e-21
1.5485414e-19
6.7395024e-19
1.1560701e-18
1.3734042e-18
1.4062412e-18
1.3736205e-18
1.3334337e-18
1.303015e-18
1.288002e-18
1.2879971e-18
1.3030004e-18
1.3334123e-18
1.3735976e-18
1.406225e-18
1.3733838e-18
1.1560575e-18
6.7394789e-19
1.5485282e-19
1.3799162e-21
6.7469535e-23
2.1302723e-20
1.3185774e-19
2.591277e-19
3.2486609e-19
3.3936679e-19
3.34013e-19
3.2478225e-19
3.175147e-19
3.1390524e-19
3.1390389e-19
3.1751039e-19
3.2477635e-19
3.3400613e-19
3.3936075e-19
3.2486049e-19
2.5912355e-19
1.3185688e-19
2.1302506e-20
6.7471534e-23
3.0813411e-24
2.8604629e-21
2.5093599e-20
5.6317654e-20
7.4432983e-20
7.9419707e-20
7.8856877e-20
7.6919521e-20
7.5305521e-20
7.4493597e-20
7.4493228e-20
7.5304345e-20
7.6917921e-20
7.8854921e-20
7.9417742e-20
7.4431514e-20
5.6316477e-20
2.5093342e-20
2.8604289e-21
3.0814439e-24
1.3514715e-25
3.8031793e-22
4.666247e-21
1.188665e-20
1.652266e-20
1.8008611e-20
1.8046517e-20
1.7674843e-20
1.7339146e-20
1.7166746e-20
1.7166647e-20
1.733884e-20
1.7674419e-20
1.8045987e-20
1.8008037e-20
1.6522283e-20
1.1886344e-20
4.6661779e-21
3.8031248e-22
1.3515176e-25
5.8772407e-27
5.0457074e-23
8.4945634e-22
2.4379493e-21
3.5536815e-21
3.954023e-21
3.9987241e-21
3.934084e-21
3.8684286e-21
3.8336993e-21
3.8336739e-21
3.8683526e-21
3.9339756e-21
3.9985868e-21
3.9538699e-21
3.5535835e-21
2.4378761e-21
8.4943927e-22
5.0456168e-23
5.8774132e-27
2.62697e-28
6.692172e-24
1.514071e-22
4.8594448e-22
7.4062756e-22
8.4033969e-22
8.5733679e-22
8.4738586e-22
8.3529242e-22
8.2863767e-22
8.2863149e-22
8.3527421e-22
8.4735911e-22
8.5730294e-22
8.403017e-22
7.4060237e-22
4.8592775e-22
1.5140318e-22
6.6920196e-24
2.6270138e-28
1.2470523e-29
8.8539472e-25
2.640316e-23
9.4129712e-23
1.4959913e-22
1.728737e-22
1.7783888e-22
1.7656883e-22
1.744721e-22
1.7325767e-22
1.7325624e-22
1.7446791e-22
1.7656251e-22
1.7783091e-22
1.7286482e-22
1.4959288e-22
9.4126009e-23
2.6402321e-23
8.8536929e-25
1.2470485e-29
6.3942193e-31
1.1637239e-25
4.500129e-24
1.7719068e-23
2.9296485e-23
3.443505e-23
3.5699698e-23
3.5596019e-23
3.5254871e-23
3.5043706e-23
3.5043385e-23
3.5253941e-23
3.5594592e-23
3.5697904e-23
3.4433079e-23
2.9295009e-23
1.7718276e-23
4.4999572e-24
1.1636823e-25
6.3940544e-31
3.5208395e-32
1.51285e-26
7.4893009e-25
3.2417448e-24
5.5650153e-24
6.645314e-24
6.939186e-24
6.9463593e-24
6.8946194e-24
6.859634e-24
6.8595652e-24
6.8944208e-24
6.9460508e-24
6.9387986e-24
6.6448945e-24
5.564686e-24
3.24158e-24
7.4889669e-25
1.5127841e-26
3.5206742e-32
2.0382654e-33
1.9378337e-27
1.2161725e-25
5.7656666e-25
1.0259696e-24
1.2433385e-24
1.3070265e-24
1.3130965e-24
1.3058822e-24
1.3003618e-24
1.3003476e-24
1.3058413e-24
1.3130325e-24
1.3069464e-24
1.2432527e-24
1.0259e-24
5.765334e-25
1.2161103e-25
1.9377338e-27
2.0381349e-33
1.2116446e-34
2.4385644e-28
1.9261676e-26
9.9726914e-26
1.836981e-25
2.2572461e-25
2.387618e-25
2.4065433e-25
2.3975691e-25
2.3892839e-25
2.3892556e-25
2.3974881e-25
2.4064162e-25
2.3874588e-25
2.2570767e-25
1.8368407e-25
9.9720388e-26
1.9260555e-26
2.4384196e-28
1.211551e-34
7.2606615e-36
3.0084319e-29
2.9747553e-27
1.6782788e-26
3.1965448e-26
3.9797703e-26
4.2339306e-26
4.2800686e-26
4.2708639e-26
4.2590682e-26
4.2590136e-26
4.2707085e-26
4.2798254e-26
4.2336256e-26
3.9794473e-26
3.1962749e-26
1.6781551e-26
2.9745601e-27
3.0082296e-29
7.2600236e-36
4.3330615e-37
3.6335249e-30
4.4798743e-28
2.7493288e-27
5.4097381e-27
6.8202846e-27
7.2948851e-27
7.3939691e-27
7.3884341e-27
7.3725863e-27
7.3724857e-27
7.3881467e-27
7.3935199e-27
7.2943213e-27
6.8196882e-27
5.4092391e-27
2.7491019e-27
4.479544e-28
3.633251e-30
4.3326418e-37
2.5564476e-38
4.2926051e-31
6.5796435e-29
4.3866982e-28
8.9105889e-28
1.1370525e-27
1.222304e-27
1.2418769e-27
1.2424874e-27
1.2404981e-27
1.2404803e-27
1.2424361e-27
1.2417966e-27
1.2222029e-27
1.1369456e-27
8.9096978e-28
4.3862956e-28
6.5791006e-29
4.292244e-31
2.5561791e-38
1.4846591e-39
4.9580183e-32
9.4269992e-30
6.8209352e-29
1.4294983e-28
1.8456419e-28
1.9934382e-28
2.0297591e-28
2.0329798e-28
2.0306934e-28
2.0306628e-28
2.0328909e-28
2.0296198e-28
1.9932625e-28
1.845456e-28
1.429344e-28
6.8202434e-29
9.4261279e-30
4.957553e-32
1.4844897e-39
8.482301e-41
5.5975531e-33
1.3180325e-30
1.0341802e-29
2.2351879e-29
2.9190654e-29
3.1670101e-29
3.2310936e-29
3.2393459e-29
3.237049e-29
3.2369977e-29
3.2391968e-29
3.2308589e-29
3.1667133e-29
2.9187504e-29
2.2349282e-29
1.0340648e-29
1.3178962e-30
5.5969659e-33
8.4649048e-41
4.8500848e-42
6.1770989e-34
1.7990026e-31
1.5298438e-30
3.4087519e-30
4.5018882e-30
4.9052624e-30
5.0135964e-30
5.0306954e-30
5.0289475e-30
5.0288639e-30
5.0304517e-30
5.0132111e-30
4.9047749e-30
4.5013686e-30
3.4083259e-30
1.5296563e-30
1.7987942e-31
6.1763719e-34
4.732679e-42
2.9768965e-43
6.663789e-35
2.3981637e-32
2.2092674e-31
5.0736014e-31
6.7750154e-31
7.4125415e-31
7.588943e-31
7.6206048e-31
7.6203551e-31
7.6202215e-31
7.6202161e-31
7.5883269e-31
7.4117609e-31
6.7741799e-31
5.0729195e-31
2.2089706e-31
2.3978528e-32
6.662904e-35
2.5923843e-43
2.2181525e-44
7.0292014e-36
3.1236847e-33
3.1163721e-32
7.3748969e-32
9.9560413e-32
1.0936386e-31
1.1214115e-31
1.126854e-31
1.1271261e-31
1.1271053e-31
1.1267935e-31
1.1213155e-31
1.0935166e-31
9.95473e-32
7.3738304e-32
3.1159136e-32
3.1232319e-33
7.0281415e-36
1.3907462e-44
2.0793438e-45
7.2521675e-37
3.9774445e-34
4.2963163e-33
1.0475715e-32
1.4295752e-32
1.576438e-32
1.6188396e-32
1.6276893e-32
1.6284727e-32
1.6284411e-32
1.6275974e-32
1.6186934e-32
1.5762516e-32
1.4293743e-32
1.0474086e-32
4.2956251e-33
3.9767998e-34
7.2509165e-37
7.3066672e-46
2.1775463e-46
7.3207893e-38
4.9533709e-35
5.7920321e-34
1.4549888e-33
2.0069761e-33
2.2215542e-33
2.2844712e-33
2.298232e-33
2.2998228e-33
2.2997758e-33
2.2980955e-33
2.2842536e-33
2.2212761e-33
2.0066758e-33
1.4547454e-33
5.791013e-34
4.9524742e-35
7.3193329e-38
3.7597485e-47
2.2570355e-47
7.233405e-39
6.0362904e-36
7.6399438e-35
1.9771283e-34
2.7564624e-34
3.0625385e-34
3.1534397e-34
3.1740438e-34
3.1768327e-34
3.1767643e-34
3.1738453e-34
3.1531234e-34
3.0621327e-34
2.7560234e-34
1.9767729e-34
7.6384772e-35
6.0350728e-36
7.231734e-39
1.8952389e-48
2.1888113e-48
6.9984049e-40
7.2015214e-37
9.8651817e-36
2.6299743e-35
3.7058336e-35
4.1324405e-35
4.2605077e-35
4.2903545e-35
4.2948376e-35
4.2947406e-35
4.2900722e-35
4.2600578e-35
4.1318615e-35
3.7052056e-35
2.6294672e-35
9.8631191e-36
7.1999078e-37
6.9965173e-40
9.361973e-50
1.9439921e-49
6.6329891e-41
8.4153754e-38
1.2476731e-36
3.4264416e-36
4.8795887e-36
5.4610583e-36
5.6372233e-36
5.6791945e-36
5.6859775e-36
5.6858428e-36
5.6788016e-36
5.6365971e-36
5.46025e-36
4.8787103e-36
3.4257342e-36
1.24739e-36
8.4132901e-38
6.6308963e-41
4.5334039e-51
1.5658396e-50
6.1611085e-42
9.6366248e-39
1.5463089e-37
4.3745771e-37
6.2961369e-37
7.071746e-37
7.3085998e-37
7.3660393e-37
7.3758361e-37
7.3756525e-37
7.3655046e-37
7.3077465e-37
7.0706413e-37
6.294935e-37
4.3736119e-37
1.5459293e-37
9.6339958e-39
6.1588372e-42
2.1528045e-52
1.1508975e-51
5.6109164e-43
1.0818865e-39
1.8789018e-38
5.4757992e-38
7.9649003e-38
8.9780301e-38
9.2895765e-38
9.3662285e-38
9.3798487e-38
9.3796039e-38
9.365517e-38
9.2884378e-38
8.9765522e-38
7.9632905e-38
5.4745119e-38
1.8784047e-38
1.0815633e-39
5.6085098e-43
1.162567e-53
7.859951e-53
5.012103e-44
1.1913604e-40
2.2393951e-39
6.7233859e-39
9.8835931e-39
1.1180362e-38
1.1581597e-38
1.1681499e-38
1.1699823e-38
1.1699505e-38
1.1680573e-38
1.158011e-38
1.1178427e-38
9.8814843e-39
6.7217068e-39
2.238759e-39
1.1909729e-40
5.0096209e-44
9.3976915e-55
)
;

boundaryField
{
    Wall
    {
        type            zeroGradient;
    }
    frontAndBack
    {
        type            empty;
    }
    atmosphere
    {
        type            zeroGradient;
    }
}


// ************************************************************************* //
