/*--------------------------------*- C++ -*----------------------------------*\
| =========                 |                                                 |
| \\      /  F ield         | OpenFOAM: The Open Source CFD Toolbox           |
|  \\    /   O peration     | Version:  3.0.1                                 |
|   \\  /    A nd           | Web:      www.OpenFOAM.org                      |
|    \\/     M anipulation  |                                                 |
\*---------------------------------------------------------------------------*/
FoamFile
{
    version     2.0;
    format      ascii;
    class       volScalarField;
    location    "13";
    object      mZero;
}
// * * * * * * * * * * * * * * * * * * * * * * * * * * * * * * * * * * * * * //

dimensions      [0 0 0 0 0 0 0];

internalField   nonuniform List<scalar> 
800
(
1e+13
1e+13
1e+13
1e+13
1e+13
1e+13
1e+13
1e+13
1e+13
1e+13
1e+13
1e+13
1e+13
1e+13
1e+13
1e+13
1e+13
1e+13
1e+13
1e+13
1e+13
1e+13
1e+13
1e+13
1e+13
1e+13
1e+13
1e+13
1e+13
1e+13
1e+13
1e+13
1e+13
1e+13
1e+13
1e+13
1e+13
1e+13
1e+13
1e+13
8.8939863e+12
8.9004761e+12
8.9014603e+12
8.9015794e+12
8.9015683e+12
8.9015389e+12
8.901501e+12
8.9014645e+12
8.9014369e+12
8.9014227e+12
8.9014227e+12
8.9014369e+12
8.9014644e+12
8.9015009e+12
8.9015388e+12
8.9015683e+12
8.9015794e+12
8.9014602e+12
8.900476e+12
8.8939862e+12
7.1916486e+12
7.2086016e+12
7.2095292e+12
7.2092284e+12
7.2088513e+12
7.2085058e+12
7.2082054e+12
7.2079662e+12
7.2078036e+12
7.2077217e+12
7.2077218e+12
7.2078037e+12
7.2079665e+12
7.2082057e+12
7.2085062e+12
7.2088519e+12
7.209229e+12
7.2095298e+12
7.2086023e+12
7.1916493e+12
5.270422e+12
5.3181288e+12
5.3215351e+12
5.3211016e+12
5.3200833e+12
5.3191041e+12
5.318269e+12
5.3176304e+12
5.3172108e+12
5.3170018e+12
5.317002e+12
5.3172112e+12
5.3176311e+12
5.3182698e+12
5.3191052e+12
5.3200846e+12
5.321103e+12
5.3215365e+12
5.3181304e+12
5.2704237e+12
3.3238713e+12
3.4486664e+12
3.470322e+12
3.4735301e+12
3.4724784e+12
3.4706117e+12
3.4691255e+12
3.4678254e+12
3.4670358e+12
3.4666311e+12
3.4666312e+12
3.4670362e+12
3.4678262e+12
3.4691266e+12
3.4706131e+12
3.4724799e+12
3.4735318e+12
3.4703239e+12
3.4486683e+12
3.3238739e+12
1.6658886e+12
1.8635394e+12
1.923705e+12
1.9374337e+12
1.9384018e+12
1.9362396e+12
1.9343073e+12
1.9329129e+12
1.9320158e+12
1.9314439e+12
1.931444e+12
1.9320157e+12
1.9329129e+12
1.934308e+12
1.93624e+12
1.9384028e+12
1.9374357e+12
1.9237062e+12
1.8635407e+12
1.6658914e+12
6.1005064e+11
8.5068425e+11
9.3787123e+11
9.6301283e+11
9.6613894e+11
9.6372489e+11
9.6018532e+11
9.5850249e+11
9.5715188e+11
9.5630352e+11
9.56303e+11
9.571516e+11
9.5850109e+11
9.6018464e+11
9.6372481e+11
9.6613872e+11
9.6301422e+11
9.3787062e+11
8.5068485e+11
6.1005275e+11
1.4668217e+11
3.303898e+11
4.134852e+11
4.4263377e+11
4.4783487e+11
4.4578979e+11
4.4196702e+11
4.3973134e+11
4.3801531e+11
4.371211e+11
4.3712045e+11
4.3801486e+11
4.3972942e+11
4.419658e+11
4.4578932e+11
4.4783375e+11
4.4263383e+11
4.1348417e+11
3.3038924e+11
1.4668311e+11
2.3729274e+10
1.0977499e+11
1.6613185e+11
1.8998971e+11
1.9581699e+11
1.9500759e+11
1.9244828e+11
1.9059829e+11
1.8923608e+11
1.8855847e+11
1.8855805e+11
1.8923554e+11
1.9059689e+11
1.9244719e+11
1.9500696e+11
1.9581574e+11
1.8998917e+11
1.66131e+11
1.0977432e+11
2.3729484e+10
2.8125092e+09
3.1870812e+10
6.1404373e+10
7.6419086e+10
8.098558e+10
8.1009262e+10
7.976222e+10
7.8663521e+10
7.7867053e+10
7.7475797e+10
7.7475604e+10
7.7866617e+10
7.8662735e+10
7.9761482e+10
8.1008771e+10
8.0984668e+10
7.6418469e+10
6.1403884e+10
3.1870411e+10
2.8125358e+09
2.6922978e+08
8.3301022e+09
2.1090378e+10
2.887852e+10
3.1661393e+10
3.1932515e+10
3.1454624e+10
3.0933955e+10
3.0554445e+10
3.0369232e+10
3.0369147e+10
3.0554183e+10
3.0933572e+10
3.1454204e+10
3.1932189e+10
3.1660887e+10
2.8878113e+10
2.1090133e+10
8.3299419e+09
2.6923144e+08
22785792
2.0165334e+09
6.7865102e+09
1.0272087e+10
1.1687131e+10
1.1920647e+10
1.1773832e+10
1.1565657e+10
1.141009e+10
1.1334164e+10
1.1334126e+10
1.1409961e+10
1.1565484e+10
1.1773623e+10
1.1920456e+10
1.1686902e+10
1.0271879e+10
6.7863995e+09
2.0164824e+09
22785734
1841047.3
4.6130701e+08
2.0571971e+09
3.4437977e+09
4.0700813e+09
4.2073271e+09
4.1731674e+09
4.1008372e+09
4.0443216e+09
4.0165094e+09
4.0164926e+09
4.0442661e+09
4.1007634e+09
4.1730743e+09
4.2072304e+09
4.0699892e+09
3.4437083e+09
2.0571523e+09
4.6129288e+08
1841014.6
150141.3
1.0078038e+08
5.8942362e+08
1.0894056e+09
1.3372038e+09
1.4027098e+09
1.398578e+09
1.3764077e+09
1.3579164e+09
1.3486475e+09
1.3486406e+09
1.3578947e+09
1.376378e+09
1.39854e+09
1.4026671e+09
1.3371692e+09
1.0893718e+09
5.8940746e+08
1.0077679e+08
150135.72
12666.676
21102270
1.5995234e+08
3.2556154e+08
4.1476735e+08
4.4176512e+08
4.4300356e+08
4.3697826e+08
4.3147776e+08
4.2864155e+08
4.2863891e+08
4.3146992e+08
4.3696706e+08
4.4298921e+08
4.4174846e+08
4.147548e+08
3.2554984e+08
1.5994709e+08
21101408
12665.958
1099.6783
4235771.7
41174569
92046964
1.2162149e+08
1.3153411e+08
1.3269961e+08
1.3125521e+08
1.2975872e+08
1.2895799e+08
1.2895706e+08
1.2975605e+08
1.3125127e+08
1.3269458e+08
1.3152825e+08
1.2161714e+08
92043184
41173003
4235576.6
1099.5985
96.322038
814448.59
10069022
24665525
33775158
37080458
37638456
37339793
36965955
36756651
36756353
36965101
37338501
37636817
37078570
33773705
24664395
10068584
814406.82
96.313963
8.3497226
149936.87
2342976
6276889.1
8901640.5
9916015.6
10126608
10076816
9990896.3
9940081.3
9939991.5
9990638.8
10076421
10126109
9915451.1
8901182
6276571.2
2342860.4
149928.4
8.3489544
0.70706513
26430.855
519676.34
1520201.2
2231445.8
2520855
2589770
2584743.5
2566583.3
2555088.7
2555063.3
2566510.2
2584630.3
2589627.7
2520696.7
2231310.9
1520115.9
519647.76
26429.211
0.70699572
0.058073975
4464.2263
110074.7
351159.67
533234.29
610597.65
630922.21
631504.87
627990.02
625560.46
625553.71
627970.51
631474.41
630884.02
610555.78
533197.31
351137.84
110068
4463.9207
0.058067982
0.0046109282
723.19124
22307.339
77533.064
121736.02
141233.21
146747.47
147281.18
146665.26
146184.34
146182.63
146660.32
147273.45
146737.77
141222.7
121726.56
77527.712
22305.849
723.13694
0.0046104308
0.00035348233
112.50504
4333.3226
16396.319
26607.738
31263.778
32657.859
32859.735
32764.622
32675.358
32674.948
32763.439
32857.88
32655.529
31261.264
26605.469
16395.064
4333.0065
112.49585
0.00035344256
2.6164294e-05
16.830454
808.33288
3327.6336
5579.0243
6636.9946
6968.3514
7027.9591
7015.9249
7000.3947
7000.3008
7015.6548
7027.5356
6967.8192
6636.4216
5578.5089
3327.3521
808.26849
16.828967
2.6161216e-05
1.8709507e-06
2.4245899
145.04547
649.3159
1124.3296
1353.8653
1428.406
1443.7759
1442.8573
1440.3319
1440.3114
1442.7983
1443.6837
1428.2899
1353.7403
1124.2181
649.2556
145.03285
2.424359
1.8707202e-06
1.2936215e-07
0.33683052
25.076799
122.02755
218.16569
265.85572
281.80806
285.41854
285.51497
285.1339
285.12961
285.50265
285.39928
281.78378
265.82957
218.14258
122.01518
25.074411
0.33679591
1.2934545e-07
8.6572828e-09
0.045186834
4.1837159
22.122854
40.828003
50.340869
53.602206
54.391415
54.457645
54.405108
54.404255
54.455174
54.387549
53.597316
50.335599
40.82339
22.120417
4.1832802
0.045181808
8.6561132e-09
5.6136443e-10
0.0058615662
0.67453123
3.8748868
7.3804248
9.2062984
9.8454372
10.007995
10.028132
10.021746
10.021583
10.027655
10.007247
9.8444882
9.2052739
7.3795354
3.874424
0.67445416
0.0058608576
5.6128419e-10
3.5354753e-11
0.00073614678
0.10523991
0.6566308
1.2905736
1.6284563
1.7488688
1.7806812
1.7855443
1.7849254
1.7848948
1.7854554
1.7805411
1.7486907
1.6282635
1.2904075
0.65654585
0.10522669
0.0007360496
3.5301337e-11
2.1911123e-12
8.961584e-05
0.015909255
0.10779478
0.21859805
0.27898857
0.30085052
0.30680029
0.30783852
0.30781082
0.30780532
0.30782245
0.30677486
0.30081817
0.27895344
0.21856797
0.10777966
0.015907056
8.9602851e-05
2.1557629e-12
1.3975242e-13
1.0586901e-05
0.0023330769
0.017164121
0.035910086
0.046351928
0.050185164
0.051253283
0.051457288
0.05146437
0.051463401
0.051454465
0.051248808
0.050179462
0.046345717
0.035904792
0.017161506
0.0023327214
1.0585204e-05
1.2795366e-13
9.9905914e-15
1.2150244e-06
0.0003322812
0.0026539458
0.0057279832
0.007477131
0.0081274173
0.0083121045
0.0083497437
0.0083525838
0.008352419
0.0083492624
0.00831134
0.0081264405
0.0074760641
0.0057270773
0.0026535067
0.00033222534
1.2148074e-06
7.3887686e-15
8.5130901e-16
1.3560544e-07
4.6008584e-05
0.0003989123
0.00088813227
0.0011723812
0.0012792904
0.0013101326
0.0013167293
0.0013174159
0.0013173885
0.0013166496
0.0013100057
0.0012791277
0.0011722031
0.00088798164
0.00039884061
4.6000041e-05
1.3557823e-07
4.1549735e-16
8.2720679e-17
1.4732129e-08
6.1995528e-06
5.8346854e-05
0.00013399536
0.00017886253
0.00019592062
0.00020090634
0.00020201288
0.00020215119
0.00020214677
0.00020200001
0.00020088583
0.00019589426
0.00017883366
0.00013397098
5.8335462e-05
6.1982821e-06
1.472878e-08
2.2773648e-17
8.311252e-18
1.5593672e-09
8.1372474e-07
8.3123817e-06
1.9690464e-05
2.6577158e-05
2.9222109e-05
3.0003764e-05
3.0182338e-05
3.0207471e-05
3.0206776e-05
3.0180315e-05
3.0000542e-05
2.9217955e-05
2.65726e-05
1.9686626e-05
8.310622e-06
8.1354092e-07
1.5589626e-09
1.217695e-18
8.0495957e-19
1.6095431e-10
1.0412967e-07
1.1544914e-06
2.8207794e-06
3.84975e-06
4.2487688e-06
4.3678149e-06
4.3956462e-06
4.3999018e-06
4.3997958e-06
4.3953367e-06
4.3673218e-06
4.2481315e-06
3.8490493e-06
2.8201915e-06
1.1542269e-06
1.0410381e-07
1.6090642e-10
6.35684e-20
7.2445923e-20
1.6213799e-11
1.3002112e-08
1.5645152e-07
3.942748e-07
5.4408156e-07
6.027127e-07
6.2035051e-07
6.245518e-07
6.2523444e-07
6.2521868e-07
6.2450568e-07
6.2027699e-07
6.0261743e-07
5.439767e-07
3.9418718e-07
1.5641288e-07
1.2998578e-08
1.6208258e-11
3.2424876e-21
5.9446558e-21
1.5952632e-12
1.5853985e-09
2.0703267e-08
5.3813901e-08
7.5085154e-08
8.3484673e-08
8.6030016e-08
8.6645703e-08
8.6750473e-08
8.6748182e-08
8.6639009e-08
8.6019333e-08
8.3470791e-08
7.5069866e-08
5.3801181e-08
2.0697774e-08
1.5849289e-09
1.5946381e-12
1.6172226e-22
4.4606437e-22
1.5341387e-13
1.8891753e-10
2.6772892e-09
7.1776916e-09
1.0125912e-08
1.1300187e-08
1.1658367e-08
1.1746121e-08
1.1761603e-08
1.1761279e-08
1.1745175e-08
1.1656853e-08
1.1298215e-08
1.0123739e-08
7.1758935e-09
2.6765291e-09
1.8885683e-10
1.5334526e-13
8.5938171e-24
3.1151572e-23
1.4430621e-14
2.2015225e-11
3.385781e-10
9.3622788e-10
1.3354182e-09
1.495759e-09
1.5449562e-09
1.5571398e-09
1.5593519e-09
1.5593074e-09
1.5570095e-09
1.5447469e-09
1.4954858e-09
1.3351172e-09
9.3598014e-10
3.3847566e-10
2.2007595e-11
1.4423309e-14
5.8855114e-25
)
;

boundaryField
{
    Wall
    {
        type            zeroGradient;
    }
    frontAndBack
    {
        type            empty;
    }
    atmosphere
    {
        type            zeroGradient;
    }
}


// ************************************************************************* //
