/*--------------------------------*- C++ -*----------------------------------*\
| =========                 |                                                 |
| \\      /  F ield         | OpenFOAM: The Open Source CFD Toolbox           |
|  \\    /   O peration     | Version:  3.0.1                                 |
|   \\  /    A nd           | Web:      www.OpenFOAM.org                      |
|    \\/     M anipulation  |                                                 |
\*---------------------------------------------------------------------------*/
FoamFile
{
    version     2.0;
    format      ascii;
    class       surfaceScalarField;
    location    "13";
    object      phi;
}
// * * * * * * * * * * * * * * * * * * * * * * * * * * * * * * * * * * * * * //

dimensions      [0 3 -1 0 0 0 0];

internalField   nonuniform List<scalar> 
1540
(
2.1299045e-10
2.6938894e-08
2.1870492e-10
2.7177608e-08
1.9181699e-10
2.7213137e-08
1.6665746e-10
2.7213365e-08
1.4240081e-10
2.7214054e-08
1.170546e-10
2.7216295e-08
8.980134e-11
2.7219016e-08
6.0821714e-11
2.72213e-08
3.0688839e-11
2.7222805e-08
-1.4893668e-15
2.7223534e-08
-3.0691361e-11
2.7223534e-08
-6.0822833e-11
2.7222804e-08
-8.9800898e-11
2.7221299e-08
-1.1705278e-10
2.7219015e-08
-1.4239828e-10
2.7216294e-08
-1.6665537e-10
2.7214054e-08
-1.9181625e-10
2.7213365e-08
-2.1870647e-10
2.7213138e-08
-2.1299371e-10
2.7177609e-08
2.693889e-08
8.4174385e-11
5.5943224e-08
1.204674e-10
5.6162201e-08
1.2880309e-10
5.6219337e-08
1.2499632e-10
5.6226137e-08
1.133211e-10
5.6229911e-08
9.5963174e-11
5.6234126e-08
7.4746383e-11
5.6237923e-08
5.1049314e-11
5.6240706e-08
2.5880544e-11
5.6242417e-08
-2.525938e-15
5.6243241e-08
-2.5885124e-11
5.6243241e-08
-5.1052709e-11
5.6242416e-08
-7.4748214e-11
5.6240705e-08
-9.5963827e-11
5.6237922e-08
-1.1332113e-10
5.6234125e-08
-1.2499635e-10
5.622991e-08
-1.2880336e-10
5.6226137e-08
-1.2046763e-10
5.6219338e-08
-8.4174803e-11
5.6162201e-08
5.594322e-08
7.9602925e-11
8.1891643e-08
9.5987335e-11
8.2215209e-08
1.0863664e-10
8.2272371e-08
1.1063958e-10
8.2282781e-08
1.0276365e-10
8.2291365e-08
8.7577655e-11
8.2299166e-08
6.8142567e-11
8.2304611e-08
4.6367443e-11
8.2307941e-08
2.341618e-11
8.2309707e-08
-1.3836145e-15
8.2310457e-08
-2.3418687e-11
8.2310457e-08
-4.6368891e-11
8.2309707e-08
-6.8142712e-11
8.2307941e-08
-8.7576722e-11
8.2304611e-08
-1.0276222e-10
8.2299168e-08
-1.1063825e-10
8.2291368e-08
-1.0863525e-10
8.2282785e-08
-9.5986214e-11
8.2272375e-08
-7.9601763e-11
8.2215213e-08
8.1891645e-08
-1.1580983e-11
1.0589201e-07
5.9966918e-11
1.0623619e-07
1.08678e-10
1.0630734e-07
1.2167365e-10
1.0634884e-07
1.1377441e-10
1.0637734e-07
9.5242526e-11
1.063965e-07
7.2653261e-11
1.0640688e-07
4.8672223e-11
1.0641262e-07
2.4371506e-11
1.0641538e-07
5.7774104e-16
1.0641657e-07
-2.4370116e-11
1.0641657e-07
-4.866972e-11
1.0641537e-07
-7.2649166e-11
1.0641262e-07
-9.523725e-11
1.0640687e-07
-1.1376869e-10
1.063965e-07
-1.2166848e-10
1.0637735e-07
-1.0867293e-10
1.0634885e-07
-5.9963408e-11
1.0630734e-07
1.1582806e-11
1.0623619e-07
1.0589201e-07
-4.8359595e-12
1.2794587e-07
1.1449131e-10
1.2890191e-07
1.9486922e-10
1.2911577e-07
1.9646123e-10
1.2924052e-07
1.6925797e-10
1.292843e-07
1.3409315e-10
1.2929546e-07
9.7939066e-11
1.2929473e-07
6.418988e-11
1.2928783e-07
3.1745458e-11
1.2928301e-07
1.4689529e-15
1.2928027e-07
-3.1741891e-11
1.2928027e-07
-6.4183761e-11
1.2928301e-07
-9.7930292e-11
1.2928783e-07
-1.3408284e-10
1.2929473e-07
-1.6924718e-10
1.2929547e-07
-1.9645326e-10
1.2928432e-07
-1.948607e-10
1.2924054e-07
-1.1448678e-10
1.2911581e-07
4.8340854e-12
1.2890195e-07
1.2794589e-07
1.4075256e-09
1.25294e-07
1.0783776e-09
1.2825058e-07
7.3890539e-10
1.285137e-07
5.2917774e-10
1.285097e-07
3.8152543e-10
1.2848517e-07
2.7550719e-10
1.2844745e-07
1.9151885e-10
1.2841932e-07
1.2128735e-10
1.2839454e-07
5.672287e-11
1.2838151e-07
9.3257326e-17
1.2836953e-07
-5.6721805e-11
1.2836953e-07
-1.2127725e-10
1.2838151e-07
-1.9149464e-10
1.2839454e-07
-2.7547949e-10
1.2841933e-07
-3.8149245e-10
1.2844746e-07
-5.2915302e-10
1.2848521e-07
-7.3891644e-10
1.2850977e-07
-1.0783738e-09
1.2851373e-07
-1.4075311e-09
1.2825063e-07
1.2529403e-07
1.0160745e-08
1.1441885e-07
8.0688263e-09
1.2955305e-07
5.5705433e-09
1.3021918e-07
3.8196425e-09
1.2946793e-07
2.6579156e-09
1.2885524e-07
1.8415612e-09
1.2847334e-07
1.261356e-09
1.2821003e-07
7.8289139e-10
1.2808445e-07
3.7463e-10
1.2800175e-07
-4.4360712e-14
1.2795648e-07
-3.7468619e-10
1.2795644e-07
-7.829407e-10
1.2800175e-07
-1.2613526e-09
1.2808439e-07
-1.8415139e-09
1.2821e-07
-2.6578948e-09
1.2847339e-07
-3.8196273e-09
1.2885527e-07
-5.5705405e-09
1.2946801e-07
-8.0688143e-09
1.302192e-07
-1.0160731e-08
1.2955308e-07
1.1441889e-07
2.5688328e-08
8.8713116e-08
2.8349888e-08
1.2686726e-07
2.4223005e-08
1.343212e-07
1.8899922e-08
1.347664e-07
1.410738e-08
1.3362336e-07
1.0198141e-08
1.3235837e-07
7.0372847e-09
1.3134678e-07
4.4252114e-09
1.3067251e-07
2.1404473e-09
1.3026258e-07
-2.3232796e-13
1.3007323e-07
-2.1408852e-09
1.3007317e-07
-4.4255612e-09
1.3026249e-07
-7.0375239e-09
1.3067234e-07
-1.0198298e-08
1.3134668e-07
-1.41075e-08
1.3235839e-07
-1.8900001e-08
1.3362337e-07
-2.422306e-08
1.3476645e-07
-2.8349937e-08
1.3432124e-07
-2.5688343e-08
1.2686725e-07
8.8713127e-08
2.0154408e-08
6.8558706e-08
2.8706323e-08
1.1831526e-07
2.8513842e-08
1.3451361e-07
2.4549356e-08
1.3873078e-07
1.9552249e-08
1.386204e-07
1.4739714e-08
1.3717081e-07
1.0455023e-08
1.3563136e-07
6.6802976e-09
1.3444712e-07
3.2534863e-09
1.3368929e-07
-2.5693344e-13
1.3332691e-07
-3.2540245e-09
1.3332685e-07
-6.6807511e-09
1.3368914e-07
-1.0455402e-08
1.3444694e-07
-1.4739998e-08
1.3563119e-07
-1.9552457e-08
1.3717074e-07
-2.4549504e-08
1.3862031e-07
-2.8513946e-08
1.3873078e-07
-2.8706404e-08
1.3451359e-07
-2.0154437e-08
1.183152e-07
6.855864e-08
1.2709419e-08
5.5849271e-08
2.1731824e-08
1.0929285e-07
2.4229356e-08
1.3201606e-07
2.257895e-08
1.4038117e-07
1.9031407e-08
1.4216796e-07
1.493688e-08
1.4126537e-07
1.0892266e-08
1.39676e-07
7.0824761e-09
1.3825691e-07
3.4849645e-09
1.3728684e-07
-1.6142002e-13
1.3681207e-07
-3.4853266e-09
1.3681199e-07
-7.0828188e-09
1.3728663e-07
-1.0892574e-08
1.3825665e-07
-1.493711e-08
1.3967576e-07
-1.9031583e-08
1.4126521e-07
-2.2579085e-08
1.4216783e-07
-2.4229411e-08
1.403811e-07
-2.173188e-08
1.3201604e-07
-1.2709428e-08
1.0929277e-07
5.58492e-08
7.4891106e-09
4.8360169e-08
1.4752935e-08
1.0202898e-07
1.8037514e-08
1.2873149e-07
1.7962671e-08
1.4045604e-07
1.5921853e-08
1.4420876e-07
1.297878e-08
1.4420847e-07
9.7283922e-09
1.429264e-07
6.4438169e-09
1.4154151e-07
3.2037454e-09
1.4052686e-07
-6.102922e-14
1.400159e-07
-3.2038659e-09
1.4001583e-07
-6.4439038e-09
1.4052666e-07
-9.7284889e-09
1.4154126e-07
-1.2978846e-08
1.4292611e-07
-1.5921874e-08
1.4420824e-07
-1.7962682e-08
1.4420862e-07
-1.8037545e-08
1.4045594e-07
-1.4752914e-08
1.2873145e-07
-7.4890977e-09
1.0202893e-07
4.8360101e-08
4.318471e-09
4.4041717e-08
9.557015e-09
9.6790439e-08
1.2606723e-08
1.2568175e-07
1.3290282e-08
1.3977248e-07
1.2320316e-08
1.4517873e-07
1.0398322e-08
1.4613045e-07
8.0015643e-09
1.4532315e-07
5.3963066e-09
1.441468e-07
2.7100554e-09
1.4321313e-07
5.5963293e-14
1.4272589e-07
-2.7099349e-09
1.4272584e-07
-5.3962016e-09
1.4321294e-07
-8.0014786e-09
1.4414654e-07
-1.0398241e-08
1.4532287e-07
-1.2320207e-08
1.4613019e-07
-1.3290196e-08
1.4517857e-07
-1.2606627e-08
1.3977237e-07
-9.5569521e-09
1.2568174e-07
-4.3184346e-09
9.6790396e-08
4.4041647e-08
2.519435e-09
4.1522259e-08
6.1084243e-09
9.3201453e-08
8.5698055e-09
1.2322039e-07
9.4770067e-09
1.3886527e-07
9.1367197e-09
1.4551901e-07
7.9568858e-09
1.4731032e-07
6.2717405e-09
1.4700828e-07
4.3006575e-09
1.4611786e-07
2.1811463e-09
1.4533265e-07
1.4416796e-13
1.4490687e-07
-2.1808649e-09
1.4490681e-07
-4.3004105e-09
1.4533249e-07
-6.2715136e-09
1.4611763e-07
-7.9566622e-09
1.4700803e-07
-9.1365204e-09
1.4731006e-07
-9.4768162e-09
1.4551887e-07
-8.5696518e-09
1.388652e-07
-6.1083187e-09
1.232204e-07
-2.5194058e-09
9.3201497e-08
4.1522254e-08
1.512704e-09
4.0009563e-08
3.9210541e-09
9.0793157e-08
5.7708271e-09
1.2137058e-07
6.6391634e-09
1.3799693e-07
6.6187142e-09
1.4553946e-07
5.9239599e-09
1.4800509e-07
4.7696881e-09
1.4816253e-07
3.3197317e-09
1.4756782e-07
1.6983821e-09
1.4695399e-07
1.6368967e-13
1.4660507e-07
-1.6980185e-09
1.4660503e-07
-3.3194056e-09
1.4695387e-07
-4.7693751e-09
1.4756761e-07
-5.9236578e-09
1.4816231e-07
-6.61844e-09
1.4800485e-07
-6.638921e-09
1.4553935e-07
-5.7706258e-09
1.3799689e-07
-3.9208941e-09
1.2137068e-07
-1.5126465e-09
9.079326e-08
4.000958e-08
9.362691e-10
3.9073277e-08
2.544771e-09
8.9184685e-08
3.8845888e-09
1.2003081e-07
4.6148496e-09
1.3726665e-07
4.7312414e-09
1.4542306e-07
4.3349095e-09
1.4840141e-07
3.5548407e-09
1.4894261e-07
2.5064868e-09
1.4861616e-07
1.2922271e-09
1.4816825e-07
1.8062589e-13
1.478971e-07
-1.2918389e-09
1.4789707e-07
-2.506143e-09
1.4816812e-07
-3.5545182e-09
1.4861597e-07
-4.334585e-09
1.4894244e-07
-4.7309692e-09
1.4840122e-07
-4.6146121e-09
1.4542298e-07
-3.8843651e-09
1.3726668e-07
-2.54463e-09
1.2003094e-07
-9.3623107e-10
8.9184855e-08
3.9073367e-08
5.9470149e-10
3.8478606e-08
1.6716846e-09
8.8107684e-08
2.6237475e-09
1.1907871e-07
3.1983789e-09
1.3669205e-07
3.3555205e-09
1.4526593e-07
3.1357702e-09
1.4862118e-07
2.6117046e-09
1.4946667e-07
1.8620215e-09
1.4936585e-07
9.6641284e-10
1.4906385e-07
1.8096709e-13
1.4886335e-07
-9.6607608e-10
1.488633e-07
-1.8616852e-09
1.4906376e-07
-2.6113855e-09
1.4936568e-07
-3.1354588e-09
1.4946648e-07
-3.3552623e-09
1.4862099e-07
-3.1981472e-09
1.4526588e-07
-2.6235783e-09
1.3669208e-07
-1.671555e-09
1.1907892e-07
-5.9463034e-10
8.8107959e-08
3.84787e-08
3.85327e-10
3.8093253e-08
1.1102396e-09
8.7382822e-08
1.7802109e-09
1.1840875e-07
2.2155504e-09
1.362567e-07
2.3682513e-09
1.4511327e-07
2.2500839e-09
1.4873934e-07
1.8985496e-09
1.4981819e-07
1.3662744e-09
1.4989811e-07
7.1314513e-10
1.4971697e-07
1.5260912e-13
1.4957635e-07
-7.1287941e-10
1.4957631e-07
-1.366009e-09
1.4971688e-07
-1.8982877e-09
1.4989798e-07
-2.2498238e-09
1.4981803e-07
-2.3680272e-09
1.4873921e-07
-2.2153251e-09
1.451132e-07
-1.7800571e-09
1.3625681e-07
-1.1101125e-09
1.1840897e-07
-3.8530324e-10
8.7383111e-08
3.8093418e-08
2.5337385e-10
3.7839874e-08
7.4420951e-10
8.6891956e-08
1.2136617e-09
1.1793929e-07
1.5360527e-09
1.3593434e-07
1.6668359e-09
1.4498248e-07
1.605233e-09
1.4880095e-07
1.3691119e-09
1.500543e-07
9.9299313e-10
1.5027424e-07
5.2080068e-10
1.5018919e-07
1.2203657e-13
1.5009704e-07
-5.2055631e-10
1.5009702e-07
-9.9275817e-10
1.5018911e-07
-1.3689006e-09
1.5027413e-07
-1.6050165e-09
1.5005417e-07
-1.6666619e-09
1.4880085e-07
-1.5359136e-09
1.4498244e-07
-1.2135533e-09
1.3593445e-07
-7.4413104e-10
1.1793957e-07
-2.5334537e-10
8.6892314e-08
3.7840072e-08
1.6837528e-10
3.767151e-08
5.024087e-10
8.6557906e-08
8.3093797e-10
1.1761073e-07
1.0653126e-09
1.3569993e-07
1.1709192e-09
1.4487688e-07
1.1402987e-09
1.4883159e-07
9.8122461e-10
1.5021338e-07
7.1630625e-10
1.5053918e-07
3.7716544e-10
1.5052833e-07
9.622491e-14
1.5047411e-07
-3.7699552e-10
1.5047411e-07
-7.161398e-10
1.5052825e-07
-9.8108188e-10
1.5053909e-07
-1.1401717e-09
1.5021326e-07
-1.1708037e-09
1.4883149e-07
-1.0652307e-09
1.4487684e-07
-8.308383e-10
1.3570004e-07
-5.0237177e-10
1.1761105e-07
-1.6835858e-10
8.6558294e-08
3.7671712e-08
1.1265644e-10
3.7558837e-08
3.4132273e-10
8.6329238e-08
5.7077732e-10
1.173813e-07
7.3991588e-10
1.3553081e-07
8.2159803e-10
1.4479517e-07
8.0739713e-10
1.4884577e-07
6.9984261e-10
1.5032093e-07
5.1365936e-10
1.5072541e-07
2.7135602e-10
1.5077062e-07
7.8207229e-14
1.5074542e-07
-2.7123971e-10
1.5074538e-07
-5.1354944e-10
1.5077054e-07
-6.9977674e-10
1.5072529e-07
-8.0731603e-10
1.5032082e-07
-8.2153531e-10
1.4884572e-07
-7.3985997e-10
1.4479517e-07
-5.7074968e-10
1.3553095e-07
-3.4129003e-10
1.1738161e-07
-1.1263946e-10
8.6329673e-08
3.7559087e-08
7.5744434e-11
3.7483104e-08
2.3274539e-10
8.6172237e-08
3.9317277e-10
1.1722084e-07
5.1432197e-10
1.3540964e-07
5.7604766e-10
1.4473344e-07
5.7026403e-10
1.4885158e-07
4.9727233e-10
1.5039392e-07
3.6656744e-10
1.5085607e-07
1.9419338e-10
1.50943e-07
2.8282607e-14
1.5093956e-07
-1.9410477e-10
1.5093953e-07
-3.6651748e-10
1.5094296e-07
-4.9723051e-10
1.5085598e-07
-5.7020172e-10
1.5039379e-07
-5.7601124e-10
1.488515e-07
-5.1431294e-10
1.4473347e-07
-3.9314982e-10
1.354098e-07
-2.3271071e-10
1.1722118e-07
-7.5733212e-11
8.6172665e-08
3.7483363e-08
5.1067672e-11
3.7432029e-08
1.5922448e-10
8.6064104e-08
2.7139965e-10
1.1710865e-07
3.5776863e-10
1.3532328e-07
4.036168e-10
1.4468761e-07
4.019697e-10
1.4885322e-07
3.5226223e-10
1.5044362e-07
2.6061458e-10
1.509477e-07
1.3837278e-10
1.5106528e-07
5.867532e-15
1.5107791e-07
-1.3831321e-10
1.510779e-07
-2.606161e-10
1.5106524e-07
-3.5223364e-10
1.5094763e-07
-4.0193252e-10
1.5044352e-07
-4.0358184e-10
1.4885314e-07
-3.5776308e-10
1.4468763e-07
-2.7137923e-10
1.3532343e-07
-1.5918916e-10
1.1710899e-07
-5.1070915e-11
8.6064542e-08
3.7432309e-08
3.451156e-11
3.7397538e-08
1.0915401e-10
8.5989435e-08
1.876209e-10
1.170302e-07
2.4898153e-10
1.352619e-07
2.8260402e-10
1.4465401e-07
2.8285097e-10
1.4885296e-07
2.4891612e-10
1.5047757e-07
1.8469734e-10
1.5101186e-07
9.824499e-11
1.5115175e-07
1.0524495e-15
1.5117614e-07
-9.8228391e-11
1.5117614e-07
-1.8473977e-10
1.5115171e-07
-2.4893637e-10
1.5101181e-07
-2.8286252e-10
1.504775e-07
-2.8259798e-10
1.488529e-07
-2.4897974e-10
1.44654e-07
-1.8757308e-10
1.3526202e-07
-1.091325e-10
1.1703051e-07
-3.4498115e-11
8.5989918e-08
3.7397834e-08
2.3349097e-11
3.7374188e-08
7.495279e-11
8.5937849e-08
1.2982888e-10
1.1697534e-07
1.7334742e-10
1.3521839e-07
1.977273e-10
1.4462962e-07
1.9876128e-10
1.4885195e-07
1.754919e-10
1.5050085e-07
1.3056101e-10
1.5105679e-07
6.9545274e-11
1.5121281e-07
-1.0480397e-14
1.5124573e-07
-6.9574502e-11
1.5124568e-07
-1.3059506e-10
1.5121272e-07
-1.7554415e-10
1.5105672e-07
-1.987738e-10
1.5050074e-07
-1.9775472e-10
1.4885185e-07
-1.7332189e-10
1.4462961e-07
-1.2978178e-10
1.3521849e-07
-7.4904231e-11
1.1697563e-07
-2.3329985e-11
8.5938318e-08
3.7374519e-08
1.57929e-11
3.7358382e-08
5.150083e-11
8.5902127e-08
8.9893293e-11
1.1693695e-07
1.2070363e-10
1.3518762e-07
1.3828723e-10
1.4461204e-07
1.3948706e-10
1.4885073e-07
1.2351049e-10
1.5051681e-07
9.2083334e-11
1.5108825e-07
4.9098064e-11
1.5125578e-07
-2.3253275e-14
1.5129485e-07
-4.9166943e-11
1.512948e-07
-9.2141309e-11
1.5125572e-07
-1.2359078e-10
1.5108813e-07
-1.3953144e-10
1.505167e-07
-1.3830391e-10
1.488506e-07
-1.2067175e-10
1.4461197e-07
-8.9854921e-11
1.3518766e-07
-5.1464063e-11
1.1693725e-07
-1.5772882e-11
8.5902641e-08
3.7358739e-08
1.0688837e-11
3.7347711e-08
3.5438674e-11
8.5877419e-08
6.2279402e-11
1.169101e-07
8.4031648e-11
1.351659e-07
9.6616928e-11
1.4459941e-07
9.7801392e-11
1.4884957e-07
8.6786037e-11
1.505278e-07
6.4816414e-11
1.5111021e-07
3.4572832e-11
1.5128603e-07
-4.429004e-14
1.5132948e-07
-3.4692154e-11
1.5132946e-07
-6.4918368e-11
1.5128595e-07
-8.6881845e-11
1.5111011e-07
-9.7843516e-11
1.5052765e-07
-9.6670164e-11
1.4884943e-07
-8.4017636e-11
1.4459931e-07
-6.2226943e-11
1.3516591e-07
-3.540634e-11
1.1691038e-07
-1.066469e-11
8.5877939e-08
3.7348109e-08
7.2401756e-12
3.734047e-08
2.4377439e-11
8.5860255e-08
4.3141769e-11
1.1689133e-07
5.8472671e-11
1.3515057e-07
6.7478606e-11
1.4459042e-07
6.8466792e-11
1.4884859e-07
6.0891348e-11
1.5053538e-07
4.5526741e-11
1.5112558e-07
2.4290543e-11
1.5130727e-07
-8.9888091e-14
1.5135386e-07
-2.4449705e-11
1.5135384e-07
-4.5698349e-11
1.5130718e-07
-6.1043927e-11
1.5112545e-07
-6.8592434e-11
1.5053522e-07
-6.7545313e-11
1.4884841e-07
-5.851441e-11
1.4459024e-07
-4.3142918e-11
1.3515055e-07
-2.4334237e-11
1.1689157e-07
-7.2085096e-12
8.5860767e-08
3.734088e-08
4.8759487e-12
3.7335629e-08
1.6754735e-11
8.5848378e-08
2.9886432e-11
1.1687822e-07
4.0686513e-11
1.3513976e-07
4.7098931e-11
1.4458399e-07
4.78961e-11
1.4884778e-07
4.2662551e-11
1.5054062e-07
3.1934879e-11
1.5113634e-07
1.70114e-11
1.5132217e-07
-1.1441959e-13
1.5137102e-07
-1.7237284e-11
1.5137099e-07
-3.2148369e-11
1.5132208e-07
-4.2857292e-11
1.5113619e-07
-4.8082485e-11
1.5054042e-07
-4.7212051e-11
1.4884759e-07
-4.0760791e-11
1.4458381e-07
-2.9927488e-11
1.3513972e-07
-1.6752549e-11
1.1687841e-07
-4.8653809e-12
8.584889e-08
3.7335996e-08
3.251463e-12
3.7332338e-08
1.1509086e-11
8.5840159e-08
2.0691479e-11
1.1686902e-07
2.8290464e-11
1.3513218e-07
3.2847788e-11
1.4457941e-07
3.3468511e-11
1.4884714e-07
2.9886534e-11
1.505442e-07
2.2366129e-11
1.5114384e-07
1.1883268e-11
1.5133261e-07
-1.5608689e-13
1.5138305e-07
-1.2204578e-11
1.5138301e-07
-2.2634023e-11
1.5133254e-07
-3.0138162e-11
1.5114368e-07
-3.3708623e-11
1.5054403e-07
-3.3048661e-11
1.4884693e-07
-2.844971e-11
1.445792e-07
-2.0796901e-11
1.3513206e-07
-1.1552792e-11
1.1686916e-07
-3.2913927e-12
8.584058e-08
3.7332721e-08
2.1758004e-12
3.7330162e-08
7.8736526e-12
8.5834453e-08
1.4324756e-11
1.1686259e-07
1.9679222e-11
1.3512682e-07
2.2912321e-11
1.4457617e-07
2.3409958e-11
1.4884666e-07
2.0914326e-11
1.505467e-07
1.5639738e-11
1.5114906e-07
8.2982872e-12
1.5133996e-07
-1.9724101e-13
1.5139151e-07
-8.6408152e-12
1.5139148e-07
-1.5977842e-11
1.5133988e-07
-2.1247042e-11
1.511489e-07
-2.3713314e-11
1.5054651e-07
-2.3186897e-11
1.4884643e-07
-1.9912441e-11
1.4457593e-07
-1.4500843e-11
1.3512664e-07
-8.0203507e-12
1.1686264e-07
-2.2257882e-12
8.5834835e-08
3.7330476e-08
1.4513745e-12
3.7328708e-08
5.4053411e-12
8.5830506e-08
9.9043316e-12
1.1685806e-07
1.3699041e-11
1.3512303e-07
1.6016255e-11
1.4457386e-07
1.6372417e-11
1.488463e-07
1.4648338e-11
1.5054842e-07
1.0955152e-11
1.5115273e-07
5.784975e-12
1.5134511e-07
-2.0755127e-13
1.5139744e-07
-6.1539381e-12
1.5139744e-07
-1.134653e-11
1.5134502e-07
-1.5036117e-11
1.5115259e-07
-1.6737724e-11
1.5054824e-07
-1.6350562e-11
1.4884601e-07
-1.4031676e-11
1.4457356e-07
-1.0173942e-11
1.3512282e-07
-5.5582619e-12
1.1685807e-07
-1.5298445e-12
8.5830769e-08
3.7328966e-08
9.6367113e-13
3.7327749e-08
3.6921354e-12
8.5827743e-08
6.8623825e-12
1.1685488e-07
9.5624213e-12
1.351203e-07
1.1238597e-11
1.4457217e-07
1.1502064e-11
1.4884598e-07
1.0282741e-11
1.5054963e-07
7.6836876e-12
1.5115533e-07
3.9865667e-12
1.5134877e-07
-2.305042e-13
1.5140169e-07
-4.456907e-12
1.5140164e-07
-8.121469e-12
1.5134868e-07
-1.0737655e-11
1.5115518e-07
-1.1951206e-11
1.5054944e-07
-1.1649156e-11
1.4884573e-07
-9.9859308e-12
1.4457188e-07
-7.2277036e-12
1.3512006e-07
-3.93034e-12
1.1685479e-07
-1.0507934e-12
8.5827886e-08
3.7327913e-08
6.3258107e-13
3.7327103e-08
2.5659593e-12
8.5825799e-08
4.8451365e-12
1.1685258e-07
6.7895597e-12
1.3511836e-07
7.9587673e-12
1.4457101e-07
8.1625011e-12
1.4884579e-07
7.2726664e-12
1.5055051e-07
5.4065744e-12
1.5115721e-07
2.7753395e-12
1.5135138e-07
-2.6443653e-13
1.514047e-07
-3.2823798e-12
1.5140467e-07
-5.918735e-12
1.5135131e-07
-7.7688285e-12
1.5115706e-07
-8.6732711e-12
1.5055032e-07
-8.4532192e-12
1.4884554e-07
-7.2576433e-12
1.4457068e-07
-5.2442299e-12
1.3511803e-07
-2.8480689e-12
1.1685238e-07
-7.5994457e-13
8.5825775e-08
3.732719e-08
4.4532207e-13
3.7326655e-08
1.8633409e-12
8.5824373e-08
3.518696e-12
1.1685086e-07
4.9677951e-12
1.3511692e-07
5.7966289e-12
1.4457015e-07
5.8980208e-12
1.4884567e-07
5.2579186e-12
1.505512e-07
3.8464679e-12
1.5115858e-07
1.9194618e-12
1.5135331e-07
-2.7931468e-13
1.514069e-07
-2.477389e-12
1.5140686e-07
-4.4188492e-12
1.513532e-07
-5.8074844e-12
1.5115845e-07
-6.4737975e-12
1.5055099e-07
-6.3534781e-12
1.488454e-07
-5.4895545e-12
1.445698e-07
-3.9991833e-12
1.3511655e-07
-2.1862755e-12
1.1685056e-07
-5.8352784e-13
8.5824176e-08
3.7326611e-08
3.5440172e-13
3.7326267e-08
1.4702619e-12
8.5823251e-08
2.7815705e-12
1.1684957e-07
3.8651803e-12
1.3511586e-07
4.4470118e-12
1.4456954e-07
4.4781232e-12
1.4884564e-07
3.9102194e-12
1.5055174e-07
2.8273009e-12
1.5115964e-07
1.3773954e-12
1.5135474e-07
-3.1164139e-13
1.5140855e-07
-1.9752082e-12
1.5140854e-07
-3.4423763e-12
1.5135467e-07
-4.5338688e-12
1.5115952e-07
-5.1010021e-12
1.5055154e-07
-5.0495002e-12
1.4884536e-07
-4.4418212e-12
1.4456917e-07
-3.2756226e-12
1.3511542e-07
-1.8095337e-12
1.1684912e-07
-5.0765564e-13
8.5822872e-08
3.7326116e-08
3.3728587e-13
3.7325928e-08
1.3619646e-12
8.5822234e-08
2.4751064e-12
1.1684844e-07
3.3466242e-12
1.35115e-07
3.7231486e-12
1.4456912e-07
3.6389261e-12
1.4884573e-07
3.0875491e-12
1.5055227e-07
2.1737672e-12
1.5116054e-07
9.879963e-13
1.5135591e-07
-3.3708411e-13
1.5140986e-07
-1.6576906e-12
1.5140983e-07
-2.8511227e-12
1.5135583e-07
-3.7506392e-12
1.5116041e-07
-4.2906196e-12
1.5055205e-07
-4.3452635e-12
1.4884541e-07
-3.923879e-12
1.445687e-07
-2.9852621e-12
1.3511448e-07
-1.6963924e-12
1.1684782e-07
-4.9612349e-13
8.5821626e-08
3.7325622e-08
3.8695354e-13
3.7325507e-08
1.4817191e-12
8.582114e-08
2.5592029e-12
1.1684737e-07
3.278168e-12
1.3511428e-07
3.485215e-12
1.445689e-07
3.2308264e-12
1.4884595e-07
2.6382528e-12
1.5055287e-07
1.7799633e-12
1.5116141e-07
7.5206432e-13
1.5135695e-07
-3.6938482e-13
1.5141098e-07
-1.4847186e-12
1.5141093e-07
-2.5022159e-12
1.5135686e-07
-3.3317355e-12
1.5116126e-07
-3.91324e-12
1.5055264e-07
-4.1130814e-12
1.4884564e-07
-3.8517322e-12
1.4456843e-07
-3.0634574e-12
1.3511367e-07
-1.8168847e-12
1.1684659e-07
-5.335017e-13
8.5820325e-08
3.7325071e-08
5.8036254e-13
3.7324936e-08
1.8433729e-12
8.5819847e-08
2.969422e-12
1.1684622e-07
3.5612182e-12
1.351137e-07
3.6090166e-12
1.4456888e-07
3.166296e-12
1.488464e-07
2.4452642e-12
1.5055357e-07
1.5740079e-12
1.5116228e-07
6.12081e-13
1.5135788e-07
-3.9541155e-13
1.5141196e-07
-1.3804169e-12
1.5141192e-07
-2.3337669e-12
1.513578e-07
-3.181451e-12
1.5116213e-07
-3.8713362e-12
1.5055332e-07
-4.2750791e-12
1.4884602e-07
-4.1699167e-12
1.4456837e-07
-3.478382e-12
1.3511296e-07
-2.1905247e-12
1.1684529e-07
-7.145893e-13
8.5818855e-08
3.7324365e-08
9.7643141e-13
3.7323946e-08
2.4048341e-12
8.5818431e-08
3.4659318e-12
1.1684518e-07
3.9401546e-12
1.351132e-07
3.7954068e-12
1.4456906e-07
3.160798e-12
1.4884702e-07
2.3066031e-12
1.5055444e-07
1.3929844e-12
1.5116322e-07
4.7754394e-13
1.513588e-07
-4.2953888e-13
1.5141283e-07
-1.3136233e-12
1.5141281e-07
-2.2363341e-12
1.5135871e-07
-3.1385047e-12
1.51163e-07
-3.9418668e-12
1.5055415e-07
-4.5145709e-12
1.488466e-07
-4.5889828e-12
1.4456845e-07
-3.9807907e-12
1.3511237e-07
-2.7535407e-12
1.1684405e-07
-1.1141253e-12
8.5817197e-08
3.732326e-08
1.3049798e-12
2.5839088e-12
3.4657563e-12
3.859262e-12
3.6219911e-12
2.9534929e-12
2.0945966e-12
1.1790085e-12
3.369792e-13
-4.7674347e-13
-1.2703831e-12
-2.1101787e-12
-2.9840528e-12
-3.7949594e-12
-4.4026957e-12
-4.5282909e-12
-4.0369063e-12
-2.9539915e-12
-1.45279e-12
)
;

boundaryField
{
    Wall
    {
        type            calculated;
        value           uniform 0;
    }
    frontAndBack
    {
        type            empty;
        value           nonuniform 0();
    }
    atmosphere
    {
        type            calculated;
        value           nonuniform List<scalar> 
20
(
3.7322659e-08
8.5817137e-08
1.1684423e-07
1.3511284e-07
1.445693e-07
1.4884771e-07
1.505553e-07
1.5116408e-07
1.513596e-07
1.5141362e-07
1.5141364e-07
1.5135954e-07
1.5116389e-07
1.5055494e-07
1.4884719e-07
1.4456859e-07
1.3511184e-07
1.1684296e-07
8.5815695e-08
3.7321801e-08
)
;
    }
}


// ************************************************************************* //
