/*--------------------------------*- C++ -*----------------------------------*\
| =========                 |                                                 |
| \\      /  F ield         | OpenFOAM: The Open Source CFD Toolbox           |
|  \\    /   O peration     | Version:  3.0.1                                 |
|   \\  /    A nd           | Web:      www.OpenFOAM.org                      |
|    \\/     M anipulation  |                                                 |
\*---------------------------------------------------------------------------*/
FoamFile
{
    version     2.0;
    format      ascii;
    class       volScalarField;
    location    "13";
    object      Psi2;
}
// * * * * * * * * * * * * * * * * * * * * * * * * * * * * * * * * * * * * * //

dimensions      [0 -2 2 0 0 0 0];

internalField   nonuniform List<scalar> 
800
(
0.0027594532
0.0027595182
0.0027595508
0.0027595681
0.0027595809
0.0027595912
0.002759599
0.0027596046
0.0027596082
0.00275961
0.00275961
0.0027596082
0.0027596046
0.002759599
0.0027595912
0.0027595809
0.0027595681
0.0027595508
0.0027595182
0.0027594532
0.0031748596
0.0031653857
0.0031644247
0.0031640984
0.0031638197
0.0031635962
0.0031634241
0.0031633013
0.0031632233
0.0031631854
0.0031631854
0.0031632233
0.0031633013
0.0031634241
0.0031635962
0.0031638197
0.0031640984
0.0031644246
0.0031653856
0.0031748596
0.0038932258
0.0038794918
0.0038776637
0.0038769737
0.0038764809
0.0038761083
0.003875837
0.0038756506
0.0038755347
0.003875479
0.003875479
0.0038755348
0.0038756507
0.0038758371
0.0038761084
0.003876481
0.0038769738
0.0038776637
0.0038794918
0.003893226
0.0048687103
0.0048445835
0.0048422438
0.004841407
0.0048408827
0.0048405237
0.0048402916
0.0048401492
0.0048400667
0.0048400288
0.0048400288
0.0048400667
0.0048401493
0.0048402916
0.0048405237
0.0048408827
0.004841407
0.0048422437
0.0048445834
0.0048687104
0.0064977804
0.0064349116
0.0064315284
0.0064303595
0.0064298938
0.0064297026
0.0064296763
0.0064297131
0.0064297524
0.0064297766
0.0064297766
0.0064297523
0.006429713
0.0064296761
0.0064297023
0.0064298934
0.0064303592
0.006431528
0.0064349111
0.00649778
0.0084945283
0.0084248947
0.0084181148
0.0084161989
0.0084160619
0.0084164861
0.0084169008
0.0084173736
0.0084176539
0.0084178064
0.0084178064
0.0084176537
0.0084173734
0.0084169004
0.0084164854
0.0084160612
0.0084161982
0.0084181137
0.0084248936
0.0084945272
0.0099126975
0.0098364296
0.0098215802
0.0098189828
0.0098193952
0.0098205997
0.0098215047
0.0098222064
0.0098226351
0.0098229265
0.0098229264
0.0098226351
0.0098222063
0.0098215043
0.0098205992
0.0098193944
0.0098189813
0.0098215792
0.0098364284
0.009912696
0.010643052
0.010553518
0.010530697
0.010526383
0.010527291
0.01052913
0.010530931
0.010531817
0.010532474
0.010532882
0.010532883
0.010532474
0.010531817
0.010530932
0.01052913
0.010527291
0.010526382
0.010530696
0.010553517
0.010643051
0.010900443
0.010839713
0.010817854
0.010811725
0.010811623
0.010813075
0.01081477
0.010815735
0.010816437
0.010816807
0.010816807
0.010816437
0.010815736
0.010814771
0.010813075
0.010811623
0.010811724
0.010817854
0.010839713
0.010900442
0.01095571
0.010932509
0.010919518
0.010914597
0.010913785
0.010914384
0.01091531
0.010915927
0.01091637
0.010916593
0.010916594
0.01091637
0.010915927
0.010915311
0.010914384
0.010913785
0.010914597
0.010919518
0.010932509
0.010955709
0.010963422
0.010957287
0.0109517
0.010948986
0.010948276
0.010948412
0.010948778
0.010949062
0.010949266
0.010949367
0.010949367
0.010949266
0.010949062
0.010948778
0.010948413
0.010948276
0.010948986
0.0109517
0.010957287
0.010963422
0.010964196
0.010962898
0.010960968
0.01095979
0.010959394
0.010959392
0.010959507
0.010959612
0.010959689
0.010959727
0.010959727
0.010959689
0.010959612
0.010959507
0.010959392
0.010959394
0.01095979
0.010960968
0.010962898
0.010964196
0.010964257
0.010964015
0.010963443
0.010963008
0.010962834
0.010962814
0.010962844
0.010962878
0.010962903
0.010962915
0.010962915
0.010962903
0.010962878
0.010962844
0.010962814
0.010962834
0.010963008
0.010963443
0.010964015
0.010964257
0.010964261
0.010964219
0.010964066
0.010963923
0.010963858
0.010963846
0.010963852
0.010963862
0.010963869
0.010963872
0.010963872
0.010963869
0.010963862
0.010963852
0.010963846
0.010963858
0.010963923
0.010964066
0.010964219
0.010964261
0.010964261
0.010964254
0.010964216
0.010964173
0.010964151
0.010964146
0.010964147
0.010964149
0.010964151
0.010964152
0.010964152
0.010964151
0.010964149
0.010964147
0.010964146
0.010964151
0.010964173
0.010964216
0.010964254
0.010964261
0.010964261
0.01096426
0.010964251
0.010964239
0.010964232
0.01096423
0.01096423
0.010964231
0.010964231
0.010964232
0.010964232
0.010964231
0.010964231
0.01096423
0.01096423
0.010964232
0.010964239
0.010964251
0.01096426
0.010964261
0.010964261
0.010964261
0.010964259
0.010964256
0.010964254
0.010964253
0.010964253
0.010964253
0.010964253
0.010964253
0.010964253
0.010964253
0.010964253
0.010964253
0.010964253
0.010964254
0.010964256
0.010964259
0.010964261
0.010964261
0.010964261
0.010964261
0.010964261
0.01096426
0.010964259
0.010964259
0.010964259
0.010964259
0.010964259
0.010964259
0.010964259
0.010964259
0.010964259
0.010964259
0.010964259
0.010964259
0.01096426
0.010964261
0.010964261
0.010964261
0.010964261
0.010964261
0.010964261
0.010964261
0.010964261
0.010964261
0.010964261
0.010964261
0.010964261
0.010964261
0.010964261
0.010964261
0.010964261
0.010964261
0.010964261
0.010964261
0.010964261
0.010964261
0.010964261
0.010964261
0.010964261
0.010964261
0.010964261
0.010964261
0.010964261
0.010964261
0.010964261
0.010964261
0.010964261
0.010964261
0.010964261
0.010964261
0.010964261
0.010964261
0.010964261
0.010964261
0.010964261
0.010964261
0.010964261
0.010964261
0.010964261
0.010964261
0.010964261
0.010964261
0.010964261
0.010964261
0.010964261
0.010964261
0.010964261
0.010964261
0.010964261
0.010964261
0.010964261
0.010964261
0.010964261
0.010964261
0.010964261
0.010964261
0.010964261
0.010964261
0.010964261
0.010964261
0.010964261
0.010964261
0.010964261
0.010964261
0.010964261
0.010964261
0.010964261
0.010964261
0.010964261
0.010964261
0.010964261
0.010964261
0.010964261
0.010964261
0.010964261
0.010964261
0.010964261
0.010964261
0.010964261
0.010964261
0.010964261
0.010964261
0.010964261
0.010964261
0.010964261
0.010964261
0.010964261
0.010964261
0.010964261
0.010964261
0.010964261
0.010964261
0.010964261
0.010964261
0.010964261
0.010964261
0.010964261
0.010964261
0.010964261
0.010964261
0.010964261
0.010964261
0.010964261
0.010964261
0.010964261
0.010964261
0.010964261
0.010964261
0.010964261
0.010964261
0.010964261
0.010964261
0.010964261
0.010964261
0.010964261
0.010964261
0.010964261
0.010964261
0.010964261
0.010964261
0.010964261
0.010964261
0.010964261
0.010964261
0.010964261
0.010964261
0.010964261
0.010964261
0.010964261
0.010964261
0.010964261
0.010964261
0.010964261
0.010964261
0.010964261
0.010964261
0.010964261
0.010964261
0.010964261
0.010964261
0.010964261
0.010964261
0.010964261
0.010964261
0.010964261
0.010964261
0.010964261
0.010964261
0.010964261
0.010964261
0.010964261
0.010964261
0.010964261
0.010964261
0.010964261
0.010964261
0.010964261
0.010964261
0.010964261
0.010964261
0.010964261
0.010964261
0.010964261
0.010964261
0.010964261
0.010964261
0.010964261
0.010964261
0.010964261
0.010964261
0.010964261
0.010964261
0.010964261
0.010964261
0.010964261
0.010964261
0.010964261
0.010964261
0.010964261
0.010964261
0.010964261
0.010964261
0.010964261
0.010964261
0.010964261
0.010964261
0.010964261
0.010964261
0.010964261
0.010964261
0.010964261
0.010964261
0.010964261
0.010964261
0.010964261
0.010964261
0.010964261
0.010964261
0.010964261
0.010964261
0.010964261
0.010964261
0.010964261
0.010964261
0.010964261
0.010964261
0.010964261
0.010964261
0.010964261
0.010964261
0.010964261
0.010964261
0.010964261
0.010964261
0.010964261
0.010964261
0.010964261
0.010964261
0.010964261
0.010964261
0.010964261
0.010964261
0.010964261
0.010964261
0.010964261
0.010964261
0.010964261
0.010964261
0.010964261
0.010964261
0.010964261
0.010964261
0.010964261
0.010964261
0.010964261
0.010964261
0.010964261
0.010964261
0.010964261
0.010964261
0.010964261
0.010964261
0.010964261
0.010964261
0.010964261
0.010964261
0.010964261
0.010964261
0.010964261
0.010964261
0.010964261
0.010964261
0.010964261
0.010964261
0.010964261
0.010964261
0.010964261
0.010964261
0.010964261
0.010964261
0.010964261
0.010964261
0.010964261
0.010964261
0.010964261
0.010964261
0.010964261
0.010964261
0.010964261
0.010964261
0.010964261
0.010964261
0.010964261
0.010964261
0.010964261
0.010964261
0.010964261
0.010964261
0.010964261
0.010964261
0.010964261
0.010964261
0.010964261
0.010964261
0.010964261
0.010964261
0.010964261
0.010964261
0.010964261
0.010964261
0.010964261
0.010964261
0.010964261
0.010964261
0.010964261
0.010964261
0.010964261
0.010964261
0.010964261
0.010964261
0.010964261
0.010964261
0.010964261
0.010964261
0.010964261
0.010964261
0.010964261
0.010964261
0.010964261
0.010964261
0.010964261
0.010964261
0.010964261
0.010964261
0.010964261
0.010964261
0.010964261
0.010964261
0.010964261
0.010964261
0.010964261
0.010964261
0.010964261
0.010964261
0.010964261
0.010964261
0.010964261
0.010964261
0.010964261
0.010964261
0.010964261
0.010964261
0.010964261
0.010964261
0.010964261
0.010964261
0.010964261
0.010964261
0.010964261
0.010964261
0.010964261
0.010964261
0.010964261
0.010964261
0.010964261
0.010964261
0.010964261
0.010964261
0.010964261
0.010964261
0.010964261
0.010964261
0.010964261
0.010964261
0.010964261
0.010964261
0.010964261
0.010964261
0.010964261
0.010964261
0.010964261
0.010964261
0.010964261
0.010964261
0.010964261
0.010964261
0.010964261
0.010964261
0.010964261
0.010964261
0.010964261
0.010964261
0.010964261
0.010964261
0.010964261
0.010964261
0.010964261
0.010964261
0.010964261
0.010964261
0.010964261
0.010964261
0.010964261
0.010964261
0.010964261
0.010964261
0.010964261
0.010964261
0.010964261
0.010964261
0.010964261
0.010964261
0.010964261
0.010964261
0.010964261
0.010964261
0.010964261
0.010964261
0.010964261
0.010964261
0.010964261
0.010964261
0.010964261
0.010964261
0.010964261
0.010964261
0.010964261
0.010964261
0.010964261
0.010964261
0.010964261
0.010964261
0.010964261
0.010964261
0.010964261
0.010964261
0.010964261
0.010964261
0.010964261
0.010964261
0.010964261
0.010964261
0.010964261
0.010964261
0.010964261
0.010964261
0.010964261
0.010964261
0.010964261
0.010964261
0.010964261
0.010964261
0.010964261
0.010964261
0.010964261
0.010964261
0.010964261
0.010964261
)
;

boundaryField
{
    Wall
    {
        type            calculated;
        value           nonuniform List<scalar> 
100
(
9.9999999e-21
9.9999999e-21
9.9999999e-21
9.9999999e-21
9.9999999e-21
1e-20
1e-20
1e-20
1e-20
1e-20
1e-20
1e-20
1e-20
1e-20
1e-20
1e-20
1e-20
1e-20
1e-20
1e-20
1e-20
1e-20
1e-20
1e-20
1e-20
1e-20
1e-20
1e-20
1e-20
1e-20
1e-20
1e-20
1e-20
1e-20
1e-20
1e-20
1e-20
1e-20
1e-20
1e-20
9.9999999e-21
9.9999999e-21
9.9999999e-21
9.9999999e-21
9.9999999e-21
1e-20
1e-20
1e-20
1e-20
1e-20
1e-20
1e-20
1e-20
1e-20
1e-20
1e-20
1e-20
1e-20
1e-20
1e-20
1e-20
1e-20
1e-20
1e-20
1e-20
1e-20
1e-20
1e-20
1e-20
1e-20
1e-20
1e-20
1e-20
1e-20
1e-20
1e-20
1e-20
1e-20
1e-20
1e-20
9.9999999e-21
9.9999999e-21
9.9999999e-21
9.9999999e-21
9.9999999e-21
9.9999999e-21
9.9999999e-21
9.9999999e-21
9.9999999e-21
9.9999999e-21
9.9999999e-21
9.9999999e-21
9.9999999e-21
9.9999999e-21
9.9999999e-21
9.9999999e-21
9.9999999e-21
9.9999999e-21
9.9999999e-21
9.9999999e-21
)
;
    }
    frontAndBack
    {
        type            empty;
    }
    atmosphere
    {
        type            calculated;
        value           uniform 1e-20;
    }
}


// ************************************************************************* //
