/*--------------------------------*- C++ -*----------------------------------*\
| =========                 |                                                 |
| \\      /  F ield         | OpenFOAM: The Open Source CFD Toolbox           |
|  \\    /   O peration     | Version:  3.0.1                                 |
|   \\  /    A nd           | Web:      www.OpenFOAM.org                      |
|    \\/     M anipulation  |                                                 |
\*---------------------------------------------------------------------------*/
FoamFile
{
    version     2.0;
    format      ascii;
    class       volScalarField;
    location    "13";
    object      rho;
}
// * * * * * * * * * * * * * * * * * * * * * * * * * * * * * * * * * * * * * //

dimensions      [1 -3 0 0 0 0 0];

internalField   nonuniform List<scalar> 
800
(
275.94533
275.95182
275.95508
275.95682
275.9581
275.95912
275.9599
275.96046
275.96082
275.961
275.961
275.96082
275.96046
275.9599
275.95912
275.9581
275.95681
275.95508
275.95182
275.94533
317.48596
316.53857
316.44247
316.40985
316.38198
316.35962
316.34241
316.33013
316.32233
316.31855
316.31855
316.32234
316.33013
316.34242
316.35962
316.38197
316.40984
316.44246
316.53857
317.48597
388.90579
387.54926
387.36712
387.29769
387.24805
387.21049
387.18312
387.1643
387.15258
387.14695
387.14695
387.15259
387.16431
387.18313
387.2105
387.24806
387.2977
387.36713
387.54927
388.90581
480.73173
478.87517
478.68782
478.60115
478.53798
478.4915
478.45932
478.43831
478.42561
478.41961
478.41961
478.42562
478.43832
478.45933
478.49151
478.53799
478.60116
478.68783
478.87518
480.73176
503.79271
513.22127
514.53791
514.49541
514.16711
513.81422
513.54654
513.33365
513.20294
513.13612
513.13615
513.20303
513.33382
513.54677
513.81451
514.16743
514.49578
514.5383
513.22167
503.79324
158.20792
172.00628
173.71457
173.71618
173.38302
173.00657
172.72236
172.49566
172.35673
172.28253
172.28257
172.35683
172.49582
172.7226
173.00687
173.38337
173.7166
173.715
172.00672
158.20842
10.149825
12.253985
12.589858
12.578289
12.519234
12.456557
12.410387
12.376973
12.35626
12.344619
12.344623
12.35627
12.376989
12.410415
12.456594
12.519278
12.578349
12.589912
12.254041
10.14988
1.2598894
1.3038197
1.3149186
1.3146976
1.3130085
1.3112507
1.3099302
1.309117
1.3085939
1.3083001
1.3083001
1.308594
1.3091171
1.3099305
1.3112513
1.3130092
1.3146988
1.3149195
1.3038206
1.2598901
1.2000242
1.2000962
1.2001296
1.2001319
1.2001279
1.2001231
1.2001192
1.2001168
1.2001153
1.2001145
1.2001145
1.2001153
1.2001168
1.2001192
1.2001231
1.2001279
1.2001319
1.2001296
1.2000962
1.2000242
1.2000011
1.2000011
1.2000011
1.2000011
1.2000012
1.2000011
1.2000011
1.2000012
1.2000012
1.2000012
1.2000012
1.2000012
1.2000012
1.2000011
1.2000011
1.2000012
1.2000011
1.2000011
1.2000011
1.2000011
1.2000001
1.2000005
1.2000008
1.2000008
1.2000009
1.2000008
1.2000008
1.2000008
1.2000008
1.2000008
1.2000008
1.2000008
1.2000008
1.2000008
1.2000008
1.2000009
1.2000008
1.2000008
1.2000005
1.2000001
1.2
1.2000002
1.2000003
1.2000004
1.2000004
1.2000004
1.2000004
1.2000004
1.2000004
1.2000004
1.2000004
1.2000004
1.2000004
1.2000004
1.2000004
1.2000004
1.2000004
1.2000003
1.2000002
1.2
1.2
1.2000001
1.2000001
1.2000002
1.2000002
1.2000002
1.2000002
1.2000002
1.2000002
1.2000002
1.2000002
1.2000002
1.2000002
1.2000002
1.2000002
1.2000002
1.2000002
1.2000001
1.2000001
1.2
1.2
1.2
1.2000001
1.2000001
1.2000001
1.2000001
1.2000001
1.2000001
1.2000001
1.2000001
1.2000001
1.2000001
1.2000001
1.2000001
1.2000001
1.2000001
1.2000001
1.2000001
1.2
1.2
1.2
1.2
1.2
1.2
1.2
1.2
1.2
1.2
1.2
1.2
1.2
1.2
1.2
1.2
1.2
1.2
1.2
1.2
1.2
1.2
1.2
1.2
1.2
1.2
1.2
1.2
1.2
1.2
1.2
1.2
1.2
1.2
1.2
1.2
1.2
1.2
1.2
1.2
1.2
1.2
1.2
1.2
1.2
1.2
1.2
1.2
1.2
1.2
1.2
1.2
1.2
1.2
1.2
1.2
1.2
1.2
1.2
1.2
1.2
1.2
1.2
1.2
1.2
1.2
1.2
1.2
1.2
1.2
1.2
1.2
1.2
1.2
1.2
1.2
1.2
1.2
1.2
1.2
1.2
1.2
1.2
1.2
1.2
1.2
1.2
1.2
1.2
1.2
1.2
1.2
1.2
1.2
1.2
1.2
1.2
1.2
1.2
1.2
1.2
1.2
1.2
1.2
1.2
1.2
1.2
1.2
1.2
1.2
1.2
1.2
1.2
1.2
1.2
1.2
1.2
1.2
1.2
1.2
1.2
1.2
1.2
1.2
1.2
1.2
1.2
1.2
1.2
1.2
1.2
1.2
1.2
1.2
1.2
1.2
1.2
1.2
1.2
1.2
1.2
1.2
1.2
1.2
1.2
1.2
1.2
1.2
1.2
1.2
1.2
1.2
1.2
1.2
1.2
1.2
1.2
1.2
1.2
1.2
1.2
1.2
1.2
1.2
1.2
1.2
1.2
1.2
1.2
1.2
1.2
1.2
1.2
1.2
1.2
1.2
1.2
1.2
1.2
1.2
1.2
1.2
1.2
1.2
1.2
1.2
1.2
1.2
1.2
1.2
1.2
1.2
1.2
1.2
1.2
1.2
1.2
1.2
1.2
1.2
1.2
1.2
1.2
1.2
1.2
1.2
1.2
1.2
1.2
1.2
1.2
1.2
1.2
1.2
1.2
1.2
1.2
1.2
1.2
1.2
1.2
1.2
1.2
1.2
1.2
1.2
1.2
1.2
1.2
1.2
1.2
1.2
1.2
1.2
1.2
1.2
1.2
1.2
1.2
1.2
1.2
1.2
1.2
1.2
1.2
1.2
1.2
1.2
1.2
1.2
1.2
1.2
1.2
1.2
1.2
1.2
1.2
1.2
1.2
1.2
1.2
1.2
1.2
1.2
1.2
1.2
1.2
1.2
1.2
1.2
1.2
1.2
1.2
1.2
1.2
1.2
1.2
1.2
1.2
1.2
1.2
1.2
1.2
1.2
1.2
1.2
1.2
1.2
1.2
1.2
1.2
1.2
1.2
1.2
1.2
1.2
1.2
1.2
1.2
1.2
1.2
1.2
1.2
1.2
1.2
1.2
1.2
1.2
1.2
1.2
1.2
1.2
1.2
1.2
1.2
1.2
1.2
1.2
1.2
1.2
1.2
1.2
1.2
1.2
1.2
1.2
1.2
1.2
1.2
1.2
1.2
1.2
1.2
1.2
1.2
1.2
1.2
1.2
1.2
1.2
1.2
1.2
1.2
1.2
1.2
1.2
1.2
1.2
1.2
1.2
1.2
1.2
1.2
1.2
1.2
1.2
1.2
1.2
1.2
1.2
1.2
1.2
1.2
1.2
1.2
1.2
1.2
1.2
1.2
1.2
1.2
1.2
1.2
1.2
1.2
1.2
1.2
1.2
1.2
1.2
1.2
1.2
1.2
1.2
1.2
1.2
1.2
1.2
1.2
1.2
1.2
1.2
1.2
1.2
1.2
1.2
1.2
1.2
1.2
1.2
1.2
1.2
1.2
1.2
1.2
1.2
1.2
1.2
1.2
1.2
1.2
1.2
1.2
1.2
1.2
1.2
1.2
1.2
1.2
1.2
1.2
1.2
1.2
1.2
1.2
1.2
1.2
1.2
1.2
1.2
1.2
1.2
1.2
1.2
1.2
1.2
1.2
1.2
1.2
1.2
1.2
1.2
1.2
1.2
1.2
1.2
1.2
1.2
1.2
1.2
1.2
1.2
1.2
1.2
1.2
1.2
1.2
1.2
1.2
1.2
1.2
1.2
1.2
1.2
1.2
1.2
1.2
1.2
1.2
1.2
1.2
1.2
1.2
1.2
1.2
1.2
1.2
1.2
1.2
1.2
1.2
1.2
1.2
1.2
1.2
1.2
1.2
1.2
1.2
1.2
1.2
1.2
1.2
1.2
1.2
1.2
1.2
1.2
1.2
1.2
1.2
1.2
1.2
1.2
1.2
1.2
1.2
1.2
1.2
1.2
1.2
1.2
1.2
1.2
1.2
1.2
1.2
1.2
1.2
1.2
1.2
1.2
)
;

boundaryField
{
    Wall
    {
        type            calculated;
        value           nonuniform List<scalar> 
100
(
1e-15
7.4470636e-12
0.0012886618
0.015169043
0.27010228
0.9778852
1.1891525
1.1999324
1.2
1.2
1.2
1.2
1.2
1.2
1.2
1.2
1.2
1.2
1.2
1.2
1.2
1.2
1.2
1.2
1.2
1.2
1.2
1.2
1.2
1.2
1.2
1.2
1.2
1.2
1.2
1.2
1.2
1.2
1.2
1.2
1e-15
3.3453776e-14
0.0012886598
0.015168987
0.27010124
0.97788446
1.1891524
1.1999324
1.2
1.2
1.2
1.2
1.2
1.2
1.2
1.2
1.2
1.2
1.2
1.2
1.2
1.2
1.2
1.2
1.2
1.2
1.2
1.2
1.2
1.2
1.2
1.2
1.2
1.2
1.2
1.2
1.2
1.2
1.2
1.2
1e-15
1e-15
1.0000005e-15
1.000001e-15
1e-15
1.0000013e-15
1.0000011e-15
1.0000001e-15
1e-15
1e-15
1e-15
1e-15
1e-15
1.0000001e-15
1.0000001e-15
1e-15
1e-15
1e-15
1e-15
1e-15
)
;
    }
    frontAndBack
    {
        type            empty;
    }
    atmosphere
    {
        type            calculated;
        value           nonuniform List<scalar> 
20
(
1.2
1.2
1.2
1.2
1.2
1.2
1.2
1.2
1.2
1.2
1.2
1.2
1.2
1.2
1.2
1.2
1.2
1.2
1.2
1.2
)
;
    }
}


// ************************************************************************* //
