/*--------------------------------*- C++ -*----------------------------------*\
| =========                 |                                                 |
| \\      /  F ield         | OpenFOAM: The Open Source CFD Toolbox           |
|  \\    /   O peration     | Version:  3.0.1                                 |
|   \\  /    A nd           | Web:      www.OpenFOAM.org                      |
|    \\/     M anipulation  |                                                 |
\*---------------------------------------------------------------------------*/
FoamFile
{
    version     2.0;
    format      ascii;
    class       volScalarField;
    location    "13";
    object      rho_foam;
}
// * * * * * * * * * * * * * * * * * * * * * * * * * * * * * * * * * * * * * //

dimensions      [1 -3 0 0 0 0 0];

internalField   nonuniform List<scalar> 
800
(
275.94533
275.95182
275.95508
275.95682
275.9581
275.95912
275.9599
275.96046
275.96082
275.961
275.961
275.96082
275.96046
275.9599
275.95912
275.9581
275.95681
275.95508
275.95182
275.94533
317.48596
316.53857
316.44247
316.40985
316.38198
316.35962
316.34241
316.33013
316.32233
316.31855
316.31855
316.32234
316.33013
316.34242
316.35962
316.38197
316.40984
316.44246
316.53857
317.48597
389.32259
387.94918
387.76637
387.69737
387.6481
387.61084
387.5837
387.56507
387.55348
387.5479
387.5479
387.55348
387.56508
387.58371
387.61084
387.6481
387.69738
387.76638
387.94919
389.32261
486.87104
484.45835
484.22438
484.14071
484.08827
484.05238
484.02916
484.01493
484.00668
484.00288
484.00288
484.00668
484.01493
484.02916
484.05238
484.08827
484.1407
484.22438
484.45834
486.87104
649.77805
643.49116
643.15285
643.03596
642.98938
642.97027
642.96763
642.97132
642.97524
642.97766
642.97766
642.97524
642.97131
642.96762
642.97024
642.98935
643.03592
643.1528
643.49112
649.77801
849.45283
842.48947
841.81148
841.61989
841.60619
841.64861
841.69008
841.73736
841.76539
841.78064
841.78064
841.76537
841.73734
841.69004
841.64854
841.60612
841.61982
841.81137
842.48936
849.45272
991.26975
983.64296
982.15803
981.89828
981.93952
982.05997
982.15047
982.22064
982.26351
982.29265
982.29264
982.26351
982.22063
982.15043
982.05992
981.93944
981.89814
982.15792
983.64284
991.26961
1064.3052
1055.3518
1053.0697
1052.6383
1052.7291
1052.913
1053.0932
1053.1817
1053.2474
1053.2882
1053.2883
1053.2474
1053.1817
1053.0932
1052.913
1052.7291
1052.6382
1053.0696
1055.3517
1064.3051
1090.0443
1083.9713
1081.7854
1081.1725
1081.1623
1081.3075
1081.477
1081.5735
1081.6437
1081.6807
1081.6807
1081.6437
1081.5736
1081.4771
1081.3075
1081.1623
1081.1724
1081.7854
1083.9713
1090.0442
1095.571
1093.2509
1091.9518
1091.4597
1091.3785
1091.4384
1091.531
1091.5927
1091.637
1091.6593
1091.6594
1091.637
1091.5927
1091.5311
1091.4384
1091.3785
1091.4597
1091.9518
1093.2509
1095.5709
1096.3422
1095.7287
1095.17
1094.8986
1094.8276
1094.8412
1094.8778
1094.9062
1094.9266
1094.9367
1094.9367
1094.9266
1094.9062
1094.8778
1094.8413
1094.8276
1094.8986
1095.17
1095.7287
1096.3422
1096.4196
1096.2898
1096.0968
1095.979
1095.9394
1095.9392
1095.9507
1095.9612
1095.9689
1095.9727
1095.9727
1095.9689
1095.9612
1095.9507
1095.9392
1095.9394
1095.979
1096.0968
1096.2898
1096.4196
1096.4257
1096.4015
1096.3443
1096.3008
1096.2834
1096.2814
1096.2844
1096.2878
1096.2903
1096.2915
1096.2915
1096.2903
1096.2878
1096.2844
1096.2814
1096.2834
1096.3008
1096.3443
1096.4015
1096.4257
1096.4261
1096.4219
1096.4066
1096.3923
1096.3858
1096.3846
1096.3852
1096.3862
1096.3869
1096.3872
1096.3872
1096.3869
1096.3862
1096.3852
1096.3846
1096.3858
1096.3923
1096.4066
1096.4219
1096.4261
1096.4261
1096.4254
1096.4216
1096.4173
1096.4151
1096.4146
1096.4147
1096.4149
1096.4151
1096.4152
1096.4152
1096.4151
1096.4149
1096.4147
1096.4146
1096.4151
1096.4173
1096.4216
1096.4254
1096.4261
1096.4261
1096.426
1096.4251
1096.4239
1096.4232
1096.423
1096.423
1096.4231
1096.4231
1096.4232
1096.4232
1096.4231
1096.4231
1096.423
1096.423
1096.4232
1096.4239
1096.4251
1096.426
1096.4261
1096.4261
1096.4261
1096.4259
1096.4256
1096.4254
1096.4253
1096.4253
1096.4253
1096.4253
1096.4253
1096.4253
1096.4253
1096.4253
1096.4253
1096.4253
1096.4254
1096.4256
1096.4259
1096.4261
1096.4261
1096.4261
1096.4261
1096.4261
1096.426
1096.4259
1096.4259
1096.4259
1096.4259
1096.4259
1096.4259
1096.4259
1096.4259
1096.4259
1096.4259
1096.4259
1096.4259
1096.426
1096.4261
1096.4261
1096.4261
1096.4261
1096.4261
1096.4261
1096.4261
1096.4261
1096.4261
1096.4261
1096.4261
1096.4261
1096.4261
1096.4261
1096.4261
1096.4261
1096.4261
1096.4261
1096.4261
1096.4261
1096.4261
1096.4261
1096.4261
1096.4261
1096.4261
1096.4261
1096.4261
1096.4261
1096.4261
1096.4261
1096.4261
1096.4261
1096.4261
1096.4261
1096.4261
1096.4261
1096.4261
1096.4261
1096.4261
1096.4261
1096.4261
1096.4261
1096.4261
1096.4261
1096.4261
1096.4261
1096.4261
1096.4261
1096.4261
1096.4261
1096.4261
1096.4261
1096.4261
1096.4261
1096.4261
1096.4261
1096.4261
1096.4261
1096.4261
1096.4261
1096.4261
1096.4261
1096.4261
1096.4261
1096.4261
1096.4261
1096.4261
1096.4261
1096.4261
1096.4261
1096.4261
1096.4261
1096.4261
1096.4261
1096.4261
1096.4261
1096.4261
1096.4261
1096.4261
1096.4261
1096.4261
1096.4261
1096.4261
1096.4261
1096.4261
1096.4261
1096.4261
1096.4261
1096.4261
1096.4261
1096.4261
1096.4261
1096.4261
1096.4261
1096.4261
1096.4261
1096.4261
1096.4261
1096.4261
1096.4261
1096.4261
1096.4261
1096.4261
1096.4261
1096.4261
1096.4261
1096.4261
1096.4261
1096.4261
1096.4261
1096.4261
1096.4261
1096.4261
1096.4261
1096.4261
1096.4261
1096.4261
1096.4261
1096.4261
1096.4261
1096.4261
1096.4261
1096.4261
1096.4261
1096.4261
1096.4261
1096.4261
1096.4261
1096.4261
1096.4261
1096.4261
1096.4261
1096.4261
1096.4261
1096.4261
1096.4261
1096.4261
1096.4261
1096.4261
1096.4261
1096.4261
1096.4261
1096.4261
1096.4261
1096.4261
1096.4261
1096.4261
1096.4261
1096.4261
1096.4261
1096.4261
1096.4261
1096.4261
1096.4261
1096.4261
1096.4261
1096.4261
1096.4261
1096.4261
1096.4261
1096.4261
1096.4261
1096.4261
1096.4261
1096.4261
1096.4261
1096.4261
1096.4261
1096.4261
1096.4261
1096.4261
1096.4261
1096.4261
1096.4261
1096.4261
1096.4261
1096.4261
1096.4261
1096.4261
1096.4261
1096.4261
1096.4261
1096.4261
1096.4261
1096.4261
1096.4261
1096.4261
1096.4261
1096.4261
1096.4261
1096.4261
1096.4261
1096.4261
1096.4261
1096.4261
1096.4261
1096.4261
1096.4261
1096.4261
1096.4261
1096.4261
1096.4261
1096.4261
1096.4261
1096.4261
1096.4261
1096.4261
1096.4261
1096.4261
1096.4261
1096.4261
1096.4261
1096.4261
1096.4261
1096.4261
1096.4261
1096.4261
1096.4261
1096.4261
1096.4261
1096.4261
1096.4261
1096.4261
1096.4261
1096.4261
1096.4261
1096.4261
1096.4261
1096.4261
1096.4261
1096.4261
1096.4261
1096.4261
1096.4261
1096.4261
1096.4261
1096.4261
1096.4261
1096.4261
1096.4261
1096.4261
1096.4261
1096.4261
1096.4261
1096.4261
1096.4261
1096.4261
1096.4261
1096.4261
1096.4261
1096.4261
1096.4261
1096.4261
1096.4261
1096.4261
1096.4261
1096.4261
1096.4261
1096.4261
1096.4261
1096.4261
1096.4261
1096.4261
1096.4261
1096.4261
1096.4261
1096.4261
1096.4261
1096.4261
1096.4261
1096.4261
1096.4261
1096.4261
1096.4261
1096.4261
1096.4261
1096.4261
1096.4261
1096.4261
1096.4261
1096.4261
1096.4261
1096.4261
1096.4261
1096.4261
1096.4261
1096.4261
1096.4261
1096.4261
1096.4261
1096.4261
1096.4261
1096.4261
1096.4261
1096.4261
1096.4261
1096.4261
1096.4261
1096.4261
1096.4261
1096.4261
1096.4261
1096.4261
1096.4261
1096.4261
1096.4261
1096.4261
1096.4261
1096.4261
1096.4261
1096.4261
1096.4261
1096.4261
1096.4261
1096.4261
1096.4261
1096.4261
1096.4261
1096.4261
1096.4261
1096.4261
1096.4261
1096.4261
1096.4261
1096.4261
1096.4261
1096.4261
1096.4261
1096.4261
1096.4261
1096.4261
1096.4261
1096.4261
1096.4261
1096.4261
1096.4261
1096.4261
1096.4261
1096.4261
1096.4261
1096.4261
1096.4261
1096.4261
1096.4261
1096.4261
1096.4261
1096.4261
1096.4261
1096.4261
1096.4261
1096.4261
1096.4261
1096.4261
1096.4261
1096.4261
1096.4261
1096.4261
1096.4261
1096.4261
1096.4261
1096.4261
1096.4261
1096.4261
1096.4261
1096.4261
1096.4261
1096.4261
1096.4261
1096.4261
1096.4261
1096.4261
1096.4261
1096.4261
1096.4261
1096.4261
1096.4261
1096.4261
1096.4261
1096.4261
1096.4261
1096.4261
1096.4261
1096.4261
1096.4261
1096.4261
1096.4261
1096.4261
1096.4261
1096.4261
1096.4261
1096.4261
1096.4261
1096.4261
1096.4261
1096.4261
1096.4261
1096.4261
1096.4261
1096.4261
1096.4261
1096.4261
1096.4261
1096.4261
1096.4261
1096.4261
1096.4261
1096.4261
1096.4261
1096.4261
1096.4261
1096.4261
1096.4261
1096.4261
1096.4261
1096.4261
1096.4261
1096.4261
1096.4261
1096.4261
1096.4261
1096.4261
1096.4261
1096.4261
1096.4261
1096.4261
1096.4261
1096.4261
1096.4261
1096.4261
1096.4261
1096.4261
1096.4261
1096.4261
1096.4261
1096.4261
1096.4261
1096.4261
1096.4261
1096.4261
1096.4261
1096.4261
1096.4261
1096.4261
)
;

boundaryField
{
    Wall
    {
        type            zeroGradient;
    }
    frontAndBack
    {
        type            empty;
    }
    atmosphere
    {
        type            zeroGradient;
    }
}


// ************************************************************************* //
