/*--------------------------------*- C++ -*----------------------------------*\
| =========                 |                                                 |
| \\      /  F ield         | OpenFOAM: The Open Source CFD Toolbox           |
|  \\    /   O peration     | Version:  3.0.1                                 |
|   \\  /    A nd           | Web:      www.OpenFOAM.org                      |
|    \\/     M anipulation  |                                                 |
\*---------------------------------------------------------------------------*/
FoamFile
{
    version     2.0;
    format      ascii;
    class       volScalarField;
    location    "13";
    object      thermalDiff_gas;
}
// * * * * * * * * * * * * * * * * * * * * * * * * * * * * * * * * * * * * * //

dimensions      [0 2 -1 0 0 0 0];

internalField   nonuniform List<scalar> 
800
(
0.00025587334
0.00025587463
0.0002558747
0.00025587471
0.00025587471
0.0002558747
0.0002558747
0.0002558747
0.00025587469
0.00025587469
0.00025587469
0.00025587469
0.0002558747
0.0002558747
0.0002558747
0.00025587471
0.00025587471
0.0002558747
0.00025587463
0.00025587334
0.00024806997
0.00024817822
0.00024819296
0.00024819616
0.00024819872
0.00024820082
0.0002482025
0.00024820373
0.00024820452
0.00024820491
0.00024820491
0.00024820452
0.00024820373
0.0002482025
0.00024820082
0.00024819872
0.00024819617
0.00024819297
0.00024817823
0.00024806997
0.0002422682
0.00024243216
0.00024246209
0.00024246744
0.00024246921
0.00024247033
0.00024247127
0.00024247199
0.0002424725
0.00024247276
0.00024247276
0.0002424725
0.000242472
0.00024247127
0.00024247034
0.00024246921
0.00024246744
0.00024246209
0.00024243217
0.0002422682
0.00023756005
0.00023768063
0.00023771685
0.00023772851
0.00023773387
0.00023773713
0.00023773958
0.00023774126
0.00023774241
0.00023774297
0.00023774297
0.00023774241
0.00023774126
0.00023773958
0.00023773713
0.00023773387
0.00023772851
0.00023771685
0.00023768063
0.00023756005
0.00023549045
0.00023548853
0.0002354971
0.00023550574
0.00023551333
0.00023551963
0.00023552459
0.00023552823
0.00023553061
0.00023553179
0.00023553179
0.00023553061
0.00023552823
0.00023552459
0.00023551963
0.00023551332
0.00023550574
0.0002354971
0.00023548853
0.00023549045
0.00023416066
0.00023415837
0.00023416237
0.00023416896
0.00023417591
0.00023418219
0.00023418732
0.00023419116
0.0002341937
0.00023419496
0.00023419496
0.0002341937
0.00023419116
0.00023418732
0.00023418219
0.00023417591
0.00023416895
0.00023416236
0.00023415836
0.00023416066
0.00023338577
0.00023338838
0.00023339375
0.00023340051
0.00023340737
0.00023341351
0.00023341855
0.00023342232
0.00023342482
0.00023342606
0.00023342606
0.00023342482
0.00023342232
0.00023341855
0.00023341351
0.00023340737
0.00023340051
0.00023339375
0.00023338838
0.00023338577
0.00023268378
0.00023268995
0.00023269749
0.00023270524
0.00023271249
0.00023271873
0.00023272375
0.00023272748
0.00023272993
0.00023273114
0.00023273114
0.00023272993
0.00023272748
0.00023272375
0.00023271873
0.00023271248
0.00023270524
0.00023269748
0.00023268995
0.00023268378
0.00023205257
0.00023206221
0.00023207262
0.00023208208
0.00023209016
0.00023209674
0.00023210184
0.00023210556
0.00023210797
0.00023210915
0.00023210915
0.00023210797
0.00023210555
0.00023210184
0.00023209674
0.00023209016
0.00023208208
0.00023207262
0.00023206221
0.00023205257
0.00023148994
0.00023150163
0.00023151455
0.00023152592
0.00023153517
0.00023154236
0.00023154772
0.00023155152
0.00023155394
0.00023155513
0.00023155513
0.00023155394
0.00023155152
0.00023154772
0.00023154235
0.00023153517
0.00023152592
0.00023151455
0.00023150163
0.00023148993
0.00023099072
0.00023100312
0.0002310176
0.00023103053
0.00023104093
0.00023104884
0.00023105461
0.00023105861
0.00023106112
0.00023106234
0.00023106234
0.00023106112
0.0002310586
0.0002310546
0.00023104884
0.00023104093
0.00023103053
0.0002310176
0.00023100312
0.00023099071
0.00023054831
0.00023056059
0.00023057568
0.00023058953
0.00023060079
0.00023060935
0.00023061556
0.00023061983
0.00023062249
0.00023062377
0.00023062377
0.00023062249
0.00023061983
0.00023061556
0.00023060935
0.00023060079
0.00023058953
0.00023057568
0.00023056059
0.00023054831
0.00023015607
0.00023016779
0.00023018277
0.00023019693
0.00023020866
0.00023021768
0.00023022425
0.00023022876
0.00023023158
0.00023023294
0.00023023294
0.00023023158
0.00023022876
0.00023022425
0.00023021768
0.00023020866
0.00023019693
0.00023018277
0.00023016779
0.00023015607
0.00022980804
0.00022981897
0.0002298334
0.00022984738
0.00022985919
0.00022986841
0.00022987519
0.00022987989
0.00022988284
0.00022988426
0.00022988426
0.00022988284
0.00022987989
0.00022987519
0.00022986841
0.00022985919
0.00022984738
0.0002298334
0.00022981897
0.00022980804
0.0002294991
0.00022950917
0.00022952277
0.00022953622
0.00022954779
0.00022955696
0.00022956379
0.00022956858
0.0002295716
0.00022957305
0.00022957305
0.0002295716
0.00022956858
0.00022956379
0.00022955696
0.00022954779
0.00022953622
0.00022952277
0.00022950917
0.0002294991
0.00022922495
0.00022923414
0.00022924676
0.00022925945
0.00022927054
0.00022927945
0.00022928618
0.00022929094
0.00022929396
0.00022929543
0.00022929543
0.00022929396
0.00022929094
0.00022928618
0.00022927945
0.00022927054
0.00022925945
0.00022924676
0.00022923414
0.00022922495
0.00022898192
0.00022899026
0.00022900184
0.00022901363
0.00022902407
0.00022903257
0.00022903906
0.00022904369
0.00022904665
0.00022904809
0.00022904809
0.00022904665
0.00022904369
0.00022903906
0.00022903257
0.00022902407
0.00022901363
0.00022900184
0.00022899026
0.00022898192
0.00022876685
0.00022877436
0.00022878489
0.00022879572
0.00022880541
0.00022881338
0.00022881952
0.00022882394
0.00022882679
0.00022882818
0.00022882818
0.00022882679
0.00022882394
0.00022881952
0.00022881338
0.00022880541
0.00022879572
0.00022878489
0.00022877436
0.00022876685
0.00022857692
0.00022858365
0.00022859315
0.000228603
0.00022861188
0.00022861925
0.00022862499
0.00022862914
0.00022863183
0.00022863315
0.00022863315
0.00022863183
0.00022862914
0.00022862499
0.00022861925
0.00022861188
0.000228603
0.00022859315
0.00022858365
0.00022857692
0.0002284096
0.0002284156
0.00022842411
0.00022843299
0.00022844106
0.0002284478
0.00022845308
0.00022845692
0.00022845943
0.00022846066
0.00022846066
0.00022845943
0.00022845692
0.00022845308
0.0002284478
0.00022844106
0.00022843299
0.00022842411
0.0002284156
0.0002284096
0.00022826257
0.00022826789
0.00022827547
0.00022828343
0.00022829069
0.00022829679
0.0002283016
0.00022830512
0.00022830742
0.00022830855
0.00022830855
0.00022830742
0.00022830512
0.0002283016
0.00022829679
0.00022829069
0.00022828343
0.00022827547
0.00022826789
0.00022826257
0.00022813371
0.00022813841
0.00022814513
0.0002281522
0.00022815869
0.00022816417
0.00022816851
0.0002281717
0.00022817379
0.00022817482
0.00022817482
0.00022817379
0.0002281717
0.00022816851
0.00022816417
0.00022815869
0.0002281522
0.00022814513
0.00022813841
0.00022813371
0.00022802107
0.0002280252
0.00022803113
0.00022803739
0.00022804315
0.00022804804
0.00022805192
0.00022805478
0.00022805666
0.00022805759
0.00022805759
0.00022805666
0.00022805478
0.00022805192
0.00022804804
0.00022804315
0.00022803739
0.00022803113
0.0002280252
0.00022802107
0.00022792286
0.00022792649
0.0002279317
0.00022793721
0.0002279423
0.00022794662
0.00022795007
0.00022795262
0.0002279543
0.00022795513
0.00022795513
0.0002279543
0.00022795262
0.00022795007
0.00022794662
0.0002279423
0.00022793721
0.0002279317
0.00022792649
0.00022792286
0.00022783748
0.00022784064
0.0002278452
0.00022785003
0.0002278545
0.00022785831
0.00022786136
0.00022786361
0.0002278651
0.00022786584
0.00022786584
0.0002278651
0.00022786361
0.00022786136
0.00022785831
0.0002278545
0.00022785003
0.0002278452
0.00022784064
0.00022783748
0.00022776344
0.0002277662
0.00022777017
0.00022777438
0.00022777829
0.00022778163
0.0002277843
0.00022778629
0.0002277876
0.00022778825
0.00022778825
0.0002277876
0.00022778629
0.0002277843
0.00022778163
0.00022777829
0.00022777438
0.00022777017
0.0002277662
0.00022776344
0.00022769942
0.00022770181
0.00022770526
0.00022770893
0.00022771233
0.00022771524
0.00022771758
0.00022771931
0.00022772046
0.00022772103
0.00022772103
0.00022772046
0.00022771931
0.00022771758
0.00022771524
0.00022771233
0.00022770893
0.00022770526
0.00022770181
0.00022769942
0.00022764423
0.0002276463
0.00022764928
0.00022765246
0.00022765541
0.00022765794
0.00022765997
0.00022766148
0.00022766248
0.00022766298
0.00022766298
0.00022766248
0.00022766148
0.00022765997
0.00022765794
0.00022765541
0.00022765246
0.00022764928
0.0002276463
0.00022764423
0.00022759681
0.00022759859
0.00022760116
0.0002276039
0.00022760645
0.00022760864
0.00022761039
0.0002276117
0.00022761257
0.000227613
0.000227613
0.00022761257
0.0002276117
0.00022761039
0.00022760864
0.00022760645
0.0002276039
0.00022760116
0.00022759859
0.00022759681
0.00022755621
0.00022755774
0.00022755995
0.0002275623
0.0002275645
0.00022756638
0.00022756789
0.00022756902
0.00022756977
0.00022757014
0.00022757014
0.00022756977
0.00022756902
0.00022756789
0.00022756638
0.0002275645
0.0002275623
0.00022755995
0.00022755774
0.00022755621
0.00022752161
0.00022752292
0.0002275248
0.00022752682
0.0002275287
0.00022753031
0.00022753161
0.00022753258
0.00022753323
0.00022753355
0.00022753355
0.00022753323
0.00022753258
0.00022753161
0.00022753031
0.0002275287
0.00022752682
0.0002275248
0.00022752292
0.00022752161
0.00022749228
0.00022749339
0.000227495
0.00022749671
0.00022749832
0.00022749969
0.0002275008
0.00022750164
0.00022750219
0.00022750246
0.00022750246
0.00022750219
0.00022750164
0.0002275008
0.00022749969
0.00022749832
0.00022749671
0.000227495
0.00022749339
0.00022749228
0.0002274676
0.00022746854
0.00022746989
0.00022747135
0.00022747271
0.00022747388
0.00022747482
0.00022747553
0.000227476
0.00022747623
0.00022747623
0.000227476
0.00022747553
0.00022747482
0.00022747388
0.00022747271
0.00022747135
0.00022746989
0.00022746854
0.0002274676
0.00022744702
0.00022744781
0.00022744895
0.00022745017
0.00022745132
0.00022745231
0.00022745311
0.00022745371
0.00022745411
0.00022745431
0.00022745431
0.00022745411
0.00022745371
0.00022745311
0.00022745231
0.00022745132
0.00022745017
0.00022744895
0.00022744781
0.00022744702
0.00022743011
0.00022743076
0.00022743171
0.00022743273
0.0002274337
0.00022743453
0.00022743521
0.00022743572
0.00022743605
0.00022743622
0.00022743622
0.00022743605
0.00022743572
0.00022743521
0.00022743453
0.0002274337
0.00022743273
0.00022743171
0.00022743076
0.00022743011
0.00022741648
0.00022741702
0.0002274178
0.00022741865
0.00022741946
0.00022742016
0.00022742073
0.00022742116
0.00022742145
0.00022742159
0.00022742159
0.00022742145
0.00022742116
0.00022742073
0.00022742016
0.00022741946
0.00022741865
0.0002274178
0.00022741702
0.00022741648
0.00022740586
0.0002274063
0.00022740694
0.00022740764
0.00022740831
0.0002274089
0.00022740938
0.00022740975
0.00022741
0.00022741012
0.00022741012
0.00022741
0.00022740975
0.00022740938
0.0002274089
0.00022740831
0.00022740764
0.00022740694
0.0002274063
0.00022740586
0.00022739804
0.00022739839
0.00022739891
0.00022739949
0.00022740005
0.00022740055
0.00022740096
0.00022740128
0.00022740149
0.0002274016
0.0002274016
0.00022740149
0.00022740128
0.00022740096
0.00022740055
0.00022740005
0.00022739949
0.00022739891
0.00022739839
0.00022739804
0.00022739287
0.00022739314
0.00022739357
0.00022739406
0.00022739454
0.00022739498
0.00022739534
0.00022739562
0.00022739581
0.00022739591
0.00022739591
0.00022739581
0.00022739562
0.00022739534
0.00022739498
0.00022739454
0.00022739406
0.00022739357
0.00022739314
0.00022739287
0.00022739028
0.00022739051
0.00022739089
0.00022739132
0.00022739176
0.00022739216
0.00022739249
0.00022739276
0.00022739294
0.00022739303
0.00022739303
0.00022739294
0.00022739276
0.00022739249
0.00022739216
0.00022739176
0.00022739132
0.00022739089
0.00022739051
0.00022739028
)
;

boundaryField
{
    Wall
    {
        type            calculated;
        value           uniform 0.1;
    }
    frontAndBack
    {
        type            empty;
    }
    atmosphere
    {
        type            calculated;
        value           uniform 0.1;
    }
}


// ************************************************************************* //
