/*--------------------------------*- C++ -*----------------------------------*\
| =========                 |                                                 |
| \\      /  F ield         | OpenFOAM: The Open Source CFD Toolbox           |
|  \\    /   O peration     | Version:  3.0.1                                 |
|   \\  /    A nd           | Web:      www.OpenFOAM.org                      |
|    \\/     M anipulation  |                                                 |
\*---------------------------------------------------------------------------*/
FoamFile
{
    version     2.0;
    format      ascii;
    class       volScalarField;
    location    "13";
    object      TS;
}
// * * * * * * * * * * * * * * * * * * * * * * * * * * * * * * * * * * * * * //

dimensions      [0 0 0 1 0 0 0];

internalField   nonuniform List<scalar> 
800
(
316.84363
316.84448
316.84453
316.84453
316.84453
316.84453
316.84453
316.84452
316.84452
316.84452
316.84452
316.84452
316.84452
316.84453
316.84453
316.84453
316.84453
316.84453
316.84448
316.84363
311.77222
311.84311
311.85277
311.85485
311.85651
311.85788
311.85898
311.85978
311.8603
311.86055
311.86055
311.8603
311.85978
311.85898
311.85788
311.85651
311.85485
311.85277
311.84311
311.77223
307.9822
308.09017
308.10992
308.11345
308.11461
308.11535
308.11597
308.11644
308.11678
308.11694
308.11694
308.11678
308.11644
308.11597
308.11536
308.11462
308.11345
308.10993
308.09017
307.9822
304.86317
304.94461
304.96865
304.97627
304.97971
304.98178
304.98333
304.98438
304.98511
304.98546
304.98547
304.98511
304.98438
304.98333
304.98178
304.97971
304.97627
304.96865
304.94462
304.86317
303.44594
303.444
303.44928
303.45477
303.45967
303.46379
303.46705
303.46946
303.47105
303.47183
303.47183
303.47105
303.46946
303.46705
303.46378
303.45966
303.45477
303.44928
303.444
303.44594
302.56202
302.5603
302.5627
302.56688
302.57136
302.57544
302.57881
302.58135
302.58303
302.58386
302.58386
302.58303
302.58135
302.57881
302.57544
302.57136
302.56687
302.5627
302.56029
302.56202
302.04976
302.05135
302.05475
302.05908
302.06352
302.06753
302.07084
302.07333
302.07499
302.07581
302.07581
302.07498
302.07333
302.07084
302.06753
302.06352
302.05908
302.05475
302.05135
302.04975
301.58399
301.58798
301.59287
301.59791
301.60264
301.60673
301.61004
301.61251
301.61413
301.61494
301.61494
301.61413
301.61251
301.61004
301.60673
301.60263
301.59791
301.59287
301.58798
301.58399
301.16389
301.17024
301.17707
301.18329
301.1886
301.19294
301.19631
301.19877
301.20038
301.20117
301.20117
301.20038
301.19877
301.19631
301.19294
301.1886
301.18329
301.17707
301.17024
301.16388
300.78855
300.79631
300.80488
300.8124
300.81852
300.82328
300.82684
300.82936
300.83097
300.83176
300.83176
300.83097
300.82936
300.82683
300.82328
300.81852
300.8124
300.80487
300.79631
300.78854
300.45502
300.4633
300.47295
300.48154
300.48845
300.49371
300.49754
300.5002
300.50188
300.50269
300.50269
300.50188
300.5002
300.49754
300.49371
300.48845
300.48154
300.47294
300.4633
300.45502
300.15923
300.16745
300.17753
300.18677
300.19427
300.19998
300.20412
300.20696
300.20873
300.20958
300.20958
300.20873
300.20696
300.20412
300.19998
300.19427
300.18677
300.17753
300.16745
300.15923
299.89693
299.90477
299.9148
299.92426
299.9321
299.93812
299.9425
299.94552
299.9474
299.9483
299.9483
299.9474
299.94551
299.9425
299.93812
299.9321
299.92426
299.9148
299.90477
299.89693
299.66419
299.67152
299.68118
299.69053
299.69843
299.70459
299.70912
299.71226
299.71423
299.71518
299.71518
299.71423
299.71226
299.70912
299.70459
299.69843
299.69053
299.68118
299.67152
299.66419
299.45761
299.46436
299.47347
299.48247
299.49022
299.49636
299.50093
299.50413
299.50615
299.50712
299.50712
299.50615
299.50413
299.50093
299.49636
299.49022
299.48247
299.47347
299.46436
299.45761
299.2743
299.28047
299.28892
299.29742
299.30485
299.31082
299.31533
299.31851
299.32053
299.32151
299.32151
299.32053
299.31851
299.31533
299.31082
299.30485
299.29742
299.28892
299.28047
299.2743
299.11179
299.11738
299.12514
299.13305
299.14004
299.14574
299.15009
299.15319
299.15517
299.15614
299.15614
299.15517
299.15319
299.15009
299.14574
299.14004
299.13305
299.12514
299.11738
299.11179
298.96794
298.97298
298.98004
298.9873
298.9938
298.99914
299.00326
299.00623
299.00814
299.00907
299.00907
299.00814
299.00623
299.00326
298.99914
298.9938
298.9873
298.98004
298.97298
298.96794
298.84087
298.84538
298.85176
298.85836
298.86433
298.86927
298.87312
298.87591
298.87771
298.8786
298.8786
298.87771
298.87591
298.87312
298.86927
298.86433
298.85836
298.85176
298.84538
298.84087
298.72888
298.7329
298.73862
298.74458
298.75
298.75452
298.75807
298.76065
298.76233
298.76316
298.76316
298.76233
298.76065
298.75807
298.75452
298.75
298.74458
298.73862
298.7329
298.72888
298.63042
298.63399
298.63909
298.64443
298.64931
298.65341
298.65664
298.65901
298.66055
298.66131
298.66131
298.66055
298.65901
298.65664
298.65341
298.64931
298.64443
298.63909
298.63399
298.63042
298.54409
298.54725
298.55177
298.55652
298.56089
298.56457
298.56749
298.56963
298.57104
298.57173
298.57173
298.57104
298.56963
298.56749
298.56457
298.56089
298.55652
298.55177
298.54725
298.54409
298.4686
298.47138
298.47536
298.47957
298.48345
298.48674
298.48935
298.49127
298.49254
298.49316
298.49316
298.49254
298.49127
298.48935
298.48674
298.48345
298.47957
298.47536
298.47138
298.4686
298.40275
298.40518
298.40869
298.4124
298.41582
298.41873
298.42105
298.42277
298.4239
298.42446
298.42446
298.4239
298.42277
298.42105
298.41873
298.41582
298.4124
298.40869
298.40518
298.40275
298.34546
298.34759
298.35066
298.35391
298.35692
298.35949
298.36154
298.36306
298.36406
298.36456
298.36456
298.36406
298.36306
298.36154
298.35949
298.35692
298.35391
298.35066
298.34759
298.34546
298.29577
298.29763
298.3003
298.30314
298.30578
298.30803
298.30983
298.31116
298.31205
298.31249
298.31249
298.31205
298.31116
298.30983
298.30803
298.30578
298.30314
298.3003
298.29763
298.29577
298.25279
298.2544
298.25672
298.25919
298.26149
298.26345
298.26502
298.26619
298.26697
298.26735
298.26735
298.26697
298.26619
298.26502
298.26345
298.26149
298.25919
298.25672
298.2544
298.25279
298.21571
298.21711
298.21912
298.22126
298.22325
298.22496
298.22632
298.22734
298.22802
298.22835
298.22835
298.22802
298.22734
298.22632
298.22495
298.22325
298.22126
298.21912
298.21711
298.21571
298.18385
298.18505
298.18678
298.18863
298.19035
298.19182
298.19301
298.19389
298.19448
298.19477
298.19477
298.19448
298.19389
298.19301
298.19182
298.19035
298.18863
298.18678
298.18505
298.18385
298.15656
298.15759
298.15907
298.16066
298.16214
298.16342
298.16444
298.1652
298.16571
298.16596
298.16596
298.16571
298.1652
298.16444
298.16342
298.16214
298.16066
298.15907
298.15759
298.15656
298.13329
298.13417
298.13544
298.1368
298.13807
298.13916
298.14004
298.14069
298.14113
298.14134
298.14134
298.14113
298.14069
298.14004
298.13916
298.13807
298.1368
298.13544
298.13417
298.13329
298.11356
298.1143
298.11539
298.11655
298.11763
298.11856
298.11931
298.11987
298.12024
298.12043
298.12043
298.12024
298.11987
298.11931
298.11856
298.11763
298.11655
298.11539
298.1143
298.11356
298.09694
298.09758
298.09849
298.09948
298.10039
298.10119
298.10182
298.1023
298.10262
298.10278
298.10278
298.10262
298.1023
298.10182
298.10119
298.10039
298.09948
298.09849
298.09758
298.09694
298.08309
298.08362
298.08439
298.08522
298.086
298.08667
298.08721
298.08761
298.08788
298.08802
298.08802
298.08788
298.08761
298.08721
298.08667
298.086
298.08522
298.08439
298.08362
298.08309
298.0717
298.07214
298.07278
298.07348
298.07413
298.07469
298.07515
298.07549
298.07572
298.07584
298.07584
298.07572
298.07549
298.07515
298.07469
298.07413
298.07348
298.07278
298.07214
298.0717
298.06253
298.06289
298.06342
298.06399
298.06454
298.06501
298.0654
298.06569
298.06588
298.06598
298.06598
298.06588
298.06569
298.0654
298.06501
298.06454
298.06399
298.06342
298.06289
298.06253
298.05537
298.05566
298.0561
298.05657
298.05703
298.05742
298.05775
298.058
298.05817
298.05825
298.05825
298.05817
298.058
298.05775
298.05742
298.05703
298.05657
298.0561
298.05566
298.05537
298.0501
298.05033
298.05068
298.05108
298.05146
298.0518
298.05208
298.05229
298.05243
298.05251
298.05251
298.05243
298.05229
298.05208
298.0518
298.05146
298.05108
298.05068
298.05033
298.0501
298.04661
298.0468
298.04709
298.04742
298.04775
298.04804
298.04829
298.04848
298.04861
298.04867
298.04867
298.04861
298.04848
298.04829
298.04804
298.04775
298.04742
298.04709
298.0468
298.04661
298.04487
298.04503
298.04528
298.04557
298.04587
298.04614
298.04637
298.04655
298.04667
298.04673
298.04673
298.04667
298.04655
298.04637
298.04614
298.04587
298.04557
298.04528
298.04503
298.04487
)
;

boundaryField
{
    Wall
    {
        type            zeroGradient;
    }
    frontAndBack
    {
        type            empty;
    }
    atmosphere
    {
        type            zeroGradient;
    }
}


// ************************************************************************* //
