/*--------------------------------*- C++ -*----------------------------------*\
| =========                 |                                                 |
| \\      /  F ield         | OpenFOAM: The Open Source CFD Toolbox           |
|  \\    /   O peration     | Version:  3.0.1                                 |
|   \\  /    A nd           | Web:      www.OpenFOAM.org                      |
|    \\/     M anipulation  |                                                 |
\*---------------------------------------------------------------------------*/
FoamFile
{
    version     2.0;
    format      ascii;
    class       volVectorField;
    location    "13";
    object      U;
}
// * * * * * * * * * * * * * * * * * * * * * * * * * * * * * * * * * * * * * //

dimensions      [0 1 -1 0 0 0 0];

internalField   nonuniform List<vector> 
800
(
(3.2070899e-06 0.00039505293 0)
(4.7479207e-06 0.00039784026 0)
(4.1777524e-06 0.00039857108 0)
(3.5658367e-06 0.00039865154 0)
(3.1022234e-06 0.00039874433 0)
(2.60653e-06 0.00039885762 0)
(2.0774497e-06 0.00039896734 0)
(1.5131469e-06 0.00039905492 0)
(9.1971798e-07 0.00039911337 0)
(3.083784e-07 0.00039914284 0)
(-3.0843407e-07 0.00039914284 0)
(-9.197553e-07 0.00039911337 0)
(-1.5131523e-06 0.00039905491 0)
(-2.0774256e-06 0.00039896733 0)
(-2.6064839e-06 0.00039885762 0)
(-3.1021758e-06 0.00039874435 0)
(-3.5658036e-06 0.00039865158 0)
(-4.1777445e-06 0.00039857115 0)
(-4.7479968e-06 0.00039784033 0)
(-3.2071813e-06 0.0003950529 0)
(9.4784692e-07 0.0007667179 0)
(2.2235279e-06 0.00077140179 0)
(2.5917128e-06 0.00077226679 0)
(2.5504479e-06 0.00077225299 0)
(2.4250774e-06 0.00077222335 0)
(2.1143621e-06 0.00077222887 0)
(1.719062e-06 0.00077225202 0)
(1.2651523e-06 0.00077227412 0)
(7.7314282e-07 0.00077228846 0)
(2.5993188e-07 0.00077229532 0)
(-2.6002882e-07 0.00077229532 0)
(-7.732236e-07 0.00077228845 0)
(-1.2652048e-06 0.0007722741 0)
(-1.7190862e-06 0.00077225199 0)
(-2.1143663e-06 0.00077222883 0)
(-2.425078e-06 0.00077222332 0)
(-2.55045e-06 0.00077225296 0)
(-2.5917114e-06 0.00077226676 0)
(-2.2235593e-06 0.00077140176 0)
(-9.4787465e-07 0.00076671777 0)
(8.0683986e-07 0.001398844 0)
(1.9349223e-06 0.0014052942 0)
(2.1712937e-06 0.0014064274 0)
(2.2225705e-06 0.0014065906 0)
(2.1871771e-06 0.0014067147 0)
(1.9265586e-06 0.001406842 0)
(1.568322e-06 0.0014069437 0)
(1.1506315e-06 0.0014070128 0)
(7.0047023e-07 0.0014070525 0)
(2.3489168e-07 0.0014070704 0)
(-2.3494581e-07 0.0014070704 0)
(-7.0051081e-07 0.0014070525 0)
(-1.1506481e-06 0.0014070128 0)
(-1.5683126e-06 0.0014069437 0)
(-1.92653e-06 0.001406842 0)
(-2.187152e-06 0.0014067147 0)
(-2.222545e-06 0.0014065906 0)
(-2.1712546e-06 0.0014064275 0)
(-1.9349124e-06 0.0014052942 0)
(-8.0683433e-07 0.0013988439 0)
(-7.2216829e-07 0.0018980658 0)
(3.3475179e-07 0.0019060005 0)
(2.0189411e-06 0.0019073661 0)
(2.3891365e-06 0.0019078761 0)
(2.4181277e-06 0.0019082483 0)
(2.1111452e-06 0.0019085244 0)
(1.6847554e-06 0.0019086841 0)
(1.2147087e-06 0.0019087767 0)
(7.3078747e-07 0.0019088212 0)
(2.4367385e-07 0.0019088399 0)
(-2.4365076e-07 0.0019088399 0)
(-7.3074832e-07 0.0019088212 0)
(-1.2146433e-06 0.0019087767 0)
(-1.6846573e-06 0.0019086841 0)
(-2.1110241e-06 0.0019085245 0)
(-2.4180252e-06 0.0019082484 0)
(-2.3890392e-06 0.0019078762 0)
(-2.0188314e-06 0.0019073662 0)
(-3.3470918e-07 0.0019060006 0)
(7.2217268e-07 0.0018980659 0)
(-9.2669698e-07 0.0022655405 0)
(8.4193528e-07 0.002280338 0)
(3.6233258e-06 0.0022831538 0)
(3.9572859e-06 0.0022845182 0)
(3.6873751e-06 0.0022851076 0)
(3.0326399e-06 0.0022853501 0)
(2.3038087e-06 0.0022854071 0)
(1.6175424e-06 0.0022853811 0)
(9.5755199e-07 0.0022853465 0)
(3.1698372e-07 0.0022853223 0)
(-3.1692376e-07 0.0022853223 0)
(-9.5746014e-07 0.0022853465 0)
(-1.6173995e-06 0.0022853812 0)
(-2.3035792e-06 0.0022854072 0)
(-3.032374e-06 0.0022853503 0)
(-3.6872178e-06 0.0022851079 0)
(-3.9571619e-06 0.0022845185 0)
(-3.6231456e-06 0.0022831541 0)
(-8.4191353e-07 0.0022803384 0)
(9.2662707e-07 0.0022655408 0)
(2.0240714e-05 0.0025873229 0)
(2.9139634e-05 0.0026134388 0)
(1.7621743e-05 0.0026172186 0)
(1.2192811e-05 0.0026194029 0)
(8.7302112e-06 0.0026201236 0)
(6.3250359e-06 0.0026201952 0)
(4.4487665e-06 0.0026200941 0)
(2.9860645e-06 0.0026199157 0)
(1.758287e-06 0.0026197857 0)
(5.7208365e-07 0.0026196966 0)
(-5.7208423e-07 0.0026196967 0)
(-1.7581781e-06 0.0026197857 0)
(-2.9857196e-06 0.0026199157 0)
(-4.4481994e-06 0.0026200943 0)
(-6.3243694e-06 0.0026201954 0)
(-8.7299716e-06 0.0026201241 0)
(-1.2192713e-05 0.0026194036 0)
(-1.7621442e-05 0.0026172192 0)
(-2.91397e-05 0.0026134395 0)
(-2.0240894e-05 0.0025873236 0)
(0.00013921956 0.0025718925 0)
(0.00020666473 0.0027021925 0)
(0.00014054581 0.0027012469 0)
(9.4507837e-05 0.0026959961 0)
(6.445611e-05 0.0026931322 0)
(4.4590937e-05 0.0026915581 0)
(3.0595374e-05 0.0026906009 0)
(2.0095374e-05 0.0026901857 0)
(1.1512799e-05 0.0026899583 0)
(3.7205572e-06 0.0026897603 0)
(-3.7224291e-06 0.0026897602 0)
(-1.1514187e-05 0.0026899583 0)
(-2.0095678e-05 0.0026901854 0)
(-3.0595111e-05 0.002690601 0)
(-4.459014e-05 0.0026915586 0)
(-6.4455524e-05 0.002693133 0)
(-9.450789e-05 0.0026959977 0)
(-0.00014054548 0.0027012474 0)
(-0.00020666441 0.0027021935 0)
(-0.0001392195 0.0025718933 0)
(0.00032303368 0.002035291 0)
(0.00059899182 0.002611542 0)
(0.00054504097 0.0026720128 0)
(0.00043474505 0.0026526257 0)
(0.00032852878 0.0026288789 0)
(0.00024026188 0.0026115217 0)
(0.00016993387 0.002599733 0)
(0.00011316057 0.0025930865 0)
(6.4769091e-05 0.0025891885 0)
(2.1086858e-05 0.0025873541 0)
(-2.1096035e-05 0.0025873531 0)
(-6.4777168e-05 0.0025891877 0)
(-0.00011316636 0.0025930842 0)
(-0.00016993777 0.0025997319 0)
(-0.00024026463 0.0026115227 0)
(-0.00032853024 0.0026288797 0)
(-0.00043474672 0.0026526273 0)
(-0.0005450422 0.0026720133 0)
(-0.00059899208 0.0026115424 0)
(-0.00032303404 0.0020352913 0)
(0.00023891794 0.0015492388 0)
(0.00053833138 0.0024490247 0)
(0.00059752414 0.0026877318 0)
(0.000540435 0.0027295672 0)
(0.00044254744 0.0027124183 0)
(0.00034103232 0.0026824417 0)
(0.00024947526 0.0026553795 0)
(0.00016962132 0.0026362236 0)
(9.8137541e-05 0.0026242929 0)
(3.2155923e-05 0.0026186723 0)
(-3.2166475e-05 0.002618671 0)
(-9.8148041e-05 0.0026242904 0)
(-0.00016962995 0.0026362198 0)
(-0.0002494816 0.0026553768 0)
(-0.00034103762 0.0026824414 0)
(-0.00044255041 0.0027124178 0)
(-0.00054043746 0.0027295679 0)
(-0.00059752617 0.002687732 0)
(-0.000538332 0.0024490238 0)
(-0.00023891829 0.0015492381 0)
(0.00013823732 0.001224489 0)
(0.00037404785 0.0022709882 0)
(0.00048369638 0.00266941 0)
(0.00048144832 0.0027971749 0)
(0.00042102593 0.0028125052 0)
(0.00034010477 0.0027869179 0)
(0.00025721101 0.0027538444 0)
(0.0001787939 0.0027266075 0)
(0.00010480854 0.0027085967 0)
(3.4576233e-05 0.0026999151 0)
(-3.4582971e-05 0.0026999136 0)
(-0.00010481601 0.002708593 0)
(-0.00017880056 0.0027266028 0)
(-0.00025721567 0.0027538402 0)
(-0.00034010955 0.0027869157 0)
(-0.00042102867 0.0028125029 0)
(-0.00048144978 0.0027971741 0)
(-0.00048369777 0.0026694096 0)
(-0.00037404813 0.0022709867 0)
(-0.00013823739 0.0012244875 0)
(7.3926823e-05 0.0010288162 0)
(0.00023535917 0.0021065149 0)
(0.00034601984 0.0026094685 0)
(0.00037271441 0.0028143777 0)
(0.00034506272 0.0028705159 0)
(0.00029108177 0.0028606959 0)
(0.00022741241 0.0028308484 0)
(0.0001616696 0.0028018107 0)
(9.6122331e-05 0.0027813186 0)
(3.1932202e-05 0.0027711525 0)
(-3.1934533e-05 0.002771151 0)
(-9.6124878e-05 0.0027813144 0)
(-0.00016167155 0.0028018055 0)
(-0.00022741288 0.002830843 0)
(-0.00029108389 0.0028606919 0)
(-0.00034506378 0.0028705128 0)
(-0.00037271395 0.0028143757 0)
(-0.00034601999 0.0026094678 0)
(-0.00023535881 0.0021065136 0)
(-7.3926673e-05 0.0010288147 0)
(3.886416e-05 0.0009160782 0)
(0.00014248266 0.0019810862 0)
(0.00023361152 0.0025426786 0)
(0.00026916292 0.0028047154 0)
(0.00026200839 0.0028979556 0)
(0.00022993339 0.002907611 0)
(0.00018527568 0.0028862938 0)
(0.0001345847 0.0028601158 0)
(8.1159462e-05 0.0028402067 0)
(2.7148512e-05 0.0028300071 0)
(-2.7146127e-05 0.0028300059 0)
(-8.1157473e-05 0.0028402027 0)
(-0.0001345829 0.0028601106 0)
(-0.00018527282 0.002886288 0)
(-0.00022993226 0.002907606 0)
(-0.00026200704 0.0028979524 0)
(-0.00026916013 0.0028047132 0)
(-0.00023360994 0.002542678 0)
(-0.00014248173 0.0019810852 0)
(-3.8863755e-05 0.00091607669 0)
(2.0929272e-05 0.00085107519 0)
(8.609637e-05 0.0018942943 0)
(0.00015411061 0.0024865053 0)
(0.00018789186 0.0027868227 0)
(0.00019103145 0.0029091011 0)
(0.00017368885 0.0029371296 0)
(0.0001439701 0.0029260848 0)
(0.00010666614 0.0029052182 0)
(6.5187596e-05 0.0028878159 0)
(2.1950306e-05 0.0028785694 0)
(-2.1944484e-05 0.0028785683 0)
(-6.5182466e-05 0.0028878124 0)
(-0.00010666159 0.0029052132 0)
(-0.0001439648 0.0029260794 0)
(-0.00017368489 0.0029371242 0)
(-0.00019102811 0.0029090981 0)
(-0.00018788796 0.0027868208 0)
(-0.00015410798 0.0024865052 0)
(-8.6095104e-05 0.0018942942 0)
(-2.0929032e-05 0.00085107431 0)
(1.1795373e-05 0.00081266849 0)
(5.2934806e-05 0.0018360306 0)
(0.00010122939 0.0024435989 0)
(0.00012922588 0.0027683081 0)
(0.00013633224 0.002911647 0)
(0.00012785212 0.0029549396 0)
(0.00010865237 0.0029537638 0)
(8.1925656e-05 0.0029389468 0)
(5.0675105e-05 0.0029249105 0)
(1.7164617e-05 0.0029171216 0)
(-1.7157602e-05 0.0029171207 0)
(-5.0668243e-05 0.0029249077 0)
(-8.1919429e-05 0.0029389425 0)
(-0.00010864587 0.0029537592 0)
(-0.00012784618 0.0029549345 0)
(-0.00013632741 0.0029116445 0)
(-0.0001292214 0.0027683068 0)
(-0.00010122562 0.0024435998 0)
(-5.2932667e-05 0.001836032 0)
(-1.1794879e-05 0.00081266858 0)
(6.9607131e-06 0.0007892393 0)
(3.3282024e-05 0.0017971367 0)
(6.6789638e-05 0.0024121725 0)
(8.8430886e-05 0.0027520698 0)
(9.6214859e-05 0.0029100817 0)
(9.2649472e-05 0.0029651858 0)
(8.0435699e-05 0.002972512 0)
(6.1588391e-05 0.0029634532 0)
(3.8501956e-05 0.0029528917 0)
(1.3107963e-05 0.0029467017 0)
(-1.3100384e-05 0.002946701 0)
(-3.8494586e-05 0.0029528892 0)
(-6.158188e-05 0.0029634493 0)
(-8.0429219e-05 0.0029725082 0)
(-9.2643019e-05 0.0029651815 0)
(-9.620988e-05 0.0029100797 0)
(-8.8426519e-05 0.0027520696 0)
(-6.6785719e-05 0.0024121748 0)
(-3.3280252e-05 0.0017971395 0)
(-6.9604497e-06 0.00078924039 0)
(4.2666493e-06 0.00077453324 0)
(2.1363026e-05 0.0017711508 0)
(4.440178e-05 0.0023897092 0)
(6.0490892e-05 0.0027389947 0)
(6.751003e-05 0.0029070217 0)
(6.647352e-05 0.0029708947 0)
(5.8752044e-05 0.0029850943 0)
(4.5585602e-05 0.0029810156 0)
(2.876056e-05 0.0029736178 0)
(9.8339824e-06 0.002968941 0)
(-9.8269429e-06 0.0029689402 0)
(-2.8753763e-05 0.0029736157 0)
(-4.5579129e-05 0.002981012 0)
(-5.8745923e-05 0.0029850907 0)
(-6.6467176e-05 0.002970891 0)
(-6.7505028e-05 0.0029070203 0)
(-6.0487167e-05 0.0027389955 0)
(-4.439838e-05 0.0023897125 0)
(-2.1361007e-05 0.0017711554 0)
(-4.2660418e-06 0.00077453512 0)
(2.6884368e-06 0.00076509108 0)
(1.394525e-05 0.0017537153 0)
(2.9755402e-05 0.0023738651 0)
(4.1445708e-05 0.0027289676 0)
(4.7230833e-05 0.002903772 0)
(4.7379336e-05 0.0029739944 0)
(4.2496203e-05 0.0029935274 0)
(3.3347223e-05 0.00299351 0)
(2.1203936e-05 0.0029887908 0)
(7.2763582e-06 0.0029854295 0)
(-7.2706132e-06 0.0029854286 0)
(-2.1198543e-05 0.002988789 0)
(-3.3342011e-05 0.0029935071 0)
(-4.2491208e-05 0.0029935239 0)
(-4.7373719e-05 0.0029739913 0)
(-4.7226495e-05 0.0029037709 0)
(-4.1442676e-05 0.002728969 0)
(-2.9752187e-05 0.0023738694 0)
(-1.3943727e-05 0.001753721 0)
(-2.6883902e-06 0.00076509371 0)
(1.725924e-06 0.00075892255 0)
(9.2230394e-06 0.0017419453 0)
(2.0085326e-05 0.0023627569 0)
(2.8463798e-05 0.0027214925 0)
(3.2999205e-05 0.0029008768 0)
(3.3617592e-05 0.0029756264 0)
(3.0515941e-05 0.0029991837 0)
(2.4175849e-05 0.0030023513 0)
(1.5473504e-05 0.0029997948 0)
(5.3260102e-06 0.0029975167 0)
(-5.3210739e-06 0.0029975161 0)
(-1.5468647e-05 0.0029997931 0)
(-2.4171409e-05 0.003002349 0)
(-3.0511911e-05 0.0029991808 0)
(-3.3613211e-05 0.002975624 0)
(-3.299584e-05 0.0029008757 0)
(-2.8461871e-05 0.0027214947 0)
(-2.0083449e-05 0.002362762 0)
(-9.2219433e-06 0.0017419518 0)
(-1.7258632e-06 0.00075892621 0)
(1.1216386e-06 0.00075484312 0)
(6.1598948e-06 0.0017339527 0)
(1.3640207e-05 0.0023549878 0)
(1.9599682e-05 0.0027160202 0)
(2.3045977e-05 0.0028985017 0)
(2.3774697e-05 0.0029764522 0)
(2.1792834e-05 0.003002987 0)
(1.7404075e-05 0.0030085839 0)
(1.1200002e-05 0.0030077157 0)
(3.8646171e-06 0.0030062962 0)
(-3.860976e-06 0.003006296 0)
(-1.1196599e-05 0.0030077141 0)
(-1.7400992e-05 0.0030085818 0)
(-2.1790303e-05 0.0030029844 0)
(-2.377201e-05 0.0029764502 0)
(-2.3043586e-05 0.0028985007 0)
(-1.9598199e-05 0.0027160226 0)
(-1.3638948e-05 0.0023549938 0)
(-6.1592085e-06 0.0017339603 0)
(-1.1216546e-06 0.00075484716 0)
(7.3408928e-07 0.00075212194 0)
(4.1419544e-06 0.0017284981 0)
(9.3070854e-06 0.0023495585 0)
(1.3530353e-05 0.0027120637 0)
(1.6095015e-05 0.0028966376 0)
(1.6772124e-05 0.0029768449 0)
(1.5498285e-05 0.0030055533 0)
(1.2459958e-05 0.0030129663 0)
(8.054426e-06 0.0030133839 0)
(2.7850764e-06 0.0030126268 0)
(-2.7823412e-06 0.0030126264 0)
(-8.0521432e-06 0.0030133825 0)
(-1.2458188e-05 0.0030129642 0)
(-1.5496886e-05 0.003005551 0)
(-1.6770656e-05 0.0029768435 0)
(-1.6093616e-05 0.0028966373 0)
(-1.3529432e-05 0.0027120662 0)
(-9.3063294e-06 0.0023495648 0)
(-4.1414025e-06 0.0017285064 0)
(-7.3403712e-07 0.00075212646 0)
(4.8271354e-07 0.00075029624 0)
(2.7983897e-06 0.0017247586 0)
(6.3737673e-06 0.0023457659 0)
(9.3598794e-06 0.0027092261 0)
(1.1240654e-05 0.0028952154 0)
(1.181006e-05 0.0029770127 0)
(1.0986732e-05 0.0030072914 0)
(8.8808842e-06 0.0030160422 0)
(5.7618005e-06 0.0030174219 0)
(1.9955851e-06 0.0030171651 0)
(-1.9941818e-06 0.0030171645 0)
(-5.7604139e-06 0.0030174208 0)
(-8.8799684e-06 0.0030160401 0)
(-1.0985682e-05 0.003007289 0)
(-1.1809083e-05 0.0029770115 0)
(-1.1240124e-05 0.0028952159 0)
(-9.359598e-06 0.002709229 0)
(-6.3731974e-06 0.0023457724 0)
(-2.7978403e-06 0.0017247672 0)
(-4.8257869e-07 0.00075030131 0)
(3.1757257e-07 0.00074906721 0)
(1.8968446e-06 0.001722186 0)
(4.3775434e-06 0.0023431151 0)
(6.4851673e-06 0.0027071999 0)
(7.8500933e-06 0.0028941532 0)
(8.304039e-06 0.0029770692 0)
(7.768694e-06 0.0030084728 0)
(6.3075214e-06 0.0030181987 0)
(4.104502e-06 0.0030202886 0)
(1.4235502e-06 0.0030204035 0)
(-1.4227664e-06 0.0030204032 0)
(-4.1039156e-06 0.0030202879 0)
(-6.307252e-06 0.0030181971 0)
(-7.7680025e-06 0.0030084706 0)
(-8.3033384e-06 0.0029770676 0)
(-7.8496952e-06 0.0028941538 0)
(-6.484892e-06 0.0027072031 0)
(-4.3769432e-06 0.0023431219 0)
(-1.8964739e-06 0.0017221947 0)
(-3.1759762e-07 0.00074907257 0)
(2.0898142e-07 0.000748238 0)
(1.2886922e-06 0.0017204122 0)
(3.0128046e-06 0.0023412618 0)
(4.4983222e-06 0.0027057582 0)
(5.4813055e-06 0.0028933718 0)
(5.8314116e-06 0.0029770733 0)
(5.4814238e-06 0.0030092786 0)
(4.4667789e-06 0.0030197095 0)
(2.9136773e-06 0.003022318 0)
(1.0117151e-06 0.0030227057 0)
(-1.0114288e-06 0.0030227055 0)
(-2.9139405e-06 0.0030223171 0)
(-4.4673853e-06 0.0030197083 0)
(-5.4817293e-06 0.003009277 0)
(-5.831512e-06 0.002977072 0)
(-5.4812498e-06 0.002893372 0)
(-4.4977995e-06 0.0027057609 0)
(-3.0120241e-06 0.0023412684 0)
(-1.2882897e-06 0.0017204214 0)
(-2.088606e-07 0.00074824373 0)
(1.3737372e-07 0.00074767757 0)
(8.7696144e-07 0.0017191872 0)
(2.0765907e-06 0.0023399661 0)
(3.1227203e-06 0.0027047353 0)
(3.8267323e-06 0.0028928029 0)
(4.0905129e-06 0.0029770554 0)
(3.8604224e-06 0.0030098301 0)
(3.1554266e-06 0.0030207669 0)
(2.0624519e-06 0.0030237512 0)
(7.1670721e-07 0.0030243374 0)
(-7.1708855e-07 0.0030243368 0)
(-2.0631114e-06 0.0030237499 0)
(-3.1562933e-06 0.0030207658 0)
(-3.8610693e-06 0.0030098283 0)
(-4.0909592e-06 0.0029770539 0)
(-3.8267867e-06 0.0028928027 0)
(-3.1219608e-06 0.0027047375 0)
(-2.0755001e-06 0.002339972 0)
(-8.7617379e-07 0.0017191967 0)
(-1.3714576e-07 0.00074768383 0)
(8.9924404e-08 0.00074729829 0)
(5.9696844e-07 0.00171834 0)
(1.4324684e-06 0.0023390599 0)
(2.1688038e-06 0.0027040117 0)
(2.6713383e-06 0.0028923918 0)
(2.8668042e-06 0.0029770301 0)
(2.7144377e-06 0.0030102084 0)
(2.2245016e-06 0.003021507 0)
(1.4562965e-06 0.003024761 0)
(5.062237e-07 0.0030254906 0)
(-5.0728721e-07 0.0030254896 0)
(-1.4576093e-06 0.0030247595 0)
(-2.2259223e-06 0.0030215052 0)
(-2.7156957e-06 0.0030102062 0)
(-2.8674517e-06 0.0029770279 0)
(-2.67122e-06 0.002892391 0)
(-2.1680564e-06 0.002704013 0)
(-1.4315768e-06 0.0023390657 0)
(-5.9627035e-07 0.0017183498 0)
(-8.9693567e-08 0.00074730517 0)
(5.8689781e-08 0.00074704195 0)
(4.0688139e-07 0.0017177537 0)
(9.8922009e-07 0.002338426 0)
(1.5066638e-06 0.0027035006 0)
(1.8637307e-06 0.0028920963 0)
(2.0072634e-06 0.0029770046 0)
(1.9061575e-06 0.0030104682 0)
(1.5653199e-06 0.0030220246 0)
(1.0259825e-06 0.0030254714 0)
(3.5647507e-07 0.0030263037 0)
(-3.5845134e-07 0.003026303 0)
(-1.0282538e-06 0.00302547 0)
(-1.5673422e-06 0.0030220224 0)
(-1.9075597e-06 0.0030104656 0)
(-2.0082612e-06 0.0029770019 0)
(-1.8641485e-06 0.0028920946 0)
(-1.5059586e-06 0.0027035011 0)
(-9.8821914e-07 0.0023384318 0)
(-4.0613897e-07 0.0017177641 0)
(-5.8365231e-08 0.00074704952 0)
(3.8146158e-08 0.00074686863 0)
(2.7720362e-07 0.0017173475 0)
(6.8310372e-07 0.0023379829 0)
(1.0464293e-06 0.00270314 0)
(1.2997503e-06 0.002891885 0)
(1.4041351e-06 0.0029769823 0)
(1.3365189e-06 0.0030106472 0)
(1.0994613e-06 0.0030223863 0)
(7.2121762e-07 0.003025971 0)
(2.4999717e-07 0.0030268764 0)
(-2.534188e-07 0.003026876 0)
(-7.2458382e-07 0.0030259692 0)
(-1.102758e-06 0.003022384 0)
(-1.3393223e-06 0.003010644 0)
(-1.4060927e-06 0.0029769791 0)
(-1.3008826e-06 0.0028918823 0)
(-1.0468115e-06 0.0027031399 0)
(-6.8254934e-07 0.0023379881 0)
(-2.7630672e-07 0.0017173579 0)
(-3.7776238e-08 0.00074687676 0)
(2.4424958e-08 0.00074675182 0)
(1.884139e-07 0.0017170659 0)
(4.7162807e-07 0.0023376733 0)
(7.2683504e-07 0.0027028858 0)
(9.061749e-07 0.0028917344 0)
(9.815725e-07 0.002976964 0)
(9.3612105e-07 0.0030107707 0)
(7.7117836e-07 0.0030226392 0)
(5.059635e-07 0.0030263214 0)
(1.7468e-07 0.0030272794 0)
(-1.7928823e-07 0.0030272789 0)
(-5.1038716e-07 0.0030263196 0)
(-7.7528051e-07 0.0030226365 0)
(-9.3998191e-07 0.003010767 0)
(-9.8462188e-07 0.0029769602 0)
(-9.0807737e-07 0.0028917309 0)
(-7.2798085e-07 0.0027028852 0)
(-4.7193437e-07 0.0023376778 0)
(-1.8810146e-07 0.0017170762 0)
(-2.4218259e-08 0.00074675967 0)
(1.518536e-08 0.00074667329 0)
(1.2758918e-07 0.001716871 0)
(3.2542975e-07 0.0023374568 0)
(5.0457567e-07 0.002702707 0)
(6.3132355e-07 0.0028916271 0)
(6.8554947e-07 0.0029769493 0)
(6.5526498e-07 0.0030108557 0)
(5.4048844e-07 0.0030228158 0)
(3.5429925e-07 0.0030265669 0)
(1.2136189e-07 0.0030275624 0)
(-1.2773071e-07 0.0030275617 0)
(-3.6019831e-07 0.0030265653 0)
(-5.4571261e-07 0.0030228128 0)
(-6.60213e-07 0.0030108518 0)
(-6.900052e-07 0.0029769453 0)
(-6.3496535e-07 0.0028916232 0)
(-5.0726346e-07 0.0027027054 0)
(-3.2691764e-07 0.0023374603 0)
(-1.2823201e-07 0.0017168805 0)
(-1.5441464e-08 0.00074668088 0)
(9.356533e-09 0.00074662056 0)
(8.6057775e-08 0.0017167361 0)
(2.2423526e-07 0.0023373052 0)
(3.5036572e-07 0.0027025812 0)
(4.3998562e-07 0.0028915509 0)
(4.7907932e-07 0.002976938 0)
(4.5867067e-07 0.0030109142 0)
(3.7836292e-07 0.0030229389 0)
(2.4780999e-07 0.0030267391 0)
(8.393799e-08 0.0030277609 0)
(-9.1334007e-08 0.0030277603 0)
(-2.5463309e-07 0.0030267376 0)
(-3.8506962e-07 0.0030229357 0)
(-4.650641e-07 0.0030109105 0)
(-4.8490835e-07 0.0029769336 0)
(-4.4513591e-07 0.0028915464 0)
(-3.545423e-07 0.0027025782 0)
(-2.2751112e-07 0.0023373072 0)
(-8.7960384e-08 0.0017167442 0)
(-9.7911128e-09 0.00074662763 0)
(5.621107e-09 0.00074658563 0)
(5.8105694e-08 0.0017166426 0)
(1.5453828e-07 0.0023371989 0)
(2.4330945e-07 0.0027024924 0)
(3.0711942e-07 0.0028914968 0)
(3.3515718e-07 0.0029769295 0)
(3.2119214e-07 0.0030109548 0)
(2.6516709e-07 0.0030230249 0)
(1.7343301e-07 0.0030268602 0)
(5.7875953e-08 0.0030279003 0)
(-6.5716252e-08 0.0030279 0)
(-1.8102858e-07 0.0030268585 0)
(-2.7298595e-07 0.0030230218 0)
(-3.2875952e-07 0.0030109511 0)
(-3.4219553e-07 0.0029769243 0)
(-3.1387043e-07 0.0028914914 0)
(-2.494466e-07 0.0027024885 0)
(-1.5890786e-07 0.0023371995 0)
(-6.0358567e-08 0.0017166491 0)
(-6.2819283e-09 0.00074659145 0)
(3.2307005e-09 0.00074656247 0)
(3.8930839e-08 0.0017165776 0)
(1.0644702e-07 0.002337124 0)
(1.6938067e-07 0.002702429 0)
(2.1512869e-07 0.0028914579 0)
(2.3546598e-07 0.0029769226 0)
(2.2570002e-07 0.003010983 0)
(1.8620108e-07 0.0030230855 0)
(1.2100885e-07 0.0030269454 0)
(3.9060307e-08 0.0030279989 0)
(-4.8366515e-08 0.0030279983 0)
(-1.3009376e-07 0.0030269436 0)
(-1.9514e-07 0.0030230825 0)
(-2.3476681e-07 0.0030109793 0)
(-2.4411321e-07 0.0029769172 0)
(-2.235713e-07 0.002891452 0)
(-1.7745421e-07 0.0027024245 0)
(-1.1271385e-07 0.0023371234 0)
(-4.2134716e-08 0.0017165818 0)
(-3.9429767e-09 0.00074656678 0)
(1.6309464e-09 0.00074654715 0)
(2.6325376e-08 0.0017165322 0)
(7.4679663e-08 0.002337071 0)
(1.200237e-07 0.0027023836 0)
(1.5264241e-07 0.00289143 0)
(1.6704958e-07 0.0029769175 0)
(1.6000182e-07 0.0030110031 0)
(1.3148705e-07 0.0030231288 0)
(8.4911611e-08 0.0030270061 0)
(2.6172677e-08 0.0030280692 0)
(-3.6538251e-08 0.0030280684 0)
(-9.5075175e-08 0.0030270045 0)
(-1.4156801e-07 0.0030231257 0)
(-1.7010121e-07 0.0030109992 0)
(-1.7713532e-07 0.0029769125 0)
(-1.6238976e-07 0.0028914238 0)
(-1.2896259e-07 0.0027023779 0)
(-8.1798512e-08 0.0023370682 0)
(-3.0377739e-08 0.0017165335 0)
(-2.7173127e-09 0.00074654973 0)
(9.7815855e-10 0.00074653675 0)
(1.88454e-08 0.0017164997 0)
(5.4257246e-08 0.0023370321 0)
(8.7658499e-08 0.0027023507 0)
(1.1148384e-07 0.0028914103 0)
(1.2122755e-07 0.0029769143 0)
(1.1567255e-07 0.0030110181 0)
(9.4417254e-08 0.0030231601 0)
(5.9875989e-08 0.00302705 0)
(1.7177409e-08 0.0030281196 0)
(-2.8316763e-08 0.0030281189 0)
(-7.1155988e-08 0.0030270482 0)
(-1.0564406e-07 0.0030231573 0)
(-1.2693461e-07 0.0030110141 0)
(-1.3261503e-07 0.0029769091 0)
(-1.2243794e-07 0.0028914035 0)
(-9.7941549e-08 0.0027023437 0)
(-6.2622473e-08 0.0023370271 0)
(-2.3428084e-08 0.0017164975 0)
(-2.149908e-09 0.00074653723 0)
(8.8452993e-10 0.00074652872 0)
(1.5015693e-08 0.0017164749 0)
(4.2993501e-08 0.0023370027 0)
(6.8758775e-08 0.0027023263 0)
(8.6165709e-08 0.0028913957 0)
(9.2505133e-08 0.0029769125 0)
(8.6894508e-08 0.0030110297 0)
(6.9809239e-08 0.0030231833 0)
(4.3612025e-08 0.0030270823 0)
(1.1192256e-08 0.0030281567 0)
(-2.3399179e-08 0.0030281562 0)
(-5.5727081e-08 0.0030270805 0)
(-8.2194356e-08 0.0030231808 0)
(-9.9407998e-08 0.0030110256 0)
(-1.0481713e-07 0.0029769071 0)
(-9.8093546e-08 0.0028913885 0)
(-7.9766817e-08 0.0027023181 0)
(-5.1685963e-08 0.0023369953 0)
(-1.9960486e-08 0.0017164692 0)
(-2.268125e-09 0.00074652678 0)
(1.0746065e-09 0.00074652221 0)
(1.4340034e-08 0.0017164546 0)
(3.9098959e-08 0.0023369794 0)
(6.0401573e-08 0.0027023077 0)
(7.3324355e-08 0.0028913858 0)
(7.6197985e-08 0.0029769132 0)
(6.949289e-08 0.0030110402 0)
(5.4325365e-08 0.0030232026 0)
(3.2697131e-08 0.0030271078 0)
(6.8834635e-09 0.0030281857 0)
(-2.0310074e-08 0.0030281852 0)
(-4.6174206e-08 0.0030271062 0)
(-6.7750105e-08 0.0030232 0)
(-8.2674532e-08 0.003011036 0)
(-8.8998324e-08 0.0029769073 0)
(-8.5468334e-08 0.0028913779 0)
(-7.1575226e-08 0.0027022981 0)
(-4.7873856e-08 0.0023369689 0)
(-1.9259318e-08 0.0017164448 0)
(-2.4899316e-09 0.00074651763 0)
(1.7032143e-09 0.00074651936 0)
(1.634838e-08 0.0017164402 0)
(4.1607344e-08 0.0023369639 0)
(6.08049e-08 0.0027022981 0)
(7.0159552e-08 0.0028913853 0)
(6.9313065e-08 0.0029769222 0)
(6.0302304e-08 0.0030110573 0)
(4.5303675e-08 0.0030232261 0)
(2.598904e-08 0.0030271356 0)
(4.0513808e-09 0.0030282157 0)
(-1.8765411e-08 0.0030282148 0)
(-4.0556761e-08 0.0030271339 0)
(-5.9511305e-08 0.0030232233 0)
(-7.4116766e-08 0.0030110529 0)
(-8.2462799e-08 0.0029769159 0)
(-8.2316932e-08 0.0028913765 0)
(-7.1883412e-08 0.0027022868 0)
(-5.0311578e-08 0.0023369501 0)
(-2.1148679e-08 0.001716426 0)
(-3.0117114e-09 0.00074651195 0)
(4.1122332e-09 0.00074650256 0)
(2.2436207e-08 0.0017164101 0)
(4.9907297e-08 0.002336936 0)
(6.821315e-08 0.0027022791 0)
(7.435265e-08 0.0028913763 0)
(6.9587364e-08 0.0029769217 0)
(5.7208578e-08 0.003011063 0)
(4.0787977e-08 0.0030232359 0)
(2.2150337e-08 0.0030271478 0)
(2.2546033e-09 0.0030282291 0)
(-1.7852426e-08 0.0030282281 0)
(-3.7465716e-08 0.003027146 0)
(-5.5801701e-08 0.003023233 0)
(-7.1677259e-08 0.0030110581 0)
(-8.3384259e-08 0.0029769149 0)
(-8.7242004e-08 0.0028913666 0)
(-7.9661633e-08 0.0027022657 0)
(-5.8753277e-08 0.0023369193 0)
(-2.7214145e-08 0.0017163921 0)
(-5.3078274e-09 0.00074649257 0)
(9.5301744e-09 0.00074630962 0)
(3.3273451e-08 0.0017161863 0)
(6.1102781e-08 0.0023367213 0)
(7.7325289e-08 0.0027020789 0)
(8.0104219e-08 0.0028911892 0)
(7.1181085e-08 0.0029767429 0)
(5.5316034e-08 0.0030108881 0)
(3.7111116e-08 0.0030230626 0)
(1.8644409e-08 0.0030269744 0)
(4.6185339e-10 0.0030280556 0)
(-1.740488e-08 0.0030280549 0)
(-3.5498545e-08 0.0030269726 0)
(-5.3958061e-08 0.003023059 0)
(-7.1546709e-08 0.0030108826 0)
(-8.6265523e-08 0.0029767349 0)
(-9.3932024e-08 0.0028911779 0)
(-8.9221297e-08 0.0027020631 0)
(-6.9987855e-08 0.0023367007 0)
(-3.8045395e-08 0.0017161638 0)
(-1.0691267e-08 0.00074629684 0)
(1.336353e-08 0.0007464882 0)
(3.9365159e-08 0.0017163781 0)
(6.3028463e-08 0.0023369199 0)
(7.6593397e-08 0.0027022916 0)
(7.7577529e-08 0.0028914203 0)
(6.7173005e-08 0.0029769885 0)
(5.0808002e-08 0.0030111405 0)
(3.2561256e-08 0.0030233164 0)
(1.4898568e-08 0.0030272271 0)
(-1.4850526e-09 0.0030283071 0)
(-1.7346879e-08 0.0030283072 0)
(-3.3627034e-08 0.0030272253 0)
(-5.0870078e-08 0.0030233124 0)
(-6.8244183e-08 0.0030111334 0)
(-8.3524738e-08 0.0029769783 0)
(-9.2211806e-08 0.0028914064 0)
(-8.9216347e-08 0.0027022719 0)
(-7.2671249e-08 0.0023368942 0)
(-4.4465012e-08 0.0017163492 0)
(-1.4673382e-08 0.00074647148 0)
)
;

boundaryField
{
    Wall
    {
        type            fixedValue;
        value           uniform (0 0 0);
    }
    frontAndBack
    {
        type            empty;
    }
    atmosphere
    {
        type            pressureInletOutletVelocity;
        value           nonuniform List<vector> 
20
(
(1.336353e-08 0.0007464882 0)
(3.9365159e-08 0.0017163781 0)
(6.3028463e-08 0.0023369199 0)
(7.6593397e-08 0.0027022916 0)
(7.7577529e-08 0.0028914203 0)
(6.7173005e-08 0.0029769885 0)
(5.0808002e-08 0.0030111405 0)
(3.2561256e-08 0.0030233164 0)
(1.4898568e-08 0.0030272271 0)
(-1.4850526e-09 0.0030283071 0)
(-1.7346879e-08 0.0030283072 0)
(-3.3627034e-08 0.0030272253 0)
(-5.0870078e-08 0.0030233124 0)
(-6.8244183e-08 0.0030111334 0)
(-8.3524738e-08 0.0029769783 0)
(-9.2211806e-08 0.0028914064 0)
(-8.9216347e-08 0.0027022719 0)
(-7.2671249e-08 0.0023368942 0)
(-4.4465012e-08 0.0017163492 0)
(-1.4673382e-08 0.00074647148 0)
)
;
    }
}


// ************************************************************************* //
