/*--------------------------------*- C++ -*----------------------------------*\
| =========                 |                                                 |
| \\      /  F ield         | OpenFOAM: The Open Source CFD Toolbox           |
|  \\    /   O peration     | Version:  3.0.1                                 |
|   \\  /    A nd           | Web:      www.OpenFOAM.org                      |
|    \\/     M anipulation  |                                                 |
\*---------------------------------------------------------------------------*/
FoamFile
{
    version     2.0;
    format      ascii;
    class       volScalarField;
    location    "13";
    object      wBA_g;
}
// * * * * * * * * * * * * * * * * * * * * * * * * * * * * * * * * * * * * * //

dimensions      [0 0 0 0 0 0 0];

internalField   nonuniform List<scalar> 
800
(
0.01851069
0.018512713
0.018512949
0.018513032
0.018513091
0.018513134
0.018513166
0.018513188
0.018513202
0.018513208
0.018513208
0.018513202
0.018513188
0.018513166
0.018513135
0.018513091
0.018513032
0.01851295
0.018512713
0.01851069
0.014346708
0.014486086
0.014496935
0.014498728
0.014500554
0.014502168
0.014503489
0.01450445
0.014505058
0.014505352
0.014505352
0.014505058
0.01450445
0.014503489
0.014502168
0.014500554
0.014498728
0.014496936
0.014486086
0.014346708
0.0051267601
0.0052115745
0.0052196771
0.0052219622
0.0052237675
0.0052252215
0.0052263203
0.0052270823
0.0052275549
0.0052277818
0.0052277818
0.0052275546
0.0052270819
0.0052263199
0.0052252212
0.0052237672
0.005221962
0.0052196771
0.0052115744
0.0051267594
0.0020629893
0.0021035809
0.0021077896
0.0021093559
0.0021104947
0.0021113579
0.0021119688
0.0021123742
0.0021126202
0.0021127366
0.0021127365
0.00211262
0.0021123739
0.0021119686
0.0021113577
0.0021104945
0.0021093557
0.0021077894
0.0021035808
0.0020629889
0.00089376843
0.00091234786
0.00091449746
0.00091545845
0.00091606094
0.00091646944
0.00091672783
0.00091688612
0.00091697865
0.00091702134
0.00091702132
0.00091697859
0.00091688601
0.00091672771
0.00091646936
0.00091606086
0.00091545837
0.00091449742
0.00091234782
0.00089376827
0.00038202777
0.00039402932
0.00039584583
0.00039651293
0.00039674016
0.00039680178
0.00039681996
0.00039679647
0.00039678383
0.00039677419
0.00039677419
0.00039678383
0.00039679647
0.00039681997
0.00039680183
0.00039674022
0.00039651298
0.00039584594
0.00039402943
0.00038202787
0.00013945688
0.00014995062
0.0001522914
0.00015280511
0.00015282833
0.0001527081
0.00015261108
0.0001525318
0.00015248305
0.00015244762
0.00015244763
0.00015248304
0.00015253179
0.00015261112
0.00015270814
0.00015282842
0.00015280527
0.00015229152
0.00014995076
0.00013945705
3.9315891e-05
5.0263713e-05
5.3166255e-05
5.3750867e-05
5.3667014e-05
5.3454719e-05
5.3243875e-05
5.3139946e-05
5.3062567e-05
5.3014201e-05
5.3014178e-05
5.3062556e-05
5.3139883e-05
5.3243861e-05
5.3454748e-05
5.3667049e-05
5.3751003e-05
5.3166297e-05
5.0263796e-05
3.9316014e-05
7.3983438e-06
1.4481108e-05
1.705138e-05
1.7778468e-05
1.7795009e-05
1.7625841e-05
1.7428411e-05
1.7315891e-05
1.7234307e-05
1.7191322e-05
1.7191298e-05
1.7234293e-05
1.7315823e-05
1.7428379e-05
1.7625848e-05
1.7795002e-05
1.7778523e-05
1.7051385e-05
1.4481127e-05
7.3983909e-06
9.2932582e-07
3.5124875e-06
4.9714357e-06
5.5268997e-06
5.6184053e-06
5.5502636e-06
5.4448912e-06
5.3750783e-06
5.3248366e-06
5.2995932e-06
5.2995805e-06
5.3248245e-06
5.3750391e-06
5.4448672e-06
5.5502595e-06
5.6183872e-06
5.5269116e-06
4.9714313e-06
3.512486e-06
9.2933524e-07
8.3262539e-08
7.2386837e-07
1.3200373e-06
1.6122617e-06
1.6886502e-06
1.6736778e-06
1.6336982e-06
1.602881e-06
1.5806304e-06
1.5696493e-06
1.5696447e-06
1.5806231e-06
1.6028643e-06
1.6336856e-06
1.6736732e-06
1.6886374e-06
1.6122596e-06
1.3200342e-06
7.2386541e-07
8.3263739e-08
5.7583056e-09
1.3038436e-07
3.2299226e-07
4.4258719e-07
4.8294647e-07
4.831356e-07
4.7124814e-07
4.6036815e-07
4.5244534e-07
4.4856585e-07
4.4856442e-07
4.5244193e-07
4.603622e-07
4.7124264e-07
4.8313268e-07
4.8294048e-07
4.4258426e-07
3.2299084e-07
1.3038321e-07
5.7584118e-09
3.2980289e-10
2.1291367e-08
7.3926127e-08
1.1491604e-07
1.3149026e-07
1.3339906e-07
1.3052773e-07
1.2727082e-07
1.248588e-07
1.2367962e-07
1.236792e-07
1.2485747e-07
1.2726891e-07
1.3052565e-07
1.333976e-07
1.3148807e-07
1.1491454e-07
7.3925579e-08
2.1291073e-08
3.2980992e-10
1.6608743e-11
3.2665867e-09
1.6041803e-08
2.8361253e-08
3.4105274e-08
3.5199193e-08
3.4644648e-08
3.379239e-08
3.3141393e-08
3.2821994e-08
3.2821865e-08
3.3140952e-08
3.3791803e-08
3.4643945e-08
3.5198576e-08
3.4104593e-08
2.8360698e-08
1.6041615e-08
3.266527e-09
1.6609099e-11
7.7915367e-13
4.8416105e-10
3.3318865e-09
6.6761655e-09
8.4309763e-09
8.8669567e-09
8.7920881e-09
8.5940702e-09
8.434998e-09
8.3560942e-09
8.3560548e-09
8.4348656e-09
8.593896e-09
8.7918686e-09
8.8667326e-09
8.4307844e-09
6.6759949e-09
3.331829e-09
4.8415014e-10
7.7916613e-13
3.6237509e-14
7.0462908e-11
6.6574553e-10
1.5016066e-09
1.9867423e-09
2.1303406e-09
2.1293688e-09
2.0882813e-09
2.0526762e-09
2.0346486e-09
2.0346371e-09
2.0526396e-09
2.0882315e-09
2.1293049e-09
2.1302694e-09
1.9866905e-09
1.5015601e-09
6.6572996e-10
7.0460994e-11
3.6237604e-14
1.7736189e-15
1.0120937e-11
1.2817245e-10
3.2290703e-10
4.4632659e-10
4.8778211e-10
4.915243e-10
4.8393879e-10
4.7659507e-10
4.7275843e-10
4.7275525e-10
4.7658554e-10
4.8392521e-10
4.9150689e-10
4.8776193e-10
4.4631295e-10
3.2289529e-10
1.2816865e-10
1.0120607e-11
1.7735859e-15
9.4467422e-17
1.431284e-12
2.3767127e-11
6.6393546e-11
9.5607647e-11
1.0640195e-10
1.0806725e-10
1.0684369e-10
1.0544452e-10
1.0468184e-10
1.0468103e-10
1.0544216e-10
1.0684021e-10
1.0806279e-10
1.0639677e-10
9.5604083e-11
6.6390791e-11
2.3766267e-11
1.4312285e-12
9.4463488e-17
5.4343993e-18
1.981906e-13
4.240088e-12
1.3052929e-11
1.9535628e-11
2.2114052e-11
2.2630034e-11
2.2466474e-11
2.2220219e-11
2.2078508e-11
2.2078316e-11
2.2219665e-11
2.2465632e-11
2.2628965e-11
2.2112829e-11
1.9534732e-11
1.3052319e-11
4.2399062e-12
1.9818164e-13
5.4340669e-18
3.2683461e-19
2.672227e-14
7.2699988e-13
2.4541959e-12
3.8099062e-12
4.3814152e-12
4.5156753e-12
4.500729e-12
4.4607876e-12
4.4361744e-12
4.4361317e-12
4.460664e-12
4.5005381e-12
4.5154342e-12
4.3811449e-12
3.8096943e-12
2.4540665e-12
7.2696382e-13
2.672088e-14
3.2681009e-19
1.9894106e-20
3.4930955e-15
1.1971988e-13
4.4148514e-13
7.0973311e-13
8.2825193e-13
8.5934908e-13
8.5964451e-13
8.5371027e-13
8.4971367e-13
8.4970463e-13
8.5368421e-13
8.5960377e-13
8.5929794e-13
8.2819575e-13
7.0968636e-13
4.4145902e-13
1.197131e-13
3.4928882e-15
1.9892428e-20
1.1990498e-21
4.4139325e-16
1.8930658e-14
7.6034077e-14
1.2640789e-13
1.4954833e-13
1.5613244e-13
1.5670941e-13
1.5591229e-13
1.5530551e-13
1.5530371e-13
1.5590709e-13
1.5670124e-13
1.5612219e-13
1.4953723e-13
1.2639831e-13
7.6029029e-14
1.8929454e-14
4.4136357e-16
1.1989404e-21
7.0673424e-23
5.3821565e-17
2.8746468e-15
1.2546833e-14
2.1547555e-14
2.5822168e-14
2.7115642e-14
2.7298365e-14
2.7204359e-14
2.7118255e-14
2.7117914e-14
2.7203376e-14
2.7296817e-14
2.7113699e-14
2.5820084e-14
2.1545721e-14
1.2545897e-14
2.8744436e-15
5.3817522e-17
7.0666571e-23
4.046664e-24
6.3270958e-18
4.193632e-16
1.985567e-15
3.5191391e-15
4.2691033e-15
4.5071522e-15
4.5499072e-15
4.54091e-15
4.5295094e-15
4.5294481e-15
4.5407333e-15
4.5496294e-15
4.5068034e-15
4.2687307e-15
3.5188096e-15
1.9854009e-15
4.1933041e-16
6.3265725e-18
4.04625e-24
2.2431703e-25
7.1683658e-19
5.8807012e-17
3.0162821e-16
5.5127491e-16
6.7663167e-16
7.1795166e-16
7.2653872e-16
7.2604369e-16
7.2464155e-16
7.24631e-16
7.2601343e-16
7.2649137e-16
7.1789208e-16
6.7656808e-16
5.5121899e-16
3.0160009e-16
5.8801938e-17
7.1677178e-19
2.2429288e-25
1.2017175e-26
7.8273921e-20
7.9322295e-18
4.402655e-17
8.2922004e-17
1.0293509e-16
1.0973402e-16
1.1129124e-16
1.1134212e-16
1.1118348e-16
1.1118176e-16
1.113372e-16
1.1128353e-16
1.0972432e-16
1.0292472e-16
8.2912966e-17
4.4022014e-17
7.9314746e-18
7.8266217e-20
1.2015814e-26
6.2170345e-28
8.239745e-21
1.0299357e-18
6.1805524e-18
1.1989666e-17
1.5047758e-17
1.6112459e-17
1.6373592e-17
1.6397411e-17
1.6381238e-17
1.6380973e-17
1.6396646e-17
1.6372394e-17
1.6110945e-17
1.5046136e-17
1.1988268e-17
6.1798539e-18
1.0298276e-18
8.2388603e-21
6.2162947e-28
3.1053333e-29
8.3655515e-22
1.2882706e-19
8.3524732e-19
1.6681306e-18
2.1161859e-18
2.2753711e-18
2.3164155e-18
2.3218089e-18
2.3203954e-18
2.3203564e-18
2.321695e-18
2.3162368e-18
2.2751446e-18
2.1159427e-18
1.6679228e-18
8.3514441e-19
1.2881212e-19
8.3645678e-22
3.1049444e-29
1.4987375e-30
8.1956682e-23
1.5535404e-20
1.0876044e-19
2.2354725e-19
2.8658946e-19
3.0937167e-19
3.1547049e-19
3.1644692e-19
3.1635691e-19
3.1635133e-19
3.1643064e-19
3.1544483e-19
3.0933907e-19
2.8655436e-19
2.2351748e-19
1.0874588e-19
1.5533412e-20
8.1946085e-23
1.4974908e-30
7.0447137e-32
7.7523319e-24
1.8075482e-21
1.3657587e-20
2.8882486e-20
3.7412461e-20
4.0540328e-20
4.1402099e-20
4.1558239e-20
4.155799e-20
4.1557222e-20
4.1555998e-20
4.1398549e-20
4.0535815e-20
3.740758e-20
2.8878367e-20
1.36556e-20
1.807292e-21
7.7512235e-24
6.975801e-32
3.3427454e-33
7.0843876e-25
2.0306581e-22
1.6553449e-21
3.6009269e-21
4.7121944e-21
5.1249139e-21
5.2412047e-21
5.2641161e-21
5.2653461e-21
5.2652437e-21
5.2638177e-21
5.2407308e-21
5.1243103e-21
4.711539e-21
3.600376e-21
1.655083e-21
2.0303395e-22
7.0832621e-25
3.1400038e-33
1.7532584e-34
6.2584379e-26
2.2043629e-23
1.9380451e-22
4.335872e-22
5.7313822e-22
6.2555813e-22
6.4059364e-22
6.4373778e-22
6.4402149e-22
6.4400835e-22
6.4369937e-22
6.4053254e-22
6.2548008e-22
5.7305315e-22
4.3351586e-22
1.9377113e-22
2.2039801e-23
6.2573259e-26
1.3664543e-34
1.1217241e-35
5.3480848e-27
2.3138736e-24
2.1934827e-23
5.046257e-23
6.7372391e-23
7.378985e-23
7.565716e-23
7.6065154e-23
7.6112381e-23
7.6110737e-23
7.6060369e-23
7.5649535e-23
7.3780079e-23
6.7361724e-23
5.0453641e-23
2.1930714e-23
2.3134284e-24
5.3470155e-27
5.7521929e-36
8.5258432e-37
4.4235829e-28
2.3502141e-25
2.4017012e-24
5.6809804e-24
7.659995e-24
8.4181773e-24
8.6413973e-24
8.6918134e-24
8.698582e-24
8.6983839e-24
8.6912366e-24
8.6404765e-24
8.416994e-24
7.6587015e-24
5.679898e-24
2.4012101e-24
2.3497132e-25
4.4225811e-28
2.343699e-37
6.808669e-38
3.5437706e-29
2.3114115e-26
2.5457922e-25
6.1908638e-25
8.429817e-25
9.2951626e-25
9.5524394e-25
9.6120568e-25
9.6208836e-25
9.6206519e-25
9.6113824e-25
9.5513641e-25
9.2937756e-25
8.4282985e-25
6.1895947e-25
2.5452256e-25
2.3108666e-26
3.542857e-29
9.2482997e-39
5.2182359e-39
2.7513107e-30
2.202569e-27
2.6141904e-26
6.5350752e-26
8.9857285e-26
9.9407773e-26
1.0227089e-25
1.0294787e-25
1.0305525e-25
1.0305264e-25
1.0294025e-25
1.0225873e-25
9.9392046e-26
8.9840026e-26
6.5336362e-26
2.6135581e-26
2.201996e-27
2.7505005e-30
3.5365135e-40
3.6914154e-40
2.0713654e-31
2.0348564e-28
2.6021925e-27
6.6865784e-27
9.2836906e-27
1.030383e-26
1.0611845e-26
1.0685862e-26
1.0698212e-26
1.0697927e-26
1.0685028e-26
1.0610513e-26
1.0302104e-26
9.2817926e-27
6.685001e-27
2.601511e-27
2.0342746e-28
2.0706679e-31
1.3112945e-41
2.3746314e-41
1.5131069e-32
1.8236828e-29
2.5124353e-28
6.6356057e-28
9.302349e-28
1.0357796e-27
1.0678464e-27
1.0756545e-27
1.0770083e-27
1.0769781e-27
1.0755662e-27
1.0677054e-27
1.0355962e-27
9.3003307e-28
6.6339335e-28
2.5117256e-28
1.8231125e-29
1.5125255e-32
4.7172499e-43
1.3847407e-42
1.0730573e-33
1.5864454e-30
2.354276e-29
6.3905329e-29
9.0454141e-29
1.0103873e-28
1.0427238e-28
1.0506833e-28
1.0521057e-28
1.0520748e-28
1.050593e-28
1.0425792e-28
1.0101987e-28
9.043337e-29
6.3888196e-29
2.3535618e-29
1.5859058e-30
1.0725889e-33
1.715032e-44
7.3751886e-44
7.3918563e-35
1.3402978e-31
2.1422475e-30
5.9761081e-30
8.5403364e-30
9.5699351e-30
9.8860435e-30
9.9645603e-30
9.97893e-30
9.978625e-30
9.9636677e-30
9.8846077e-30
9.56806e-30
8.5382697e-30
5.9744108e-30
2.1415534e-30
1.339805e-31
7.3882143e-35
7.6537942e-46
)
;

boundaryField
{
    Wall
    {
        type            zeroGradient;
    }
    frontAndBack
    {
        type            empty;
    }
    atmosphere
    {
        type            zeroGradient;
    }
}


// ************************************************************************* //
