/*--------------------------------*- C++ -*----------------------------------*\
| =========                 |                                                 |
| \\      /  F ield         | OpenFOAM: The Open Source CFD Toolbox           |
|  \\    /   O peration     | Version:  3.0.1                                 |
|   \\  /    A nd           | Web:      www.OpenFOAM.org                      |
|    \\/     M anipulation  |                                                 |
\*---------------------------------------------------------------------------*/
FoamFile
{
    version     2.0;
    format      ascii;
    class       volScalarField;
    location    "13";
    object      wBA_l;
}
// * * * * * * * * * * * * * * * * * * * * * * * * * * * * * * * * * * * * * //

dimensions      [0 0 0 0 0 0 0];

internalField   nonuniform List<scalar> 
800
(
0.056335498
0.056335241
0.056335241
0.056335234
0.056335227
0.056335223
0.056335221
0.056335219
0.056335218
0.056335218
0.056335218
0.056335218
0.056335219
0.056335221
0.056335223
0.056335227
0.056335234
0.056335241
0.056335241
0.056335498
0.056375791
0.056373689
0.056372534
0.056371877
0.056371426
0.056371094
0.05637085
0.056370678
0.056370568
0.056370515
0.056370515
0.056370568
0.056370678
0.05637085
0.056371094
0.056371426
0.056371877
0.056372534
0.056373689
0.056375791
0.050247449
0.050284717
0.050289274
0.050289337
0.050288905
0.050288488
0.050288096
0.050287767
0.050287533
0.050287414
0.050287414
0.050287533
0.050287767
0.050288096
0.050288488
0.050288905
0.050289337
0.050289274
0.050284717
0.050247448
0.040620026
0.040727753
0.040734236
0.040732266
0.040729798
0.040727589
0.040725697
0.040724206
0.040723197
0.04072269
0.04072269
0.040723198
0.040724208
0.040725699
0.040727591
0.040729801
0.04073227
0.04073424
0.040727757
0.04062003
0.029613419
0.029901141
0.029926917
0.029926093
0.029920645
0.029915076
0.029910279
0.029906572
0.02990413
0.029902914
0.029902915
0.029904132
0.029906575
0.029910284
0.029915082
0.029920652
0.029926101
0.029926924
0.02990115
0.029613429
0.01860549
0.019300425
0.01942865
0.019450293
0.019445684
0.019435653
0.019427352
0.019420157
0.019415756
0.019413486
0.019413487
0.019415759
0.019420161
0.019427358
0.01943566
0.019445692
0.019450301
0.01942866
0.019300435
0.018605505
0.0092131921
0.010279592
0.010608193
0.010685498
0.010691779
0.010680252
0.010669651
0.010661951
0.010656929
0.010653753
0.010653754
0.010656928
0.010661951
0.010669654
0.010680254
0.010691784
0.010685508
0.010608199
0.0102796
0.009213208
0.0032953261
0.0045681839
0.0050292617
0.0051627471
0.0051792533
0.005165979
0.0051469629
0.0051377621
0.0051304215
0.0051258587
0.0051258559
0.0051304196
0.0051377544
0.0051469589
0.0051659782
0.0051792518
0.0051627545
0.0050292587
0.0045681871
0.0032953378
0.00075623024
0.0017044572
0.0021321019
0.0022820759
0.0023082177
0.0022967398
0.0022762261
0.0022642396
0.0022550973
0.0022503313
0.0022503278
0.0022550947
0.0022642293
0.0022762195
0.0022967372
0.0023082118
0.0022820764
0.0021320966
0.0017044547
0.00075623521
0.00011343382
0.0005348863
0.00081389892
0.0009325765
0.00096116938
0.00095655516
0.00094318727
0.00093362529
0.0009265912
0.00092310118
0.000923099
0.0009265884
0.00093361804
0.00094318159
0.00095655194
0.00096116305
0.00093257385
0.00081389463
0.00053488315
0.00011343489
1.2107257e-05
0.00014400738
0.00028231931
0.00035354923
0.00037511524
0.00037499229
0.00036877425
0.00036337175
0.00035945324
0.00035753544
0.00035753447
0.00035945113
0.00036336788
0.00036877064
0.00037498989
0.00037511084
0.00035354632
0.00028231698
0.00014400558
1.210739e-05
1.0158484e-06
3.4331133e-05
8.9945068e-05
0.00012467405
0.00013712942
0.00013827329
0.00013603207
0.00013362497
0.00013187228
0.00013101884
0.00013101845
0.00013187108
0.00013362321
0.00013603015
0.00013827181
0.00013712711
0.00012467221
8.9943985e-05
3.433046e-05
1.0158575e-06
7.3613477e-08
7.4811276e-06
2.6559187e-05
4.0977973e-05
4.689548e-05
4.7855263e-05
4.7215989e-05
4.6321407e-05
4.5655106e-05
4.5330414e-05
4.5330256e-05
4.5654557e-05
4.6320676e-05
4.7215106e-05
4.785447e-05
4.6894499e-05
4.0977095e-05
2.6558738e-05
7.4809322e-06
7.3613584e-08
5.000745e-09
1.5248361e-06
7.3138353e-06
1.2571469e-05
1.4986761e-05
1.5513871e-05
1.5377376e-05
1.5091766e-05
1.4869627e-05
1.4760527e-05
1.4760463e-05
1.4869411e-05
1.5091482e-05
1.5377015e-05
1.55135e-05
1.49864e-05
1.2571122e-05
7.3136686e-06
1.5247878e-06
5.0006799e-09
3.3875427e-10
2.9420433e-07
1.8851533e-06
3.6033305e-06
4.4739068e-06
4.7047867e-06
4.6898078e-06
4.6103089e-06
4.5442771e-06
4.5112663e-06
4.5112421e-06
4.5442006e-06
4.6102051e-06
4.6896741e-06
4.7046368e-06
4.4737846e-06
3.6032115e-06
1.8850986e-06
2.941935e-07
3.3874322e-10
2.3553765e-11
5.393298e-08
4.5569566e-07
9.6583641e-07
1.2480157e-06
1.3341414e-06
1.3381888e-06
1.318809e-06
1.3011508e-06
1.292068e-06
1.2920597e-06
1.301126e-06
1.3187738e-06
1.3381435e-06
1.3340884e-06
1.2479763e-06
9.6579956e-07
4.556797e-07
5.393071e-08
2.3552528e-11
1.6731225e-12
9.3903444e-09
1.0343643e-07
2.423744e-07
3.2564791e-07
3.5390699e-07
3.5729257e-07
3.5318093e-07
3.4891059e-07
3.4662784e-07
3.4662525e-07
3.4890311e-07
3.5316988e-07
3.5727842e-07
3.5389033e-07
3.2563581e-07
2.4236387e-07
1.0343222e-07
9.3898989e-09
1.6730075e-12
1.1884512e-13
1.5506604e-09
2.2072177e-08
5.7029487e-08
7.9603786e-08
8.7920867e-08
8.9347602e-08
8.8607111e-08
8.7670308e-08
8.7144988e-08
8.7144249e-08
8.76682e-08
8.8603914e-08
8.9343535e-08
8.7916142e-08
7.9600225e-08
5.7026714e-08
2.2071151e-08
1.5505784e-09
1.1883565e-13
8.2662673e-15
2.4260922e-10
4.4337038e-09
1.2604067e-08
1.8263566e-08
2.0489248e-08
2.0958123e-08
2.0853233e-08
2.0666575e-08
2.0555643e-08
2.0555449e-08
2.0666021e-08
2.0852379e-08
2.0957042e-08
2.0488019e-08
1.8262586e-08
1.2603388e-08
4.4334709e-09
2.4259512e-10
8.265549e-15
5.5516477e-16
3.5952483e-11
8.3966043e-10
2.6216487e-09
3.9408641e-09
4.4879462e-09
4.6200645e-09
4.6118418e-09
4.5781043e-09
4.5565567e-09
4.5565096e-09
4.5779684e-09
4.6116306e-09
4.6197986e-09
4.4876499e-09
3.9406145e-09
2.6214926e-09
8.3961124e-10
3.5950194e-11
5.5511377e-16
3.572595e-17
5.0482915e-12
1.5017227e-10
5.1425738e-10
8.0144198e-10
9.2594335e-10
9.5911132e-10
9.6036978e-10
9.5486864e-10
9.510095e-10
9.5099875e-10
9.5483762e-10
9.6032122e-10
9.5905045e-10
9.2587669e-10
8.0138344e-10
5.1422355e-10
1.5016252e-10
5.0479397e-12
3.5722544e-17
2.1949124e-18
6.7223198e-13
2.5409078e-11
9.5328236e-11
1.539377e-10
1.8033605e-10
1.8790743e-10
1.8870208e-10
1.8790403e-10
1.8726549e-10
1.872632e-10
1.8789742e-10
1.8869169e-10
1.8789439e-10
1.8032195e-10
1.5392506e-10
9.5321296e-11
2.5407269e-11
6.7218072e-13
2.1946964e-18
1.2856374e-19
8.4984474e-14
4.0744541e-12
1.6732795e-11
2.7983537e-11
3.3225466e-11
3.4817203e-11
3.5059266e-11
3.495967e-11
3.4861968e-11
3.4861509e-11
3.4958346e-11
3.5057185e-11
3.4814591e-11
3.3222659e-11
2.7981004e-11
1.6731445e-11
4.0741384e-12
8.4977432e-14
1.2855074e-19
7.1779085e-21
1.0213091e-14
6.202753e-13
2.7864695e-12
4.82391e-12
5.8028335e-12
6.1137671e-12
6.1717241e-12
6.1620195e-12
6.1482083e-12
6.1481218e-12
6.1617701e-12
6.1713328e-12
6.1132756e-12
5.8023067e-12
4.8234364e-12
2.7862205e-12
6.2022303e-13
1.0212181e-14
7.1771638e-21
3.8215133e-22
1.1682946e-15
8.9796541e-14
4.410271e-13
7.9003072e-13
9.6256368e-13
1.0193767e-12
1.0314243e-12
1.0309865e-12
1.02919e-12
1.0291745e-12
1.0309421e-12
1.0313549e-12
1.0192894e-12
9.6247014e-13
7.8994756e-13
4.4098373e-13
8.9788309e-14
1.168183e-15
3.8211067e-22
1.9415685e-23
1.2738268e-16
1.2381847e-14
6.645659e-14
1.2313969e-13
1.5192329e-13
1.6168365e-13
1.6394444e-13
1.6404421e-13
1.6383124e-13
1.6382865e-13
1.6403676e-13
1.6393279e-13
1.6166897e-13
1.5190754e-13
1.2312587e-13
6.6449446e-14
1.2380611e-14
1.2736965e-16
1.9413564e-23
9.4219977e-25
1.3255805e-17
1.6285991e-15
9.549049e-15
1.8296737e-14
2.2853635e-14
2.4436843e-14
2.4827581e-14
2.4865707e-14
2.4843183e-14
2.4842773e-14
2.4864519e-14
2.4825724e-14
2.4434497e-14
2.2851116e-14
1.8294555e-14
9.5479338e-15
1.6284218e-15
1.325435e-17
9.4209409e-25
4.371488e-26
1.3182408e-18
2.0462511e-16
1.3103051e-15
2.5955851e-15
3.2817123e-15
3.5250228e-15
3.5879711e-15
3.5964656e-15
3.594449e-15
3.5943873e-15
3.5962857e-15
3.5876891e-15
3.5246657e-15
3.2813282e-15
2.5952558e-15
1.3101396e-15
2.0460075e-16
1.3180846e-18
4.3709841e-26
1.9418125e-27
1.2543152e-19
2.4592031e-17
1.7193842e-16
3.5204769e-16
4.5049453e-16
4.8602379e-16
4.9555216e-16
4.9709605e-16
4.9696791e-16
4.96959e-16
4.9707006e-16
4.9551126e-16
4.8597186e-16
4.5043856e-16
3.5200016e-16
1.71915e-16
2.4588827e-17
1.254154e-19
1.9408433e-27
8.3026318e-29
1.1432621e-20
2.830476e-18
2.1603301e-17
4.5713868e-17
5.9197981e-17
6.4139696e-17
6.550257e-17
6.5750881e-17
6.5751415e-17
6.5750183e-17
6.5747288e-17
6.5496887e-17
6.4132478e-17
5.9190175e-17
4.5707287e-17
2.1600123e-17
2.8300718e-18
1.1431017e-20
8.2556966e-29
3.4987365e-30
9.992861e-22
3.1236312e-19
2.6021726e-18
5.6899778e-18
7.4558336e-18
8.111903e-18
8.2968921e-18
8.3334326e-18
8.3354503e-18
8.3352865e-18
8.3329555e-18
8.2961354e-18
8.1109403e-18
7.4547895e-18
5.6891026e-18
2.6017588e-18
3.1231415e-19
9.9913207e-22
3.3673168e-30
1.5569323e-31
8.384776e-23
3.3087969e-20
3.0082201e-19
6.7965531e-19
9.0108045e-19
9.8437148e-19
1.0082792e-18
1.0132851e-18
1.0137399e-18
1.013719e-18
1.0132242e-18
1.0081825e-18
9.8424814e-19
9.0094628e-19
6.7954335e-19
3.0077024e-19
3.3082272e-20
8.3833451e-23
1.3182086e-31
8.1480977e-33
6.7605098e-24
3.3677289e-21
3.3411692e-20
7.7991711e-20
1.0461187e-19
1.1473986e-19
1.1768971e-19
1.1833478e-19
1.1840965e-19
1.1840708e-19
1.1832731e-19
1.1767782e-19
1.1472466e-19
1.0459532e-19
7.7977952e-20
3.3405465e-20
3.367091e-21
6.7592232e-24
4.9572786e-33
5.1799281e-34
5.2427595e-25
3.2967117e-22
3.5688817e-21
8.6064816e-21
1.1678561e-20
1.2859824e-20
1.3208074e-20
1.32868e-20
1.3297393e-20
1.3297089e-20
1.3285918e-20
1.3206668e-20
1.2858021e-20
1.1676597e-20
8.6048535e-21
3.5681602e-21
3.296024e-22
5.2416379e-25
1.7924037e-34
3.6242865e-35
3.9139703e-26
3.1066856e-23
3.6695571e-22
9.1417274e-22
1.2548771e-21
1.387197e-21
1.4266081e-21
1.4357519e-21
1.4371095e-21
1.437075e-21
1.4356515e-21
1.4264482e-21
1.3869912e-21
1.2546528e-21
9.1398739e-22
3.6687532e-22
3.1059723e-23
3.9130231e-26
6.2362079e-36
2.5007077e-36
2.8152448e-27
2.8207134e-24
3.6351449e-23
9.3548976e-23
1.2989816e-22
1.4414972e-22
1.4843203e-22
1.494463e-22
1.4960781e-22
1.4960404e-22
1.494353e-22
1.4841451e-22
1.4412712e-22
1.2987348e-22
9.352867e-23
3.6342827e-23
2.8200014e-24
2.81447e-27
2.0894924e-37
1.6090624e-37
1.95254e-28
2.4695466e-25
3.4722615e-24
9.2303327e-24
1.296455e-23
1.4442018e-23
1.4889383e-23
1.4997128e-23
1.5015196e-23
1.5014799e-23
1.4995966e-23
1.4887533e-23
1.4439626e-23
1.2961935e-23
9.2281918e-24
3.4713721e-24
2.4688629e-25
1.951927e-28
6.7471999e-39
9.4583106e-39
1.3067546e-29
2.0864279e-26
3.2005238e-25
8.7882307e-25
1.2485481e-24
1.3961227e-24
1.441111e-24
1.4520958e-24
1.4540124e-24
1.453972e-24
1.4519777e-24
1.4409228e-24
1.3958788e-24
1.2482813e-24
8.7860571e-25
3.1996411e-25
2.0857967e-26
1.3062864e-29
2.101262e-40
5.0526157e-40
8.44512e-31
1.7022763e-27
2.8488124e-26
8.0799707e-26
1.1610936e-25
1.3032379e-25
1.3468344e-25
1.3576013e-25
1.3595395e-25
1.3594999e-25
1.3574859e-25
1.3466499e-25
1.3029981e-25
1.1608313e-25
8.0778464e-26
2.8479691e-26
1.7017159e-27
8.4416717e-31
6.4348932e-42
2.4622933e-41
5.2738372e-32
1.3421261e-28
2.4504128e-27
7.1786494e-27
1.043387e-26
1.1755252e-26
1.2162758e-26
1.2264367e-26
1.2283118e-26
1.2282747e-26
1.226328e-26
1.2161012e-26
1.175298e-26
1.0431386e-26
7.1766495e-27
2.4496375e-27
1.3416475e-28
5.2713901e-32
2.1994262e-43
)
;

boundaryField
{
    Wall
    {
        type            zeroGradient;
    }
    frontAndBack
    {
        type            empty;
    }
    atmosphere
    {
        type            zeroGradient;
    }
}


// ************************************************************************* //
