/*--------------------------------*- C++ -*----------------------------------*\
| =========                 |                                                 |
| \\      /  F ield         | OpenFOAM: The Open Source CFD Toolbox           |
|  \\    /   O peration     | Version:  3.0.1                                 |
|   \\  /    A nd           | Web:      www.OpenFOAM.org                      |
|    \\/     M anipulation  |                                                 |
\*---------------------------------------------------------------------------*/
FoamFile
{
    version     2.0;
    format      ascii;
    class       volScalarField;
    location    "13";
    object      wBA_l_0;
}
// * * * * * * * * * * * * * * * * * * * * * * * * * * * * * * * * * * * * * //

dimensions      [0 0 0 0 0 0 0];

internalField   nonuniform List<scalar> 
800
(
0.056340496
0.056340236
0.056340236
0.056340228
0.056340221
0.056340217
0.056340214
0.056340213
0.056340212
0.056340212
0.056340212
0.056340212
0.056340213
0.056340214
0.056340217
0.056340221
0.056340228
0.056340236
0.056340236
0.056340496
0.056377061
0.056374979
0.056373824
0.056373166
0.056372714
0.056372382
0.056372138
0.056371966
0.056371856
0.056371803
0.056371803
0.056371856
0.056371966
0.056372138
0.056372382
0.056372714
0.056373166
0.056373824
0.056374979
0.056377061
0.050181183
0.050218583
0.050223134
0.050223197
0.050222761
0.050222338
0.050221941
0.050221606
0.050221369
0.050221248
0.050221248
0.050221369
0.050221606
0.050221941
0.050222339
0.050222761
0.050223197
0.050223134
0.050218583
0.050181183
0.040468339
0.04057657
0.040582978
0.040580957
0.04057844
0.040576186
0.04057426
0.040572744
0.040571719
0.040571204
0.040571205
0.04057172
0.040572746
0.040574262
0.040576189
0.040578443
0.040580961
0.040582982
0.040576575
0.040468343
0.029392725
0.02968322
0.029709233
0.029708346
0.029702779
0.029697104
0.029692229
0.029688465
0.02968599
0.029684757
0.029684758
0.029685992
0.029688469
0.029692233
0.02969711
0.029702786
0.029708354
0.029709241
0.029683229
0.029392735
0.018336813
0.019040144
0.019170347
0.019192279
0.019187599
0.019177434
0.019169047
0.019161778
0.019157338
0.019155047
0.019155048
0.01915734
0.019161782
0.019169052
0.019177441
0.019187608
0.019192288
0.019170357
0.019040154
0.018336828
0.0089903408
0.010062542
0.010394048
0.010472309
0.010478826
0.010467319
0.010456713
0.010449046
0.010444032
0.010440856
0.010440856
0.010444032
0.010449045
0.010456716
0.010467321
0.010478831
0.01047232
0.010394054
0.010062549
0.0089903567
0.0031686074
0.0044356983
0.0048955296
0.0050293045
0.0050461422
0.0050331304
0.0050141811
0.0050051006
0.0049977958
0.004993251
0.0049932481
0.0049977939
0.0050050927
0.0050141771
0.0050331295
0.0050461405
0.0050293118
0.0048955263
0.0044357013
0.0031686189
0.00071481966
0.0016405473
0.0020620001
0.0022106193
0.0022369315
0.0022260191
0.0022060034
0.0021943459
0.0021853939
0.0021807348
0.0021807313
0.0021853913
0.0021943357
0.0022059967
0.0022260163
0.0022369255
0.0022106196
0.0020619946
0.0016405446
0.00071482451
0.00010548681
0.00051042922
0.00078227594
0.00089848327
0.00092674075
0.00092252597
0.00090970426
0.00090051481
0.00089373233
0.00089037119
0.00089036904
0.00089372957
0.00090050768
0.00090969864
0.00092252276
0.00092673442
0.00089848053
0.00078227169
0.00051042606
0.00010548784
1.1104502e-05
0.0001364096
0.0002698241
0.0003388407
0.0003598556
0.00035987192
0.00035399394
0.00034885294
0.00034512084
0.00034329604
0.0003432951
0.00034511877
0.00034884918
0.00035399041
0.00035986957
0.00035985125
0.00033883779
0.00026982182
0.00013640783
1.1104627e-05
9.2217387e-07
3.2336963e-05
8.5528557e-05
0.00011887671
0.00013087815
0.0001320254
0.00012993594
0.00012766585
0.0001260132
0.00012520954
0.00012520917
0.00012601204
0.00012766416
0.00012993408
0.00013202397
0.00013087591
0.00011887491
8.5527504e-05
3.2336312e-05
9.2218208e-07
6.6444e-08
7.0182725e-06
2.5136332e-05
3.8873122e-05
4.4520655e-05
4.5450185e-05
4.4863239e-05
4.4026902e-05
4.3403999e-05
4.310094e-05
4.3100788e-05
4.340347e-05
4.4026203e-05
4.486239e-05
4.5449415e-05
4.4519712e-05
3.887227e-05
2.5135897e-05
7.0180856e-06
6.6444051e-08
4.5115457e-09
1.4260958e-06
6.8902106e-06
1.1863418e-05
1.4148879e-05
1.465142e-05
1.4528912e-05
1.4264228e-05
1.405817e-05
1.3957112e-05
1.3957051e-05
1.4057963e-05
1.4263957e-05
1.4528567e-05
1.4651062e-05
1.4148535e-05
1.1863086e-05
6.8900502e-06
1.4260499e-06
4.5114797e-09
3.0675094e-10
2.7436051e-07
1.7676017e-06
3.3818691e-06
4.1991517e-06
4.4168225e-06
4.4044347e-06
4.3314226e-06
4.2706322e-06
4.2402641e-06
4.240241e-06
4.2705596e-06
4.3313242e-06
4.4043076e-06
4.416679e-06
4.199036e-06
3.3817558e-06
1.7675493e-06
2.7435026e-07
3.067403e-10
2.1432986e-11
5.0134453e-08
4.2516184e-07
9.0129973e-07
1.1642163e-06
1.2446392e-06
1.2487795e-06
1.2311502e-06
1.2150179e-06
1.2067178e-06
1.2067099e-06
1.2149946e-06
1.2311169e-06
1.2487366e-06
1.2445889e-06
1.1641791e-06
9.0126489e-07
4.2514669e-07
5.0132313e-08
2.1431814e-11
1.5274155e-12
8.6964386e-09
9.5998413e-08
2.2482747e-07
3.0184937e-07
3.28003e-07
3.3120402e-07
3.2750305e-07
3.2363266e-07
3.2156101e-07
3.2155858e-07
3.2362565e-07
3.2749267e-07
3.3119075e-07
3.2798735e-07
3.0183798e-07
2.2481757e-07
9.5994444e-08
8.6960196e-09
1.5273079e-12
1.0856326e-13
1.4299374e-09
2.0371337e-08
5.2571962e-08
7.330067e-08
8.0932381e-08
8.2252795e-08
8.1594714e-08
8.0752646e-08
8.0279418e-08
8.0278731e-08
8.0750687e-08
8.1591734e-08
8.2249004e-08
8.092798e-08
7.3297334e-08
5.2569374e-08
2.0370375e-08
1.4298607e-09
1.0855446e-13
7.5390543e-15
2.2266037e-10
4.0682966e-09
1.1544305e-08
1.6703638e-08
1.8728911e-08
1.9157129e-08
1.9065689e-08
1.8899343e-08
1.8800192e-08
1.8800013e-08
1.889883e-08
1.9064899e-08
1.9156131e-08
1.8727776e-08
1.6702725e-08
1.1543676e-08
4.0680796e-09
2.2264724e-10
7.5383907e-15
5.0475433e-16
3.2827359e-11
7.6582015e-10
2.3853905e-09
3.5793206e-09
4.0730768e-09
4.1924586e-09
4.1857147e-09
4.155916e-09
4.1368138e-09
4.1367705e-09
4.1557914e-09
4.1855208e-09
4.1922147e-09
4.0728052e-09
3.5790899e-09
2.3852466e-09
7.6577458e-10
3.2825238e-11
5.0470748e-16
3.2350654e-17
4.5845343e-12
1.3611693e-10
4.6476345e-10
7.2278433e-10
8.3424673e-10
8.6393184e-10
8.6515965e-10
8.6034612e-10
8.5695348e-10
8.5694374e-10
8.6031791e-10
8.6511546e-10
8.6387643e-10
8.3418606e-10
7.2273066e-10
4.6473247e-10
1.3610796e-10
4.5842096e-12
3.2347538e-17
1.9783416e-18
6.0703543e-13
2.2884753e-11
8.5563502e-11
1.3783581e-10
1.6128183e-10
1.679973e-10
1.6871568e-10
1.6802441e-10
1.6746777e-10
1.6746571e-10
1.6801843e-10
1.687063e-10
1.6798553e-10
1.6126909e-10
1.3782431e-10
8.5557185e-11
2.2883101e-11
6.0698838e-13
1.9781449e-18
1.1529734e-19
7.6295565e-14
3.6459264e-12
1.491448e-11
2.4874826e-11
2.9493897e-11
3.0893451e-11
3.1107828e-11
3.1022556e-11
3.0938097e-11
3.0937686e-11
3.102137e-11
3.1105965e-11
3.0891111e-11
2.9491382e-11
2.4872546e-11
1.4913259e-11
3.6456398e-12
7.6289144e-14
1.1528556e-19
6.4032077e-21
9.1141752e-15
5.5138923e-13
2.4662063e-12
4.2565964e-12
5.1124618e-12
5.3835345e-12
5.4341867e-12
5.4260139e-12
5.4141723e-12
5.4140955e-12
5.4257925e-12
5.4338391e-12
5.3830978e-12
5.1119933e-12
4.256174e-12
2.4659827e-12
5.5134209e-13
9.1133496e-15
6.4025359e-21
3.390362e-22
1.0362377e-15
7.9291913e-14
3.8756336e-13
6.9196263e-13
8.4163225e-13
8.9074835e-13
9.0116342e-13
9.0081599e-13
8.9928787e-13
8.9927425e-13
9.0077692e-13
9.0110231e-13
8.9067143e-13
8.4154972e-13
6.9188907e-13
3.875247e-13
7.928454e-14
1.0361372e-15
3.3899967e-22
1.7127945e-23
1.1228417e-16
1.0859623e-14
5.7981223e-14
1.0704949e-13
1.3182457e-13
1.4019292e-13
1.4212828e-13
1.4221636e-13
1.4203655e-13
1.4203429e-13
1.4220985e-13
1.4211811e-13
1.401801e-13
1.3181079e-13
1.0703738e-13
5.7974908e-14
1.0858522e-14
1.1227251e-16
1.7126048e-23
8.2638078e-25
1.1611152e-17
1.4186363e-15
8.270901e-15
1.578639e-14
1.967813e-14
2.1024423e-14
2.1355837e-14
2.138832e-14
2.136943e-14
2.1369075e-14
2.1387292e-14
2.1354228e-14
2.1022389e-14
1.9675942e-14
1.5784491e-14
8.269923e-15
1.4184794e-15
1.1609856e-17
8.2628666e-25
3.8115516e-26
1.1473313e-18
1.7701623e-16
1.1266303e-15
2.2225066e-15
2.8039078e-15
3.0091234e-15
3.0620411e-15
3.0691732e-15
3.0674897e-15
3.0674367e-15
3.0690188e-15
3.0617989e-15
3.0088163e-15
2.8035769e-15
2.2222223e-15
1.1264863e-15
1.7699483e-16
1.147193e-18
3.8111053e-26
1.6830516e-27
1.0846564e-19
2.1125994e-17
1.4674802e-16
2.9914711e-16
3.8191435e-16
4.1163761e-16
4.1957832e-16
4.2086036e-16
4.2075299e-16
4.207454e-16
4.2083823e-16
4.1954346e-16
4.1159331e-16
3.818665e-16
2.9910634e-16
1.4672779e-16
2.1123197e-17
1.0845145e-19
1.6821049e-27
7.1581896e-29
9.8218049e-21
2.4144781e-18
1.8301414e-17
3.854643e-17
4.9793812e-17
5.389448e-17
5.5020596e-17
5.5224782e-17
5.5224902e-17
5.5223862e-17
5.5221744e-17
5.5015788e-17
5.3888369e-17
4.9787186e-17
3.8540828e-17
1.8298689e-17
2.4141278e-18
9.8204019e-21
7.1115839e-29
3.01179e-30
8.528359e-22
2.6456842e-19
2.1879701e-18
4.7607707e-18
6.2220787e-18
6.7620803e-18
6.9136453e-18
6.943417e-18
6.9450034e-18
6.9448659e-18
6.9430166e-18
6.9130101e-18
6.7612712e-18
6.2211994e-18
4.7600309e-18
2.187618e-18
2.6452628e-19
8.5270194e-22
2.8827596e-30
1.3526656e-31
7.108346e-23
2.7825115e-20
2.5103354e-19
5.6423968e-19
7.4602348e-19
8.1402331e-19
8.3344757e-19
8.3749007e-19
8.3784873e-19
8.3783135e-19
8.3743936e-19
8.3336697e-19
8.1392041e-19
7.4591136e-19
5.6414575e-19
2.5098979e-19
2.7820248e-20
7.1071099e-23
1.1214615e-31
7.2389763e-33
5.6928589e-24
2.8116896e-21
2.7670301e-20
6.4240563e-20
8.5920788e-20
9.412223e-20
9.6498922e-20
9.7015344e-20
9.707412e-20
9.7071998e-20
9.7009169e-20
9.6489092e-20
9.4109638e-20
8.5907058e-20
6.4229102e-20
2.7665077e-20
2.8111484e-21
5.6917544e-24
4.1906856e-33
4.6992676e-34
4.3848828e-25
2.732435e-22
2.9330366e-21
7.0331548e-21
9.5151046e-21
1.0463873e-20
1.0742126e-20
1.0804615e-20
1.0812878e-20
1.0812629e-20
1.0803891e-20
1.0740972e-20
1.0462392e-20
9.5134877e-21
7.0318089e-21
2.9324357e-21
2.7318559e-22
4.3839263e-25
1.5055189e-34
3.3141351e-35
3.2511463e-26
2.5561151e-23
2.992579e-22
7.4112944e-22
1.0141699e-21
1.1195778e-21
1.150806e-21
1.1580024e-21
1.159054e-21
1.1590259e-21
1.1579207e-21
1.1506757e-21
1.1194101e-21
1.0139867e-21
7.4097737e-22
2.9919146e-22
2.5555188e-23
3.2503438e-26
5.2041277e-36
2.2815818e-36
2.3223644e-27
2.3037324e-24
2.941556e-23
7.5235634e-23
1.0413004e-22
1.1538983e-22
1.1875479e-22
1.1954633e-22
1.196705e-22
1.1966745e-22
1.1953744e-22
1.1874063e-22
1.1537155e-22
1.0411004e-22
7.5219107e-23
2.9408489e-23
2.3031418e-24
2.3217123e-27
1.7322647e-37
1.4574042e-37
1.599499e-28
2.0019634e-25
2.7878406e-24
7.363732e-24
1.030794e-23
1.1465623e-23
1.1814226e-23
1.1897605e-23
1.191139e-23
1.1911072e-23
1.1896675e-23
1.1812743e-23
1.1463705e-23
1.0305838e-23
7.3620041e-24
2.7871172e-24
2.0014011e-25
1.5989867e-28
5.5566476e-39
8.483712e-39
1.062974e-29
1.6787424e-26
2.5494901e-25
6.9543303e-25
9.8455228e-25
1.0992275e-24
1.1339909e-24
1.1424203e-24
1.1438711e-24
1.1438391e-24
1.1423265e-24
1.1338413e-24
1.0990334e-24
9.8433962e-25
6.9525906e-25
2.5487782e-25
1.6782276e-26
1.0625855e-29
1.718919e-40
4.4820589e-40
6.8210917e-31
1.3593408e-27
2.2513829e-26
6.3418183e-26
9.0802374e-26
1.0175591e-25
1.0509645e-25
1.0591574e-25
1.0606129e-25
1.0605818e-25
1.0590665e-25
1.0508191e-25
1.01737e-25
9.0781642e-26
6.3401328e-26
2.2507087e-26
1.3588876e-27
6.8182502e-31
5.2516916e-42
2.1593878e-41
4.229305e-32
1.0636164e-28
1.921119e-27
5.5882213e-27
8.0918696e-27
9.1015892e-27
9.4112064e-27
9.4878733e-27
9.5018431e-27
9.5015531e-27
9.487025e-27
9.409844e-27
9.0998139e-27
8.0899239e-27
5.5866489e-27
1.9205046e-27
1.0632328e-28
4.2273043e-32
1.8396109e-43
)
;

boundaryField
{
    Wall
    {
        type            zeroGradient;
    }
    frontAndBack
    {
        type            empty;
    }
    atmosphere
    {
        type            zeroGradient;
    }
}


// ************************************************************************* //
