/*--------------------------------*- C++ -*----------------------------------*\
| =========                 |                                                 |
| \\      /  F ield         | OpenFOAM: The Open Source CFD Toolbox           |
|  \\    /   O peration     | Version:  3.0.1                                 |
|   \\  /    A nd           | Web:      www.OpenFOAM.org                      |
|    \\/     M anipulation  |                                                 |
\*---------------------------------------------------------------------------*/
FoamFile
{
    version     2.0;
    format      ascii;
    class       volScalarField;
    location    "13";
    object      wCO2_l;
}
// * * * * * * * * * * * * * * * * * * * * * * * * * * * * * * * * * * * * * //

dimensions      [0 0 0 0 0 0 0];

internalField   nonuniform List<scalar> 
800
(
0.0030186965
0.0030186703
0.0030186782
0.0030186835
0.0030186874
0.0030186907
0.0030186933
0.0030186952
0.0030186965
0.0030186971
0.0030186971
0.0030186965
0.0030186952
0.0030186933
0.0030186907
0.0030186874
0.0030186835
0.0030186782
0.0030186702
0.0030186965
0.0034030815
0.0033934428
0.0033928857
0.0033926717
0.003392488
0.003392343
0.0033922335
0.0033921562
0.0033921075
0.0033920839
0.0033920839
0.0033921075
0.0033921562
0.0033922335
0.003392343
0.003392488
0.0033926717
0.0033928857
0.0033934428
0.0034030816
0.004665704
0.0046485797
0.0046480106
0.0046477495
0.0046475574
0.0046474156
0.0046473197
0.0046472585
0.0046472228
0.0046472061
0.0046472062
0.0046472229
0.0046472586
0.0046473198
0.0046474158
0.0046475576
0.0046477497
0.0046480108
0.0046485799
0.0046657043
0.0058303329
0.0058268786
0.0058270927
0.0058268913
0.0058266919
0.0058265356
0.0058264243
0.0058263478
0.0058263007
0.0058262781
0.0058262781
0.0058263007
0.0058263479
0.0058264245
0.0058265359
0.0058266921
0.0058268917
0.005827093
0.0058268789
0.0058303332
0.0053532558
0.0054611078
0.0054641341
0.0054648836
0.0054649499
0.0054648253
0.0054646201
0.0054644217
0.0054642821
0.0054642098
0.0054642099
0.0054642822
0.0054644219
0.0054646204
0.0054648257
0.0054649504
0.0054648842
0.0054641348
0.0054611085
0.0053532565
0.0026169619
0.002737859
0.0027492519
0.0027517301
0.0027515143
0.0027505985
0.0027498049
0.0027490385
0.0027485793
0.0027483361
0.0027483362
0.0027485795
0.002749039
0.0027498055
0.0027505994
0.0027515153
0.0027517311
0.0027492533
0.0027378604
0.0026169636
0.0010820862
0.0011931703
0.0012185421
0.00122381
0.0012237732
0.0012223849
0.0012212511
0.0012203992
0.0012198624
0.0012195123
0.0012195124
0.0012198624
0.0012203992
0.0012212515
0.0012223853
0.001223774
0.0012238115
0.0012185432
0.0011931714
0.0010820879
0.00034566463
0.000459873
0.00049469599
0.00050325541
0.00050338418
0.00050161928
0.00049964396
0.00049867015
0.00049792842
0.00049746877
0.00049746853
0.00049792832
0.00049866955
0.00049964379
0.00050161948
0.00050338439
0.00050325653
0.00049469617
0.00045987366
0.00034566583
7.4222495e-05
0.00015380821
0.00018597062
0.00019621893
0.00019736452
0.00019592266
0.0001939579
0.00019282196
0.00019198175
0.00019154096
0.00019154069
0.00019198158
0.00019282118
0.00019395748
0.00019592262
0.00019736427
0.0001962193
0.00018597047
0.00015380824
7.4222979e-05
1.0753744e-05
4.4076762e-05
6.4318264e-05
7.2493994e-05
7.4200269e-05
7.3592278e-05
7.2408352e-05
7.1593075e-05
7.1001909e-05
7.07058e-05
7.0705637e-05
7.100173e-05
7.1592557e-05
7.2407991e-05
7.3592135e-05
7.4199921e-05
7.2493972e-05
6.4318078e-05
4.4076632e-05
1.0753848e-05
1.1288007e-06
1.0977759e-05
2.0552569e-05
2.5347764e-05
2.6714084e-05
2.6605112e-05
2.6087495e-05
2.5663922e-05
2.5358001e-05
2.520715e-05
2.5207081e-05
2.5357871e-05
2.566366e-05
2.6087272e-05
2.660499e-05
2.671383e-05
2.5347639e-05
2.0552459e-05
1.0977667e-05
1.1288148e-06
9.3551673e-08
2.4473224e-06
6.1292202e-06
8.3959439e-06
9.1858992e-06
9.2303153e-06
9.0513015e-06
8.8740131e-06
8.7449891e-06
8.6818136e-06
8.6817874e-06
8.7449177e-06
8.8739006e-06
9.0511868e-06
9.2302369e-06
9.1857662e-06
8.3958518e-06
6.1291673e-06
2.4472867e-06
9.355293e-08
6.6328053e-09
5.0443525e-07
1.7222973e-06
2.637489e-06
3.0083184e-06
3.0610669e-06
3.0107203e-06
2.9475874e-06
2.9006644e-06
2.8777077e-06
2.8776979e-06
2.9006321e-06
2.9475427e-06
3.0106688e-06
3.061024e-06
3.0082622e-06
2.6374426e-06
1.7222749e-06
5.0442473e-07
6.6328782e-09
4.3206861e-10
9.8627816e-08
4.589409e-07
7.8612692e-07
9.3589346e-07
9.6669055e-07
9.5554249e-07
9.3587142e-07
9.2068651e-07
9.1321582e-07
9.1321202e-07
9.2067387e-07
9.3585459e-07
9.5552173e-07
9.6667029e-07
9.3587287e-07
7.8610814e-07
4.5893245e-07
9.8625205e-08
4.3206985e-10
2.7550786e-11
1.8559188e-08
1.1632276e-07
2.2225183e-07
2.7602931e-07
2.8982419e-07
2.8824212e-07
2.8280542e-07
2.7835886e-07
2.7613981e-07
2.7613841e-07
2.7835439e-07
2.8279939e-07
2.8823445e-07
2.8981589e-07
2.7602236e-07
2.2224525e-07
1.1631992e-07
1.8558599e-08
2.7550453e-11
1.8028682e-12
3.3758211e-09
2.8061231e-08
5.9566172e-08
7.7083512e-08
8.2321355e-08
8.2421359e-08
8.1082904e-08
7.9894259e-08
7.9286639e-08
7.9286159e-08
7.9892798e-08
8.1080856e-08
8.241874e-08
8.2318363e-08
7.7081268e-08
5.9564098e-08
2.8060378e-08
3.3756958e-09
1.8028106e-12
1.2324877e-13
5.9255791e-10
6.439905e-09
1.5128121e-08
2.037187e-08
2.2128655e-08
2.2308975e-08
2.2016924e-08
2.1725511e-08
2.1571446e-08
2.1571294e-08
2.1725064e-08
2.2016273e-08
2.2308144e-08
2.2127687e-08
2.0371174e-08
1.5127514e-08
6.4396721e-09
5.9253269e-10
1.2324235e-13
8.7001282e-15
9.9995506e-11
1.4051459e-09
3.6409392e-09
5.0961684e-09
5.628363e-09
5.7136152e-09
5.6582255e-09
5.5925511e-09
5.5563053e-09
5.5562605e-09
5.5924224e-09
5.6580326e-09
5.7133698e-09
5.628079e-09
5.0959594e-09
3.6407751e-09
1.4050868e-09
9.99907e-11
8.6995363e-15
6.1868792e-16
1.6166603e-11
2.9142309e-10
8.3080536e-10
1.2075713e-09
1.3552613e-09
1.3851975e-09
1.3765557e-09
1.3629428e-09
1.3550201e-09
1.355008e-09
1.3629078e-09
1.3765023e-09
1.38513e-09
1.3551845e-09
1.2075118e-09
8.3076378e-10
2.9140909e-10
1.616574e-11
6.1863892e-16
4.3349663e-17
2.49826e-12
5.7462752e-11
1.7990161e-10
2.7133936e-10
3.0926355e-10
3.182009e-10
3.1729497e-10
3.1470368e-10
3.1309265e-10
3.1308956e-10
3.1469477e-10
3.1728121e-10
3.1818356e-10
3.0924417e-10
2.7132354e-10
1.7989162e-10
5.7459654e-11
2.4981128e-12
4.3345909e-17
2.9497662e-18
3.685859e-13
1.0779493e-11
3.7011663e-11
5.7893328e-11
6.6972273e-11
6.9351607e-11
6.9379853e-11
6.8929034e-11
6.8623869e-11
6.8623128e-11
6.89269e-11
6.9376524e-11
6.9347432e-11
6.6967688e-11
5.7889418e-11
3.7009392e-11
1.0778846e-11
3.6856201e-13
2.9494967e-18
1.9339901e-19
5.1906466e-14
1.9256906e-12
7.2445211e-12
1.1746483e-11
1.3784818e-11
1.4363005e-11
1.4413059e-11
1.4342166e-11
1.4288261e-11
1.4288093e-11
1.4341685e-11
1.4412304e-11
1.4362059e-11
1.3783793e-11
1.1745585e-11
7.2440293e-12
1.9255635e-12
5.1902775e-14
1.9338065e-19
1.2171929e-20
6.9799832e-15
3.2799569e-13
1.3511128e-12
2.2700173e-12
2.701241e-12
2.8312663e-12
2.8493009e-12
2.8394715e-12
2.8305884e-12
2.8305527e-12
2.839369e-12
2.8491398e-12
2.8310643e-12
2.7010239e-12
2.2698251e-12
1.3510112e-12
3.2797207e-13
6.9794432e-15
1.217074e-20
7.3430298e-22
8.9696432e-16
5.3334887e-14
2.4045986e-13
4.1848353e-13
5.0478338e-13
5.3209338e-13
5.3691464e-13
5.3578737e-13
5.3442312e-13
5.3441593e-13
5.3576668e-13
5.3688217e-13
5.3205265e-13
5.047398e-13
4.1844487e-13
2.4043987e-13
5.3330707e-14
8.9688958e-16
7.3422939e-22
4.2452434e-23
1.1026075e-16
8.2909923e-15
4.089935e-14
7.3711125e-14
9.0102335e-14
9.5495514e-14
9.6600067e-14
9.6516198e-14
9.6321595e-14
9.6320209e-14
9.6512225e-14
9.6593858e-14
9.5487714e-14
9.0094008e-14
7.3703788e-14
4.0895609e-14
8.2902855e-15
1.1025091e-16
4.2448081e-23
2.3529737e-24
1.2980197e-17
1.2338036e-15
6.6580959e-15
1.2423732e-14
1.5386549e-14
1.6393059e-14
1.6620936e-14
1.6625077e-14
1.6599491e-14
1.6599239e-14
1.6624353e-14
1.6619806e-14
1.6391638e-14
1.5385032e-14
1.2422409e-14
6.6574294e-15
1.2336892e-15
1.2978958e-17
2.3527269e-24
1.2512223e-25
1.4651015e-18
1.7599966e-16
1.0388596e-15
2.0066388e-15
2.5175279e-15
2.6957727e-15
2.739122e-15
2.7425761e-15
2.7395254e-15
2.7394819e-15
2.7424505e-15
2.7389256e-15
2.6955253e-15
2.5172638e-15
2.0064112e-15
1.0387463e-15
1.759819e-16
1.4649518e-18
1.2510881e-25
6.3890687e-27
1.5874293e-19
2.4097237e-17
1.5556892e-16
3.1102066e-16
3.9523484e-16
4.2528851e-16
4.3299612e-16
4.3393904e-16
4.336211e-16
4.3361394e-16
4.3391819e-16
4.3296348e-16
4.2524731e-16
3.9519079e-16
3.1098311e-16
1.5555055e-16
2.4094582e-17
1.5872547e-19
6.3883677e-27
3.1369289e-28
1.6529753e-20
3.1706824e-18
2.2387505e-17
4.6321883e-17
5.961693e-17
6.4455109e-17
6.5747225e-17
6.5945104e-17
6.5919035e-17
6.5917897e-17
6.5941791e-17
6.5742021e-17
6.4448521e-17
5.960988e-17
4.6315934e-17
2.2384649e-17
3.1703005e-18
1.6527788e-20
3.1353676e-28
1.4885446e-29
1.6560485e-21
4.0140617e-19
3.0998068e-18
6.6374783e-18
8.651063e-18
9.396499e-18
9.6019803e-18
9.6381585e-18
9.6372371e-18
9.6370635e-18
9.6376528e-18
9.6011819e-18
9.3954884e-18
8.649978e-18
6.6365711e-18
3.0993795e-18
4.0135323e-19
1.6558341e-21
1.480478e-29
6.9695944e-31
1.5980303e-22
4.8949897e-20
4.134385e-19
9.1612049e-19
1.2091346e-18
1.3192843e-18
1.3504216e-18
1.3564474e-18
1.3566797e-18
1.3566541e-18
1.3563729e-18
1.3503038e-18
1.319135e-18
1.2089738e-18
9.1598706e-19
4.1337697e-19
4.8942816e-20
1.5978035e-22
6.7320115e-31
3.408777e-32
1.4868002e-23
5.7560139e-21
5.3175202e-20
1.2193209e-19
1.6295756e-19
1.785958e-19
1.831075e-19
1.840417e-19
1.841171e-19
1.8411348e-19
1.8403113e-19
1.8309074e-19
1.7857451e-19
1.6293457e-19
1.2191314e-19
5.3166654e-20
5.7551006e-21
1.4865668e-23
2.9506877e-32
1.9053195e-33
1.3350752e-24
6.5333548e-22
6.6020395e-21
1.566589e-20
2.1199702e-20
2.333629e-20
2.3963133e-20
2.4099614e-20
2.411465e-20
2.4114152e-20
2.4098165e-20
2.3960831e-20
2.3333359e-20
2.1196534e-20
1.5663291e-20
6.6008932e-21
6.5322154e-22
1.3348417e-24
1.2477611e-33
1.2680368e-34
1.158121e-25
7.1649634e-23
7.9203148e-22
1.9448833e-21
2.6648605e-21
2.9461822e-21
3.0298835e-21
3.0488199e-21
3.0513124e-21
3.0512464e-21
3.048628e-21
3.029578e-21
2.9457924e-21
2.6644389e-21
1.9445387e-21
7.9188272e-22
7.1635888e-23
1.1578934e-25
5.0950708e-35
9.3900205e-36
9.713754e-27
7.5989257e-24
9.1897475e-23
2.3352792e-22
3.239797e-22
3.5972306e-22
3.7048502e-22
3.7299388e-22
3.7336452e-22
3.7335603e-22
3.7296925e-22
3.7044586e-22
3.596729e-22
3.2392542e-22
2.3348373e-22
9.187882e-23
7.5973223e-24
9.7115958e-27
2.0106941e-36
7.0141506e-37
7.8845316e-28
7.8005881e-25
1.0321465e-23
2.7143987e-23
3.8128143e-23
4.2515519e-23
4.3850128e-23
4.4168767e-23
4.4219793e-23
4.4218743e-23
4.4165711e-23
4.3845266e-23
4.2509276e-23
3.8121379e-23
2.7138507e-23
1.0319202e-23
7.7987791e-25
7.8825403e-28
7.6748591e-38
4.9751332e-38
6.1982965e-29
7.7570401e-26
1.1230911e-24
3.0567483e-24
4.347328e-24
4.868159e-24
5.0280183e-24
5.0669291e-24
5.073539e-24
5.0734131e-24
5.0665616e-24
5.0274336e-24
4.8674063e-24
4.3465118e-24
3.0560906e-24
1.1228256e-24
7.7550665e-26
6.1965114e-29
2.8356974e-39
3.2627923e-39
4.7229203e-30
7.4781868e-27
1.1848537e-25
3.3376371e-25
4.8060956e-25
5.4046427e-25
5.58982e-25
5.635614e-25
5.6437495e-25
5.6436025e-25
5.6351859e-25
5.5891385e-25
5.4037633e-25
4.8051419e-25
3.3368725e-25
1.1845522e-25
7.4761051e-27
4.7213682e-30
1.0149293e-40
1.964245e-40
3.4906629e-31
6.9943707e-28
1.2128666e-26
3.5361918e-26
5.1556268e-26
5.8221314e-26
6.0298075e-26
6.0818462e-26
6.09142e-26
6.0912541e-26
6.0813636e-26
6.0290373e-26
5.8211352e-26
5.154546e-26
3.5353311e-26
1.2125352e-26
6.9922476e-28
3.4893552e-31
3.5992413e-42
1.0912811e-41
2.5041841e-32
6.3512331e-29
1.2054959e-27
3.6379502e-27
5.3702926e-27
6.090036e-27
6.3157538e-27
6.3729432e-27
6.38376e-27
6.3835793e-27
6.3724158e-27
6.3149091e-27
6.0889417e-27
5.3691056e-27
3.637011e-27
1.2051432e-27
6.3491378e-29
2.503117e-32
1.4265252e-43
)
;

boundaryField
{
    Wall
    {
        type            zeroGradient;
    }
    frontAndBack
    {
        type            empty;
    }
    atmosphere
    {
        type            zeroGradient;
    }
}


// ************************************************************************* //
