/*--------------------------------*- C++ -*----------------------------------*\
| =========                 |                                                 |
| \\      /  F ield         | OpenFOAM: The Open Source CFD Toolbox           |
|  \\    /   O peration     | Version:  3.0.1                                 |
|   \\  /    A nd           | Web:      www.OpenFOAM.org                      |
|    \\/     M anipulation  |                                                 |
\*---------------------------------------------------------------------------*/
FoamFile
{
    version     2.0;
    format      ascii;
    class       volScalarField;
    location    "13";
    object      wCO2_g;
}
// * * * * * * * * * * * * * * * * * * * * * * * * * * * * * * * * * * * * * //

dimensions      [0 0 0 0 0 0 0];

internalField   nonuniform List<scalar> 
800
(
0.0044557838
0.0044559297
0.004455954
0.0044559669
0.0044559762
0.0044559832
0.0044559884
0.004455992
0.0044559943
0.0044559954
0.0044559954
0.0044559943
0.004455992
0.0044559884
0.0044559832
0.0044559762
0.0044559669
0.004455954
0.0044559297
0.0044557838
0.0038084299
0.003823502
0.0038249229
0.0038253987
0.003825811
0.0038261434
0.0038263997
0.0038265826
0.0038266986
0.0038267549
0.0038267549
0.0038266985
0.0038265825
0.0038263997
0.0038261434
0.003825811
0.0038253987
0.003824923
0.003823502
0.0038084299
0.0028713878
0.0028866423
0.002888598
0.0028893268
0.0028898507
0.0028902481
0.0028905374
0.0028907357
0.0028908587
0.0028909179
0.0028909179
0.0028908587
0.0028907356
0.0028905373
0.002890248
0.0028898506
0.0028893267
0.0028885979
0.0028866422
0.0028713876
0.0019948573
0.0020126084
0.0020142724
0.0020148406
0.0020151923
0.0020154316
0.0020155837
0.0020156749
0.0020157268
0.0020157503
0.0020157503
0.0020157267
0.0020156749
0.0020155837
0.0020154317
0.0020151923
0.0020148407
0.0020142724
0.0020126084
0.0019948572
0.0010926621
0.0011194138
0.0011208727
0.0011213558
0.0011215373
0.0011216036
0.0011216031
0.0011215783
0.0011215554
0.001121542
0.0011215421
0.0011215554
0.0011215783
0.0011216032
0.0011216037
0.0011215374
0.001121356
0.0011208729
0.001119414
0.0010926622
0.00045291715
0.00046963125
0.00047127119
0.00047176091
0.00047180972
0.00047171713
0.00047161875
0.00047150817
0.00047144149
0.00047140513
0.00047140515
0.00047144152
0.00047150823
0.00047161884
0.00047171728
0.00047180989
0.00047176109
0.00047127144
0.00046963151
0.00045291741
0.00016111556
0.0001737399
0.00017616151
0.00017660368
0.00017654405
0.00017634894
0.00017619868
0.00017608021
0.00017600754
0.00017595874
0.00017595875
0.00017600754
0.00017608022
0.00017619876
0.00017634903
0.00017654418
0.00017660391
0.0001761617
0.0001737401
0.0001611158
4.4518147e-05
5.6899226e-05
6.0007599e-05
6.0572141e-05
6.043347e-05
6.0171801e-05
5.9922747e-05
5.9797025e-05
5.9705161e-05
5.9648544e-05
5.964852e-05
5.9705154e-05
5.9796963e-05
5.9922744e-05
6.0171848e-05
6.0433526e-05
6.057231e-05
6.0007663e-05
5.6899336e-05
4.4518294e-05
8.2367424e-06
1.6075121e-05
1.884851e-05
1.9606112e-05
1.9602853e-05
1.9406054e-05
1.918391e-05
1.905673e-05
1.8965279e-05
1.8917191e-05
1.8917165e-05
1.8965265e-05
1.9056658e-05
1.918388e-05
1.9406067e-05
1.9602852e-05
1.9606179e-05
1.8848522e-05
1.6075148e-05
8.236795e-06
1.020179e-06
3.8378799e-06
5.4054462e-06
5.9933047e-06
6.0847568e-06
6.0071509e-06
5.891286e-06
5.8146235e-06
5.7596967e-06
5.7321037e-06
5.7320902e-06
5.759684e-06
5.8145822e-06
5.8912613e-06
6.0071479e-06
6.0847393e-06
5.9933196e-06
5.4054432e-06
3.8378795e-06
1.0201893e-06
9.0417102e-08
7.8277065e-07
1.4204703e-06
1.730443e-06
1.810257e-06
1.7932067e-06
1.7499118e-06
1.7166594e-06
1.6927079e-06
1.6808847e-06
1.6808798e-06
1.6927002e-06
1.7166417e-06
1.7498986e-06
1.7932021e-06
1.8102438e-06
1.7304413e-06
1.4204673e-06
7.8276764e-07
9.0418381e-08
6.2111669e-09
1.406352e-07
3.4673275e-07
4.7389638e-07
5.1655186e-07
5.1656392e-07
5.0381198e-07
4.9218275e-07
4.8372489e-07
4.7958253e-07
4.79581e-07
4.8372127e-07
4.9217644e-07
5.0380615e-07
5.1656084e-07
5.1654554e-07
4.738933e-07
3.4673122e-07
1.4063397e-07
6.2112783e-09
3.555369e-10
2.3144329e-08
7.989387e-08
1.2377784e-07
1.4145346e-07
1.4347663e-07
1.4041022e-07
1.3693656e-07
1.3436503e-07
1.3310773e-07
1.3310727e-07
1.3436361e-07
1.369345e-07
1.4040799e-07
1.4347504e-07
1.4145111e-07
1.2377621e-07
7.9893248e-08
2.3143999e-08
3.5554409e-10
1.8088222e-11
3.6223486e-09
1.7614217e-08
3.0972623e-08
3.7173465e-08
3.8357651e-08
3.7766459e-08
3.685356e-08
3.6155756e-08
3.5813315e-08
3.5813173e-08
3.6155274e-08
3.6852917e-08
3.7765687e-08
3.8356964e-08
3.7172717e-08
3.0972004e-08
1.7613994e-08
3.6222785e-09
1.8088564e-11
8.7395297e-13
5.5437224e-10
3.7472188e-09
7.441895e-09
9.3681615e-09
9.8483404e-09
9.7693188e-09
9.5551435e-09
9.3826746e-09
9.2970558e-09
9.2970112e-09
9.3825267e-09
9.5549477e-09
9.7690718e-09
9.8480853e-09
9.3679444e-09
7.4416997e-09
3.7471489e-09
5.5435868e-10
8.7396212e-13
4.3111576e-14
8.4107371e-11
7.7166206e-10
1.7174118e-09
2.2613336e-09
2.422678e-09
2.422473e-09
2.3774159e-09
2.3381728e-09
2.3182642e-09
2.3182508e-09
2.3381307e-09
2.3773582e-09
2.4223991e-09
2.422595e-09
2.261273e-09
1.7173569e-09
7.7164257e-10
8.4104848e-11
4.3111264e-14
2.3074535e-15
1.266218e-11
1.5373192e-10
3.803109e-10
5.2218475e-10
5.6985323e-10
5.7435096e-10
5.6589673e-10
5.5763687e-10
5.5330659e-10
5.5330279e-10
5.576256e-10
5.6588053e-10
5.743302e-10
5.6982912e-10
5.2216815e-10
3.8029658e-10
1.5372702e-10
1.2661722e-11
2.3073797e-15
1.3635187e-16
1.8795633e-12
2.9559396e-11
8.0705925e-11
1.1523848e-10
1.2797525e-10
1.2997876e-10
1.2859317e-10
1.2698286e-10
1.2610057e-10
1.2609957e-10
1.2697998e-10
1.2858888e-10
1.2997328e-10
1.279689e-10
1.15234e-10
8.070245e-11
2.9558252e-11
1.8794827e-12
1.363443e-16
8.6465603e-18
2.7283488e-13
5.4712217e-12
1.639408e-11
2.4289551e-11
2.7417912e-11
2.8050944e-11
2.786401e-11
2.7573515e-11
2.7405197e-11
2.7404953e-11
2.7572814e-11
2.7862941e-11
2.8049589e-11
2.7416365e-11
2.4288388e-11
1.6393282e-11
5.4709722e-12
2.7282135e-13
8.6459288e-18
5.6425965e-19
3.8459047e-14
9.7279342e-13
3.1856013e-12
4.888819e-12
5.6027788e-12
5.771665e-12
5.7550871e-12
5.7067586e-12
5.6767145e-12
5.6766586e-12
5.7065973e-12
5.7548375e-12
5.7713501e-12
5.6024266e-12
4.8885359e-12
3.1854269e-12
9.7274235e-13
3.8456873e-14
5.6421187e-19
3.6724046e-20
5.2388762e-15
1.6593111e-13
5.9201225e-13
9.3978911e-13
1.0923521e-12
1.1325525e-12
1.1332835e-12
1.1259208e-12
1.1209052e-12
1.120893e-12
1.1258858e-12
1.1332287e-12
1.1324837e-12
1.0922766e-12
9.3972496e-13
5.919759e-13
1.6592122e-13
5.2385415e-15
3.6720653e-20
2.3417155e-21
6.875997e-16
2.7135292e-14
1.0524324e-13
1.7262779e-13
2.0332756e-13
2.1208315e-13
2.1290257e-13
2.1189022e-13
2.111073e-13
2.111048e-13
2.1188302e-13
2.1289125e-13
2.1206895e-13
2.0331219e-13
1.7261431e-13
1.05236e-13
2.7133484e-14
6.8755041e-16
2.3414849e-21
1.4499384e-22
8.681894e-17
4.2541144e-15
1.790628e-14
3.0321882e-14
3.6165178e-14
3.7934918e-14
3.819227e-14
3.8070623e-14
3.795643e-14
3.7955944e-14
3.8069223e-14
3.8190065e-14
3.793215e-14
3.6162206e-14
3.0319236e-14
1.7904898e-14
4.2538008e-15
8.6812041e-17
1.449788e-22
8.6806797e-24
1.0539083e-17
6.3957449e-16
2.9179615e-15
5.0973834e-15
6.1530856e-15
6.4880945e-15
6.5492346e-15
6.5375337e-15
6.5220029e-15
6.5219133e-15
6.5372753e-15
6.5488286e-15
6.4875842e-15
6.1525394e-15
5.0968962e-15
2.9177095e-15
6.3952255e-16
1.0538166e-17
8.6797342e-24
5.0156436e-25
1.2299521e-18
9.2264261e-17
4.5581663e-16
8.2093582e-16
1.0024941e-15
1.0622696e-15
1.0748115e-15
1.0742197e-15
1.0722596e-15
1.0722438e-15
1.0741743e-15
1.0747404e-15
1.0621802e-15
1.0023983e-15
8.2085107e-16
4.557729e-16
9.2256017e-17
1.2298358e-18
5.0150698e-25
2.7949195e-26
1.3804445e-19
1.2780864e-17
6.8319289e-17
1.2679193e-16
1.5658384e-16
1.666861e-16
1.6901344e-16
1.6910411e-16
1.688769e-16
1.6887426e-16
1.6909654e-16
1.6900159e-16
1.6667117e-16
1.5656783e-16
1.267779e-16
6.831207e-17
1.2779607e-17
1.380303e-19
2.7945834e-26
1.5019515e-27
1.4908695e-20
1.701514e-18
9.8346938e-18
1.8799831e-17
2.3473432e-17
2.509674e-17
2.5496269e-17
2.5534283e-17
2.5510613e-17
2.5510197e-17
2.5533078e-17
2.5494382e-17
2.5094354e-17
2.3470869e-17
1.879761e-17
9.8335575e-18
1.70133e-18
1.4907032e-20
1.5017618e-27
7.7858828e-29
1.5504205e-21
2.1789318e-19
1.3610326e-18
2.6788868e-18
3.3810331e-18
3.6298138e-18
3.6940832e-18
3.7026888e-18
3.7005867e-18
3.7005238e-18
3.7025053e-18
3.6937951e-18
3.6294487e-18
3.3806398e-18
2.6785488e-18
1.3608616e-18
2.1786721e-19
1.5502316e-21
7.7848482e-29
3.8975781e-30
1.5537344e-22
2.6864278e-20
1.8125459e-19
3.6723327e-19
4.6841393e-19
5.0487083e-19
5.1463875e-19
5.1621792e-19
5.1608453e-19
5.1607533e-19
5.161911e-19
5.145965e-19
5.048171e-19
4.6835592e-19
3.6718377e-19
1.8122989e-19
2.6860748e-20
1.5535268e-22
3.8946345e-30
1.8974031e-31
1.5016299e-23
3.1916783e-21
2.3250742e-20
4.8478869e-20
6.2483441e-20
6.7602958e-20
6.9013627e-20
6.927055e-20
6.9271103e-20
6.926981e-20
6.926678e-20
6.9007654e-20
6.759536e-20
6.2475201e-20
4.8471875e-20
2.3247303e-20
3.1912154e-21
1.5014085e-23
1.8814786e-31
9.2534677e-33
1.4007265e-24
3.6572763e-22
2.87551e-21
6.1688606e-21
8.0331064e-21
8.7232975e-21
8.9176946e-21
8.9560951e-21
8.9582268e-21
8.9580509e-21
8.9555827e-21
8.916881e-21
8.7222602e-21
8.0319776e-21
6.1679059e-21
2.875048e-21
3.6566902e-22
1.4004976e-24
8.7825853e-33
4.8696685e-34
1.2620946e-25
4.0454211e-23
3.4317259e-22
7.5735755e-22
9.9631119e-22
1.0857856e-21
1.1114304e-21
1.1167987e-21
1.1172874e-21
1.1172644e-21
1.1167315e-21
1.1113234e-21
1.0856489e-21
9.9616181e-22
7.5723153e-22
3.4311263e-22
4.0447049e-23
1.2618644e-25
3.9639242e-34
3.0228775e-35
1.0993018e-26
4.3231266e-24
3.9555258e-23
8.9789167e-23
1.1931351e-22
1.3048299e-22
1.3372982e-22
1.3443929e-22
1.3452155e-22
1.3451862e-22
1.3443075e-22
1.3371622e-22
1.3046555e-22
1.1929443e-22
8.9773101e-23
3.9547736e-23
4.3222798e-24
1.0990766e-26
1.7310257e-35
2.2087599e-36
9.2631484e-28
4.4669213e-25
4.4070557e-24
1.0288205e-23
1.3808253e-23
1.515262e-23
1.554797e-23
1.5637214e-23
1.564918e-23
1.564882e-23
1.5636166e-23
1.5546298e-23
1.515047e-23
1.3805899e-23
1.0286224e-23
4.4061426e-24
4.4659532e-25
9.2610036e-28
7.3190075e-37
1.7217568e-37
7.5567891e-29
4.4661067e-26
4.7499428e-25
1.1402396e-24
1.5455941e-24
1.7017812e-24
1.7481597e-24
1.7588964e-24
1.7604818e-24
1.760439e-24
1.7587718e-24
1.7479611e-24
1.7015249e-24
1.545313e-24
1.1400034e-24
4.7488723e-25
4.4650374e-26
7.5548018e-29
2.9982126e-38
1.3092979e-38
5.9725825e-30
4.323951e-27
4.9562254e-26
1.2232773e-25
1.6745389e-25
1.8498709e-25
1.9023647e-25
1.9147617e-25
1.9167215e-25
1.9166726e-25
1.9146187e-25
1.9021365e-25
1.8495756e-25
1.6742143e-25
1.2230053e-25
4.9550126e-26
4.3228102e-27
5.9707927e-30
1.1907436e-39
9.2813959e-40
4.5764665e-31
4.0566704e-28
5.010124e-27
1.2712807e-26
1.7573446e-26
1.9477045e-26
2.0051038e-26
2.0188783e-26
2.0211681e-26
2.0211138e-26
2.0187193e-26
2.0048502e-26
1.9473754e-26
1.7569821e-26
1.270978e-26
5.0087976e-27
4.0554956e-28
4.5749028e-31
4.5876967e-41
6.0122929e-41
3.4019382e-32
3.6905304e-29
4.9099613e-28
1.2806962e-27
1.7876544e-27
1.9877162e-27
2.0484174e-27
2.0631759e-27
2.0657253e-27
2.0656669e-27
2.0630051e-27
2.0481446e-27
1.9873614e-27
1.7872634e-27
1.2803707e-27
4.9085607e-28
3.6893631e-29
3.4006163e-32
1.7157609e-42
3.5385432e-42
2.4548386e-33
3.2577484e-30
4.6679214e-29
1.2514827e-28
1.7638572e-28
1.9675497e-28
2.0296946e-28
2.0449682e-28
2.0476872e-28
2.0476266e-28
2.0447912e-28
2.0294111e-28
1.9671799e-28
1.7634492e-28
1.2511446e-28
4.6664929e-29
3.2566293e-30
2.453759e-33
6.418653e-44
1.9048654e-43
1.7206046e-34
2.792054e-31
4.3077991e-30
1.1869986e-29
1.6891598e-29
1.8902229e-29
1.9518701e-29
1.9671588e-29
1.9699465e-29
1.9698859e-29
1.9669814e-29
1.9515848e-29
1.8898501e-29
1.6887483e-29
1.1866591e-29
4.3063923e-30
2.7910183e-31
1.7197538e-34
2.7690263e-45
)
;

boundaryField
{
    Wall
    {
        type            zeroGradient;
    }
    frontAndBack
    {
        type            empty;
    }
    atmosphere
    {
        type            zeroGradient;
    }
}


// ************************************************************************* //
