/*--------------------------------*- C++ -*----------------------------------*\
| =========                 |                                                 |
| \\      /  F ield         | OpenFOAM: The Open Source CFD Toolbox           |
|  \\    /   O peration     | Version:  3.0.1                                 |
|   \\  /    A nd           | Web:      www.OpenFOAM.org                      |
|    \\/     M anipulation  |                                                 |
\*---------------------------------------------------------------------------*/
FoamFile
{
    version     2.0;
    format      ascii;
    class       volScalarField;
    location    "36";
    object      alpha.gas;
}
// * * * * * * * * * * * * * * * * * * * * * * * * * * * * * * * * * * * * * //

dimensions      [0 0 0 0 0 0 0];

internalField   nonuniform List<scalar> 
800
(
2.0193631e-28
2.2257791e-25
4.258739e-22
8.436229e-22
2.9062031e-23
1.034316e-21
9.2446764e-22
6.775959e-23
7.0152735e-25
3.2385172e-27
3.0184871e-23
2.9139653e-23
1.1952756e-24
6.8372301e-23
6.5802463e-23
1.5144565e-27
6.1869522e-32
2.6739491e-35
5.260203e-39
9.8329978e-43
1.0592996e-12
2.4994458e-13
1.6558663e-11
6.3497166e-12
3.9857241e-13
7.7985096e-12
6.3020706e-12
7.5312599e-12
1.5272334e-11
3.8423787e-11
1.9359822e-11
1.9193293e-11
1.036864e-11
6.1743874e-12
5.7326415e-12
1.109213e-12
1.9068661e-15
1.0595201e-13
3.2464621e-12
4.6169959e-15
9.4104383e-09
8.8726745e-09
8.5601175e-09
8.50623e-09
8.4454116e-09
8.4403253e-09
8.4408825e-09
8.4481304e-09
8.4613423e-09
8.4882708e-09
8.4683959e-09
8.4654473e-09
8.4511168e-09
8.4407882e-09
8.4382269e-09
8.4462191e-09
8.499712e-09
8.5432079e-09
8.875902e-09
9.4095705e-09
1.7752294e-08
1.6917535e-08
1.6504766e-08
1.6356805e-08
1.637346e-08
1.6338856e-08
1.6332678e-08
1.6340135e-08
1.6200523e-08
1.622166e-08
1.6207688e-08
1.6203432e-08
1.634228e-08
1.6332664e-08
1.633745e-08
1.637412e-08
1.6352322e-08
1.6493069e-08
1.6920031e-08
1.7751927e-08
3.4584497e-08
2.9791464e-08
2.7771137e-08
2.7044626e-08
2.6728705e-08
2.6628209e-08
2.6595838e-08
2.6593556e-08
2.6637921e-08
2.6653574e-08
2.6644172e-08
2.6639916e-08
2.6595063e-08
2.6595912e-08
2.6627379e-08
2.6729305e-08
2.7041742e-08
2.7763411e-08
2.9793689e-08
3.458465e-08
7.7211213e-08
6.6794327e-08
6.1887029e-08
6.018381e-08
5.9471523e-08
5.9240046e-08
5.9166931e-08
5.9159782e-08
5.9259456e-08
5.9279981e-08
5.9270612e-08
5.9261525e-08
5.9161423e-08
5.9167177e-08
5.9239451e-08
5.9472452e-08
6.0181223e-08
6.1879652e-08
6.6797466e-08
7.7212117e-08
1.4064475e-07
1.22961e-07
1.1364198e-07
1.1057898e-07
1.09431e-07
1.0902882e-07
1.0890936e-07
1.0890278e-07
1.0896422e-07
1.0899441e-07
1.089842e-07
1.0896657e-07
1.0890475e-07
1.0890985e-07
1.0902847e-07
1.0943241e-07
1.1057654e-07
1.1363452e-07
1.2296546e-07
1.4064664e-07
2.2855348e-07
2.0091725e-07
1.8471413e-07
1.7950964e-07
1.7772101e-07
1.7709219e-07
1.769122e-07
1.7690602e-07
1.7695176e-07
1.7699375e-07
1.7698307e-07
1.7695435e-07
1.7690832e-07
1.7691301e-07
1.7709221e-07
1.7772298e-07
1.7950757e-07
1.8470717e-07
2.009232e-07
2.285566e-07
3.4541644e-07
3.0532671e-07
2.7928942e-07
2.7043052e-07
2.677214e-07
2.6681761e-07
2.6656854e-07
2.6656587e-07
2.6662996e-07
2.666907e-07
2.6667988e-07
2.6663276e-07
2.6656852e-07
2.6656977e-07
2.6681816e-07
2.6772407e-07
2.7042911e-07
2.7928359e-07
3.0533438e-07
3.4542112e-07
4.9569604e-07
4.4318901e-07
4.0189353e-07
3.8643173e-07
3.8260218e-07
3.8135311e-07
3.8098204e-07
3.8099213e-07
3.8111146e-07
3.8119888e-07
3.8118806e-07
3.8111444e-07
3.8099519e-07
3.8098396e-07
3.8135434e-07
3.8260568e-07
3.8643121e-07
4.0188934e-07
4.4319891e-07
4.9570241e-07
6.8651025e-07
6.2167896e-07
5.5167948e-07
5.3017992e-07
5.2575134e-07
5.2397559e-07
5.2352831e-07
5.2372975e-07
5.2399801e-07
5.2391223e-07
5.2390179e-07
5.2400191e-07
5.2373111e-07
5.235297e-07
5.2397617e-07
5.2575558e-07
5.3018039e-07
5.5167688e-07
6.2169177e-07
6.8651841e-07
9.2038403e-07
8.1520696e-07
7.2534255e-07
7.0835014e-07
7.0004942e-07
6.973578e-07
6.9873425e-07
6.9801376e-07
6.9676297e-07
6.961864e-07
6.9617796e-07
6.9675716e-07
6.980181e-07
6.9872795e-07
6.9737309e-07
7.0005443e-07
7.083487e-07
7.2533966e-07
8.1521907e-07
9.2039402e-07
1.1762558e-06
1.0206168e-06
9.658216e-07
9.4551741e-07
8.9934017e-07
8.9533936e-07
8.9596095e-07
8.9461388e-07
8.8743669e-07
8.9561669e-07
8.955807e-07
8.8735134e-07
8.947506e-07
8.9606515e-07
8.9550119e-07
8.9936659e-07
9.4554723e-07
9.6582093e-07
1.0206279e-06
1.1762659e-06
1.4788181e-06
1.4075356e-06
1.4504032e-06
1.1844323e-06
1.1573849e-06
1.1946756e-06
1.0930474e-06
1.1150361e-06
1.1660797e-06
1.2202634e-06
1.2200776e-06
1.1676463e-06
1.114787e-06
1.0931939e-06
1.191339e-06
1.1570832e-06
1.1844456e-06
1.4504347e-06
1.4075912e-06
1.4788338e-06
1.8471703e-06
2.111733e-06
1.9470746e-06
1.4053646e-06
1.5423473e-06
1.834689e-06
2.1576347e-06
1.6717538e-06
2.2653716e-06
1.8805068e-06
1.8819842e-06
2.2602299e-06
1.669079e-06
2.1271411e-06
1.8331402e-06
1.5426111e-06
1.4053499e-06
1.9470462e-06
2.1117677e-06
1.8471866e-06
2.3359727e-06
2.2047565e-06
1.7839262e-06
1.7546391e-06
1.8226828e-06
2.1546941e-06
6.0697775e-06
4.4660672e-06
3.3533913e-06
1.8210447e-06
1.8217258e-06
3.3569081e-06
4.4522893e-06
6.0752822e-06
2.1576864e-06
1.8229073e-06
1.7547176e-06
1.783998e-06
2.2047367e-06
2.3359885e-06
2.8054986e-06
2.2680988e-06
1.872564e-06
2.0891399e-06
2.1918555e-06
2.7284642e-06
6.1290653e-06
6.1296826e-06
2.7815204e-06
1.8169415e-06
1.8176147e-06
2.7870246e-06
6.1485335e-06
6.1479144e-06
2.7314364e-06
2.1920925e-06
2.0891967e-06
1.8725517e-06
2.268104e-06
2.8055256e-06
3.6270273e-06
3.6689451e-06
2.5102635e-06
2.6625964e-06
4.1444639e-06
5.1745535e-06
5.0670921e-06
4.6790674e-06
2.5802858e-06
2.2891949e-06
2.2847779e-06
2.5837459e-06
4.6918247e-06
5.096674e-06
5.1800565e-06
4.1450499e-06
2.6624929e-06
2.5102977e-06
3.6690403e-06
3.6270833e-06
5.5695246e-06
2.113536e-05
8.39664e-06
1.0106534e-05
1.450081e-05
1.3142919e-05
4.0373214e-06
2.6009622e-06
2.5906779e-06
2.9736395e-06
2.973706e-06
2.594088e-06
2.6043342e-06
4.0591763e-06
1.3111354e-05
1.4502811e-05
1.0102142e-05
8.3964156e-06
2.1136043e-05
5.569585e-06
2.4956131e-05
3.3081768e-05
3.1865131e-05
3.2741552e-05
3.1662067e-05
1.887514e-05
6.1607957e-06
2.6110523e-06
2.6008702e-06
3.1160635e-06
3.1176897e-06
2.6042416e-06
2.6143954e-06
6.1406707e-06
1.8880444e-05
3.1664144e-05
3.2740192e-05
3.1865031e-05
3.3081942e-05
2.4956274e-05
3.3081739e-05
3.308155e-05
3.3081698e-05
3.3081551e-05
1.7475135e-05
1.2197492e-05
5.5329902e-06
3.1516874e-06
3.4859479e-06
3.8549319e-06
3.8493453e-06
3.4811367e-06
3.1413741e-06
5.4584533e-06
1.2233683e-05
1.7472417e-05
3.3081726e-05
3.3081872e-05
3.3081725e-05
3.3081913e-05
3.3081693e-05
3.3081867e-05
3.3081551e-05
2.6424956e-05
4.914463e-06
3.8212373e-06
3.2600032e-06
3.2029383e-06
1.2567063e-05
1.2097225e-05
1.2078977e-05
1.255906e-05
3.1912012e-06
3.2457369e-06
3.8051212e-06
4.8945063e-06
2.6435419e-05
3.3081726e-05
3.3082042e-05
3.3081867e-05
3.3081845e-05
3.3081709e-05
3.3081819e-05
7.9344738e-06
3.5058665e-06
3.4274513e-06
3.358089e-06
3.6550708e-06
1.3477427e-05
1.3478486e-05
1.3477428e-05
1.3478486e-05
3.6381125e-06
3.3420529e-06
3.4167117e-06
3.4971115e-06
7.9150176e-06
3.3081993e-05
3.3081884e-05
3.3082019e-05
3.3081821e-05
3.3081968e-05
2.7322458e-05
4.6998742e-06
4.3584217e-06
5.2766345e-06
1.2374111e-05
1.4707796e-05
1.1650138e-05
1.3477423e-05
1.3478481e-05
1.1660047e-05
1.473341e-05
1.2440085e-05
5.2624468e-06
4.3481772e-06
4.70457e-06
2.7324326e-05
3.3082143e-05
3.3081995e-05
3.3081805e-05
3.3081689e-05
1.2557995e-05
6.1062549e-06
1.6581365e-05
1.7986939e-05
1.8736432e-05
1.8735177e-05
1.0792087e-05
1.145119e-05
1.144668e-05
1.0795428e-05
1.8742931e-05
1.8744255e-05
1.7991041e-05
1.6609517e-05
6.1033679e-06
1.2560477e-05
3.3081863e-05
3.308198e-05
3.3081565e-05
3.308179e-05
1.2881224e-05
1.8703379e-05
1.8735263e-05
1.8736403e-05
1.873517e-05
1.8736362e-05
1.1311405e-05
1.0580034e-05
1.0579921e-05
1.127751e-05
1.8744186e-05
1.8742929e-05
1.8744229e-05
1.8743017e-05
1.8707863e-05
1.2877823e-05
3.3081964e-05
3.3081739e-05
2.9688473e-05
2.3048018e-05
1.9426743e-05
1.2207335e-05
1.87364e-05
1.873511e-05
1.8736383e-05
1.873511e-05
1.8736093e-05
1.0579373e-05
1.0579262e-05
1.8743915e-05
1.8742864e-05
1.8744215e-05
1.8742866e-05
1.8744225e-05
1.2219256e-05
1.9423579e-05
2.3045198e-05
2.9690565e-05
1.1449404e-05
1.1244762e-05
1.9400428e-05
1.1242699e-05
1.8735073e-05
1.8736317e-05
1.8735109e-05
1.8736317e-05
1.8734888e-05
1.0580053e-05
1.0580012e-05
1.8742671e-05
1.874414e-05
1.8742864e-05
1.874414e-05
1.8742827e-05
1.1243003e-05
1.9397498e-05
1.1245064e-05
1.1450077e-05
1.124445e-05
1.1243631e-05
1.9226779e-05
1.1241616e-05
1.8734886e-05
1.8735062e-05
1.8736317e-05
1.873489e-05
1.3706758e-05
1.4934715e-05
1.4976942e-05
1.3722838e-05
1.8742684e-05
1.8744141e-05
1.8742817e-05
1.8742619e-05
1.1241919e-05
1.9224049e-05
1.1243934e-05
1.1244753e-05
1.1243496e-05
1.1242689e-05
1.2628901e-05
1.1240674e-05
1.1276916e-05
1.4352686e-05
1.6587315e-05
1.1749457e-05
1.1244987e-05
1.5217869e-05
1.5216504e-05
1.1245295e-05
1.1707296e-05
1.6570688e-05
1.435859e-05
1.1246671e-05
1.1240976e-05
1.2635326e-05
1.1242991e-05
1.1243799e-05
1.1242547e-05
1.1241613e-05
1.1240678e-05
1.1239729e-05
1.1240096e-05
1.1240879e-05
1.1241877e-05
1.1242771e-05
1.1243719e-05
1.4249461e-05
1.4248794e-05
1.1244022e-05
1.1243073e-05
1.1242179e-05
1.1241181e-05
1.1240398e-05
1.1240032e-05
1.124098e-05
1.1241916e-05
1.124285e-05
1.1241602e-05
1.1240662e-05
1.1239726e-05
1.1238795e-05
1.1239117e-05
1.1239841e-05
1.1240806e-05
1.1241791e-05
1.1242774e-05
1.1243768e-05
1.124407e-05
1.1243077e-05
1.1242093e-05
1.1241108e-05
1.1240144e-05
1.1239419e-05
1.1239098e-05
1.1240028e-05
1.1240964e-05
1.1241905e-05
1.1240908e-05
1.1239896e-05
1.1238894e-05
1.1237902e-05
1.1238129e-05
1.1238851e-05
1.1239816e-05
1.1240801e-05
1.1241791e-05
1.1242789e-05
1.1243091e-05
1.1242093e-05
1.1241103e-05
1.1240118e-05
1.1239153e-05
1.1238431e-05
1.1238204e-05
1.1239196e-05
1.1240199e-05
1.1241211e-05
1.1240933e-05
1.1239819e-05
1.1238716e-05
1.1237625e-05
1.1237622e-05
1.1238235e-05
1.1239182e-05
1.1240179e-05
1.1241216e-05
1.1242228e-05
1.1242531e-05
1.1241518e-05
1.1240481e-05
1.1239484e-05
1.1238537e-05
1.1237925e-05
1.1237927e-05
1.1239019e-05
1.1240121e-05
1.1241235e-05
1.7308892e-05
1.1240514e-05
1.1239321e-05
1.1238135e-05
1.12379e-05
1.1238385e-05
1.1239284e-05
1.1240278e-05
1.1241331e-05
1.1242353e-05
1.1242655e-05
1.1241633e-05
1.124058e-05
1.1239586e-05
1.1238688e-05
1.1238202e-05
1.1238437e-05
1.1239623e-05
1.1240816e-05
1.7306383e-05
0.00018890671
3.3108637e-05
1.1240491e-05
1.1239264e-05
1.1238905e-05
1.1239312e-05
1.1240177e-05
1.1241145e-05
1.1242192e-05
1.1243212e-05
1.1243514e-05
1.1242494e-05
1.1241447e-05
1.1240479e-05
1.1239615e-05
1.1239208e-05
1.1239566e-05
1.1240793e-05
3.3101679e-05
0.00018885379
0.0040143436
0.00046448581
6.0423181e-05
2.7213368e-05
2.0430626e-05
1.8172106e-05
1.7327663e-05
1.696251e-05
1.674771e-05
1.6654164e-05
1.6654275e-05
1.6747729e-05
1.6962394e-05
1.7327457e-05
1.817173e-05
2.0429927e-05
2.7211671e-05
6.0415401e-05
0.00046437588
0.004012839
0.15727735
0.0090930179
0.0011111957
0.00044083967
0.00029165132
0.00023999674
0.00022150823
0.0002128796
0.00020777162
0.0002054631
0.00020546211
0.00020776854
0.00021287374
0.0002215005
0.00023998538
0.00029163241
0.0004407987
0.0011110279
0.009090721
0.15722626
0.77307998
0.24862541
0.047899372
0.019059843
0.011717549
0.0091475917
0.0081271458
0.0076012131
0.007301642
0.007166092
0.0071660389
0.0073014808
0.007600917
0.0081267497
0.0091470151
0.011716539
0.019057687
0.047891796
0.2485894
0.77303518
0.98888394
0.86350022
0.67166754
0.55668462
0.5006214
0.47411721
0.46166906
0.45474656
0.45062026
0.44871911
0.44871838
0.45061804
0.45474257
0.46166391
0.47411022
0.50061193
0.55667109
0.67164826
0.86348217
0.98887984
)
;

boundaryField
{
    Wall
    {
        type            zeroGradient;
    }
    frontAndBack
    {
        type            empty;
    }
    atmosphere
    {
        type            zeroGradient;
    }
}


// ************************************************************************* //
