/*--------------------------------*- C++ -*----------------------------------*\
| =========                 |                                                 |
| \\      /  F ield         | OpenFOAM: The Open Source CFD Toolbox           |
|  \\    /   O peration     | Version:  3.0.1                                 |
|   \\  /    A nd           | Web:      www.OpenFOAM.org                      |
|    \\/     M anipulation  |                                                 |
\*---------------------------------------------------------------------------*/
FoamFile
{
    version     2.0;
    format      ascii;
    class       volScalarField;
    location    "36";
    object      g1_BA;
}
// * * * * * * * * * * * * * * * * * * * * * * * * * * * * * * * * * * * * * //

dimensions      [0 0 0 0 0 0 0];

internalField   nonuniform List<scalar> 
800
(
0.49299307
0.49296599
0.49296195
0.49296161
0.49296166
0.49296168
0.49296163
0.49296156
0.4929615
0.49296147
0.49296147
0.4929615
0.49296156
0.49296162
0.49296168
0.49296166
0.4929616
0.49296195
0.49296599
0.49299306
0.49819981
0.49790339
0.49781692
0.49778387
0.49776971
0.4977631
0.49775982
0.49775813
0.49775726
0.4977569
0.4977569
0.49775726
0.49775813
0.49775983
0.4977631
0.49776972
0.49778388
0.49781693
0.49790341
0.49819984
0.50112362
0.50077194
0.50067823
0.50065111
0.50064216
0.50063846
0.50063634
0.50063489
0.50063392
0.50063343
0.50063343
0.50063392
0.50063489
0.50063634
0.50063846
0.50064217
0.50065111
0.50067824
0.50077195
0.50112364
0.49998108
0.49971948
0.49967148
0.49967021
0.49967386
0.49967541
0.49967494
0.49967362
0.49967233
0.49967159
0.49967159
0.49967233
0.49967361
0.49967493
0.4996754
0.49967385
0.49967019
0.49967147
0.49971947
0.49998107
0.4955289
0.49548933
0.49552955
0.49557029
0.49559319
0.49560252
0.4956045
0.49560345
0.49560178
0.49560072
0.49560072
0.49560178
0.49560344
0.49560448
0.4956025
0.49559316
0.49557026
0.49552951
0.49548929
0.49552885
0.4882693
0.48856103
0.48872334
0.48881903
0.48886662
0.48888593
0.48889121
0.48889075
0.48888876
0.48888738
0.48888737
0.48888874
0.48889072
0.48889118
0.48888589
0.48886657
0.48881897
0.48872326
0.48856095
0.4882692
0.47859671
0.47930738
0.47961786
0.47977793
0.4798539
0.47988469
0.4798939
0.47989425
0.47989203
0.47989036
0.47989035
0.47989201
0.47989422
0.47989385
0.47988463
0.47985382
0.47977785
0.47961776
0.47930726
0.47859657
0.46687943
0.4680744
0.46855191
0.46878265
0.46888901
0.46893204
0.46894551
0.46894683
0.46894445
0.46894252
0.46894251
0.46894442
0.46894679
0.46894544
0.46893196
0.46888891
0.46878254
0.46855178
0.46807425
0.46687925
0.45349002
0.45524488
0.45589833
0.45620188
0.45633806
0.45639259
0.45640983
0.45641184
0.45640914
0.45640688
0.45640687
0.45640911
0.45641179
0.45640976
0.4563925
0.45633794
0.45620174
0.45589817
0.4552447
0.4534898
0.43848041
0.44084315
0.4417084
0.44209207
0.44226179
0.44232968
0.44235161
0.44235478
0.44235198
0.44234949
0.44234948
0.44235194
0.44235471
0.44235151
0.44232956
0.44226165
0.44209191
0.44170822
0.44084295
0.43848017
0.42200146
0.42505988
0.42615698
0.42662093
0.42682164
0.42690152
0.42692766
0.4269317
0.42692859
0.42692576
0.42692575
0.42692854
0.42693163
0.42692756
0.42690139
0.42682149
0.42662075
0.42615678
0.42505965
0.4220012
0.40578722
0.40789875
0.40926037
0.40980617
0.41003291
0.41012256
0.41015345
0.41015879
0.41015552
0.41015245
0.41015243
0.41015547
0.41015871
0.41015334
0.41012242
0.41003274
0.40980597
0.40926015
0.40789851
0.40578695
0.38844713
0.39263935
0.39410372
0.39470568
0.39495527
0.39505126
0.39508102
0.39508483
0.39508031
0.39507652
0.3950765
0.39508026
0.39508475
0.3950809
0.39505112
0.3949551
0.39470548
0.3941035
0.39263911
0.38844687
0.37079548
0.37556336
0.37724045
0.37791178
0.37818319
0.37828568
0.37831719
0.3783208
0.37831547
0.3783111
0.37831108
0.37831542
0.37832072
0.37831708
0.37828554
0.37818302
0.37791159
0.37724024
0.37556314
0.37079523
0.35301807
0.35835946
0.36024977
0.36098881
0.36127982
0.36138738
0.36142028
0.36142347
0.36141728
0.36141229
0.36141227
0.36141723
0.36142338
0.36142015
0.36138722
0.36127963
0.3609886
0.36024954
0.35835922
0.35301781
0.33533421
0.34124433
0.3433492
0.34415484
0.34446349
0.3445745
0.34460763
0.34460983
0.3446025
0.34459675
0.34459673
0.34460245
0.34460975
0.34460752
0.34457436
0.34446333
0.34415465
0.34334899
0.34124412
0.33533398
0.3178516
0.32431735
0.32664098
0.32751549
0.32784218
0.32795626
0.32798871
0.32798971
0.32798128
0.32797478
0.32797476
0.32798122
0.32798962
0.32798859
0.32795612
0.32784202
0.3275153
0.32664078
0.32431714
0.31785137
0.30068063
0.30769174
0.31024063
0.31118721
0.31153257
0.31164872
0.31167888
0.31167803
0.31166831
0.31166095
0.31166093
0.31166826
0.31167795
0.31167877
0.31164859
0.31153242
0.31118704
0.31024045
0.30769155
0.30068042
0.28388649
0.29143357
0.29421709
0.29524165
0.29560764
0.29572507
0.2957514
0.29574792
0.29573669
0.29572832
0.2957283
0.29573663
0.29574784
0.29575129
0.29572494
0.29560749
0.29524148
0.29421691
0.29143338
0.2838863
0.26755744
0.27563585
0.27866948
0.27978127
0.28017108
0.28028925
0.28031035
0.28030334
0.28029039
0.28028084
0.28028082
0.28029035
0.28030327
0.28031026
0.28028914
0.28017096
0.27978114
0.27866934
0.27563571
0.26755729
0.25168517
0.2602855
0.26358925
0.26480121
0.26521957
0.26533833
0.26535272
0.26534078
0.26532564
0.26531453
0.26531451
0.26532559
0.26534071
0.26535262
0.26533822
0.26521944
0.26480108
0.2635891
0.26028536
0.25168502
0.23628156
0.24540474
0.24900315
0.25033108
0.25078384
0.25090344
0.25090968
0.2508913
0.25087349
0.25086047
0.25086046
0.25087345
0.25089124
0.25090961
0.25090335
0.25078375
0.25033098
0.24900304
0.24540463
0.23628145
0.22138093
0.23102682
0.23495254
0.23641916
0.23691586
0.23703802
0.23703494
0.23700832
0.23698708
0.23697167
0.23697166
0.23698704
0.23700826
0.23703487
0.23703793
0.23691577
0.23641907
0.23495244
0.23102673
0.22138085
0.20690559
0.21708282
0.22137025
0.22300032
0.22355259
0.22367981
0.22366626
0.22362939
0.22360368
0.22358533
0.22358532
0.22360365
0.22362934
0.2236662
0.22367974
0.22355252
0.22300025
0.22137018
0.21708276
0.20690553
0.19285543
0.20357193
0.20826688
0.21009431
0.21071726
0.21085343
0.21082814
0.21077836
0.21074646
0.2107243
0.21072429
0.21074643
0.21077831
0.21082809
0.21085337
0.2107172
0.21009426
0.20826683
0.2035719
0.19285541
0.17918928
0.19046095
0.19561345
0.19767719
0.1983915
0.19854341
0.1985063
0.19844132
0.19840147
0.19837467
0.19837466
0.19840145
0.19844128
0.19850626
0.19854337
0.19839146
0.19767716
0.19561342
0.19046095
0.17918929
0.16581671
0.17766181
0.1833263
0.18567102
0.1865016
0.18667811
0.18662942
0.18654646
0.18649616
0.18646343
0.18646342
0.18649614
0.18654643
0.18662939
0.18667808
0.18650158
0.18567101
0.18332629
0.17766183
0.16581676
0.15272338
0.16516314
0.17140271
0.17408174
0.17505991
0.17527309
0.17521381
0.17510972
0.17504576
0.17500541
0.1750054
0.17504574
0.17510969
0.17521379
0.17527307
0.1750599
0.17408175
0.17140274
0.1651632
0.15272347
0.13980642
0.15286357
0.15974905
0.16282449
0.16399021
0.16425763
0.16419137
0.16406376
0.16398295
0.16393312
0.16393312
0.16398294
0.16406374
0.16419136
0.16425762
0.16399021
0.16282451
0.1597491
0.15286367
0.13980656
0.12699587
0.14069437
0.14829951
0.15184253
0.15324315
0.15358705
0.15351891
0.15336484
0.15326286
0.15320086
0.15320086
0.15326285
0.15336482
0.1535189
0.15358706
0.15324317
0.15184258
0.14829959
0.14069452
0.12699607
0.11420877
0.12856702
0.13697301
0.14106681
0.14276138
0.14321271
0.14315224
0.14297009
0.14284234
0.14276504
0.14276504
0.14284233
0.14297007
0.14315224
0.14321273
0.14276141
0.14106688
0.13697313
0.12856723
0.11420903
0.10136051
0.11638038
0.12566996
0.13040914
0.13247011
0.13307018
0.13303239
0.13282244
0.13266381
0.13256733
0.13256733
0.1326638
0.13282243
0.13303239
0.1330702
0.13247016
0.13040924
0.12567012
0.11638065
0.10136085
0.088381033
0.10403326
0.11428266
0.11977134
0.1222881
0.12309305
0.12310123
0.12286595
0.12267089
0.12255053
0.12255052
0.12267088
0.12286594
0.12310124
0.12309308
0.12228816
0.11977146
0.11428287
0.10403362
0.088381467
0.075229163
0.091430279
0.10269049
0.10904071
0.11212496
0.11321248
0.11330096
0.11304518
0.11280814
0.1126582
0.11265819
0.11280814
0.11304518
0.11330097
0.11321252
0.11212504
0.10904085
0.10269074
0.091430728
0.075229708
0.061921714
0.078489738
0.090759555
0.098092597
0.10187732
0.10335184
0.10357069
0.10330547
0.10302134
0.10283489
0.10283489
0.10302134
0.10330547
0.10357071
0.10335189
0.10187741
0.098092767
0.090759863
0.078490284
0.061922391
0.048564123
0.065151852
0.07836096
0.086782837
0.091432331
0.093424118
0.093849063
0.093602519
0.093267647
0.093036227
0.093036223
0.093267648
0.093602524
0.09384909
0.093424172
0.091432434
0.086783036
0.078361319
0.065152477
0.04856494
0.035320111
0.051440778
0.065384115
0.074954214
0.080652802
0.083342285
0.084088624
0.083895494
0.083510172
0.083223724
0.083223721
0.083510176
0.083895506
0.084088659
0.08334235
0.080652924
0.074954445
0.065384527
0.05144148
0.035321064
0.022592042
0.03736202
0.051743651
0.062459228
0.069401473
0.073009006
0.074241719
0.074174375
0.073744935
0.073391443
0.073391442
0.073744944
0.074174396
0.074241764
0.073009087
0.069401622
0.062459501
0.051744121
0.0373628
0.022593015
0
0.023541661
0.037430697
0.049056837
0.057362537
0.062139274
0.064070125
0.064250614
0.063796457
0.06336302
0.063363022
0.063796473
0.064250647
0.064070182
0.062139376
0.057362723
0.049057156
0.037431211
0.023542438
0
0
0
0
0
0
0.046376543
0.048666303
0.048958319
0.04842475
0.047882412
0.047882403
0.048424734
0.048958294
0.048666281
0.046376549
0
0
0
0
0
)
;

boundaryField
{
    Wall
    {
        type            zeroGradient;
    }
    frontAndBack
    {
        type            empty;
    }
    atmosphere
    {
        type            zeroGradient;
    }
}


// ************************************************************************* //
