/*--------------------------------*- C++ -*----------------------------------*\
| =========                 |                                                 |
| \\      /  F ield         | OpenFOAM: The Open Source CFD Toolbox           |
|  \\    /   O peration     | Version:  3.0.1                                 |
|   \\  /    A nd           | Web:      www.OpenFOAM.org                      |
|    \\/     M anipulation  |                                                 |
\*---------------------------------------------------------------------------*/
FoamFile
{
    version     2.0;
    format      ascii;
    class       volScalarField;
    location    "36";
    object      g1_CO2;
}
// * * * * * * * * * * * * * * * * * * * * * * * * * * * * * * * * * * * * * //

dimensions      [0 0 0 0 0 0 0];

internalField   nonuniform List<scalar> 
800
(
0.44363151
0.44366437
0.44368205
0.44368685
0.4436881
0.4436885
0.44368868
0.44368881
0.44368891
0.44368896
0.44368896
0.44368891
0.44368881
0.44368868
0.44368849
0.4436881
0.44368685
0.44368205
0.44366437
0.44363151
0.45856025
0.45811395
0.45804253
0.45802794
0.45802602
0.45802605
0.45802581
0.4580252
0.45802458
0.45802421
0.45802421
0.45802458
0.45802521
0.45802581
0.45802605
0.45802603
0.45802795
0.45804254
0.45811396
0.45856028
0.47318212
0.47251538
0.47238574
0.47236784
0.47237008
0.47237339
0.47237457
0.47237419
0.47237333
0.47237271
0.47237271
0.47237333
0.47237419
0.47237457
0.47237339
0.47237009
0.47236785
0.47238574
0.47251539
0.47318214
0.48676241
0.48584184
0.4856568
0.48563224
0.48563444
0.4856383
0.48563942
0.48563868
0.48563741
0.48563654
0.48563654
0.48563741
0.48563868
0.48563942
0.4856383
0.48563445
0.48563224
0.4856568
0.48584184
0.48676242
0.50002796
0.49881698
0.4985697
0.49853482
0.49853543
0.49853925
0.49854008
0.49853899
0.49853737
0.4985363
0.4985363
0.49853737
0.49853899
0.49854008
0.49853926
0.49853543
0.49853482
0.4985697
0.49881697
0.50002795
0.51323455
0.51169426
0.51136866
0.51131625
0.51131337
0.51131676
0.51131731
0.51131608
0.51131429
0.51131314
0.51131314
0.51131429
0.51131608
0.51131731
0.51131677
0.51131338
0.51131625
0.51136866
0.51169425
0.51323453
0.52662453
0.52469312
0.52426503
0.52418304
0.5241728
0.5241745
0.52417442
0.5241731
0.52417126
0.52417012
0.52417012
0.52417126
0.52417311
0.52417443
0.52417451
0.52417281
0.52418305
0.52426503
0.52469311
0.52662449
0.54053061
0.53810774
0.53754364
0.53741577
0.53739243
0.53739011
0.53738847
0.53738681
0.53738487
0.53738377
0.53738377
0.53738488
0.53738682
0.53738849
0.53739012
0.53739244
0.53741578
0.53754364
0.53810773
0.54053057
0.5554406
0.55240591
0.55165139
0.55145425
0.55140739
0.55139603
0.55139026
0.55138698
0.55138433
0.55138303
0.55138303
0.55138435
0.55138699
0.55139029
0.55139605
0.55140741
0.55145426
0.5516514
0.55240591
0.55544056
0.57157382
0.56775991
0.56678492
0.56650112
0.56642504
0.56640275
0.56639198
0.56638674
0.56638334
0.56638185
0.56638186
0.56638336
0.56638676
0.56639201
0.56640278
0.56642508
0.56650115
0.56678493
0.56775991
0.5715738
0.5892848
0.58455951
0.58329985
0.58290006
0.58277824
0.58273673
0.58271664
0.58270697
0.58270155
0.58269931
0.58269932
0.58270158
0.58270701
0.58271668
0.58273677
0.58277829
0.5829001
0.58329989
0.58455952
0.58928479
0.61066598
0.60293519
0.60134145
0.60080054
0.60061389
0.60054387
0.60051159
0.60049611
0.60048821
0.60048502
0.60048503
0.60048824
0.60049616
0.60051165
0.60054392
0.60061395
0.6008006
0.6013415
0.60293521
0.61066599
0.63410599
0.62682396
0.62458367
0.62383455
0.62355441
0.62343933
0.62338349
0.62335655
0.623344
0.62333896
0.62333897
0.62334404
0.62335661
0.62338357
0.62343942
0.6235545
0.62383464
0.62458375
0.62682403
0.63410604
0.66087862
0.6516324
0.648794
0.64782293
0.64741882
0.64724251
0.64716216
0.64712174
0.6471027
0.64709531
0.64709532
0.64710275
0.64712181
0.64716226
0.64724262
0.64741893
0.64782304
0.64879411
0.6516325
0.66087869
0.69150455
0.68010163
0.67652197
0.67528402
0.6747171
0.67445908
0.6743465
0.67428683
0.6742562
0.67424538
0.6742454
0.67425625
0.67428691
0.6743466
0.67445918
0.6747172
0.67528413
0.67652208
0.68010172
0.69150464
0.72669068
0.71289901
0.70842264
0.70686506
0.70609263
0.70573096
0.70557228
0.70548501
0.70543343
0.70541718
0.70541721
0.7054335
0.70548514
0.70557244
0.70573114
0.70609283
0.70686528
0.70842287
0.71289923
0.72669093
0.76663298
0.7502332
0.74471113
0.74278679
0.74177629
0.7412944
0.74107442
0.74095248
0.740868
0.74084392
0.74084395
0.74086807
0.74095259
0.74107457
0.74129456
0.74177646
0.74278698
0.74471133
0.7502334
0.7666332
0.81154563
0.79236415
0.78565696
0.7833133
0.78203304
0.78141124
0.7811095
0.78094358
0.78080894
0.78077292
0.78077295
0.78080902
0.7809437
0.78110966
0.78141142
0.78203324
0.78331352
0.78565719
0.7923644
0.81154591
0.86167842
0.8395688
0.83154579
0.82872715
0.8271464
0.8263631
0.82595573
0.8257347
0.8255271
0.8254739
0.82547393
0.82552717
0.82573481
0.82595587
0.82636327
0.82714658
0.82872736
0.83154601
0.83956902
0.86167869
0.91758247
0.89241421
0.88295636
0.87960595
0.87769237
0.87672146
0.87618055
0.875892
0.87558361
0.87550783
0.87550786
0.8755837
0.87589216
0.87618075
0.87672173
0.87769267
0.87960629
0.88295672
0.89241459
0.91758291
0.9793291
0.95101462
0.94001583
0.93608541
0.93380725
0.93261504
0.93190667
0.93153544
0.93109266
0.93098963
0.93098966
0.93109273
0.93153555
0.93190682
0.93261523
0.93380746
0.93608566
0.94001608
0.95101489
0.97932939
1.047315
1.0158454
1.0032143
0.99865895
0.99597378
0.99451397
0.99359726
0.99312596
0.99251003
0.99237796
0.99237799
0.99251011
0.9931261
0.99359745
0.99451419
0.99597404
0.99865925
1.0032146
1.0158457
1.0473153
1.1224184
1.0877681
1.0734317
1.0682252
1.0650875
1.063303
1.0621285
1.0615364
1.0607033
1.0605426
1.0605426
1.0607033
1.0615365
1.0621287
1.0633032
1.0650876
1.0682254
1.073432
1.0877683
1.1224185
1.2048128
1.1670922
1.1509962
1.1451042
1.1414659
1.13928
1.1377833
1.1370458
1.1359543
1.1357675
1.1357675
1.1359543
1.1370459
1.1377834
1.1392802
1.141466
1.1451044
1.1509964
1.1670923
1.2048128
1.2955613
1.2548794
1.2370291
1.2304396
1.226258
1.2235694
1.2216657
1.2207514
1.2193636
1.2191533
1.2191533
1.2193636
1.2207514
1.2216657
1.2235695
1.2262581
1.2304397
1.2370291
1.2548794
1.2955612
1.3956452
1.3522253
1.3326416
1.3253494
1.3205942
1.3172857
1.3148799
1.3137584
1.3120474
1.3118196
1.3118196
1.3120473
1.3137584
1.3148798
1.3172856
1.3205941
1.3253493
1.3326415
1.352225
1.3956448
1.5057358
1.460019
1.4387776
1.4308442
1.4254937
1.4214344
1.418423
1.4170607
1.4150108
1.4147741
1.4147741
1.4150107
1.4170606
1.4184229
1.4214342
1.4254935
1.430844
1.4387772
1.4600184
1.505735
1.6271019
1.5798279
1.5570579
1.5486445
1.5426565
1.5376963
1.5339691
1.5323208
1.5299269
1.5296873
1.5296873
1.5299268
1.5323206
1.5339689
1.537696
1.5426561
1.5486441
1.5570573
1.579827
1.6271008
1.7603146
1.712833
1.6889277
1.6804031
1.6737755
1.6678134
1.6633026
1.661336
1.6586219
1.6583862
1.6583862
1.6586217
1.6613357
1.6633023
1.667813
1.6737749
1.6804024
1.6889268
1.7128317
1.7603131
1.9056561
1.8602724
1.8360998
1.8280962
1.8209146
1.81389
1.8085433
1.8062127
1.8032072
1.8029751
1.802975
1.8032069
1.8062123
1.8085428
1.8138894
1.8209139
1.8280953
1.8360986
1.8602707
1.9056543
2.0617494
2.02248
1.9999329
1.9935656
1.9862764
1.9782777
1.9719932
1.969218
1.9659531
1.9657244
1.9657243
1.9659529
1.9692175
1.9719926
1.9782769
1.9862754
1.9935644
1.9999314
2.022478
2.0617477
2.2232966
2.197245
2.1804461
2.1777317
2.1713436
2.1628532
2.1554558
2.1518533
2.1483462
2.1481132
2.1481131
2.1483458
2.1518528
2.1554551
2.1628522
2.1713425
2.1777303
2.1804443
2.1972431
2.2232958
2.3756587
2.3773014
2.374533
2.3793271
2.3755783
2.3679024
2.359321
2.3537642
2.350012
2.3497562
2.3497561
2.3500117
2.3537636
2.3593203
2.3679014
2.3755771
2.3793257
2.3745315
2.3773005
2.3756606
2.487913
2.544156
2.5715115
2.5914376
2.5933965
2.5891561
2.5790415
2.570298
2.5663122
2.5660107
2.5660106
2.5663119
2.5702975
2.5790409
2.5891554
2.5933957
2.5914368
2.5715112
2.5441583
2.4879213
2.506232
2.6570309
2.7444871
2.7942158
2.8080456
2.8100366
2.7992028
2.7875108
2.7833839
2.7830234
2.7830234
2.7833838
2.7875106
2.7992027
2.8100366
2.8080458
2.7942167
2.74449
2.6570404
2.5062526
2.349784
2.64311
2.8375317
2.9382666
2.9805763
2.9917189
2.9844981
2.9726847
2.9687034
2.9682849
2.9682849
2.9687037
2.9726853
2.9844991
2.9917204
2.9805787
2.938271
2.8375406
2.6431313
2.3498212
1.9834251
2.4315928
2.7609178
2.9382936
3.02837
3.0641344
3.0687972
3.0538335
3.0505909
3.0500818
3.0500822
3.050592
3.0538356
3.0688002
3.0641387
3.0283763
2.9383037
2.7609355
2.4316267
1.9834688
1.4732199
2.017533
2.4454535
2.7094639
2.8595227
2.9250658
2.950171
2.9465225
2.9451783
2.9444607
2.9444614
2.9451804
2.9465263
2.9501762
2.9250731
2.8595332
2.7094796
2.4454778
2.0175682
1.4732609
0
1.4382295
1.9367639
2.2521895
2.4472739
2.5653347
2.6109941
2.6119726
2.6111221
2.6090051
2.6090058
2.6111242
2.6119763
2.6109992
2.5653418
2.4472838
2.2522042
1.9367856
1.4382614
0
0
0
0
0
0
1.8134381
1.8632711
1.878886
1.8739321
1.8680658
1.8680661
1.873933
1.8788875
1.8632731
1.8134414
0
0
0
0
0
)
;

boundaryField
{
    Wall
    {
        type            zeroGradient;
    }
    frontAndBack
    {
        type            empty;
    }
    atmosphere
    {
        type            zeroGradient;
    }
}


// ************************************************************************* //
