/*--------------------------------*- C++ -*----------------------------------*\
| =========                 |                                                 |
| \\      /  F ield         | OpenFOAM: The Open Source CFD Toolbox           |
|  \\    /   O peration     | Version:  3.0.1                                 |
|   \\  /    A nd           | Web:      www.OpenFOAM.org                      |
|    \\/     M anipulation  |                                                 |
\*---------------------------------------------------------------------------*/
FoamFile
{
    version     2.0;
    format      ascii;
    class       volScalarField;
    location    "36";
    object      M1;
}
// * * * * * * * * * * * * * * * * * * * * * * * * * * * * * * * * * * * * * //

dimensions      [0 0 0 0 0 0 0];

internalField   nonuniform List<scalar> 
800
(
0.95639459
0.95639801
0.9563982
0.95639802
0.95639788
0.95639781
0.95639777
0.95639775
0.95639774
0.95639774
0.95639774
0.95639774
0.95639775
0.95639777
0.95639781
0.95639788
0.95639802
0.9563982
0.95639801
0.95639459
0.95636041
0.95637701
0.95638138
0.95638253
0.95638274
0.95638268
0.95638258
0.9563825
0.95638245
0.95638242
0.95638242
0.95638245
0.9563825
0.95638258
0.95638268
0.95638274
0.95638253
0.95638137
0.95637701
0.95636041
0.95620967
0.95624007
0.95625088
0.95625413
0.95625497
0.95625504
0.95625492
0.95625479
0.9562547
0.95625465
0.95625465
0.9562547
0.95625479
0.95625492
0.95625504
0.95625497
0.95625413
0.95625088
0.95624006
0.95620966
0.95600549
0.95604864
0.95606634
0.95607186
0.9560734
0.95607366
0.95607354
0.95607337
0.95607325
0.95607318
0.95607318
0.95607324
0.95607337
0.95607354
0.95607366
0.9560734
0.95607185
0.95606634
0.95604864
0.95600549
0.95578067
0.95583486
0.95585908
0.95586679
0.95586901
0.95586944
0.95586934
0.95586914
0.95586899
0.95586891
0.95586891
0.95586899
0.95586914
0.95586934
0.95586944
0.95586901
0.95586679
0.95585908
0.95583486
0.95578066
0.95555645
0.95561917
0.95564911
0.95565879
0.95566153
0.95566206
0.95566195
0.95566172
0.95566154
0.95566145
0.95566145
0.95566154
0.95566172
0.95566195
0.95566206
0.95566152
0.95565878
0.9556491
0.95561916
0.95555644
0.95535031
0.9554184
0.95545287
0.95546415
0.95546717
0.9554677
0.95546752
0.95546724
0.95546702
0.95546691
0.95546691
0.95546702
0.95546724
0.95546752
0.9554677
0.95546717
0.95546415
0.95545287
0.95541839
0.9553503
0.95517694
0.95524696
0.95528443
0.95529683
0.95529984
0.95530021
0.95529988
0.95529951
0.95529923
0.9552991
0.9552991
0.95529923
0.95529951
0.95529988
0.9553002
0.95529983
0.95529683
0.95528443
0.95524695
0.95517693
0.95504644
0.95511538
0.95515411
0.95516713
0.95516984
0.9551699
0.95516937
0.95516886
0.95516851
0.95516835
0.95516835
0.95516851
0.95516886
0.95516937
0.9551699
0.95516984
0.95516712
0.95515411
0.95511537
0.95504643
0.95496436
0.9550298
0.95506789
0.95508096
0.95508311
0.95508271
0.95508186
0.95508117
0.95508072
0.95508051
0.95508051
0.95508072
0.95508117
0.95508186
0.95508271
0.95508311
0.95508095
0.95506789
0.9550298
0.95496435
0.95493265
0.95499327
0.95502894
0.95504155
0.95504297
0.95504199
0.95504076
0.95503984
0.95503927
0.955039
0.955039
0.95503926
0.95503984
0.95504075
0.95504199
0.95504296
0.95504154
0.95502893
0.95499327
0.95493264
0.95496455
0.95500511
0.95503674
0.95504842
0.95504897
0.95504734
0.95504564
0.95504445
0.95504374
0.95504341
0.95504341
0.95504374
0.95504445
0.95504564
0.95504734
0.95504897
0.95504842
0.95503674
0.95500511
0.95496454
0.95505535
0.955094
0.95511838
0.95512837
0.95512807
0.95512577
0.95512345
0.9551219
0.95512101
0.9551206
0.9551206
0.95512101
0.9551219
0.95512345
0.95512577
0.95512807
0.95512836
0.95511838
0.95509399
0.95505535
0.95520334
0.95524062
0.95525669
0.95526459
0.95526372
0.95526093
0.95525786
0.95525588
0.95525478
0.95525426
0.95525426
0.95525478
0.95525588
0.95525786
0.95526093
0.95526372
0.95526458
0.95525669
0.95524062
0.95520333
0.95540252
0.95543993
0.95544767
0.95545317
0.95545209
0.95544901
0.95544503
0.95544254
0.9554412
0.95544057
0.95544057
0.9554412
0.95544254
0.95544503
0.95544901
0.95545208
0.95545317
0.95544767
0.95543993
0.95540252
0.95564536
0.95568621
0.95568673
0.95568964
0.95568875
0.95568554
0.9556805
0.9556774
0.95567577
0.95567502
0.95567502
0.95567577
0.9556774
0.9556805
0.95568554
0.95568875
0.95568964
0.95568673
0.95568621
0.95564536
0.95592417
0.95597345
0.955969
0.95596939
0.9559691
0.95596583
0.95595953
0.95595569
0.95595366
0.95595286
0.95595286
0.95595366
0.95595569
0.95595953
0.95596583
0.9559691
0.95596939
0.955969
0.95597345
0.95592417
0.95623086
0.95629495
0.95628887
0.9562872
0.95628798
0.95628461
0.95627673
0.95627201
0.95626943
0.95626871
0.95626871
0.95626943
0.95627201
0.95627673
0.95628461
0.95628798
0.9562872
0.95628887
0.95629495
0.95623086
0.95655651
0.95664323
0.95663979
0.9566371
0.95663954
0.95663585
0.95662591
0.95662013
0.95661678
0.9566164
0.9566164
0.95661678
0.95662013
0.95662591
0.95663585
0.95663954
0.9566371
0.95663979
0.95664323
0.95655651
0.95689048
0.95700922
0.95701354
0.9570116
0.95701646
0.95701206
0.95699945
0.95699244
0.95698798
0.9569883
0.9569883
0.95698798
0.95699243
0.95699945
0.95701206
0.95701646
0.9570116
0.95701354
0.95700922
0.95689048
0.95722069
0.95738242
0.9574004
0.95740165
0.95740989
0.95740421
0.95738826
0.95737984
0.95737385
0.9573753
0.9573753
0.95737385
0.95737984
0.95738825
0.95740421
0.95740989
0.95740165
0.9574004
0.95738242
0.95722069
0.95753489
0.95775214
0.95779042
0.95779798
0.95781069
0.95780313
0.95778322
0.95777324
0.95776526
0.9577683
0.9577683
0.95776526
0.95777324
0.95778322
0.95780313
0.95781069
0.95779798
0.95779042
0.95775214
0.95753489
0.95782001
0.95810709
0.95817324
0.95819078
0.9582092
0.95819921
0.95817486
0.95816319
0.95815281
0.95815784
0.95815784
0.95815281
0.95816319
0.95817486
0.95819921
0.9582092
0.95819078
0.95817324
0.95810709
0.95782001
0.95806204
0.95843506
0.95853778
0.9585694
0.95859508
0.95858222
0.95855311
0.95853961
0.95852666
0.95853398
0.95853398
0.95852666
0.95853961
0.95855311
0.95858222
0.95859508
0.9585694
0.95853778
0.95843506
0.95806204
0.95824596
0.95872345
0.95887306
0.95892338
0.95895834
0.95894237
0.95890825
0.9588928
0.95887743
0.95888718
0.95888718
0.95887743
0.9588928
0.95890825
0.95894236
0.95895834
0.95892338
0.95887306
0.95872345
0.95824596
0.95835359
0.95895763
0.95916644
0.95924092
0.95928778
0.95926875
0.95922944
0.95921191
0.95919463
0.95920682
0.95920682
0.95919463
0.9592119
0.95922944
0.95926874
0.95928778
0.95924092
0.95916644
0.95895763
0.95835359
0.95836262
0.95912032
0.95940328
0.95950881
0.95957074
0.95954921
0.95950467
0.9594849
0.95946652
0.959481
0.959481
0.95946652
0.9594849
0.95950466
0.95954921
0.95957073
0.95950881
0.95940328
0.95912032
0.95836262
0.95824356
0.9591901
0.95956594
0.95971175
0.95979259
0.95976992
0.95972038
0.95969821
0.95967968
0.95969618
0.95969618
0.95967968
0.9596982
0.95972038
0.95976992
0.95979258
0.95971175
0.95956594
0.95919011
0.95824357
0.95795587
0.95913825
0.95963147
0.95983004
0.95993455
0.95991329
0.95985945
0.95983465
0.95981695
0.9598351
0.9598351
0.95981694
0.95983465
0.95985944
0.95991329
0.95993455
0.95983004
0.95963147
0.95913826
0.95795588
0.95744099
0.95892402
0.95956835
0.95983657
0.95997138
0.95995554
0.95989863
0.95987094
0.95985483
0.95987419
0.95987419
0.95985482
0.95987093
0.95989863
0.95995554
0.95997138
0.95983657
0.95956836
0.95892403
0.95744101
0.95661196
0.9584873
0.95933102
0.95969186
0.95986728
0.95986282
0.95980427
0.95977329
0.95975923
0.95977931
0.95977931
0.95975923
0.95977329
0.95980427
0.95986282
0.95986728
0.95969186
0.95933103
0.95848732
0.956612
0.95533661
0.95773803
0.9588524
0.95933808
0.95957
0.95958576
0.95952719
0.9594918
0.95947981
0.95950005
0.95950005
0.9594798
0.9594918
0.95952719
0.95958576
0.95957
0.95933808
0.95885242
0.95773807
0.95533667
0.95340657
0.95653957
0.95803158
0.95868927
0.95900129
0.95905057
0.95899477
0.95895233
0.95894199
0.95896179
0.95896179
0.95894199
0.95895233
0.95899477
0.95905057
0.95900129
0.95868928
0.95803161
0.95653963
0.95340669
0.95049161
0.95467904
0.95671154
0.95761361
0.95804174
0.95814412
0.95809534
0.95804399
0.95803446
0.95805312
0.95805312
0.95803447
0.95804399
0.95809534
0.95814413
0.95804176
0.95761364
0.95671159
0.95467915
0.9504918
0.94606442
0.95181653
0.95464236
0.95590387
0.95650582
0.95668788
0.95665548
0.95659795
0.95658795
0.95660455
0.95660455
0.95658795
0.95659795
0.95665549
0.95668789
0.95650584
0.95590391
0.95464244
0.9518167
0.94606473
0.93926667
0.94740518
0.95142249
0.95322479
0.95409941
0.95440225
0.95440552
0.95435091
0.95433869
0.95435187
0.95435188
0.9543387
0.95435092
0.95440553
0.95440227
0.95409945
0.95322485
0.95142261
0.94740545
0.93926717
0.9287033
0.94055324
0.94639619
0.94904185
0.95034643
0.95084868
0.95091878
0.95088116
0.95086414
0.95087159
0.9508716
0.95086415
0.95088118
0.95091881
0.95084872
0.95034648
0.94904195
0.94639638
0.94055365
0.92870411
0.9115231
0.92964407
0.93845772
0.94248462
0.9444867
0.94532969
0.94551132
0.94552416
0.94549839
0.94549608
0.94549609
0.9454984
0.94552418
0.94551136
0.94532975
0.94448679
0.94248477
0.938458
0.92964471
0.91152448
0.88245772
0.91150226
0.92568916
0.93208665
0.93525742
0.93663752
0.93699463
0.93718083
0.9371395
0.93712004
0.93712004
0.93713953
0.93718088
0.93699469
0.9366376
0.93525755
0.93208688
0.9256896
0.91150334
0.88246044
0.83801143
0.88283965
0.90387262
0.91347664
0.91822916
0.92078456
0.92137779
0.92172279
0.92163643
0.92158079
0.9215808
0.92163647
0.92172285
0.92137786
0.92078467
0.91822934
0.91347698
0.90387332
0.88284151
0.83801677
)
;

boundaryField
{
    Wall
    {
        type            zeroGradient;
    }
    frontAndBack
    {
        type            empty;
    }
    atmosphere
    {
        type            zeroGradient;
    }
}


// ************************************************************************* //
