/*--------------------------------*- C++ -*----------------------------------*\
| =========                 |                                                 |
| \\      /  F ield         | OpenFOAM: The Open Source CFD Toolbox           |
|  \\    /   O peration     | Version:  3.0.1                                 |
|   \\  /    A nd           | Web:      www.OpenFOAM.org                      |
|    \\/     M anipulation  |                                                 |
\*---------------------------------------------------------------------------*/
FoamFile
{
    version     2.0;
    format      ascii;
    class       volScalarField;
    location    "36";
    object      M2;
}
// * * * * * * * * * * * * * * * * * * * * * * * * * * * * * * * * * * * * * //

dimensions      [0 0 0 0 0 0 0];

internalField   nonuniform List<scalar> 
800
(
2.0961809e-12
2.0963602e-12
2.0963701e-12
2.0963608e-12
2.0963537e-12
2.0963496e-12
2.0963476e-12
2.0963467e-12
2.0963464e-12
2.0963462e-12
2.0963462e-12
2.0963464e-12
2.0963467e-12
2.0963476e-12
2.0963496e-12
2.0963537e-12
2.0963608e-12
2.0963701e-12
2.0963602e-12
2.096181e-12
2.0944308e-12
2.0952951e-12
2.0955225e-12
2.0955829e-12
2.0955936e-12
2.0955907e-12
2.0955855e-12
2.0955812e-12
2.0955785e-12
2.0955771e-12
2.0955771e-12
2.0955785e-12
2.0955812e-12
2.0955855e-12
2.0955907e-12
2.0955936e-12
2.0955829e-12
2.0955225e-12
2.0952951e-12
2.0944307e-12
2.0945198e-12
2.0958099e-12
2.0962243e-12
2.0963293e-12
2.0963454e-12
2.0963384e-12
2.0963284e-12
2.0963207e-12
2.096316e-12
2.0963138e-12
2.0963138e-12
2.096316e-12
2.0963207e-12
2.0963284e-12
2.0963384e-12
2.0963454e-12
2.0963293e-12
2.0962243e-12
2.0958098e-12
2.0945197e-12
2.0993811e-12
2.1007689e-12
2.1012869e-12
2.1014006e-12
2.1014072e-12
2.1013911e-12
2.1013754e-12
2.1013648e-12
2.1013587e-12
2.101356e-12
2.101356e-12
2.1013587e-12
2.1013647e-12
2.1013753e-12
2.1013911e-12
2.1014071e-12
2.1014006e-12
2.1012868e-12
2.1007688e-12
2.099381e-12
2.1096187e-12
2.1107766e-12
2.1113032e-12
2.1113911e-12
2.1113721e-12
2.1113412e-12
2.111318e-12
2.1113045e-12
2.1112975e-12
2.1112947e-12
2.1112947e-12
2.1112975e-12
2.1113045e-12
2.111318e-12
2.1113412e-12
2.1113721e-12
2.111391e-12
2.1113032e-12
2.1107765e-12
2.1096186e-12
2.1256237e-12
2.1262105e-12
2.1266395e-12
2.1266646e-12
2.1266017e-12
2.1265483e-12
2.1265149e-12
2.1264976e-12
2.1264897e-12
2.1264868e-12
2.1264868e-12
2.1264897e-12
2.1264976e-12
2.1265149e-12
2.1265483e-12
2.1266017e-12
2.1266647e-12
2.1266395e-12
2.1262105e-12
2.1256236e-12
2.1478465e-12
2.1474972e-12
2.147708e-12
2.1476296e-12
2.1475015e-12
2.1474165e-12
2.1473692e-12
2.1473469e-12
2.1473375e-12
2.1473344e-12
2.1473344e-12
2.1473375e-12
2.1473469e-12
2.1473692e-12
2.1474165e-12
2.1475016e-12
2.1476296e-12
2.147708e-12
2.1474973e-12
2.1478465e-12
2.1767962e-12
2.1751157e-12
2.1749682e-12
2.1747409e-12
2.1745248e-12
2.1743975e-12
2.1743315e-12
2.1743022e-12
2.1742906e-12
2.1742872e-12
2.1742872e-12
2.1742907e-12
2.1743022e-12
2.1743316e-12
2.1743976e-12
2.1745249e-12
2.174741e-12
2.1749684e-12
2.1751158e-12
2.1767963e-12
2.213109e-12
2.2096467e-12
2.2089692e-12
2.208541e-12
2.2082123e-12
2.2080307e-12
2.2079403e-12
2.2079013e-12
2.2078865e-12
2.2078823e-12
2.2078823e-12
2.2078866e-12
2.2079014e-12
2.2079404e-12
2.2080308e-12
2.2082124e-12
2.2085412e-12
2.2089695e-12
2.2096469e-12
2.2131092e-12
2.2575232e-12
2.2518229e-12
2.2504106e-12
2.2497237e-12
2.249259e-12
2.2490111e-12
2.2488897e-12
2.2488379e-12
2.2488186e-12
2.248813e-12
2.2488131e-12
2.2488187e-12
2.248838e-12
2.2488899e-12
2.2490113e-12
2.2492593e-12
2.249724e-12
2.2504109e-12
2.2518232e-12
2.2575235e-12
2.3105512e-12
2.3021933e-12
2.2998191e-12
2.2988102e-12
2.2981909e-12
2.297866e-12
2.297705e-12
2.2976357e-12
2.2976098e-12
2.297602e-12
2.2976021e-12
2.2976099e-12
2.2976359e-12
2.2977052e-12
2.2978662e-12
2.2981913e-12
2.2988106e-12
2.2998195e-12
2.3021937e-12
2.3105517e-12
2.3715885e-12
2.361111e-12
2.3575398e-12
2.3561459e-12
2.3553632e-12
2.3549567e-12
2.3547478e-12
2.3546567e-12
2.3546225e-12
2.3546119e-12
2.3546119e-12
2.3546227e-12
2.3546569e-12
2.3547481e-12
2.354957e-12
2.3553636e-12
2.3561464e-12
2.3575403e-12
2.3611116e-12
2.3715891e-12
2.4412476e-12
2.4271906e-12
2.4222538e-12
2.4204241e-12
2.4194735e-12
2.4189855e-12
2.4187229e-12
2.4186069e-12
2.418564e-12
2.4185499e-12
2.41855e-12
2.4185642e-12
2.4186071e-12
2.4187233e-12
2.4189859e-12
2.4194739e-12
2.4204247e-12
2.4222544e-12
2.4271912e-12
2.4412483e-12
2.5196011e-12
2.5016917e-12
2.4951707e-12
2.4928293e-12
2.4916997e-12
2.4911254e-12
2.4908004e-12
2.4906523e-12
2.4905994e-12
2.4905806e-12
2.4905807e-12
2.4905996e-12
2.4906526e-12
2.4908008e-12
2.4911259e-12
2.4917003e-12
2.4928299e-12
2.4951714e-12
2.5016925e-12
2.5196018e-12
2.6068702e-12
2.584932e-12
2.5766209e-12
2.5736805e-12
2.5723642e-12
2.5717025e-12
2.5713043e-12
2.5711149e-12
2.5710496e-12
2.5710248e-12
2.5710248e-12
2.5710498e-12
2.5711152e-12
2.5713048e-12
2.5717031e-12
2.5723648e-12
2.5736812e-12
2.5766216e-12
2.5849328e-12
2.6068711e-12
2.7032473e-12
2.6771166e-12
2.6668455e-12
2.6632104e-12
2.6617065e-12
2.6609613e-12
2.6604716e-12
2.6602297e-12
2.6601471e-12
2.6601166e-12
2.6601166e-12
2.6601473e-12
2.66023e-12
2.6604721e-12
2.6609619e-12
2.6617072e-12
2.6632113e-12
2.6668464e-12
2.6771175e-12
2.7032483e-12
2.8082656e-12
2.7778667e-12
2.7655263e-12
2.7611115e-12
2.7594387e-12
2.7586197e-12
2.7580136e-12
2.7577095e-12
2.7576026e-12
2.7575723e-12
2.7575724e-12
2.7576028e-12
2.7577099e-12
2.7580141e-12
2.7586203e-12
2.7594394e-12
2.7611123e-12
2.7655272e-12
2.7778676e-12
2.8082667e-12
2.9212813e-12
2.886643e-12
2.8721814e-12
2.8669136e-12
2.8651039e-12
2.8642126e-12
2.8634526e-12
2.8630767e-12
2.8629331e-12
2.8629178e-12
2.8629179e-12
2.8629333e-12
2.863077e-12
2.8634531e-12
2.8642132e-12
2.8651046e-12
2.8669144e-12
2.8721824e-12
2.8866439e-12
2.9212823e-12
3.0417103e-12
3.0029368e-12
2.9863351e-12
2.9801575e-12
2.9782503e-12
2.9772692e-12
2.9763047e-12
2.975847e-12
2.9756465e-12
2.9756722e-12
2.9756722e-12
2.9756467e-12
2.9758473e-12
2.9763052e-12
2.9772699e-12
2.9782511e-12
2.9801583e-12
2.986336e-12
3.0029377e-12
3.0417113e-12
3.1691423e-12
3.1263812e-12
3.1076345e-12
3.1005105e-12
3.0985459e-12
3.0974323e-12
3.0962011e-12
3.0956518e-12
3.0953632e-12
3.0954682e-12
3.0954683e-12
3.0953634e-12
3.0956522e-12
3.0962016e-12
3.097433e-12
3.0985467e-12
3.1005113e-12
3.1076355e-12
3.1263822e-12
3.1691434e-12
3.3028658e-12
3.2563398e-12
3.2354385e-12
3.227352e-12
3.2253625e-12
3.2240494e-12
3.2224842e-12
3.2218336e-12
3.2214136e-12
3.2216462e-12
3.2216463e-12
3.2214138e-12
3.221834e-12
3.2224847e-12
3.22405e-12
3.2253632e-12
3.2273527e-12
3.2354393e-12
3.2563407e-12
3.3028667e-12
3.4424168e-12
3.3924254e-12
3.369352e-12
3.3602932e-12
3.3582922e-12
3.3566942e-12
3.3547311e-12
3.3539718e-12
3.3533713e-12
3.353786e-12
3.3537861e-12
3.3533715e-12
3.3539721e-12
3.3547315e-12
3.3566947e-12
3.3582928e-12
3.3602939e-12
3.3693527e-12
3.3924262e-12
3.4424176e-12
3.5874988e-12
3.5343947e-12
3.5091233e-12
3.499075e-12
3.4970588e-12
3.4950801e-12
3.4926646e-12
3.4917918e-12
3.4909674e-12
3.4916197e-12
3.4916198e-12
3.4909675e-12
3.4917921e-12
3.492665e-12
3.4950806e-12
3.4970593e-12
3.4990756e-12
3.5091239e-12
3.5343953e-12
3.5874993e-12
3.7373146e-12
3.6815936e-12
3.6541095e-12
3.6430219e-12
3.6409734e-12
3.6385095e-12
3.6355958e-12
3.634609e-12
3.6335408e-12
3.6344815e-12
3.6344816e-12
3.6335409e-12
3.6346093e-12
3.635596e-12
3.6385098e-12
3.6409738e-12
3.6430223e-12
3.65411e-12
3.681594e-12
3.7373149e-12
3.8913175e-12
3.833578e-12
3.8039043e-12
3.7916909e-12
3.7895928e-12
3.7865295e-12
3.7830736e-12
3.781978e-12
3.7806845e-12
3.7819566e-12
3.7819566e-12
3.7806846e-12
3.7819782e-12
3.7830738e-12
3.7865298e-12
3.7895931e-12
3.7916912e-12
3.8039046e-12
3.8335781e-12
3.8913175e-12
4.0485618e-12
3.9896019e-12
3.9578037e-12
3.9443359e-12
3.9421664e-12
3.9383905e-12
3.9343525e-12
3.9331642e-12
3.9317155e-12
3.9333539e-12
3.9333539e-12
3.9317155e-12
3.9331643e-12
3.9343526e-12
3.9383906e-12
3.9421665e-12
3.944336e-12
3.9578037e-12
3.9896018e-12
4.0485616e-12
4.2075256e-12
4.1484721e-12
4.1146814e-12
4.0998308e-12
4.0975387e-12
4.0929493e-12
4.0882984e-12
4.0870427e-12
4.0855585e-12
4.0875893e-12
4.0875893e-12
4.0855585e-12
4.0870427e-12
4.0882984e-12
4.0929492e-12
4.0975387e-12
4.0998307e-12
4.1146811e-12
4.1484717e-12
4.207525e-12
4.3663261e-12
4.3087792e-12
4.2732332e-12
4.2569196e-12
4.2543916e-12
4.2489144e-12
4.2436432e-12
4.2423537e-12
4.2409948e-12
4.2434362e-12
4.2434362e-12
4.2409948e-12
4.2423537e-12
4.2436431e-12
4.2489142e-12
4.2543914e-12
4.2569192e-12
4.2732327e-12
4.3087786e-12
4.3663254e-12
4.5220644e-12
4.4683495e-12
4.4315203e-12
4.4137686e-12
4.4108253e-12
4.4044545e-12
4.3986066e-12
4.3973325e-12
4.3962901e-12
4.3991583e-12
4.3991583e-12
4.3962901e-12
4.3973325e-12
4.3986064e-12
4.4044542e-12
4.410825e-12
4.4137681e-12
4.4315196e-12
4.4683487e-12
4.5220635e-12
4.6706698e-12
4.6240905e-12
4.5868933e-12
4.5678442e-12
4.5642665e-12
4.5570618e-12
4.5507277e-12
4.5495242e-12
4.548998e-12
4.5523074e-12
4.5523074e-12
4.5489979e-12
4.5495241e-12
4.5507275e-12
4.5570614e-12
4.5642661e-12
4.5678436e-12
4.5868925e-12
4.6240896e-12
4.6706691e-12
4.8061456e-12
4.7713609e-12
4.7354487e-12
4.7154036e-12
4.7110747e-12
4.7031715e-12
4.6964309e-12
4.6953552e-12
4.6955385e-12
4.6993071e-12
4.6993071e-12
4.6955385e-12
4.6953551e-12
4.6964306e-12
4.7031712e-12
4.7110742e-12
4.7154029e-12
4.7354478e-12
4.7713602e-12
4.8061454e-12
4.9197588e-12
4.9032284e-12
4.8714511e-12
4.8509778e-12
4.8459668e-12
4.8376225e-12
4.8304969e-12
4.829511e-12
4.830575e-12
4.8348252e-12
4.8348253e-12
4.8305751e-12
4.829511e-12
4.8304967e-12
4.8376222e-12
4.8459664e-12
4.8509772e-12
4.8714504e-12
4.9032281e-12
4.9197597e-12
4.9988894e-12
5.009856e-12
4.986703e-12
4.9668687e-12
4.9614105e-12
4.953054e-12
4.9455775e-12
4.9444071e-12
4.9464923e-12
4.9512518e-12
4.9512518e-12
4.9464924e-12
4.9444073e-12
4.9455775e-12
4.9530539e-12
4.9614103e-12
4.9668685e-12
4.9867028e-12
5.0098567e-12
4.9988921e-12
5.0268035e-12
5.0777167e-12
5.0696905e-12
5.0523932e-12
5.0469275e-12
5.0391431e-12
5.0312619e-12
5.029659e-12
5.0328702e-12
5.0381703e-12
5.0381704e-12
5.0328704e-12
5.0296593e-12
5.0312622e-12
5.0391433e-12
5.0469278e-12
5.0523936e-12
5.0696912e-12
5.0777193e-12
5.0268092e-12
4.984161e-12
5.089362e-12
5.1049597e-12
5.0931801e-12
5.0885412e-12
5.0816241e-12
5.0734702e-12
5.071668e-12
5.0760649e-12
5.081933e-12
5.0819331e-12
5.0760653e-12
5.0716687e-12
5.0734709e-12
5.0816249e-12
5.0885421e-12
5.0931815e-12
5.1049619e-12
5.0893674e-12
4.9841706e-12
4.8521765e-12
5.0256324e-12
5.0737427e-12
5.0708224e-12
5.0689344e-12
5.062806e-12
5.0549413e-12
5.0537612e-12
5.0593464e-12
5.0657891e-12
5.0657893e-12
5.0593471e-12
5.0537623e-12
5.0549425e-12
5.0628074e-12
5.0689363e-12
5.0708251e-12
5.0737469e-12
5.025641e-12
4.8521903e-12
4.6204044e-12
4.8714323e-12
4.9572605e-12
4.9663842e-12
4.968784e-12
4.964278e-12
4.9573089e-12
4.9572283e-12
4.9638958e-12
4.9708665e-12
4.9708668e-12
4.9638967e-12
4.9572298e-12
4.9573107e-12
4.9642802e-12
4.9687869e-12
4.9663883e-12
4.9572666e-12
4.8714437e-12
4.6204208e-12
4.2700821e-12
4.6150659e-12
4.7420879e-12
4.7660744e-12
4.7735102e-12
4.7712821e-12
4.7651295e-12
4.7676338e-12
4.775154e-12
4.7825365e-12
4.7825369e-12
4.7751551e-12
4.7676355e-12
4.7651316e-12
4.7712848e-12
4.7735138e-12
4.7660794e-12
4.7420953e-12
4.6150786e-12
4.2701003e-12
3.8167023e-12
4.2394095e-12
4.4204045e-12
4.4631703e-12
4.4763478e-12
4.475649e-12
4.4693913e-12
4.4781109e-12
4.4860913e-12
4.4936854e-12
4.4936858e-12
4.4860924e-12
4.4781127e-12
4.4693935e-12
4.4756519e-12
4.4763515e-12
4.4631755e-12
4.4204121e-12
4.2394235e-12
3.8167257e-12
3.3967761e-12
3.7787205e-12
3.9491621e-12
3.987158e-12
3.9948256e-12
4.0081761e-12
4.00057e-12
4.0123173e-12
4.0198721e-12
4.0270845e-12
4.0270848e-12
4.0198729e-12
4.0123187e-12
4.0005717e-12
4.0081784e-12
3.9948285e-12
3.9871622e-12
3.9491692e-12
3.7787361e-12
3.3968088e-12
)
;

boundaryField
{
    Wall
    {
        type            zeroGradient;
    }
    frontAndBack
    {
        type            empty;
    }
    atmosphere
    {
        type            zeroGradient;
    }
}


// ************************************************************************* //
