/*--------------------------------*- C++ -*----------------------------------*\
| =========                 |                                                 |
| \\      /  F ield         | OpenFOAM: The Open Source CFD Toolbox           |
|  \\    /   O peration     | Version:  3.0.1                                 |
|   \\  /    A nd           | Web:      www.OpenFOAM.org                      |
|    \\/     M anipulation  |                                                 |
\*---------------------------------------------------------------------------*/
FoamFile
{
    version     2.0;
    format      ascii;
    class       volScalarField;
    location    "36";
    object      M3;
}
// * * * * * * * * * * * * * * * * * * * * * * * * * * * * * * * * * * * * * //

dimensions      [0 0 0 0 0 0 0];

internalField   nonuniform List<scalar> 
800
(
4.5866299e-24
4.587402e-24
4.5874451e-24
4.5874055e-24
4.5873752e-24
4.587358e-24
4.5873495e-24
4.5873458e-24
4.5873442e-24
4.5873437e-24
4.5873437e-24
4.5873442e-24
4.5873457e-24
4.5873495e-24
4.5873581e-24
4.5873752e-24
4.5874056e-24
4.5874452e-24
4.5874021e-24
4.5866299e-24
4.5791052e-24
4.5828362e-24
4.5838158e-24
4.5840757e-24
4.5841219e-24
4.5841098e-24
4.5840878e-24
4.5840698e-24
4.5840582e-24
4.5840526e-24
4.5840526e-24
4.5840582e-24
4.5840697e-24
4.5840878e-24
4.5841098e-24
4.5841219e-24
4.5840757e-24
4.5838156e-24
4.582836e-24
4.5791048e-24
4.5803018e-24
4.5858433e-24
4.5876166e-24
4.5880625e-24
4.5881293e-24
4.5880987e-24
4.5880559e-24
4.5880233e-24
4.5880034e-24
4.587994e-24
4.587994e-24
4.5880033e-24
4.5880232e-24
4.5880558e-24
4.5880986e-24
4.5881291e-24
4.5880623e-24
4.5876164e-24
4.5858429e-24
4.5803011e-24
4.6027566e-24
4.6086815e-24
4.6108859e-24
4.6113603e-24
4.611382e-24
4.6113107e-24
4.6112425e-24
4.6111971e-24
4.6111715e-24
4.6111602e-24
4.6111602e-24
4.6111715e-24
4.611197e-24
4.6112424e-24
4.6113106e-24
4.6113818e-24
4.6113601e-24
4.6108856e-24
4.6086811e-24
4.6027559e-24
4.6490839e-24
4.6539704e-24
4.6561957e-24
4.6565479e-24
4.6564539e-24
4.6563157e-24
4.6562145e-24
4.656156e-24
4.6561263e-24
4.6561143e-24
4.6561143e-24
4.6561263e-24
4.656156e-24
4.6562145e-24
4.6563157e-24
4.6564539e-24
4.6565478e-24
4.6561956e-24
4.6539701e-24
4.6490834e-24
4.7212356e-24
4.7235805e-24
4.725363e-24
4.7254299e-24
4.7251372e-24
4.7248977e-24
4.7247505e-24
4.7246754e-24
4.7246413e-24
4.7246289e-24
4.724629e-24
4.7246414e-24
4.7246755e-24
4.7247506e-24
4.7248978e-24
4.7251373e-24
4.72543e-24
4.725363e-24
4.7235805e-24
4.7212353e-24
4.8216939e-24
4.8198395e-24
4.8206406e-24
4.8202367e-24
4.8196485e-24
4.8192651e-24
4.8190544e-24
4.8189563e-24
4.818916e-24
4.8189029e-24
4.818903e-24
4.8189161e-24
4.8189565e-24
4.8190546e-24
4.8192654e-24
4.8196487e-24
4.8202371e-24
4.8206409e-24
4.8198398e-24
4.821694e-24
4.9535297e-24
4.9455947e-24
4.9447656e-24
4.9436756e-24
4.9426816e-24
4.9421034e-24
4.9418065e-24
4.9416761e-24
4.9416258e-24
4.941611e-24
4.9416111e-24
4.941626e-24
4.9416763e-24
4.9418069e-24
4.9421038e-24
4.9426822e-24
4.9436763e-24
4.9447663e-24
4.9455954e-24
4.9535302e-24
5.1210856e-24
5.1047065e-24
5.1013894e-24
5.0993505e-24
5.0978221e-24
5.0969863e-24
5.096574e-24
5.096398e-24
5.0963326e-24
5.0963143e-24
5.0963144e-24
5.0963329e-24
5.0963984e-24
5.0965746e-24
5.096987e-24
5.097823e-24
5.0993515e-24
5.1013905e-24
5.1047076e-24
5.1210866e-24
5.3302345e-24
5.3028084e-24
5.2959069e-24
5.2926026e-24
5.2904053e-24
5.2892427e-24
5.288678e-24
5.2884394e-24
5.2883521e-24
5.2883278e-24
5.288328e-24
5.2883525e-24
5.28844e-24
5.2886789e-24
5.2892438e-24
5.2904065e-24
5.292604e-24
5.2959084e-24
5.3028101e-24
5.3302361e-24
5.5861864e-24
5.5450414e-24
5.5332426e-24
5.5283019e-24
5.5253153e-24
5.523759e-24
5.5229918e-24
5.5226647e-24
5.5225442e-24
5.5225091e-24
5.5225093e-24
5.5225447e-24
5.5226656e-24
5.522993e-24
5.5237604e-24
5.525317e-24
5.5283038e-24
5.5332447e-24
5.5450436e-24
5.5861887e-24
5.8909181e-24
5.8361269e-24
5.8179415e-24
5.8109557e-24
5.8071056e-24
5.8051177e-24
5.8040939e-24
5.8036509e-24
5.8034871e-24
5.8034368e-24
5.8034371e-24
5.8034877e-24
5.8036519e-24
5.8040953e-24
5.8051195e-24
5.8071077e-24
5.8109581e-24
5.8179441e-24
5.8361296e-24
5.8909209e-24
6.2484301e-24
6.1742896e-24
6.1484505e-24
6.139017e-24
6.134229e-24
6.1317835e-24
6.1304519e-24
6.1298659e-24
6.1296526e-24
6.1295828e-24
6.1295831e-24
6.1296534e-24
6.1298671e-24
6.1304537e-24
6.1317857e-24
6.1342315e-24
6.1390199e-24
6.1484537e-24
6.1742929e-24
6.2484336e-24
6.6629534e-24
6.5665259e-24
6.5314201e-24
6.5189848e-24
6.5131639e-24
6.5102179e-24
6.5085121e-24
6.507736e-24
6.5074642e-24
6.5073666e-24
6.5073669e-24
6.5074651e-24
6.5077375e-24
6.5085141e-24
6.5102204e-24
6.5131668e-24
6.5189882e-24
6.5314238e-24
6.5665298e-24
6.6629574e-24
7.1399668e-24
7.0184723e-24
6.9723801e-24
6.9562617e-24
6.9493126e-24
6.9458347e-24
6.9436673e-24
6.9426361e-24
6.942291e-24
6.9421567e-24
6.9421571e-24
6.9422921e-24
6.9426378e-24
6.9436696e-24
6.9458376e-24
6.949316e-24
6.9562655e-24
6.9723842e-24
7.0184766e-24
7.1399715e-24
7.6853673e-24
7.5358499e-24
7.4770695e-24
7.4564614e-24
7.4483083e-24
7.444283e-24
7.4415125e-24
7.4401421e-24
7.4396928e-24
7.4395228e-24
7.4395232e-24
7.439694e-24
7.4401441e-24
7.4415153e-24
7.4442865e-24
7.4483123e-24
7.456466e-24
7.4770745e-24
7.5358551e-24
7.6853731e-24
8.3016937e-24
8.1214873e-24
8.0484964e-24
8.0225734e-24
8.0132391e-24
8.0086762e-24
8.0051032e-24
8.0033122e-24
8.0027106e-24
8.0025423e-24
8.0025427e-24
8.0027119e-24
8.0033144e-24
8.0051062e-24
8.0086798e-24
8.0132433e-24
8.0225782e-24
8.0485017e-24
8.1214928e-24
8.3016998e-24
8.9903747e-24
8.7772645e-24
8.6887338e-24
8.6566682e-24
8.6462515e-24
8.6411017e-24
8.6364292e-24
8.6341295e-24
8.6332885e-24
8.6332205e-24
8.633221e-24
8.6332898e-24
8.6341318e-24
8.6364323e-24
8.6411055e-24
8.646256e-24
8.6566732e-24
8.6887393e-24
8.7772703e-24
8.9903811e-24
9.7529725e-24
9.5050952e-24
9.3997693e-24
9.3607653e-24
9.3494228e-24
9.3435049e-24
9.3373194e-24
9.3344144e-24
9.3331821e-24
9.3333996e-24
9.3334001e-24
9.3331836e-24
9.3344167e-24
9.3373226e-24
9.3435089e-24
9.3494274e-24
9.3607705e-24
9.399775e-24
9.5051012e-24
9.7529791e-24
1.0591958e-23
1.0307657e-23
1.0184249e-23
1.0137573e-23
1.0125485e-23
1.0118432e-23
1.0110204e-23
1.0106589e-23
1.0104722e-23
1.0105511e-23
1.0105512e-23
1.0104723e-23
1.0106592e-23
1.0110207e-23
1.0118436e-23
1.012549e-23
1.0137579e-23
1.0184255e-23
1.0307664e-23
1.0591965e-23
1.1507607e-23
1.1185736e-23
1.1042816e-23
1.0987814e-23
1.0975132e-23
1.0966377e-23
1.0955493e-23
1.0951056e-23
1.0948199e-23
1.094994e-23
1.0949941e-23
1.09482e-23
1.0951059e-23
1.0955496e-23
1.0966381e-23
1.0975137e-23
1.0987819e-23
1.1042822e-23
1.1185742e-23
1.1507613e-23
1.2501565e-23
1.2141564e-23
1.1977534e-23
1.1913534e-23
1.1900294e-23
1.188909e-23
1.1874911e-23
1.1869544e-23
1.1865266e-23
1.1868419e-23
1.186842e-23
1.1865267e-23
1.1869547e-23
1.1874914e-23
1.1889093e-23
1.1900298e-23
1.1913539e-23
1.1977539e-23
1.2141569e-23
1.2501571e-23
1.3576583e-23
1.3178372e-23
1.2991447e-23
1.2917658e-23
1.2903768e-23
1.2889228e-23
1.287113e-23
1.2864737e-23
1.2858613e-23
1.2863684e-23
1.2863684e-23
1.2858615e-23
1.2864739e-23
1.2871133e-23
1.2889231e-23
1.2903772e-23
1.2917662e-23
1.2991452e-23
1.3178376e-23
1.3576587e-23
1.4731487e-23
1.4296279e-23
1.408466e-23
1.3999969e-23
1.3985234e-23
1.3966324e-23
1.3943697e-23
1.3936208e-23
1.3927966e-23
1.3935465e-23
1.3935466e-23
1.3927967e-23
1.393621e-23
1.3943699e-23
1.3966327e-23
1.3985237e-23
1.3999973e-23
1.4084663e-23
1.4296282e-23
1.473149e-23
1.5966579e-23
1.5496687e-23
1.5258779e-23
1.516169e-23
1.51459e-23
1.5121411e-23
1.5093604e-23
1.5084989e-23
1.5074653e-23
1.5085073e-23
1.5085074e-23
1.5074653e-23
1.508499e-23
1.5093606e-23
1.5121413e-23
1.5145902e-23
1.5161692e-23
1.5258781e-23
1.5496688e-23
1.5966579e-23
1.7278412e-23
1.6778248e-23
1.6512755e-23
1.6401318e-23
1.6384209e-23
1.6352833e-23
1.6319179e-23
1.6309498e-23
1.6297531e-23
1.6311342e-23
1.6311342e-23
1.6297532e-23
1.6309498e-23
1.6319179e-23
1.6352834e-23
1.638421e-23
1.6401319e-23
1.6512755e-23
1.6778247e-23
1.727841e-23
1.8657647e-23
1.8135153e-23
1.7841367e-23
1.7713533e-23
1.769456e-23
1.7654996e-23
1.7614861e-23
1.760427e-23
1.7591613e-23
1.760924e-23
1.7609241e-23
1.7591613e-23
1.760427e-23
1.7614861e-23
1.7654996e-23
1.769456e-23
1.7713532e-23
1.7841365e-23
1.8135149e-23
1.8657642e-23
2.0090197e-23
1.9558541e-23
1.9236776e-23
1.9090848e-23
1.9068866e-23
1.9019968e-23
1.8972911e-23
1.896166e-23
1.8949705e-23
1.8971535e-23
1.8971535e-23
1.8949704e-23
1.8961659e-23
1.8972909e-23
1.9019966e-23
1.9068864e-23
1.9090845e-23
1.9236772e-23
1.9558535e-23
2.009019e-23
2.1550551e-23
2.103102e-23
2.0683985e-23
2.0519235e-23
2.049241e-23
2.0433624e-23
2.0379692e-23
2.036821e-23
2.0358749e-23
2.0385164e-23
2.0385164e-23
2.0358749e-23
2.036821e-23
2.037969e-23
2.0433621e-23
2.0492406e-23
2.0519231e-23
2.0683979e-23
2.1031012e-23
2.1550543e-23
2.2999268e-23
2.2524283e-23
2.2159377e-23
2.197629e-23
2.1942323e-23
2.187375e-23
2.1813521e-23
2.1802344e-23
2.1797391e-23
2.182876e-23
2.182876e-23
2.1797391e-23
2.1802344e-23
2.1813519e-23
2.1873747e-23
2.1942319e-23
2.1976285e-23
2.215937e-23
2.2524274e-23
2.2999261e-23
2.4374666e-23
2.3992008e-23
2.3624665e-23
2.3425566e-23
2.3383127e-23
2.330574e-23
2.3239814e-23
2.3229559e-23
2.3231208e-23
2.3267915e-23
2.3267915e-23
2.3231207e-23
2.3229558e-23
2.3239812e-23
2.3305737e-23
2.3383123e-23
2.3425559e-23
2.3624656e-23
2.3992e-23
2.4374663e-23
2.5583953e-23
2.536127e-23
2.5020146e-23
2.4810499e-23
2.4760227e-23
2.4676491e-23
2.460505e-23
2.4595415e-23
2.4605648e-23
2.4648073e-23
2.4648074e-23
2.4605648e-23
2.4595415e-23
2.4605048e-23
2.4676488e-23
2.4760223e-23
2.4810493e-23
2.5020139e-23
2.5361266e-23
2.558396e-23
2.6491955e-23
2.6525663e-23
2.6257549e-23
2.6048606e-23
2.5993106e-23
2.5907704e-23
2.583127e-23
2.5819462e-23
2.5839986e-23
2.5888472e-23
2.5888473e-23
2.5839987e-23
2.5819463e-23
2.583127e-23
2.5907703e-23
2.5993104e-23
2.6048603e-23
2.6257546e-23
2.6525669e-23
2.6491981e-23
2.6922664e-23
2.7338471e-23
2.7211649e-23
2.7024069e-23
2.6968432e-23
2.6888317e-23
2.6806748e-23
2.6790074e-23
2.6822167e-23
2.6876936e-23
2.6876937e-23
2.6822169e-23
2.6790077e-23
2.6806751e-23
2.6888319e-23
2.6968435e-23
2.7024072e-23
2.7211655e-23
2.7338495e-23
2.6922718e-23
2.6685435e-23
2.7615693e-23
2.7717046e-23
2.7583202e-23
2.7536947e-23
2.7466639e-23
2.7382065e-23
2.7362811e-23
2.7407073e-23
2.7468066e-23
2.7468068e-23
2.7407077e-23
2.7362817e-23
2.7382072e-23
2.7466646e-23
2.7536956e-23
2.7583215e-23
2.7717067e-23
2.7615745e-23
2.6685526e-23
2.5624432e-23
2.7171316e-23
2.7583533e-23
2.7538099e-23
2.7522282e-23
2.7462504e-23
2.738206e-23
2.7368801e-23
2.7424881e-23
2.7491489e-23
2.7491491e-23
2.7424887e-23
2.7368811e-23
2.7382072e-23
2.7462518e-23
2.75223e-23
2.7538124e-23
2.7583572e-23
2.7171399e-23
2.5624559e-23
2.3712632e-23
2.5895993e-23
2.6646484e-23
2.6717255e-23
2.6747662e-23
2.6708618e-23
2.6640419e-23
2.6637526e-23
2.6703478e-23
2.677414e-23
2.6774143e-23
2.6703487e-23
2.663754e-23
2.6640436e-23
2.6708638e-23
2.6747689e-23
2.6717294e-23
2.6646541e-23
2.5896099e-23
2.3712775e-23
2.0907368e-23
2.3765705e-23
2.4840003e-23
2.5041264e-23
2.5121999e-23
2.5109964e-23
2.5055368e-23
2.5077001e-23
2.5149256e-23
2.5221405e-23
2.5221409e-23
2.5149266e-23
2.5077017e-23
2.5055388e-23
2.5109989e-23
2.5122032e-23
2.504131e-23
2.484007e-23
2.3765817e-23
2.0907511e-23
1.7509577e-23
2.0759871e-23
2.2201615e-23
2.2545711e-23
2.2675136e-23
2.2683095e-23
2.2634811e-23
2.2710562e-23
2.2783839e-23
2.2854088e-23
2.2854092e-23
2.2783849e-23
2.2710578e-23
2.2634831e-23
2.268312e-23
2.2675169e-23
2.2545755e-23
2.2201679e-23
2.075998e-23
1.7509733e-23
1.4762046e-23
1.7313287e-23
1.8509112e-23
1.8766634e-23
1.8835233e-23
1.8965267e-23
1.8911037e-23
1.9008389e-23
1.9072425e-23
1.9133636e-23
1.9133638e-23
1.9072431e-23
1.90084e-23
1.8911051e-23
1.8965284e-23
1.8835255e-23
1.8766665e-23
1.8509163e-23
1.7313392e-23
1.4762232e-23
)
;

boundaryField
{
    Wall
    {
        type            zeroGradient;
    }
    frontAndBack
    {
        type            empty;
    }
    atmosphere
    {
        type            zeroGradient;
    }
}


// ************************************************************************* //
