/*--------------------------------*- C++ -*----------------------------------*\
| =========                 |                                                 |
| \\      /  F ield         | OpenFOAM: The Open Source CFD Toolbox           |
|  \\    /   O peration     | Version:  3.0.1                                 |
|   \\  /    A nd           | Web:      www.OpenFOAM.org                      |
|    \\/     M anipulation  |                                                 |
\*---------------------------------------------------------------------------*/
FoamFile
{
    version     2.0;
    format      ascii;
    class       volScalarField;
    location    "36";
    object      mOne;
}
// * * * * * * * * * * * * * * * * * * * * * * * * * * * * * * * * * * * * * //

dimensions      [0 0 0 0 0 0 0];

internalField   nonuniform List<scalar> 
800
(
21.932935
21.934732
21.934831
21.934738
21.934667
21.934626
21.934606
21.934597
21.934593
21.934592
21.934592
21.934593
21.934597
21.934606
21.934626
21.934667
21.934738
21.934831
21.934733
21.932935
21.914972
21.923695
21.925986
21.926595
21.926702
21.926673
21.926621
21.926578
21.926551
21.926538
21.926538
21.926551
21.926578
21.926621
21.926673
21.926702
21.926595
21.925986
21.923694
21.914972
21.836091
21.851954
21.857603
21.859303
21.859739
21.859778
21.859714
21.859646
21.859597
21.859573
21.859573
21.859597
21.859645
21.859714
21.859777
21.859738
21.859302
21.857602
21.851953
21.836088
21.73011
21.752426
21.761592
21.764449
21.765251
21.765383
21.765322
21.765235
21.765169
21.765136
21.765136
21.765169
21.765235
21.765321
21.765382
21.76525
21.764448
21.76159
21.752424
21.730106
21.614545
21.642293
21.654718
21.658675
21.659815
21.660035
21.659981
21.659882
21.659802
21.659761
21.659761
21.659802
21.659881
21.65998
21.660034
21.659814
21.658673
21.654716
21.64229
21.614541
21.500454
21.53225
21.547462
21.552382
21.553776
21.554049
21.55399
21.553875
21.553782
21.553735
21.553735
21.553782
21.553874
21.553989
21.554048
21.553774
21.55238
21.547459
21.532247
21.50045
21.396574
21.430777
21.448137
21.453821
21.455344
21.455611
21.455519
21.455378
21.455267
21.455211
21.45521
21.455266
21.455377
21.455518
21.455609
21.455342
21.453819
21.448134
21.430774
21.396569
21.309946
21.344851
21.363575
21.36978
21.371283
21.371468
21.371307
21.371119
21.370981
21.370913
21.370913
21.37098
21.371118
21.371306
21.371466
21.371281
21.369778
21.363573
21.344847
21.309942
21.245178
21.279346
21.298588
21.305062
21.306413
21.306444
21.306177
21.305925
21.305751
21.305668
21.305668
21.305751
21.305924
21.306176
21.306442
21.306411
21.30506
21.298585
21.279343
21.245174
21.204636
21.236949
21.255799
21.262273
21.263343
21.263142
21.262722
21.26238
21.262157
21.262053
21.262052
21.262157
21.26238
21.262721
21.263141
21.263341
21.262271
21.255796
21.236946
21.204632
21.189011
21.2189
21.236521
21.242757
21.243461
21.242977
21.242367
21.241913
21.24163
21.241499
21.241499
21.241629
21.241912
21.242366
21.242976
21.243459
21.242756
21.236519
21.218897
21.189007
21.204728
21.224746
21.24038
21.24616
21.246432
21.245623
21.244784
21.244196
21.243842
21.24368
21.24368
21.243842
21.244195
21.244783
21.245622
21.24643
21.246158
21.240378
21.224744
21.204725
21.249591
21.268738
21.280838
21.285795
21.285648
21.284507
21.283355
21.282585
21.28214
21.281935
21.281935
21.28214
21.282585
21.283354
21.284507
21.285646
21.285794
21.280837
21.268736
21.249588
21.323091
21.341685
21.34971
21.353655
21.353221
21.351829
21.350293
21.349305
21.348755
21.348498
21.348498
21.348754
21.349304
21.350293
21.351828
21.35322
21.353654
21.349709
21.341684
21.323089
21.422793
21.441618
21.445513
21.448285
21.44774
21.446189
21.444186
21.442932
21.442258
21.44194
21.44194
21.442258
21.442932
21.444185
21.446188
21.447739
21.448284
21.445513
21.441618
21.422792
21.545557
21.566341
21.566602
21.568087
21.567633
21.565997
21.563432
21.561855
21.561022
21.560642
21.560642
21.561022
21.561854
21.563432
21.565997
21.567632
21.568087
21.566601
21.56634
21.545556
21.688171
21.713565
21.711271
21.711472
21.711323
21.709637
21.706387
21.70441
21.703364
21.702948
21.702948
21.703363
21.70441
21.706387
21.709637
21.711323
21.711471
21.711271
21.713565
21.68817
21.847148
21.88065
21.877467
21.876594
21.877003
21.875239
21.871116
21.868646
21.867299
21.86692
21.86692
21.867299
21.868645
21.871115
21.875239
21.877003
21.876594
21.877467
21.880651
21.847148
22.01841
22.064451
22.062616
22.06119
22.062484
22.060523
22.05524
22.052168
22.050388
22.050183
22.050183
22.050388
22.052168
22.05524
22.060523
22.062484
22.06119
22.062617
22.064451
22.01841
22.196734
22.260803
22.263141
22.262089
22.264721
22.262338
22.255516
22.251723
22.249315
22.249487
22.249487
22.249315
22.251723
22.255516
22.262338
22.264721
22.262089
22.263142
22.260803
22.196734
22.375785
22.464496
22.474398
22.475086
22.47963
22.4765
22.467708
22.463073
22.459777
22.460578
22.460578
22.459777
22.463072
22.467708
22.4765
22.47963
22.475086
22.474398
22.464496
22.375785
22.548746
22.669839
22.691306
22.695549
22.702686
22.698442
22.687263
22.681667
22.677189
22.678895
22.678895
22.677188
22.681666
22.687262
22.698441
22.702686
22.695549
22.691306
22.669839
22.548745
22.707924
22.870386
22.908141
22.918168
22.928712
22.922992
22.909067
22.902396
22.896466
22.899342
22.899342
22.896466
22.902395
22.909066
22.922991
22.928711
22.918167
22.90814
22.870385
22.707923
22.844748
23.058736
23.118343
23.136749
23.151718
23.14422
23.127264
23.119409
23.111878
23.116133
23.116133
23.111877
23.119408
23.127263
23.144219
23.151717
23.136749
23.118342
23.058736
22.844746
22.949777
23.226834
23.314961
23.344751
23.365488
23.356007
23.335785
23.326638
23.317547
23.323314
23.323314
23.317546
23.326636
23.335784
23.356005
23.365486
23.34475
23.31496
23.226833
22.949776
23.011672
23.365065
23.489661
23.534413
23.56265
23.551172
23.527503
23.516959
23.50658
23.513901
23.513901
23.506579
23.516958
23.527502
23.55117
23.562649
23.534412
23.48966
23.365064
23.011671
23.016882
23.462033
23.632532
23.696732
23.73456
23.721396
23.694204
23.682157
23.670963
23.679778
23.679778
23.670962
23.682155
23.694202
23.721394
23.734558
23.696731
23.63253
23.462033
23.016882
22.948404
23.503861
23.731627
23.821135
23.871035
23.857022
23.826451
23.812791
23.801392
23.811544
23.811544
23.80139
23.812789
23.826449
23.85702
23.871033
23.821134
23.731627
23.503861
22.948406
22.784534
23.472767
23.771769
23.894224
23.959162
23.945923
23.912462
23.897082
23.886112
23.897359
23.897359
23.886111
23.89708
23.91246
23.945921
23.95916
23.894223
23.771769
23.47277
22.784539
22.49679
23.345126
23.7331
23.89827
23.982124
23.972245
23.936803
23.919594
23.909595
23.921616
23.921615
23.909593
23.919592
23.936801
23.972243
23.982123
23.898271
23.733102
23.345132
22.496801
22.047828
23.089012
23.588765
23.808884
23.917325
23.914554
23.878264
23.859107
23.850419
23.862825
23.862825
23.850418
23.859106
23.878263
23.914553
23.917325
23.808886
23.58877
23.089024
22.047848
21.3897
22.661935
23.302755
23.593032
23.734109
23.743754
23.707945
23.686359
23.679052
23.69139
23.691389
23.679052
23.686358
23.707944
23.743755
23.734111
23.593037
23.302765
22.661956
21.389733
20.462255
22.009434
22.827441
23.206785
23.391009
23.420362
23.387134
23.361919
23.355784
23.367537
23.367537
23.355784
23.361919
23.387135
23.420364
23.391013
23.206794
22.827458
22.009469
20.462307
19.198596
21.064847
22.100843
22.592481
22.833211
22.891509
22.863693
22.834488
22.829077
22.839676
22.839676
22.829078
22.834489
22.863696
22.891513
22.833219
22.592495
22.100869
21.0649
19.198673
17.540636
19.754005
21.047003
21.677728
21.991582
22.088225
22.070965
22.040386
22.035079
22.04389
22.043891
22.035081
22.040389
22.07097
22.088233
21.991595
21.67775
21.047041
19.754081
17.540743
15.465422
18.013278
19.585658
20.378845
20.786214
20.930906
20.932478
20.906241
20.900379
20.906704
20.906705
20.900382
20.906246
20.932486
20.930918
20.786232
20.378875
19.58571
18.013376
15.46556
13.025894
15.821776
17.655391
18.623947
19.139537
19.345334
19.374393
19.358786
19.351736
19.354822
19.354824
19.351741
19.358793
19.374404
19.34535
19.139561
18.623986
17.655456
15.821892
13.026054
10.302385
13.213444
15.248992
16.386655
17.013702
17.291465
17.352435
17.35676
17.348081
17.347305
17.347306
17.348087
17.35677
17.352448
17.291484
17.013731
16.3867
15.249066
13.213572
10.302561
7.5075769
10.299724
12.456988
13.724646
14.445785
14.782211
14.871664
14.918708
14.908242
14.903317
14.903319
14.908248
14.918719
14.871679
14.782231
14.445816
13.724695
12.457067
10.299861
7.5077738
5.1732749
7.5353107
9.402863
10.557573
11.229298
11.623802
11.719052
11.775111
11.761032
11.751977
11.751979
11.761037
11.77512
11.719064
11.623819
11.229326
10.557617
9.4029396
7.5354461
5.1734786
)
;

boundaryField
{
    Wall
    {
        type            zeroGradient;
    }
    frontAndBack
    {
        type            empty;
    }
    atmosphere
    {
        type            zeroGradient;
    }
}


// ************************************************************************* //
