/*--------------------------------*- C++ -*----------------------------------*\
| =========                 |                                                 |
| \\      /  F ield         | OpenFOAM: The Open Source CFD Toolbox           |
|  \\    /   O peration     | Version:  3.0.1                                 |
|   \\  /    A nd           | Web:      www.OpenFOAM.org                      |
|    \\/     M anipulation  |                                                 |
\*---------------------------------------------------------------------------*/
FoamFile
{
    version     2.0;
    format      ascii;
    class       volScalarField;
    location    "36";
    object      mThree;
}
// * * * * * * * * * * * * * * * * * * * * * * * * * * * * * * * * * * * * * //

dimensions      [0 0 0 0 0 0 0];

internalField   nonuniform List<scalar> 
800
(
1.0518489e-22
1.0521084e-22
1.0521228e-22
1.0521094e-22
1.0520992e-22
1.0520934e-22
1.0520905e-22
1.0520893e-22
1.0520887e-22
1.0520886e-22
1.0520886e-22
1.0520887e-22
1.0520893e-22
1.0520905e-22
1.0520934e-22
1.0520992e-22
1.0521095e-22
1.0521228e-22
1.0521084e-22
1.0518489e-22
1.0493007e-22
1.0505554e-22
1.050885e-22
1.0509725e-22
1.050988e-22
1.0509839e-22
1.0509764e-22
1.0509703e-22
1.0509664e-22
1.0509645e-22
1.0509646e-22
1.0509664e-22
1.0509703e-22
1.0509764e-22
1.0509839e-22
1.050988e-22
1.0509724e-22
1.0508849e-22
1.0505553e-22
1.0493006e-22
1.0459619e-22
1.0479548e-22
1.0486192e-22
1.0487991e-22
1.0488344e-22
1.0488292e-22
1.0488165e-22
1.0488059e-22
1.0487991e-22
1.0487958e-22
1.0487958e-22
1.0487991e-22
1.0488058e-22
1.0488164e-22
1.0488291e-22
1.0488343e-22
1.048799e-22
1.0486191e-22
1.0479547e-22
1.0459616e-22
1.0462116e-22
1.0485869e-22
1.049511e-22
1.0497508e-22
1.0497927e-22
1.0497825e-22
1.0497642e-22
1.0497499e-22
1.049741e-22
1.0497369e-22
1.0497369e-22
1.049741e-22
1.0497498e-22
1.0497641e-22
1.0497825e-22
1.0497926e-22
1.0497507e-22
1.0495109e-22
1.0485867e-22
1.0462113e-22
1.0513692e-22
1.0537656e-22
1.054848e-22
1.0551121e-22
1.0551439e-22
1.0551228e-22
1.0550973e-22
1.0550795e-22
1.055069e-22
1.0550644e-22
1.0550644e-22
1.055069e-22
1.0550794e-22
1.0550973e-22
1.0551227e-22
1.0551438e-22
1.055112e-22
1.0548479e-22
1.0537654e-22
1.0513688e-22
1.0622995e-22
1.064329e-22
1.0654494e-22
1.065697e-22
1.0656969e-22
1.0656557e-22
1.0656197e-22
1.0655974e-22
1.0655853e-22
1.0655803e-22
1.0655803e-22
1.0655853e-22
1.0655974e-22
1.0656197e-22
1.0656557e-22
1.0656968e-22
1.0656969e-22
1.0654493e-22
1.0643288e-22
1.0622992e-22
1.0798943e-22
1.0811275e-22
1.082144e-22
1.0823273e-22
1.0822686e-22
1.0821954e-22
1.0821437e-22
1.0821148e-22
1.0821004e-22
1.0820948e-22
1.0820948e-22
1.0821004e-22
1.0821148e-22
1.0821437e-22
1.0821954e-22
1.0822686e-22
1.0823273e-22
1.0821439e-22
1.0811274e-22
1.079894e-22
1.1051298e-22
1.1050858e-22
1.1058264e-22
1.1058894e-22
1.1057413e-22
1.1056211e-22
1.1055467e-22
1.1055082e-22
1.1054902e-22
1.1054835e-22
1.1054835e-22
1.1054902e-22
1.1055083e-22
1.1055467e-22
1.1056211e-22
1.1057413e-22
1.1058894e-22
1.1058264e-22
1.1050857e-22
1.1051297e-22
1.1391946e-22
1.1372952e-22
1.1375378e-22
1.1374133e-22
1.1371413e-22
1.1369564e-22
1.1368508e-22
1.1367987e-22
1.1367753e-22
1.136767e-22
1.136767e-22
1.1367753e-22
1.1367988e-22
1.1368509e-22
1.1369565e-22
1.1371413e-22
1.1374134e-22
1.1375379e-22
1.1372953e-22
1.1391946e-22
1.1835592e-22
1.1791828e-22
1.1786464e-22
1.1782536e-22
1.1778211e-22
1.1775516e-22
1.1774037e-22
1.1773325e-22
1.1773013e-22
1.1772903e-22
1.1772903e-22
1.1773013e-22
1.1773326e-22
1.1774038e-22
1.1775518e-22
1.1778212e-22
1.1782538e-22
1.1786466e-22
1.179183e-22
1.1835593e-22
1.2395195e-22
1.2320472e-22
1.2304007e-22
1.2296468e-22
1.2290214e-22
1.2286484e-22
1.2284441e-22
1.2283463e-22
1.2283038e-22
1.2282888e-22
1.2282888e-22
1.2283039e-22
1.2283464e-22
1.2284443e-22
1.2286487e-22
1.2290216e-22
1.2296471e-22
1.230401e-22
1.2320475e-22
1.2395198e-22
1.3080624e-22
1.2970644e-22
1.2939323e-22
1.2927145e-22
1.2918738e-22
1.2913846e-22
1.2911081e-22
1.2909755e-22
1.2909185e-22
1.2908979e-22
1.290898e-22
1.2909186e-22
1.2909757e-22
1.2911084e-22
1.2913849e-22
1.2918742e-22
1.292715e-22
1.2939328e-22
1.2970649e-22
1.3080628e-22
1.3902501e-22
1.3749364e-22
1.3699263e-22
1.3681287e-22
1.3670527e-22
1.3664377e-22
1.3660703e-22
1.3658926e-22
1.3658178e-22
1.3657897e-22
1.3657897e-22
1.3658179e-22
1.3658928e-22
1.3660707e-22
1.3664382e-22
1.3670532e-22
1.3681293e-22
1.3699269e-22
1.374937e-22
1.3902507e-22
1.4873772e-22
1.4670725e-22
1.4597534e-22
1.4572314e-22
1.4559019e-22
1.4551527e-22
1.4546715e-22
1.4544338e-22
1.4543372e-22
1.4542987e-22
1.4542988e-22
1.4543374e-22
1.4544341e-22
1.4546719e-22
1.4551533e-22
1.4559025e-22
1.4572321e-22
1.4597542e-22
1.4670733e-22
1.4873779e-22
1.60098e-22
1.5750588e-22
1.5649865e-22
1.5615614e-22
1.5599636e-22
1.5590751e-22
1.5584496e-22
1.5581311e-22
1.5580068e-22
1.5579546e-22
1.5579547e-22
1.5580071e-22
1.5581315e-22
1.5584501e-22
1.5590758e-22
1.5599643e-22
1.5615623e-22
1.5649874e-22
1.5750597e-22
1.600981e-22
1.7327088e-22
1.7005655e-22
1.6873205e-22
1.6827807e-22
1.6809068e-22
1.6798767e-22
1.6790606e-22
1.678634e-22
1.6784707e-22
1.6784041e-22
1.6784042e-22
1.678471e-22
1.6786345e-22
1.6790612e-22
1.6798775e-22
1.6809077e-22
1.6827817e-22
1.6873216e-22
1.7005667e-22
1.7327101e-22
1.8835024e-22
1.8446793e-22
1.8279158e-22
1.8220445e-22
1.8199126e-22
1.8187413e-22
1.8176697e-22
1.8171048e-22
1.8168845e-22
1.816813e-22
1.8168131e-22
1.8168848e-22
1.8171053e-22
1.8176704e-22
1.8187421e-22
1.8199136e-22
1.8220456e-22
1.827917e-22
1.8446805e-22
1.8835038e-22
2.0540442e-22
2.0082952e-22
1.9877622e-22
1.9803508e-22
1.9780032e-22
1.9766726e-22
1.9752477e-22
1.9745085e-22
1.9741999e-22
1.9741517e-22
1.9741518e-22
1.9742002e-22
1.974509e-22
1.9752484e-22
1.9766735e-22
1.9780042e-22
1.980352e-22
1.9877635e-22
2.0082965e-22
2.0540457e-22
2.2449792e-22
2.192298e-22
2.1678327e-22
2.1587039e-22
2.1562091e-22
2.1546611e-22
2.1527414e-22
2.1517849e-22
2.1513347e-22
2.1513657e-22
2.1513658e-22
2.151335e-22
2.1517854e-22
2.1527421e-22
2.154662e-22
2.1562102e-22
2.1587051e-22
2.1678341e-22
2.1922994e-22
2.2449807e-22
2.4569883e-22
2.3976438e-22
2.3691761e-22
2.3582112e-22
2.3556659e-22
2.3537838e-22
2.3511801e-22
2.3499562e-22
2.3492787e-22
2.3494795e-22
2.3494796e-22
2.349279e-22
2.3499568e-22
2.3511809e-22
2.3537848e-22
2.3556671e-22
2.3582126e-22
2.3691776e-22
2.3976454e-22
2.4569899e-22
2.6899936e-22
2.6246765e-22
2.5922346e-22
2.5793988e-22
2.5769205e-22
2.5745215e-22
2.5710031e-22
2.5694543e-22
2.568423e-22
2.5689193e-22
2.5689194e-22
2.5684233e-22
2.5694548e-22
2.5710038e-22
2.5745224e-22
2.5769215e-22
2.5794001e-22
2.592236e-22
2.6246779e-22
2.689995e-22
2.9439619e-22
2.8738885e-22
2.8376342e-22
2.8229774e-22
2.8206892e-22
2.8175289e-22
2.8128412e-22
2.8109059e-22
2.8093614e-22
2.8103105e-22
2.8103106e-22
2.8093616e-22
2.8109064e-22
2.8128419e-22
2.8175298e-22
2.8206903e-22
2.8229786e-22
2.8376355e-22
2.8738898e-22
2.9439631e-22
3.2187258e-22
3.1457283e-22
3.1060135e-22
3.0896671e-22
3.0877054e-22
3.083489e-22
3.077367e-22
3.0749805e-22
3.0727542e-22
3.0743357e-22
3.0743358e-22
3.0727544e-22
3.0749809e-22
3.0773675e-22
3.0834896e-22
3.0877062e-22
3.089668e-22
3.1060145e-22
3.1457292e-22
3.2187266e-22
3.512686e-22
3.439504e-22
3.3969866e-22
3.3791376e-22
3.3776742e-22
3.3720599e-22
3.3642327e-22
3.3613311e-22
3.3582943e-22
3.3606954e-22
3.3606954e-22
3.3582944e-22
3.3613314e-22
3.364233e-22
3.3720604e-22
3.3776748e-22
3.3791382e-22
3.3969873e-22
3.4395046e-22
3.5126864e-22
3.8239601e-22
3.7543566e-22
3.7101663e-22
3.6910756e-22
3.6903725e-22
3.6829718e-22
3.6731472e-22
3.6696706e-22
3.6657858e-22
3.6691898e-22
3.6691899e-22
3.6657858e-22
3.6696706e-22
3.6731473e-22
3.6829721e-22
3.6903728e-22
3.691076e-22
3.7101666e-22
3.7543567e-22
3.8239599e-22
4.1488357e-22
4.088031e-22
4.0439178e-22
4.0239672e-22
4.0243959e-22
4.0148122e-22
4.0026871e-22
3.9985929e-22
3.9939675e-22
3.9985461e-22
3.9985462e-22
3.9939674e-22
3.9985928e-22
4.0026869e-22
4.0148121e-22
4.0243959e-22
4.0239671e-22
4.0439176e-22
4.0880306e-22
4.148835e-22
4.4809849e-22
4.436227e-22
4.3947805e-22
4.3746638e-22
4.3766716e-22
4.3645615e-22
4.3498498e-22
4.3451135e-22
4.3400205e-22
4.3459214e-22
4.3459214e-22
4.3400202e-22
4.3451132e-22
4.3498494e-22
4.364561e-22
4.3766711e-22
4.3746633e-22
4.3947798e-22
4.4362261e-22
4.4809838e-22
4.8112815e-22
4.7925977e-22
4.7575678e-22
4.7385651e-22
4.7426242e-22
4.7277977e-22
4.7103004e-22
4.7049169e-22
4.6997905e-22
4.7071307e-22
4.7071307e-22
4.6997902e-22
4.7049165e-22
4.7102997e-22
4.7277969e-22
4.7426234e-22
4.7385642e-22
4.7575666e-22
4.7925964e-22
4.8112803e-22
5.125698e-22
5.1468726e-22
5.1237888e-22
5.1081044e-22
5.1147337e-22
5.097356e-22
5.0770829e-22
5.07109e-22
5.0665011e-22
5.0753674e-22
5.0753674e-22
5.0665008e-22
5.0710894e-22
5.077082e-22
5.0973549e-22
5.1147325e-22
5.1081031e-22
5.1237873e-22
5.1468712e-22
5.1256973e-22
5.4040898e-22
5.4835651e-22
5.480701e-22
5.4717162e-22
5.4816585e-22
5.4623664e-22
5.4395949e-22
5.4330557e-22
5.4296418e-22
5.4400797e-22
5.4400797e-22
5.4296415e-22
5.4330551e-22
5.4395939e-22
5.4623653e-22
5.4816572e-22
5.4717148e-22
5.4806995e-22
5.4835642e-22
5.4040906e-22
5.6178311e-22
5.7794378e-22
5.8090134e-22
5.8116215e-22
5.8264498e-22
5.8065213e-22
5.7816623e-22
5.774661e-22
5.7730525e-22
5.785061e-22
5.7850609e-22
5.7730522e-22
5.7746605e-22
5.7816614e-22
5.8065202e-22
5.8264486e-22
5.8116203e-22
5.8090125e-22
5.7794387e-22
5.6178352e-22
5.7281705e-22
6.0009674e-22
6.0805849e-22
6.1016539e-22
6.1242216e-22
6.1058904e-22
6.0794021e-22
6.0717125e-22
6.0724406e-22
6.0859518e-22
6.0859518e-22
6.0724405e-22
6.0717122e-22
6.0794015e-22
6.1058897e-22
6.124221e-22
6.1016537e-22
6.0805856e-22
6.0009717e-22
5.7281805e-22
5.685771e-22
6.1034051e-22
6.2565022e-22
6.3055301e-22
6.3399809e-22
6.3267551e-22
6.2995065e-22
6.2901164e-22
6.2935311e-22
6.3083831e-22
6.3083832e-22
6.2935314e-22
6.2901166e-22
6.2995067e-22
6.3267553e-22
6.3399815e-22
6.3055318e-22
6.2565059e-22
6.1034156e-22
5.6857901e-22
5.4380001e-22
6.0321918e-22
6.2861201e-22
6.3756482e-22
6.4274435e-22
6.4240246e-22
6.3970801e-22
6.3852768e-22
6.3914748e-22
6.4073745e-22
6.4073748e-22
6.3914756e-22
6.3852779e-22
6.3970815e-22
6.4240263e-22
6.4274462e-22
6.3756529e-22
6.2861287e-22
6.0322117e-22
5.4380317e-22
4.9476493e-22
5.7313624e-22
6.1107779e-22
6.2552435e-22
6.3311798e-22
6.3415595e-22
6.3173066e-22
6.3044971e-22
6.3132409e-22
6.329711e-22
6.3297115e-22
6.3132423e-22
6.3044994e-22
6.3173095e-22
6.3415633e-22
6.3311854e-22
6.2552525e-22
6.1107931e-22
5.731394e-22
4.9476947e-22
4.219171e-22
5.1661579e-22
5.6782516e-22
5.8873274e-22
5.9960632e-22
6.022776e-22
6.0055644e-22
5.9954754e-22
6.0061529e-22
6.0224792e-22
6.0224799e-22
6.0061551e-22
5.9954791e-22
6.0055692e-22
6.0227822e-22
5.9960722e-22
5.8873413e-22
5.6782741e-22
5.1662001e-22
4.2192271e-22
3.3259086e-22
4.3561659e-22
4.9710058e-22
5.24298e-22
5.3868552e-22
5.4339575e-22
5.4278236e-22
5.4230768e-22
5.4346215e-22
5.4498287e-22
5.4498297e-22
5.4346243e-22
5.4230817e-22
5.4278299e-22
5.4339659e-22
5.3868671e-22
5.2429979e-22
4.9710338e-22
4.3562137e-22
3.3259666e-22
2.3630312e-22
3.3779252e-22
4.0362499e-22
4.3538381e-22
4.5254021e-22
4.5929804e-22
4.59827e-22
4.6033249e-22
4.614406e-22
4.6274481e-22
4.6274492e-22
4.6144091e-22
4.6033303e-22
4.598277e-22
4.5929898e-22
4.5254152e-22
4.3538575e-22
4.0362792e-22
3.3779714e-22
2.3630841e-22
1.4896408e-22
2.3458081e-22
2.9876686e-22
3.3197761e-22
3.5023529e-22
3.5798938e-22
3.5925212e-22
3.6152282e-22
3.6245082e-22
3.6345582e-22
3.6345592e-22
3.6245112e-22
3.6152332e-22
3.5925276e-22
3.5799025e-22
3.5023649e-22
3.3197936e-22
2.9876947e-22
2.3458489e-22
1.4896885e-22
9.1130167e-23
1.4777429e-22
1.9254776e-22
2.1689673e-22
2.3034168e-22
2.3941377e-22
2.4053046e-22
2.4283428e-22
2.4338382e-22
2.4399169e-22
2.4399176e-22
2.4338401e-22
2.428346e-22
2.4053086e-22
2.3941432e-22
2.3034247e-22
2.1689793e-22
1.9254971e-22
1.4777752e-22
9.1134326e-23
)
;

boundaryField
{
    Wall
    {
        type            zeroGradient;
    }
    frontAndBack
    {
        type            empty;
    }
    atmosphere
    {
        type            zeroGradient;
    }
}


// ************************************************************************* //
