/*--------------------------------*- C++ -*----------------------------------*\
| =========                 |                                                 |
| \\      /  F ield         | OpenFOAM: The Open Source CFD Toolbox           |
|  \\    /   O peration     | Version:  3.0.1                                 |
|   \\  /    A nd           | Web:      www.OpenFOAM.org                      |
|    \\/     M anipulation  |                                                 |
\*---------------------------------------------------------------------------*/
FoamFile
{
    version     2.0;
    format      ascii;
    class       volScalarField;
    location    "36";
    object      mTwo;
}
// * * * * * * * * * * * * * * * * * * * * * * * * * * * * * * * * * * * * * //

dimensions      [0 0 0 0 0 0 0];

internalField   nonuniform List<scalar> 
800
(
4.8071582e-11
4.807946e-11
4.8079894e-11
4.8079486e-11
4.8079172e-11
4.8078995e-11
4.8078907e-11
4.8078867e-11
4.8078851e-11
4.8078845e-11
4.8078846e-11
4.8078851e-11
4.8078867e-11
4.8078907e-11
4.8078995e-11
4.8079173e-11
4.8079487e-11
4.8079895e-11
4.8079461e-11
4.8071582e-11
4.7993824e-11
4.8031906e-11
4.8041922e-11
4.8044581e-11
4.804505e-11
4.8044923e-11
4.8044694e-11
4.8044507e-11
4.8044386e-11
4.8044328e-11
4.8044328e-11
4.8044386e-11
4.8044506e-11
4.8044693e-11
4.8044922e-11
4.804505e-11
4.804458e-11
4.804192e-11
4.8031904e-11
4.7993819e-11
4.7830645e-11
4.7893352e-11
4.7914663e-11
4.7920628e-11
4.7921907e-11
4.7921829e-11
4.7921468e-11
4.7921149e-11
4.7920939e-11
4.7920838e-11
4.7920838e-11
4.7920939e-11
4.7921148e-11
4.7921467e-11
4.7921828e-11
4.7921905e-11
4.7920626e-11
4.791466e-11
4.7893347e-11
4.7830636e-11
4.7719164e-11
4.7797589e-11
4.7828635e-11
4.7837228e-11
4.7839062e-11
4.7838972e-11
4.7838486e-11
4.7838062e-11
4.7837787e-11
4.7837655e-11
4.7837655e-11
4.7837786e-11
4.7838061e-11
4.7838485e-11
4.783897e-11
4.7839059e-11
4.7837224e-11
4.782863e-11
4.7797583e-11
4.7719153e-11
4.7708066e-11
4.7792821e-11
4.7830978e-11
4.7841324e-11
4.7843303e-11
4.7843065e-11
4.7842427e-11
4.784191e-11
4.7841584e-11
4.7841433e-11
4.7841433e-11
4.7841584e-11
4.7841908e-11
4.7842425e-11
4.7843063e-11
4.7843299e-11
4.784132e-11
4.7830973e-11
4.7792814e-11
4.7708055e-11
4.7827499e-11
4.7908308e-11
4.7950323e-11
4.7961353e-11
4.7962897e-11
4.7962273e-11
4.7961395e-11
4.7960762e-11
4.7960385e-11
4.7960218e-11
4.7960218e-11
4.7960385e-11
4.7960761e-11
4.7961394e-11
4.7962271e-11
4.7962894e-11
4.796135e-11
4.7950318e-11
4.7908301e-11
4.7827487e-11
4.8104402e-11
4.8170033e-11
4.8212042e-11
4.8222491e-11
4.8222885e-11
4.8221548e-11
4.822029e-11
4.8219484e-11
4.8219036e-11
4.8218847e-11
4.8218847e-11
4.8219036e-11
4.8219483e-11
4.8220288e-11
4.8221546e-11
4.8222882e-11
4.8222488e-11
4.8212037e-11
4.8170027e-11
4.8104392e-11
4.8564207e-11
4.8602635e-11
4.8640067e-11
4.8648475e-11
4.864691e-11
4.8644464e-11
4.8642637e-11
4.8641572e-11
4.8641014e-11
4.8640789e-11
4.864079e-11
4.8641014e-11
4.8641572e-11
4.8642636e-11
4.8644463e-11
4.8646908e-11
4.8648473e-11
4.8640064e-11
4.8602631e-11
4.8564199e-11
4.9231005e-11
4.9229484e-11
4.9256895e-11
4.9261645e-11
4.9257295e-11
4.9253312e-11
4.9250706e-11
4.9249281e-11
4.9248568e-11
4.9248289e-11
4.924829e-11
4.9248568e-11
4.9249281e-11
4.9250707e-11
4.9253312e-11
4.9257295e-11
4.9261645e-11
4.9256894e-11
4.9229482e-11
4.9231e-11
5.012748e-11
5.007367e-11
5.0084686e-11
5.0083962e-11
5.0076024e-11
5.0070053e-11
5.0066407e-11
5.0064484e-11
5.0063552e-11
5.0063194e-11
5.0063194e-11
5.0063553e-11
5.0064485e-11
5.0066409e-11
5.0070055e-11
5.0076026e-11
5.0083965e-11
5.0084688e-11
5.0073671e-11
5.0127478e-11
5.1268846e-11
5.1152202e-11
5.1139977e-11
5.1131879e-11
5.111972e-11
5.1111379e-11
5.1106397e-11
5.1103814e-11
5.1102585e-11
5.1102113e-11
5.1102114e-11
5.1102587e-11
5.1103816e-11
5.11064e-11
5.1111383e-11
5.1119724e-11
5.1131883e-11
5.1139981e-11
5.1152205e-11
5.1268847e-11
5.266048e-11
5.2475094e-11
5.2432582e-11
5.2415198e-11
5.2398426e-11
5.2387479e-11
5.2380856e-11
5.2377446e-11
5.2375851e-11
5.2375232e-11
5.2375233e-11
5.2375854e-11
5.2377449e-11
5.238086e-11
5.2387484e-11
5.2398432e-11
5.2415205e-11
5.2432589e-11
5.2475101e-11
5.2660485e-11
5.4316761e-11
5.405047e-11
5.3969844e-11
5.3941075e-11
5.3919533e-11
5.39059e-11
5.3897261e-11
5.3892814e-11
5.3890782e-11
5.3889973e-11
5.3889974e-11
5.3890784e-11
5.3892818e-11
5.3897267e-11
5.3905907e-11
5.3919541e-11
5.3941085e-11
5.3969854e-11
5.4050481e-11
5.4316769e-11
5.6245284e-11
5.5892009e-11
5.5766341e-11
5.5723845e-11
5.5697515e-11
5.5681209e-11
5.567012e-11
5.5664348e-11
5.5661795e-11
5.5660735e-11
5.5660737e-11
5.5661799e-11
5.5664353e-11
5.5670128e-11
5.5681218e-11
5.5697525e-11
5.5723857e-11
5.5766354e-11
5.5892022e-11
5.6245296e-11
5.8453313e-11
5.8010058e-11
5.7833578e-11
5.7774712e-11
5.7743762e-11
5.772492e-11
5.7710831e-11
5.7703358e-11
5.7700158e-11
5.7698782e-11
5.7698784e-11
5.7700162e-11
5.7703364e-11
5.771084e-11
5.7724931e-11
5.7743774e-11
5.7774727e-11
5.7833594e-11
5.8010075e-11
5.8453329e-11
6.0946216e-11
6.0412725e-11
6.018164e-11
6.0103566e-11
6.0068414e-11
6.0047244e-11
6.0029371e-11
6.0019715e-11
6.0015636e-11
6.0013937e-11
6.0013939e-11
6.0015641e-11
6.0019723e-11
6.0029382e-11
6.0047257e-11
6.0068429e-11
6.0103583e-11
6.0181659e-11
6.0412745e-11
6.0946238e-11
6.371441e-11
6.3095254e-11
6.2808618e-11
6.2708905e-11
6.2670504e-11
6.2647253e-11
6.2624526e-11
6.2612168e-11
6.2606853e-11
6.260502e-11
6.2605022e-11
6.2606858e-11
6.2612175e-11
6.2624537e-11
6.2647266e-11
6.267052e-11
6.2708923e-11
6.2808638e-11
6.3095275e-11
6.3714432e-11
6.6742946e-11
6.6048268e-11
6.5708236e-11
6.5585218e-11
6.554499e-11
6.5519546e-11
6.5490356e-11
6.5474686e-11
6.5467547e-11
6.5466114e-11
6.5466116e-11
6.5467552e-11
6.5474693e-11
6.5490367e-11
6.5519561e-11
6.5545006e-11
6.5585238e-11
6.5708257e-11
6.6048291e-11
6.6742969e-11
7.0015334e-11
6.9261088e-11
6.8872701e-11
6.8725978e-11
6.8685851e-11
6.8657385e-11
6.8619419e-11
6.8599724e-11
6.8589806e-11
6.8589789e-11
6.8589791e-11
6.8589811e-11
6.8599732e-11
6.8619429e-11
6.8657399e-11
6.8685868e-11
6.8725998e-11
6.8872723e-11
6.9261111e-11
7.0015358e-11
7.351375e-11
7.2722137e-11
7.2293341e-11
7.2124349e-11
7.2086807e-11
7.2053516e-11
7.2003754e-11
7.197924e-11
7.1965075e-11
7.1968047e-11
7.1968049e-11
7.1965079e-11
7.1979248e-11
7.2003766e-11
7.2053532e-11
7.2086825e-11
7.212437e-11
7.2293364e-11
7.2722162e-11
7.3513776e-11
7.7207082e-11
7.6408372e-11
7.5949969e-11
7.5762366e-11
7.5730316e-11
7.5689396e-11
7.5624319e-11
7.5594118e-11
7.5573646e-11
7.5581683e-11
7.5581684e-11
7.557365e-11
7.5594124e-11
7.5624328e-11
7.5689409e-11
7.5730332e-11
7.5762385e-11
7.594999e-11
7.6408394e-11
7.7207103e-11
8.1064598e-11
8.0298162e-11
7.9824349e-11
7.9623993e-11
7.9600546e-11
7.954842e-11
7.9464396e-11
7.9427642e-11
7.9398405e-11
7.9413948e-11
7.9413949e-11
7.9398408e-11
7.9427648e-11
7.9464404e-11
7.9548432e-11
7.960056e-11
7.962401e-11
7.9824368e-11
8.0298181e-11
8.1064615e-11
8.5052147e-11
8.4367365e-11
8.3896613e-11
8.3691463e-11
8.3680112e-11
8.3612773e-11
8.3506352e-11
8.3462191e-11
8.3421785e-11
8.3447414e-11
8.3447415e-11
8.3421786e-11
8.3462194e-11
8.3506357e-11
8.3612781e-11
8.3680123e-11
8.3691475e-11
8.3896626e-11
8.4367378e-11
8.5052156e-11
8.9115324e-11
8.857449e-11
8.8131068e-11
8.7930707e-11
8.7935761e-11
8.7848972e-11
8.771698e-11
8.7664623e-11
8.7611492e-11
8.7649639e-11
8.764964e-11
8.7611492e-11
8.7664624e-11
8.7716983e-11
8.7848977e-11
8.7935767e-11
8.7930715e-11
8.8131076e-11
8.8574497e-11
8.9115327e-11
9.3196187e-11
9.2875456e-11
9.2491786e-11
9.2307769e-11
9.2335277e-11
9.222474e-11
9.2064067e-11
9.200281e-11
9.1936974e-11
9.1989719e-11
9.1989719e-11
9.1936972e-11
9.2002808e-11
9.2064065e-11
9.222474e-11
9.2335279e-11
9.2307772e-11
9.2491787e-11
9.2875456e-11
9.3196183e-11
9.7212739e-11
9.7206909e-11
9.6925271e-11
9.6771969e-11
9.6830054e-11
9.6692103e-11
9.6499845e-11
9.6429227e-11
9.63529e-11
9.6421847e-11
9.6421847e-11
9.6352897e-11
9.6429223e-11
9.649984e-11
9.6692098e-11
9.683005e-11
9.6771965e-11
9.6925266e-11
9.7206903e-11
9.7212729e-11
1.0105164e-10
1.0148006e-10
1.0135502e-10
1.0125242e-10
1.0135082e-10
1.0118342e-10
1.0095728e-10
1.0087703e-10
1.0079466e-10
1.008808e-10
1.0088079e-10
1.0079466e-10
1.0087702e-10
1.0095727e-10
1.0118341e-10
1.0135081e-10
1.0125241e-10
1.0135501e-10
1.0148005e-10
1.0105163e-10
1.0456654e-10
1.0558172e-10
1.0568401e-10
1.0566157e-10
1.0581112e-10
1.0561536e-10
1.053546e-10
1.0526464e-10
1.0518257e-10
1.0528621e-10
1.0528621e-10
1.0518257e-10
1.0526463e-10
1.0535459e-10
1.0561535e-10
1.0581111e-10
1.0566156e-10
1.05684e-10
1.0558171e-10
1.0456653e-10
1.0755519e-10
1.0935288e-10
1.097766e-10
1.0987735e-10
1.100905e-10
1.0987318e-10
1.0958012e-10
1.0948075e-10
1.0940657e-10
1.0952742e-10
1.0952742e-10
1.0940656e-10
1.0948074e-10
1.095801e-10
1.0987317e-10
1.1009049e-10
1.0987733e-10
1.0977658e-10
1.0935287e-10
1.075552e-10
1.0974575e-10
1.1257406e-10
1.1344809e-10
1.1373142e-10
1.1402507e-10
1.1380006e-10
1.134806e-10
1.133723e-10
1.1331369e-10
1.1345085e-10
1.1345085e-10
1.1331369e-10
1.1337228e-10
1.1348059e-10
1.1380005e-10
1.1402506e-10
1.1373141e-10
1.1344808e-10
1.1257407e-10
1.0974578e-10
1.1077122e-10
1.1493737e-10
1.1643884e-10
1.169839e-10
1.1738738e-10
1.1717742e-10
1.1683905e-10
1.1672234e-10
1.166861e-10
1.1683805e-10
1.1683805e-10
1.1668609e-10
1.1672233e-10
1.1683904e-10
1.1717741e-10
1.1738737e-10
1.1698389e-10
1.1643884e-10
1.1493741e-10
1.1077131e-10
1.1015193e-10
1.1601987e-10
1.1838968e-10
1.1930025e-10
1.1986067e-10
1.1970094e-10
1.1935165e-10
1.1922304e-10
1.1921401e-10
1.1937855e-10
1.1937855e-10
1.1921401e-10
1.1922304e-10
1.1935164e-10
1.1970094e-10
1.1986067e-10
1.1930026e-10
1.1838972e-10
1.1601997e-10
1.1015211e-10
1.0728744e-10
1.1527395e-10
1.1882037e-10
1.2023192e-10
1.2101381e-10
1.2095537e-10
1.2060846e-10
1.2045525e-10
1.204757e-10
1.2064981e-10
1.2064981e-10
1.204757e-10
1.2045525e-10
1.2060847e-10
1.2095538e-10
1.2101383e-10
1.2023196e-10
1.1882045e-10
1.1527414e-10
1.0728775e-10
1.0153437e-10
1.1203904e-10
1.1711412e-10
1.1919849e-10
1.2028449e-10
1.2039273e-10
1.2006449e-10
1.1987935e-10
1.1992865e-10
1.2010835e-10
1.2010835e-10
1.1992866e-10
1.1987936e-10
1.2006451e-10
1.2039276e-10
1.2028454e-10
1.1919857e-10
1.1711427e-10
1.1203937e-10
1.0153487e-10
9.2409514e-11
1.0562465e-10
1.1254906e-10
1.1550175e-10
1.1699361e-10
1.1732568e-10
1.1704985e-10
1.1685319e-10
1.1692756e-10
1.1710751e-10
1.1710751e-10
1.1692758e-10
1.1685322e-10
1.1704989e-10
1.1732574e-10
1.169937e-10
1.155019e-10
1.1254931e-10
1.0562514e-10
9.2410224e-11
7.9893135e-11
9.5553747e-11
1.0444633e-10
1.0840833e-10
1.1043289e-10
1.1103192e-10
1.1086739e-10
1.1070891e-10
1.108016e-10
1.1097474e-10
1.1097475e-10
1.1080163e-10
1.1070896e-10
1.1086746e-10
1.1103201e-10
1.1043302e-10
1.0840854e-10
1.0444668e-10
9.5554402e-11
7.9894028e-11
6.4805302e-11
8.1946142e-11
9.2479634e-11
9.7460061e-11
1.0006901e-10
1.0099989e-10
1.0100216e-10
1.0092315e-10
1.010239e-10
1.011811e-10
1.0118112e-10
1.0102394e-10
1.0092322e-10
1.0100225e-10
1.0100002e-10
1.0006919e-10
9.7460332e-11
9.2480069e-11
8.1946899e-11
6.4806272e-11
4.826211e-11
6.559598e-11
7.7054146e-11
8.2866093e-11
8.5988591e-11
8.7273741e-11
8.7451729e-11
8.751831e-11
8.7614915e-11
8.7746655e-11
8.7746669e-11
8.761496e-11
8.7518388e-11
8.7451831e-11
8.7273881e-11
8.5988792e-11
8.2866396e-11
7.7054617e-11
6.5596751e-11
4.8263068e-11
3.2470888e-11
4.7904158e-11
5.9485329e-11
6.5718602e-11
6.9140706e-11
7.0635635e-11
7.0936677e-11
7.1285742e-11
7.1365825e-11
7.1464504e-11
7.1464519e-11
7.136587e-11
7.1285819e-11
7.0936778e-11
7.0635774e-11
6.9140902e-11
6.5718896e-11
5.9485781e-11
4.7904895e-11
3.2471839e-11
2.0969233e-11
3.2252553e-11
4.1082592e-11
4.6081869e-11
4.8853914e-11
5.059842e-11
5.0883457e-11
5.1257798e-11
5.1297716e-11
5.135329e-11
5.1353301e-11
5.1297749e-11
5.1257854e-11
5.0883528e-11
5.0598521e-11
4.8854058e-11
4.6082095e-11
4.1082969e-11
3.2253198e-11
2.0970126e-11
)
;

boundaryField
{
    Wall
    {
        type            zeroGradient;
    }
    frontAndBack
    {
        type            empty;
    }
    atmosphere
    {
        type            zeroGradient;
    }
}


// ************************************************************************* //
