/*--------------------------------*- C++ -*----------------------------------*\
| =========                 |                                                 |
| \\      /  F ield         | OpenFOAM: The Open Source CFD Toolbox           |
|  \\    /   O peration     | Version:  3.0.1                                 |
|   \\  /    A nd           | Web:      www.OpenFOAM.org                      |
|    \\/     M anipulation  |                                                 |
\*---------------------------------------------------------------------------*/
FoamFile
{
    version     2.0;
    format      ascii;
    class       volScalarField;
    location    "36";
    object      muMixture;
}
// * * * * * * * * * * * * * * * * * * * * * * * * * * * * * * * * * * * * * //

dimensions      [1 -1 -1 0 0 0 0];

internalField   nonuniform List<scalar> 
800
(
0.001
0.001
0.001
0.001
0.001
0.001
0.001
0.001
0.001
0.001
0.001
0.001
0.001
0.001
0.001
0.001
0.001
0.001
0.001
0.001
0.001
0.001
0.001
0.001
0.001
0.001
0.001
0.001
0.001
0.001
0.001
0.001
0.001
0.001
0.001
0.001
0.001
0.001
0.001
0.001
0.00099999999
0.00099999999
0.00099999999
0.00099999999
0.00099999999
0.00099999999
0.00099999999
0.00099999999
0.00099999999
0.00099999999
0.00099999999
0.00099999999
0.00099999999
0.00099999999
0.00099999999
0.00099999999
0.00099999999
0.00099999999
0.00099999999
0.00099999999
0.00099999998
0.00099999998
0.00099999998
0.00099999998
0.00099999998
0.00099999998
0.00099999998
0.00099999998
0.00099999998
0.00099999998
0.00099999998
0.00099999998
0.00099999998
0.00099999998
0.00099999998
0.00099999998
0.00099999998
0.00099999998
0.00099999998
0.00099999998
0.00099999997
0.00099999997
0.00099999997
0.00099999997
0.00099999997
0.00099999997
0.00099999997
0.00099999997
0.00099999997
0.00099999997
0.00099999997
0.00099999997
0.00099999997
0.00099999997
0.00099999997
0.00099999997
0.00099999997
0.00099999997
0.00099999997
0.00099999997
0.00099999992
0.00099999993
0.00099999994
0.00099999994
0.00099999994
0.00099999994
0.00099999994
0.00099999994
0.00099999994
0.00099999994
0.00099999994
0.00099999994
0.00099999994
0.00099999994
0.00099999994
0.00099999994
0.00099999994
0.00099999994
0.00099999993
0.00099999992
0.00099999986
0.00099999988
0.00099999989
0.00099999989
0.00099999989
0.00099999989
0.00099999989
0.00099999989
0.00099999989
0.00099999989
0.00099999989
0.00099999989
0.00099999989
0.00099999989
0.00099999989
0.00099999989
0.00099999989
0.00099999989
0.00099999988
0.00099999986
0.00099999977
0.0009999998
0.00099999982
0.00099999982
0.00099999982
0.00099999982
0.00099999982
0.00099999982
0.00099999982
0.00099999982
0.00099999982
0.00099999982
0.00099999982
0.00099999982
0.00099999982
0.00099999982
0.00099999982
0.00099999982
0.0009999998
0.00099999977
0.00099999966
0.0009999997
0.00099999972
0.00099999973
0.00099999973
0.00099999974
0.00099999974
0.00099999974
0.00099999974
0.00099999974
0.00099999974
0.00099999974
0.00099999974
0.00099999974
0.00099999974
0.00099999973
0.00099999973
0.00099999972
0.0009999997
0.00099999966
0.00099999951
0.00099999956
0.0009999996
0.00099999962
0.00099999962
0.00099999962
0.00099999962
0.00099999962
0.00099999962
0.00099999962
0.00099999962
0.00099999962
0.00099999962
0.00099999962
0.00099999962
0.00099999962
0.00099999962
0.0009999996
0.00099999956
0.00099999951
0.00099999932
0.00099999938
0.00099999945
0.00099999948
0.00099999948
0.00099999948
0.00099999948
0.00099999948
0.00099999948
0.00099999948
0.00099999948
0.00099999948
0.00099999948
0.00099999948
0.00099999948
0.00099999948
0.00099999948
0.00099999945
0.00099999938
0.00099999932
0.00099999909
0.00099999919
0.00099999928
0.0009999993
0.00099999931
0.00099999931
0.00099999931
0.00099999931
0.00099999931
0.00099999931
0.00099999931
0.00099999931
0.00099999931
0.00099999931
0.00099999931
0.00099999931
0.0009999993
0.00099999928
0.00099999919
0.00099999909
0.00099999884
0.00099999899
0.00099999904
0.00099999906
0.00099999911
0.00099999911
0.00099999911
0.00099999911
0.00099999912
0.00099999911
0.00099999911
0.00099999912
0.00099999911
0.00099999911
0.00099999911
0.00099999911
0.00099999906
0.00099999904
0.00099999899
0.00099999884
0.00099999854
0.00099999861
0.00099999856
0.00099999883
0.00099999885
0.00099999882
0.00099999892
0.0009999989
0.00099999885
0.00099999879
0.00099999879
0.00099999884
0.0009999989
0.00099999892
0.00099999882
0.00099999885
0.00099999883
0.00099999856
0.00099999861
0.00099999854
0.00099999817
0.00099999791
0.00099999807
0.00099999861
0.00099999847
0.00099999818
0.00099999786
0.00099999834
0.00099999776
0.00099999814
0.00099999814
0.00099999776
0.00099999835
0.00099999789
0.00099999819
0.00099999847
0.00099999861
0.00099999807
0.00099999791
0.00099999817
0.00099999769
0.00099999782
0.00099999823
0.00099999826
0.0009999982
0.00099999787
0.00099999399
0.00099999558
0.00099999668
0.0009999982
0.0009999982
0.00099999668
0.00099999559
0.00099999399
0.00099999786
0.0009999982
0.00099999826
0.00099999823
0.00099999782
0.00099999769
0.00099999722
0.00099999775
0.00099999815
0.00099999793
0.00099999783
0.0009999973
0.00099999393
0.00099999393
0.00099999725
0.0009999982
0.0009999982
0.00099999724
0.00099999391
0.00099999391
0.0009999973
0.00099999783
0.00099999793
0.00099999815
0.00099999775
0.00099999722
0.00099999641
0.00099999637
0.00099999751
0.00099999736
0.0009999959
0.00099999488
0.00099999498
0.00099999537
0.00099999745
0.00099999773
0.00099999774
0.00099999744
0.00099999536
0.00099999495
0.00099999487
0.0009999959
0.00099999736
0.00099999751
0.00099999637
0.00099999641
0.00099999449
0.00099997908
0.00099999169
0.00099998999
0.00099998564
0.00099998699
0.000999996
0.00099999743
0.00099999744
0.00099999706
0.00099999706
0.00099999743
0.00099999742
0.00099999598
0.00099998702
0.00099998564
0.00099999
0.00099999169
0.00099997908
0.00099999449
0.00099997529
0.00099996725
0.00099996845
0.00099996759
0.00099996865
0.00099998131
0.0009999939
0.00099999742
0.00099999743
0.00099999692
0.00099999691
0.00099999742
0.00099999741
0.00099999392
0.00099998131
0.00099996865
0.00099996759
0.00099996845
0.00099996725
0.00099997529
0.00099996725
0.00099996725
0.00099996725
0.00099996725
0.0009999827
0.00099998792
0.00099999452
0.00099999688
0.00099999655
0.00099999618
0.00099999619
0.00099999655
0.00099999689
0.0009999946
0.00099998789
0.0009999827
0.00099996725
0.00099996725
0.00099996725
0.00099996725
0.00099996725
0.00099996725
0.00099996725
0.00099997384
0.00099999513
0.00099999622
0.00099999677
0.00099999683
0.00099998756
0.00099998802
0.00099998804
0.00099998757
0.00099999684
0.00099999679
0.00099999623
0.00099999515
0.00099997383
0.00099996725
0.00099996725
0.00099996725
0.00099996725
0.00099996725
0.00099996725
0.00099999214
0.00099999653
0.00099999661
0.00099999668
0.00099999638
0.00099998666
0.00099998666
0.00099998666
0.00099998666
0.0009999964
0.00099999669
0.00099999662
0.00099999654
0.00099999216
0.00099996725
0.00099996725
0.00099996725
0.00099996725
0.00099996725
0.00099997295
0.00099999535
0.00099999569
0.00099999478
0.00099998775
0.00099998544
0.00099998847
0.00099998666
0.00099998666
0.00099998846
0.00099998541
0.00099998768
0.00099999479
0.0009999957
0.00099999534
0.00099997295
0.00099996725
0.00099996725
0.00099996725
0.00099996725
0.00099998757
0.00099999395
0.00099998358
0.00099998219
0.00099998145
0.00099998145
0.00099998932
0.00099998866
0.00099998867
0.00099998931
0.00099998144
0.00099998144
0.00099998219
0.00099998356
0.00099999396
0.00099998757
0.00099996725
0.00099996725
0.00099996725
0.00099996725
0.00099998725
0.00099998148
0.00099998145
0.00099998145
0.00099998145
0.00099998145
0.0009999888
0.00099998953
0.00099998953
0.00099998884
0.00099998144
0.00099998144
0.00099998144
0.00099998144
0.00099998148
0.00099998725
0.00099996725
0.00099996725
0.00099997061
0.00099997718
0.00099998077
0.00099998791
0.00099998145
0.00099998145
0.00099998145
0.00099998145
0.00099998145
0.00099998953
0.00099998953
0.00099998144
0.00099998144
0.00099998144
0.00099998144
0.00099998144
0.0009999879
0.00099998077
0.00099997719
0.00099997061
0.00099998867
0.00099998887
0.00099998079
0.00099998887
0.00099998145
0.00099998145
0.00099998145
0.00099998145
0.00099998145
0.00099998953
0.00099998953
0.00099998144
0.00099998144
0.00099998144
0.00099998144
0.00099998144
0.00099998887
0.0009999808
0.00099998887
0.00099998866
0.00099998887
0.00099998887
0.00099998097
0.00099998887
0.00099998145
0.00099998145
0.00099998145
0.00099998145
0.00099998643
0.00099998521
0.00099998517
0.00099998641
0.00099998144
0.00099998144
0.00099998144
0.00099998144
0.00099998887
0.00099998097
0.00099998887
0.00099998887
0.00099998887
0.00099998887
0.0009999875
0.00099998887
0.00099998884
0.00099998579
0.00099998358
0.00099998837
0.00099998887
0.00099998493
0.00099998494
0.00099998887
0.00099998841
0.0009999836
0.00099998578
0.00099998887
0.00099998887
0.00099998749
0.00099998887
0.00099998887
0.00099998887
0.00099998887
0.00099998887
0.00099998887
0.00099998887
0.00099998887
0.00099998887
0.00099998887
0.00099998887
0.00099998589
0.00099998589
0.00099998887
0.00099998887
0.00099998887
0.00099998887
0.00099998887
0.00099998887
0.00099998887
0.00099998887
0.00099998887
0.00099998887
0.00099998887
0.00099998887
0.00099998887
0.00099998887
0.00099998887
0.00099998887
0.00099998887
0.00099998887
0.00099998887
0.00099998887
0.00099998887
0.00099998887
0.00099998887
0.00099998887
0.00099998887
0.00099998887
0.00099998887
0.00099998887
0.00099998887
0.00099998887
0.00099998887
0.00099998887
0.00099998887
0.00099998887
0.00099998887
0.00099998887
0.00099998887
0.00099998887
0.00099998887
0.00099998887
0.00099998887
0.00099998887
0.00099998887
0.00099998887
0.00099998887
0.00099998887
0.00099998887
0.00099998887
0.00099998887
0.00099998887
0.00099998887
0.00099998887
0.00099998887
0.00099998887
0.00099998887
0.00099998887
0.00099998887
0.00099998887
0.00099998887
0.00099998887
0.00099998887
0.00099998887
0.00099998887
0.00099998887
0.00099998887
0.00099998887
0.00099998887
0.00099998887
0.00099998887
0.00099998286
0.00099998887
0.00099998887
0.00099998887
0.00099998887
0.00099998887
0.00099998887
0.00099998887
0.00099998887
0.00099998887
0.00099998887
0.00099998887
0.00099998887
0.00099998887
0.00099998887
0.00099998887
0.00099998887
0.00099998887
0.00099998887
0.00099998287
0.00099981298
0.00099996722
0.00099998887
0.00099998887
0.00099998887
0.00099998887
0.00099998887
0.00099998887
0.00099998887
0.00099998887
0.00099998887
0.00099998887
0.00099998887
0.00099998887
0.00099998887
0.00099998887
0.00099998887
0.00099998887
0.00099996723
0.00099981303
0.0009960258
0.00099954016
0.00099994018
0.00099997306
0.00099997977
0.00099998201
0.00099998285
0.00099998321
0.00099998342
0.00099998351
0.00099998351
0.00099998342
0.00099998321
0.00099998285
0.00099998201
0.00099997977
0.00099997306
0.00099994019
0.00099954027
0.00099602729
0.00084429542
0.00099099791
0.00099889992
0.00099956357
0.00099971127
0.0009997624
0.00099978071
0.00099978925
0.00099979431
0.00099979659
0.00099979659
0.00099979431
0.00099978925
0.00099978071
0.00099976241
0.00099971128
0.00099956361
0.00099890008
0.00099100019
0.000844346
1e-05
0.00075386084
0.00095257962
0.00098113076
0.00098839963
0.00099094388
0.00099195413
0.0009924748
0.00099277137
0.00099290557
0.00099290562
0.00099277153
0.00099247509
0.00099195452
0.00099094446
0.00098840063
0.00098113289
0.00095258712
0.00075389649
1e-05
1e-05
1e-05
1e-05
1e-05
1e-05
0.00053062396
0.00054294763
0.0005498009
0.00055388594
0.00055576808
0.0005557688
0.00055388814
0.00054980486
0.00054295273
0.00053063089
1e-05
1e-05
1e-05
1e-05
1e-05
)
;

boundaryField
{
    Wall
    {
        type            zeroGradient;
    }
    frontAndBack
    {
        type            empty;
    }
    atmosphere
    {
        type            zeroGradient;
    }
}


// ************************************************************************* //
