/*--------------------------------*- C++ -*----------------------------------*\
| =========                 |                                                 |
| \\      /  F ield         | OpenFOAM: The Open Source CFD Toolbox           |
|  \\    /   O peration     | Version:  3.0.1                                 |
|   \\  /    A nd           | Web:      www.OpenFOAM.org                      |
|    \\/     M anipulation  |                                                 |
\*---------------------------------------------------------------------------*/
FoamFile
{
    version     2.0;
    format      ascii;
    class       volScalarField;
    location    "36";
    object      mZero;
}
// * * * * * * * * * * * * * * * * * * * * * * * * * * * * * * * * * * * * * //

dimensions      [0 0 0 0 0 0 0];

internalField   nonuniform List<scalar> 
800
(
1e+13
1e+13
1e+13
1e+13
1e+13
1e+13
1e+13
1e+13
1e+13
1e+13
1e+13
1e+13
1e+13
1e+13
1e+13
1e+13
1e+13
1e+13
1e+13
1e+13
1e+13
1e+13
1e+13
1e+13
1e+13
1e+13
1e+13
1e+13
1e+13
1e+13
1e+13
1e+13
1e+13
1e+13
1e+13
1e+13
1e+13
1e+13
1e+13
1e+13
9.9620341e+12
9.9634231e+12
9.9641336e+12
9.9644421e+12
9.9645727e+12
9.9646244e+12
9.9646417e+12
9.9646453e+12
9.9646446e+12
9.9646435e+12
9.9646435e+12
9.9646445e+12
9.9646452e+12
9.9646416e+12
9.9646243e+12
9.9645726e+12
9.9644419e+12
9.9641334e+12
9.9634229e+12
9.9620338e+12
9.8885724e+12
9.8926134e+12
9.8945184e+12
9.8953381e+12
9.8956876e+12
9.8958253e+12
9.8958705e+12
9.895879e+12
9.8958761e+12
9.8958727e+12
9.8958727e+12
9.895876e+12
9.8958789e+12
9.8958703e+12
9.895825e+12
9.8956873e+12
9.8953377e+12
9.8945179e+12
9.8926129e+12
9.8885717e+12
9.786035e+12
9.7937511e+12
9.797171e+12
9.7986314e+12
9.799257e+12
9.7995038e+12
9.7995856e+12
9.7996014e+12
9.7995962e+12
9.79959e+12
9.79959e+12
9.799596e+12
9.7996011e+12
9.7995853e+12
9.7995034e+12
9.7992564e+12
9.7986307e+12
9.7971702e+12
9.7937501e+12
9.7860337e+12
9.6592322e+12
9.671421e+12
9.6765925e+12
9.6787824e+12
9.67972e+12
9.6800902e+12
9.6802139e+12
9.6802384e+12
9.6802311e+12
9.680222e+12
9.680222e+12
9.6802308e+12
9.680238e+12
9.6802133e+12
9.6800895e+12
9.6797192e+12
9.6787814e+12
9.6765913e+12
9.6714196e+12
9.6592304e+12
9.5120114e+12
9.5293032e+12
9.5364011e+12
9.5393813e+12
9.5406509e+12
9.5411501e+12
9.5413171e+12
9.5413501e+12
9.5413401e+12
9.5413278e+12
9.5413277e+12
9.5413398e+12
9.5413496e+12
9.5413164e+12
9.5411492e+12
9.5406498e+12
9.53938e+12
9.5363995e+12
9.5293014e+12
9.5120092e+12
9.3476518e+12
9.3705627e+12
9.3797133e+12
9.3835223e+12
9.3851304e+12
9.3857586e+12
9.3859673e+12
9.3860075e+12
9.3859938e+12
9.3859777e+12
9.3859776e+12
9.3859934e+12
9.3860069e+12
9.3859665e+12
9.3857575e+12
9.3851291e+12
9.3835207e+12
9.3797115e+12
9.3705606e+12
9.3476492e+12
9.168922e+12
9.1978843e+12
9.2091833e+12
9.2138474e+12
9.2157951e+12
9.2165505e+12
9.2168005e+12
9.2168475e+12
9.21683e+12
9.2168102e+12
9.2168101e+12
9.2168296e+12
9.2168468e+12
9.2167995e+12
9.2165492e+12
9.2157936e+12
9.2138456e+12
9.2091812e+12
9.1978819e+12
9.1689191e+12
8.978407e+12
9.0137826e+12
9.0273024e+12
9.0328273e+12
9.0350996e+12
9.0359697e+12
9.0362535e+12
9.0363027e+12
9.0362786e+12
9.0362537e+12
9.0362535e+12
9.0362781e+12
9.0363019e+12
9.0362523e+12
9.0359683e+12
9.0350979e+12
9.0328253e+12
9.0273e+12
9.01378e+12
8.9784038e+12
8.778363e+12
8.8204594e+12
8.8362757e+12
8.842676e+12
8.8452673e+12
8.8462483e+12
8.8465657e+12
8.846618e+12
8.8465878e+12
8.8465581e+12
8.8465579e+12
8.8465873e+12
8.846617e+12
8.8465644e+12
8.8462467e+12
8.8452654e+12
8.8426738e+12
8.8362732e+12
8.8204567e+12
8.7783598e+12
8.5707348e+12
8.6198293e+12
8.6380056e+12
8.6452797e+12
8.6481726e+12
8.6492526e+12
8.6495975e+12
8.6496494e+12
8.6496106e+12
8.6495748e+12
8.6495747e+12
8.64961e+12
8.6496484e+12
8.6495961e+12
8.6492509e+12
8.6481706e+12
8.6452774e+12
8.638003e+12
8.6198265e+12
8.5707316e+12
8.3574255e+12
8.4137473e+12
8.4343561e+12
8.4425054e+12
8.4456849e+12
8.4468539e+12
8.447221e+12
8.4472698e+12
8.4472195e+12
8.4471766e+12
8.4471764e+12
8.4472189e+12
8.4472687e+12
8.4472195e+12
8.4468521e+12
8.4456828e+12
8.442503e+12
8.4343534e+12
8.4137445e+12
8.3574223e+12
8.140033e+12
8.2037968e+12
8.2269337e+12
8.2359698e+12
8.239427e+12
8.2406789e+12
8.2410642e+12
8.2411085e+12
8.2410445e+12
8.2409933e+12
8.2409931e+12
8.2410439e+12
8.2411075e+12
8.2410628e+12
8.2406771e+12
8.2394249e+12
8.2359674e+12
8.2269311e+12
8.203794e+12
8.1400299e+12
7.9198737e+12
7.9912778e+12
8.0170743e+12
8.0270246e+12
8.0307597e+12
8.0320919e+12
8.0324925e+12
8.0325317e+12
8.0324523e+12
8.0323916e+12
8.0323914e+12
8.0324517e+12
8.0325307e+12
8.032491e+12
8.0320901e+12
8.0307577e+12
8.0270223e+12
8.0170718e+12
7.9912752e+12
7.9198708e+12
7.6976293e+12
7.7769187e+12
7.8055493e+12
7.8164691e+12
7.8204971e+12
7.8219132e+12
7.8223284e+12
7.8223638e+12
7.8222694e+12
7.822198e+12
7.8221978e+12
7.8222687e+12
7.8223627e+12
7.8223268e+12
7.8219113e+12
7.820495e+12
7.8164667e+12
7.8055467e+12
7.7769161e+12
7.6976263e+12
7.4747143e+12
7.5621067e+12
7.5937812e+12
7.605732e+12
7.6100624e+12
7.6115555e+12
7.6119748e+12
7.612001e+12
7.6118891e+12
7.6118043e+12
7.611804e+12
7.6118884e+12
7.6119999e+12
7.6119734e+12
7.6115538e+12
7.6100605e+12
7.6057298e+12
7.5937788e+12
7.5621043e+12
7.4747116e+12
7.2521746e+12
7.3478688e+12
7.382841e+12
7.3959168e+12
7.4005737e+12
7.4021394e+12
7.4025512e+12
7.4025613e+12
7.4024307e+12
7.4023299e+12
7.4023296e+12
7.40243e+12
7.4025602e+12
7.4025498e+12
7.4021377e+12
7.4005718e+12
7.3959148e+12
7.3828388e+12
7.3478665e+12
7.2521722e+12
7.030653e+12
7.1348806e+12
7.1734662e+12
7.1878012e+12
7.1928229e+12
7.1944568e+12
7.1948456e+12
7.194829e+12
7.1946783e+12
7.1945591e+12
7.1945589e+12
7.1946777e+12
7.194828e+12
7.1948443e+12
7.1944553e+12
7.1928212e+12
7.1877994e+12
7.1734642e+12
7.1348786e+12
7.0306508e+12
6.810313e+12
6.9233766e+12
6.9659593e+12
6.9817381e+12
6.9871832e+12
6.9888827e+12
6.989229e+12
6.9891705e+12
6.9889965e+12
6.9888561e+12
6.9888559e+12
6.9889959e+12
6.9891695e+12
6.9892277e+12
6.9888812e+12
6.9871814e+12
6.9817363e+12
6.9659573e+12
6.9233747e+12
6.8103108e+12
6.5918996e+12
6.7141171e+12
6.7611602e+12
6.7786175e+12
6.7845649e+12
6.7863295e+12
6.7866103e+12
6.78649e+12
6.7862874e+12
6.786123e+12
6.7861228e+12
6.7862869e+12
6.7864891e+12
6.7866091e+12
6.7863282e+12
6.7845634e+12
6.7786159e+12
6.7611585e+12
6.7141155e+12
6.5918978e+12
6.3755578e+12
6.5072839e+12
6.5593366e+12
6.5787789e+12
6.5853448e+12
6.587184e+12
6.5873748e+12
6.5871673e+12
6.5869263e+12
6.5867331e+12
6.5867329e+12
6.5869258e+12
6.5871664e+12
6.5873737e+12
6.5871828e+12
6.5853434e+12
6.5787775e+12
6.559335e+12
6.5072824e+12
6.3755562e+12
6.1608799e+12
6.3026197e+12
6.3603382e+12
6.3821483e+12
6.3894876e+12
6.3914219e+12
6.3914967e+12
6.3911706e+12
6.3908768e+12
6.3906482e+12
6.3906481e+12
6.3908763e+12
6.3911698e+12
6.3914958e+12
6.3914208e+12
6.3894865e+12
6.3821472e+12
6.3603369e+12
6.3026186e+12
6.1608788e+12
5.9480334e+12
6.1003141e+12
6.1644682e+12
6.1891258e+12
6.1974498e+12
6.1995201e+12
6.1994557e+12
6.1989748e+12
6.1986088e+12
6.1983354e+12
6.1983352e+12
6.1986083e+12
6.1989741e+12
6.1994548e+12
6.1995192e+12
6.1974488e+12
6.1891249e+12
6.1644672e+12
6.1003133e+12
5.9480326e+12
5.7363639e+12
5.8998867e+12
5.9713745e+12
5.9994562e+12
6.0090416e+12
6.0113158e+12
6.0110931e+12
6.0104168e+12
6.0099533e+12
6.0096225e+12
6.0096223e+12
6.0099529e+12
6.0104161e+12
6.0110923e+12
6.011315e+12
6.0090408e+12
5.9994555e+12
5.9713738e+12
5.8998863e+12
5.7363635e+12
5.5252139e+12
5.7008293e+12
5.7807123e+12
5.8129323e+12
5.8241355e+12
5.8267127e+12
5.8263147e+12
5.8253925e+12
5.8247955e+12
5.8243881e+12
5.8243879e+12
5.8247951e+12
5.8253919e+12
5.8263141e+12
5.8267121e+12
5.8241349e+12
5.8129319e+12
5.7807119e+12
5.7008293e+12
5.525214e+12
5.3140086e+12
5.5027037e+12
5.5922175e+12
5.6294397e+12
5.642713e+12
5.6457391e+12
5.6451597e+12
5.6439351e+12
5.6431589e+12
5.6426495e+12
5.6426494e+12
5.6431586e+12
5.6439346e+12
5.6451592e+12
5.6457387e+12
5.6427127e+12
5.6294396e+12
5.5922175e+12
5.5027041e+12
5.3140093e+12
5.1015844e+12
5.3045937e+12
5.4052005e+12
5.4484771e+12
5.4644063e+12
5.4680995e+12
5.4673553e+12
5.4657702e+12
5.4647592e+12
5.4641163e+12
5.4641161e+12
5.4647589e+12
5.4657698e+12
5.4673549e+12
5.4680992e+12
5.4644062e+12
5.4484772e+12
5.4052009e+12
5.3045946e+12
5.1015858e+12
4.8866541e+12
5.1054534e+12
5.2188572e+12
5.2694504e+12
5.2887664e+12
5.2934256e+12
5.292555e+12
5.2905429e+12
5.2892246e+12
5.2884052e+12
5.2884051e+12
5.2892244e+12
5.2905425e+12
5.2925547e+12
5.2934254e+12
5.2887665e+12
5.2694508e+12
5.218858e+12
5.105455e+12
4.8866563e+12
4.6673684e+12
4.9037654e+12
5.0319905e+12
5.0914452e+12
5.1150867e+12
5.1211355e+12
5.1202245e+12
5.1177226e+12
5.1160115e+12
5.1149627e+12
5.1149626e+12
5.1160113e+12
5.1177222e+12
5.1202244e+12
5.1211355e+12
5.115087e+12
5.091446e+12
5.0319918e+12
4.9037677e+12
4.6673715e+12
4.4414352e+12
4.6975806e+12
4.8430489e+12
4.9132493e+12
4.942413e+12
4.9504398e+12
4.9496391e+12
4.9465903e+12
4.9443833e+12
4.9430383e+12
4.9430382e+12
4.9443831e+12
4.94659e+12
4.9496391e+12
4.95044e+12
4.9424136e+12
4.9132504e+12
4.8430508e+12
4.6975839e+12
4.4414396e+12
4.2060927e+12
4.4845321e+12
4.6501295e+12
4.7333798e+12
4.7695985e+12
4.7804188e+12
4.7799847e+12
4.7763509e+12
4.7735281e+12
4.7718027e+12
4.7718026e+12
4.773528e+12
4.7763506e+12
4.7799848e+12
4.7804191e+12
4.7695993e+12
4.7333814e+12
4.6501322e+12
4.4845367e+12
4.2060987e+12
3.957992e+12
4.2616587e+12
4.4508058e+12
4.5499236e+12
4.5951824e+12
4.609939e+12
4.610293e+12
4.6060829e+12
4.6025094e+12
4.6002983e+12
4.6002982e+12
4.6025093e+12
4.6060827e+12
4.6102931e+12
4.6099395e+12
4.5951834e+12
4.5499256e+12
4.4508093e+12
4.261665e+12
3.9580001e+12
3.693135e+12
4.0252468e+12
4.241863e+12
4.3603336e+12
4.4172736e+12
4.4375619e+12
4.4393817e+12
4.4346922e+12
4.4302203e+12
4.4273907e+12
4.4273906e+12
4.4302202e+12
4.434692e+12
4.4393819e+12
4.4375625e+12
4.4172748e+12
4.3603361e+12
4.2418675e+12
4.0252551e+12
3.6931459e+12
3.4068331e+12
3.7705637e+12
4.0190109e+12
4.1612354e+12
4.2333832e+12
4.2614525e+12
4.2658103e+12
4.2608736e+12
4.2553481e+12
4.2517298e+12
4.2517297e+12
4.255348e+12
4.2608735e+12
4.2658106e+12
4.2614532e+12
4.2333848e+12
4.1612385e+12
4.0190166e+12
3.7705744e+12
3.4068477e+12
3.0939452e+12
3.4914898e+12
3.7766787e+12
3.9481207e+12
4.0401456e+12
4.0792353e+12
4.0877898e+12
4.0830372e+12
4.0763094e+12
4.0716813e+12
4.0716812e+12
4.0763094e+12
4.0830373e+12
4.0877902e+12
4.0792363e+12
4.0401474e+12
3.9481244e+12
3.7766858e+12
3.4915031e+12
3.0939647e+12
2.7492865e+12
3.1802188e+12
3.5074699e+12
3.7149231e+12
3.8330429e+12
3.8877286e+12
3.9030093e+12
3.8992928e+12
3.8912572e+12
3.8853314e+12
3.8853313e+12
3.8912572e+12
3.8992929e+12
3.9030099e+12
3.8877298e+12
3.8330452e+12
3.7149276e+12
3.5074786e+12
3.1802352e+12
2.7493119e+12
2.3669093e+12
2.8270882e+12
3.2019157e+12
3.45363e+12
3.6060041e+12
3.6827862e+12
3.7086187e+12
3.7073294e+12
3.697983e+12
3.6903918e+12
3.6903917e+12
3.6979831e+12
3.7073297e+12
3.7086195e+12
3.6827877e+12
3.606007e+12
3.4536358e+12
3.2019265e+12
2.8271087e+12
2.3669422e+12
1.9234263e+12
2.4244531e+12
2.8527298e+12
3.1565588e+12
3.3523083e+12
3.4591776e+12
3.5009879e+12
3.5045998e+12
3.4941828e+12
3.4844702e+12
3.4844702e+12
3.4941831e+12
3.5046003e+12
3.500989e+12
3.4591797e+12
3.3523122e+12
3.1565663e+12
2.8527437e+12
2.4244794e+12
1.9234699e+12
1.4445947e+12
1.9992533e+12
2.466831e+12
2.8182011e+12
3.0607076e+12
3.2049554e+12
3.2693584e+12
3.2811314e+12
3.2700558e+12
3.2575332e+12
3.2575333e+12
3.2700563e+12
3.2811322e+12
3.2693597e+12
3.204958e+12
3.0607126e+12
2.8182105e+12
2.4668482e+12
1.9992846e+12
1.4446463e+12
)
;

boundaryField
{
    Wall
    {
        type            zeroGradient;
    }
    frontAndBack
    {
        type            empty;
    }
    atmosphere
    {
        type            zeroGradient;
    }
}


// ************************************************************************* //
