/*--------------------------------*- C++ -*----------------------------------*\
| =========                 |                                                 |
| \\      /  F ield         | OpenFOAM: The Open Source CFD Toolbox           |
|  \\    /   O peration     | Version:  3.0.1                                 |
|   \\  /    A nd           | Web:      www.OpenFOAM.org                      |
|    \\/     M anipulation  |                                                 |
\*---------------------------------------------------------------------------*/
FoamFile
{
    version     2.0;
    format      ascii;
    class       volScalarField;
    location    "36";
    object      node1;
}
// * * * * * * * * * * * * * * * * * * * * * * * * * * * * * * * * * * * * * //

dimensions      [0 0 0 0 0 0 0];

internalField   nonuniform List<scalar> 
800
(
2.1903802e-12
2.1905601e-12
2.1905699e-12
2.1905605e-12
2.1905533e-12
2.1905493e-12
2.1905473e-12
2.1905464e-12
2.190546e-12
2.1905459e-12
2.1905459e-12
2.190546e-12
2.1905464e-12
2.1905473e-12
2.1905493e-12
2.1905533e-12
2.1905605e-12
2.1905699e-12
2.1905601e-12
2.1903802e-12
2.1884403e-12
2.1893238e-12
2.1895554e-12
2.1896169e-12
2.1896278e-12
2.189625e-12
2.1896198e-12
2.1896155e-12
2.1896128e-12
2.1896114e-12
2.1896114e-12
2.1896128e-12
2.1896155e-12
2.1896197e-12
2.189625e-12
2.1896278e-12
2.1896169e-12
2.1895554e-12
2.1893237e-12
2.1884402e-12
2.188773e-12
2.1900739e-12
2.1904885e-12
2.1905921e-12
2.1906072e-12
2.1905998e-12
2.1905897e-12
2.190582e-12
2.1905773e-12
2.1905751e-12
2.1905751e-12
2.1905773e-12
2.190582e-12
2.1905896e-12
2.1905998e-12
2.1906072e-12
2.1905921e-12
2.1904884e-12
2.1900738e-12
2.1887729e-12
2.1942879e-12
2.1956608e-12
2.1961686e-12
2.1962762e-12
2.1962799e-12
2.1962627e-12
2.1962466e-12
2.196236e-12
2.19623e-12
2.1962274e-12
2.1962274e-12
2.19623e-12
2.196236e-12
2.1962466e-12
2.1962627e-12
2.1962799e-12
2.1962762e-12
2.1961685e-12
2.1956607e-12
2.1942878e-12
2.2054536e-12
2.206563e-12
2.2070653e-12
2.2071412e-12
2.2071171e-12
2.2070842e-12
2.2070604e-12
2.2070468e-12
2.20704e-12
2.2070372e-12
2.2070372e-12
2.20704e-12
2.2070468e-12
2.2070604e-12
2.2070842e-12
2.2071171e-12
2.2071412e-12
2.2070653e-12
2.2065629e-12
2.2054535e-12
2.2225402e-12
2.2230459e-12
2.2234354e-12
2.2234422e-12
2.2233717e-12
2.2233154e-12
2.2232812e-12
2.2232639e-12
2.2232561e-12
2.2232533e-12
2.2232533e-12
2.2232561e-12
2.2232639e-12
2.2232812e-12
2.2233154e-12
2.2233717e-12
2.2234422e-12
2.2234354e-12
2.2230459e-12
2.2225402e-12
2.245872e-12
2.2454209e-12
2.245579e-12
2.2454761e-12
2.2453387e-12
2.2452502e-12
2.2452019e-12
2.2451795e-12
2.2451704e-12
2.2451675e-12
2.2451675e-12
2.2451704e-12
2.2451795e-12
2.2452019e-12
2.2452502e-12
2.2453387e-12
2.2454762e-12
2.2455791e-12
2.245421e-12
2.245872e-12
2.275763e-12
2.2739982e-12
2.273795e-12
2.2735385e-12
2.2733129e-12
2.2731824e-12
2.2731156e-12
2.2730864e-12
2.2730752e-12
2.273072e-12
2.273072e-12
2.2730753e-12
2.2730865e-12
2.2731157e-12
2.2731825e-12
2.273313e-12
2.2735387e-12
2.2737952e-12
2.2739984e-12
2.2757631e-12
2.3124591e-12
2.3088718e-12
2.3081822e-12
2.3077292e-12
2.3073974e-12
2.3072165e-12
2.3071273e-12
2.3070893e-12
2.3070752e-12
2.3070713e-12
2.3070713e-12
2.3070753e-12
2.3070894e-12
2.3071274e-12
2.3072167e-12
2.3073976e-12
2.3077294e-12
2.3081825e-12
2.308872e-12
2.3124593e-12
2.3581966e-12
2.3522095e-12
2.3506906e-12
2.3499546e-12
2.3494726e-12
2.3492197e-12
2.3490978e-12
2.3490467e-12
2.3490283e-12
2.3490233e-12
2.3490234e-12
2.3490284e-12
2.3490469e-12
2.349098e-12
2.34922e-12
2.3494729e-12
2.3499549e-12
2.350691e-12
2.3522098e-12
2.358197e-12
2.4137757e-12
2.4048232e-12
2.402241e-12
2.4011606e-12
2.4005147e-12
2.4001809e-12
2.4000177e-12
2.3999489e-12
2.399924e-12
2.399917e-12
2.399917e-12
2.3999241e-12
2.3999491e-12
2.400018e-12
2.4001812e-12
2.4005151e-12
2.401161e-12
2.4022415e-12
2.4048237e-12
2.4137761e-12
2.4797724e-12
2.4675852e-12
2.4636374e-12
2.4621415e-12
2.4613305e-12
2.4609147e-12
2.4607006e-12
2.4606089e-12
2.4605757e-12
2.4605658e-12
2.4605658e-12
2.4605759e-12
2.4606091e-12
2.4607009e-12
2.4609151e-12
2.461331e-12
2.462142e-12
2.4636379e-12
2.4675858e-12
2.479773e-12
2.5566073e-12
2.5403268e-12
2.5347496e-12
2.5327666e-12
2.531798e-12
2.5313062e-12
2.5310307e-12
2.5309103e-12
2.5308676e-12
2.5308537e-12
2.5308538e-12
2.5308678e-12
2.5309105e-12
2.5310311e-12
2.5313066e-12
2.5317986e-12
2.5327672e-12
2.5347503e-12
2.5403275e-12
2.556608e-12
2.6443832e-12
2.62398e-12
2.6164883e-12
2.6139254e-12
2.6128298e-12
2.6122798e-12
2.6119296e-12
2.6117707e-12
2.6117179e-12
2.6116982e-12
2.6116983e-12
2.6117181e-12
2.611771e-12
2.6119301e-12
2.6122803e-12
2.6128304e-12
2.6139261e-12
2.616489e-12
2.6239808e-12
2.644384e-12
2.7430485e-12
2.7186445e-12
2.7090208e-12
2.7057751e-12
2.704615e-12
2.7040445e-12
2.7035972e-12
2.7033868e-12
2.7033243e-12
2.7032973e-12
2.7032974e-12
2.7033245e-12
2.7033872e-12
2.7035977e-12
2.704045e-12
2.7046156e-12
2.7057759e-12
2.7090216e-12
2.7186453e-12
2.7430494e-12
2.8521954e-12
2.8238335e-12
2.8119914e-12
2.8079586e-12
2.8068014e-12
2.8062434e-12
2.8056635e-12
2.8053863e-12
2.8053121e-12
2.8052805e-12
2.8052806e-12
2.8053123e-12
2.8053867e-12
2.8056641e-12
2.806244e-12
2.8068021e-12
2.8079595e-12
2.8119923e-12
2.8238344e-12
2.8521965e-12
2.9708213e-12
2.9385101e-12
2.9244792e-12
2.9195767e-12
2.9184719e-12
2.9179318e-12
2.9171796e-12
2.916822e-12
2.9167295e-12
2.9167078e-12
2.9167079e-12
2.9167298e-12
2.9168223e-12
2.9171801e-12
2.9179324e-12
2.9184726e-12
2.9195775e-12
2.9244801e-12
2.938511e-12
2.9708223e-12
3.0981098e-12
3.0618822e-12
3.0457397e-12
3.0399083e-12
3.0388772e-12
3.0383203e-12
3.0373446e-12
3.0368928e-12
3.0367656e-12
3.0367847e-12
3.0367848e-12
3.0367658e-12
3.0368931e-12
3.0373451e-12
3.0383209e-12
3.038878e-12
3.0399092e-12
3.0457406e-12
3.0618831e-12
3.0981108e-12
3.2334957e-12
3.1934376e-12
3.1752558e-12
3.1684671e-12
3.1675168e-12
3.166871e-12
3.1656027e-12
3.1650417e-12
3.1648475e-12
3.1649564e-12
3.1649565e-12
3.1648477e-12
3.165042e-12
3.1656031e-12
3.1668716e-12
3.1675175e-12
3.168468e-12
3.1752567e-12
3.1934385e-12
3.2334966e-12
3.3765859e-12
3.3328426e-12
3.312672e-12
3.3049338e-12
3.3040675e-12
3.303228e-12
3.3015826e-12
3.3008972e-12
3.3005838e-12
3.300847e-12
3.3008471e-12
3.300584e-12
3.3008975e-12
3.3015831e-12
3.3032287e-12
3.3040683e-12
3.3049346e-12
3.3126729e-12
3.3328435e-12
3.3765869e-12
3.5265881e-12
3.4794184e-12
3.4572754e-12
3.4486244e-12
3.4478374e-12
3.4466767e-12
3.4445664e-12
3.4437401e-12
3.4432359e-12
3.4437252e-12
3.4437253e-12
3.4432361e-12
3.4437404e-12
3.4445669e-12
3.4466773e-12
3.447838e-12
3.4486251e-12
3.4572761e-12
3.4794192e-12
3.5265889e-12
3.6829485e-12
3.6327302e-12
3.608609e-12
3.5990891e-12
3.5983581e-12
3.5967433e-12
3.5940951e-12
3.5931142e-12
3.592343e-12
3.5931282e-12
3.5931283e-12
3.5923432e-12
3.5931144e-12
3.5940955e-12
3.5967437e-12
3.5983587e-12
3.5990897e-12
3.6086097e-12
3.6327308e-12
3.6829491e-12
3.8452874e-12
3.7924844e-12
3.7663736e-12
3.7560105e-12
3.7552983e-12
3.7531025e-12
3.7498649e-12
3.7487185e-12
3.7476227e-12
3.7487617e-12
3.7487617e-12
3.7476228e-12
3.7487187e-12
3.7498652e-12
3.7531028e-12
3.7552987e-12
3.7560109e-12
3.7663741e-12
3.7924848e-12
3.8452877e-12
4.0126697e-12
3.9579065e-12
3.9298369e-12
3.9186083e-12
3.9178812e-12
3.9149841e-12
3.9111198e-12
3.9098031e-12
3.9083727e-12
3.9099036e-12
3.9099036e-12
3.9083727e-12
3.9098032e-12
3.91112e-12
3.9149843e-12
3.9178814e-12
3.9186085e-12
3.9298372e-12
3.9579067e-12
4.0126697e-12
4.184519e-12
4.128515e-12
4.0986056e-12
4.086449e-12
4.0857004e-12
4.0819827e-12
4.0774507e-12
4.0759662e-12
4.0742557e-12
4.0761953e-12
4.0761954e-12
4.0742557e-12
4.0759663e-12
4.0774508e-12
4.0819828e-12
4.0857005e-12
4.086449e-12
4.0986056e-12
4.1285149e-12
4.1845188e-12
4.3597629e-12
4.3034415e-12
4.2719071e-12
4.2587459e-12
4.2579816e-12
4.2533451e-12
4.248104e-12
4.2464691e-12
4.2446017e-12
4.2469493e-12
4.2469494e-12
4.2446017e-12
4.2464692e-12
4.248104e-12
4.253345e-12
4.2579815e-12
4.2587458e-12
4.2719069e-12
4.3034411e-12
4.3597624e-12
4.5366991e-12
4.4813273e-12
4.4484975e-12
4.4343318e-12
4.4335239e-12
4.4279123e-12
4.4219363e-12
4.4201795e-12
4.4183255e-12
4.4210657e-12
4.4210658e-12
4.4183255e-12
4.4201794e-12
4.4219362e-12
4.4279121e-12
4.4335237e-12
4.4343315e-12
4.448497e-12
4.4813266e-12
4.5366983e-12
4.7132565e-12
4.6605754e-12
4.6269263e-12
4.6118972e-12
4.6109431e-12
4.6043656e-12
4.5976745e-12
4.5958361e-12
4.5941855e-12
4.5972953e-12
4.5972953e-12
4.5941854e-12
4.595836e-12
4.5976743e-12
4.6043653e-12
4.6109427e-12
4.6118967e-12
4.6269257e-12
4.6605746e-12
4.7132556e-12
4.8861655e-12
4.8385615e-12
4.804841e-12
4.7892549e-12
4.7879735e-12
4.7805515e-12
4.7732443e-12
4.7713869e-12
4.7701273e-12
4.7735864e-12
4.7735864e-12
4.7701273e-12
4.7713868e-12
4.773244e-12
4.7805511e-12
4.787973e-12
4.7892543e-12
4.8048402e-12
4.8385605e-12
4.8861647e-12
5.0510742e-12
5.0116044e-12
4.9790053e-12
4.9632241e-12
4.9614061e-12
4.9533149e-12
4.9455402e-12
4.9437335e-12
4.9430235e-12
4.946817e-12
4.946817e-12
4.9430235e-12
4.9437334e-12
4.9455399e-12
4.9533145e-12
4.9614056e-12
4.9632234e-12
4.9790044e-12
5.0116035e-12
5.0510737e-12
5.2020361e-12
5.1744812e-12
5.1447624e-12
5.1291504e-12
5.126741e-12
5.1181704e-12
5.1100038e-12
5.108318e-12
5.1082803e-12
5.1124061e-12
5.1124062e-12
5.1082802e-12
5.1083179e-12
5.1100036e-12
5.11817e-12
5.1267405e-12
5.1291498e-12
5.1447615e-12
5.1744805e-12
5.2020361e-12
5.3314791e-12
5.3203079e-12
5.2959969e-12
5.2810075e-12
5.2781286e-12
5.2693074e-12
5.2607235e-12
5.2590896e-12
5.259801e-12
5.2642695e-12
5.2642695e-12
5.259801e-12
5.2590896e-12
5.2607233e-12
5.2693072e-12
5.2781283e-12
5.281007e-12
5.2959964e-12
5.3203079e-12
5.3314803e-12
5.4301533e-12
5.441069e-12
5.4255156e-12
5.4120015e-12
5.4089364e-12
5.4001977e-12
5.3912319e-12
5.3893408e-12
5.3908322e-12
5.3956617e-12
5.3956617e-12
5.3908323e-12
5.3893409e-12
5.391232e-12
5.4001977e-12
5.4089363e-12
5.4120014e-12
5.4255156e-12
5.44107e-12
5.4301561e-12
5.4876988e-12
5.5277981e-12
5.5252889e-12
5.5148507e-12
5.5122038e-12
5.504053e-12
5.4947039e-12
5.4923675e-12
5.4946439e-12
5.4998543e-12
5.4998544e-12
5.4946441e-12
5.4923679e-12
5.4947042e-12
5.5040532e-12
5.5122041e-12
5.5148512e-12
5.5252898e-12
5.5278007e-12
5.4877041e-12
5.4928347e-12
5.5701648e-12
5.5860278e-12
5.5811033e-12
5.579908e-12
5.5727227e-12
5.5632149e-12
5.5606314e-12
5.5636991e-12
5.5693064e-12
5.5693066e-12
5.5636995e-12
5.560632e-12
5.5632155e-12
5.5727234e-12
5.5799089e-12
5.5811046e-12
5.5860299e-12
5.5701696e-12
5.492843e-12
5.4339399e-12
5.5567263e-12
5.5963002e-12
5.5993278e-12
5.6013695e-12
5.5953767e-12
5.5861979e-12
5.5839239e-12
5.5877974e-12
5.5938053e-12
5.5938056e-12
5.587798e-12
5.5839249e-12
5.5861989e-12
5.595378e-12
5.6013712e-12
5.5993302e-12
5.5963039e-12
5.5567336e-12
5.433951e-12
5.3039835e-12
5.4780525e-12
5.5435548e-12
5.5563897e-12
5.5627739e-12
5.5587575e-12
5.5502659e-12
5.5486696e-12
5.5532937e-12
5.5596657e-12
5.559666e-12
5.5532945e-12
5.5486709e-12
5.5502674e-12
5.5587594e-12
5.5627764e-12
5.5563931e-12
5.5435599e-12
5.4780617e-12
5.3039959e-12
5.0796816e-12
5.3252201e-12
5.4176277e-12
5.4409396e-12
5.4517422e-12
5.4501794e-12
5.4420507e-12
5.442119e-12
5.4473248e-12
5.4539725e-12
5.4539729e-12
5.4473257e-12
5.4421206e-12
5.4420525e-12
5.4501817e-12
5.4517453e-12
5.4409438e-12
5.4176337e-12
5.3252299e-12
5.079694e-12
0
5.0761956e-12
5.208513e-12
5.2439386e-12
5.258686e-12
5.2571219e-12
5.2479876e-12
5.2540455e-12
5.2594516e-12
5.2662224e-12
5.2662228e-12
5.2594526e-12
5.2540471e-12
5.2479895e-12
5.2571243e-12
5.2586891e-12
5.2439428e-12
5.208519e-12
5.0762052e-12
0
0
0
0
0
0
4.8884377e-12
4.8753671e-12
4.8824125e-12
4.8872969e-12
4.8939112e-12
4.8939114e-12
4.8872977e-12
4.8824138e-12
4.8753686e-12
4.8884395e-12
0
0
0
0
0
)
;

boundaryField
{
    Wall
    {
        type            zeroGradient;
    }
    frontAndBack
    {
        type            empty;
    }
    atmosphere
    {
        type            zeroGradient;
    }
}


// ************************************************************************* //
