/*--------------------------------*- C++ -*----------------------------------*\
| =========                 |                                                 |
| \\      /  F ield         | OpenFOAM: The Open Source CFD Toolbox           |
|  \\    /   O peration     | Version:  3.0.1                                 |
|   \\  /    A nd           | Web:      www.OpenFOAM.org                      |
|    \\/     M anipulation  |                                                 |
\*---------------------------------------------------------------------------*/
FoamFile
{
    version     2.0;
    format      ascii;
    class       volScalarField;
    location    "36";
    object      node0;
}
// * * * * * * * * * * * * * * * * * * * * * * * * * * * * * * * * * * * * * //

dimensions      [0 0 0 0 0 0 0];

internalField   nonuniform List<scalar> 
800
(
0
0
0
0
0
0
0
0
0
0
0
0
0
0
0
0
0
0
0
0
0
0
0
0
0
0
0
0
0
0
0
0
0
0
0
0
0
0
0
0
0
0
0
0
0
0
0
0
0
0
0
0
0
0
0
0
0
0
0
0
0
0
0
0
0
0
0
0
0
0
0
0
0
0
0
0
0
0
0
0
0
0
0
0
0
0
0
0
0
0
0
0
0
0
0
0
0
0
0
0
0
0
0
0
0
0
0
0
0
0
0
0
0
0
0
0
0
0
0
0
0
0
0
0
0
0
0
0
0
0
0
0
0
0
0
0
0
0
0
0
0
0
0
0
0
0
0
0
0
0
0
0
0
0
0
0
0
0
0
0
0
0
0
0
0
0
0
0
0
0
0
0
0
0
0
0
0
0
0
0
0
0
0
0
0
0
0
0
0
0
0
0
0
0
0
0
0
0
0
0
0
0
0
0
0
0
0
0
0
0
0
0
0
0
0
0
0
0
0
0
1.3946592e-13
0
0
0
0
0
0
0
0
0
0
0
0
0
0
0
0
0
0
1.3946753e-13
6.3294521e-13
4.6723104e-13
4.3588423e-13
4.3166907e-13
4.3491007e-13
4.3662156e-13
4.3605353e-13
4.3579792e-13
4.3580903e-13
4.3580384e-13
4.3580389e-13
4.358092e-13
4.3579824e-13
4.360539e-13
4.3662208e-13
4.349106e-13
4.3166959e-13
4.3588477e-13
4.6723144e-13
6.3294512e-13
9.5158275e-13
8.7596826e-13
8.4982206e-13
8.4565408e-13
8.5188833e-13
8.5540487e-13
8.5470094e-13
8.544571e-13
8.5455713e-13
8.5454489e-13
8.5454487e-13
8.5455709e-13
8.5445706e-13
8.5470082e-13
8.5540476e-13
8.5188815e-13
8.456538e-13
8.4982177e-13
8.7596788e-13
9.5158199e-13
1.1708275e-12
1.1468644e-12
1.1240108e-12
1.1196561e-12
1.1293875e-12
1.1349078e-12
1.1336233e-12
1.1333812e-12
1.1336127e-12
1.1336196e-12
1.1336195e-12
1.1336125e-12
1.133381e-12
1.1336229e-12
1.1349074e-12
1.1293869e-12
1.1196554e-12
1.1240101e-12
1.1468636e-12
1.1708264e-12
1.3258723e-12
1.3277223e-12
1.308095e-12
1.3034016e-12
1.3160386e-12
1.3228275e-12
1.320859e-12
1.3205699e-12
1.3209211e-12
1.3210056e-12
1.3210055e-12
1.3209209e-12
1.3205695e-12
1.3208584e-12
1.3228268e-12
1.3160378e-12
1.3034006e-12
1.308094e-12
1.3277212e-12
1.3258708e-12
1.4489734e-12
1.4617886e-12
1.4450769e-12
1.4398616e-12
1.4540477e-12
1.4610051e-12
1.4585328e-12
1.4581143e-12
1.4585255e-12
1.4587824e-12
1.4587823e-12
1.4585252e-12
1.4581139e-12
1.4585321e-12
1.4610043e-12
1.4540467e-12
1.4398604e-12
1.4450757e-12
1.4617874e-12
1.4489718e-12
1.5657409e-12
1.5807438e-12
1.5660659e-12
1.5602032e-12
1.57447e-12
1.5806752e-12
1.577864e-12
1.5772233e-12
1.5775962e-12
1.5781429e-12
1.5781428e-12
1.5775959e-12
1.5772228e-12
1.5778632e-12
1.5806744e-12
1.574469e-12
1.560202e-12
1.5660647e-12
1.5807425e-12
1.5657392e-12
1.6908763e-12
1.7027791e-12
1.6889936e-12
1.6824696e-12
1.6956718e-12
1.7005168e-12
1.6973951e-12
1.6964431e-12
1.6966421e-12
1.6975917e-12
1.6975916e-12
1.6966418e-12
1.6964426e-12
1.6973943e-12
1.7005159e-12
1.6956708e-12
1.6824684e-12
1.6889924e-12
1.7027778e-12
1.6908745e-12
1.8303614e-12
1.8361427e-12
1.8221386e-12
1.8150432e-12
1.8264851e-12
1.829636e-12
1.8261472e-12
1.8248128e-12
1.8246769e-12
1.8261115e-12
1.8261114e-12
1.8246766e-12
1.8248123e-12
1.8261465e-12
1.8296351e-12
1.8264841e-12
1.815042e-12
1.8221374e-12
1.8361414e-12
1.8303595e-12
1.9850387e-12
1.9832957e-12
1.9681166e-12
1.960554e-12
1.9699045e-12
1.9712417e-12
1.9673218e-12
1.965554e-12
1.964926e-12
1.9668723e-12
1.9668722e-12
1.9649257e-12
1.9655536e-12
1.9673211e-12
1.9712408e-12
1.9699035e-12
1.9605528e-12
1.9681154e-12
1.9832943e-12
1.9850367e-12
2.1535227e-12
2.1439298e-12
2.1268761e-12
2.1189134e-12
2.1260991e-12
2.1256785e-12
2.1213205e-12
2.1191021e-12
2.1178854e-12
2.1203111e-12
2.120311e-12
2.1178852e-12
2.1191016e-12
2.1213198e-12
2.1256777e-12
2.1260982e-12
2.1189122e-12
2.126875e-12
2.1439284e-12
2.1535207e-12
2.3338065e-12
2.3166762e-12
2.2973333e-12
2.2889483e-12
2.2940645e-12
2.2920425e-12
2.2872801e-12
2.2846229e-12
2.2828226e-12
2.2856436e-12
2.2856436e-12
2.2828223e-12
2.2846225e-12
2.2872794e-12
2.2920416e-12
2.2940636e-12
2.2889471e-12
2.2973321e-12
2.3166748e-12
2.3338045e-12
2.5231614e-12
2.4992276e-12
2.4775087e-12
2.4685855e-12
2.4718802e-12
2.4684463e-12
2.4633091e-12
2.4602585e-12
2.4579989e-12
2.4611013e-12
2.4611013e-12
2.4579986e-12
2.4602581e-12
2.4633084e-12
2.4684455e-12
2.4718793e-12
2.4685844e-12
2.4775074e-12
2.4992261e-12
2.5231594e-12
2.719243e-12
2.6894491e-12
2.6655569e-12
2.6559381e-12
2.6577524e-12
2.6530726e-12
2.6475463e-12
2.6441765e-12
2.6416693e-12
2.6449372e-12
2.6449372e-12
2.641669e-12
2.6441761e-12
2.6475457e-12
2.6530718e-12
2.6577515e-12
2.655937e-12
2.6655557e-12
2.6894476e-12
2.7192411e-12
2.9189161e-12
2.8845769e-12
2.8588906e-12
2.8484499e-12
2.8490911e-12
2.8433296e-12
2.8373809e-12
2.8337971e-12
2.8312907e-12
2.8346347e-12
2.8346347e-12
2.8312905e-12
2.8337968e-12
2.8373803e-12
2.8433288e-12
2.8490902e-12
2.8484488e-12
2.8588893e-12
2.8845754e-12
2.9189143e-12
3.1180682e-12
3.0811174e-12
3.0541017e-12
3.0427999e-12
3.0423966e-12
3.0357198e-12
3.029339e-12
3.0256663e-12
3.0233921e-12
3.0267651e-12
3.0267651e-12
3.0233918e-12
3.025666e-12
3.0293385e-12
3.0357191e-12
3.0423957e-12
3.0427988e-12
3.0541004e-12
3.0811159e-12
3.1180665e-12
3.3114908e-12
3.2747546e-12
3.2469461e-12
3.2347248e-12
3.233122e-12
3.225677e-12
3.2189033e-12
3.2152853e-12
3.2134458e-12
3.2168534e-12
3.2168534e-12
3.2134456e-12
3.2152851e-12
3.2189028e-12
3.2256764e-12
3.2331212e-12
3.2347238e-12
3.2469449e-12
3.2747532e-12
3.3114893e-12
3.4913717e-12
3.458999e-12
3.4311709e-12
3.4177231e-12
3.4143996e-12
3.4062709e-12
3.3991552e-12
3.3957534e-12
3.3945492e-12
3.3980543e-12
3.3980543e-12
3.3945491e-12
3.3957532e-12
3.3991548e-12
3.4062703e-12
3.4143989e-12
3.4177222e-12
3.4311698e-12
3.4589978e-12
3.4913707e-12
3.6467534e-12
3.6247022e-12
3.5981378e-12
3.5825869e-12
3.5765832e-12
3.5675811e-12
3.5600427e-12
3.5569951e-12
3.5566511e-12
3.5603641e-12
3.5603641e-12
3.5566511e-12
3.556995e-12
3.5600424e-12
3.5675807e-12
3.5765826e-12
3.5825861e-12
3.5981369e-12
3.6247014e-12
3.6467533e-12
3.7619519e-12
3.7587096e-12
3.7355348e-12
3.7163921e-12
3.7062877e-12
3.6957726e-12
3.6873808e-12
3.6847525e-12
3.6855212e-12
3.689591e-12
3.689591e-12
3.6855212e-12
3.6847526e-12
3.6873808e-12
3.6957724e-12
3.7062874e-12
3.7163918e-12
3.7355343e-12
3.7587096e-12
3.7619531e-12
3.8167378e-12
3.8431863e-12
3.8269181e-12
3.8024659e-12
3.7862501e-12
3.772988e-12
3.7629604e-12
3.7606152e-12
3.7626877e-12
3.7672763e-12
3.7672765e-12
3.7626879e-12
3.7606155e-12
3.7629608e-12
3.7729883e-12
3.7862504e-12
3.8024662e-12
3.8269185e-12
3.8431877e-12
3.8167411e-12
3.7907182e-12
3.8576148e-12
3.8530055e-12
3.8221909e-12
3.7976774e-12
3.7797254e-12
3.7671175e-12
3.764922e-12
3.7682631e-12
3.7735026e-12
3.7735028e-12
3.7682636e-12
3.7649227e-12
3.7671183e-12
3.7797263e-12
3.7976784e-12
3.8221921e-12
3.853007e-12
3.8576183e-12
3.7907243e-12
3.6733203e-12
3.7851125e-12
3.796532e-12
3.7598297e-12
3.7258793e-12
3.7008309e-12
3.6848149e-12
3.683044e-12
3.6872715e-12
3.6932082e-12
3.6932085e-12
3.6872722e-12
3.6830452e-12
3.6848163e-12
3.7008325e-12
3.7258811e-12
3.759832e-12
3.7965351e-12
3.7851186e-12
3.6733296e-12
3.4680671e-12
3.6211856e-12
3.6497639e-12
3.6088807e-12
3.5661846e-12
3.5324662e-12
3.5126334e-12
3.5112458e-12
3.5157375e-12
3.5223081e-12
3.5223085e-12
3.5157385e-12
3.5112475e-12
3.5126353e-12
3.5324685e-12
3.5661872e-12
3.6088841e-12
3.6497686e-12
3.6211942e-12
3.4680789e-12
3.1883382e-12
3.3751234e-12
3.417009e-12
3.3742315e-12
3.323402e-12
3.2818805e-12
3.2573456e-12
3.2551129e-12
3.2592971e-12
3.2663639e-12
3.2663643e-12
3.2592983e-12
3.2551148e-12
3.2573479e-12
3.2818833e-12
3.3234053e-12
3.3742358e-12
3.4170149e-12
3.3751334e-12
3.1883511e-12
2.8534711e-12
3.0585588e-12
3.1088229e-12
3.0662366e-12
3.0074361e-12
2.9582041e-12
2.9270261e-12
2.9245473e-12
2.9279588e-12
2.9353276e-12
2.9353281e-12
2.9279602e-12
2.9245495e-12
2.9270287e-12
2.9582073e-12
3.0074399e-12
3.0662414e-12
3.1088294e-12
3.0585687e-12
2.8534829e-12
2.4606423e-12
2.6846967e-12
2.7376322e-12
2.6943138e-12
2.6280087e-12
2.5733364e-12
2.5334301e-12
2.5284754e-12
2.5305898e-12
2.5380004e-12
2.5380009e-12
2.5305913e-12
2.5284777e-12
2.5334327e-12
2.5733395e-12
2.6280124e-12
2.6943185e-12
2.7376381e-12
2.6847051e-12
2.4606523e-12
0
2.2730718e-12
2.3253997e-12
2.277201e-12
2.2029729e-12
2.1343927e-12
2.0844531e-12
2.0845488e-12
2.0846499e-12
2.0917135e-12
2.0917141e-12
2.0846512e-12
2.0845509e-12
2.0844555e-12
2.1343956e-12
2.202976e-12
2.2772049e-12
2.3254045e-12
2.2730785e-12
0
0
0
0
0
0
1.5909003e-12
1.5309368e-12
1.5174059e-12
1.5143337e-12
1.520357e-12
1.5203574e-12
1.5143347e-12
1.5174074e-12
1.5309385e-12
1.5909023e-12
0
0
0
0
0
)
;

boundaryField
{
    Wall
    {
        type            zeroGradient;
    }
    frontAndBack
    {
        type            empty;
    }
    atmosphere
    {
        type            zeroGradient;
    }
}


// ************************************************************************* //
