/*--------------------------------*- C++ -*----------------------------------*\
| =========                 |                                                 |
| \\      /  F ield         | OpenFOAM: The Open Source CFD Toolbox           |
|  \\    /   O peration     | Version:  3.0.1                                 |
|   \\  /    A nd           | Web:      www.OpenFOAM.org                      |
|    \\/     M anipulation  |                                                 |
\*---------------------------------------------------------------------------*/
FoamFile
{
    version     2.0;
    format      ascii;
    class       surfaceScalarField;
    location    "36";
    object      phi;
}
// * * * * * * * * * * * * * * * * * * * * * * * * * * * * * * * * * * * * * //

dimensions      [0 3 -1 0 0 0 0];

internalField   nonuniform List<scalar> 
1540
(
5.6887296e-10
9.3002291e-09
7.7124628e-10
9.6677073e-09
8.3025744e-10
9.810539e-09
7.9684905e-10
9.9024683e-09
7.063125e-10
9.9592414e-09
5.8356808e-10
9.991225e-09
4.4453572e-10
1.0007382e-08
2.9830417e-10
1.0014508e-08
1.4943524e-10
1.0017107e-08
-1.1679079e-13
1.0017773e-08
-1.496664e-10
1.001777e-08
-2.9852937e-10
1.0017099e-08
-4.4474957e-10
1.0014494e-08
-5.8376455e-10
1.0007362e-08
-7.0648384e-10
9.9911963e-09
-7.9698743e-10
9.9592029e-09
-8.3034998e-10
9.9024183e-09
-7.7128861e-10
9.8104821e-09
-5.6883695e-10
9.6676222e-09
9.3002658e-09
3.4194266e-10
1.9108884e-08
5.9663815e-10
1.9550297e-08
6.9657988e-10
1.9844437e-08
6.9813909e-10
2.0033641e-08
6.3702065e-10
2.0152781e-08
5.3757799e-10
2.0223038e-08
4.1589478e-10
2.0261457e-08
2.8209246e-10
2.0280728e-08
1.422392e-10
2.0289396e-08
-9.1842157e-14
2.0292548e-08
-1.4242019e-10
2.0292543e-08
-2.8226729e-10
2.0289381e-08
-4.1605883e-10
2.0280702e-08
-5.3772812e-10
2.0261418e-08
-6.3715155e-10
2.0222986e-08
-6.9824808e-10
2.0152715e-08
-6.9666627e-10
2.0033562e-08
-5.966937e-10
1.9844344e-08
-3.4197437e-10
1.9550183e-08
1.9108891e-08
3.3683106e-10
2.9150326e-08
5.5319514e-10
2.9693201e-08
6.4808773e-10
3.0102951e-08
6.5514763e-10
3.037838e-08
6.0299486e-10
3.0556375e-08
5.1274629e-10
3.0664727e-08
3.9912295e-10
3.0726588e-08
2.7192647e-10
3.0759489e-08
1.3747776e-10
3.077544e-08
-8.6336012e-14
3.0781721e-08
-1.3764814e-10
3.0781713e-08
-2.7209087e-10
3.0775417e-08
-3.9927856e-10
3.0759449e-08
-5.1288847e-10
3.0726531e-08
-6.0312074e-10
3.0664653e-08
-6.552542e-10
3.0556284e-08
-6.481729e-10
3.0378273e-08
-5.5325638e-10
3.0102827e-08
-3.3687841e-10
2.9693066e-08
2.9150283e-08
3.5511335e-10
3.9351782e-08
5.4991889e-10
4.0031176e-08
6.3252309e-10
4.0545373e-08
6.3532506e-10
4.0898604e-08
5.8374327e-10
4.1130518e-08
4.9652178e-10
4.1274485e-08
3.8689726e-10
4.1358806e-08
2.6388944e-10
4.1405139e-08
1.3352098e-10
4.1428477e-08
-7.411268e-14
4.1437994e-08
-1.336669e-10
4.1437984e-08
-2.6403093e-10
4.1428447e-08
-3.8703093e-10
4.1405088e-08
-4.9664365e-10
4.1358734e-08
-5.8385019e-10
4.1274391e-08
-6.3541369e-10
4.1130403e-08
-6.3259196e-10
4.0898468e-08
-5.4996549e-10
4.0545219e-08
-3.5513223e-10
4.0031004e-08
3.9351713e-08
3.687122e-10
4.9692029e-08
5.5859294e-10
5.0522438e-08
6.3296686e-10
5.1142868e-08
6.3005549e-10
5.1571107e-08
5.7577691e-10
5.1853878e-08
4.8821313e-10
5.2031095e-08
3.7977255e-10
5.2136339e-08
2.5880747e-10
5.2195231e-08
1.3090148e-10
5.2225524e-08
-6.744243e-14
5.2238106e-08
-1.3103482e-10
5.2238095e-08
-2.5893653e-10
5.2225488e-08
-3.7989451e-10
5.2195171e-08
-4.8832486e-10
5.2136254e-08
-5.758758e-10
5.2030984e-08
-6.301389e-10
5.1853742e-08
-6.3303172e-10
5.1570947e-08
-5.5863555e-10
5.1142682e-08
-3.6872666e-10
5.052223e-08
4.9691933e-08
3.8041543e-10
6.0150927e-08
5.6984275e-10
6.1141665e-08
6.3888481e-10
6.1871968e-08
6.3097576e-10
6.2374731e-08
5.7341126e-10
6.2706701e-08
4.8434426e-10
6.2915433e-08
3.758067e-10
6.3040209e-08
2.5570253e-10
6.31107e-08
1.2922287e-10
6.3147374e-08
-6.1727161e-14
6.316276e-08
-1.2934558e-10
6.3162746e-08
-2.5582141e-10
6.3147333e-08
-3.7591947e-10
6.3110632e-08
-4.844485e-10
6.3040113e-08
-5.73505e-10
6.291531e-08
-6.3105584e-10
6.2706549e-08
-6.389499e-10
6.2374552e-08
-5.6989171e-10
6.1871761e-08
-3.804406e-10
6.1141427e-08
6.0150792e-08
3.936547e-10
7.0703746e-08
5.8211556e-10
7.1867442e-08
6.4674138e-10
7.2710103e-08
6.3467313e-10
7.3287063e-08
5.7409157e-10
7.3667241e-08
4.83262e-10
7.3906336e-08
3.7405272e-10
7.4049598e-08
2.5409587e-10
7.4130885e-08
1.2829337e-10
7.4173411e-08
-5.7179451e-14
7.4191342e-08
-1.2840634e-10
7.4191327e-08
-2.542056e-10
7.4173366e-08
-3.741574e-10
7.413081e-08
-4.8335948e-10
7.4049495e-08
-5.7418221e-10
7.3906204e-08
-6.3475534e-10
7.366708e-08
-6.4681477e-10
7.3286874e-08
-5.8217902e-10
7.2709883e-08
-3.9370054e-10
7.1867183e-08
7.0703552e-08
4.147324e-10
8.1332555e-08
5.9394554e-10
8.2699152e-08
6.5399601e-10
8.3648613e-08
6.3877213e-10
8.4297887e-08
5.7594282e-10
8.4725159e-08
4.8363371e-10
8.4993628e-08
3.7364275e-10
8.5154468e-08
2.5348215e-10
8.5245801e-08
1.2788121e-10
8.5293657e-08
-5.4212487e-14
8.5313857e-08
-1.279887e-10
8.5313842e-08
-2.5358654e-10
8.529361e-08
-3.737424e-10
8.5245723e-08
-4.837277e-10
8.515436e-08
-5.7603207e-10
8.4993491e-08
-6.3885664e-10
8.4724995e-08
-6.5408059e-10
8.4297698e-08
-5.9403828e-10
8.3648402e-08
-4.1483586e-10
8.2698902e-08
8.1332247e-08
4.1019155e-10
9.2022564e-08
5.9433023e-10
9.3580498e-08
6.5671104e-10
9.4639769e-08
6.4153303e-10
9.536506e-08
5.7793551e-10
9.5841759e-08
4.8475384e-10
9.6140849e-08
3.7409715e-10
9.6319866e-08
2.535652e-10
9.6421506e-08
1.2784122e-10
9.6474792e-08
-8.1397157e-14
9.6497298e-08
-1.2800355e-10
9.649728e-08
-2.5372314e-10
9.6474741e-08
-3.7424768e-10
9.6421423e-08
-4.8489593e-10
9.6319751e-08
-5.7806864e-10
9.6140707e-08
-6.4166136e-10
9.5841595e-08
-6.5684277e-10
9.5364881e-08
-5.9448934e-10
9.4639591e-08
-4.1043535e-10
9.3580336e-08
9.2022006e-08
3.8077165e-10
1.0276655e-07
5.8835819e-10
1.0446396e-07
6.5840429e-10
1.0564833e-07
6.4494037e-10
1.0645479e-07
5.8111577e-10
1.0698236e-07
4.8716831e-10
1.0731216e-07
3.7570328e-10
1.07509e-07
2.5450637e-10
1.076205e-07
1.2827459e-10
1.0767886e-07
-7.7217563e-14
1.0770349e-07
-1.2842728e-10
1.0770347e-07
-2.5465427e-10
1.076788e-07
-3.7584419e-10
1.0762041e-07
-4.8729878e-10
1.0750888e-07
-5.8123513e-10
1.0731201e-07
-6.4505037e-10
1.0698219e-07
-6.5850811e-10
1.0645461e-07
-5.8846607e-10
1.0564816e-07
-3.8092818e-10
1.0446385e-07
1.0276583e-07
3.8852565e-10
1.1355399e-07
5.9456039e-10
1.1538173e-07
6.649592e-10
1.1668923e-07
6.5126486e-10
1.1757713e-07
5.8655987e-10
1.181563e-07
4.9141339e-10
1.1851722e-07
3.7870305e-10
1.1873196e-07
2.5638461e-10
1.1885322e-07
1.2918794e-10
1.1891649e-07
-3.2292437e-14
1.1894314e-07
-1.2925254e-10
1.1894313e-07
-2.564468e-10
1.1891643e-07
-3.7876094e-10
1.1885312e-07
-4.9146344e-10
1.1873183e-07
-5.8659925e-10
1.1851706e-07
-6.5128922e-10
1.1815611e-07
-6.6496014e-10
1.1757693e-07
-5.9452241e-10
1.1668901e-07
-3.88389e-10
1.1538151e-07
1.1355339e-07
4.0654247e-10
1.2438308e-07
6.0875829e-10
1.2636629e-07
6.7669694e-10
1.2779374e-07
6.6052845e-10
1.2876249e-07
5.9365747e-10
1.2939315e-07
4.9664995e-10
1.2978506e-07
3.8229697e-10
1.3001747e-07
2.5859703e-10
1.301482e-07
1.302475e-10
1.3021616e-07
4.8919131e-15
1.3024471e-07
-1.3023687e-10
1.3024469e-07
-2.5858429e-10
1.302161e-07
-3.8228152e-10
1.301481e-07
-4.9662999e-10
1.3001733e-07
-5.9363204e-10
1.297849e-07
-6.6049085e-10
1.2939295e-07
-6.7663524e-10
1.2876226e-07
-6.0864804e-10
1.2779347e-07
-4.0632856e-10
1.2636595e-07
1.2438269e-07
4.2069471e-10
1.3525622e-07
6.2359344e-10
1.3741453e-07
6.8904458e-10
1.3896321e-07
6.6989694e-10
1.400123e-07
6.0042528e-10
1.406938e-07
5.0134435e-10
1.4111615e-07
3.8532165e-10
1.4136569e-07
2.6033969e-10
1.4150547e-07
1.3100979e-10
1.415778e-07
-4.4708102e-14
1.4160806e-07
-1.3109792e-10
1.4160804e-07
-2.6042337e-10
1.4157774e-07
-3.8539891e-10
1.4150536e-07
-5.0141218e-10
1.4136555e-07
-6.0048216e-10
1.4111597e-07
-6.6994173e-10
1.4069358e-07
-6.8907528e-10
1.4001204e-07
-6.2361174e-10
1.3896291e-07
-4.2070469e-10
1.3741417e-07
1.3525581e-07
4.3695731e-10
1.4618304e-07
6.4005138e-10
1.4851919e-07
7.0298772e-10
1.5019115e-07
6.8060795e-10
1.5132017e-07
6.0801231e-10
1.5205162e-07
5.0632911e-10
1.5250349e-07
3.8836878e-10
1.5276939e-07
2.6201246e-10
1.5291756e-07
1.3171271e-10
1.5299381e-07
-6.5054293e-14
1.5302553e-07
-1.3184052e-10
1.5302551e-07
-2.621369e-10
1.5299374e-07
-3.8848529e-10
1.5291745e-07
-5.0643624e-10
1.5276924e-07
-6.0810899e-10
1.525033e-07
-6.8069616e-10
1.5205139e-07
-7.030758e-10
1.5131991e-07
-6.401628e-10
1.5019087e-07
-4.3713677e-10
1.4851889e-07
1.4618245e-07
4.6262425e-10
1.5717719e-07
6.5785117e-10
1.5971085e-07
7.1718648e-10
1.615002e-07
6.9122987e-10
1.6270764e-07
6.1516041e-10
1.6348756e-07
5.1055284e-10
1.6396762e-07
3.9060651e-10
1.6424878e-07
2.6304054e-10
1.6440443e-07
1.3203651e-10
1.6448395e-07
-5.9659691e-14
1.6451676e-07
-1.3215443e-10
1.6451673e-07
-2.6315459e-10
1.6448387e-07
-3.9071344e-10
1.6440431e-07
-5.1065182e-10
1.6424861e-07
-6.15251e-10
1.6396741e-07
-6.9131395e-10
1.6348732e-07
-7.1726962e-10
1.6270737e-07
-6.5794744e-10
1.6149992e-07
-4.6277984e-10
1.597106e-07
1.5717644e-07
4.6206624e-10
1.6830092e-07
6.672527e-10
1.7100469e-07
7.2768609e-10
1.7291725e-07
7.0002448e-10
1.7420422e-07
6.2084928e-10
1.7503203e-07
5.1327752e-10
1.7553895e-07
3.9140125e-10
1.7583396e-07
2.6295862e-10
1.7599582e-07
1.3173163e-10
1.760777e-07
-3.4647071e-14
1.7611112e-07
-1.3180065e-10
1.761111e-07
-2.6302535e-10
1.7607763e-07
-3.914637e-10
1.759957e-07
-5.1333449e-10
1.7583379e-07
-6.208991e-10
1.7553874e-07
-7.0006303e-10
1.7503178e-07
-7.277088e-10
1.7420392e-07
-6.6724381e-10
1.7291693e-07
-4.6197814e-10
1.7100435e-07
1.6830027e-07
4.7083633e-10
1.7958384e-07
6.8035716e-10
1.8244181e-07
7.3819738e-10
1.8447977e-07
7.066201e-10
1.8584588e-07
6.2322892e-10
1.8671955e-07
5.1239248e-10
1.8725091e-07
3.8889544e-10
1.875575e-07
2.6042807e-10
1.8772368e-07
1.3008631e-10
1.8780662e-07
5.4653068e-15
1.8783996e-07
-1.3007524e-10
1.8783994e-07
-2.6041581e-10
1.8780655e-07
-3.8888219e-10
1.8772355e-07
-5.1237757e-10
1.8755734e-07
-6.2321236e-10
1.872507e-07
-7.0659994e-10
1.8671929e-07
-7.3816518e-10
1.8584558e-07
-6.8029048e-10
1.8447942e-07
-4.7070248e-10
1.8244141e-07
1.7958334e-07
4.9904071e-10
1.9104814e-07
6.9967595e-10
1.9407439e-07
7.468538e-10
1.9623286e-07
7.0778149e-10
1.9767317e-07
6.1886134e-10
1.985881e-07
5.0470955e-10
1.9913985e-07
3.8046041e-10
1.9945458e-07
2.5361159e-10
1.9962234e-07
1.2610504e-10
1.9970449e-07
-5.0078168e-14
1.9973676e-07
-1.2620455e-10
1.9973674e-07
-2.5370893e-10
1.9970441e-07
-3.8055516e-10
1.9962222e-07
-5.0479954e-10
1.9945442e-07
-6.1894544e-10
1.9913963e-07
-7.0785789e-10
1.9858784e-07
-7.4692489e-10
1.9767288e-07
-6.9974742e-10
1.9623253e-07
-4.9912649e-10
1.9407402e-07
1.9104758e-07
5.3447638e-10
2.027295e-07
7.1891461e-10
2.0594963e-07
7.5160159e-10
2.0821841e-07
7.0240186e-10
2.097266e-07
6.0650475e-10
2.1067677e-07
4.887936e-10
2.1124339e-07
3.6478006e-10
2.1156152e-07
2.4155109e-10
2.1172709e-07
1.1937008e-10
2.1180579e-07
-4.8977316e-14
2.1183562e-07
-1.1946824e-10
2.118356e-07
-2.4164772e-10
2.1180572e-07
-3.648739e-10
2.1172697e-07
-4.8888419e-10
2.1156135e-07
-6.0659129e-10
2.1124318e-07
-7.0248543e-10
2.1067652e-07
-7.5168427e-10
2.0972632e-07
-7.1900774e-10
2.0821811e-07
-5.3460799e-10
2.0594933e-07
2.0272883e-07
5.3984147e-10
2.1470833e-07
7.2450902e-10
2.1809798e-07
7.4418464e-10
2.2047932e-07
6.8425981e-10
2.2205063e-07
5.8078978e-10
2.2302961e-07
4.6000327e-10
2.2360443e-07
3.3807983e-10
2.239198e-07
2.2155232e-10
2.2407813e-07
1.0852585e-10
2.2414982e-07
-3.256181e-14
2.2417531e-07
-1.0858964e-10
2.2417529e-07
-2.2161535e-10
2.2414975e-07
-3.3814206e-10
2.2407801e-07
-4.6006331e-10
2.2391964e-07
-5.8084689e-10
2.2360422e-07
-6.8431396e-10
2.2302937e-07
-7.4423189e-10
2.2205036e-07
-7.2454074e-10
2.2047902e-07
-5.3982702e-10
2.1809765e-07
2.147077e-07
5.5344433e-10
2.2703157e-07
7.2565876e-10
2.3058311e-07
7.245831e-10
2.3307232e-07
6.4908945e-10
2.3469829e-07
5.3592177e-10
2.3569645e-07
4.1248494e-10
2.3627009e-07
2.9538409e-10
2.3657435e-07
1.8996861e-10
2.3671861e-07
9.1700011e-11
2.3677842e-07
-5.8507079e-15
2.3679701e-07
-9.1712485e-11
2.3679698e-07
-1.8998066e-10
2.3677835e-07
-2.9539562e-10
2.367185e-07
-4.1249526e-10
2.3657419e-07
-5.3593201e-10
2.3626989e-07
-6.4909927e-10
2.3569622e-07
-7.2458951e-10
2.3469802e-07
-7.2565557e-10
2.3307202e-07
-5.5342086e-10
2.3058278e-07
2.2703096e-07
5.8224994e-10
2.397437e-07
7.2027617e-10
2.434826e-07
6.8710695e-10
2.4606258e-07
5.8942518e-10
2.4772894e-07
4.6376699e-10
2.4873211e-07
3.3850915e-10
2.4929161e-07
2.301667e-10
2.4957335e-07
1.4203497e-10
2.4969434e-07
6.6408371e-11
2.4973567e-07
-3.4076929e-14
2.497439e-07
-6.6476447e-11
2.4974387e-07
-1.4210111e-10
2.497356e-07
-2.3022992e-10
2.4969422e-07
-3.3856688e-10
2.4957319e-07
-4.6381985e-10
2.4929141e-07
-5.894751e-10
2.4873188e-07
-6.871555e-10
2.4772868e-07
-7.203277e-10
2.460623e-07
-5.8230919e-10
2.4348227e-07
2.3974302e-07
5.805683e-10
2.5294733e-07
6.9192753e-10
2.5685449e-07
6.2001805e-10
2.595202e-07
4.947869e-10
2.6121016e-07
3.5434613e-10
2.6220047e-07
2.2886609e-10
2.6272896e-07
1.3465655e-10
2.6297293e-07
7.2024596e-11
2.6305849e-07
2.970965e-11
2.6307266e-07
-3.1349516e-14
2.630659e-07
-2.9772152e-11
2.6306587e-07
-7.208404e-11
2.6307258e-07
-1.3471139e-10
2.6305836e-07
-2.2891304e-10
2.6297276e-07
-3.5438607e-10
2.6272875e-07
-4.948209e-10
2.6220022e-07
-6.2004652e-10
2.6120989e-07
-6.9195362e-10
2.595199e-07
-5.8059505e-10
2.5685416e-07
2.5294659e-07
5.7875868e-10
2.667188e-07
6.3810664e-10
2.7079556e-07
5.1426772e-10
2.7352797e-07
3.5253505e-10
2.7521904e-07
1.9400252e-10
2.7617291e-07
7.0170496e-11
2.7664811e-07
-1.9939574e-12
2.7683244e-07
-2.7907524e-11
2.7686692e-07
-2.2389613e-11
2.7684232e-07
-2.363649e-15
2.7681471e-07
2.2386582e-11
2.7681468e-07
2.7908909e-11
2.7684223e-07
2.0011393e-12
2.7686678e-07
-7.0150894e-11
2.7683225e-07
-1.9397951e-10
2.7664789e-07
-3.5251023e-10
2.7617265e-07
-5.1423895e-10
2.7521875e-07
-6.3807679e-10
2.7352765e-07
-5.7873048e-10
2.707952e-07
2.6671806e-07
5.5591567e-10
2.8116573e-07
5.4506947e-10
2.8540427e-07
3.5122629e-10
2.8818181e-07
1.4248346e-10
2.8984317e-07
-3.6250744e-11
2.9072794e-07
-1.4999196e-10
2.9111689e-07
-1.9368856e-10
2.9122138e-07
-1.6767667e-10
2.9118022e-07
-9.4978979e-11
2.9110098e-07
-2.0282076e-14
2.9104539e-07
9.4934904e-11
2.9104536e-07
1.6762992e-10
2.911009e-07
1.9366187e-10
2.9118006e-07
1.4996771e-10
2.9122119e-07
3.6258737e-11
2.9111663e-07
-1.4246352e-10
2.9072765e-07
-3.5118635e-10
2.8984284e-07
-5.450125e-10
2.8818144e-07
-5.5585488e-10
2.8540385e-07
2.8116501e-07
4.9967113e-10
2.9642218e-07
3.9498252e-10
3.0079803e-07
1.0822183e-10
3.0359468e-07
-1.5728442e-10
3.0518248e-07
-3.6406357e-10
3.0596271e-07
-4.6973798e-10
3.0622659e-07
-4.6411973e-10
3.0620795e-07
-3.6293713e-10
3.0606397e-07
-1.9761866e-10
3.0591171e-07
7.0098301e-16
3.058161e-07
1.9762448e-10
3.0581606e-07
3.6295408e-10
3.0591161e-07
4.6414453e-10
3.060638e-07
4.6978743e-10
3.0620773e-07
3.6413028e-10
3.0622632e-07
1.5736015e-10
3.059624e-07
-1.0813425e-10
3.0518211e-07
-3.9487022e-10
3.0359425e-07
-4.9955162e-10
3.0079756e-07
2.9642155e-07
4.1138981e-10
3.126273e-07
1.7231027e-10
3.1712017e-07
-2.2970285e-10
3.198886e-07
-5.8372473e-10
3.2137009e-07
-8.2379361e-10
3.219824e-07
-9.0902427e-10
3.2206518e-07
-8.3695901e-10
3.2187575e-07
-6.3290333e-10
3.21591e-07
-3.3794653e-10
3.2133728e-07
3.5921114e-15
3.2118902e-07
3.3795483e-10
3.2118898e-07
6.3291754e-10
3.2133718e-07
8.3699188e-10
3.2159082e-07
9.0908249e-10
3.2187551e-07
8.2387162e-10
3.2206488e-07
5.8385714e-10
3.2198203e-07
2.2983969e-10
3.213697e-07
-1.7217851e-10
3.1988814e-07
-4.112662e-10
3.1711967e-07
3.1262677e-07
2.6975432e-10
3.2995848e-07
-1.6214289e-10
3.3454611e-07
-7.3901419e-10
3.3723806e-07
-1.1910018e-09
3.3853137e-07
-1.4654992e-09
3.389019e-07
-1.5161319e-09
3.3873355e-07
-1.3475425e-09
3.3831031e-07
-9.9823773e-10
3.3783442e-07
-5.2826737e-10
3.3744703e-07
-1.1888063e-14
3.372288e-07
5.2824794e-10
3.3722876e-07
9.9823907e-10
3.3744691e-07
1.3475561e-09
3.3783424e-07
1.5161697e-09
3.3831005e-07
1.4655745e-09
3.3873322e-07
1.1910791e-09
3.3890152e-07
7.3910835e-10
3.3853094e-07
1.6222312e-10
3.3723759e-07
-2.6970627e-10
3.3454559e-07
3.2995799e-07
5.7576668e-11
3.4861477e-07
-6.4402597e-10
3.5327662e-07
-1.4472004e-09
3.5582234e-07
-2.0379207e-09
3.5683362e-07
-2.3554925e-09
3.5685849e-07
-2.3475764e-09
3.5633765e-07
-2.0400001e-09
3.5560005e-07
-1.4917564e-09
3.5487165e-07
-7.8421478e-10
3.5430885e-07
-2.336805e-14
3.5400026e-07
7.8417332e-10
3.5400022e-07
1.4917359e-09
3.5430871e-07
2.0399951e-09
3.5487146e-07
2.3475994e-09
3.5559978e-07
2.3555388e-09
3.5633731e-07
2.0379953e-09
3.5685808e-07
1.4472766e-09
3.5683318e-07
6.4408532e-10
3.5582186e-07
-5.7568632e-11
3.5327613e-07
3.4861432e-07
-2.5700297e-10
3.6883309e-07
-1.3367117e-09
3.7355844e-07
-2.45126e-09
3.7585967e-07
-3.2213504e-09
3.7645632e-07
-3.5772466e-09
3.7599259e-07
-3.4760344e-09
3.7499016e-07
-2.9699745e-09
3.7383236e-07
-2.1490757e-09
3.7277646e-07
-1.1238098e-09
3.7198931e-07
-4.1457293e-14
3.7156687e-07
1.123726e-09
3.7156682e-07
2.1490132e-09
3.7198916e-07
2.9699486e-09
3.7277624e-07
3.4760496e-09
3.7383206e-07
3.5773018e-09
3.7498979e-07
3.221418e-09
3.7599217e-07
2.4513169e-09
3.7645588e-07
1.3367283e-09
3.7585921e-07
2.5697348e-10
3.7355798e-07
3.6883263e-07
-7.4007346e-10
3.9091348e-07
-2.339404e-09
3.9566988e-07
-3.8747247e-09
3.9760438e-07
-4.8696113e-09
3.9759984e-07
-5.2500355e-09
3.9645408e-07
-4.992845e-09
3.9479859e-07
-4.2014513e-09
3.9309203e-07
-3.0106758e-09
3.916212e-07
-1.5663803e-09
3.9055679e-07
-6.9087742e-14
3.8999589e-07
1.5662543e-09
3.8999584e-07
3.0105536e-09
3.9055664e-07
4.2013788e-09
3.9162094e-07
4.9928234e-09
3.9309169e-07
5.2500743e-09
3.9479817e-07
4.8696926e-09
3.9645362e-07
3.8748118e-09
3.9759938e-07
2.3394372e-09
3.9760394e-07
7.4006311e-10
3.9566944e-07
3.9091305e-07
-1.4437698e-09
4.1517634e-07
-3.7974354e-09
4.1995477e-07
-5.8972935e-09
4.2134103e-07
-7.1563145e-09
4.2046746e-07
-7.5159951e-09
4.1837452e-07
-7.0051402e-09
4.1585515e-07
-5.8046535e-09
4.1345325e-07
-4.1182507e-09
4.1147417e-07
-2.1307932e-09
4.100821e-07
-1.1389738e-13
4.0936137e-07
2.1305754e-09
4.0936131e-07
4.1180671e-09
4.1008192e-07
5.8045265e-09
4.1147387e-07
7.0050845e-09
4.1345285e-07
7.516012e-09
4.1585468e-07
7.1563866e-09
4.1837401e-07
5.8973836e-09
4.2046698e-07
3.7974939e-09
4.213406e-07
1.4437619e-09
4.1995438e-07
4.1517595e-07
-2.494455e-09
4.419729e-07
-5.9262617e-09
4.4678865e-07
-8.7748301e-09
4.4735281e-07
-1.0309711e-08
4.4522127e-07
-1.0546423e-08
4.4183179e-07
-9.6231456e-09
4.3820315e-07
-7.8448074e-09
4.3495656e-07
-5.5022956e-09
4.3239301e-07
-2.8282614e-09
4.3064183e-07
-1.5769017e-13
4.2975141e-07
2.8279571e-09
4.2975134e-07
5.5020269e-09
4.3064163e-07
7.8445939e-09
4.3239266e-07
9.6230203e-09
4.349561e-07
1.0546405e-08
4.3820259e-07
1.030982e-08
4.4183118e-07
8.7750415e-09
4.452207e-07
5.9264588e-09
4.4735236e-07
2.4945129e-09
4.4678836e-07
4.4197262e-07
-4.0819907e-09
4.716608e-07
-9.0651483e-09
4.7653525e-07
-1.2868034e-08
4.7583923e-07
-1.4614381e-08
4.7189528e-07
-1.4514717e-08
4.667714e-07
-1.2933138e-08
4.6178082e-07
-1.0348725e-08
4.5758511e-07
-7.1605392e-09
4.544183e-07
-3.651796e-09
4.52321e-07
-2.2510829e-13
4.5127456e-07
3.651362e-09
4.5127447e-07
7.1601612e-09
4.5232076e-07
1.0348436e-08
4.544179e-07
1.2932983e-08
4.5758457e-07
1.4514703e-08
4.6178018e-07
1.4614508e-08
4.6677071e-07
1.2868287e-08
4.7189463e-07
9.0654596e-09
4.7583874e-07
4.0821781e-09
4.7653505e-07
4.7166083e-07
-6.573084e-09
5.0459553e-07
-1.3760498e-08
5.0942151e-07
-1.8661891e-08
5.067289e-07
-2.0379073e-08
5.0020105e-07
-1.9544278e-08
4.9287988e-07
-1.6931688e-08
4.8636236e-07
-1.3253805e-08
4.8123853e-07
-9.0261732e-09
4.7756025e-07
-4.5606492e-09
4.7520673e-07
-3.0909561e-13
4.7405606e-07
4.5600519e-09
4.7405596e-07
9.0256427e-09
4.7520644e-07
1.3253383e-08
4.7755978e-07
1.693142e-08
4.8123789e-07
1.9544221e-08
4.863616e-07
2.0379278e-08
4.9287904e-07
1.8662368e-08
5.0020026e-07
1.3761094e-08
5.0672837e-07
6.5734538e-09
5.0942147e-07
5.0459615e-07
-1.0765239e-08
5.4140731e-07
-2.0892409e-08
5.451445e-07
-2.677811e-08
5.3927378e-07
-2.7841571e-08
5.2924321e-07
-2.5597508e-08
5.1938878e-07
-2.1431514e-08
5.1146219e-07
-1.6343797e-08
5.0567365e-07
-1.0930665e-08
5.01752e-07
-5.4643845e-09
4.9933913e-07
-3.9749071e-13
4.9818501e-07
5.4636111e-09
4.981849e-07
1.0929957e-08
4.993388e-07
1.6343204e-08
5.0175146e-07
2.1431087e-08
5.0567292e-07
2.5597323e-08
5.1146129e-07
2.7841705e-08
5.1938777e-07
2.6778601e-08
5.2924225e-07
2.0893096e-08
5.392732e-07
1.0765699e-08
5.4514476e-07
5.4140891e-07
-1.8561179e-08
5.8610577e-07
-3.1899065e-08
5.8187076e-07
-3.7860879e-08
5.7124827e-07
-3.6979521e-08
5.5703017e-07
-3.2250502e-08
5.4484743e-07
-2.5951791e-08
5.3629631e-07
-1.9213994e-08
5.3048384e-07
-1.2587178e-08
5.2679072e-07
-6.2178122e-09
5.2464417e-07
-4.7592879e-13
5.2363763e-07
6.2168804e-09
5.2363751e-07
1.2586309e-08
5.2464381e-07
1.9213235e-08
5.2679013e-07
2.5951194e-08
5.3048303e-07
3.2250153e-08
5.3629529e-07
3.6979548e-08
5.4484624e-07
3.7861386e-08
5.5702902e-07
3.1899937e-08
5.7124771e-07
1.8561873e-08
5.818717e-07
5.86108e-07
-3.4305802e-08
6.5086405e-07
-4.8695651e-08
6.2130467e-07
-5.2625521e-08
6.000446e-07
-4.7491663e-08
5.8070927e-07
-3.8696189e-08
5.6719936e-07
-2.981929e-08
5.5953205e-07
-2.1351374e-08
5.5470563e-07
-1.366896e-08
5.5230964e-07
-6.6734671e-09
5.5086422e-07
-5.3984263e-13
5.5016637e-07
6.6724097e-09
5.5016625e-07
1.3667964e-08
5.5086386e-07
2.1350473e-08
5.5230907e-07
2.9818518e-08
5.5470484e-07
3.8695633e-08
5.5953103e-07
4.7491522e-08
5.6719808e-07
5.2626047e-08
5.8070794e-07
4.8696924e-08
6.0004391e-07
3.430631e-08
6.2130654e-07
6.5087193e-07
-7.2884301e-08
7.0036667e-07
-8.4002903e-08
6.592479e-07
-7.7634225e-08
6.3269677e-07
-6.2940009e-08
6.0560163e-07
-4.7920692e-08
5.9120667e-07
-3.4691787e-08
5.8547884e-07
-2.3513494e-08
5.8286251e-07
-1.4815144e-08
5.8185963e-07
-7.1642622e-09
5.8136547e-07
-6.858895e-13
5.81085e-07
7.1629155e-09
5.8108488e-07
1.4813855e-08
5.8136514e-07
2.3512299e-08
5.8185908e-07
3.4690651e-08
5.8286183e-07
4.7919677e-08
5.854779e-07
6.2939336e-08
5.9120533e-07
7.7634436e-08
6.0559986e-07
8.4004789e-08
6.3269572e-07
7.2886636e-08
6.592534e-07
7.0037951e-07
-2.1491532e-07
-2.3709524e-07
-2.0018818e-07
-1.5028488e-07
-1.0637284e-07
-7.0729778e-08
-4.5240954e-08
-2.7484579e-08
-1.2950069e-08
-2.1975109e-12
1.2945668e-08
2.7480209e-08
4.5237116e-08
7.0725988e-08
1.0636932e-07
1.5028195e-07
2.0018729e-07
2.3709863e-07
2.1492446e-07
)
;

boundaryField
{
    Wall
    {
        type            calculated;
        value           uniform 0;
    }
    frontAndBack
    {
        type            empty;
        value           nonuniform 0();
    }
    atmosphere
    {
        type            calculated;
        value           nonuniform List<scalar> 
20
(
9.1340178e-07
7.6680653e-07
8.7853623e-07
1.0055487e-06
1.106589e-06
1.1749968e-06
1.2224361e-06
1.25423e-06
1.271334e-06
1.2794182e-06
1.2794197e-06
1.2713384e-06
1.254237e-06
1.2224459e-06
1.1750091e-06
1.106604e-06
1.0055657e-06
8.7855473e-07
7.6682274e-07
9.1342596e-07
)
;
    }
}


// ************************************************************************* //
