/*--------------------------------*- C++ -*----------------------------------*\
| =========                 |                                                 |
| \\      /  F ield         | OpenFOAM: The Open Source CFD Toolbox           |
|  \\    /   O peration     | Version:  3.0.1                                 |
|   \\  /    A nd           | Web:      www.OpenFOAM.org                      |
|    \\/     M anipulation  |                                                 |
\*---------------------------------------------------------------------------*/
FoamFile
{
    version     2.0;
    format      ascii;
    class       volScalarField;
    location    "36";
    object      Psi2;
}
// * * * * * * * * * * * * * * * * * * * * * * * * * * * * * * * * * * * * * //

dimensions      [0 -2 2 0 0 0 0];

internalField   nonuniform List<scalar> 
800
(
0.00049887042
0.0004988321
0.00049882987
0.0004988318
0.0004988333
0.00049883415
0.00049883458
0.00049883477
0.00049883484
0.00049883487
0.00049883487
0.00049883484
0.00049883477
0.00049883458
0.00049883415
0.0004988333
0.0004988318
0.00049882987
0.0004988321
0.00049887042
0.00049932549
0.00049913816
0.00049908849
0.00049907511
0.00049907261
0.00049907311
0.00049907417
0.00049907505
0.00049907562
0.0004990759
0.0004990759
0.00049907563
0.00049907506
0.00049907417
0.00049907312
0.00049907261
0.00049907512
0.00049908849
0.00049913817
0.00049932551
0.00050106098
0.00050071941
0.00050059765
0.00050056079
0.00050055123
0.00050055027
0.00050055157
0.00050055301
0.00050055403
0.00050055454
0.00050055454
0.00050055403
0.00050055301
0.00050055157
0.00050055028
0.00050055124
0.0005005608
0.00050059767
0.00050071944
0.00050106103
0.00050335853
0.0005028753
0.00050267725
0.00050261529
0.00050259783
0.00050259491
0.00050259617
0.00050259802
0.00050259943
0.00050260015
0.00050260015
0.00050259943
0.00050259803
0.00050259618
0.00050259493
0.00050259785
0.00050261532
0.00050267728
0.00050287534
0.0005033586
0.00050585827
0.0005052533
0.00050498327
0.00050489714
0.00050487229
0.00050486749
0.00050486864
0.00050487078
0.0005048725
0.00050487338
0.00050487339
0.00050487251
0.0005048708
0.00050486865
0.00050486751
0.00050487232
0.00050489717
0.00050498332
0.00050525335
0.00050585836
0.00050832831
0.0005076303
0.00050729743
0.00050718983
0.00050715937
0.00050715342
0.00050715473
0.00050715725
0.00050715928
0.00050716032
0.00050716032
0.00050715929
0.00050715726
0.00050715475
0.00050715345
0.0005071594
0.00050718987
0.00050729749
0.00050763037
0.00050832842
0.00051057729
0.000509822
0.00050943959
0.00050931471
0.00050928133
0.00050927556
0.00050927763
0.00050928078
0.00050928324
0.00050928448
0.00050928448
0.00050928325
0.0005092808
0.00050927766
0.0005092756
0.00050928137
0.00050931475
0.00050943965
0.00050982207
0.0005105774
0.00051244421
0.00051167037
0.00051125558
0.00051111883
0.00051108584
0.00051108196
0.00051108564
0.00051108985
0.00051109293
0.00051109444
0.00051109445
0.00051109294
0.00051108986
0.00051108566
0.00051108199
0.00051108588
0.00051111887
0.00051125564
0.00051167044
0.00051244432
0.00051381916
0.00051306066
0.00051263284
0.00051248991
0.00051246034
0.00051245997
0.00051246608
0.00051247176
0.00051247566
0.00051247752
0.00051247752
0.00051247567
0.00051247177
0.0005124661
0.00051246
0.00051246038
0.00051248996
0.00051263289
0.00051306073
0.00051381926
0.00051464198
0.00051392607
0.00051350648
0.00051336369
0.00051334052
0.00051334544
0.00051335503
0.00051336279
0.00051336782
0.00051337017
0.00051337018
0.00051336783
0.0005133628
0.00051335506
0.00051334547
0.00051334056
0.00051336373
0.00051350653
0.00051392613
0.00051464208
0.00051489296
0.00051423453
0.00051384301
0.00051370595
0.00051369118
0.00051370257
0.0005137165
0.00051372679
0.00051373319
0.00051373614
0.00051373614
0.0005137332
0.00051372681
0.00051371652
0.00051370259
0.00051369122
0.00051370599
0.00051384305
0.00051423458
0.00051489304
0.00051442813
0.00051399508
0.00051364966
0.00051352346
0.00051351865
0.00051353742
0.00051355653
0.00051356984
0.00051357783
0.00051358149
0.00051358149
0.00051357784
0.00051356986
0.00051355655
0.00051353745
0.00051351868
0.00051352349
0.0005136497
0.00051399513
0.0005144282
0.00051330097
0.00051289251
0.00051262866
0.0005125217
0.00051252654
0.00051255279
0.00051257884
0.00051259618
0.00051260618
0.00051261077
0.00051261077
0.00051260618
0.00051259619
0.00051257886
0.00051255281
0.00051252657
0.00051252173
0.00051262869
0.00051289254
0.00051330103
0.00051153319
0.00051114363
0.00051097314
0.00051088955
0.00051090109
0.00051093293
0.00051096734
0.00051098944
0.00051100171
0.00051100742
0.00051100742
0.00051100171
0.00051098945
0.00051096736
0.00051093295
0.00051090111
0.00051088957
0.00051097316
0.00051114365
0.00051153323
0.00050919367
0.0005088064
0.00050872932
0.00050867235
0.00050868677
0.00050872206
0.00050876647
0.00050879421
0.00050880914
0.00050881616
0.00050881616
0.00050880914
0.00050879422
0.00050876648
0.00050872206
0.00050868679
0.00050867236
0.00050872933
0.00050880641
0.00050919369
0.0005063681
0.00050594605
0.00050594973
0.00050592127
0.0005059343
0.00050597133
0.0005060275
0.00050606199
0.00050608028
0.00050608857
0.00050608857
0.00050608028
0.00050606199
0.00050602751
0.00050597134
0.0005059343
0.00050592128
0.00050594974
0.00050594605
0.00050636811
0.00050314302
0.00050263059
0.00050268972
0.00050268897
0.00050269618
0.0005027342
0.00050280435
0.00050284697
0.0005028698
0.00050287876
0.00050287876
0.0005028698
0.00050284698
0.00050280435
0.0005027342
0.00050269618
0.00050268897
0.00050268972
0.00050263058
0.00050314302
0.0004996092
0.00049893536
0.00049901287
0.00049903441
0.00049903084
0.00049907037
0.00049915796
0.00049921037
0.00049923953
0.00049924758
0.00049924758
0.00049923954
0.00049921038
0.00049915797
0.00049907038
0.00049903084
0.00049903441
0.00049901287
0.00049893535
0.0004996092
0.00049586665
0.0004949444
0.00049499279
0.00049502489
0.00049500417
0.00049504758
0.0004951579
0.00049522196
0.00049526015
0.00049526451
0.00049526451
0.00049526015
0.00049522197
0.0004951579
0.00049504758
0.00049500417
0.00049502489
0.00049499278
0.00049494439
0.00049586664
0.00049203464
0.00049075954
0.00049072171
0.0004907448
0.00049069828
0.00049074995
0.00049088983
0.00049096748
0.00049101851
0.00049101521
0.00049101521
0.00049101851
0.00049096748
0.00049088984
0.00049074995
0.00049069828
0.00049074479
0.0004907217
0.00049075953
0.00049203464
0.00048824814
0.00048649803
0.00048630865
0.00048629533
0.00048621243
0.00048627847
0.00048645538
0.00048654846
0.00048661721
0.00048660152
0.00048660152
0.00048661722
0.00048654847
0.00048645539
0.00048627847
0.00048621244
0.00048629533
0.00048630865
0.00048649802
0.00048824814
0.00048464323
0.00048227868
0.00048186388
0.00048177948
0.00048164808
0.0004817351
0.00048195576
0.00048206592
0.00048215768
0.00048212471
0.00048212471
0.00048215769
0.00048206593
0.00048195577
0.00048173511
0.00048164808
0.00048177948
0.00048186388
0.00048227868
0.00048464324
0.0004813658
0.00047822721
0.00047750285
0.00047730651
0.00047711264
0.0004772267
0.00047749632
0.0004776251
0.0004777443
0.00047768969
0.00047768969
0.00047774431
0.00047762512
0.00047749634
0.00047722672
0.00047711265
0.00047730652
0.00047750286
0.00047822722
0.00048136581
0.00047857161
0.00047447934
0.00047334856
0.00047299458
0.00047272105
0.0004728668
0.00047318902
0.00047333781
0.00047348631
0.00047340692
0.00047340693
0.00047348632
0.00047333784
0.00047318904
0.00047286682
0.00047272107
0.00047299459
0.00047334857
0.00047447935
0.00047857163
0.00047642855
0.00047117527
0.00046952295
0.00046895985
0.00046858394
0.00046876405
0.00046914162
0.00046931181
0.00046948778
0.000469382
0.000469382
0.0004694878
0.00046931183
0.00046914165
0.00046876407
0.00046858396
0.00046895987
0.00046952297
0.00047117529
0.00047642857
0.00047514063
0.00046847907
0.00046616727
0.00046533417
0.00046482651
0.00046504017
0.00046547507
0.00046566805
0.00046586569
0.00046573347
0.00046573347
0.00046586571
0.00046566808
0.00046547511
0.0004650402
0.00046482653
0.00046533419
0.00046616729
0.00046847908
0.00047514065
0.00047495909
0.00046658451
0.00046344584
0.00046226547
0.00046159031
0.00046183112
0.00046232384
0.00046254121
0.00046275147
0.00046259435
0.00046259436
0.00046275149
0.00046254124
0.00046232387
0.00046183116
0.00046159034
0.0004622655
0.00046344586
0.00046658452
0.00047495909
0.00047621867
0.00046573406
0.00046155784
0.00045992612
0.00045904014
0.00045929275
0.00045984046
0.00046008411
0.00046029609
0.00046011693
0.00046011694
0.00046029612
0.00046008415
0.00045984049
0.00045929278
0.00045904017
0.00045992614
0.00046155785
0.00046573404
0.00047621863
0.00047938159
0.00046625486
0.00046076397
0.00045853992
0.00045738899
0.00045762461
0.00045821928
0.00045849146
0.00045869429
0.00045849705
0.00045849706
0.00045869432
0.0004584915
0.00045821931
0.00045762465
0.00045738902
0.00045853993
0.00046076396
0.0004662548
0.00047938148
0.00048511976
0.00046861425
0.00046142453
0.00045841687
0.0004569253
0.00045709831
0.0004577257
0.0004580293
0.00045821411
0.00045800349
0.0004580035
0.00045821413
0.00045802933
0.00045772573
0.00045709834
0.00045692532
0.00045841687
0.00046142449
0.00046861413
0.00048511953
0.00049443854
0.00047350461
0.00046406484
0.00046001166
0.00045806074
0.00045810335
0.00045874693
0.00045908599
0.00045924748
0.00045902875
0.00045902876
0.0004592475
0.00045908601
0.00045874695
0.00045810337
0.00045806074
0.00046001162
0.00046406474
0.00047350437
0.00049443811
0.00050887352
0.00048197242
0.00046946249
0.00046399419
0.00046140034
0.00046121081
0.00046185176
0.00046223894
0.00046237638
0.00046215531
0.00046215532
0.00046237639
0.00046223895
0.00046185177
0.0004612108
0.0004614003
0.0004639941
0.0004694623
0.000481972
0.00050887277
0.00053086413
0.00049561575
0.00047879595
0.00047136685
0.00046785634
0.00046728044
0.00046788521
0.00046835043
0.00046846773
0.00046825066
0.00046825066
0.00046846773
0.00046835043
0.00046788519
0.0004672804
0.00046785625
0.00047136667
0.00047879561
0.000495615
0.00053086284
0.00056430242
0.00051694384
0.00049391358
0.00048367886
0.0004788304
0.00047763892
0.00047815664
0.00047871902
0.00047882437
0.00047861858
0.00047861858
0.00047882435
0.00047871899
0.00047815658
0.00047763882
0.00047883024
0.00048367856
0.00049391301
0.00051694259
0.00056430026
0.00061543696
0.00054999477
0.00051777946
0.0005033835
0.00049651602
0.00049439565
0.00049471242
0.00049533528
0.00049544135
0.00049525634
0.00049525633
0.00049544132
0.00049533521
0.00049471231
0.00049439548
0.00049651574
0.000503383
0.00051777854
0.00054999274
0.00061543337
0.0006944793
0.00060130207
0.00055518646
0.00053447535
0.00052440982
0.00052087013
0.00052075235
0.00052132214
0.0005214461
0.00052129634
0.00052129632
0.00052144603
0.00052132201
0.00052075215
0.00052086984
0.00052440937
0.00053447457
0.00055518503
0.00060129893
0.00069447343
0.00081801313
0.00068154952
0.00061398624
0.00058333346
0.00056818889
0.00056227974
0.00056135361
0.00056169919
0.00056186787
0.00056177929
0.00056177926
0.00056186775
0.00056169897
0.00056135329
0.00056227929
0.0005681882
0.00058333228
0.00061398406
0.00068154477
0.00081800374
0.0010207766
0.00081006068
0.00070737462
0.00066030388
0.00063686996
0.00062689794
0.00062463633
0.00062434419
0.00062460134
0.00062462048
0.00062462042
0.00062460114
0.00062434385
0.00062463586
0.00062689727
0.00063686892
0.00066030212
0.00070737135
0.00081005339
0.0010207605
0.0013635595
0.0010259394
0.00085805318
0.00078258258
0.00074525045
0.00072891955
0.00072460138
0.00072217878
0.00072261545
0.00072283322
0.00072283313
0.00072261516
0.00072217828
0.0007246007
0.00072891857
0.00074524893
0.00078257995
0.00085804808
0.0010259269
0.0013635275
0.0019052314
0.0013648177
0.0011118259
0.00099617089
0.00093935505
0.00091415213
0.00090693368
0.00090267008
0.00090359121
0.00090420604
0.00090420589
0.00090359078
0.00090266936
0.00090693273
0.00091415073
0.00093935281
0.00099616681
0.0011118173
0.0013647956
0.0019051678
)
;

boundaryField
{
    Wall
    {
        type            calculated;
        value           nonuniform List<scalar> 
100
(
9.9999997e-21
9.9999996e-21
9.9999995e-21
9.9999994e-21
9.9999993e-21
9.9999993e-21
9.9999992e-21
9.9999992e-21
9.9999991e-21
9.9999991e-21
9.9999991e-21
9.9999991e-21
9.9999991e-21
9.9999991e-21
9.9999992e-21
9.9999992e-21
9.9999992e-21
9.9999992e-21
9.9999992e-21
9.9999992e-21
9.9999992e-21
9.9999992e-21
9.9999992e-21
9.9999992e-21
9.9999992e-21
9.9999992e-21
9.9999992e-21
9.9999992e-21
9.9999992e-21
9.9999992e-21
9.9999992e-21
9.9999992e-21
9.9999992e-21
9.9999993e-21
9.9999993e-21
9.9999994e-21
9.9999995e-21
9.9999997e-21
9.9999999e-21
1e-20
9.9999997e-21
9.9999996e-21
9.9999995e-21
9.9999994e-21
9.9999993e-21
9.9999993e-21
9.9999992e-21
9.9999992e-21
9.9999991e-21
9.9999991e-21
9.9999991e-21
9.9999991e-21
9.9999991e-21
9.9999991e-21
9.9999992e-21
9.9999992e-21
9.9999992e-21
9.9999992e-21
9.9999992e-21
9.9999992e-21
9.9999992e-21
9.9999992e-21
9.9999992e-21
9.9999992e-21
9.9999992e-21
9.9999992e-21
9.9999992e-21
9.9999992e-21
9.9999992e-21
9.9999992e-21
9.9999992e-21
9.9999992e-21
9.9999992e-21
9.9999993e-21
9.9999993e-21
9.9999994e-21
9.9999995e-21
9.9999997e-21
9.9999999e-21
1e-20
9.9999997e-21
9.9999997e-21
9.9999997e-21
9.9999997e-21
9.9999997e-21
9.9999997e-21
9.9999997e-21
9.9999997e-21
9.9999997e-21
9.9999997e-21
9.9999997e-21
9.9999997e-21
9.9999997e-21
9.9999997e-21
9.9999997e-21
9.9999997e-21
9.9999997e-21
9.9999997e-21
9.9999997e-21
9.9999997e-21
)
;
    }
    frontAndBack
    {
        type            empty;
    }
    atmosphere
    {
        type            calculated;
        value           uniform 1e-20;
    }
}


// ************************************************************************* //
