/*--------------------------------*- C++ -*----------------------------------*\
| =========                 |                                                 |
| \\      /  F ield         | OpenFOAM: The Open Source CFD Toolbox           |
|  \\    /   O peration     | Version:  3.0.1                                 |
|   \\  /    A nd           | Web:      www.OpenFOAM.org                      |
|    \\/     M anipulation  |                                                 |
\*---------------------------------------------------------------------------*/
FoamFile
{
    version     2.0;
    format      ascii;
    class       volScalarField;
    location    "36";
    object      rho;
}
// * * * * * * * * * * * * * * * * * * * * * * * * * * * * * * * * * * * * * //

dimensions      [1 -3 0 0 0 0 0];

internalField   nonuniform List<scalar> 
800
(
49.887046
49.883214
49.882991
49.883184
49.883334
49.88342
49.883462
49.883481
49.883488
49.883491
49.883491
49.883488
49.883481
49.883462
49.883419
49.883334
49.883184
49.882991
49.883214
49.887046
49.932553
49.91382
49.908853
49.907515
49.907265
49.907316
49.907421
49.90751
49.907567
49.907595
49.907594
49.907567
49.90751
49.907422
49.907316
49.907265
49.907516
49.908854
49.913821
49.932555
50.106102
50.071945
50.059769
50.056083
50.055127
50.055031
50.05516
50.055304
50.055407
50.055458
50.055458
50.055407
50.055305
50.055161
50.055032
50.055128
50.056084
50.059771
50.071948
50.106107
50.335857
50.287533
50.267728
50.261533
50.259786
50.259495
50.259621
50.259806
50.259946
50.260018
50.260018
50.259947
50.259807
50.259622
50.259496
50.259789
50.261535
50.267732
50.287538
50.335864
50.585829
50.525333
50.49833
50.489717
50.487232
50.486752
50.486867
50.487081
50.487253
50.487342
50.487342
50.487254
50.487083
50.486868
50.486754
50.487235
50.48972
50.498335
50.525338
50.585838
50.832832
50.763031
50.729745
50.718984
50.715938
50.715344
50.715475
50.715726
50.715929
50.716033
50.716034
50.71593
50.715728
50.715477
50.715346
50.715942
50.718988
50.72975
50.763038
50.832842
51.057727
50.982198
50.943958
50.93147
50.928132
50.927555
50.927762
50.928077
50.928323
50.928447
50.928447
50.928324
50.928079
50.927765
50.927559
50.928136
50.931474
50.943963
50.982205
51.057738
51.244414
51.167031
51.125554
51.111878
51.108579
51.108191
51.108559
51.10898
51.109289
51.10944
51.10944
51.10929
51.108982
51.108562
51.108195
51.108584
51.111883
51.12556
51.167038
51.244425
51.381903
51.306055
51.263274
51.248982
51.246025
51.245988
51.246599
51.247167
51.247557
51.247743
51.247743
51.247558
51.247169
51.246601
51.245991
51.246029
51.248987
51.26328
51.306062
51.381913
51.464178
51.392589
51.350632
51.336354
51.334038
51.334529
51.335489
51.336264
51.336768
51.337003
51.337003
51.336768
51.336266
51.335491
51.334532
51.334041
51.336358
51.350638
51.392596
51.464187
51.489266
51.423426
51.384277
51.370573
51.369096
51.370235
51.371628
51.372658
51.373297
51.373592
51.373592
51.373298
51.372659
51.37163
51.370238
51.3691
51.370577
51.384282
51.423432
51.489274
51.442771
51.399471
51.364935
51.352315
51.351835
51.353712
51.355623
51.356954
51.357753
51.358118
51.358118
51.357753
51.356955
51.355624
51.353714
51.351838
51.352318
51.364939
51.399476
51.442778
51.330043
51.289204
51.262822
51.252127
51.252614
51.255238
51.257844
51.259578
51.260578
51.261036
51.261036
51.260578
51.259579
51.257845
51.25524
51.252616
51.25213
51.262825
51.289208
51.330048
51.15325
51.114297
51.097246
51.0889
51.090056
51.093238
51.096684
51.098893
51.100117
51.100686
51.100686
51.100117
51.098894
51.096686
51.09324
51.090058
51.088902
51.097248
51.114299
51.153253
50.91928
50.880539
50.87284
50.86717
50.868605
50.872119
50.876545
50.879343
50.880806
50.881527
50.881527
50.880807
50.879343
50.876547
50.87212
50.868606
50.86717
50.872841
50.880541
50.919282
50.636699
50.5945
50.59489
50.592045
50.593344
50.597031
50.602455
50.605983
50.607867
50.608772
50.608771
50.607867
50.605984
50.602455
50.597031
50.593345
50.592045
50.59489
50.594501
50.6367
50.314169
50.262952
50.268885
50.268799
50.269515
50.273291
50.280138
50.284401
50.286848
50.287791
50.287791
50.286848
50.2844
50.280138
50.273291
50.269515
50.268799
50.268885
50.262951
50.314169
49.960748
49.893362
49.901169
49.903316
49.902887
49.90679
49.915554
49.920814
49.923832
49.924651
49.924651
49.923832
49.920814
49.915553
49.90679
49.902887
49.903316
49.901169
49.893361
49.960748
49.5864
49.493424
49.498878
49.502006
49.499721
49.504128
49.515599
49.522075
49.525894
49.526311
49.526311
49.525894
49.522075
49.515598
49.504129
49.499721
49.502005
49.498877
49.493422
49.586399
49.20227
49.074375
49.07065
49.072917
49.068317
49.074096
49.088692
49.096627
49.10173
49.101376
49.101376
49.101731
49.096628
49.088694
49.074096
49.068317
49.072916
49.070649
49.074374
49.20227
48.823242
48.648237
48.6293
48.627968
48.620419
48.627273
48.64528
48.6547
48.66156
48.659973
48.659974
48.661561
48.654702
48.645284
48.627272
48.62042
48.627968
48.6293
48.648237
48.823243
48.462764
48.226317
48.184838
48.176711
48.164581
48.173335
48.195427
48.206446
48.215181
48.211906
48.211907
48.215183
48.206448
48.195429
48.173337
48.164583
48.176711
48.184838
48.226317
48.462765
48.135031
47.821183
47.748749
47.730286
47.711105
47.722515
47.74948
47.762344
47.773807
47.768345
47.768346
47.773808
47.762347
47.749483
47.722517
47.711106
47.730288
47.74875
47.821183
48.135033
47.855622
47.446409
47.3336
47.299245
47.271909
47.286441
47.318336
47.333107
47.348098
47.340075
47.340075
47.348099
47.333108
47.318335
47.286444
47.271911
47.299246
47.333601
47.446409
47.855624
47.641323
47.116012
46.951725
46.89571
46.857641
46.875587
46.913309
46.930328
46.948289
46.93768
46.937681
46.94829
46.930331
46.913312
46.87559
46.857642
46.895712
46.951727
47.116014
47.641325
47.512535
46.846401
46.616146
46.532573
46.481806
46.503173
46.546662
46.565959
46.58606
46.572871
46.572872
46.586063
46.565962
46.546665
46.503175
46.481809
46.532575
46.616149
46.846403
47.512537
47.494539
46.657408
46.343711
46.226002
46.158193
46.182274
46.231544
46.253281
46.274307
46.258963
46.258963
46.274309
46.253284
46.231548
46.182277
46.158196
46.226004
46.343714
46.657408
47.494538
47.62134
46.5729
46.154916
45.992113
45.903181
45.928441
45.983211
46.007576
46.028774
46.011224
46.011224
46.028776
46.007579
45.983214
45.928444
45.903184
45.992115
46.154917
46.572898
47.621336
47.937637
46.624979
46.075538
45.853495
45.738069
45.76163
45.821096
45.848314
45.868822
45.849042
45.849041
45.868823
45.848318
45.821099
45.761634
45.738071
45.853496
46.075538
46.624974
47.937626
48.511448
46.860916
46.141889
45.84119
45.692033
45.709197
45.771834
45.80241
45.820914
45.799675
45.799676
45.820916
45.802415
45.771839
45.709199
45.692036
45.841189
46.141885
46.860904
48.511425
49.443316
47.349947
46.40598
46.000666
45.805577
45.809838
45.874195
45.9081
45.92425
45.902243
45.902243
45.924251
45.908103
45.874197
45.809839
45.805577
46.000662
46.40597
47.349923
49.443273
50.886798
48.196718
46.945739
46.398915
46.139533
46.12058
46.184675
46.223392
46.237136
46.215029
46.21503
46.237137
46.223394
46.184676
46.12058
46.13953
46.398906
46.94572
48.196676
50.886723
53.085834
49.561035
47.879075
47.136173
46.785126
46.727537
46.788013
46.834535
46.846264
46.824558
46.824558
46.846264
46.834535
46.788011
46.727533
46.785117
47.136155
47.87904
49.560961
53.085705
56.429626
51.693821
49.390821
48.36736
47.88252
47.763373
47.815145
47.871382
47.881917
47.861339
47.861339
47.881915
47.871379
47.815139
47.763364
47.882504
48.36733
49.390764
51.693696
56.42941
61.542657
54.998877
51.777382
50.337802
49.651062
49.439028
49.470705
49.532989
49.543597
49.525096
49.525095
49.543593
49.532983
49.470693
49.439011
49.651034
50.337753
51.77729
54.998674
61.542297
69.435043
60.12826
55.51804
53.446952
52.440412
52.086446
52.074669
52.131647
52.144043
52.129068
52.129066
52.144036
52.131634
52.074649
52.086417
52.440366
53.446875
55.517897
60.127947
69.434459
81.477757
68.123857
61.394991
58.331797
56.817758
56.22698
56.134415
56.168993
56.185872
56.17702
56.177017
56.18586
56.168971
56.134383
56.226935
56.817689
58.331679
61.394774
68.12339
81.476943
86.211891
80.280395
70.660197
66.001814
63.668778
62.675044
62.45007
62.421391
62.447413
62.449469
62.449463
62.447394
62.421357
62.450023
62.674977
63.668675
66.001641
70.659882
80.279855
86.215691
31.86959
77.384834
81.752782
76.789547
73.665863
72.236155
71.881006
71.678066
71.742689
71.773942
71.773937
71.742672
71.678037
71.880967
72.236099
73.665787
76.789455
81.752937
77.387542
31.87492
3.3045275
19.665932
37.310855
44.829814
47.510134
48.642637
49.377059
49.764103
50.182226
50.385625
50.385682
50.1824
49.764419
49.377469
48.643194
47.510901
44.830965
37.312695
19.668072
3.3052326
)
;

boundaryField
{
    Wall
    {
        type            calculated;
        value           nonuniform List<scalar> 
100
(
1.0000001e-15
1.2721595e-12
1.1292527e-08
2.1302754e-08
4.1501399e-08
9.2653458e-08
1.687737e-07
2.7426417e-07
4.1449973e-07
5.9483525e-07
8.2381231e-07
1.1044608e-06
1.411507e-06
1.7745817e-06
2.2166043e-06
2.8031672e-06
3.3665983e-06
4.3524328e-06
6.6834295e-06
2.9947358e-05
3.9698087e-05
3.9698032e-05
3.9698214e-05
3.9698186e-05
3.9698167e-05
3.9697878e-05
3.5626168e-05
1.3739285e-05
1.349334e-05
1.3492196e-05
1.3491057e-05
1.3489923e-05
1.348909e-05
1.348912e-05
2.0770671e-05
0.00022668805
0.0048172124
0.18873283
0.92769599
1.1866607
1.0000001e-15
6.5403953e-15
1.1291486e-08
2.1302314e-08
4.1501581e-08
9.2654543e-08
1.6877597e-07
2.7426792e-07
4.1450534e-07
5.9484289e-07
8.238221e-07
1.1044728e-06
1.4115191e-06
1.7746006e-06
2.216624e-06
2.8031862e-06
3.3666308e-06
4.3525e-06
6.683502e-06
2.9947529e-05
3.9698296e-05
3.9698241e-05
3.9698424e-05
3.9698395e-05
3.9698376e-05
3.9698087e-05
3.5628679e-05
1.3740092e-05
1.3493703e-05
1.3492559e-05
1.349142e-05
1.3490286e-05
1.3489453e-05
1.3489483e-05
2.076766e-05
0.00022662455
0.0048154068
0.18867151
0.92764222
1.1866558
1.0000001e-15
1.0000001e-15
1.0000006e-15
1.0000011e-15
1.0000001e-15
1.0000013e-15
1.0000012e-15
1.0000001e-15
1.0000001e-15
1.0000001e-15
1.0000001e-15
1.0000001e-15
1.0000001e-15
1.0000001e-15
1.0000001e-15
1.0000001e-15
1.0000001e-15
1.0000001e-15
1.0000001e-15
1.0000001e-15
)
;
    }
    frontAndBack
    {
        type            empty;
    }
    atmosphere
    {
        type            calculated;
        value           nonuniform List<scalar> 
20
(
1.1866607
1.0362003
0.80600105
0.66802155
0.60074568
0.56894065
0.55400287
0.54569587
0.54074431
0.53846294
0.53846206
0.54074165
0.54569108
0.55399669
0.56893226
0.60073431
0.6680053
0.80597791
1.0361786
1.1866558
)
;
    }
}


// ************************************************************************* //
