/*--------------------------------*- C++ -*----------------------------------*\
| =========                 |                                                 |
| \\      /  F ield         | OpenFOAM: The Open Source CFD Toolbox           |
|  \\    /   O peration     | Version:  3.0.1                                 |
|   \\  /    A nd           | Web:      www.OpenFOAM.org                      |
|    \\/     M anipulation  |                                                 |
\*---------------------------------------------------------------------------*/
FoamFile
{
    version     2.0;
    format      ascii;
    class       volScalarField;
    location    "36";
    object      rho_foam;
}
// * * * * * * * * * * * * * * * * * * * * * * * * * * * * * * * * * * * * * //

dimensions      [1 -3 0 0 0 0 0];

internalField   nonuniform List<scalar> 
800
(
49.887046
49.883214
49.882991
49.883184
49.883334
49.88342
49.883462
49.883481
49.883488
49.883491
49.883491
49.883488
49.883481
49.883462
49.883419
49.883334
49.883184
49.882991
49.883214
49.887046
49.932553
49.91382
49.908853
49.907515
49.907265
49.907316
49.907421
49.90751
49.907567
49.907595
49.907594
49.907567
49.90751
49.907422
49.907316
49.907265
49.907516
49.908854
49.913821
49.932555
50.106103
50.071945
50.05977
50.056083
50.055127
50.055031
50.055161
50.055305
50.055407
50.055458
50.055458
50.055407
50.055306
50.055162
50.055032
50.055128
50.056085
50.059772
50.071948
50.106107
50.335857
50.287534
50.267729
50.261533
50.259787
50.259495
50.259622
50.259806
50.259947
50.260019
50.260019
50.259948
50.259807
50.259623
50.259497
50.259789
50.261536
50.267733
50.287539
50.335865
50.585831
50.525334
50.498331
50.489718
50.487234
50.486753
50.486868
50.487083
50.487254
50.487343
50.487343
50.487255
50.487084
50.48687
50.486755
50.487237
50.489721
50.498336
50.52534
50.58584
50.832836
50.763035
50.729748
50.718987
50.715941
50.715347
50.715477
50.715729
50.715932
50.716036
50.716037
50.715933
50.715731
50.71548
50.715349
50.715945
50.718991
50.729753
50.763041
50.832846
51.057734
50.982204
50.943963
50.931475
50.928138
50.927561
50.927768
50.928083
50.928329
50.928452
50.928452
50.928329
50.928085
50.92777
50.927564
50.928142
50.93148
50.943969
50.982211
51.057745
51.244426
51.167041
51.125563
51.111887
51.108588
51.1082
51.108568
51.108989
51.109298
51.109449
51.109449
51.109299
51.108991
51.108571
51.108203
51.108592
51.111892
51.125569
51.167048
51.244436
51.38192
51.30607
51.263288
51.248996
51.246039
51.246001
51.246612
51.24718
51.247571
51.247757
51.247757
51.247571
51.247182
51.246615
51.246005
51.246043
51.249
51.263294
51.306077
51.38193
51.464203
51.392611
51.350652
51.336373
51.334057
51.334548
51.335508
51.336283
51.336787
51.337022
51.337022
51.336788
51.336285
51.33551
51.334551
51.334061
51.336378
51.350658
51.392618
51.464212
51.489301
51.423457
51.384305
51.370599
51.369123
51.370261
51.371654
51.372684
51.373323
51.373618
51.373618
51.373324
51.372685
51.371657
51.370264
51.369126
51.370603
51.38431
51.423463
51.489309
51.442817
51.399512
51.364971
51.35235
51.35187
51.353747
51.355658
51.356989
51.357788
51.358153
51.358153
51.357788
51.35699
51.35566
51.353749
51.351873
51.352354
51.364975
51.399517
51.442824
51.330102
51.289255
51.26287
51.252174
51.252659
51.255283
51.257889
51.259623
51.260622
51.261081
51.261081
51.260623
51.259624
51.25789
51.255285
51.252661
51.252177
51.262873
51.289259
51.330107
51.153324
51.114367
51.097318
51.088959
51.090114
51.093298
51.096739
51.098949
51.100175
51.100747
51.100747
51.100176
51.09895
51.09674
51.093299
51.090116
51.088961
51.09732
51.11437
51.153327
50.919372
50.880644
50.872937
50.867239
50.868682
50.87221
50.876652
50.879426
50.880918
50.881621
50.881621
50.880919
50.879426
50.876653
50.872211
50.868683
50.86724
50.872938
50.880646
50.919374
50.636814
50.594609
50.594978
50.592132
50.593434
50.597138
50.602755
50.606203
50.608033
50.608862
50.608861
50.608033
50.606204
50.602755
50.597138
50.593435
50.592132
50.594978
50.59461
50.636816
50.314306
50.263063
50.268977
50.268901
50.269623
50.273424
50.280439
50.284702
50.286984
50.28788
50.28788
50.286985
50.284702
50.28044
50.273425
50.269623
50.268901
50.268977
50.263063
50.314307
49.960925
49.89354
49.901292
49.903446
49.903089
49.907042
49.915801
49.921042
49.923958
49.924763
49.924763
49.923958
49.921042
49.915801
49.907042
49.903089
49.903445
49.901291
49.89354
49.960925
49.586669
49.494444
49.499284
49.502494
49.500422
49.504763
49.515794
49.522201
49.526019
49.526455
49.526455
49.52602
49.522201
49.515794
49.504763
49.500422
49.502493
49.499283
49.494443
49.586669
49.203468
49.075959
49.072175
49.074484
49.069832
49.074999
49.088987
49.096752
49.101855
49.101525
49.101525
49.101856
49.096753
49.088988
49.074999
49.069832
49.074484
49.072175
49.075958
49.203468
48.824818
48.649807
48.63087
48.629537
48.621248
48.627851
48.645542
48.65485
48.661725
48.660156
48.660157
48.661726
48.654851
48.645543
48.627852
48.621248
48.629537
48.630869
48.649806
48.824818
48.464327
48.227873
48.186393
48.177953
48.164812
48.173515
48.19558
48.206596
48.215772
48.212475
48.212475
48.215773
48.206598
48.195582
48.173516
48.164813
48.177953
48.186393
48.227872
48.464328
48.136584
47.822726
47.750289
47.730656
47.711268
47.722675
47.749637
47.762514
47.774434
47.768973
47.768973
47.774435
47.762516
47.749638
47.722676
47.711269
47.730656
47.75029
47.822726
48.136586
47.857165
47.447939
47.33486
47.299462
47.27211
47.286685
47.318906
47.333786
47.348635
47.340697
47.340697
47.348637
47.333788
47.318909
47.286687
47.272111
47.299463
47.334861
47.447939
47.857168
47.642859
47.117532
46.9523
46.895989
46.858398
46.876409
46.914166
46.931185
46.948783
46.938204
46.938204
46.948784
46.931188
46.914169
46.876411
46.8584
46.895991
46.952302
47.117533
47.642862
47.514067
46.847911
46.616731
46.533421
46.482655
46.504021
46.547511
46.566809
46.586573
46.573351
46.573352
46.586575
46.566812
46.547515
46.504025
46.482658
46.533423
46.616734
46.847913
47.514069
47.495913
46.658456
46.344588
46.226552
46.159035
46.183117
46.232388
46.254125
46.275151
46.259439
46.25944
46.275153
46.254129
46.232392
46.18312
46.159038
46.226554
46.34459
46.658456
47.495913
47.621871
46.57341
46.155788
45.992616
45.904019
45.929279
45.98405
46.008416
46.029614
46.011698
46.011699
46.029616
46.008419
45.984054
45.929283
45.904022
45.992618
46.155789
46.573409
47.621867
47.938163
46.62549
46.076401
45.853997
45.738903
45.762465
45.821932
45.849151
45.869434
45.849709
45.84971
45.869436
45.849154
45.821936
45.762469
45.738906
45.853998
46.0764
46.625485
47.938152
48.51198
46.861429
46.142457
45.841691
45.692534
45.709835
45.772574
45.802934
45.821415
45.800354
45.800355
45.821417
45.802938
45.772577
45.709838
45.692536
45.841691
46.142453
46.861417
48.511957
49.443858
47.350465
46.406488
46.00117
45.806078
45.810339
45.874697
45.908603
45.924752
45.90288
45.90288
45.924754
45.908606
45.874699
45.810341
45.806078
46.001166
46.406478
47.350442
49.443816
50.887357
48.197247
46.946253
46.399423
46.140038
46.121085
46.185181
46.223898
46.237642
46.215535
46.215536
46.237643
46.2239
46.185182
46.121085
46.140035
46.399414
46.946234
48.197204
50.887282
53.086417
49.561579
47.8796
47.136689
46.785639
46.728048
46.788525
46.835048
46.846778
46.825071
46.825071
46.846777
46.835048
46.788523
46.728044
46.78563
47.136672
47.879565
49.561504
53.086289
56.430247
51.694389
49.391362
48.36789
47.883045
47.763896
47.815669
47.871907
47.882442
47.861863
47.861863
47.88244
47.871904
47.815663
47.763887
47.883028
48.36786
49.391305
51.694263
56.430031
61.543701
54.999482
51.77795
50.338354
49.651607
49.43957
49.471247
49.533533
49.544141
49.525639
49.525638
49.544137
49.533526
49.471236
49.439553
49.651579
50.338305
51.777859
54.999279
61.543342
69.447935
60.130211
55.518651
53.44754
52.440987
52.087018
52.075241
52.13222
52.144616
52.12964
52.129638
52.144609
52.132207
52.075221
52.086989
52.440942
53.447462
55.518508
60.129898
69.447348
81.801318
68.154957
61.398628
58.333351
56.818895
56.22798
56.135367
56.169926
56.186793
56.177936
56.177932
56.186781
56.169904
56.135335
56.227935
56.818825
58.333233
61.398411
68.154482
81.800379
102.07766
81.006073
70.737467
66.030394
63.687003
62.689801
62.46364
62.434426
62.460141
62.462056
62.46205
62.460122
62.434392
62.463593
62.689734
63.686898
66.030218
70.73714
81.005343
102.07606
136.35595
102.59395
85.805324
78.258266
74.525053
72.891964
72.460147
72.217888
72.261555
72.283332
72.283323
72.261526
72.217837
72.460079
72.891866
74.524901
78.258002
85.804814
102.59269
136.35275
190.52314
136.48177
111.18259
99.617101
93.93552
91.41523
90.693387
90.267027
90.359141
90.420624
90.42061
90.359098
90.266955
90.693292
91.41509
93.935296
99.616692
111.18174
136.47956
190.51678
)
;

boundaryField
{
    Wall
    {
        type            zeroGradient;
    }
    frontAndBack
    {
        type            empty;
    }
    atmosphere
    {
        type            zeroGradient;
    }
}


// ************************************************************************* //
