/*--------------------------------*- C++ -*----------------------------------*\
| =========                 |                                                 |
| \\      /  F ield         | OpenFOAM: The Open Source CFD Toolbox           |
|  \\    /   O peration     | Version:  3.0.1                                 |
|   \\  /    A nd           | Web:      www.OpenFOAM.org                      |
|    \\/     M anipulation  |                                                 |
\*---------------------------------------------------------------------------*/
FoamFile
{
    version     2.0;
    format      ascii;
    class       volScalarField;
    location    "36";
    object      thermalConductivity;
}
// * * * * * * * * * * * * * * * * * * * * * * * * * * * * * * * * * * * * * //

dimensions      [0 2 -1 0 0 0 0];

internalField   nonuniform List<scalar> 
800
(
0.016049428
0.01604907
0.016049048
0.016049065
0.016049079
0.016049087
0.016049091
0.016049092
0.016049093
0.016049093
0.016049093
0.016049093
0.016049092
0.016049091
0.016049087
0.016049079
0.016049065
0.016049048
0.01604907
0.016049428
0.016053965
0.016052197
0.016051728
0.016051602
0.016051578
0.016051583
0.016051593
0.016051601
0.016051607
0.016051609
0.016051609
0.016051607
0.016051601
0.016051593
0.016051583
0.016051578
0.016051602
0.016051728
0.016052197
0.016053965
0.016070464
0.016067245
0.016066098
0.016065752
0.016065662
0.016065653
0.016065666
0.016065679
0.016065689
0.016065694
0.016065694
0.016065689
0.016065679
0.016065666
0.016065653
0.016065662
0.016065752
0.016066099
0.016067245
0.016070464
0.01609219
0.016087638
0.016085774
0.016085192
0.016085029
0.016085002
0.016085014
0.016085031
0.016085045
0.016085052
0.016085052
0.016085045
0.016085032
0.016085014
0.016085002
0.016085029
0.016085193
0.016085775
0.016087639
0.016092191
0.016115789
0.016110092
0.016107551
0.016106742
0.01610651
0.016106465
0.016106476
0.016106497
0.016106513
0.016106521
0.016106521
0.016106513
0.016106497
0.016106476
0.016106465
0.01610651
0.016106742
0.016107552
0.016110092
0.01611579
0.016139087
0.016132513
0.016129381
0.016128371
0.016128086
0.016128031
0.016128044
0.016128068
0.016128087
0.016128097
0.016128097
0.016128087
0.016128068
0.016128044
0.016128031
0.016128086
0.016128371
0.016129382
0.016132514
0.016139087
0.016160277
0.016153165
0.016149567
0.016148394
0.016148083
0.016148029
0.01614805
0.01614808
0.016148103
0.016148114
0.016148114
0.016148103
0.01614808
0.01614805
0.01614803
0.016148083
0.016148395
0.016149568
0.016153165
0.016160278
0.016177854
0.016170569
0.016166667
0.016165383
0.016165074
0.016165039
0.016165074
0.016165114
0.016165143
0.016165157
0.016165157
0.016165143
0.016165114
0.016165074
0.016165039
0.016165075
0.016165383
0.016166668
0.01617057
0.016177855
0.016190756
0.016183614
0.016179592
0.016178251
0.016177976
0.016177975
0.016178034
0.016178088
0.016178125
0.016178142
0.016178143
0.016178125
0.016178088
0.016178034
0.016177975
0.016177976
0.016178251
0.016179592
0.016183615
0.016190757
0.016198423
0.016191684
0.01618774
0.0161864
0.016186185
0.016186233
0.016186324
0.016186398
0.016186445
0.016186467
0.016186467
0.016186445
0.016186398
0.016186324
0.016186233
0.016186185
0.0161864
0.016187741
0.016191684
0.016198424
0.016200711
0.016194512
0.016190834
0.016189547
0.016189411
0.01618952
0.016189652
0.01618975
0.01618981
0.016189838
0.016189838
0.01618981
0.01618975
0.016189652
0.01618952
0.016189412
0.016189548
0.016190834
0.016194512
0.016200711
0.016196255
0.016192169
0.016188928
0.016187743
0.0161877
0.016187878
0.016188059
0.016188185
0.01618826
0.016188294
0.016188295
0.01618826
0.016188185
0.016188059
0.016187879
0.0161877
0.016187743
0.016188928
0.01619217
0.016196256
0.016185565
0.016181694
0.01617922
0.016178216
0.016178262
0.01617851
0.016178756
0.016178919
0.016179014
0.016179057
0.016179057
0.016179014
0.01617892
0.016178756
0.01617851
0.016178263
0.016178216
0.016179221
0.016181694
0.016185566
0.016168866
0.016165155
0.016163559
0.016162773
0.01616288
0.016163178
0.016163503
0.016163711
0.016163826
0.01616388
0.01616388
0.016163826
0.016163711
0.016163503
0.016163178
0.01616288
0.016162773
0.016163559
0.016165155
0.016168866
0.016146828
0.016143118
0.016142395
0.016141857
0.016141988
0.016142317
0.016142735
0.016142996
0.016143136
0.016143202
0.016143202
0.016143136
0.016142996
0.016142735
0.016142317
0.016141988
0.016141857
0.016142395
0.016143118
0.016146828
0.016120281
0.016116215
0.01611624
0.016115967
0.016116081
0.016116424
0.016116953
0.016117277
0.016117449
0.016117526
0.016117526
0.016117449
0.016117277
0.016116953
0.016116424
0.016116081
0.016115968
0.01611624
0.016116215
0.016120281
0.016090049
0.016085097
0.016085627
0.01608561
0.016085665
0.016086015
0.016086674
0.016087075
0.016087289
0.016087373
0.016087373
0.016087289
0.016087075
0.016086674
0.016086015
0.016085665
0.01608561
0.016085627
0.016085097
0.016090049
0.016056996
0.016050486
0.016051166
0.016051353
0.016051301
0.016051664
0.016052486
0.016052978
0.016053252
0.016053327
0.016053327
0.016053252
0.016052978
0.016052486
0.016051664
0.016051301
0.016051353
0.016051166
0.016050486
0.016056996
0.016022075
0.016013183
0.016013562
0.01601384
0.016013621
0.016014019
0.016015055
0.016015656
0.016016015
0.016016053
0.016016053
0.016016015
0.016015656
0.016015055
0.016014019
0.016013621
0.016013839
0.016013562
0.016013183
0.016022075
0.015986421
0.015974163
0.015973701
0.015973882
0.015973415
0.015973889
0.015975204
0.015975932
0.015976411
0.015976376
0.015976376
0.015976411
0.015975932
0.015975204
0.015973889
0.015973415
0.015973882
0.015973701
0.015974163
0.015986421
0.015951312
0.015934536
0.015932617
0.015932441
0.015931626
0.015932235
0.015933897
0.01593477
0.015935415
0.015935262
0.015935262
0.015935415
0.01593477
0.015933897
0.015932235
0.015931626
0.015932441
0.015932617
0.015934536
0.015951312
0.015918031
0.015895425
0.015891354
0.015890493
0.015889216
0.015890022
0.015892093
0.015893125
0.015893987
0.01589367
0.01589367
0.015893987
0.015893125
0.015892094
0.015890022
0.015889216
0.015890493
0.015891354
0.015895425
0.015918031
0.015887958
0.015859969
0.015847698
0.015844341
0.015841093
0.01584293
0.015847328
0.015849428
0.01585138
0.015850469
0.015850469
0.01585138
0.015849429
0.015847328
0.015842931
0.015841093
0.015844341
0.015847698
0.015859969
0.015887958
0.015867969
0.015800759
0.015782588
0.01577691
0.015772576
0.015774808
0.0157798
0.015782108
0.015784418
0.015783163
0.015783163
0.015784418
0.015782108
0.015779801
0.015774809
0.015772576
0.01577691
0.015782588
0.015800759
0.01586797
0.015834567
0.015751035
0.015725706
0.015717161
0.015711515
0.015714137
0.015719698
0.015722209
0.015724811
0.015723224
0.015723224
0.015724811
0.015722209
0.015719698
0.015714138
0.015711515
0.015717161
0.015725706
0.015751035
0.015834567
0.015815855
0.015712406
0.015678366
0.015666326
0.01565907
0.015662032
0.015668136
0.015670853
0.015673636
0.015671746
0.015671747
0.015673636
0.015670854
0.015668137
0.015662032
0.015659071
0.015666327
0.015678366
0.015712406
0.015815856
0.015815345
0.015686778
0.015641962
0.015625581
0.015616342
0.015619531
0.015626156
0.015629092
0.015631923
0.015629773
0.015629773
0.015631924
0.015629092
0.015626156
0.015619531
0.015616342
0.015625582
0.015641962
0.015686778
0.015815345
0.015838601
0.015676856
0.015618258
0.015596266
0.015584547
0.01558776
0.015594871
0.015598054
0.015600805
0.015598437
0.015598437
0.015600805
0.015598055
0.015594872
0.015587761
0.015584547
0.015596266
0.015618258
0.015676856
0.0158386
0.015877655
0.015687044
0.015609961
0.015580391
0.015565473
0.01556837
0.015575914
0.015579395
0.01558196
0.015579411
0.015579412
0.01558196
0.015579396
0.015575914
0.015568371
0.015565474
0.015580391
0.015609961
0.015687043
0.015877654
0.015934469
0.015725095
0.015621671
0.015581393
0.015562078
0.015564125
0.015572031
0.015575899
0.015578212
0.015575505
0.015575506
0.015578213
0.0155759
0.015572032
0.015564125
0.015562078
0.015581393
0.01562167
0.015725093
0.015934466
0.016026141
0.0158052
0.01566177
0.015605567
0.015579653
0.015579989
0.015588232
0.015592635
0.015594679
0.015591817
0.015591817
0.01559468
0.015592636
0.015588233
0.015579989
0.015579653
0.015605566
0.015661769
0.015805196
0.016026137
0.016168017
0.015910021
0.01574588
0.015664567
0.015628018
0.015625101
0.015633694
0.015638979
0.015640788
0.015637749
0.015637749
0.015640788
0.01563898
0.015633694
0.015625101
0.015628017
0.015664565
0.015745877
0.015910017
0.016168009
0.016384759
0.016044612
0.015882872
0.015780737
0.01572607
0.015716924
0.015725696
0.015732629
0.01573429
0.015731032
0.015731033
0.01573429
0.015732629
0.015725696
0.015716924
0.015726068
0.015780734
0.015882869
0.016044605
0.016384747
0.016716369
0.016255378
0.016032445
0.015933707
0.015886873
0.015875045
0.015879711
0.015884971
0.015885891
0.015883947
0.015883947
0.015885891
0.01588497
0.01587971
0.015875044
0.015886871
0.015933704
0.01603244
0.016255366
0.016716348
0.017228578
0.01658385
0.016269133
0.016129101
0.016062207
0.016041186
0.016043798
0.016049559
0.016050473
0.016048712
0.016048712
0.016050473
0.016049558
0.016043797
0.016041185
0.016062205
0.016129096
0.016269124
0.016583831
0.017228543
0.018032351
0.017098775
0.016642502
0.016438704
0.016339558
0.016304245
0.016302418
0.016307529
0.016308595
0.016307155
0.016307154
0.016308594
0.016307528
0.016302416
0.016304242
0.016339554
0.016438696
0.016642488
0.017098744
0.018032291
0.019317945
0.017916935
0.017235832
0.016929144
0.01677778
0.016718164
0.016708067
0.016710709
0.016712192
0.016711331
0.01671133
0.016712191
0.016710707
0.016708064
0.01671816
0.016777773
0.016929132
0.017235811
0.017916887
0.019317848
0.021522424
0.019261588
0.018194905
0.017712212
0.017473105
0.017370697
0.017346807
0.017342733
0.017345118
0.017345328
0.017345328
0.017345117
0.017342729
0.017346802
0.01737069
0.017473095
0.017712194
0.018194871
0.019261512
0.021522248
0.024
0.021629586
0.019788972
0.018983733
0.01859067
0.01842006
0.018374443
0.018347006
0.018351355
0.01835364
0.018353639
0.018351352
0.018347001
0.018374436
0.01842005
0.018590654
0.018983705
0.019788918
0.021629448
0.024
0.024
0.024
0.024
0.024
0.024
0.020330009
0.020250062
0.020202801
0.020212303
0.020218881
0.020218879
0.020212298
0.020202793
0.020250051
0.020329993
0.024
0.024
0.024
0.024
0.024
)
;

boundaryField
{
    Wall
    {
        type            calculated;
        value           uniform 0.024;
    }
    frontAndBack
    {
        type            empty;
    }
    atmosphere
    {
        type            calculated;
        value           uniform 0.024;
    }
}


// ************************************************************************* //
