/*--------------------------------*- C++ -*----------------------------------*\
| =========                 |                                                 |
| \\      /  F ield         | OpenFOAM: The Open Source CFD Toolbox           |
|  \\    /   O peration     | Version:  3.0.1                                 |
|   \\  /    A nd           | Web:      www.OpenFOAM.org                      |
|    \\/     M anipulation  |                                                 |
\*---------------------------------------------------------------------------*/
FoamFile
{
    version     2.0;
    format      ascii;
    class       volScalarField;
    location    "36";
    object      thermalDiff_foam;
}
// * * * * * * * * * * * * * * * * * * * * * * * * * * * * * * * * * * * * * //

dimensions      [0 2 -1 0 0 0 0];

internalField   nonuniform List<scalar> 
800
(
1.7839525e-07
1.7840498e-07
1.7840557e-07
1.7840509e-07
1.7840472e-07
1.7840451e-07
1.784044e-07
1.7840436e-07
1.7840434e-07
1.7840433e-07
1.7840433e-07
1.7840434e-07
1.7840436e-07
1.7840441e-07
1.7840451e-07
1.7840472e-07
1.7840509e-07
1.7840557e-07
1.7840498e-07
1.7839525e-07
1.7827239e-07
1.7832023e-07
1.7833293e-07
1.7833635e-07
1.7833699e-07
1.7833686e-07
1.7833659e-07
1.7833637e-07
1.7833622e-07
1.7833615e-07
1.7833615e-07
1.7833622e-07
1.7833636e-07
1.7833659e-07
1.7833686e-07
1.7833699e-07
1.7833635e-07
1.7833292e-07
1.7832022e-07
1.7827238e-07
1.7782768e-07
1.7791417e-07
1.7794502e-07
1.7795435e-07
1.7795676e-07
1.77957e-07
1.7795666e-07
1.779563e-07
1.7795604e-07
1.7795591e-07
1.7795591e-07
1.7795604e-07
1.7795629e-07
1.7795666e-07
1.7795699e-07
1.7795676e-07
1.7795434e-07
1.7794501e-07
1.7791416e-07
1.7782767e-07
1.7724714e-07
1.7736829e-07
1.7741797e-07
1.774335e-07
1.7743786e-07
1.7743858e-07
1.7743826e-07
1.7743779e-07
1.7743744e-07
1.7743725e-07
1.7743725e-07
1.7743743e-07
1.7743779e-07
1.7743825e-07
1.7743858e-07
1.7743786e-07
1.7743349e-07
1.7741797e-07
1.7736828e-07
1.7724713e-07
1.7662298e-07
1.7677306e-07
1.7684011e-07
1.7686148e-07
1.7686762e-07
1.768688e-07
1.768685e-07
1.7686796e-07
1.7686754e-07
1.7686731e-07
1.7686731e-07
1.7686753e-07
1.7686796e-07
1.768685e-07
1.7686879e-07
1.7686762e-07
1.7686147e-07
1.768401e-07
1.7677305e-07
1.7662296e-07
1.7601329e-07
1.7618467e-07
1.762665e-07
1.7629293e-07
1.7630039e-07
1.7630182e-07
1.7630149e-07
1.7630086e-07
1.7630036e-07
1.763001e-07
1.763001e-07
1.7630036e-07
1.7630086e-07
1.7630148e-07
1.7630182e-07
1.7630038e-07
1.7629292e-07
1.7626649e-07
1.7618466e-07
1.7601326e-07
1.7546423e-07
1.7564793e-07
1.7574107e-07
1.7577147e-07
1.7577956e-07
1.7578093e-07
1.7578041e-07
1.7577963e-07
1.7577903e-07
1.7577873e-07
1.7577873e-07
1.7577903e-07
1.7577963e-07
1.7578041e-07
1.7578093e-07
1.7577955e-07
1.7577146e-07
1.7574106e-07
1.7564791e-07
1.754642e-07
1.7501271e-07
1.7519942e-07
1.7529966e-07
1.7533271e-07
1.7534064e-07
1.7534155e-07
1.7534065e-07
1.7533962e-07
1.7533887e-07
1.7533851e-07
1.7533851e-07
1.7533887e-07
1.7533962e-07
1.7534064e-07
1.7534154e-07
1.7534063e-07
1.7533269e-07
1.7529965e-07
1.751994e-07
1.7501268e-07
1.7468353e-07
1.748655e-07
1.7496826e-07
1.7500256e-07
1.7500959e-07
1.7500962e-07
1.7500811e-07
1.7500673e-07
1.7500578e-07
1.7500533e-07
1.7500533e-07
1.7500578e-07
1.7500672e-07
1.7500811e-07
1.7500961e-07
1.7500958e-07
1.7500255e-07
1.7496825e-07
1.7486549e-07
1.7468351e-07
1.744888e-07
1.7465992e-07
1.747603e-07
1.7479446e-07
1.7479994e-07
1.7479871e-07
1.7479638e-07
1.7479451e-07
1.747933e-07
1.7479274e-07
1.7479274e-07
1.747933e-07
1.7479451e-07
1.7479638e-07
1.747987e-07
1.7479993e-07
1.7479445e-07
1.7476029e-07
1.7465991e-07
1.7448878e-07
1.7443082e-07
1.7458806e-07
1.7468154e-07
1.7471428e-07
1.7471774e-07
1.7471497e-07
1.7471161e-07
1.7470913e-07
1.747076e-07
1.7470689e-07
1.7470689e-07
1.747076e-07
1.7470913e-07
1.7471161e-07
1.7471496e-07
1.7471774e-07
1.7471427e-07
1.7468153e-07
1.7458804e-07
1.744308e-07
1.7454379e-07
1.7464758e-07
1.7473006e-07
1.7476023e-07
1.7476132e-07
1.7475678e-07
1.7475218e-07
1.7474898e-07
1.7474706e-07
1.7474618e-07
1.7474618e-07
1.7474706e-07
1.7474897e-07
1.7475217e-07
1.7475678e-07
1.7476131e-07
1.7476022e-07
1.7473005e-07
1.7464756e-07
1.7454378e-07
1.7481573e-07
1.7491455e-07
1.7497775e-07
1.7500345e-07
1.7500226e-07
1.7499593e-07
1.7498964e-07
1.7498545e-07
1.7498305e-07
1.7498194e-07
1.7498194e-07
1.7498305e-07
1.7498545e-07
1.7498963e-07
1.7499592e-07
1.7500225e-07
1.7500344e-07
1.7497775e-07
1.7491454e-07
1.7481572e-07
1.7524316e-07
1.7533857e-07
1.7537965e-07
1.753999e-07
1.7539714e-07
1.7538945e-07
1.753811e-07
1.7537574e-07
1.7537277e-07
1.7537138e-07
1.7537138e-07
1.7537277e-07
1.7537574e-07
1.7538109e-07
1.7538945e-07
1.7539714e-07
1.7539989e-07
1.7537965e-07
1.7533856e-07
1.7524315e-07
1.7581209e-07
1.7590843e-07
1.7592722e-07
1.759412e-07
1.7593781e-07
1.7592925e-07
1.7591838e-07
1.759116e-07
1.7590795e-07
1.7590624e-07
1.7590624e-07
1.7590795e-07
1.759116e-07
1.7591838e-07
1.7592925e-07
1.759378e-07
1.759412e-07
1.7592722e-07
1.7590842e-07
1.7581209e-07
1.7650494e-07
1.7661179e-07
1.7661112e-07
1.766183e-07
1.7661531e-07
1.7660628e-07
1.7659239e-07
1.7658386e-07
1.7657935e-07
1.765773e-07
1.765773e-07
1.7657935e-07
1.7658386e-07
1.7659239e-07
1.7660628e-07
1.7661531e-07
1.766183e-07
1.7661112e-07
1.7661179e-07
1.7650494e-07
1.7730411e-07
1.7743604e-07
1.7742191e-07
1.7742235e-07
1.7742091e-07
1.7741156e-07
1.7739398e-07
1.7738331e-07
1.773776e-07
1.7737537e-07
1.7737537e-07
1.773776e-07
1.7738331e-07
1.7739398e-07
1.7741156e-07
1.7742091e-07
1.7742235e-07
1.7742191e-07
1.7743604e-07
1.7730411e-07
1.7819043e-07
1.7836659e-07
1.7834817e-07
1.7834311e-07
1.7834452e-07
1.7833468e-07
1.783124e-07
1.7829908e-07
1.7829168e-07
1.7828966e-07
1.7828966e-07
1.7829168e-07
1.7829908e-07
1.783124e-07
1.7833468e-07
1.7834451e-07
1.7834311e-07
1.7834817e-07
1.7836659e-07
1.7819044e-07
1.7914151e-07
1.7938611e-07
1.7937565e-07
1.7936802e-07
1.7937404e-07
1.7936307e-07
1.7933453e-07
1.7931797e-07
1.793081e-07
1.7930704e-07
1.7930704e-07
1.793081e-07
1.7931797e-07
1.7933452e-07
1.7936307e-07
1.7937404e-07
1.7936802e-07
1.7937566e-07
1.7938611e-07
1.7914151e-07
1.8012838e-07
1.8047147e-07
1.8048443e-07
1.8047936e-07
1.8049247e-07
1.8047915e-07
1.8044227e-07
1.8042184e-07
1.8040841e-07
1.8040938e-07
1.8040938e-07
1.804084e-07
1.8042184e-07
1.8044227e-07
1.8047914e-07
1.8049247e-07
1.8047936e-07
1.8048443e-07
1.8047147e-07
1.8012838e-07
1.8111625e-07
1.8159402e-07
1.816489e-07
1.8165394e-07
1.8167728e-07
1.8165983e-07
1.8161229e-07
1.8158734e-07
1.8156889e-07
1.8157326e-07
1.8157326e-07
1.8156888e-07
1.8158734e-07
1.8161229e-07
1.8165983e-07
1.8167728e-07
1.8165394e-07
1.816489e-07
1.8159402e-07
1.8111625e-07
1.8206775e-07
1.8272259e-07
1.8284126e-07
1.8286636e-07
1.8290367e-07
1.8288013e-07
1.8281968e-07
1.8278959e-07
1.8276447e-07
1.8277372e-07
1.8277372e-07
1.8276447e-07
1.8278958e-07
1.8281967e-07
1.8288013e-07
1.8290367e-07
1.8286636e-07
1.8284126e-07
1.8272259e-07
1.8206775e-07
1.8294042e-07
1.8384423e-07
1.8399153e-07
1.8403235e-07
1.8407206e-07
1.8404957e-07
1.8399602e-07
1.8397058e-07
1.8394702e-07
1.8395801e-07
1.8395801e-07
1.8394702e-07
1.8397058e-07
1.8399602e-07
1.8404957e-07
1.8407206e-07
1.8403235e-07
1.8399153e-07
1.8384423e-07
1.8294041e-07
1.8374978e-07
1.845837e-07
1.8482597e-07
1.8490325e-07
1.8496276e-07
1.8493205e-07
1.8486381e-07
1.8483247e-07
1.8480122e-07
1.8481818e-07
1.8481818e-07
1.8480122e-07
1.8483247e-07
1.8486381e-07
1.8493204e-07
1.8496276e-07
1.8490325e-07
1.8482597e-07
1.845837e-07
1.8374978e-07
1.8415252e-07
1.8526538e-07
1.856365e-07
1.8576562e-07
1.8585208e-07
1.8581181e-07
1.8572708e-07
1.856891e-07
1.8564993e-07
1.856738e-07
1.856738e-07
1.8564993e-07
1.8568909e-07
1.8572707e-07
1.858118e-07
1.8585207e-07
1.8576562e-07
1.856365e-07
1.8526538e-07
1.8415251e-07
1.8438811e-07
1.8583837e-07
1.8637853e-07
1.8657817e-07
1.8670077e-07
1.8665051e-07
1.8654785e-07
1.8650255e-07
1.864564e-07
1.8648771e-07
1.8648771e-07
1.864564e-07
1.8650255e-07
1.8654785e-07
1.8665051e-07
1.8670076e-07
1.8657816e-07
1.8637852e-07
1.8583837e-07
1.8438811e-07
1.8439464e-07
1.8624177e-07
1.8699691e-07
1.8729019e-07
1.8746001e-07
1.8740103e-07
1.8727974e-07
1.8722652e-07
1.8717548e-07
1.8721421e-07
1.8721421e-07
1.8717548e-07
1.8722651e-07
1.8727973e-07
1.8740102e-07
1.8746e-07
1.8729019e-07
1.8699691e-07
1.8624177e-07
1.8439464e-07
1.8410268e-07
1.8640331e-07
1.8742453e-07
1.8784054e-07
1.8807032e-07
1.8800674e-07
1.8786758e-07
1.8780598e-07
1.8775308e-07
1.877986e-07
1.877986e-07
1.8775307e-07
1.8780597e-07
1.8786757e-07
1.8800673e-07
1.8807032e-07
1.8784054e-07
1.8742453e-07
1.8640331e-07
1.8410269e-07
1.8324225e-07
1.8623749e-07
1.8757922e-07
1.8815323e-07
1.8845715e-07
1.8839733e-07
1.8824338e-07
1.881732e-07
1.8812183e-07
1.8817287e-07
1.8817287e-07
1.8812183e-07
1.8817319e-07
1.8824337e-07
1.8839733e-07
1.8845714e-07
1.8815323e-07
1.8757923e-07
1.8623751e-07
1.8324228e-07
1.8159595e-07
1.8564566e-07
1.8736167e-07
1.8813316e-07
1.8852774e-07
1.8848512e-07
1.8832229e-07
1.8824368e-07
1.8819699e-07
1.8825165e-07
1.8825165e-07
1.8819698e-07
1.8824367e-07
1.8832229e-07
1.8848511e-07
1.8852774e-07
1.8813316e-07
1.8736168e-07
1.8564569e-07
1.8159601e-07
1.7902998e-07
1.8452565e-07
1.8665494e-07
1.8766224e-07
1.8816802e-07
1.8816129e-07
1.8799743e-07
1.879111e-07
1.8787131e-07
1.8792709e-07
1.8792709e-07
1.878713e-07
1.879111e-07
1.8799742e-07
1.8816129e-07
1.8816802e-07
1.8766225e-07
1.8665496e-07
1.845257e-07
1.7903009e-07
1.7526497e-07
1.8229896e-07
1.8533954e-07
1.8660773e-07
1.8724595e-07
1.8729894e-07
1.8714372e-07
1.8704959e-07
1.8701761e-07
1.8707141e-07
1.8707141e-07
1.8701761e-07
1.8704958e-07
1.8714372e-07
1.8729894e-07
1.8724596e-07
1.8660776e-07
1.8533958e-07
1.8229908e-07
1.7526516e-07
1.6995133e-07
1.7852597e-07
1.8308923e-07
1.8485108e-07
1.8563105e-07
1.8576923e-07
1.8563665e-07
1.8553336e-07
1.8550882e-07
1.8555703e-07
1.8555703e-07
1.8550882e-07
1.8553336e-07
1.8563666e-07
1.8576924e-07
1.8563107e-07
1.8485112e-07
1.8308933e-07
1.7852617e-07
1.6995163e-07
1.6270824e-07
1.7306265e-07
1.7885748e-07
1.8161772e-07
1.8297214e-07
1.8331896e-07
1.8318192e-07
1.8302778e-07
1.8300085e-07
1.8305776e-07
1.8305776e-07
1.8300086e-07
1.8302779e-07
1.8318194e-07
1.8331899e-07
1.8297218e-07
1.8161781e-07
1.7885763e-07
1.7306295e-07
1.6270867e-07
1.5323051e-07
1.6548484e-07
1.7272355e-07
1.7627384e-07
1.780498e-07
1.7861912e-07
1.7854809e-07
1.7839172e-07
1.7836694e-07
1.7841466e-07
1.7841467e-07
1.7836695e-07
1.7839174e-07
1.7854812e-07
1.7861917e-07
1.7804988e-07
1.7627397e-07
1.7272377e-07
1.6548527e-07
1.5323112e-07
1.4146997e-07
1.5546148e-07
1.6423758e-07
1.6870412e-07
1.7101867e-07
1.7186705e-07
1.7191128e-07
1.717876e-07
1.7176184e-07
1.7179665e-07
1.7179666e-07
1.7176185e-07
1.7178763e-07
1.7191133e-07
1.7186712e-07
1.7101877e-07
1.687043e-07
1.6423787e-07
1.5546202e-07
1.4147073e-07
1.2789585e-07
1.4296942e-07
1.5310895e-07
1.5854483e-07
1.6147072e-07
1.6267164e-07
1.6287788e-07
1.6282382e-07
1.6279352e-07
1.6281113e-07
1.6281113e-07
1.6279354e-07
1.6282387e-07
1.6287794e-07
1.6267173e-07
1.6147086e-07
1.5854505e-07
1.5310931e-07
1.4297005e-07
1.278967e-07
1.1311791e-07
1.2839175e-07
1.3944997e-07
1.4577289e-07
1.4930222e-07
1.5090582e-07
1.5128836e-07
1.5135391e-07
1.5131551e-07
1.5131213e-07
1.5131214e-07
1.5131554e-07
1.5135397e-07
1.5128844e-07
1.5090593e-07
1.4930238e-07
1.4577315e-07
1.3945038e-07
1.2839242e-07
1.1311882e-07
0.00041172838
1.1257479e-07
1.2403033e-07
1.309524e-07
1.3493779e-07
1.368164e-07
1.3733533e-07
1.3765095e-07
1.3760074e-07
1.3757439e-07
1.375744e-07
1.3760078e-07
1.3765101e-07
1.3733541e-07
1.3681652e-07
1.3493796e-07
1.3095267e-07
1.2403075e-07
1.1257548e-07
0.00041172882
0.00040717516
0.0004091782
0.00041257453
0.00041663782
0.00042025651
1.2013009e-07
1.20674e-07
1.2100056e-07
1.2093461e-07
1.2088903e-07
1.2088904e-07
1.2093464e-07
1.2100062e-07
1.2067408e-07
1.201302e-07
0.00042025692
0.0004166383
0.00041257503
0.00040917866
0.0004071756
)
;

boundaryField
{
    Wall
    {
        type            calculated;
        value           uniform 4e-05;
    }
    frontAndBack
    {
        type            empty;
    }
    atmosphere
    {
        type            calculated;
        value           uniform 4e-05;
    }
}


// ************************************************************************* //
