/*--------------------------------*- C++ -*----------------------------------*\
| =========                 |                                                 |
| \\      /  F ield         | OpenFOAM: The Open Source CFD Toolbox           |
|  \\    /   O peration     | Version:  3.0.1                                 |
|   \\  /    A nd           | Web:      www.OpenFOAM.org                      |
|    \\/     M anipulation  |                                                 |
\*---------------------------------------------------------------------------*/
FoamFile
{
    version     2.0;
    format      ascii;
    class       volScalarField;
    location    "36";
    object      thermalDiffusivity;
}
// * * * * * * * * * * * * * * * * * * * * * * * * * * * * * * * * * * * * * //

dimensions      [0 2 -1 0 0 0 0];

internalField   nonuniform List<scalar> 
800
(
1.7839525e-07
1.7840498e-07
1.7840557e-07
1.7840509e-07
1.7840472e-07
1.7840451e-07
1.784044e-07
1.7840436e-07
1.7840434e-07
1.7840433e-07
1.7840433e-07
1.7840434e-07
1.7840436e-07
1.7840441e-07
1.7840451e-07
1.7840472e-07
1.7840509e-07
1.7840557e-07
1.7840498e-07
1.7839525e-07
1.7827239e-07
1.7832023e-07
1.7833293e-07
1.7833635e-07
1.7833699e-07
1.7833686e-07
1.7833659e-07
1.7833637e-07
1.7833623e-07
1.7833616e-07
1.7833616e-07
1.7833623e-07
1.7833637e-07
1.7833659e-07
1.7833686e-07
1.7833699e-07
1.7833635e-07
1.7833292e-07
1.7832023e-07
1.7827238e-07
1.7783091e-07
1.7791721e-07
1.7794795e-07
1.7795726e-07
1.7795965e-07
1.7795989e-07
1.7795956e-07
1.7795919e-07
1.7795894e-07
1.7795882e-07
1.7795881e-07
1.7795894e-07
1.7795919e-07
1.7795955e-07
1.7795988e-07
1.7795965e-07
1.7795726e-07
1.7794794e-07
1.7791721e-07
1.778309e-07
1.7725322e-07
1.7737408e-07
1.7742363e-07
1.774391e-07
1.7744347e-07
1.7744418e-07
1.7744385e-07
1.7744339e-07
1.7744298e-07
1.7744281e-07
1.7744281e-07
1.7744298e-07
1.7744338e-07
1.7744385e-07
1.7744417e-07
1.7744346e-07
1.7743909e-07
1.7742361e-07
1.7737407e-07
1.772532e-07
1.7663481e-07
1.7678326e-07
1.7684962e-07
1.7687074e-07
1.7687677e-07
1.7687791e-07
1.7687761e-07
1.7687707e-07
1.7687665e-07
1.7687644e-07
1.7687644e-07
1.7687665e-07
1.7687706e-07
1.768776e-07
1.7687791e-07
1.7687677e-07
1.7687073e-07
1.768496e-07
1.7678324e-07
1.7663479e-07
1.7603969e-07
1.7620753e-07
1.7628768e-07
1.7631353e-07
1.7632074e-07
1.763221e-07
1.7632174e-07
1.7632111e-07
1.7632064e-07
1.7632039e-07
1.7632039e-07
1.7632064e-07
1.7632111e-07
1.7632174e-07
1.7632209e-07
1.7632073e-07
1.7631352e-07
1.7628766e-07
1.7620751e-07
1.7603967e-07
1.7551234e-07
1.7569001e-07
1.7577998e-07
1.7580933e-07
1.7581703e-07
1.7581826e-07
1.758177e-07
1.7581692e-07
1.7581634e-07
1.7581605e-07
1.7581605e-07
1.7581634e-07
1.7581692e-07
1.758177e-07
1.7581826e-07
1.7581702e-07
1.7580932e-07
1.7577996e-07
1.7569e-07
1.7551232e-07
1.7509096e-07
1.7526823e-07
1.7536295e-07
1.7539422e-07
1.7540154e-07
1.7540224e-07
1.7540127e-07
1.7540024e-07
1.7539951e-07
1.7539916e-07
1.7539916e-07
1.7539951e-07
1.7540024e-07
1.7540126e-07
1.7540223e-07
1.7540153e-07
1.753942e-07
1.7536293e-07
1.7526822e-07
1.7509093e-07
1.7480197e-07
1.7497023e-07
1.7506408e-07
1.7509535e-07
1.7510145e-07
1.7510117e-07
1.7509958e-07
1.750982e-07
1.7509727e-07
1.7509684e-07
1.7509683e-07
1.7509727e-07
1.7509819e-07
1.7509958e-07
1.7510116e-07
1.7510144e-07
1.7509534e-07
1.7506407e-07
1.7497021e-07
1.7480195e-07
1.7465914e-07
1.7481224e-07
1.7489846e-07
1.7492731e-07
1.7493148e-07
1.7492982e-07
1.7492737e-07
1.749255e-07
1.7492433e-07
1.7492379e-07
1.7492379e-07
1.7492433e-07
1.749255e-07
1.7492736e-07
1.7492982e-07
1.7493147e-07
1.749273e-07
1.7489845e-07
1.7481223e-07
1.7465912e-07
1.7466742e-07
1.7480231e-07
1.7487171e-07
1.7489705e-07
1.7489898e-07
1.748956e-07
1.7489208e-07
1.7488967e-07
1.7488823e-07
1.7488749e-07
1.7488748e-07
1.7488822e-07
1.7488967e-07
1.7489207e-07
1.7489559e-07
1.7489898e-07
1.7489704e-07
1.748717e-07
1.748023e-07
1.7466741e-07
1.7486221e-07
1.7492953e-07
1.7498096e-07
1.7500526e-07
1.7500347e-07
1.7499799e-07
1.7499386e-07
1.7499041e-07
1.7498806e-07
1.7498698e-07
1.7498698e-07
1.7498806e-07
1.7499041e-07
1.7499386e-07
1.7499799e-07
1.7500346e-07
1.7500525e-07
1.7498095e-07
1.7492952e-07
1.748622e-07
1.7522461e-07
1.7526912e-07
1.7531328e-07
1.7533191e-07
1.7531467e-07
1.7530694e-07
1.7530086e-07
1.752962e-07
1.752913e-07
1.7529303e-07
1.7529302e-07
1.7529127e-07
1.7529625e-07
1.7530089e-07
1.7530699e-07
1.7531467e-07
1.7533192e-07
1.7531328e-07
1.7526911e-07
1.752246e-07
1.7576017e-07
1.7583019e-07
1.7588617e-07
1.758135e-07
1.7580127e-07
1.7580658e-07
1.7576273e-07
1.7576504e-07
1.7577989e-07
1.7579742e-07
1.7579735e-07
1.7578043e-07
1.7576495e-07
1.7576278e-07
1.7580541e-07
1.7580116e-07
1.758135e-07
1.7588618e-07
1.7583021e-07
1.7576017e-07
1.764623e-07
1.7665075e-07
1.7661144e-07
1.7643499e-07
1.7647967e-07
1.7657377e-07
1.7667632e-07
1.7649884e-07
1.767037e-07
1.7656679e-07
1.7656731e-07
1.767019e-07
1.764979e-07
1.766656e-07
1.7657323e-07
1.7647976e-07
1.7643498e-07
1.7661143e-07
1.7665076e-07
1.7646231e-07
1.773338e-07
1.7739264e-07
1.7724259e-07
1.7723926e-07
1.7726027e-07
1.7736865e-07
1.7873985e-07
1.7816388e-07
1.777657e-07
1.7722154e-07
1.7722178e-07
1.7776695e-07
1.7815901e-07
1.7874179e-07
1.773697e-07
1.7726035e-07
1.7723929e-07
1.7724262e-07
1.7739263e-07
1.773338e-07
1.7830873e-07
1.782463e-07
1.7809035e-07
1.7816787e-07
1.7820293e-07
1.7838491e-07
1.7958031e-07
1.7956976e-07
1.7836974e-07
1.7802345e-07
1.7802369e-07
1.7837171e-07
1.7957649e-07
1.7958703e-07
1.7838597e-07
1.7820301e-07
1.7816789e-07
1.7809034e-07
1.782463e-07
1.7830874e-07
1.7950282e-07
1.7969022e-07
1.7925283e-07
1.7930229e-07
1.7983716e-07
1.8019803e-07
1.8013688e-07
1.7998375e-07
1.7922067e-07
1.7911384e-07
1.7911225e-07
1.7922191e-07
1.7998835e-07
1.8014753e-07
1.8020001e-07
1.7983737e-07
1.7930225e-07
1.7925284e-07
1.7969025e-07
1.7950284e-07
1.811804e-07
1.8709566e-07
1.8243436e-07
1.8304777e-07
1.8465207e-07
1.8414595e-07
1.8080359e-07
1.8026432e-07
1.8025067e-07
1.8038893e-07
1.8038895e-07
1.8025191e-07
1.8026555e-07
1.8081154e-07
1.8413446e-07
1.846528e-07
1.8304617e-07
1.8243428e-07
1.8709591e-07
1.8118043e-07
1.8938373e-07
1.9268819e-07
1.9223226e-07
1.9254296e-07
1.9215375e-07
1.8742937e-07
1.827105e-07
1.8138308e-07
1.8136584e-07
1.8155645e-07
1.8155704e-07
1.8136708e-07
1.8138431e-07
1.8270309e-07
1.8743132e-07
1.9215452e-07
1.9254246e-07
1.9223223e-07
1.9268826e-07
1.8938379e-07
1.9356176e-07
1.9397779e-07
1.9400797e-07
1.9400396e-07
1.88198e-07
1.8621003e-07
1.8367601e-07
1.8276276e-07
1.8286886e-07
1.8301079e-07
1.8300871e-07
1.8286706e-07
1.8275891e-07
1.836482e-07
1.8622353e-07
1.8819699e-07
1.9400403e-07
1.9400804e-07
1.9397786e-07
1.9356183e-07
1.9470937e-07
1.9529233e-07
1.9538139e-07
1.9287469e-07
1.8476395e-07
1.8432614e-07
1.8405307e-07
1.8400125e-07
1.8751801e-07
1.8734938e-07
1.8734248e-07
1.8751498e-07
1.8399681e-07
1.8404767e-07
1.8432004e-07
1.847564e-07
1.9287866e-07
1.9538146e-07
1.952924e-07
1.9470944e-07
1.9579923e-07
1.9661998e-07
1.9673276e-07
1.870853e-07
1.8542013e-07
1.8536701e-07
1.852865e-07
1.8537499e-07
1.8912466e-07
1.8913584e-07
1.8913543e-07
1.8912507e-07
1.8536847e-07
1.8528033e-07
1.8536288e-07
1.8541676e-07
1.8707781e-07
1.9673283e-07
1.9662005e-07
1.957993e-07
1.9684773e-07
1.9758691e-07
1.9553229e-07
1.8674291e-07
1.8666746e-07
1.8699501e-07
1.8970028e-07
1.9058019e-07
1.8935295e-07
1.9008355e-07
1.9008396e-07
1.8935681e-07
1.905902e-07
1.8972606e-07
1.8698946e-07
1.8666345e-07
1.8674475e-07
1.9553302e-07
1.9758697e-07
1.9684779e-07
1.9751356e-07
1.98519e-07
1.9065026e-07
1.8820062e-07
1.924584e-07
1.9297465e-07
1.9318588e-07
1.9314614e-07
1.8994408e-07
1.9022991e-07
1.9022812e-07
1.8994541e-07
1.9314922e-07
1.9318899e-07
1.9297627e-07
1.9246961e-07
1.8819946e-07
1.9065125e-07
1.9851906e-07
1.9751362e-07
1.9803815e-07
1.9936774e-07
1.9162625e-07
1.9418783e-07
1.9431572e-07
1.9426162e-07
1.9415543e-07
1.9410922e-07
1.9104679e-07
1.9078097e-07
1.9078092e-07
1.9103303e-07
1.9411239e-07
1.9415857e-07
1.942648e-07
1.9431886e-07
1.9418965e-07
1.9162486e-07
1.9936781e-07
1.9803822e-07
1.9692904e-07
1.9587866e-07
1.9508507e-07
1.9236542e-07
1.9524077e-07
1.9517616e-07
1.9505176e-07
1.9499653e-07
1.9494196e-07
1.915992e-07
1.9159916e-07
1.949452e-07
1.9499974e-07
1.95055e-07
1.9517937e-07
1.9524402e-07
1.9237037e-07
1.9508375e-07
1.9587747e-07
1.9692993e-07
1.8905663e-07
1.9121796e-07
1.9569226e-07
1.9262448e-07
1.9603203e-07
1.9596289e-07
1.9581892e-07
1.9575634e-07
1.9569798e-07
1.922849e-07
1.9228488e-07
1.9570128e-07
1.9575965e-07
1.958222e-07
1.9596621e-07
1.9603532e-07
1.9262461e-07
1.9569101e-07
1.9121809e-07
1.8905693e-07
1.882359e-07
1.9117527e-07
1.9597976e-07
1.9305699e-07
1.9661763e-07
1.9655063e-07
1.9639223e-07
1.9632003e-07
1.9407803e-07
1.9466213e-07
1.9468048e-07
1.9408501e-07
1.9632341e-07
1.9639563e-07
1.96554e-07
1.9662099e-07
1.9305712e-07
1.9597857e-07
1.9117541e-07
1.8823607e-07
1.8672762e-07
1.907175e-07
1.9302768e-07
1.9316789e-07
1.9357047e-07
1.9489661e-07
1.9572705e-07
1.9348805e-07
1.9321235e-07
1.9503844e-07
1.9503783e-07
1.9321248e-07
1.9346922e-07
1.9571961e-07
1.9489924e-07
1.9355694e-07
1.9316802e-07
1.9303057e-07
1.9071766e-07
1.8672782e-07
1.8430732e-07
1.8974133e-07
1.9184075e-07
1.9283899e-07
1.9333574e-07
1.9332327e-07
1.931562e-07
1.9306988e-07
1.9302641e-07
1.9445992e-07
1.9445961e-07
1.9302654e-07
1.9307001e-07
1.9315633e-07
1.9332341e-07
1.9333588e-07
1.9283914e-07
1.9184091e-07
1.8974152e-07
1.8430757e-07
1.8068872e-07
1.8766433e-07
1.9067602e-07
1.9193593e-07
1.9256443e-07
1.9261091e-07
1.9245229e-07
1.9235852e-07
1.9232284e-07
1.92377e-07
1.9237714e-07
1.9232298e-07
1.9235866e-07
1.9245243e-07
1.9261105e-07
1.9256458e-07
1.919361e-07
1.9067621e-07
1.876646e-07
1.8068905e-07
1.7550499e-07
1.8403653e-07
1.8857853e-07
1.903351e-07
1.9110551e-07
1.9123707e-07
1.9110112e-07
1.9099814e-07
1.9097018e-07
1.9101907e-07
1.9101922e-07
1.9097033e-07
1.9099829e-07
1.9110127e-07
1.9123723e-07
1.9110568e-07
1.9033528e-07
1.8857878e-07
1.8403688e-07
1.7550544e-07
1.6833857e-07
1.786908e-07
1.8448664e-07
1.8724985e-07
1.8859663e-07
1.8893838e-07
1.8879805e-07
1.8864352e-07
1.8861394e-07
1.8867203e-07
1.8867218e-07
1.886141e-07
1.8864368e-07
1.8879822e-07
1.8893856e-07
1.8859683e-07
1.8725008e-07
1.8448695e-07
1.7869126e-07
1.6833917e-07
1.6183825e-07
1.7115504e-07
1.7844623e-07
1.8201935e-07
1.837934e-07
1.843615e-07
1.8428783e-07
1.8413045e-07
1.8410443e-07
1.8415409e-07
1.8415425e-07
1.841046e-07
1.8413063e-07
1.8428802e-07
1.843617e-07
1.8379363e-07
1.8201964e-07
1.7844661e-07
1.7115563e-07
1.6183765e-07
2.3137861e-07
1.7182398e-07
1.6994319e-07
1.7447113e-07
1.7680138e-07
1.7765416e-07
1.7769929e-07
1.775767e-07
1.7755215e-07
1.7759002e-07
1.7759018e-07
1.7755233e-07
1.7757689e-07
1.776995e-07
1.7765439e-07
1.7680164e-07
1.7447147e-07
1.6994366e-07
1.7182117e-07
2.3135492e-07
1.8949763e-06
3.5881777e-07
1.8260319e-07
1.7212025e-07
1.717501e-07
1.7184909e-07
1.7164357e-07
1.7140547e-07
1.7127284e-07
1.7124897e-07
1.7124904e-07
1.7127288e-07
1.7140546e-07
1.7164354e-07
1.7184901e-07
1.717499e-07
1.7211965e-07
1.8259987e-07
3.5876895e-07
1.8943255e-06
6.6670438e-05
4.035726e-06
6.3949766e-07
3.5042425e-07
2.8679166e-07
2.6479934e-07
2.568599e-07
2.5308452e-07
2.5078561e-07
2.4978195e-07
2.497815e-07
2.5078422e-07
2.5308188e-07
2.5685643e-07
2.6479426e-07
2.8678324e-07
3.5040617e-07
6.3942499e-07
4.0347563e-06
6.6648951e-05
0.00041172838
0.00010357965
2.0331629e-05
8.288811e-06
5.1998672e-06
4.1186425e-06
3.6923499e-06
3.4697038e-06
3.3450716e-06
3.289015e-06
3.288992e-06
3.3450017e-06
3.4695757e-06
3.6921792e-06
4.1183953e-06
5.1994371e-06
8.2879018e-06
2.0328472e-05
0.00010356483
0.00041172882
0.00040717516
0.0004091782
0.00041257453
0.00041663782
0.00042025651
0.00020068629
0.00019640529
0.00019409263
0.00019275131
0.00019215039
0.0001921501
0.00019275041
0.00019409101
0.00019640321
0.00020068349
0.00042025692
0.0004166383
0.00041257503
0.00040917866
0.0004071756
)
;

boundaryField
{
    Wall
    {
        type            calculated;
        value           uniform 4e-05;
    }
    frontAndBack
    {
        type            empty;
    }
    atmosphere
    {
        type            calculated;
        value           uniform 4e-05;
    }
}


// ************************************************************************* //
