/*--------------------------------*- C++ -*----------------------------------*\
| =========                 |                                                 |
| \\      /  F ield         | OpenFOAM: The Open Source CFD Toolbox           |
|  \\    /   O peration     | Version:  3.0.1                                 |
|   \\  /    A nd           | Web:      www.OpenFOAM.org                      |
|    \\/     M anipulation  |                                                 |
\*---------------------------------------------------------------------------*/
FoamFile
{
    version     2.0;
    format      ascii;
    class       volScalarField;
    location    "36";
    object      thermalDiff_gas;
}
// * * * * * * * * * * * * * * * * * * * * * * * * * * * * * * * * * * * * * //

dimensions      [0 2 -1 0 0 0 0];

internalField   nonuniform List<scalar> 
800
(
0.00034315553
0.00034317675
0.00034318204
0.00034318275
0.00034318266
0.00034318253
0.00034318247
0.00034318246
0.00034318247
0.00034318248
0.00034318248
0.00034318247
0.00034318246
0.00034318247
0.00034318254
0.00034318267
0.00034318275
0.00034318204
0.00034317675
0.00034315553
0.00034308067
0.00034313921
0.0003431647
0.00034317402
0.00034317743
0.0003431786
0.0003431789
0.0003431789
0.00034317884
0.00034317879
0.00034317879
0.00034317884
0.0003431789
0.0003431789
0.00034317859
0.00034317743
0.00034317402
0.0003431647
0.0003431392
0.00034308066
0.00034271889
0.00034281997
0.0003428686
0.00034288716
0.00034289394
0.00034289619
0.00034289671
0.00034289666
0.00034289649
0.00034289638
0.00034289638
0.00034289649
0.00034289665
0.0003428967
0.00034289618
0.00034289394
0.00034288715
0.00034286859
0.00034281996
0.00034271887
0.00034240437
0.000342537
0.00034260537
0.00034263161
0.00034264101
0.00034264402
0.00034264465
0.00034264453
0.00034264428
0.00034264411
0.00034264411
0.00034264427
0.00034264453
0.00034264465
0.00034264401
0.000342641
0.0003426316
0.00034260535
0.00034253699
0.00034240435
0.00034221094
0.00034236438
0.00034244817
0.00034248036
0.00034249168
0.00034249521
0.00034249591
0.00034249575
0.00034249543
0.00034249524
0.00034249524
0.00034249543
0.00034249574
0.00034249591
0.0003424952
0.00034249167
0.00034248035
0.00034244816
0.00034236436
0.00034221091
0.00034215717
0.00034232058
0.0003424152
0.00034245139
0.00034246377
0.0003424675
0.00034246816
0.00034246793
0.00034246757
0.00034246735
0.00034246735
0.00034246757
0.00034246792
0.00034246815
0.00034246749
0.00034246377
0.00034245138
0.00034241518
0.00034232056
0.00034215714
0.00034226308
0.0003424243
0.00034252477
0.00034256277
0.00034257522
0.00034257869
0.0003425791
0.00034257873
0.0003425783
0.00034257805
0.00034257805
0.0003425783
0.00034257873
0.0003425791
0.00034257868
0.00034257522
0.00034256276
0.00034252476
0.00034242428
0.00034226305
0.0003425541
0.00034269917
0.00034280007
0.00034283748
0.00034284887
0.0003428515
0.00034285141
0.00034285077
0.00034285021
0.00034284992
0.00034284992
0.00034285021
0.00034285077
0.0003428514
0.00034285149
0.00034284886
0.00034283747
0.00034280006
0.00034269915
0.00034255407
0.00034305742
0.00034317058
0.00034326594
0.00034330017
0.00034330931
0.00034331052
0.00034330962
0.00034330857
0.00034330781
0.00034330744
0.00034330744
0.00034330781
0.00034330856
0.00034330961
0.00034331052
0.0003433093
0.00034330016
0.00034326593
0.00034317057
0.0003430574
0.00034380235
0.00034386628
0.0003439493
0.00034397751
0.00034398306
0.00034398215
0.00034398005
0.00034397837
0.00034397732
0.00034397684
0.00034397684
0.00034397732
0.00034397837
0.00034398004
0.00034398215
0.00034398306
0.0003439775
0.00034394929
0.00034386627
0.00034380233
0.00034481888
0.0003448148
0.0003448778
0.00034489694
0.00034489749
0.00034489371
0.00034488999
0.00034488746
0.000344886
0.00034488536
0.00034488536
0.000344886
0.00034488746
0.00034488999
0.00034489371
0.00034489749
0.00034489694
0.0003448778
0.00034481479
0.00034481887
0.00034613597
0.00034604396
0.00034607828
0.00034608516
0.00034607921
0.00034607173
0.00034606594
0.00034606231
0.00034606032
0.00034605946
0.00034605946
0.00034606033
0.00034606231
0.00034606594
0.00034607174
0.00034607921
0.00034608516
0.00034607828
0.00034604396
0.00034613596
0.0003477824
0.00034758191
0.00034757769
0.00034756887
0.0003475548
0.00034754269
0.00034753427
0.00034752923
0.00034752658
0.00034752543
0.00034752543
0.00034752658
0.00034752923
0.00034753427
0.00034754269
0.0003475548
0.00034756888
0.0003475777
0.00034758191
0.0003477824
0.0003497873
0.00034945722
0.00034940338
0.00034937532
0.00034935134
0.00034933351
0.00034932186
0.00034931501
0.0003493115
0.00034930998
0.00034930999
0.00034931151
0.00034931502
0.00034932187
0.00034933352
0.00034935135
0.00034937533
0.00034940339
0.00034945722
0.00034978731
0.00035218126
0.00035170011
0.0003515844
0.00035153343
0.00035149753
0.00035147271
0.00035145708
0.00035144794
0.00035144331
0.00035144133
0.00035144134
0.00035144332
0.00035144795
0.00035145709
0.00035147272
0.00035149754
0.00035153344
0.00035158442
0.00035170012
0.00035218127
0.00035499978
0.00035434503
0.00035415422
0.00035407647
0.00035402615
0.00035399273
0.0003539721
0.00035396014
0.00035395412
0.00035395158
0.00035395158
0.00035395413
0.00035396015
0.00035397211
0.00035399275
0.00035402617
0.00035407649
0.00035415424
0.00035434506
0.00035499981
0.0003582681
0.00035741758
0.00035713832
0.00035703005
0.00035696236
0.00035691858
0.0003568919
0.00035687656
0.00035686881
0.00035686555
0.00035686555
0.00035686881
0.00035687657
0.00035689191
0.00035691859
0.00035696238
0.00035703008
0.00035713835
0.00035741761
0.00035826813
0.00036201192
0.00036094344
0.00036056324
0.00036042056
0.00036033159
0.00036027565
0.00036024197
0.00036022248
0.00036021214
0.00036020793
0.00036020793
0.00036021215
0.00036022249
0.00036024199
0.00036027567
0.00036033161
0.00036042059
0.00036056327
0.00036094348
0.00036201196
0.00036625968
0.00036494951
0.00036445735
0.00036427599
0.00036416119
0.00036409196
0.00036405064
0.00036402613
0.00036401163
0.00036400611
0.00036400612
0.00036401163
0.00036402614
0.00036405066
0.00036409199
0.00036416121
0.00036427603
0.00036445739
0.00036494955
0.00036625973
0.00037104497
0.00036946901
0.0003688541
0.00036862961
0.00036848484
0.00036840145
0.00036835174
0.00036832153
0.00036830066
0.00036829333
0.00036829333
0.00036830066
0.00036832154
0.00036835176
0.00036840148
0.00036848487
0.00036862965
0.00036885414
0.00036946906
0.00037104503
0.00037638602
0.00037452212
0.00037377398
0.00037350226
0.0003733247
0.00037322543
0.00037316564
0.00037312906
0.00037309874
0.00037308908
0.00037308908
0.00037309875
0.00037312907
0.00037316566
0.00037322545
0.00037332473
0.00037350231
0.00037377403
0.00037452217
0.00037638608
0.00038231534
0.00038014132
0.0003792502
0.00037892827
0.00037871474
0.00037859696
0.00037852443
0.00037848069
0.00037843599
0.00037842347
0.00037842347
0.000378436
0.00037848071
0.00037852446
0.00037859699
0.00037871478
0.00037892831
0.00037925024
0.00038014137
0.00038231539
0.00038888
0.00038637157
0.00038532684
0.0003849542
0.00038470019
0.00038456105
0.00038447242
0.00038442091
0.00038435533
0.00038433925
0.00038433926
0.00038435534
0.00038442093
0.00038447245
0.00038456108
0.00038470023
0.00038495424
0.00038532688
0.00038637162
0.00038888005
0.00039610941
0.00039324479
0.0003920356
0.00039161147
0.00039131163
0.00039114736
0.00039103832
0.00039097868
0.00039088612
0.00039086565
0.00039086566
0.00039088613
0.0003909787
0.00039103834
0.00039114739
0.00039131167
0.00039161151
0.00039203564
0.00039324483
0.00039610945
0.00040406299
0.00040081825
0.00039943375
0.00039895633
0.00039860445
0.00039841039
0.0003982766
0.0003982091
0.00039808352
0.0003980579
0.0003980579
0.00039808352
0.00039820911
0.00039827661
0.00039841042
0.00039860448
0.00039895637
0.00039943379
0.00040081828
0.00040406303
0.00041280224
0.00040915327
0.00040757985
0.00040704716
0.00040663659
0.00040640716
0.00040624493
0.00040617077
0.00040600555
0.00040597488
0.00040597488
0.00040600555
0.00040617077
0.00040624494
0.00040640717
0.00040663661
0.00040704718
0.00040757987
0.00040915329
0.00041280225
0.000422382
0.00041830815
0.00041652835
0.00041593948
0.00041546264
0.00041519053
0.00041499602
0.0004149173
0.00041470676
0.00041467237
0.00041467238
0.00041470676
0.0004149173
0.00041499603
0.00041519054
0.00041546265
0.00041593949
0.00041652836
0.00041830815
0.00042238199
0.00043286611
0.00042835486
0.0004263498
0.00042570338
0.0004251507
0.00042482625
0.0004245961
0.00042451628
0.00042425779
0.00042422163
0.00042422163
0.00042425778
0.00042451627
0.0004245961
0.00042482625
0.0004251507
0.00042570338
0.00042634979
0.00042835484
0.00043286608
0.00044428232
0.00043934797
0.00043710599
0.00043640285
0.00043576538
0.00043537754
0.00043511097
0.00043503623
0.00043473254
0.00043469626
0.00043469626
0.00043473253
0.00043503622
0.00043511096
0.00043537753
0.00043576537
0.00043640284
0.00043710597
0.00043934792
0.00044428227
0.0004565938
0.00045130851
0.00044884137
0.00044809056
0.00044736103
0.00044689883
0.0004465988
0.00044653803
0.00044619671
0.00044616294
0.00044616293
0.0004461967
0.00044653802
0.00044659878
0.00044689881
0.000447361
0.00044809053
0.00044884133
0.00045130845
0.00045659374
0.00046958687
0.00046414649
0.00046152989
0.00046076378
0.00045994552
0.00045940334
0.0004590769
0.00045904067
0.00045867487
0.00045864895
0.00045864895
0.00045867485
0.00045904065
0.00045907688
0.00045940331
0.00045994549
0.00046076374
0.00046152984
0.00046414643
0.00046958685
0.0004826462
0.00047750002
0.00047497293
0.00047427645
0.00047339932
0.00047278922
0.00047244576
0.00047243668
0.00047206653
0.00047205637
0.00047205637
0.00047206652
0.00047243666
0.00047244574
0.0004727892
0.00047339929
0.00047427642
0.00047497289
0.0004775
0.00048264629
0.00049422725
0.00049044686
0.00048860255
0.00048817791
0.00048731849
0.00048669801
0.00048635614
0.00048634087
0.00048599467
0.0004860113
0.0004860113
0.00048599467
0.00048634086
0.00048635613
0.000486698
0.00048731849
0.00048817791
0.00048860257
0.00049044699
0.00049422766
0.00050104077
0.00050090621
0.0005010514
0.00050136621
0.00050068854
0.00050021072
0.00049987506
0.00049979601
0.00049951427
0.00049957379
0.00049957379
0.00049951428
0.00049979602
0.00049987509
0.00050021076
0.0005006886
0.0005013663
0.00050105158
0.00050090672
0.00050104188
0.00049745463
0.0005046082
0.00050933865
0.00051142746
0.0005112695
0.00051113905
0.00051086436
0.00051072954
0.00051057128
0.00051069711
0.00051069712
0.00051057132
0.00051072961
0.00051086447
0.00051113919
0.0005112697
0.00051142776
0.00050933918
0.00050460949
0.00049745702
0.00047608346
0.00049436186
0.00050775916
0.00051328085
0.00051469728
0.00051507033
0.00051511126
0.00051516451
0.00051522413
0.00051544884
0.00051544887
0.00051522423
0.00051516468
0.00051511151
0.00051507066
0.00051469774
0.00051328152
0.00050776032
0.00049436437
0.00047608739
0.00044031952
0.00046484682
0.00048828102
0.00049900943
0.00050329715
0.00050519252
0.00050604155
0.00050608113
0.00050646028
0.00050681363
0.00050681369
0.00050646046
0.00050608146
0.000506042
0.00050519314
0.00050329798
0.00049901065
0.000488283
0.00046485035
0.00044032219
0.00042329751
0.00042983548
0.0004501481
0.00046437658
0.00047156647
0.00047471371
0.00047675454
0.00047802998
0.00047889858
0.00047940923
0.00047940932
0.00047889885
0.00047803045
0.00047675516
0.00047471455
0.00047156763
0.00046437815
0.00045015029
0.00042983731
0.00042329836
0.00041172838
0.00041626905
0.0004220001
0.00042814386
0.00043238656
0.00043542364
0.00043756207
0.00043849569
0.00043941836
0.00043990874
0.00043990878
0.00043941849
0.00043849591
0.00043756237
0.00043542404
0.0004323871
0.00042814455
0.0004220009
0.00041626969
0.00041172882
0.00040717516
0.0004091782
0.00041257453
0.00041663782
0.00042025651
0.00042315088
0.0004252837
0.00042666986
0.00042759923
0.00042807125
0.00042807128
0.00042759934
0.00042667004
0.00042528395
0.00042315121
0.00042025692
0.0004166383
0.00041257503
0.00040917866
0.0004071756
)
;

boundaryField
{
    Wall
    {
        type            calculated;
        value           uniform 0.1;
    }
    frontAndBack
    {
        type            empty;
    }
    atmosphere
    {
        type            calculated;
        value           uniform 0.1;
    }
}


// ************************************************************************* //
