/*--------------------------------*- C++ -*----------------------------------*\
| =========                 |                                                 |
| \\      /  F ield         | OpenFOAM: The Open Source CFD Toolbox           |
|  \\    /   O peration     | Version:  3.0.1                                 |
|   \\  /    A nd           | Web:      www.OpenFOAM.org                      |
|    \\/     M anipulation  |                                                 |
\*---------------------------------------------------------------------------*/
FoamFile
{
    version     2.0;
    format      ascii;
    class       volScalarField;
    location    "36";
    object      TS;
}
// * * * * * * * * * * * * * * * * * * * * * * * * * * * * * * * * * * * * * //

dimensions      [0 0 0 1 0 0 0];

internalField   nonuniform List<scalar> 
800
(
372.17939
372.19249
372.19576
372.19621
372.19616
372.19608
372.19604
372.19603
372.19604
372.19604
372.19604
372.19604
372.19603
372.19604
372.19608
372.19616
372.19621
372.19576
372.19249
372.17939
372.13715
372.17311
372.1888
372.19454
372.19664
372.19736
372.19755
372.19755
372.19752
372.19749
372.19749
372.19752
372.19755
372.19755
372.19736
372.19664
372.19454
372.18879
372.1731
372.13715
371.91884
371.98092
372.01085
372.0223
372.02649
372.02788
372.02821
372.02818
372.02808
372.02801
372.02801
372.02808
372.02818
372.02821
372.02788
372.02649
372.0223
372.01085
371.98091
371.91882
371.72837
371.80985
371.85195
371.86814
371.87395
371.87582
371.87622
371.87615
371.87599
371.87589
371.87589
371.87599
371.87615
371.87621
371.87581
371.87395
371.86813
371.85194
371.80984
371.72836
371.61169
371.70596
371.75757
371.77743
371.78443
371.78662
371.78706
371.78697
371.78678
371.78666
371.78666
371.78678
371.78696
371.78706
371.78662
371.78442
371.77742
371.75756
371.70595
371.61167
371.58043
371.68084
371.73912
371.76145
371.76911
371.77143
371.77184
371.77171
371.77149
371.77135
371.77135
371.77149
371.77171
371.77184
371.77142
371.76911
371.76145
371.73911
371.68083
371.58041
371.64689
371.74597
371.80785
371.8313
371.83901
371.84116
371.84143
371.8412
371.84094
371.84079
371.84079
371.84094
371.8412
371.84142
371.84116
371.839
371.8313
371.80784
371.74596
371.64687
371.82663
371.91579
371.97793
372.00102
372.00807
372.00971
372.00966
372.00927
372.00893
372.00875
372.00875
372.00893
372.00927
372.00966
372.00971
372.00806
372.00101
371.97792
371.91578
371.82661
372.13627
372.20584
372.26454
372.28567
372.29133
372.29209
372.29154
372.2909
372.29044
372.29021
372.29021
372.29043
372.2909
372.29154
372.29209
372.29133
372.28566
372.26454
372.20583
372.13626
372.59366
372.63299
372.68408
372.70148
372.70493
372.70438
372.70309
372.70206
372.70142
372.70112
372.70112
372.70142
372.70206
372.70309
372.70438
372.70492
372.70148
372.68407
372.63298
372.59364
373.21699
373.21457
373.25333
373.26513
373.26549
373.26317
373.26088
373.25933
373.25843
373.25803
373.25803
373.25843
373.25933
373.26088
373.26316
373.26548
373.26513
373.25332
373.21456
373.21698
374.02374
373.96739
373.98851
373.99273
373.98908
373.98449
373.98092
373.97868
373.97746
373.97693
373.97693
373.97746
373.97868
373.98092
373.98449
373.98908
373.99273
373.9885
373.96738
374.02374
375.03112
374.9083
374.90576
374.90031
374.89164
374.88419
374.87901
374.87591
374.87428
374.87357
374.87358
374.87428
374.87591
374.87902
374.8842
374.89165
374.90031
374.90576
374.9083
375.03111
376.25637
376.05428
376.02133
376.00402
375.98927
375.97831
375.97115
375.96693
375.96477
375.96384
375.96384
375.96478
375.96694
375.97115
375.97831
375.98928
376.00403
376.02133
376.05428
376.25637
377.71739
377.42308
377.3523
377.32091
377.29885
377.2836
377.274
377.26839
377.26555
377.26433
377.26433
377.26555
377.26839
377.27401
377.28361
377.29886
377.32092
377.35231
377.42309
377.7174
379.43481
379.03481
378.91819
378.87039
378.83951
378.81901
378.80635
378.79902
378.79533
378.79377
378.79378
378.79534
378.79903
378.80636
378.81902
378.83952
378.8704
378.91821
379.03482
379.43482
381.4229
380.90409
380.73363
380.66715
380.6257
380.59888
380.58255
380.57316
380.56843
380.56644
380.56644
380.56844
380.57316
380.58256
380.5989
380.62572
380.66717
380.73365
380.9041
381.42292
383.69581
383.04522
382.81346
382.72599
382.67166
382.63745
382.61685
382.60495
382.59869
382.59612
382.59613
382.5987
382.60496
382.61686
382.63746
382.67167
382.72601
382.81348
383.04524
383.69583
386.26894
385.47283
385.17331
385.06234
384.9924
384.95013
384.92491
384.90997
384.90127
384.89792
384.89792
384.90127
384.90998
384.92492
384.95014
384.99242
385.06236
385.17333
385.47286
386.26896
389.16032
388.2049
387.8314
387.69433
387.60634
387.55552
387.52528
387.50691
387.49447
387.49003
387.49004
387.49447
387.50692
387.52529
387.55554
387.60636
387.69435
387.83142
388.20493
389.16035
392.37879
391.25169
390.79825
390.63269
390.52502
390.46471
390.4285
390.40632
390.38836
390.38253
390.38253
390.38836
390.40633
390.42852
390.46473
390.52504
390.63272
390.79827
391.25172
392.37882
395.94074
394.62978
394.09101
393.89527
393.76618
393.69487
393.65115
393.6247
393.59836
393.59084
393.59084
393.59837
393.62472
393.65117
393.69489
393.7662
393.8953
394.09104
394.62981
395.94077
399.87071
398.36272
397.73285
397.50675
397.35372
397.26981
397.21666
397.18561
397.14708
397.13746
397.13746
397.14708
397.18562
397.21668
397.26983
397.35374
397.50677
397.73287
398.36274
399.87074
404.183
402.46647
401.73967
401.48299
401.30303
401.20443
401.13938
401.10353
401.04929
401.03709
401.03709
401.0493
401.10354
401.1394
401.20445
401.30306
401.48301
401.73969
402.4665
404.18302
408.90784
406.97037
406.14095
405.85285
405.64253
405.52665
405.44724
405.40678
405.33341
405.31819
405.31819
405.33341
405.40679
405.44725
405.52667
405.64255
405.85287
406.14098
406.97039
408.90786
414.07685
411.90607
410.96693
410.64643
410.40212
410.26591
410.17015
410.12581
410.02959
410.01139
410.01139
410.02959
410.12581
410.17015
410.26592
410.40213
410.64645
410.96695
411.90608
414.07686
419.71741
417.30301
416.24484
415.89163
415.6093
415.44879
415.33461
415.28765
415.1654
415.14503
415.14504
415.1654
415.28765
415.33461
415.4488
415.6093
415.89164
416.24485
417.30302
419.71741
425.8615
423.19757
422.01009
421.62366
421.29814
421.1081
420.97378
420.92623
420.77657
420.75521
420.75521
420.77657
420.92623
420.97378
421.1081
421.29814
421.62366
422.01008
423.19756
425.86149
432.52181
429.61658
428.29345
427.87415
427.50071
427.27519
427.12046
427.07586
426.90056
426.87917
426.87917
426.90055
427.07585
427.12046
427.27518
427.5007
427.87414
428.29344
429.61656
432.52178
439.67684
436.56895
435.11603
434.66841
434.24333
433.97644
433.80314
433.76654
433.57017
433.55023
433.55022
433.57016
433.76654
433.80313
433.97643
434.24332
434.6684
435.116
436.56891
439.6768
447.21352
444.00592
442.46213
442.00284
441.52793
441.21674
441.02904
441.00631
440.79651
440.78097
440.78096
440.7965
441.0063
441.02902
441.21673
441.52791
442.00282
442.4621
444.00588
447.2135
454.81228
451.73799
450.22679
449.79968
449.29042
448.94143
448.7448
448.73744
448.52559
448.51879
448.51879
448.52559
448.73743
448.74479
448.94142
449.2904
449.79966
450.22676
451.73797
454.81232
461.67728
459.28889
458.1167
457.82574
457.32157
456.96485
456.76901
456.75945
456.56107
456.5689
456.5689
456.56107
456.75944
456.76901
456.96485
457.32156
457.82573
458.11671
459.28895
461.67749
466.11005
465.59158
465.43433
465.51928
465.10344
464.81771
464.62441
464.58093
464.41749
464.44834
464.44834
464.41749
464.58093
464.62443
464.81773
465.10346
465.51933
465.43442
465.59184
466.11062
465.13695
468.44331
470.66192
471.65534
471.49855
471.38824
471.22242
471.14488
471.04686
471.11283
471.11284
471.04688
471.14492
471.22248
471.38831
471.49865
471.65548
470.66219
468.44398
465.13822
454.54434
464.00163
470.8445
473.62783
474.2696
474.41294
474.40119
474.40872
474.42464
474.54293
474.54295
474.42469
474.40881
474.40131
474.41311
474.26983
473.62818
470.84511
464.00298
454.54653
434.79012
448.86992
461.54241
467.16654
469.32671
470.25024
470.65408
470.64264
470.82905
471.01761
471.01764
470.82915
470.64282
470.65432
470.25057
469.32715
467.16719
461.54349
448.87193
434.79191
423.78546
428.72144
441.13776
449.147
453.03312
454.69219
455.77093
456.39595
456.85869
457.14054
457.14059
456.85884
456.39622
455.77127
454.69266
453.03377
449.14791
441.13908
428.72273
423.786
416.79979
419.5943
423.0898
426.59848
429.0508
432.14275
433.50119
434.02116
434.56082
434.84946
434.84948
434.5609
434.0213
433.50138
432.14302
429.05112
426.59891
423.09032
419.59472
416.80008
414.12465
415.29101
417.31514
419.74327
422.11737
425.76752
427.74864
428.73379
429.31079
429.59532
429.59534
429.31085
428.73389
427.74879
425.76772
422.11762
419.74357
417.31547
415.29131
414.12494
)
;

boundaryField
{
    Wall
    {
        type            zeroGradient;
    }
    frontAndBack
    {
        type            empty;
    }
    atmosphere
    {
        type            zeroGradient;
    }
}


// ************************************************************************* //
