/*--------------------------------*- C++ -*----------------------------------*\
| =========                 |                                                 |
| \\      /  F ield         | OpenFOAM: The Open Source CFD Toolbox           |
|  \\    /   O peration     | Version:  3.0.1                                 |
|   \\  /    A nd           | Web:      www.OpenFOAM.org                      |
|    \\/     M anipulation  |                                                 |
\*---------------------------------------------------------------------------*/
FoamFile
{
    version     2.0;
    format      ascii;
    class       volVectorField;
    location    "36";
    object      U;
}
// * * * * * * * * * * * * * * * * * * * * * * * * * * * * * * * * * * * * * //

dimensions      [0 1 -1 0 0 0 0];

internalField   nonuniform List<vector> 
800
(
(1.0367296e-05 0.00025363226 0)
(1.3359884e-05 0.0002603011 0)
(1.6169108e-05 0.00026373143 0)
(1.6462708e-05 0.0002661489 0)
(1.5202328e-05 0.00026775798 0)
(1.3027139e-05 0.00026874938 0)
(1.0364301e-05 0.00026931677 0)
(7.475921e-06 0.00026961846 0)
(4.500627e-06 0.00026976489 0)
(1.5001237e-06 0.00026982228 0)
(-1.5047991e-06 0.00026982197 0)
(-4.5052143e-06 0.00026976399 0)
(-7.4803254e-06 0.00026961697 0)
(-1.0368401e-05 0.00026931471 0)
(-1.3030794e-05 0.00026874674 0)
(-1.5205393e-05 0.00026775475 0)
(-1.6465148e-05 0.00026614505 0)
(-1.6170401e-05 0.00026372694 0)
(-1.3359964e-05 0.00026029543 0)
(-1.036719e-05 0.00025362928 0)
(7.7072984e-06 0.00025227793 0)
(9.1856167e-06 0.00025980181 0)
(1.3084001e-05 0.00026376776 0)
(1.4169564e-05 0.00026630498 0)
(1.3536444e-05 0.00026786891 0)
(1.1880366e-05 0.00026875374 0)
(9.6207514e-06 0.00026920659 0)
(7.0288457e-06 0.00026941157 0)
(4.2673261e-06 0.00026949031 0)
(1.4286598e-06 0.00026951329 0)
(-1.4323417e-06 0.0002695132 0)
(-4.2709144e-06 0.00026949007 0)
(-7.0322519e-06 0.00026941117 0)
(-9.6238848e-06 0.00026920601 0)
(-1.1883134e-05 0.00026875296 0)
(-1.3538788e-05 0.0002678679 0)
(-1.4171539e-05 0.0002663037 0)
(-1.3085675e-05 0.00026376612 0)
(-9.1864721e-06 0.00025979933 0)
(-7.7080159e-06 0.00025227869 0)
(7.5766207e-06 0.00047081083 0)
(8.6894074e-06 0.00048067155 0)
(1.2169371e-05 0.00048760385 0)
(1.3257311e-05 0.00049216584 0)
(1.2769142e-05 0.0004950726 0)
(1.1294037e-05 0.0004968124 0)
(9.2067055e-06 0.00049778359 0)
(6.7612386e-06 0.00049828482 0)
(4.1193149e-06 0.00049851886 0)
(1.3815604e-06 0.00049860751 0)
(-1.3850295e-06 0.00049860742 0)
(-4.1226977e-06 0.00049851858 0)
(-6.7644617e-06 0.00049828434 0)
(-9.209678e-06 0.00049778289 0)
(-1.1296665e-05 0.00049681148 0)
(-1.2771377e-05 0.00049507145 0)
(-1.3259272e-05 0.00049216448 0)
(-1.2171067e-05 0.00048760226 0)
(-8.6906967e-06 0.00048066977 0)
(-7.5778009e-06 0.00047081024 0)
(7.8067407e-06 0.00067925522 0)
(8.8951976e-06 0.00069176204 0)
(1.1974763e-05 0.00070094211 0)
(1.2896242e-05 0.00070718431 0)
(1.237495e-05 0.00071124892 0)
(1.0937635e-05 0.00071374656 0)
(8.9217729e-06 0.00071519009 0)
(6.5589028e-06 0.00071596988 0)
(3.999834e-06 0.00071635489 0)
(1.3423169e-06 0.00071650898 0)
(-1.3452949e-06 0.00071650884 0)
(-4.0027436e-06 0.00071635448 0)
(-6.5616815e-06 0.00071596918 0)
(-8.924328e-06 0.00071518909 0)
(-1.0939869e-05 0.00071374525 0)
(-1.2376808e-05 0.00071124731 0)
(-1.2897826e-05 0.00070718242 0)
(-1.1976192e-05 0.00070093996 0)
(-8.896117e-06 0.00069175972 0)
(-7.8075429e-06 0.00067925504 0)
(7.9705918e-06 0.00088754904 0)
(9.1454754e-06 0.0009027625 0)
(1.20672e-05 0.00091408246 0)
(1.284408e-05 0.0009218854 0)
(1.2238681e-05 0.00092702637 0)
(1.07716e-05 0.00093023533 0)
(8.7652429e-06 0.00093212954 0)
(6.4356942e-06 0.00093318097 0)
(3.9223714e-06 0.00093371676 0)
(1.3160844e-06 0.00093393744 0)
(-1.3187985e-06 0.00093393721 0)
(-3.9250293e-06 0.00093371605 0)
(-6.4382345e-06 0.00093317978 0)
(-8.7675861e-06 0.00093212786 0)
(-1.0773654e-05 0.00093023315 0)
(-1.2240378e-05 0.00092702369 0)
(-1.2845591e-05 0.00092188226 0)
(-1.2068592e-05 0.00091407887 0)
(-9.1463305e-06 0.00090275851 0)
(-7.9713803e-06 0.00088754728 0)
(8.117173e-06 0.0010968974 0)
(9.3923346e-06 0.0011151489 0)
(1.224399e-05 0.0011286387 0)
(1.2911551e-05 0.0011379409 0)
(1.2221173e-05 0.0011440847 0)
(1.0705835e-05 0.001147943 0)
(8.6841177e-06 0.0011502429 0)
(6.3631951e-06 0.0011515368 0)
(3.8736136e-06 0.0011522065 0)
(1.2990811e-06 0.0011524862 0)
(-1.3015677e-06 0.0011524859 0)
(-3.8760589e-06 0.0011522057 0)
(-6.3655419e-06 0.0011515354 0)
(-8.686298e-06 0.001150241 0)
(-1.0707765e-05 0.0011479405 0)
(-1.2222789e-05 0.0011440817 0)
(-1.2912976e-05 0.0011379373 0)
(-1.2245483e-05 0.0011286345 0)
(-9.3934628e-06 0.0011151442 0)
(-8.1181724e-06 0.0010968949 0)
(8.2916315e-06 0.001307843 0)
(9.66275e-06 0.0013293874 0)
(1.2450197e-05 0.0013451012 0)
(1.3027649e-05 0.0013558879 0)
(1.2263064e-05 0.0013630019 0)
(1.0698959e-05 0.0013674754 0)
(8.6531142e-06 0.0013701529 0)
(6.3277049e-06 0.001371669 0)
(3.8471908e-06 0.0013724601 0)
(1.2894976e-06 0.0013727928 0)
(-1.2917867e-06 0.0013727925 0)
(-3.8494409e-06 0.0013724592 0)
(-6.3298775e-06 0.0013716676 0)
(-8.655149e-06 0.0013701509 0)
(-1.070079e-05 0.0013674727 0)
(-1.2264638e-05 0.0013629986 0)
(-1.3029183e-05 0.001355884 0)
(-1.2451947e-05 0.0013450967 0)
(-9.6642932e-06 0.0013293821 0)
(-8.2930983e-06 0.0013078393 0)
(8.5623838e-06 0.0015204206 0)
(1.000959e-05 0.0015456948 0)
(1.2647362e-05 0.0015635973 0)
(1.3142775e-05 0.0015758435 0)
(1.2321737e-05 0.0015839059 0)
(1.0719213e-05 0.0015889736 0)
(8.6506053e-06 0.0015920096 0)
(6.3158101e-06 0.0015937328 0)
(3.8359409e-06 0.0015946348 0)
(1.2850852e-06 0.0015950151 0)
(-1.2872499e-06 0.0015950145 0)
(-3.8380748e-06 0.0015946329 0)
(-6.3178755e-06 0.0015937297 0)
(-8.652556e-06 0.0015920054 0)
(-1.0720999e-05 0.0015889682 0)
(-1.2323325e-05 0.0015838994 0)
(-1.3144361e-05 0.0015758359 0)
(-1.2649524e-05 0.0015635887 0)
(-1.0012176e-05 0.001545685 0)
(-8.5647984e-06 0.0015204103 0)
(8.4185303e-06 0.0017338005 0)
(9.8904072e-06 0.0017633541 0)
(1.2700643e-05 0.0017834363 0)
(1.3205753e-05 0.0017971653 0)
(1.2370719e-05 0.0018061905 0)
(1.0749427e-05 0.0018118554 0)
(8.6648444e-06 0.0018152467 0)
(6.3198554e-06 0.0018171716 0)
(3.8355312e-06 0.00181818 0)
(1.2841372e-06 0.0018186054 0)
(-1.2873847e-06 0.0018186048 0)
(-3.8387412e-06 0.0018181782 0)
(-6.3229621e-06 0.0018171686 0)
(-8.6677876e-06 0.0018152426 0)
(-1.0752134e-05 0.0018118502 0)
(-1.2373157e-05 0.0018061844 0)
(-1.3208221e-05 0.0017971583 0)
(-1.27039e-05 0.0017834287 0)
(-9.8954359e-06 0.001763346 0)
(-8.4232066e-06 0.0017337924 0)
(8.0552769e-06 0.0019480947 0)
(9.4714829e-06 0.001980709 0)
(1.2677015e-05 0.0020031448 0)
(1.3270236e-05 0.0020184637 0)
(1.2440167e-05 0.0020285115 0)
(1.0805209e-05 0.0020348062 0)
(8.7037763e-06 0.00203857 0)
(6.344079e-06 0.0020407056 0)
(3.8484639e-06 0.002041825 0)
(1.2882444e-06 0.0020422981 0)
(-1.2912903e-06 0.0020422982 0)
(-3.8514524e-06 0.0020418255 0)
(-6.3469614e-06 0.0020407063 0)
(-8.7064793e-06 0.0020385709 0)
(-1.0807647e-05 0.0020348075 0)
(-1.2442308e-05 0.0020285131 0)
(-1.3272227e-05 0.0020184658 0)
(-1.26795e-05 0.0020031477 0)
(-9.4748696e-06 0.0019807132 0)
(-8.0586186e-06 0.0019480844 0)
(8.2199213e-06 0.0021628268 0)
(9.6237895e-06 0.0021977602 0)
(1.2811193e-05 0.0022226787 0)
(1.3414168e-05 0.0022396384 0)
(1.2563982e-05 0.0022507239 0)
(1.0902815e-05 0.0022576473 0)
(8.775109e-06 0.0022617761 0)
(6.391568e-06 0.0022641136 0)
(3.8755114e-06 0.0022653367 0)
(1.2975292e-06 0.0022658534 0)
(-1.2987914e-06 0.0022658538 0)
(-3.8767217e-06 0.002265338 0)
(-6.3927159e-06 0.0022641157 0)
(-8.7761321e-06 0.002261779 0)
(-1.0903625e-05 0.002257651 0)
(-1.2564482e-05 0.0022507284 0)
(-1.3414346e-05 0.0022396437 0)
(-1.2810967e-05 0.0022226851 0)
(-9.6221754e-06 0.002197768 0)
(-8.2181727e-06 0.0021628214 0)
(8.5250566e-06 0.0023785507 0)
(9.9669637e-06 0.0024166253 0)
(1.3089002e-05 0.0024439737 0)
(1.3635288e-05 0.0024625401 0)
(1.2731251e-05 0.0024746376 0)
(1.1026073e-05 0.0024821653 0)
(8.8622019e-06 0.0024866365 0)
(6.4484335e-06 0.0024891563 0)
(3.9074368e-06 0.0024904688 0)
(1.3082457e-06 0.0024910209 0)
(-1.3079633e-06 0.0024910203 0)
(-3.9071207e-06 0.0024904672 0)
(-6.4480648e-06 0.0024891537 0)
(-8.8617478e-06 0.0024866329 0)
(-1.1025492e-05 0.0024821608 0)
(-1.2730473e-05 0.0024746322 0)
(-1.3634232e-05 0.002462534 0)
(-1.3087511e-05 0.0024439669 0)
(-9.9635738e-06 0.0024166176 0)
(-8.5221446e-06 0.0023785439 0)
(8.7968243e-06 0.0025962053 0)
(1.0267217e-05 0.0026376079 0)
(1.3368749e-05 0.0026673495 0)
(1.3858628e-05 0.0026875065 0)
(1.2895022e-05 0.0027006101 0)
(1.1140788e-05 0.0027087389 0)
(8.9386094e-06 0.002713548 0)
(6.4952428e-06 0.0027162457 0)
(3.9318675e-06 0.0027176439 0)
(1.3151509e-06 0.0027182293 0)
(-1.3168527e-06 0.0027182281 0)
(-3.9335121e-06 0.0027176403 0)
(-6.4967769e-06 0.0027162398 0)
(-8.9399698e-06 0.0027135398 0)
(-1.1141901e-05 0.0027087286 0)
(-1.2895835e-05 0.0027005978 0)
(-1.3859217e-05 0.0026874924 0)
(-1.3369417e-05 0.0026673336 0)
(-1.0267892e-05 0.0026375898 0)
(-8.7974309e-06 0.0025961846 0)
(9.1042738e-06 0.0028148452 0)
(1.0605026e-05 0.0028598241 0)
(1.3680648e-05 0.0028920184 0)
(1.4112011e-05 0.0029137882 0)
(1.3080655e-05 0.0029279082 0)
(1.12666e-05 0.0029366433 0)
(9.0180243e-06 0.0029417926 0)
(6.5414636e-06 0.0029446686 0)
(3.954929e-06 0.0029461525 0)
(1.3217171e-06 0.0029467712 0)
(-1.3242277e-06 0.0029467706 0)
(-3.957387e-06 0.0029461506 0)
(-6.5438107e-06 0.0029446655 0)
(-9.0201849e-06 0.0029417882 0)
(-1.1268511e-05 0.0029366378 0)
(-1.3082275e-05 0.0029279016 0)
(-1.411346e-05 0.0029137807 0)
(-1.3682711e-05 0.00289201 0)
(-1.0608763e-05 0.0028598148 0)
(-9.1075904e-06 0.0028148353 0)
(9.5275006e-06 0.0030338608 0)
(1.1059268e-05 0.0030828203 0)
(1.4020191e-05 0.003117438 0)
(1.437059e-05 0.0031408052 0)
(1.3261747e-05 0.003155926 0)
(1.138006e-05 0.0031652528 0)
(9.0811266e-06 0.0031707296 0)
(6.5726771e-06 0.0031737727 0)
(3.9674632e-06 0.0031753336 0)
(1.3246329e-06 0.0031759806 0)
(-1.3269387e-06 0.0031759805 0)
(-3.9697197e-06 0.0031753331 0)
(-6.5748243e-06 0.0031737718 0)
(-9.0831061e-06 0.0031707285 0)
(-1.1381815e-05 0.0031652514 0)
(-1.3263231e-05 0.0031559244 0)
(-1.4371898e-05 0.0031408035 0)
(-1.4021987e-05 0.0031174365 0)
(-1.1062498e-05 0.0030828192 0)
(-9.5304597e-06 0.0030338486 0)
(9.5081438e-06 0.0032545214 0)
(1.1067989e-05 0.0033067643 0)
(1.4244665e-05 0.0033437914 0)
(1.458584e-05 0.0033687521 0)
(1.3413385e-05 0.0033848499 0)
(1.1464096e-05 0.0033947379 0)
(9.1141117e-06 0.0034005137 0)
(6.5777002e-06 0.0034036995 0)
(3.9621671e-06 0.0034053208 0)
(1.3212886e-06 0.0034059871 0)
(-1.3226012e-06 0.0034059872 0)
(-3.9634543e-06 0.0034053212 0)
(-6.5789163e-06 0.0034037003 0)
(-9.1152082e-06 0.0034005148 0)
(-1.1465006e-05 0.0033947393 0)
(-1.3413997e-05 0.0033848516 0)
(-1.458605e-05 0.0033687541 0)
(-1.4244588e-05 0.003343794 0)
(-1.106735e-05 0.0033067676 0)
(-9.5071858e-06 0.0032545143 0)
(9.7466414e-06 0.0034778443 0)
(1.1290022e-05 0.0035331328 0)
(1.4512483e-05 0.0035726353 0)
(1.4773002e-05 0.0035991719 0)
(1.3506511e-05 0.0036161936 0)
(1.1477093e-05 0.0036265831 0)
(9.0766996e-06 0.0036326047 0)
(6.5244502e-06 0.0036358898 0)
(3.9185245e-06 0.0036375415 0)
(1.3044865e-06 0.003638211 0)
(-1.3041981e-06 0.0036382103 0)
(-3.9182201e-06 0.0036375395 0)
(-6.5241113e-06 0.0036358865 0)
(-9.0763001e-06 0.0036326001 0)
(-1.1476585e-05 0.0036265772 0)
(-1.3505825e-05 0.0036161865 0)
(-1.4772037e-05 0.0035991637 0)
(-1.4511255e-05 0.0035726261 0)
(-1.1288128e-05 0.0035331227 0)
(-9.7449521e-06 0.0034778336 0)
(1.0301243e-05 0.0037052861 0)
(1.1807674e-05 0.0037642933 0)
(1.4806018e-05 0.0038062626 0)
(1.4875459e-05 0.0038343241 0)
(1.3473415e-05 0.003852208 0)
(1.1352459e-05 0.0038630391 0)
(8.9105724e-06 0.0038692537 0)
(6.3681854e-06 0.0038725949 0)
(3.8082193e-06 0.0038742471 0)
(1.2631928e-06 0.003874904 0)
(-1.2651288e-06 0.0038749029 0)
(-3.8101302e-06 0.0038742438 0)
(-6.370043e-06 0.0038725894 0)
(-8.9123281e-06 0.003869246 0)
(-1.1354026e-05 0.0038630294 0)
(-1.3474678e-05 0.0038521964 0)
(-1.4876357e-05 0.0038343107 0)
(-1.4807043e-05 0.0038062475 0)
(-1.180987e-05 0.0037642767 0)
(-1.0303037e-05 0.0037052678 0)
(1.0954327e-05 0.0039371385 0)
(1.240283e-05 0.0039997283 0)
(1.5068048e-05 0.0040440196 0)
(1.4872907e-05 0.0040735252 0)
(1.3291836e-05 0.0040921987 0)
(1.106215e-05 0.0041034032 0)
(8.5866224e-06 0.004109749 0)
(6.0850541e-06 0.0041130953 0)
(3.616945e-06 0.0041147124 0)
(1.1945585e-06 0.0041153383 0)
(-1.1964612e-06 0.0041153379 0)
(-3.6188441e-06 0.0041147114 0)
(-6.0869074e-06 0.0041130936 0)
(-8.588389e-06 0.0041097465 0)
(-1.1063756e-05 0.0041034001 0)
(-1.3293183e-05 0.0040921949 0)
(-1.4873901e-05 0.0040735209 0)
(-1.5069252e-05 0.0040440151 0)
(-1.2405711e-05 0.0039997234 0)
(-1.0956834e-05 0.0039371257 0)
(1.1145292e-05 0.0041733846 0)
(1.2494325e-05 0.0042392516 0)
(1.5079323e-05 0.0042857616 0)
(1.46297e-05 0.0043165876 0)
(1.2847736e-05 0.0043359143 0)
(1.0505478e-05 0.0043473598 0)
(8.0198102e-06 0.0043537202 0)
(5.6095695e-06 0.0043569791 0)
(3.3037931e-06 0.0043584964 0)
(1.0846244e-06 0.004359057 0)
(-1.0858269e-06 0.0043590569 0)
(-3.3050131e-06 0.0043584961 0)
(-5.6107723e-06 0.0043569786 0)
(-8.0209569e-06 0.0043537195 0)
(-1.0506487e-05 0.004347359 0)
(-1.2848485e-05 0.0043359134 0)
(-1.4629992e-05 0.0043165866 0)
(-1.5079325e-05 0.0042857607 0)
(-1.2494931e-05 0.0042392506 0)
(-1.1145541e-05 0.0041733755 0)
(1.1529862e-05 0.004415538 0)
(1.2673906e-05 0.0044849558 0)
(1.4933346e-05 0.0045336919 0)
(1.4085789e-05 0.0045657006 0)
(1.2033287e-05 0.0045855067 0)
(9.5631578e-06 0.0045970214 0)
(7.1002145e-06 0.0046032433 0)
(4.8546985e-06 0.0046062897 0)
(2.8132329e-06 0.004607619 0)
(9.1432734e-07 0.0046080677 0)
(-9.14517e-07 0.0046080671 0)
(-2.8134323e-06 0.0046076173 0)
(-4.8548845e-06 0.0046062869 0)
(-7.1003545e-06 0.0046032394 0)
(-9.5631921e-06 0.0045970165 0)
(-1.2033114e-05 0.0045855009 0)
(-1.4085154e-05 0.004565694 0)
(-1.4932478e-05 0.0045336847 0)
(-1.2673951e-05 0.004484948 0)
(-1.1529947e-05 0.0044155281 0)
(1.2132671e-05 0.0046658085 0)
(1.2958684e-05 0.0047387298 0)
(1.4544483e-05 0.0047894467 0)
(1.3103236e-05 0.0048224064 0)
(1.0689576e-05 0.0048424574 0)
(8.0743162e-06 0.0048538238 0)
(5.6834871e-06 0.0048597151 0)
(3.705973e-06 0.0048623929 0)
(2.0719129e-06 0.0048634217 0)
(6.5810616e-07 0.0048636992 0)
(-6.5941333e-07 0.0048636984 0)
(-2.0732142e-06 0.0048634193 0)
(-3.7072286e-06 0.0048623889 0)
(-5.6846368e-06 0.0048597096 0)
(-8.0752709e-06 0.0048538169 0)
(-1.0690218e-05 0.0048424492 0)
(-1.3103344e-05 0.0048223971 0)
(-1.4544365e-05 0.0047894366 0)
(-1.296022e-05 0.0047387184 0)
(-1.213415e-05 0.0046657887 0)
(1.2420735e-05 0.0049246352 0)
(1.2720492e-05 0.0050009697 0)
(1.3606926e-05 0.0050534659 0)
(1.1471726e-05 0.0050870931 0)
(8.6127135e-06 0.0051070919 0)
(5.8439096e-06 0.0051180281 0)
(3.596628e-06 0.0051233317 0)
(2.0253252e-06 0.0051254342 0)
(9.9105009e-07 0.0051260147 0)
(2.8685347e-07 0.0051260426 0)
(-2.8805468e-07 0.0051260424 0)
(-9.9222812e-07 0.0051260139 0)
(-2.0264329e-06 0.005125433 0)
(-3.5975971e-06 0.0051233301 0)
(-5.8446475e-06 0.0051180262 0)
(-8.6130949e-06 0.0051070897 0)
(-1.147138e-05 0.0050870907 0)
(-1.3606152e-05 0.0050534635 0)
(-1.2721349e-05 0.0050009667 0)
(-1.2421579e-05 0.0049246239 0)
(1.2687941e-05 0.0051936504 0)
(1.2226208e-05 0.005273534 0)
(1.2054297e-05 0.0053275797 0)
(8.9621039e-06 0.0053614715 0)
(5.5323345e-06 0.0053809929 0)
(2.5952388e-06 0.0053911015 0)
(5.8956836e-07 0.0053954469 0)
(-3.824678e-07 0.0053966959 0)
(-5.5605561e-07 0.0053966265 0)
(-2.4369829e-07 0.0053963003 0)
(2.4364073e-07 0.0053962999 0)
(5.5605056e-07 0.005396625 0)
(3.8258568e-07 0.0053966936 0)
(-5.8925465e-07 0.0053954438 0)
(-2.5946877e-06 0.0053910979 0)
(-5.5314812e-06 0.0053809886 0)
(-8.9605674e-06 0.0053614667 0)
(-1.2052169e-05 0.0053275746 0)
(-1.2225865e-05 0.0052735283 0)
(-1.2688141e-05 0.0051936384 0)
(1.2755458e-05 0.0054754546 0)
(1.1152314e-05 0.005558586 0)
(9.5107051e-06 0.0056137598 0)
(5.1765219e-06 0.0056473789 0)
(1.0431229e-06 0.0056658654 0)
(-2.0660492e-06 0.0056746016 0)
(-3.6761584e-06 0.0056775725 0)
(-3.7671565e-06 0.0056775714 0)
(-2.7297614e-06 0.0056765795 0)
(-9.880258e-07 0.0056757702 0)
(9.8726186e-07 0.0056757696 0)
(2.7291032e-06 0.0056765778 0)
(3.7666711e-06 0.0056775683 0)
(3.6760688e-06 0.0056775686 0)
(2.0663169e-06 0.0056745967 0)
(-1.0425522e-06 0.0056658599 0)
(-5.1748692e-06 0.0056473725 0)
(-9.5080501e-06 0.0056137528 0)
(-1.1151266e-05 0.0055585778 0)
(-1.2755054e-05 0.0054754382 0)
(1.2418161e-05 0.0057714003 0)
(9.182685e-06 0.0058575803 0)
(5.5783817e-06 0.0059134311 0)
(-3.8207537e-07 0.0059460524 0)
(-5.3945197e-06 0.0059628347 0)
(-8.5960923e-06 0.0059694895 0)
(-9.6003834e-06 0.0059704569 0)
(-8.4962216e-06 0.0059686925 0)
(-5.7409454e-06 0.0059664365 0)
(-2.0124855e-06 0.0059649552 0)
(2.0125474e-06 0.0059649548 0)
(5.7409191e-06 0.0059664353 0)
(8.4965428e-06 0.0059686903 0)
(9.6012014e-06 0.0059704542 0)
(8.5973134e-06 0.005969486 0)
(5.3960541e-06 0.005962831 0)
(3.8447227e-07 0.0059460479 0)
(-5.5745399e-06 0.005913426 0)
(-9.1803891e-06 0.0058575744 0)
(-1.241695e-05 0.0057713899 0)
(1.173131e-05 0.0060851358 0)
(6.1903564e-06 0.0061738708 0)
(-2.4961163e-07 0.0062296501 0)
(-8.3558953e-06 0.0062605047 0)
(-1.4421065e-05 0.0062745991 0)
(-1.7733967e-05 0.0062782306 0)
(-1.782693e-05 0.0062762929 0)
(-1.4989481e-05 0.006272117 0)
(-9.8689798e-06 0.006268134 0)
(-3.4267091e-06 0.006265735 0)
(3.4269274e-06 0.0062657343 0)
(9.8690126e-06 0.0062681318 0)
(1.4989932e-05 0.006272113 0)
(1.7828013e-05 0.0062762876 0)
(1.7735652e-05 0.006278224 0)
(1.4423023e-05 0.0062745912 0)
(8.3585675e-06 0.0062604957 0)
(2.538633e-07 0.0062296398 0)
(-6.187827e-06 0.0061738595 0)
(-1.1730135e-05 0.0060851231 0)
(1.0455347e-05 0.006419713 0)
(1.613996e-06 0.0065105843 0)
(-8.5965018e-06 0.0065653455 0)
(-1.9548133e-05 0.006593297 0)
(-2.7087238e-05 0.0066033497 0)
(-3.0413542e-05 0.0066027077 0)
(-2.9138825e-05 0.006596766 0)
(-2.3849566e-05 0.006589301 0)
(-1.5487239e-05 0.0065829872 0)
(-5.3487756e-06 0.0065793703 0)
(5.3484014e-06 0.0065793694 0)
(1.5486535e-05 0.0065829846 0)
(2.3849292e-05 0.0065892966 0)
(2.9139408e-05 0.0065967599 0)
(3.0414658e-05 0.0066027001 0)
(2.7088839e-05 0.0066033405 0)
(1.9550302e-05 0.0065932867 0)
(8.5998918e-06 0.006565334 0)
(-1.6128547e-06 0.0065105717 0)
(-1.0455542e-05 0.0064197002 0)
(8.3831593e-06 0.0067790648 0)
(-5.1090114e-06 0.0068716206 0)
(-2.057452e-05 0.006924176 0)
(-3.5332529e-05 0.0069474794 0)
(-4.4689203e-05 0.0069517207 0)
(-4.7839187e-05 0.0069451043 0)
(-4.4561744e-05 0.006933726 0)
(-3.5828916e-05 0.0069218562 0)
(-2.3044422e-05 0.0069124679 0)
(-7.9313435e-06 0.0069072562 0)
(7.9305063e-06 0.0069072554 0)
(2.304333e-05 0.0069124653 0)
(3.5828269e-05 0.0069218524 0)
(4.4561986e-05 0.0069337206 0)
(4.7840131e-05 0.0069450976 0)
(4.4690812e-05 0.0069517129 0)
(3.533492e-05 0.0069474706 0)
(2.0577676e-05 0.0069241663 0)
(5.1093017e-06 0.0068716104 0)
(-8.3839919e-06 0.006779055 0)
(5.0450633e-06 0.007167391 0)
(-1.5025231e-05 0.0072611658 0)
(-3.7756525e-05 0.0073098268 0)
(-5.7571272e-05 0.0073262285 0)
(-6.9116309e-05 0.0073222156 0)
(-7.1666866e-05 0.0073073381 0)
(-6.5383413e-05 0.0072886671 0)
(-5.184899e-05 0.0072710268 0)
(-3.3090978e-05 0.0072576563 0)
(-1.1356311e-05 0.0072504073 0)
(1.1354655e-05 0.0072504064 0)
(3.308942e-05 0.0072576535 0)
(5.1848012e-05 0.0072710227 0)
(6.5383237e-05 0.0072886615 0)
(7.1667597e-05 0.0073073309 0)
(6.9117865e-05 0.0073222073 0)
(5.757346e-05 0.0073262197 0)
(3.7759711e-05 0.0073098175 0)
(1.5025416e-05 0.0072611566 0)
(-5.0461889e-06 0.0071673821 0)
(-4.6051145e-08 0.0075898011 0)
(-2.9521516e-05 0.007684276 0)
(-6.2437e-05 0.007726824 0)
(-8.8834769e-05 0.0077331638 0)
(-0.00010282397 0.0077175556 0)
(-0.00010396003 0.0076914149 0)
(-9.3150957e-05 0.0076631074 0)
(-7.2952832e-05 0.0076380631 0)
(-4.6227898e-05 0.0076196802 0)
(-1.5817479e-05 0.007609906 0)
(1.581461e-05 0.007609905 0)
(4.6225333e-05 0.0076196771 0)
(7.2951085e-05 0.0076380582 0)
(9.3149833e-05 0.0076631006 0)
(0.00010396013 0.0076914067 0)
(0.00010282566 0.0077175465 0)
(8.8837755e-05 0.0077331545 0)
(6.244098e-05 0.0077268145 0)
(2.9521997e-05 0.0076842663 0)
(4.5326997e-08 0.0075897916 0)
(-7.7665543e-06 0.0080528238 0)
(-5.0769586e-05 0.0081474646 0)
(-9.7905486e-05 0.0081808016 0)
(-0.00013274689 0.0081725335 0)
(-0.0001490723 0.0081407387 0)
(-0.00014727677 0.0080994855 0)
(-0.0001296317 0.0080587337 0)
(-0.00010023554 0.0080244263 0)
(-6.3035736e-05 0.0079999581 0)
(-2.1494256e-05 0.007987177 0)
(2.148971e-05 0.0079871759 0)
(6.3031605e-05 0.007999955 0)
(0.00010023222 0.008024421 0)
(0.00012962953 0.0080587266 0)
(0.00014727641 0.0080994765 0)
(0.00014907399 0.0081407291 0)
(0.00013275001 0.0081725242 0)
(9.790953e-05 0.008180793 0)
(5.0770519e-05 0.0081474564 0)
(7.7668388e-06 0.0080528154 0)
(-1.9309216e-05 0.0085637534 0)
(-8.2109834e-05 0.0086583962 0)
(-0.00014911595 0.0086778912 0)
(-0.00019428771 0.0086484038 0)
(-0.00021188627 0.0085942 0)
(-0.00020441132 0.00853316 0)
(-0.00017655622 0.0084768999 0)
(-0.00013462222 0.0084315507 0)
(-8.3910202e-05 0.0084001168 0)
(-2.8493148e-05 0.0083839862 0)
(2.84869e-05 0.0083839849 0)
(8.3904174e-05 0.0084001133 0)
(0.00013461723 0.0084315446 0)
(0.0001765522 0.0084768921 0)
(0.00020440959 0.0085331507 0)
(0.00021188824 0.0085941907 0)
(0.00019429257 0.0086483956 0)
(0.0001491225 0.008677884 0)
(8.2112928e-05 0.0086583898 0)
(1.9311742e-05 0.008563746 0)
(-3.6610226e-05 0.0091302191 0)
(-0.00012892566 0.0092250561 0)
(-0.00022346962 0.0092235036 0)
(-0.00028011909 0.0091632277 0)
(-0.00029589406 0.0090785618 0)
(-0.0002779176 0.0089925531 0)
(-0.00023497599 0.008918081 0)
(-0.00017629295 0.0088606138 0)
(-0.00010871189 0.0088219518 0)
(-3.6726011e-05 0.0088024764 0)
(3.671707e-05 0.0088024747 0)
(0.00010870331 0.008821947 0)
(0.0001762858 0.0088606062 0)
(0.00023497096 0.0089180709 0)
(0.00027791571 0.0089925421 0)
(0.00029589666 0.0090785504 0)
(0.00028012442 0.0091632181 0)
(0.00022347677 0.0092234976 0)
(0.00012893187 0.0092250541 0)
(3.6617519e-05 0.0091302193 0)
(-6.3597829e-05 0.009760671 0)
(-0.00020063568 0.0098545775 0)
(-0.00033185321 0.0098200754 0)
(-0.00039838956 0.009715402 0)
(-0.00040538422 0.0095908514 0)
(-0.00036886721 0.0094753247 0)
(-0.00030410868 0.0093815464 0)
(-0.00022386349 0.0093125441 0)
(-0.00013630381 0.0092676007 0)
(-4.5767196e-05 0.0092453986 0)
(4.5754842e-05 0.0092453967 0)
(0.00013629212 0.009267595 0)
(0.00022385341 0.0093125351 0)
(0.00030410115 0.0093815339 0)
(0.00036886353 0.0094753098 0)
(0.00040538628 0.0095908351 0)
(0.00039839776 0.0097153867 0)
(0.00033186596 0.0098200655 0)
(0.00020064797 0.009854577 0)
(6.3611044e-05 0.0097606797 0)
(-0.00010985623 0.010464095 0)
(-0.00031525276 0.010548619 0)
(-0.00048995092 0.010460947 0)
(-0.00055774242 0.01029415 0)
(-0.00054222441 0.010121166 0)
(-0.00047477007 0.0099754723 0)
(-0.00037972516 0.0098650375 0)
(-0.00027337492 0.0097878752 0)
(-0.00016404227 0.0097394833 0)
(-5.4698005e-05 0.0097160822 0)
(5.4682149e-05 0.0097160802 0)
(0.00016402718 0.0097394771 0)
(0.00027336145 0.0097878651 0)
(0.0003797143 0.0098650235 0)
(0.0004747633 0.0099754549 0)
(0.00054222388 0.010121146 0)
(0.00055774889 0.010294131 0)
(0.00048996453 0.010460932 0)
(0.00031526844 0.010548619 0)
(0.00010987366 0.010464117 0)
(-0.00020102943 0.011207527 0)
(-0.00050862411 0.011279985 0)
(-0.00071873826 0.011113723 0)
(-0.00076411972 0.010866101 0)
(-0.00070154722 0.010642692 0)
(-0.00058622119 0.010475549 0)
(-0.00045275756 0.010357852 0)
(-0.00031782053 0.010280538 0)
(-0.00018756367 0.010234104 0)
(-6.2055813e-05 0.010212105 0)
(6.2036868e-05 0.010212102 0)
(0.00018754552 0.010234098 0)
(0.000317804 0.010280528 0)
(0.00045274349 0.010357837 0)
(0.0005862109 0.01047553 0)
(0.00070154323 0.01064267 0)
(0.00076412457 0.010866078 0)
(0.00071875347 0.01111371 0)
(0.00050864481 0.011279995 0)
(0.00020104983 0.011207574 0)
(-0.00041797935 0.011910887 0)
(-0.00082297723 0.011945732 0)
(-0.0010429147 0.011686826 0)
(-0.0010215656 0.011344447 0)
(-0.00087183116 0.011072849 0)
(-0.00068812671 0.010888168 0)
(-0.00051090094 0.010772654 0)
(-0.00034866086 0.010706087 0)
(-0.00020218192 0.010667112 0)
(-6.6379335e-05 0.0106486 0)
(6.6357927e-05 0.010648597 0)
(0.0002021613 0.010667104 0)
(0.0003486418 0.010706074 0)
(0.00051088386 0.010772637 0)
(0.00068811248 0.010888146 0)
(0.00087182307 0.011072822 0)
(0.0010215689 0.011344419 0)
(0.0010429346 0.011686811 0)
(0.00082300521 0.011945759 0)
(0.00041798905 0.011910956 0)
(-0.0010443842 0.012993731 0)
(-0.0014154375 0.012533526 0)
(-0.0016020817 0.012270645 0)
(-0.0014227862 0.011870119 0)
(-0.0011150327 0.011500403 0)
(-0.00082699076 0.01126849 0)
(-0.00057778528 0.011105872 0)
(-0.00037949457 0.011015375 0)
(-0.00021725556 0.010964317 0)
(-7.1006912e-05 0.010941333 0)
(7.0979748e-05 0.010941327 0)
(0.00021722922 0.010964297 0)
(0.00037946977 0.011015342 0)
(0.0005777619 0.01110583 0)
(0.00082696842 0.011268439 0)
(0.0011150148 0.011500349 0)
(0.0014227816 0.011870074 0)
(0.0016021121 0.012270631 0)
(0.0014154948 0.01253357 0)
(0.0010443965 0.01299382 0)
(-0.0036799408 0.017629755 0)
(-0.0038811497 0.014978761 0)
(-0.0039255493 0.01617312 0)
(-0.0033851597 0.01773484 0)
(-0.0025289344 0.019032799 0)
(-0.0017565878 0.019917456 0)
(-0.0011550229 0.020541671 0)
(-0.00072339896 0.020960524 0)
(-0.00040235001 0.021187503 0)
(-0.00012921462 0.021294152 0)
(0.00012912685 0.021294172 0)
(0.00040226273 0.021187563 0)
(0.00072331703 0.020960619 0)
(0.0011549475 0.020541805 0)
(0.0017565157 0.019917624 0)
(0.002528873 0.019033001 0)
(0.0033851319 0.017735068 0)
(0.0039256049 0.016173364 0)
(0.0038812145 0.014979005 0)
(0.0036800388 0.017630228 0)
)
;

boundaryField
{
    Wall
    {
        type            fixedValue;
        value           uniform (0 0 0);
    }
    frontAndBack
    {
        type            empty;
    }
    atmosphere
    {
        type            pressureInletOutletVelocity;
        value           nonuniform List<vector> 
20
(
(-0.0036799408 0.017629755 0)
(-0.0038811497 0.014978761 0)
(-0.0039255493 0.01617312 0)
(-0.0033851597 0.01773484 0)
(-0.0025289344 0.019032799 0)
(-0.0017565878 0.019917456 0)
(-0.0011550229 0.020541671 0)
(-0.00072339896 0.020960524 0)
(-0.00040235001 0.021187503 0)
(-0.00012921462 0.021294152 0)
(0.00012912685 0.021294172 0)
(0.00040226273 0.021187563 0)
(0.00072331703 0.020960619 0)
(0.0011549475 0.020541805 0)
(0.0017565157 0.019917624 0)
(0.002528873 0.019033001 0)
(0.0033851319 0.017735068 0)
(0.0039256049 0.016173364 0)
(0.0038812145 0.014979005 0)
(0.0036800388 0.017630228 0)
)
;
    }
}


// ************************************************************************* //
