/*--------------------------------*- C++ -*----------------------------------*\
| =========                 |                                                 |
| \\      /  F ield         | OpenFOAM: The Open Source CFD Toolbox           |
|  \\    /   O peration     | Version:  3.0.1                                 |
|   \\  /    A nd           | Web:      www.OpenFOAM.org                      |
|    \\/     M anipulation  |                                                 |
\*---------------------------------------------------------------------------*/
FoamFile
{
    version     2.0;
    format      ascii;
    class       volScalarField;
    location    "36";
    object      wBA_g;
}
// * * * * * * * * * * * * * * * * * * * * * * * * * * * * * * * * * * * * * //

dimensions      [0 0 0 0 0 0 0];

internalField   nonuniform List<scalar> 
800
(
0.049697424
0.049697986
0.049698226
0.04969832
0.049698386
0.049698438
0.049698478
0.049698507
0.049698526
0.049698535
0.049698535
0.049698526
0.049698507
0.049698478
0.049698438
0.049698386
0.04969832
0.049698226
0.049697986
0.049697424
0.051889611
0.051824912
0.051802089
0.051791869
0.051786941
0.051784559
0.051783433
0.051782918
0.051782695
0.051782615
0.051782615
0.051782695
0.051782919
0.051783434
0.051784561
0.051786944
0.051791873
0.051802094
0.051824918
0.051889621
0.053927781
0.053831229
0.053799384
0.053783689
0.053776397
0.053772995
0.053771419
0.053770704
0.053770391
0.053770275
0.053770276
0.053770392
0.053770706
0.053771421
0.053772998
0.053776401
0.053783694
0.053799391
0.053831237
0.053927793
0.055377409
0.055265133
0.05523459
0.055216928
0.055208866
0.055205157
0.05520343
0.055202648
0.055202298
0.055202167
0.055202167
0.055202299
0.055202649
0.055203432
0.055205159
0.05520887
0.055216932
0.055234596
0.055265139
0.055377419
0.056312548
0.05619913
0.056175118
0.056159459
0.056151929
0.056148516
0.056146899
0.056146164
0.056145817
0.056145686
0.056145686
0.056145817
0.056146164
0.0561469
0.056148517
0.05615193
0.05615946
0.056175121
0.056199134
0.056312554
0.056805342
0.056704865
0.056689243
0.056679644
0.056673681
0.056671084
0.056669828
0.05666927
0.056668983
0.056668876
0.056668876
0.056668982
0.056669269
0.056669827
0.056671082
0.05667368
0.056679642
0.056689242
0.056704865
0.056805342
0.056914002
0.056839284
0.056831921
0.056831657
0.056827918
0.056826498
0.056825798
0.056825531
0.056825358
0.056825302
0.056825302
0.056825357
0.056825528
0.056825794
0.056826493
0.056827913
0.056831651
0.056831915
0.056839278
0.056913995
0.056693637
0.056654889
0.05665486
0.056665874
0.056664609
0.056664534
0.056664495
0.056664589
0.05666457
0.056664585
0.056664584
0.056664567
0.056664585
0.056664489
0.056664526
0.0566646
0.056665864
0.056654849
0.056654878
0.056693623
0.056202633
0.056206501
0.056212789
0.056235345
0.056236469
0.056237613
0.056238167
0.056238591
0.056238704
0.056238784
0.056238783
0.056238701
0.056238585
0.056238159
0.056237602
0.056236456
0.056235331
0.056212773
0.056206485
0.056202612
0.055498591
0.055547399
0.055559302
0.055592328
0.055596013
0.055598339
0.055599423
0.055600164
0.055600412
0.055600564
0.055600562
0.055600407
0.055600157
0.055599412
0.055598326
0.055595997
0.05559231
0.055559283
0.055547378
0.055498565
0.054639701
0.054732557
0.054749006
0.054789728
0.054796249
0.054799719
0.054801007
0.054801879
0.054802156
0.054802335
0.054802334
0.054802151
0.05480187
0.054800995
0.054799703
0.054796231
0.054789707
0.054748983
0.054732532
0.054639671
0.053684064
0.053816874
0.053836725
0.05388142
0.053891879
0.053897017
0.053898169
0.053898977
0.053899183
0.053899349
0.053899347
0.053899178
0.053898968
0.053898155
0.053896999
0.053891858
0.053881395
0.053836699
0.053816846
0.05368403
0.052683508
0.052851402
0.052872804
0.052916761
0.052933156
0.05294093
0.052941449
0.052941895
0.052941914
0.052941991
0.052941989
0.052941908
0.052941885
0.052941434
0.052940911
0.052933133
0.052916734
0.052872775
0.052851371
0.052683472
0.05168516
0.051883322
0.051903869
0.051941842
0.051967262
0.051978959
0.051978215
0.051977894
0.051977763
0.051977644
0.051977642
0.051977757
0.051977883
0.0519782
0.051978939
0.051967238
0.051941814
0.051903839
0.05188329
0.051685123
0.050726907
0.050951581
0.050968564
0.050995338
0.051033783
0.051050703
0.051047918
0.05104632
0.051046517
0.051046107
0.051046105
0.05104651
0.051046309
0.051047902
0.051050682
0.051033757
0.050995308
0.050968532
0.050951547
0.050726869
0.049848316
0.050097314
0.050108162
0.050118951
0.050174659
0.0501976
0.050191704
0.050188134
0.050189798
0.050189157
0.050189155
0.050189792
0.050188125
0.050191689
0.050197581
0.050174636
0.050118924
0.050108133
0.050097283
0.049848281
0.049069496
0.049341977
0.049345112
0.049336618
0.049413516
0.049442602
0.049432376
0.049426072
0.049431149
0.049430794
0.049430792
0.049431143
0.049426062
0.04943236
0.049442582
0.049413492
0.049336589
0.049345081
0.049341944
0.04906946
0.048407439
0.048704675
0.048699799
0.048670247
0.048770948
0.048805126
0.048789063
0.048779083
0.048790012
0.048791141
0.048791139
0.048790007
0.048779074
0.048789048
0.048805107
0.048770924
0.048670219
0.04869977
0.048704644
0.048407405
0.047870955
0.048195631
0.048183932
0.048133303
0.048258975
0.048296083
0.048272526
0.048257811
0.048277058
0.048281666
0.048281665
0.048277052
0.048257801
0.048272511
0.048296063
0.048258952
0.048133275
0.048183902
0.048195599
0.04787092
0.047470683
0.047826878
0.047811295
0.047741003
0.04789163
0.047928541
0.047895766
0.047875165
0.047904695
0.047915464
0.047915463
0.047904691
0.047875158
0.047895754
0.047928526
0.04789161
0.04774098
0.04781127
0.047826851
0.047470654
0.047196386
0.047588997
0.047574012
0.047486597
0.047661544
0.047694519
0.047650824
0.047623123
0.047663895
0.047683796
0.047683795
0.047663891
0.047623115
0.047650811
0.047694502
0.047661523
0.047486572
0.047573985
0.047588967
0.047196353
0.047040409
0.047477209
0.047468479
0.047366759
0.047565333
0.047590401
0.047534148
0.047498165
0.047550065
0.047581926
0.047581925
0.047550062
0.047498158
0.047534138
0.047590387
0.047565315
0.047366737
0.047468455
0.047477183
0.047040381
0.047000671
0.047490118
0.047494662
0.047381999
0.047604353
0.047617884
0.047547489
0.047502088
0.047564106
0.047610155
0.047610154
0.047564102
0.047502081
0.047547478
0.04761787
0.047604335
0.047381976
0.047494638
0.047490092
0.047000641
0.047048944
0.047603993
0.047629699
0.047509514
0.047756337
0.047755247
0.047669139
0.047613293
0.04768385
0.047745331
0.047745331
0.047683847
0.047613286
0.047669129
0.047755233
0.04775632
0.047509492
0.047629676
0.047603968
0.047048915
0.04717141
0.047807573
0.047864908
0.047742284
0.048014819
0.047996916
0.047893414
0.047826101
0.047903432
0.047980446
0.047980446
0.04790343
0.047826094
0.047893404
0.047996903
0.048014802
0.047742264
0.047864885
0.047807548
0.047171382
0.047342829
0.048081687
0.048183041
0.048064625
0.048364187
0.048328773
0.048206333
0.048126721
0.04820927
0.048300849
0.048300848
0.048209267
0.048126715
0.048206323
0.048328759
0.048364171
0.048064604
0.048183019
0.048081662
0.0473428
0.047522201
0.048392668
0.048554398
0.048449841
0.048777034
0.04872541
0.048582629
0.048489978
0.04857635
0.048680527
0.048680527
0.048576347
0.048489972
0.048582618
0.048725396
0.048777019
0.048449822
0.048554376
0.048392644
0.047522172
0.047673789
0.048713533
0.048956311
0.048877991
0.049231804
0.04916719
0.049002495
0.048895884
0.048984602
0.049098611
0.04909861
0.0489846
0.048895878
0.049002485
0.049167177
0.049231789
0.048877973
0.048956289
0.04871351
0.047673762
0.047740391
0.048999056
0.04935114
0.049314903
0.049693991
0.049622397
0.049434842
0.049313692
0.049403375
0.049524104
0.049524104
0.049403373
0.049313687
0.049434833
0.049622384
0.049693977
0.049314885
0.04935112
0.048999035
0.047740369
0.047654579
0.049196715
0.049694132
0.049717913
0.050120597
0.050049605
0.049838256
0.049701804
0.049790612
0.049914659
0.049914659
0.04979061
0.049701799
0.049838247
0.050049593
0.050120584
0.049717897
0.049694114
0.049196698
0.047654564
0.047328365
0.049236101
0.049925513
0.050030211
0.050456112
0.050394682
0.050159447
0.050007028
0.050092747
0.050216749
0.050216749
0.050092746
0.050007024
0.050159439
0.050394671
0.050456101
0.050030198
0.049925499
0.049236091
0.047328361
0.046650404
0.049022536
0.049962359
0.050172818
0.050623944
0.050581404
0.050323749
0.050155249
0.050235195
0.050355939
0.050355939
0.050235194
0.050155247
0.050323742
0.050581394
0.050623935
0.050172809
0.04996235
0.049022537
0.046650419
0.045495444
0.048438074
0.049698387
0.050045023
0.050527518
0.050512687
0.050236258
0.050053197
0.050124286
0.050238809
0.050238809
0.050124287
0.050053197
0.050236253
0.05051268
0.050527512
0.050045019
0.049698387
0.048438092
0.045495485
0.043739584
0.047347857
0.049006199
0.049526726
0.05005344
0.050074573
0.04978578
0.049591851
0.049650852
0.049756533
0.049756534
0.049650854
0.049591852
0.049785778
0.05007457
0.050053439
0.04952673
0.049006211
0.047347901
0.043739663
0.041284963
0.045613624
0.047745913
0.048487541
0.049079149
0.049145472
0.048853741
0.048654379
0.048698302
0.048792968
0.048792969
0.048698305
0.048654383
0.048853743
0.049145473
0.049079154
0.048487555
0.047745941
0.045613702
0.041285096
0.038081487
0.043112397
0.045783662
0.046801639
0.047489288
0.047612206
0.047330367
0.047132948
0.047159516
0.047241543
0.047241545
0.047159521
0.047132956
0.047330373
0.047612212
0.047489301
0.046801665
0.045783711
0.043112514
0.03808169
0.034112178
0.039767267
0.043014239
0.044369737
0.045194278
0.045395037
0.045140571
0.044949183
0.04495732
0.045025659
0.045025662
0.044957327
0.044949195
0.045140582
0.045395051
0.045194301
0.044369778
0.043014313
0.039767431
0.034112474
0.02934664
0.035491293
0.039369955
0.041138723
0.042157617
0.042465698
0.042261658
0.042083209
0.042072566
0.042126351
0.042126354
0.042072576
0.042083225
0.042261675
0.04246572
0.042157651
0.041138782
0.039370061
0.035491524
0.029347015
0.024152547
0.030264766
0.034714967
0.03702424
0.038332089
0.03880557
0.038686561
0.038534307
0.038505572
0.038543357
0.038543362
0.038505585
0.038534329
0.038686585
0.038805603
0.038332139
0.037024322
0.034715113
0.030265053
0.024153037
0.018493839
0.024672609
0.028624035
0.030664424
0.031796013
0.032199494
0.032060222
0.031856671
0.031760474
0.031753287
0.031753288
0.031760476
0.031856673
0.032060219
0.032199492
0.031796019
0.030664453
0.028624129
0.0246729
0.01849444
)
;

boundaryField
{
    Wall
    {
        type            zeroGradient;
    }
    frontAndBack
    {
        type            empty;
    }
    atmosphere
    {
        type            zeroGradient;
    }
}


// ************************************************************************* //
