/*--------------------------------*- C++ -*----------------------------------*\
| =========                 |                                                 |
| \\      /  F ield         | OpenFOAM: The Open Source CFD Toolbox           |
|  \\    /   O peration     | Version:  3.0.1                                 |
|   \\  /    A nd           | Web:      www.OpenFOAM.org                      |
|    \\/     M anipulation  |                                                 |
\*---------------------------------------------------------------------------*/
FoamFile
{
    version     2.0;
    format      ascii;
    class       volScalarField;
    location    "36";
    object      wBA_l_0;
}
// * * * * * * * * * * * * * * * * * * * * * * * * * * * * * * * * * * * * * //

dimensions      [0 0 0 0 0 0 0];

internalField   nonuniform List<scalar> 
800
(
0.038029067
0.038027161
0.03802686
0.038026831
0.038026836
0.038026838
0.038026835
0.03802683
0.038026827
0.038026825
0.038026825
0.038026827
0.03802683
0.038026835
0.038026838
0.038026836
0.038026831
0.03802686
0.038027161
0.038029067
0.038362939
0.03834354
0.038337807
0.038335616
0.038334682
0.038334248
0.038334036
0.038333927
0.038333873
0.03833385
0.03833385
0.038333873
0.038333928
0.038334036
0.038334249
0.038334682
0.038335617
0.038337808
0.038343541
0.03836294
0.038676305
0.038648391
0.038639672
0.038636777
0.038635724
0.0386353
0.038635105
0.038635001
0.038634942
0.038634916
0.038634916
0.038634943
0.038635001
0.038635105
0.038635301
0.038635725
0.038636778
0.038639673
0.038648393
0.038676308
0.038845656
0.038814312
0.038804377
0.038801387
0.038800402
0.03880003
0.038799848
0.038799737
0.038799667
0.038799632
0.038799632
0.038799667
0.038799738
0.038799848
0.03880003
0.038800403
0.038801388
0.038804378
0.038814313
0.038845659
0.038896317
0.038866769
0.038857333
0.038854887
0.038854223
0.038853993
0.03885385
0.038853734
0.038853647
0.0388536
0.0388536
0.038853647
0.038853734
0.03885385
0.038853993
0.038854223
0.038854887
0.038857334
0.03886677
0.038896318
0.03884117
0.03881827
0.038810886
0.038809593
0.038809518
0.038809539
0.038809477
0.038809371
0.038809269
0.038809211
0.038809211
0.038809269
0.03880937
0.038809477
0.038809539
0.038809518
0.038809593
0.038810885
0.038818269
0.038841169
0.038688182
0.038676362
0.038672428
0.038672819
0.038673561
0.038673935
0.038673998
0.03867392
0.038673811
0.038673744
0.038673744
0.038673811
0.038673919
0.038673998
0.038673934
0.03867356
0.038672818
0.038672426
0.03867636
0.03868818
0.038444556
0.038447714
0.038448491
0.038451022
0.038452772
0.038453584
0.038453812
0.03845378
0.038453673
0.038453601
0.0384536
0.038453673
0.038453779
0.03845381
0.038453582
0.03845277
0.038451019
0.038448488
0.038447711
0.038444552
0.038119704
0.038141083
0.038147619
0.038152592
0.038155432
0.038156693
0.038157077
0.03815708
0.038156966
0.038156882
0.038156882
0.038156965
0.038157079
0.038157075
0.038156691
0.038155429
0.038152589
0.038147615
0.038141079
0.038119699
0.037723188
0.037765316
0.037778614
0.037786377
0.037790455
0.037792247
0.037792834
0.037792906
0.037792803
0.037792719
0.037792719
0.037792802
0.037792904
0.037792832
0.037792244
0.037790451
0.037786373
0.037778609
0.03776531
0.037723182
0.037265635
0.037330649
0.037351304
0.037361922
0.03736719
0.03736945
0.037370179
0.037370276
0.037370158
0.037370059
0.037370059
0.037370156
0.037370274
0.037370177
0.037369446
0.037367186
0.037361917
0.037351298
0.037330643
0.037265628
0.036751713
0.036847697
0.03687643
0.036890073
0.036896608
0.036899366
0.036900238
0.036900363
0.036900232
0.03690012
0.03690012
0.03690023
0.036900361
0.036900235
0.036899362
0.036896603
0.036890068
0.036876423
0.03684769
0.036751704
0.036191461
0.036311723
0.036349885
0.036366755
0.03637453
0.036377759
0.036378779
0.036378934
0.036378791
0.036378665
0.036378664
0.036378789
0.036378931
0.036378775
0.036377755
0.036374524
0.036366748
0.036349878
0.036311716
0.036191452
0.035592881
0.035738867
0.035787098
0.035807229
0.035816139
0.035819746
0.035820891
0.035821055
0.035820892
0.035820745
0.035820744
0.03582089
0.035821052
0.035820887
0.035819741
0.035816133
0.035807223
0.035787091
0.035738859
0.035592872
0.034962562
0.035136018
0.035194809
0.035218274
0.035228241
0.035232151
0.03523341
0.035233567
0.035233381
0.035233211
0.03523321
0.035233379
0.035233563
0.035233405
0.035232145
0.035228234
0.035218266
0.0351948
0.035136008
0.034962551
0.034313078
0.034515582
0.034585395
0.034612221
0.034623128
0.03462722
0.034628506
0.0346286
0.034628364
0.03462816
0.03462816
0.034628362
0.034628597
0.034628502
0.034627215
0.034623122
0.034612215
0.034585388
0.034515574
0.034313069
0.033646078
0.033878881
0.033960403
0.033990904
0.034002849
0.034007142
0.034008421
0.03400845
0.034008168
0.034007939
0.034007938
0.034008166
0.034008446
0.034008416
0.034007136
0.034002842
0.033990897
0.033960394
0.033878872
0.033646067
0.032965416
0.033230307
0.033324388
0.033358887
0.033371946
0.033376391
0.033377565
0.033377493
0.033377148
0.033376889
0.033376888
0.033377146
0.033377489
0.033377561
0.033376385
0.033371939
0.033358879
0.03332438
0.033230298
0.032965407
0.032273131
0.032572103
0.03267978
0.032718746
0.032733077
0.032737643
0.032738625
0.032738413
0.032737984
0.032737685
0.032737685
0.032737982
0.032738409
0.03273862
0.032737636
0.03273307
0.032718738
0.032679771
0.032572094
0.032273121
0.031575767
0.031911181
0.032033958
0.032078048
0.032093865
0.03209853
0.032099251
0.032098859
0.032098331
0.032097981
0.03209798
0.032098329
0.032098856
0.032099248
0.032098526
0.03209386
0.032078042
0.032033952
0.031911175
0.031575761
0.030869215
0.031243252
0.031383032
0.031433181
0.031450804
0.031455578
0.031455959
0.031455313
0.03145465
0.031454217
0.031454216
0.031454647
0.031455309
0.031455955
0.031455572
0.031450797
0.031433174
0.031383024
0.031243245
0.030869207
0.030153689
0.030569696
0.030728802
0.030786095
0.030805862
0.030810749
0.03081071
0.03080973
0.030808908
0.030808367
0.030808366
0.030808906
0.030809727
0.030810707
0.030810745
0.030805857
0.03078609
0.030728797
0.030569691
0.030153684
0.029434025
0.029895016
0.03007652
0.030142621
0.030165149
0.030170264
0.03016974
0.030168326
0.030167306
0.030166621
0.030166621
0.030167305
0.030168323
0.030169736
0.030170259
0.030165145
0.030142616
0.030076514
0.02989501
0.029434021
0.028701224
0.029211707
0.029418995
0.029495699
0.029521715
0.029527188
0.029526092
0.029524119
0.029522846
0.029521979
0.029521979
0.029522845
0.029524117
0.029526089
0.029527184
0.029521712
0.029495695
0.029418991
0.029211704
0.028701221
0.027957103
0.028521518
0.028759293
0.028849317
0.028879798
0.028885831
0.02888403
0.028881302
0.028879655
0.02887854
0.028878539
0.028879653
0.028881299
0.028884027
0.028885828
0.028879795
0.028849314
0.02875929
0.028521516
0.027957102
0.027198543
0.027822589
0.028096225
0.028202772
0.028239187
0.028246219
0.028243687
0.028240052
0.028237929
0.028236519
0.028236519
0.028237928
0.028240049
0.028243685
0.028246217
0.028239184
0.02820277
0.028096223
0.027822589
0.027198544
0.026415286
0.027105875
0.027421705
0.027548676
0.027592872
0.027601481
0.027598177
0.027593416
0.027590646
0.027588856
0.027588856
0.027590645
0.027593414
0.027598175
0.027601479
0.02759287
0.027548675
0.027421705
0.027105876
0.026415289
0.025606951
0.026371957
0.026737747
0.02689003
0.026944447
0.02695541
0.026951286
0.026945102
0.026941434
0.026939136
0.026939136
0.026941433
0.026945101
0.026951284
0.026955409
0.026944446
0.02689003
0.026737748
0.02637196
0.025606957
0.024761033
0.025610116
0.026035455
0.026219272
0.026287327
0.026301941
0.026297185
0.026289356
0.02628456
0.026281626
0.026281625
0.026284559
0.026289354
0.026297184
0.026301941
0.026287327
0.026219274
0.026035458
0.025610123
0.024761043
0.02386841
0.024813311
0.025309319
0.025532283
0.025618195
0.025638109
0.02563294
0.025623108
0.025616808
0.025613009
0.025613009
0.025616807
0.025623106
0.02563294
0.02563811
0.025618196
0.025532286
0.025309325
0.024813321
0.023868425
0.02291622
0.023971011
0.024551552
0.024823363
0.0249328
0.02496052
0.024955542
0.024943425
0.024935201
0.02493026
0.02493026
0.0249352
0.024943424
0.024955542
0.024960521
0.024932803
0.024823368
0.02455156
0.023971026
0.022916241
0.021887618
0.023068889
0.023750767
0.024083643
0.024224114
0.024263217
0.024259484
0.024244922
0.024234244
0.024227786
0.024227786
0.024234243
0.024244921
0.024259485
0.024263218
0.024224118
0.02408365
0.023750779
0.02306891
0.021887647
0.020762413
0.022089418
0.022892863
0.023302067
0.023483634
0.023539364
0.023538685
0.023521584
0.023507796
0.02349932
0.023499319
0.023507796
0.023521584
0.023538686
0.023539366
0.023483639
0.023302076
0.02289288
0.022089447
0.020762453
0.019516352
0.02101095
0.021959673
0.022464423
0.022700776
0.022781121
0.022786352
0.022766595
0.02274892
0.02273776
0.022737759
0.02274892
0.022766595
0.022786353
0.022781124
0.022700782
0.022464435
0.021959695
0.02101099
0.019516407
0.018121674
0.01980619
0.020927126
0.021552636
0.021861835
0.021978564
0.021994204
0.021972113
0.021949655
0.021934918
0.021934918
0.021949655
0.021972113
0.021994206
0.021978568
0.021861843
0.021552651
0.020927154
0.019806244
0.01812175
0.01654569
0.018438447
0.019764124
0.020541819
0.02094981
0.021118728
0.021152494
0.021130482
0.021102279
0.02108276
0.02108276
0.021102279
0.021130483
0.021152496
0.021118733
0.02094982
0.020541838
0.01976416
0.018438516
0.016545795
0.014732196
0.016862855
0.018429112
0.019397597
0.019940078
0.020186524
0.020252007
0.020232623
0.020197877
0.020171955
0.020171955
0.020197878
0.020232625
0.02025201
0.02018653
0.01994009
0.01939762
0.018429158
0.016862942
0.014732341
0.012625903
0.01498381
0.016857316
0.018072097
0.018800493
0.019160994
0.019280642
0.019272121
0.019230381
0.019195786
0.019195786
0.019230382
0.019272123
0.019280646
0.019161002
0.018800509
0.018072128
0.016857375
0.014983925
0.012626081
0.010285993
0.012752028
0.014927175
0.016457538
0.017444738
0.017977666
0.01818674
0.01820555
0.01815754
0.018111132
0.018111133
0.018157542
0.018205554
0.018186747
0.017977678
0.01744476
0.016457579
0.014927249
0.012752166
0.010286229
0.0076288856
0.010389866
0.012548043
0.014083963
0.015130837
0.015739605
0.015996679
0.016016204
0.015943915
0.015874375
0.015874373
0.015943911
0.016016196
0.01599667
0.015739598
0.015130839
0.014083983
0.012548107
0.010390018
0.0076291705
)
;

boundaryField
{
    Wall
    {
        type            zeroGradient;
    }
    frontAndBack
    {
        type            empty;
    }
    atmosphere
    {
        type            zeroGradient;
    }
}


// ************************************************************************* //
