/*--------------------------------*- C++ -*----------------------------------*\
| =========                 |                                                 |
| \\      /  F ield         | OpenFOAM: The Open Source CFD Toolbox           |
|  \\    /   O peration     | Version:  3.0.1                                 |
|   \\  /    A nd           | Web:      www.OpenFOAM.org                      |
|    \\/     M anipulation  |                                                 |
\*---------------------------------------------------------------------------*/
FoamFile
{
    version     2.0;
    format      ascii;
    class       volScalarField;
    location    "36";
    object      wBA_l;
}
// * * * * * * * * * * * * * * * * * * * * * * * * * * * * * * * * * * * * * //

dimensions      [0 0 0 0 0 0 0];

internalField   nonuniform List<scalar> 
800
(
0.037979859
0.037977966
0.037977668
0.03797764
0.037977644
0.037977645
0.037977642
0.037977637
0.037977634
0.037977632
0.037977631
0.037977634
0.037977637
0.037977642
0.037977645
0.037977644
0.03797764
0.037977667
0.037977966
0.037979859
0.038312659
0.038293309
0.03828759
0.038285403
0.038284468
0.038284034
0.038283821
0.038283712
0.038283658
0.038283635
0.038283635
0.038283658
0.038283713
0.038283822
0.038284035
0.038284469
0.038285404
0.038287591
0.038293311
0.038312661
0.038625189
0.038597319
0.038588607
0.038585708
0.03858465
0.038584223
0.038584025
0.03858392
0.038583861
0.038583835
0.038583835
0.038583862
0.038583921
0.038584026
0.038584223
0.03858465
0.038585709
0.038588608
0.03859732
0.038625192
0.038794826
0.038763515
0.038753584
0.038750587
0.038749597
0.038749221
0.038749038
0.038748926
0.038748855
0.03874882
0.03874882
0.038748855
0.038748926
0.038749038
0.038749221
0.038749597
0.038750588
0.038753585
0.038763516
0.038794828
0.038846474
0.038816917
0.038807474
0.038805018
0.038804348
0.038804114
0.03880397
0.038803854
0.038803767
0.03880372
0.03880372
0.038803767
0.038803854
0.03880397
0.038804114
0.038804348
0.038805018
0.038807474
0.038816918
0.038846475
0.038792943
0.038769967
0.03876256
0.038761252
0.03876117
0.038761188
0.038761126
0.03876102
0.038760919
0.038760861
0.038760861
0.038760919
0.03876102
0.038761126
0.038761188
0.03876117
0.038761252
0.038762559
0.038769967
0.038792943
0.038642149
0.038630166
0.038626188
0.038626559
0.038627293
0.038627666
0.03862773
0.038627653
0.038627546
0.038627479
0.038627479
0.038627545
0.038627652
0.038627729
0.038627665
0.038627292
0.038626558
0.038626186
0.038630165
0.038642147
0.038401127
0.038404023
0.038404733
0.038407241
0.038408987
0.038409802
0.038410034
0.038410006
0.038409902
0.038409831
0.038409831
0.038409902
0.038410005
0.038410033
0.0384098
0.038408986
0.038407239
0.038404731
0.03840402
0.038401124
0.038079422
0.038100444
0.038106882
0.038111818
0.038114646
0.038115906
0.03811629
0.038116296
0.038116183
0.0381161
0.0381161
0.038116182
0.038116295
0.038116289
0.038115903
0.038114643
0.038111814
0.038106878
0.03810044
0.038079417
0.037686478
0.037728129
0.037741301
0.037749027
0.037753099
0.037754896
0.03775549
0.037755567
0.037755468
0.037755385
0.037755385
0.037755467
0.037755565
0.037755487
0.037754893
0.037753095
0.037749023
0.037741297
0.037728124
0.037686471
0.037232578
0.037296989
0.037317491
0.037328072
0.037333339
0.037335608
0.037336348
0.037336453
0.03733634
0.037336244
0.037336243
0.037336338
0.037336451
0.037336345
0.037335604
0.037333335
0.037328067
0.037317486
0.037296983
0.037232571
0.03672243
0.036817721
0.036846267
0.036859869
0.036866406
0.036869176
0.036870062
0.036870196
0.036870071
0.036869963
0.036869962
0.03687007
0.036870194
0.036870058
0.036869172
0.036866401
0.036859864
0.03684626
0.036817714
0.036722422
0.036166075
0.036285537
0.03632348
0.036340309
0.036348092
0.036351339
0.036352376
0.036352543
0.036352407
0.036352285
0.036352284
0.036352405
0.03635254
0.036352372
0.036351335
0.036348086
0.036340303
0.036323473
0.036285529
0.036166066
0.035571426
0.035716492
0.03576447
0.035784561
0.035793485
0.035797117
0.035798282
0.03579846
0.035798306
0.035798163
0.035798162
0.035798304
0.035798457
0.035798278
0.035797112
0.03579348
0.035784555
0.035764463
0.035716484
0.035571417
0.03494523
0.03511763
0.035176132
0.035199554
0.03520954
0.035213479
0.035214759
0.035214932
0.035214755
0.035214589
0.035214589
0.035214753
0.035214928
0.035214754
0.035213473
0.035209533
0.035199546
0.035176123
0.03511762
0.034945219
0.034299593
0.034500891
0.034570371
0.034597154
0.034608089
0.034612218
0.034613531
0.034613644
0.034613419
0.034613221
0.03461322
0.034613417
0.034613641
0.034613527
0.034612213
0.034608083
0.034597148
0.034570364
0.034500883
0.034299585
0.033636416
0.033867881
0.033949018
0.033979465
0.033991439
0.033995771
0.03399708
0.03399713
0.033996859
0.033996635
0.033996635
0.033996857
0.033997126
0.033997075
0.033995765
0.033991432
0.033979457
0.03394901
0.033867872
0.033636407
0.032959506
0.033222896
0.033316534
0.033350964
0.033364052
0.033368542
0.033369752
0.033369702
0.03336937
0.033369116
0.033369115
0.033369368
0.033369699
0.033369747
0.033368536
0.033364046
0.033350957
0.033316526
0.033222887
0.032959497
0.032270945
0.03256824
0.032675405
0.032714281
0.032728636
0.03273325
0.032734274
0.032734086
0.03273367
0.032733378
0.032733377
0.032733668
0.032734082
0.032734269
0.032733244
0.032728629
0.032714273
0.032675396
0.032568231
0.032270935
0.031577099
0.031910639
0.032032804
0.03207677
0.032092602
0.032097318
0.032098084
0.032097718
0.032097204
0.03209686
0.032096859
0.032097202
0.032097716
0.03209808
0.032097314
0.032092597
0.032076765
0.032032799
0.031910633
0.031577093
0.030874235
0.031246199
0.031385246
0.03143522
0.031452843
0.031457668
0.031458099
0.031457482
0.031456833
0.031456407
0.031456406
0.031456831
0.031457478
0.031458094
0.031457662
0.031452837
0.031435214
0.031385238
0.031246191
0.030874228
0.03016243
0.030576102
0.030734325
0.030791381
0.030811127
0.030816065
0.030816079
0.030815131
0.030814323
0.030813789
0.030813789
0.030814322
0.030815128
0.030816076
0.030816061
0.030811123
0.030791376
0.03073432
0.030576097
0.030162426
0.029446319
0.029904709
0.030085128
0.030150891
0.030173361
0.030178518
0.030178049
0.03017667
0.030175664
0.030174988
0.030174987
0.030175663
0.030176667
0.030178045
0.030178513
0.030173356
0.030150886
0.030085122
0.029904704
0.029446315
0.028717513
0.029225049
0.029431017
0.029507264
0.029533174
0.029538677
0.029537637
0.029535704
0.029534444
0.029533586
0.029533585
0.029534443
0.029535702
0.029537634
0.029538674
0.02953317
0.02950726
0.029431013
0.029225046
0.028717511
0.02797741
0.028538507
0.028774636
0.028864022
0.028894325
0.028900369
0.028898626
0.028895943
0.028894312
0.028893207
0.028893206
0.02889431
0.028895941
0.028898623
0.028900366
0.028894322
0.028864019
0.028774633
0.028538506
0.027977409
0.027223132
0.027843402
0.028114994
0.028220673
0.028256798
0.028263804
0.028261323
0.028257736
0.028255628
0.028254229
0.028254229
0.028255627
0.028257734
0.028261321
0.028263801
0.028256795
0.028220671
0.028114992
0.027843402
0.027223133
0.026444863
0.027131122
0.027444427
0.027570224
0.027613982
0.02762251
0.027619247
0.027614539
0.027611787
0.027610008
0.027610008
0.027611785
0.027614537
0.027619245
0.027622508
0.02761398
0.027570223
0.027444427
0.027131123
0.026444867
0.025641806
0.026401837
0.026764471
0.026915173
0.026968949
0.026979751
0.026975651
0.026969527
0.026965881
0.026963598
0.026963597
0.02696588
0.026969525
0.02697565
0.026979749
0.026968948
0.026915173
0.026764472
0.026401841
0.025641812
0.024802195
0.025645537
0.026066868
0.026248582
0.026315692
0.026330016
0.026325246
0.026317474
0.026312702
0.026309784
0.026309784
0.026312701
0.026317473
0.026325245
0.026330015
0.026315693
0.026248583
0.026066871
0.025645543
0.024802204
0.023916947
0.02485507
0.025346098
0.025566237
0.025650802
0.025670244
0.025665006
0.025655231
0.025648962
0.025645187
0.025645186
0.025648961
0.02565523
0.025665005
0.025670244
0.025650803
0.02556624
0.025346103
0.02485508
0.023916961
0.022973599
0.024020346
0.024594595
0.024862628
0.024970142
0.02499711
0.024991964
0.024979891
0.024971704
0.024966796
0.024966795
0.024971703
0.02497989
0.024991964
0.024997111
0.024970144
0.024862632
0.024594603
0.024020361
0.022973619
0.02195579
0.02312759
0.023801424
0.02412923
0.02426696
0.024304891
0.02430083
0.024286277
0.024275648
0.024269237
0.024269237
0.024275647
0.024286277
0.02430083
0.024304893
0.024266963
0.024129237
0.023801436
0.023127611
0.021955818
0.020844052
0.022159773
0.02295296
0.023355334
0.023532983
0.023586905
0.023585635
0.023568491
0.023554769
0.023546363
0.023546362
0.023554769
0.02356849
0.023585635
0.023586907
0.023532988
0.023355343
0.022952976
0.022159802
0.020844091
0.019614917
0.021096106
0.022031723
0.022527213
0.022757925
0.022835465
0.0228397
0.022819833
0.022802251
0.022791199
0.022791199
0.022802251
0.022819833
0.022839702
0.022835467
0.022757931
0.022527224
0.022031744
0.021096146
0.019614971
0.018241651
0.0199105
0.021014664
0.02162741
0.021928484
0.022040886
0.022054906
0.022032587
0.022010267
0.021995702
0.021995702
0.022010267
0.022032587
0.022054908
0.02204089
0.021928492
0.021627425
0.021014691
0.019910553
0.018241726
0.01669325
0.018568163
0.019872029
0.020631996
0.021028104
0.021190503
0.021221641
0.021199119
0.021171124
0.021151885
0.021151884
0.021171125
0.02119912
0.021221643
0.021190508
0.021028113
0.020632014
0.019872064
0.018568231
0.016693353
0.014921549
0.017027093
0.018564179
0.019507832
0.020032931
0.020269496
0.020330674
0.020310427
0.020275984
0.020250514
0.020250514
0.020275984
0.020310429
0.020330678
0.020269502
0.020032942
0.019507855
0.018564223
0.017027179
0.014921691
0.012859857
0.01520457
0.017032009
0.018209767
0.018912286
0.019257687
0.019370266
0.019360239
0.019318909
0.019285044
0.019285044
0.01931891
0.019360242
0.019370271
0.019257695
0.018912302
0.018209796
0.017032065
0.015204683
0.012860034
0.010598733
0.013030054
0.015157718
0.016642455
0.017593631
0.018103466
0.018301346
0.018316512
0.018269038
0.018223792
0.018223792
0.01826904
0.018316516
0.018301352
0.018103477
0.017593652
0.016642494
0.015157791
0.013030191
0.010598963
0.0080718449
0.01070565
0.012707879
0.014135838
0.015115745
0.015682396
0.015915988
0.015926493
0.015853674
0.015785733
0.015785731
0.01585367
0.015926486
0.01591598
0.015682389
0.015115745
0.014135853
0.012707929
0.010705789
0.0080721256
)
;

boundaryField
{
    Wall
    {
        type            zeroGradient;
    }
    frontAndBack
    {
        type            empty;
    }
    atmosphere
    {
        type            zeroGradient;
    }
}


// ************************************************************************* //
