/*--------------------------------*- C++ -*----------------------------------*\
| =========                 |                                                 |
| \\      /  F ield         | OpenFOAM: The Open Source CFD Toolbox           |
|  \\    /   O peration     | Version:  3.0.1                                 |
|   \\  /    A nd           | Web:      www.OpenFOAM.org                      |
|    \\/     M anipulation  |                                                 |
\*---------------------------------------------------------------------------*/
FoamFile
{
    version     2.0;
    format      ascii;
    class       volScalarField;
    location    "36";
    object      wCO2_g;
}
// * * * * * * * * * * * * * * * * * * * * * * * * * * * * * * * * * * * * * //

dimensions      [0 0 0 0 0 0 0];

internalField   nonuniform List<scalar> 
800
(
0.019593853
0.019594959
0.019595148
0.019595163
0.019595164
0.019595169
0.019595177
0.019595185
0.019595191
0.019595194
0.019595194
0.019595191
0.019595185
0.019595177
0.01959517
0.019595164
0.019595163
0.019595148
0.019594959
0.019593853
0.019808402
0.019806316
0.019805452
0.019804811
0.019804371
0.019804091
0.019803924
0.019803828
0.019803778
0.019803757
0.019803757
0.019803778
0.019803828
0.019803924
0.019804092
0.019804371
0.019804812
0.019805452
0.019806316
0.019808402
0.02006248
0.020058866
0.02005773
0.020056852
0.020056254
0.020055874
0.020055642
0.020055509
0.020055436
0.020055405
0.020055405
0.020055436
0.020055509
0.020055642
0.020055874
0.020056255
0.020056852
0.02005773
0.020058867
0.02006248
0.02030568
0.020298774
0.020297264
0.02029603
0.020295201
0.020294689
0.020294387
0.020294219
0.020294132
0.020294094
0.020294094
0.020294132
0.020294219
0.020294387
0.02029469
0.020295201
0.02029603
0.020297265
0.020298774
0.02030568
0.020552967
0.020541233
0.02053906
0.020537396
0.020536276
0.02053561
0.02053523
0.020535027
0.020534925
0.020534883
0.020534883
0.020534925
0.020535027
0.02053523
0.020535611
0.020536276
0.020537396
0.02053906
0.020541234
0.020552968
0.020812136
0.020794102
0.020790811
0.020788644
0.020787168
0.020786323
0.020785854
0.020785615
0.020785499
0.020785453
0.020785453
0.020785499
0.020785616
0.020785855
0.020786324
0.020787168
0.020788645
0.020790812
0.020794103
0.020812137
0.021087881
0.021062094
0.021057101
0.021054323
0.021052402
0.021051342
0.021050771
0.021050491
0.021050359
0.02105031
0.02105031
0.02105036
0.021050492
0.021050771
0.021051342
0.021052403
0.021054324
0.021057102
0.021062095
0.021087882
0.021383437
0.02134849
0.021341104
0.021337576
0.021335115
0.021333795
0.021333103
0.021332776
0.021332625
0.021332572
0.021332572
0.021332626
0.021332776
0.021333104
0.021333796
0.021335116
0.021337577
0.021341105
0.021348491
0.021383438
0.021701664
0.021656476
0.021645906
0.021641411
0.021638277
0.021636612
0.021635746
0.021635338
0.021635151
0.021635084
0.021635084
0.021635151
0.021635338
0.021635746
0.021636613
0.021638278
0.021641412
0.021645907
0.021656477
0.021701665
0.022042751
0.021986529
0.021972002
0.021966411
0.021962593
0.02196058
0.021959538
0.021959054
0.021958836
0.02195876
0.02195876
0.021958836
0.021959055
0.021959539
0.021960582
0.021962594
0.021966413
0.021972004
0.021986531
0.022042753
0.022405882
0.022338616
0.022319245
0.022312264
0.022307664
0.02230522
0.022303919
0.022303304
0.022303023
0.022302922
0.022302922
0.022303023
0.022303305
0.02230392
0.022305221
0.022307665
0.022312266
0.022319247
0.022338618
0.022405884
0.022795303
0.022711839
0.022686997
0.022678471
0.022673137
0.022670279
0.022668691
0.022667928
0.022667579
0.022667451
0.022667451
0.02266758
0.022667929
0.022668692
0.022670281
0.022673139
0.022678473
0.022686999
0.022711841
0.022795305
0.023207193
0.023115114
0.023083585
0.023073189
0.023067237
0.023064004
0.023062043
0.023061083
0.023060649
0.023060482
0.023060482
0.02306065
0.023061084
0.023062044
0.023064006
0.023067239
0.023073191
0.023083588
0.023115117
0.023207195
0.023639409
0.023540109
0.023501555
0.023489079
0.023482744
0.023479251
0.023476831
0.02347562
0.023475086
0.023474867
0.023474867
0.023475087
0.023475621
0.023476832
0.023479253
0.023482746
0.023489081
0.023501558
0.023540111
0.023639411
0.024087106
0.023982898
0.023937504
0.023922763
0.023916356
0.023912744
0.023909761
0.023908232
0.023907584
0.023907303
0.023907303
0.023907584
0.023908233
0.023909762
0.023912745
0.023916357
0.023922764
0.023937506
0.0239829
0.024087107
0.024550364
0.024444599
0.024393167
0.024375937
0.02436975
0.024366083
0.024362364
0.024360401
0.024359593
0.024359246
0.024359246
0.024359594
0.024360402
0.024362366
0.024366086
0.024369753
0.02437594
0.024393171
0.024444603
0.024550368
0.025020198
0.024917354
0.024861534
0.024841931
0.024836444
0.024832844
0.024828242
0.02482576
0.024824768
0.024824406
0.024824406
0.024824769
0.024825761
0.024828243
0.024832845
0.024836445
0.024841933
0.024861536
0.024917356
0.0250202
0.025489978
0.025395993
0.025338182
0.025316528
0.025312197
0.02530864
0.02530289
0.025299759
0.025298522
0.025298255
0.025298255
0.025298522
0.02529976
0.025302891
0.025308641
0.025312199
0.02531653
0.025338184
0.025395995
0.02548998
0.025952655
0.025874629
0.025817886
0.025794901
0.025792275
0.025788613
0.025781347
0.02577742
0.025775836
0.025775861
0.025775861
0.025775836
0.02577742
0.025781347
0.025788614
0.025792276
0.025794901
0.025817886
0.025874629
0.025952655
0.026405276
0.026351526
0.026299712
0.026276606
0.026276341
0.026272284
0.02626304
0.026258168
0.026256085
0.026256692
0.026256692
0.026256086
0.026258169
0.026263041
0.026272285
0.026276343
0.026276609
0.026299715
0.026351529
0.026405279
0.026833729
0.026813672
0.026771381
0.026749978
0.02675288
0.026748031
0.026736307
0.026730323
0.026727514
0.026729049
0.026729049
0.026727514
0.026730323
0.026736307
0.026748031
0.02675288
0.026749978
0.026771381
0.026813672
0.026833729
0.027228401
0.02725345
0.027225982
0.027208493
0.027215391
0.027209262
0.027194586
0.027187337
0.027183565
0.027186407
0.027186408
0.027183565
0.027187337
0.027194586
0.027209262
0.027215391
0.027208494
0.027225983
0.027253451
0.027228401
0.027585247
0.027667228
0.027660851
0.027650138
0.027662115
0.027654292
0.027636292
0.027627632
0.027622699
0.027627205
0.027627205
0.027622699
0.027627631
0.027636292
0.027654291
0.027662114
0.027650137
0.02766085
0.027667227
0.027585245
0.027885979
0.028039053
0.02806078
0.028059864
0.028078155
0.028068267
0.028046655
0.028036435
0.028030288
0.028036734
0.028036734
0.028030288
0.028036434
0.028046654
0.028068266
0.028078154
0.028059863
0.028060778
0.028039052
0.027885977
0.028123219
0.028362119
0.028420685
0.028433428
0.02845962
0.028447415
0.028421918
0.028409939
0.028402707
0.028411236
0.028411236
0.028402706
0.028409938
0.028421916
0.028447413
0.028459619
0.028433426
0.028420683
0.028362117
0.028123216
0.028284201
0.028625774
0.028731055
0.028761795
0.028797975
0.028783541
0.028754031
0.028740156
0.028732256
0.028742905
0.028742904
0.028732255
0.028740154
0.028754029
0.028783538
0.028797973
0.028761793
0.028731053
0.028625772
0.028284199
0.028349081
0.028812638
0.028976349
0.029030573
0.029079262
0.029063161
0.029029655
0.029013731
0.029005772
0.029018424
0.029018424
0.029005771
0.029013729
0.029029652
0.029063158
0.029079259
0.02903057
0.028976347
0.028812636
0.028349079
0.028301326
0.028909057
0.029144801
0.029229397
0.029293349
0.029276631
0.029239241
0.029220996
0.029213606
0.029227972
0.029227972
0.029213605
0.029220993
0.029239238
0.029276628
0.029293346
0.029229395
0.029144799
0.028909057
0.028301326
0.028114574
0.028892785
0.029217356
0.029341441
0.029424202
0.02940905
0.029368427
0.02934771
0.029341567
0.029357287
0.029357286
0.029341565
0.029347708
0.029368424
0.029409048
0.0294242
0.029341439
0.029217355
0.028892786
0.028114578
0.027759416
0.028739059
0.029172899
0.029347638
0.029453558
0.029443063
0.029400112
0.029376637
0.029372142
0.029388704
0.029388703
0.029372141
0.029376634
0.02940011
0.029443061
0.029453556
0.029347637
0.0291729
0.028739064
0.027759426
0.027197862
0.028415168
0.02898386
0.029223076
0.029358405
0.029356932
0.029312805
0.029286278
0.029283531
0.029300336
0.029300336
0.02928353
0.029286276
0.029312803
0.02935693
0.029358404
0.029223077
0.028983864
0.02841518
0.027197882
0.026381167
0.027877652
0.028612919
0.028933456
0.029106822
0.029120238
0.029076303
0.029046138
0.029044831
0.02906119
0.029061189
0.02904483
0.029046137
0.029076302
0.029120238
0.029106823
0.02893346
0.028612928
0.027877672
0.0263812
0.025250123
0.027072412
0.028012194
0.028434451
0.028656913
0.028692836
0.02865123
0.028616342
0.028615744
0.028630886
0.028630886
0.028615744
0.028616341
0.02865123
0.028692837
0.028656917
0.028434459
0.028012211
0.027072447
0.025250176
0.023739373
0.025934966
0.027121207
0.027669597
0.027955078
0.028022795
0.027986465
0.027946768
0.02794583
0.027958925
0.027958925
0.027945831
0.027946768
0.027986466
0.028022799
0.027955085
0.027669611
0.027121233
0.025935021
0.023739452
0.02178827
0.024393073
0.025866422
0.026569037
0.026934612
0.027043665
0.027017815
0.026976166
0.02697366
0.026983847
0.026983847
0.026973661
0.026976169
0.027017819
0.027043672
0.026934624
0.026569058
0.025866461
0.024393151
0.021788383
0.019357766
0.022376715
0.024166948
0.025050007
0.025516998
0.025677463
0.025670386
0.025632928
0.025627655
0.02563409
0.02563409
0.025627657
0.025632933
0.025670393
0.025677473
0.025517015
0.025050036
0.024167001
0.022376818
0.019357917
0.016455086
0.019839035
0.021946693
0.023030203
0.023616382
0.023842967
0.023864101
0.023837654
0.023828852
0.02383082
0.023830821
0.023828856
0.023837661
0.023864111
0.023842981
0.023616405
0.023030242
0.02194676
0.019839161
0.016455276
0.013096842
0.016740889
0.019150504
0.020444032
0.021161645
0.021469591
0.021525679
0.021520718
0.021508263
0.021505367
0.021505369
0.021508268
0.021520727
0.021525692
0.02146961
0.021161673
0.020444079
0.019150585
0.016741039
0.013097051
0.0097813438
0.013153584
0.01574419
0.01724178
0.018096354
0.018484115
0.018577957
0.018625666
0.018611136
0.018603708
0.01860371
0.018611143
0.018625678
0.018577972
0.018484137
0.018096388
0.017241834
0.01574428
0.013153742
0.0097815761
0.0069619767
0.0097267214
0.011664455
0.012760178
0.013382104
0.013734461
0.013780833
0.01380365
0.013767613
0.013747677
0.013747678
0.013767614
0.013803651
0.013780834
0.013734463
0.013382112
0.012760199
0.011664508
0.0097268597
0.0069622269
)
;

boundaryField
{
    Wall
    {
        type            zeroGradient;
    }
    frontAndBack
    {
        type            empty;
    }
    atmosphere
    {
        type            zeroGradient;
    }
}


// ************************************************************************* //
