/*--------------------------------*- C++ -*----------------------------------*\
| =========                 |                                                 |
| \\      /  F ield         | OpenFOAM: The Open Source CFD Toolbox           |
|  \\    /   O peration     | Version:  3.0.1                                 |
|   \\  /    A nd           | Web:      www.OpenFOAM.org                      |
|    \\/     M anipulation  |                                                 |
\*---------------------------------------------------------------------------*/
FoamFile
{
    version     2.0;
    format      ascii;
    class       volScalarField;
    location    "36";
    object      wCO2_l;
}
// * * * * * * * * * * * * * * * * * * * * * * * * * * * * * * * * * * * * * //

dimensions      [0 0 0 0 0 0 0];

internalField   nonuniform List<scalar> 
800
(
0.0037597992
0.0037599913
0.00376009
0.0037601159
0.0037601222
0.0037601239
0.0037601246
0.0037601251
0.0037601255
0.0037601257
0.0037601257
0.0037601255
0.0037601251
0.0037601246
0.0037601239
0.0037601222
0.0037601159
0.00376009
0.0037599913
0.0037597992
0.0037873907
0.0037866613
0.0037869376
0.0037871626
0.0037872972
0.003787364
0.0037873913
0.0037873991
0.0037873995
0.0037873983
0.0037873983
0.0037873994
0.0037873991
0.0037873913
0.003787364
0.0037872972
0.0037871626
0.0037869375
0.0037866612
0.0037873906
0.0038390881
0.0038373631
0.003837221
0.0038374703
0.0038376505
0.0038377466
0.0038377879
0.0038378004
0.0038378013
0.0038377996
0.0038377996
0.0038378013
0.0038378004
0.0038377879
0.0038377466
0.0038376504
0.0038374702
0.0038372209
0.003837363
0.003839088
0.003920723
0.0039164745
0.0039153124
0.0039153323
0.0039154248
0.0039154873
0.0039155157
0.0039155232
0.0039155224
0.0039155201
0.0039155201
0.0039155224
0.0039155232
0.0039155157
0.0039154874
0.0039154249
0.0039153324
0.0039153125
0.0039164746
0.003920723
0.0040340383
0.004025795
0.0040231711
0.0040227049
0.0040226143
0.0040226015
0.0040225998
0.0040225963
0.0040225923
0.0040225894
0.0040225894
0.0040225924
0.0040225964
0.0040226
0.0040226018
0.0040226145
0.0040227053
0.0040231715
0.0040257954
0.0040340387
0.0041787224
0.0041649384
0.0041604525
0.004159206
0.0041588452
0.0041587203
0.0041586731
0.004158653
0.0041586445
0.0041586406
0.0041586407
0.0041586447
0.0041586533
0.0041586735
0.0041587208
0.0041588457
0.0041592066
0.0041604532
0.0041649391
0.0041787232
0.0043555925
0.0043344708
0.0043277016
0.0043253518
0.0043246299
0.0043243549
0.0043242467
0.0043242041
0.0043241894
0.0043241842
0.0043241843
0.0043241897
0.0043242046
0.0043242473
0.0043243557
0.0043246308
0.0043253528
0.0043277028
0.004334472
0.0043555938
0.0045666762
0.0045360606
0.004526499
0.0045227142
0.0045215387
0.0045210743
0.0045208886
0.0045208173
0.0045207945
0.0045207876
0.0045207877
0.0045207949
0.0045208179
0.0045208894
0.0045210754
0.0045215399
0.0045227157
0.0045265006
0.0045360623
0.0045666781
0.0048156017
0.0047728363
0.0047597751
0.004754201
0.0047524467
0.0047517388
0.0047514485
0.004751335
0.0047512979
0.0047512867
0.0047512869
0.0047512985
0.0047513358
0.0047514497
0.0047517402
0.0047524484
0.0047542029
0.0047597772
0.0047728385
0.0048156042
0.0051071861
0.0050491285
0.0050316387
0.0050239438
0.0050214748
0.005020479
0.0050200702
0.0050199111
0.0050198611
0.0050198467
0.0050198469
0.0050198618
0.0050199122
0.0050200718
0.0050204809
0.005021477
0.0050239463
0.0050316413
0.0050491313
0.0051071893
0.0054474057
0.0053703302
0.0053471114
0.0053369046
0.0053334853
0.0053320953
0.0053315247
0.0053312969
0.0053312238
0.0053312015
0.0053312018
0.0053312246
0.0053312983
0.0053315266
0.0053320976
0.0053334881
0.0053369077
0.0053471147
0.0053703337
0.0054474096
0.0058378849
0.0057429123
0.0057124079
0.0056993358
0.0056946869
0.0056927764
0.0056920135
0.0056917053
0.0056916088
0.0056915788
0.0056915792
0.0056916099
0.005691707
0.0056920158
0.0056927793
0.0056946902
0.0056993395
0.0057124119
0.0057429165
0.0058378895
0.0062857789
0.0061617904
0.0061228806
0.0061067127
0.0061003896
0.0060977545
0.0060967888
0.0060963993
0.0060962821
0.0060962467
0.0060962471
0.0060962833
0.0060964013
0.0060967915
0.0060977578
0.0061003935
0.0061067171
0.0061228853
0.0061617953
0.0062857841
0.0067968203
0.0066390933
0.0065898308
0.006570201
0.0065615184
0.0065578357
0.0065566367
0.0065561477
0.0065559848
0.0065559449
0.0065559454
0.0065559862
0.0065561499
0.0065566398
0.0065578396
0.0065615228
0.006570206
0.0065898362
0.0066390989
0.0067968263
0.0073777427
0.007181034
0.0071191399
0.0070956418
0.007083701
0.0070785934
0.0070771301
0.0070765207
0.0070762286
0.0070761842
0.0070761847
0.0070762301
0.0070765231
0.0070771335
0.0070785975
0.0070837058
0.0070956472
0.0071191456
0.0071810399
0.0073777493
0.0080381524
0.0077961803
0.0077190415
0.0076911315
0.0076748128
0.0076678596
0.0076660647
0.0076652998
0.007664677
0.0076646089
0.0076646095
0.0076646789
0.007665303
0.0076660691
0.0076678649
0.007674819
0.0076911384
0.0077190489
0.007796188
0.0080381613
0.0087822847
0.0084883239
0.0083931375
0.0083602423
0.0083384195
0.0083292845
0.0083271133
0.0083261953
0.0083249091
0.0083247614
0.0083247621
0.008324911
0.0083261985
0.0083271176
0.0083292898
0.0083384257
0.0083602492
0.0083931449
0.0084883316
0.0087822936
0.0096146216
0.0092618488
0.0091455745
0.0091069084
0.0090784285
0.0090668069
0.0090641865
0.0090631249
0.0090606742
0.0090603064
0.0090603071
0.0090606762
0.0090631283
0.0090641912
0.0090668126
0.0090784351
0.0091069159
0.0091455825
0.0092618573
0.0096146311
0.010540296
0.010121618
0.0099808566
0.0099353858
0.0098991332
0.0098847863
0.0098816257
0.0098804482
0.009876184
0.0098753438
0.0098753445
0.009876186
0.0098804516
0.0098816303
0.0098847919
0.0098991398
0.0099353932
0.0099808645
0.010121626
0.010540305
0.011568347
0.011076126
0.010907058
0.010853474
0.010808333
0.010791075
0.010787264
0.010786028
0.010779203
0.010777524
0.010777525
0.010779206
0.010786032
0.010787269
0.010791082
0.010808341
0.010853484
0.010907068
0.011076136
0.011568359
0.012701549
0.012128082
0.011926413
0.011863235
0.011808071
0.011787761
0.011783165
0.011781949
0.011771784
0.011768806
0.011768806
0.011771786
0.011781952
0.01178317
0.011787767
0.011808078
0.011863243
0.011926422
0.012128091
0.012701559
0.01394683
0.013284592
0.013045427
0.012970862
0.012904292
0.01288073
0.012875203
0.01287412
0.01285989
0.012855128
0.012855129
0.012859892
0.012874124
0.012875208
0.012880737
0.0129043
0.012970871
0.013045436
0.013284602
0.013946841
0.015318406
0.014558363
0.014276045
0.014188045
0.0141084
0.014081293
0.014074675
0.014073869
0.014054945
0.014047943
0.014047944
0.014054946
0.014073872
0.01407468
0.014081299
0.014108406
0.014188053
0.014276053
0.014558371
0.015318415
0.016821875
0.015955302
0.015623231
0.015519022
0.015424265
0.015393056
0.01538512
0.015384748
0.015360686
0.015351093
0.015351094
0.015360688
0.015384752
0.015385124
0.015393061
0.015424271
0.015519028
0.015623238
0.015955309
0.016821882
0.018476149
0.017491816
0.017102465
0.016978596
0.016866316
0.016830009
0.016820377
0.016820589
0.016791153
0.016778745
0.016778745
0.016791154
0.016820592
0.016820381
0.016830013
0.016866321
0.016978601
0.01710247
0.01749182
0.018476153
0.020301866
0.019186416
0.018730216
0.01858185
0.01844929
0.018406427
0.01839469
0.018395745
0.018361047
0.018345807
0.018345808
0.018361048
0.018395747
0.018394692
0.018406429
0.018449293
0.018581853
0.018730218
0.019186416
0.020301866
0.022318652
0.021056812
0.020521738
0.020342806
0.020186747
0.020135234
0.020121004
0.02012323
0.020083751
0.020065874
0.020065874
0.020083751
0.02012323
0.020121005
0.020135235
0.020186748
0.020342806
0.020521736
0.021056808
0.022318646
0.024559642
0.023132664
0.022502781
0.022285724
0.022101897
0.022038707
0.022021656
0.022025374
0.021981931
0.021961777
0.021961777
0.021981931
0.022025373
0.022021655
0.022038706
0.022101895
0.022285721
0.022502775
0.023132654
0.024559628
0.027057873
0.025444583
0.024700559
0.024436968
0.024220218
0.024142002
0.024122465
0.024128303
0.024082255
0.024060436
0.024060436
0.024082254
0.024128302
0.024122463
0.024141999
0.024220213
0.024436961
0.024700548
0.025444566
0.02705785
0.029857777
0.028033649
0.027152455
0.026832293
0.026576349
0.026478974
0.026457538
0.026466125
0.026419128
0.026396372
0.026396371
0.026419125
0.026466122
0.026457534
0.026478968
0.02657634
0.026832281
0.027152437
0.028033622
0.029857744
0.033006413
0.030945724
0.029902862
0.02951488
0.029214554
0.029093819
0.029070042
0.029081768
0.029035754
0.02901295
0.02901295
0.029035752
0.029081764
0.029070035
0.02909381
0.029214541
0.029514862
0.029902836
0.030945685
0.033006369
0.036535481
0.034220747
0.032998547
0.03253173
0.032183322
0.032037096
0.032008435
0.032019839
0.031976771
0.031954925
0.031954924
0.031976768
0.032019833
0.032008426
0.032037084
0.032183304
0.032531706
0.032998513
0.034220697
0.036535429
0.040403594
0.037875704
0.03647842
0.035928189
0.035527604
0.035359341
0.035322344
0.035320038
0.035281852
0.035262115
0.035262114
0.035281848
0.035320031
0.035322334
0.035359327
0.035527583
0.03592816
0.036478379
0.037875646
0.040403545
0.044405167
0.041843514
0.040335641
0.039720369
0.039264491
0.0390856
0.039029613
0.038997934
0.038966912
0.038950765
0.038950763
0.038966908
0.038997927
0.039029602
0.039085586
0.039264469
0.039720338
0.0403356
0.041843463
0.044405155
0.048019426
0.045833627
0.044427553
0.043821427
0.043324445
0.043135151
0.043056891
0.042996708
0.042976104
0.042965662
0.042965661
0.042976101
0.042996703
0.043056883
0.04313514
0.043324428
0.043821403
0.044427527
0.04583362
0.048019513
0.050097334
0.04913048
0.048304124
0.0478436
0.047422114
0.047208462
0.04713641
0.047073585
0.047067837
0.047065918
0.047065919
0.047067837
0.047073585
0.04713641
0.047208463
0.047422114
0.047843602
0.048304143
0.049130573
0.050097593
0.049130335
0.050694113
0.051001913
0.050938862
0.0507473
0.050624381
0.050620871
0.050510389
0.050525658
0.050535056
0.050535059
0.050525666
0.050510403
0.05062089
0.050624406
0.050747333
0.050938915
0.051002014
0.050694353
0.04913078
0.043041679
0.048988603
0.051124806
0.051840457
0.052056804
0.05206852
0.052197349
0.052174919
0.052216935
0.052238148
0.052238154
0.052216953
0.05217495
0.052197391
0.052068577
0.052056881
0.051840572
0.051124999
0.048988978
0.043042245
0.029979189
0.041336194
0.046718405
0.048845866
0.049766639
0.050260649
0.05054428
0.050583728
0.050647042
0.050673403
0.050673411
0.050647067
0.050583771
0.050544338
0.050260729
0.049766748
0.048846026
0.046718659
0.041336636
0.02997985
0.020093034
0.028245475
0.03309954
0.035198052
0.036174193
0.037744028
0.037908628
0.038131801
0.038112651
0.038089798
0.038089799
0.038112655
0.038131809
0.037908637
0.037744045
0.036174225
0.035198113
0.033099682
0.028245855
0.020093734
)
;

boundaryField
{
    Wall
    {
        type            zeroGradient;
    }
    frontAndBack
    {
        type            empty;
    }
    atmosphere
    {
        type            zeroGradient;
    }
}


// ************************************************************************* //
