/*--------------------------------*- C++ -*----------------------------------*\
| =========                 |                                                 |
| \\      /  F ield         | OpenFOAM: The Open Source CFD Toolbox           |
|  \\    /   O peration     | Version:  3.0.1                                 |
|   \\  /    A nd           | Web:      www.OpenFOAM.org                      |
|    \\/     M anipulation  |                                                 |
\*---------------------------------------------------------------------------*/
FoamFile
{
    version     2.0;
    format      ascii;
    class       volScalarField;
    location    "36";
    object      weight1;
}
// * * * * * * * * * * * * * * * * * * * * * * * * * * * * * * * * * * * * * //

dimensions      [0 0 0 0 0 0 0];

internalField   nonuniform List<scalar> 
800
(
9.9929862e+12
9.9929862e+12
9.9929863e+12
9.9929864e+12
9.9929864e+12
9.9929864e+12
9.9929864e+12
9.9929864e+12
9.9929864e+12
9.9929864e+12
9.9929864e+12
9.9929864e+12
9.9929864e+12
9.9929864e+12
9.9929864e+12
9.9929864e+12
9.9929864e+12
9.9929863e+12
9.9929862e+12
9.9929862e+12
9.993185e+12
9.9931582e+12
9.9931526e+12
9.9931512e+12
9.993151e+12
9.9931509e+12
9.9931509e+12
9.9931509e+12
9.9931508e+12
9.9931508e+12
9.9931508e+12
9.9931508e+12
9.9931509e+12
9.9931509e+12
9.9931509e+12
9.993151e+12
9.9931512e+12
9.9931526e+12
9.9931582e+12
9.993185e+12
9.9551299e+12
9.9564917e+12
9.9571947e+12
9.9575014e+12
9.9576313e+12
9.9576827e+12
9.9576996e+12
9.957703e+12
9.9577021e+12
9.957701e+12
9.957701e+12
9.9577021e+12
9.9577029e+12
9.9576995e+12
9.9576826e+12
9.9576312e+12
9.9575013e+12
9.9571945e+12
9.9564914e+12
9.9551296e+12
9.8814049e+12
9.8854284e+12
9.8873267e+12
9.8881441e+12
9.8884919e+12
9.8886284e+12
9.8886727e+12
9.8886807e+12
9.8886774e+12
9.8886738e+12
9.8886738e+12
9.8886773e+12
9.8886805e+12
9.8886725e+12
9.8886281e+12
9.8884916e+12
9.8881437e+12
9.8873262e+12
9.8854279e+12
9.8814041e+12
9.7786624e+12
9.7863611e+12
9.789774e+12
9.7912303e+12
9.7918524e+12
9.7920968e+12
9.792177e+12
9.7921918e+12
9.7921861e+12
9.7921797e+12
9.7921797e+12
9.7921859e+12
9.7921916e+12
9.7921767e+12
9.7920964e+12
9.7918519e+12
9.7912296e+12
9.7897732e+12
9.7863602e+12
9.7786611e+12
9.6519278e+12
9.6640721e+12
9.6692305e+12
9.6714127e+12
9.6723437e+12
9.6727095e+12
9.6728307e+12
9.6728538e+12
9.6728457e+12
9.6728364e+12
9.6728363e+12
9.6728455e+12
9.6728534e+12
9.6728301e+12
9.6727089e+12
9.6723429e+12
9.6714117e+12
9.6692294e+12
9.6640707e+12
9.651926e+12
9.505273e+12
9.5224461e+12
9.5295131e+12
9.5324792e+12
9.5337368e+12
9.5342291e+12
9.5343922e+12
9.5344233e+12
9.5344123e+12
9.5343996e+12
9.5343995e+12
9.534412e+12
9.5344228e+12
9.5343915e+12
9.5342282e+12
9.5337358e+12
9.5324779e+12
9.5295116e+12
9.5224443e+12
9.5052708e+12
9.3423224e+12
9.364945e+12
9.3740207e+12
9.3778039e+12
9.379391e+12
9.3800076e+12
9.3802105e+12
9.3802478e+12
9.3802328e+12
9.3802162e+12
9.3802161e+12
9.3802324e+12
9.3802472e+12
9.3802096e+12
9.3800065e+12
9.3793897e+12
9.3778024e+12
9.3740189e+12
9.3649429e+12
9.3423198e+12
9.1661469e+12
9.195155e+12
9.2062384e+12
9.2108468e+12
9.2127513e+12
9.2134834e+12
9.2137222e+12
9.2137641e+12
9.2137445e+12
9.2137239e+12
9.2137238e+12
9.213744e+12
9.2137633e+12
9.2137212e+12
9.2134821e+12
9.2127497e+12
9.210845e+12
9.2062364e+12
9.1951526e+12
9.166144e+12
8.9733737e+12
9.0094737e+12
9.0231599e+12
9.0287054e+12
9.0309866e+12
9.0318588e+12
9.0321418e+12
9.0321895e+12
9.032164e+12
9.0321384e+12
9.0321382e+12
9.0321635e+12
9.0321886e+12
9.0321407e+12
9.0318574e+12
9.0309849e+12
9.0287033e+12
9.0231575e+12
9.0094711e+12
8.9733706e+12
8.7622784e+12
8.8072334e+12
8.8239604e+12
8.8305029e+12
8.8331531e+12
8.834168e+12
8.8345073e+12
8.8345678e+12
8.8345397e+12
8.8345105e+12
8.8345103e+12
8.8345392e+12
8.8345669e+12
8.8345059e+12
8.8341663e+12
8.8331511e+12
8.8305006e+12
8.8239578e+12
8.8072306e+12
8.7622751e+12
8.5296827e+12
8.5837956e+12
8.604278e+12
8.6118867e+12
8.6148134e+12
8.6159288e+12
8.6163396e+12
8.6164219e+12
8.6163931e+12
8.6163613e+12
8.6163611e+12
8.6163925e+12
8.6164208e+12
8.6163382e+12
8.615927e+12
8.6148113e+12
8.6118842e+12
8.6042753e+12
8.5837926e+12
8.5296794e+12
8.2735303e+12
8.3413959e+12
8.3660344e+12
8.3747426e+12
8.3777857e+12
8.3789141e+12
8.3794057e+12
8.3795176e+12
8.379486e+12
8.379453e+12
8.3794528e+12
8.3794854e+12
8.3795165e+12
8.3794042e+12
8.3789122e+12
8.3777834e+12
8.3747401e+12
8.3660316e+12
8.3413929e+12
8.273527e+12
7.9958546e+12
8.0739377e+12
8.1034099e+12
8.1133521e+12
8.1160802e+12
8.1169914e+12
8.1175968e+12
8.1177649e+12
8.1177211e+12
8.1176922e+12
8.117692e+12
8.1177204e+12
8.1177638e+12
8.1175952e+12
8.1169894e+12
8.116078e+12
8.1133495e+12
8.1034071e+12
8.0739348e+12
7.9958515e+12
7.7026827e+12
7.7854966e+12
7.8198033e+12
7.8310743e+12
7.8326749e+12
7.8329131e+12
7.8337417e+12
7.8339973e+12
7.8339109e+12
7.8338869e+12
7.8338866e+12
7.8339102e+12
7.8339962e+12
7.8337402e+12
7.8329113e+12
7.8326728e+12
7.831072e+12
7.8198007e+12
7.7854941e+12
7.7026799e+12
7.4044151e+12
7.4881604e+12
7.5260964e+12
7.5386817e+12
7.5384224e+12
7.5376603e+12
7.5388815e+12
7.539253e+12
7.539091e+12
7.5390445e+12
7.5390443e+12
7.5390904e+12
7.5392519e+12
7.5388801e+12
7.5376586e+12
7.5384204e+12
7.5386795e+12
7.526094e+12
7.488158e+12
7.4044124e+12
7.1103824e+12
7.1938649e+12
7.2337454e+12
7.2475116e+12
7.2452444e+12
7.2436059e+12
7.2453135e+12
7.2458159e+12
7.2455718e+12
7.2454184e+12
7.2454183e+12
7.2455713e+12
7.245815e+12
7.2453124e+12
7.2436045e+12
7.2452428e+12
7.2475099e+12
7.2337435e+12
7.193863e+12
7.1103803e+12
6.8238464e+12
6.9074338e+12
6.9480437e+12
6.9628087e+12
6.9589256e+12
6.9568747e+12
6.9591063e+12
6.9597538e+12
6.9594709e+12
6.9590715e+12
6.9590713e+12
6.9594705e+12
6.9597531e+12
6.9591053e+12
6.9568736e+12
6.9589244e+12
6.9628073e+12
6.9480422e+12
6.9074323e+12
6.8238448e+12
6.5446478e+12
6.6291481e+12
6.6699798e+12
6.6855293e+12
6.6806169e+12
6.6787129e+12
6.6815202e+12
6.6823323e+12
6.682112e+12
6.6812979e+12
6.6812978e+12
6.6821117e+12
6.6823317e+12
6.6815195e+12
6.6787121e+12
6.6806159e+12
6.6855284e+12
6.6699787e+12
6.6291471e+12
6.5446467e+12
6.271777e+12
6.3579514e+12
6.3990306e+12
6.4151245e+12
6.4097503e+12
6.4085128e+12
6.411961e+12
6.4129606e+12
6.4129586e+12
6.4115683e+12
6.4115682e+12
6.4129583e+12
6.4129602e+12
6.4119604e+12
6.4085121e+12
6.4097495e+12
6.4151238e+12
6.3990298e+12
6.3579507e+12
6.2717763e+12
6.0051306e+12
6.0934714e+12
6.1351933e+12
6.1516317e+12
6.1463089e+12
6.1461503e+12
6.1502751e+12
6.1514927e+12
6.1518937e+12
6.1498178e+12
6.1498177e+12
6.1518935e+12
6.1514925e+12
6.1502748e+12
6.14615e+12
6.1463085e+12
6.1516314e+12
6.135193e+12
6.0934713e+12
6.0051306e+12
5.7443221e+12
5.8350778e+12
5.8779985e+12
5.8946794e+12
5.8898747e+12
5.8910466e+12
5.8957955e+12
5.8972541e+12
5.8982016e+12
5.8954107e+12
5.8954106e+12
5.8982015e+12
5.8972539e+12
5.8957954e+12
5.8910465e+12
5.8898746e+12
5.8946794e+12
5.8779986e+12
5.835078e+12
5.7443226e+12
5.4886345e+12
5.5819663e+12
5.6266522e+12
5.6436291e+12
5.6397513e+12
5.6423522e+12
5.6475966e+12
5.6493111e+12
5.6508364e+12
5.6473986e+12
5.6473986e+12
5.6508364e+12
5.6493111e+12
5.6475967e+12
5.6423524e+12
5.6397515e+12
5.6436295e+12
5.6266527e+12
5.5819671e+12
5.4886355e+12
5.2382009e+12
5.3341964e+12
5.3810371e+12
5.3985307e+12
5.3958537e+12
5.3998691e+12
5.4054646e+12
5.4074301e+12
5.4093991e+12
5.4054735e+12
5.4054735e+12
5.4093992e+12
5.4074301e+12
5.4054648e+12
5.3998694e+12
5.3958542e+12
5.3985315e+12
5.3810379e+12
5.3341976e+12
5.2382023e+12
4.992321e+12
5.0912248e+12
5.1403422e+12
5.1586423e+12
5.1572765e+12
5.1626338e+12
5.1684888e+12
5.1706765e+12
5.1728103e+12
5.16862e+12
5.16862e+12
5.1728103e+12
5.1706766e+12
5.1684892e+12
5.1626343e+12
5.1572772e+12
5.1586433e+12
5.1403433e+12
5.0912263e+12
4.9923226e+12
4.7510968e+12
4.8532238e+12
4.9045395e+12
4.9238451e+12
4.9238459e+12
4.9303729e+12
4.9364293e+12
4.9387722e+12
4.9407218e+12
4.9365158e+12
4.9365158e+12
4.9407219e+12
4.9387723e+12
4.9364297e+12
4.9303735e+12
4.9238467e+12
4.9238462e+12
4.9045408e+12
4.8532256e+12
4.7510985e+12
4.5153224e+12
4.62098e+12
4.6743443e+12
4.694573e+12
4.6961071e+12
4.7035089e+12
4.7096793e+12
4.7120818e+12
4.7135528e+12
4.7095713e+12
4.7095713e+12
4.7135529e+12
4.712082e+12
4.7096797e+12
4.7035096e+12
4.6961079e+12
4.6945741e+12
4.6743458e+12
4.6209819e+12
4.5153242e+12
4.2859453e+12
4.3955918e+12
4.4509638e+12
4.4718504e+12
4.4753087e+12
4.483185e+12
4.4892821e+12
4.4916108e+12
4.4924488e+12
4.4888853e+12
4.4888853e+12
4.4924489e+12
4.4916109e+12
4.4892825e+12
4.4831855e+12
4.4753094e+12
4.4718515e+12
4.4509653e+12
4.3955937e+12
4.2859469e+12
4.0651854e+12
4.179861e+12
4.237486e+12
4.2590424e+12
4.2650997e+12
4.2730162e+12
4.2787751e+12
4.2808414e+12
4.2810471e+12
4.2780155e+12
4.2780155e+12
4.2810471e+12
4.2808414e+12
4.2787754e+12
4.2730166e+12
4.2651003e+12
4.2590434e+12
4.2374874e+12
4.1798628e+12
4.065187e+12
3.8549518e+12
3.9772791e+12
4.0381211e+12
4.061468e+12
4.0711031e+12
4.0789976e+12
4.0842895e+12
4.0858962e+12
4.0855967e+12
4.0831201e+12
4.0831201e+12
4.0855966e+12
4.0858961e+12
4.0842896e+12
4.0789978e+12
4.0711036e+12
4.0614688e+12
4.0381223e+12
3.9772807e+12
3.8549533e+12
3.6555459e+12
3.7908928e+12
3.8575896e+12
3.88541e+12
3.8998658e+12
3.9083597e+12
3.9134992e+12
3.9144903e+12
3.9138693e+12
3.9118738e+12
3.9118737e+12
3.9138691e+12
3.91449e+12
3.9134991e+12
3.9083597e+12
3.899866e+12
3.8854105e+12
3.8575906e+12
3.7908944e+12
3.6555476e+12
3.4618013e+12
3.6197431e+12
3.6975367e+12
3.7337466e+12
3.7547301e+12
3.7651739e+12
3.7707319e+12
3.7711467e+12
3.7704379e+12
3.7687847e+12
3.7687846e+12
3.7704377e+12
3.7711464e+12
3.7707317e+12
3.7651738e+12
3.7547302e+12
3.733747e+12
3.6975377e+12
3.6197449e+12
3.4618039e+12
3.2588789e+12
3.4534782e+12
3.5509642e+12
3.5996913e+12
3.6288874e+12
3.6430688e+12
3.6494313e+12
3.6492199e+12
3.6487028e+12
3.647245e+12
3.6472449e+12
3.6487026e+12
3.6492195e+12
3.649431e+12
3.6430686e+12
3.6288875e+12
3.5996918e+12
3.5509656e+12
3.4534812e+12
3.2588836e+12
3.0237966e+12
3.2704733e+12
3.3985779e+12
3.4635909e+12
3.5019708e+12
3.5214602e+12
3.52876e+12
3.52769e+12
3.5275663e+12
3.5261853e+12
3.5261852e+12
3.527566e+12
3.5276897e+12
3.5287599e+12
3.5214602e+12
3.5019712e+12
3.463592e+12
3.3985803e+12
3.2704786e+12
3.0238049e+12
2.7378461e+12
3.0449466e+12
3.2134913e+12
3.2985655e+12
3.347121e+12
3.3725608e+12
3.3811117e+12
3.3797776e+12
3.3800065e+12
3.3785941e+12
3.378594e+12
3.3800064e+12
3.3797776e+12
3.3811119e+12
3.3725613e+12
3.3471221e+12
3.2985676e+12
3.2134953e+12
3.0449552e+12
2.737859e+12
2.396875e+12
2.7602493e+12
2.9738193e+12
3.0821535e+12
3.1434606e+12
3.1750038e+12
3.186098e+12
3.1859492e+12
3.1862826e+12
3.1847157e+12
3.1847157e+12
3.1862827e+12
3.1859495e+12
3.1860986e+12
3.1750049e+12
3.1434625e+12
3.0821568e+12
2.9738254e+12
2.7602612e+12
2.3968926e+12
2.0128395e+12
2.4160081e+12
2.6712122e+12
2.8049565e+12
2.8814116e+12
2.9209218e+12
2.9362232e+12
2.9378877e+12
2.9380841e+12
2.9362437e+12
2.9362438e+12
2.9380843e+12
2.9378883e+12
2.9362242e+12
2.9209234e+12
2.8814143e+12
2.804961e+12
2.67122e+12
2.4160227e+12
2.0128608e+12
1.6043326e+12
2.0211829e+12
2.310237e+12
2.4706253e+12
2.5635164e+12
2.6124985e+12
2.6329108e+12
2.6381174e+12
2.6380564e+12
2.6358609e+12
2.635861e+12
2.6380568e+12
2.6381183e+12
2.6329121e+12
2.6125005e+12
2.5635197e+12
2.4706307e+12
2.3102463e+12
2.0211997e+12
1.6043575e+12
0
1.5950301e+12
1.9070436e+12
2.0916219e+12
2.2003436e+12
2.2599358e+12
2.2853391e+12
2.2947247e+12
2.2945019e+12
2.2919569e+12
2.291957e+12
2.2945025e+12
2.2947259e+12
2.2853407e+12
2.2599383e+12
2.2003474e+12
2.0916281e+12
1.907054e+12
1.5950493e+12
0
0
0
0
0
0
1.8678732e+12
1.8970239e+12
1.9101061e+12
1.9096425e+12
1.9067003e+12
1.9067005e+12
1.9096432e+12
1.9101073e+12
1.8970256e+12
1.8678758e+12
0
0
0
0
0
)
;

boundaryField
{
    Wall
    {
        type            zeroGradient;
    }
    frontAndBack
    {
        type            empty;
    }
    atmosphere
    {
        type            zeroGradient;
    }
}


// ************************************************************************* //
