/*--------------------------------*- C++ -*----------------------------------*\
| =========                 |                                                 |
| \\      /  F ield         | OpenFOAM: The Open Source CFD Toolbox           |
|  \\    /   O peration     | Version:  3.0.1                                 |
|   \\  /    A nd           | Web:      www.OpenFOAM.org                      |
|    \\/     M anipulation  |                                                 |
\*---------------------------------------------------------------------------*/
FoamFile
{
    version     2.0;
    format      ascii;
    class       volScalarField;
    location    "36";
    object      weight0;
}
// * * * * * * * * * * * * * * * * * * * * * * * * * * * * * * * * * * * * * //

dimensions      [0 0 0 0 0 0 0];

internalField   nonuniform List<scalar> 
800
(
7.0138025e+09
7.0137864e+09
7.0136818e+09
7.0136237e+09
7.013593e+09
7.0135771e+09
7.013569e+09
7.0135652e+09
7.0135635e+09
7.0135629e+09
7.0135629e+09
7.0135635e+09
7.0135652e+09
7.013569e+09
7.0135771e+09
7.0135929e+09
7.0136237e+09
7.0136818e+09
7.0137864e+09
7.0138025e+09
6.8149614e+09
6.8417559e+09
6.8474254e+09
6.8487589e+09
6.8490243e+09
6.8490736e+09
6.8491023e+09
6.8491393e+09
6.8491735e+09
6.8491934e+09
6.8491933e+09
6.8491734e+09
6.8491391e+09
6.8491021e+09
6.8490731e+09
6.8490238e+09
6.8487583e+09
6.8474246e+09
6.841755e+09
6.8149597e+09
6.7658905e+09
6.7950722e+09
6.8032183e+09
6.8048135e+09
6.8051796e+09
6.8053222e+09
6.8054435e+09
6.8055591e+09
6.8056488e+09
6.8056975e+09
6.8056974e+09
6.8056487e+09
6.8055589e+09
6.8054433e+09
6.8053219e+09
6.8051793e+09
6.804813e+09
6.8032177e+09
6.7950715e+09
6.7658893e+09
6.7591449e+09
6.7841705e+09
6.7921345e+09
6.7937159e+09
6.7942707e+09
6.794575e+09
6.7947977e+09
6.794968e+09
6.7950847e+09
6.7951444e+09
6.7951443e+09
6.7950846e+09
6.7949679e+09
6.7947974e+09
6.7945747e+09
6.7942703e+09
6.7937155e+09
6.792134e+09
6.7841699e+09
6.7591439e+09
6.6029877e+09
6.635499e+09
6.6444051e+09
6.6467904e+09
6.6480892e+09
6.6487465e+09
6.6490865e+09
6.6492631e+09
6.6493537e+09
6.6493926e+09
6.6493925e+09
6.6493534e+09
6.6492625e+09
6.6490857e+09
6.6487456e+09
6.6480881e+09
6.6467891e+09
6.6444035e+09
6.6354972e+09
6.6029851e+09
6.1025525e+09
6.1708871e+09
6.1862256e+09
6.1910476e+09
6.1942174e+09
6.1956489e+09
6.1962085e+09
6.1963735e+09
6.1963949e+09
6.1963834e+09
6.1963831e+09
6.196394e+09
6.196372e+09
6.1962064e+09
6.1956464e+09
6.1942144e+09
6.191044e+09
6.1862213e+09
6.1708822e+09
6.1025456e+09
5.049295e+09
5.2009515e+09
5.2342157e+09
5.2440143e+09
5.2509026e+09
5.2538694e+09
5.254906e+09
5.2551178e+09
5.2550638e+09
5.254988e+09
5.2549874e+09
5.2550619e+09
5.2551147e+09
5.2549016e+09
5.253864e+09
5.250896e+09
5.2440065e+09
5.2342068e+09
5.2009412e+09
5.0492813e+09
3.1128068e+09
3.4434859e+09
3.5205769e+09
3.5401537e+09
3.5544727e+09
3.560698e+09
3.5629272e+09
3.5634677e+09
3.5634317e+09
3.5633192e+09
3.563318e+09
3.563428e+09
3.5634617e+09
3.5629187e+09
3.5606876e+09
3.55446e+09
3.5401389e+09
3.5205602e+09
3.4434669e+09
3.1127817e+09
2986702.4
8072696.7
2.2582419e+08
2.7349932e+08
3.0814126e+08
3.2469904e+08
3.3135395e+08
3.3363518e+08
3.341551e+08
3.3419741e+08
3.3419469e+08
3.3414682e+08
3.3362165e+08
3.3133516e+08
3.2467545e+08
3.0811299e+08
2.734668e+08
2.2578794e+08
8031607.7
2987251.2
1.6902859e+09
1.0258378e+09
8.6155652e+08
8.3081189e+08
8.1104231e+08
8.0063381e+08
7.958006e+08
7.9391868e+08
7.9335373e+08
7.9320638e+08
7.9320796e+08
7.9335854e+08
7.9392659e+08
7.9581153e+08
8.0064767e+08
8.1105875e+08
8.3083087e+08
8.6157763e+08
1.025863e+09
1.6903251e+09
1.2164048e+10
9.3774306e+09
8.4682133e+09
8.3135615e+09
8.2416217e+09
8.1979172e+09
8.1695888e+09
8.1572982e+09
8.1530615e+09
8.1516001e+09
8.1516073e+09
8.1530836e+09
8.1573349e+09
8.1696389e+09
8.1979808e+09
8.2416956e+09
8.3136453e+09
8.4683039e+09
9.3775311e+09
1.2164171e+10
3.6555466e+10
3.162255e+10
2.9317285e+10
2.8967665e+10
2.891836e+10
2.8871444e+10
2.8798044e+10
2.8763148e+10
2.8750536e+10
2.8745475e+10
2.8745489e+10
2.8750578e+10
2.8763219e+10
2.8798139e+10
2.8871565e+10
2.8918498e+10
2.8967818e+10
2.9317447e+10
3.1622723e+10
3.6555656e+10
7.883525e+10
6.73894e+10
6.3360873e+10
6.2784628e+10
6.2903144e+10
6.2930588e+10
6.2797634e+10
6.2729401e+10
6.2707783e+10
6.269664e+10
6.2696657e+10
6.2707835e+10
6.2729491e+10
6.2797751e+10
6.2930739e+10
6.2903311e+10
6.2784813e+10
6.3361064e+10
6.7389597e+10
7.8835444e+10
1.3857149e+11
1.2436301e+11
1.1803037e+11
1.1710491e+11
1.178139e+11
1.1814e+11
1.1791057e+11
1.1778106e+11
1.1775762e+11
1.1773396e+11
1.1773397e+11
1.1775767e+11
1.1778114e+11
1.1791067e+11
1.1814014e+11
1.1781405e+11
1.1710507e+11
1.1803053e+11
1.2436316e+11
1.3857161e+11
2.1105529e+11
1.9976996e+11
1.9126527e+11
1.8992389e+11
1.9203656e+11
1.931145e+11
1.9267627e+11
1.9245383e+11
1.9245739e+11
1.9241911e+11
1.9241911e+11
1.924574e+11
1.9245386e+11
1.926763e+11
1.9311455e+11
1.9203659e+11
1.8992392e+11
1.9126529e+11
1.9976996e+11
2.1105525e+11
2.8655513e+11
2.8223864e+11
2.7294408e+11
2.7125792e+11
2.7552217e+11
2.776833e+11
2.7686633e+11
2.7652399e+11
2.7658776e+11
2.7656133e+11
2.7656131e+11
2.7658771e+11
2.7652393e+11
2.7686622e+11
2.7768318e+11
2.7552203e+11
2.7125774e+11
2.7294388e+11
2.822384e+11
2.8655484e+11
3.5718013e+11
3.6124679e+11
3.5305916e+11
3.5122359e+11
3.5779703e+11
3.6091046e+11
3.5961022e+11
3.5912718e+11
3.5925542e+11
3.593222e+11
3.5932215e+11
3.5925529e+11
3.5912699e+11
3.5960994e+11
3.6091012e+11
3.5779665e+11
3.5122316e+11
3.5305869e+11
3.6124627e+11
3.5717957e+11
4.2070989e+11
4.3299304e+11
4.273837e+11
4.2567657e+11
4.3419192e+11
4.3778942e+11
4.3595691e+11
4.3531208e+11
4.3546037e+11
4.3575706e+11
4.3575698e+11
4.3546016e+11
4.3531176e+11
4.3595646e+11
4.3778889e+11
4.3419133e+11
4.2567591e+11
4.27383e+11
4.3299227e+11
4.2070906e+11
4.7793773e+11
4.9786345e+11
4.9565944e+11
4.9443151e+11
5.0434168e+11
5.078597e+11
5.0542759e+11
5.045911e+11
5.0465649e+11
5.0534939e+11
5.0534929e+11
5.0465623e+11
5.0459068e+11
5.0542701e+11
5.07859e+11
5.0434091e+11
4.9443066e+11
4.9565853e+11
4.9786247e+11
4.7793663e+11
5.3002122e+11
5.5713345e+11
5.5869822e+11
5.5837733e+11
5.691746e+11
5.7209136e+11
5.689749e+11
5.6790834e+11
5.6773221e+11
5.6898e+11
5.6897988e+11
5.6773186e+11
5.6790778e+11
5.6897415e+11
5.7209047e+11
5.6917362e+11
5.5837623e+11
5.5869704e+11
5.5713217e+11
5.3001973e+11
5.7783029e+11
6.1195899e+11
6.1736602e+11
6.1839029e+11
6.2964196e+11
6.3154483e+11
6.2768534e+11
6.2633835e+11
6.2573059e+11
6.276399e+11
6.2763977e+11
6.2573019e+11
6.263377e+11
6.2768447e+11
6.3154379e+11
6.2964082e+11
6.1838901e+11
6.1736464e+11
6.1195749e+11
5.7782854e+11
6.2187388e+11
6.6313036e+11
6.7237874e+11
6.7516133e+11
6.8651935e+11
6.8716719e+11
6.8259286e+11
6.8091685e+11
6.7972409e+11
6.8231966e+11
6.8231952e+11
6.7972365e+11
6.8091613e+11
6.8259189e+11
6.8716602e+11
6.8651807e+11
6.7515987e+11
6.7237716e+11
6.6312863e+11
6.2187189e+11
6.6243617e+11
7.1117135e+11
7.2436035e+11
7.2923643e+11
7.4044999e+11
7.3976563e+11
7.3457922e+11
7.3252778e+11
7.307043e+11
7.3391132e+11
7.3391117e+11
7.3070382e+11
7.3252701e+11
7.3457817e+11
7.3976437e+11
7.404486e+11
7.2923484e+11
7.2435862e+11
7.1116946e+11
6.6243405e+11
6.9957201e+11
7.5623157e+11
7.7375061e+11
7.8098682e+11
7.9199759e+11
7.9003853e+11
7.8436162e+11
7.8190359e+11
7.795638e+11
7.8321371e+11
7.8321356e+11
7.795633e+11
7.8190279e+11
7.8436054e+11
7.9003723e+11
7.9199616e+11
7.8098517e+11
7.7374879e+11
7.562296e+11
6.9956988e+11
7.3328484e+11
7.9833701e+11
8.2097425e+11
8.3086608e+11
8.4184592e+11
8.3875486e+11
8.3266073e+11
8.2978424e+11
8.2718194e+11
8.3103891e+11
8.3103876e+11
8.2718146e+11
8.2978345e+11
8.3265966e+11
8.3875358e+11
8.4184451e+11
8.3086446e+11
8.2097246e+11
7.9833509e+11
7.3328289e+11
7.6280581e+11
8.3679846e+11
8.6570914e+11
8.7878411e+11
8.9004123e+11
8.8609276e+11
8.7962337e+11
8.7634463e+11
8.7379234e+11
8.7758802e+11
8.7758788e+11
8.737919e+11
8.763439e+11
8.7962238e+11
8.8609157e+11
8.9003992e+11
8.7878263e+11
8.6570747e+11
8.3679673e+11
7.6280421e+11
7.867602e+11
8.7038695e+11
9.069741e+11
9.2419269e+11
9.3602357e+11
9.316629e+11
9.2490099e+11
9.2125913e+11
9.1900531e+11
9.2247404e+11
9.224739e+11
9.1900492e+11
9.2125848e+11
9.2490012e+11
9.3166186e+11
9.3602244e+11
9.2419143e+11
9.0697266e+11
8.7038556e+11
7.8675916e+11
8.0299166e+11
8.9704971e+11
9.4283621e+11
9.655411e+11
9.7815233e+11
9.7400493e+11
9.671569e+11
9.6322795e+11
9.6137116e+11
9.6428757e+11
9.6428744e+11
9.6137086e+11
9.6322741e+11
9.6715621e+11
9.7400412e+11
9.7815145e+11
9.6554017e+11
9.4283516e+11
8.9704885e+11
8.029914e+11
8.079669e+11
9.12908e+11
9.6939064e+11
9.9885363e+11
1.012318e+12
1.0091261e+12
1.0024986e+12
9.984049e+11
9.9687134e+11
9.9907805e+11
9.9907795e+11
9.9687113e+11
9.9840449e+11
1.0024982e+12
1.0091255e+12
1.0123175e+12
9.9885314e+11
9.6939011e+11
9.1290785e+11
8.0796757e+11
7.9786749e+11
9.1290045e+11
9.8118616e+11
1.0178642e+12
1.0321656e+12
1.0304293e+12
1.024243e+12
1.0201201e+12
1.0186968e+12
1.0201174e+12
1.0201174e+12
1.0186967e+12
1.0201198e+12
1.0242428e+12
1.0304291e+12
1.0321655e+12
1.0178642e+12
9.8118631e+11
9.1290124e+11
7.9786922e+11
7.7001948e+11
8.9198492e+11
9.7189974e+11
1.0150394e+12
1.0301652e+12
1.0298714e+12
1.0239707e+12
1.0199194e+12
1.0183189e+12
1.0189598e+12
1.0189597e+12
1.018319e+12
1.0199193e+12
1.0239708e+12
1.0298716e+12
1.0301656e+12
1.01504e+12
9.7190068e+11
8.9198677e+11
7.7002225e+11
7.2675309e+11
8.4866766e+11
9.3792258e+11
9.8597372e+11
1.0017965e+12
1.0024398e+12
9.965237e+11
9.9246971e+11
9.9033786e+11
9.9025227e+11
9.9025226e+11
9.9033798e+11
9.9246983e+11
9.9652405e+11
1.0024403e+12
1.0017972e+12
9.8597493e+11
9.3792428e+11
8.4867047e+11
7.2675659e+11
6.7944697e+11
7.9022864e+11
8.8373594e+11
9.3547355e+11
9.5236148e+11
9.533417e+11
9.4746663e+11
9.4347478e+11
9.4039602e+11
9.3962384e+11
9.3962385e+11
9.4039618e+11
9.4347498e+11
9.4746711e+11
9.5334238e+11
9.5236245e+11
9.354751e+11
8.8373819e+11
7.9023204e+11
6.7945053e+11
6.4693944e+11
7.3442577e+11
8.2528413e+11
8.8054605e+11
9.0027214e+11
9.0167952e+11
8.9642348e+11
8.9283327e+11
8.8845682e+11
8.8698086e+11
8.8698086e+11
8.8845694e+11
8.9283342e+11
8.9642389e+11
9.0168012e+11
9.0027301e+11
8.8054752e+11
8.2528637e+11
7.3442898e+11
6.4694228e+11
6.4306158e+11
7.0208618e+11
7.8496767e+11
8.4455937e+11
8.6980964e+11
8.7334917e+11
8.6952146e+11
8.6598528e+11
8.6019429e+11
8.5794775e+11
8.5794771e+11
8.6019428e+11
8.6598524e+11
8.6952162e+11
8.7334948e+11
8.6981013e+11
8.4456042e+11
7.8496942e+11
7.0208853e+11
6.4306363e+11
6.6659698e+11
7.0341874e+11
7.7884065e+11
8.4527726e+11
8.7835761e+11
8.872655e+11
8.8530855e+11
8.8082948e+11
8.737202e+11
8.7059712e+11
8.7059704e+11
8.7372005e+11
8.8082922e+11
8.8530839e+11
8.8726541e+11
8.7835765e+11
8.4527776e+11
7.7884178e+11
7.0342033e+11
6.6659927e+11
7.0011523e+11
7.3056125e+11
8.0750114e+11
8.8577932e+11
9.3081116e+11
9.4800584e+11
9.4889764e+11
9.4374159e+11
9.3544725e+11
9.3126691e+11
9.3126679e+11
9.3544699e+11
9.4374114e+11
9.4889722e+11
9.4800546e+11
9.3081091e+11
8.8577955e+11
8.0750212e+11
7.3056322e+11
7.0011979e+11
7.1804633e+11
7.6449085e+11
8.5653501e+11
9.5411535e+11
1.0183527e+12
1.0491102e+12
1.055935e+12
1.0498219e+12
1.0404595e+12
1.0349197e+12
1.0349196e+12
1.0404592e+12
1.0498214e+12
1.0559345e+12
1.0491097e+12
1.0183525e+12
9.5411589e+11
8.5653681e+11
7.6449488e+11
7.180551e+11
0
7.7691511e+11
9.0228632e+11
1.030054e+12
1.1235943e+12
1.1750514e+12
1.19356e+12
1.188416e+12
1.1781405e+12
1.1707598e+12
1.1707596e+12
1.1781402e+12
1.1884155e+12
1.1935596e+12
1.1750511e+12
1.1235947e+12
1.0300556e+12
9.0229009e+11
7.769227e+11
0
0
0
0
0
0
1.3100971e+12
1.3485192e+12
1.3482821e+12
1.3376453e+12
1.3277868e+12
1.3277867e+12
1.3376451e+12
1.3482818e+12
1.348519e+12
1.3100973e+12
0
0
0
0
0
)
;

boundaryField
{
    Wall
    {
        type            zeroGradient;
    }
    frontAndBack
    {
        type            empty;
    }
    atmosphere
    {
        type            zeroGradient;
    }
}


// ************************************************************************* //
