/*--------------------------------*- C++ -*----------------------------------*\
| =========                 |                                                 |
| \\      /  F ield         | OpenFOAM: The Open Source CFD Toolbox           |
|  \\    /   O peration     | Version:  3.0.1                                 |
|   \\  /    A nd           | Web:      www.OpenFOAM.org                      |
|    \\/     M anipulation  |                                                 |
\*---------------------------------------------------------------------------*/
FoamFile
{
    version     2.0;
    format      ascii;
    class       volScalarField;
    location    "36";
    object      XOH;
}
// * * * * * * * * * * * * * * * * * * * * * * * * * * * * * * * * * * * * * //

dimensions      [0 0 0 0 0 0 0];

internalField   nonuniform List<scalar> 
800
(
0.27430442
0.27434259
0.27435004
0.27435072
0.27435048
0.27435031
0.27435027
0.27435031
0.27435036
0.27435039
0.27435039
0.27435036
0.27435031
0.27435027
0.27435031
0.27435049
0.27435072
0.27435004
0.27434259
0.27430442
0.27115414
0.27137609
0.27144644
0.27147063
0.27147923
0.27148221
0.27148315
0.27148338
0.27148341
0.27148339
0.27148339
0.2714834
0.27148338
0.27148314
0.27148221
0.27147922
0.27147063
0.27144643
0.27137608
0.27115411
0.26761071
0.2679792
0.26811452
0.26816166
0.2681782
0.26818371
0.26818528
0.26818555
0.26818549
0.26818541
0.26818541
0.26818549
0.26818555
0.26818527
0.2681837
0.26817819
0.26816165
0.2681145
0.26797917
0.26761066
0.26444605
0.26493204
0.26512208
0.26518819
0.26521112
0.26521861
0.26522066
0.26522097
0.26522084
0.26522072
0.26522072
0.26522084
0.26522096
0.26522065
0.26521859
0.2652111
0.26518817
0.26512205
0.264932
0.26444599
0.26171907
0.26229872
0.26253384
0.26261508
0.26264281
0.26265173
0.26265414
0.2626545
0.26265436
0.26265422
0.26265422
0.26265436
0.26265449
0.26265413
0.26265171
0.26264279
0.26261505
0.26253381
0.26229868
0.261719
0.25942459
0.26007436
0.26034607
0.26043868
0.26046948
0.26047904
0.26048152
0.26048183
0.26048166
0.2604815
0.2604815
0.26048165
0.26048182
0.2604815
0.26047902
0.26046945
0.26043865
0.26034604
0.26007432
0.25942451
0.25757175
0.25826731
0.25856753
0.25866783
0.25869984
0.25870913
0.25871123
0.25871129
0.258711
0.25871079
0.25871079
0.25871099
0.25871128
0.25871122
0.25870911
0.25869982
0.2586678
0.2585675
0.25826726
0.25757168
0.25617894
0.25689535
0.25721582
0.2573202
0.25735155
0.25735956
0.25736077
0.25736032
0.25735978
0.25735948
0.25735948
0.25735978
0.25736031
0.25736076
0.25735954
0.25735153
0.25732017
0.25721579
0.2568953
0.25617888
0.25526635
0.25597836
0.25631019
0.25641519
0.25644413
0.25644988
0.2564497
0.25644847
0.25644756
0.25644711
0.25644711
0.25644756
0.25644846
0.25644969
0.25644987
0.25644411
0.25641516
0.25631016
0.25597832
0.25526629
0.25485764
0.25554015
0.25587331
0.2559754
0.25600008
0.2560025
0.2560003
0.25599793
0.25599647
0.25599578
0.25599578
0.25599647
0.25599793
0.25600029
0.25600248
0.25600006
0.25597538
0.25587329
0.25554012
0.2548576
0.25497628
0.25560458
0.25592788
0.25602383
0.25604258
0.25604067
0.25603588
0.25603206
0.25602989
0.25602889
0.25602889
0.25602988
0.25603205
0.25603588
0.25604066
0.25604257
0.25602382
0.25592787
0.25560456
0.25497625
0.25564478
0.25619516
0.25649596
0.25658263
0.25659372
0.25658642
0.25657841
0.25657276
0.2565697
0.25656832
0.25656832
0.2565697
0.25657276
0.25657841
0.25658642
0.25659371
0.25658262
0.25649595
0.25619514
0.25564476
0.25688662
0.25733635
0.25760089
0.25767534
0.25767692
0.25766313
0.25765123
0.25764336
0.25763923
0.25763738
0.25763738
0.25763923
0.25764336
0.25765124
0.25766314
0.25767692
0.25767534
0.25760089
0.25733635
0.25688661
0.25872497
0.25905229
0.2592663
0.25932583
0.25931571
0.25929429
0.25927782
0.25926729
0.25926186
0.25925944
0.25925944
0.25926186
0.25926729
0.25927783
0.2592943
0.25931572
0.25932584
0.25926631
0.2590523
0.25872498
0.26118427
0.26136813
0.26151768
0.26155971
0.26153507
0.26150483
0.26148308
0.26146943
0.26146224
0.26145916
0.26145916
0.26146224
0.26146944
0.26148309
0.26150485
0.26153508
0.26155973
0.2615177
0.26136815
0.26118429
0.26428972
0.26430933
0.26438177
0.26440377
0.26436099
0.2643207
0.2642929
0.26427569
0.26426577
0.26426193
0.26426193
0.26426578
0.2642757
0.26429292
0.26432072
0.26436101
0.2644038
0.26438181
0.26430937
0.26428976
0.26805567
0.2678921
0.26787743
0.2678772
0.26781212
0.26776073
0.26772617
0.26770502
0.26769056
0.26768584
0.26768584
0.26769057
0.26770503
0.26772618
0.26776076
0.26781215
0.26787724
0.26787747
0.26789215
0.26805572
0.27249105
0.27212796
0.27201959
0.27199544
0.27190367
0.27184047
0.27179815
0.27177273
0.27175065
0.27174488
0.27174488
0.27175066
0.27177274
0.27179817
0.2718405
0.2719037
0.27199548
0.27201964
0.27212802
0.27249111
0.2776015
0.27702595
0.27682072
0.27677197
0.27664979
0.27657434
0.27652281
0.27649291
0.27645858
0.27645153
0.27645154
0.27645858
0.27649292
0.27652284
0.27657437
0.27664983
0.27677203
0.27682078
0.27702601
0.27760158
0.28338865
0.2825929
0.28229072
0.28221868
0.28206384
0.28197541
0.2819124
0.28187814
0.28182532
0.28181671
0.28181672
0.28182533
0.28187816
0.28191243
0.28197545
0.28206389
0.28221875
0.28229079
0.28259298
0.28338874
0.28983084
0.28881595
0.28842001
0.2883292
0.28814097
0.28803819
0.28796046
0.28792234
0.28784316
0.28783273
0.28783274
0.28784316
0.28792236
0.28796049
0.28803823
0.28814102
0.28832926
0.28842009
0.28881603
0.28983093
0.29690443
0.29568184
0.29519909
0.29509811
0.29487621
0.29475714
0.29466089
0.2946199
0.29450492
0.29449258
0.29449259
0.29450492
0.29461992
0.29466092
0.29475718
0.29487627
0.29509818
0.29519917
0.29568192
0.29690452
0.30458012
0.30317261
0.30261477
0.3025166
0.30226076
0.30212324
0.3020047
0.30196254
0.30180159
0.30178742
0.30178743
0.30180159
0.30196255
0.30200473
0.30212328
0.30226082
0.30251667
0.30261485
0.3031727
0.30458022
0.31279214
0.31124003
0.31062588
0.31054638
0.3102567
0.31009817
0.30995412
0.30991336
0.30969744
0.30968182
0.30968182
0.30969744
0.30991338
0.30995414
0.31009821
0.31025675
0.31054645
0.31062595
0.31124012
0.31279222
0.32147032
0.31983182
0.31919034
0.31914782
0.3188262
0.3186435
0.31847152
0.31843598
0.31815851
0.31814232
0.31814233
0.31815851
0.31843599
0.31847155
0.31864353
0.31882625
0.31914789
0.31919041
0.3198319
0.3214704
0.33050359
0.32886274
0.32823557
0.32825088
0.32790246
0.32769195
0.32749083
0.32746589
0.32712411
0.32710929
0.3271093
0.32712411
0.3274659
0.32749085
0.32769198
0.3279025
0.32825094
0.32823563
0.32886282
0.33050368
0.33971863
0.33819872
0.33764487
0.33774405
0.33737799
0.33713572
0.33690587
0.33689867
0.33649512
0.33648478
0.33648478
0.33649512
0.33689867
0.33690588
0.33713575
0.33737803
0.33774411
0.33764493
0.3381988
0.33971872
0.34886602
0.34765201
0.34725711
0.347477
0.34710714
0.34682989
0.34657519
0.34659491
0.34613872
0.34613685
0.34613685
0.34613872
0.34659491
0.3465752
0.34682991
0.34710718
0.34747706
0.34725718
0.34765209
0.34886613
0.35755295
0.35693056
0.35682638
0.35722502
0.35687124
0.35656098
0.35629244
0.35635114
0.35585869
0.3558702
0.3558702
0.35585869
0.35635114
0.35629245
0.356561
0.35687128
0.35722508
0.35682645
0.35693066
0.3575531
0.36516736
0.36558099
0.3659851
0.3666551
0.36634759
0.36601523
0.36575499
0.36586774
0.36536197
0.36539304
0.36539304
0.36536197
0.36586774
0.365755
0.36601526
0.36634764
0.36665517
0.36598519
0.36558115
0.36516761
0.37071968
0.37287152
0.37415349
0.3752437
0.37504424
0.37471553
0.37449368
0.3746813
0.37419142
0.37425017
0.37425017
0.37419142
0.37468131
0.37449371
0.37471557
0.3750443
0.3752438
0.37415364
0.37287178
0.37072011
0.37259196
0.37759417
0.38040275
0.3821562
0.3821859
0.38191661
0.38176571
0.38204702
0.38160854
0.38170541
0.38170542
0.38160855
0.38204705
0.38176577
0.38191669
0.38218601
0.38215637
0.38040299
0.37759463
0.37259273
0.36803407
0.37777021
0.3832267
0.38605403
0.38651849
0.38642416
0.38639753
0.38675753
0.38641225
0.3865606
0.38656061
0.38641229
0.38675759
0.38639763
0.38642429
0.38651868
0.3860543
0.38322712
0.37777104
0.36803543
0.35255005
0.37015032
0.38012145
0.38473494
0.38596927
0.38628339
0.38643826
0.38684107
0.38663721
0.38685381
0.38685383
0.38663727
0.38684118
0.38643843
0.38628362
0.38596958
0.3847354
0.38012218
0.37015178
0.35255235
0.3199735
0.34964745
0.36695317
0.37458835
0.3771036
0.37816504
0.37860429
0.37907296
0.37906544
0.37936981
0.37936985
0.37906555
0.37907316
0.37860458
0.37816543
0.37710412
0.37458911
0.36695438
0.34964985
0.31997704
0.26533026
0.30992092
0.33753741
0.34985942
0.35458851
0.35675383
0.3577019
0.35848557
0.35874744
0.35915956
0.35915962
0.35874762
0.35848589
0.35770235
0.35675444
0.35458933
0.34986061
0.33753928
0.30992435
0.26533461
0.19208776
0.24794468
0.28556263
0.30367491
0.31154286
0.31543365
0.31715659
0.31852761
0.31909958
0.31961797
0.31961806
0.31909984
0.31852806
0.31715722
0.3154345
0.31154399
0.30367651
0.28556504
0.24794838
0.19209105
0.091714219
0.16887078
0.211936
0.2343213
0.24511441
0.25102988
0.25338967
0.25581411
0.25666959
0.25724372
0.25724382
0.25666987
0.2558146
0.25339034
0.25103077
0.2451156
0.23432291
0.21193818
0.16887332
0.091715792
1e-150
0.072779405
0.12595562
0.15097867
0.16335315
0.16853452
0.17076061
0.17686648
0.17776311
0.1782801
0.17828016
0.17776329
0.17686681
0.17076105
0.16853511
0.16335393
0.15097968
0.12595686
0.07278051
1e-150
1e-150
1e-150
1e-150
1e-150
1e-150
0.022403498
0.022631094
0.02322215
0.023338082
0.023403921
0.023403922
0.023338085
0.023222156
0.022631107
0.022403518
1e-150
1e-150
1e-150
1e-150
1e-150
)
;

boundaryField
{
    Wall
    {
        type            zeroGradient;
    }
    frontAndBack
    {
        type            empty;
    }
    atmosphere
    {
        type            zeroGradient;
    }
}


// ************************************************************************* //
