/*--------------------------------*- C++ -*----------------------------------*\
| =========                 |                                                 |
| \\      /  F ield         | OpenFOAM: The Open Source CFD Toolbox           |
|  \\    /   O peration     | Version:  3.0.1                                 |
|   \\  /    A nd           | Web:      www.OpenFOAM.org                      |
|    \\/     M anipulation  |                                                 |
\*---------------------------------------------------------------------------*/
FoamFile
{
    version     2.0;
    format      ascii;
    class       volScalarField;
    location    "36";
    object      XW;
}
// * * * * * * * * * * * * * * * * * * * * * * * * * * * * * * * * * * * * * //

dimensions      [0 0 0 0 0 0 0];

internalField   nonuniform List<scalar> 
800
(
0.87424187
0.8742856
0.87429356
0.87429409
0.87429372
0.87429347
0.8742934
0.87429343
0.87429348
0.87429351
0.87429351
0.87429348
0.87429343
0.8742934
0.87429347
0.87429372
0.87429409
0.87429356
0.87428561
0.87424187
0.86990838
0.87019607
0.87028504
0.87031593
0.87032715
0.87033124
0.87033265
0.87033311
0.87033323
0.87033325
0.87033325
0.87033323
0.8703331
0.87033265
0.87033123
0.87032714
0.87031592
0.87028502
0.87019605
0.86990835
0.86489661
0.86538907
0.86556584
0.86562777
0.86564995
0.86565769
0.86566016
0.86566081
0.86566092
0.8656609
0.8656609
0.86566091
0.86566081
0.86566015
0.86565768
0.86564993
0.86562774
0.86556581
0.86538903
0.86489655
0.8602198
0.86089087
0.86114612
0.86123536
0.86126703
0.8612779
0.86128127
0.8612821
0.86128219
0.86128213
0.86128213
0.86128218
0.86128209
0.86128125
0.86127788
0.861267
0.86123533
0.86114608
0.86089082
0.86021972
0.8559668
0.85679539
0.85711986
0.85723264
0.85727222
0.85728566
0.85728982
0.85729085
0.85729098
0.85729092
0.85729092
0.85729097
0.85729084
0.8572898
0.85728563
0.85727219
0.85723261
0.85711981
0.85679533
0.8559667
0.85214146
0.85310523
0.85349068
0.85362316
0.85366875
0.85368389
0.85368849
0.85368962
0.85368976
0.8536897
0.8536897
0.85368975
0.85368961
0.85368847
0.85368386
0.85366872
0.85362312
0.85349063
0.85310516
0.85214136
0.84876399
0.84983849
0.85027685
0.85042512
0.85047465
0.85049038
0.85049491
0.85049587
0.85049591
0.85049581
0.85049581
0.8504959
0.85049585
0.85049489
0.85049036
0.85047461
0.85042508
0.85027679
0.84983842
0.84876389
0.84586432
0.84702368
0.84750641
0.84766655
0.84771783
0.84773296
0.84773676
0.84773723
0.84773701
0.84773681
0.8477368
0.847737
0.84773721
0.84773674
0.84773293
0.8477178
0.84766651
0.84750636
0.84702361
0.84586422
0.84347072
0.8446884
0.84520617
0.84537444
0.84542546
0.84543884
0.84544133
0.84544098
0.84544037
0.84543999
0.84543999
0.84544036
0.84544097
0.84544131
0.84543881
0.84542543
0.8453744
0.84520612
0.84468833
0.84347064
0.8416138
0.84286339
0.84340556
0.84357801
0.84362654
0.84363681
0.84363721
0.8436356
0.84363434
0.84363368
0.84363368
0.84363433
0.84363558
0.8436372
0.84363679
0.84362651
0.84357797
0.84340552
0.84286333
0.84161373
0.8403199
0.8415758
0.84213071
0.84230394
0.84234814
0.84235419
0.84235187
0.84234864
0.84234657
0.84234556
0.84234556
0.84234656
0.84234863
0.84235186
0.84235417
0.84234811
0.84230391
0.84213067
0.84157575
0.84031984
0.839609
0.84084762
0.84140215
0.84157284
0.84161082
0.84161146
0.8416057
0.84160043
0.84159733
0.84159586
0.84159586
0.84159733
0.84160042
0.84160569
0.84161144
0.8416108
0.84157282
0.84140213
0.84084758
0.83960896
0.8394994
0.84069925
0.84123941
0.84140464
0.84143452
0.84142859
0.8414187
0.84141096
0.84140664
0.84140462
0.84140462
0.84140664
0.84141096
0.84141869
0.84142858
0.8414345
0.84140463
0.8412394
0.84069923
0.83949937
0.84000362
0.84114578
0.84165758
0.84181495
0.84183471
0.84182115
0.8418065
0.84179589
0.84179012
0.84178744
0.84178744
0.84179011
0.84179589
0.8418065
0.84182115
0.8418347
0.84181494
0.84165757
0.84114578
0.8400036
0.84113071
0.84219868
0.84266919
0.84281677
0.84282401
0.84280186
0.84278187
0.84276801
0.84276037
0.84275697
0.84275697
0.84276037
0.84276801
0.84278187
0.84280187
0.84282401
0.84281677
0.8426692
0.84219869
0.84113072
0.84287976
0.84385963
0.84427832
0.84441468
0.84440653
0.84437502
0.84434921
0.84433184
0.84432154
0.84431733
0.84431733
0.84432154
0.84433184
0.84434922
0.84437503
0.84440654
0.84441469
0.84427834
0.84385966
0.84287978
0.84524175
0.84612331
0.84648339
0.84660766
0.84658084
0.84653947
0.84650752
0.84648648
0.84647194
0.84646684
0.84646684
0.84647195
0.84648649
0.84650753
0.84653949
0.84658085
0.84660769
0.84648342
0.84612335
0.84524179
0.84819607
0.84897328
0.84927276
0.84938493
0.84933623
0.84928515
0.84924669
0.84922194
0.84920047
0.84919436
0.84919436
0.84920047
0.84922195
0.8492467
0.84928517
0.84933625
0.84938497
0.8492728
0.84897333
0.84819612
0.8517123
0.85238452
0.8526263
0.85272773
0.85265502
0.85259496
0.85254936
0.85252109
0.85248864
0.85248141
0.85248142
0.85248864
0.8525211
0.85254937
0.85259498
0.85265505
0.85272778
0.85262635
0.85238458
0.85171236
0.85574625
0.85632059
0.85651202
0.85660641
0.85650956
0.85644124
0.8563873
0.85635609
0.85630735
0.85629886
0.85629886
0.85630736
0.8563561
0.85638732
0.85644127
0.8565096
0.85660646
0.85651208
0.85632066
0.85574633
0.86023449
0.8607285
0.86088145
0.86097587
0.86085683
0.86078053
0.86071626
0.86068314
0.86061157
0.86060178
0.86060179
0.86061158
0.86068315
0.86071628
0.86078057
0.86085687
0.86097593
0.86088152
0.86072858
0.86023457
0.86510485
0.86554766
0.86567884
0.86578466
0.8656465
0.86556226
0.86548528
0.86545175
0.86534975
0.86533885
0.86533885
0.86534976
0.86545176
0.8654853
0.86556229
0.86564654
0.86578472
0.86567891
0.86554774
0.86510494
0.87026933
0.87070404
0.8708359
0.87096892
0.87081537
0.87072332
0.87063151
0.87059975
0.87045954
0.87044792
0.87044792
0.87045954
0.87059976
0.87063153
0.87072335
0.87081542
0.87096899
0.87083597
0.87070412
0.87026941
0.87561181
0.87609949
0.87626226
0.87644143
0.87627714
0.87617752
0.87606963
0.87604261
0.875858
0.87584636
0.87584637
0.875858
0.87604262
0.87606965
0.87617755
0.87627718
0.87644149
0.87626233
0.87609957
0.8756119
0.88099989
0.88162252
0.88185715
0.88210414
0.88193588
0.8818291
0.88170521
0.88168694
0.8814544
0.88144395
0.88144395
0.8814544
0.88168695
0.88170523
0.88182913
0.88193592
0.8821042
0.88185722
0.8816226
0.88099998
0.88625993
0.88712852
0.88749015
0.88782995
0.88766797
0.88755476
0.88741643
0.88741209
0.88713168
0.88712449
0.88712449
0.88713168
0.88741209
0.88741645
0.88755479
0.88766801
0.88783001
0.88749021
0.88712861
0.88626002
0.89116126
0.8924297
0.89299365
0.89345705
0.89331608
0.89319777
0.89304812
0.8930641
0.89274041
0.89273948
0.89273948
0.8927404
0.8930641
0.89304814
0.89319779
0.89331612
0.8934571
0.89299372
0.89242979
0.89116137
0.89538691
0.89727946
0.8981535
0.89878283
0.89868367
0.89856332
0.89840825
0.89845241
0.89809518
0.89810413
0.89810413
0.89809518
0.89845242
0.89840826
0.89856334
0.89868371
0.89878289
0.89815358
0.89727957
0.89538705
0.89847146
0.9013311
0.90267781
0.90353771
0.90350913
0.90339489
0.90324523
0.90332743
0.90295132
0.90297428
0.90297428
0.90295132
0.90332743
0.90324525
0.90339492
0.90350918
0.90353778
0.9026779
0.90133124
0.89847167
0.89968811
0.90406565
0.90614948
0.90734456
0.90742822
0.90733743
0.90721261
0.90734525
0.9069688
0.90701095
0.90701095
0.9069688
0.90734526
0.90721264
0.90733747
0.90742828
0.90734466
0.90614961
0.90406586
0.89968843
0.89781936
0.90464755
0.90792351
0.90962913
0.90989774
0.90986246
0.90979125
0.90999323
0.90963843
0.90970676
0.90970677
0.90963844
0.90999325
0.9097913
0.90986252
0.90989784
0.90962927
0.9079237
0.9046479
0.89781991
0.89070777
0.90164021
0.90693491
0.90945724
0.91004927
0.91012899
0.91014911
0.91044945
0.91014277
0.91024726
0.91024727
0.9101428
0.91044949
0.91014918
0.9101291
0.91004941
0.90945745
0.90693522
0.90164079
0.89070873
0.87429016
0.89243675
0.90130848
0.90520952
0.90638723
0.90669906
0.90687741
0.90730783
0.90708285
0.90723857
0.90723858
0.90708289
0.9073079
0.90687753
0.90669922
0.90638746
0.90520986
0.90130902
0.89243779
0.87429189
0.84075829
0.87210781
0.88752646
0.89388464
0.89615437
0.89695493
0.89740921
0.89800794
0.89791083
0.89814141
0.89814144
0.89791091
0.89800808
0.89740942
0.89695522
0.89615476
0.8938852
0.88752738
0.87210968
0.84076139
0.77634669
0.83143787
0.85878999
0.86973013
0.87403023
0.87586164
0.87680185
0.8776573
0.87775737
0.87809912
0.87809917
0.8777575
0.87765754
0.8768022
0.87586212
0.87403089
0.86973111
0.85879158
0.83144117
0.77635189
0.66393137
0.75547373
0.80259452
0.82195166
0.8299475
0.83378517
0.83558345
0.83704225
0.83746447
0.83797015
0.83797023
0.8374647
0.83704268
0.83558404
0.83378599
0.8299486
0.82195329
0.80259717
0.75547889
0.66393845
0.4964057
0.62716252
0.7007032
0.7333292
0.7475853
0.75476009
0.7578943
0.76099716
0.76187777
0.7625901
0.76259022
0.76187814
0.76099782
0.75789522
0.75476133
0.74758698
0.73333163
0.70070699
0.62716871
0.49641168
0.23707756
0.44032787
0.54012925
0.5877524
0.61016028
0.62293726
0.62731797
0.63276312
0.63416557
0.63505031
0.63505046
0.63416601
0.63276391
0.62731904
0.62293872
0.61016224
0.58775511
0.54013307
0.44033257
0.23708069
1e-150
0.18938609
0.32742339
0.38914483
0.41876606
0.43036049
0.434642
0.45064421
0.45223254
0.4531096
0.4531097
0.45223286
0.45064478
0.43464276
0.43036152
0.41876743
0.38914666
0.32742573
0.18938833
1e-150
1e-150
1e-150
1e-150
1e-150
1e-150
0.056013993
0.056335912
0.057795641
0.057967805
0.058064679
0.058064674
0.057967794
0.057795623
0.0563359
0.056013982
1e-150
1e-150
1e-150
1e-150
1e-150
)
;

boundaryField
{
    Wall
    {
        type            zeroGradient;
    }
    frontAndBack
    {
        type            empty;
    }
    atmosphere
    {
        type            zeroGradient;
    }
}


// ************************************************************************* //
