/*--------------------------------*- C++ -*----------------------------------*\
| =========                 |                                                 |
| \\      /  F ield         | OpenFOAM: The Open Source CFD Toolbox           |
|  \\    /   O peration     | Version:  3.0.1                                 |
|   \\  /    A nd           | Web:      www.OpenFOAM.org                      |
|    \\/     M anipulation  |                                                 |
\*---------------------------------------------------------------------------*/
FoamFile
{
    version     2.0;
    format      ascii;
    class       volScalarField;
    location    "27";
    object      alpha.gas;
}
// * * * * * * * * * * * * * * * * * * * * * * * * * * * * * * * * * * * * * //

dimensions      [0 0 0 0 0 0 0];

internalField   nonuniform List<scalar> 
800
(
2.120224e-28
2.2821082e-25
4.3847153e-22
8.5957711e-22
1.1814371e-23
1.0612714e-21
9.2986276e-22
5.8428709e-23
2.2864158e-25
4.191701e-28
3.0423887e-23
2.9585086e-23
4.2980762e-25
6.8935494e-23
6.7542266e-23
1.5810452e-27
3.5113685e-32
1.5216537e-35
2.9984806e-39
5.5759544e-43
1.9010077e-12
4.3553027e-13
3.0811305e-11
1.1248858e-11
5.1538167e-13
1.4590155e-11
1.1553933e-11
1.3887843e-11
2.8221173e-11
7.0893413e-11
3.5638533e-11
3.5453786e-11
1.9172068e-11
1.1372842e-11
1.069637e-11
2.0790836e-12
6.6341321e-16
8.5747274e-14
5.9710885e-12
8.2855855e-15
1.1803215e-07
1.0691993e-07
1.0380004e-07
1.0317766e-07
1.0317448e-07
1.0336277e-07
1.0353506e-07
1.0366711e-07
1.0375783e-07
1.0382425e-07
1.0380104e-07
1.0376267e-07
1.0367072e-07
1.0353513e-07
1.0336051e-07
1.0317588e-07
1.0317068e-07
1.0378034e-07
1.069243e-07
1.18032e-07
5.3341699e-07
4.8174271e-07
4.67427e-07
4.6497204e-07
4.6510591e-07
4.6595356e-07
4.667406e-07
4.673225e-07
4.6769414e-07
4.6788985e-07
4.678697e-07
4.6769865e-07
4.6732617e-07
4.6674137e-07
4.6595261e-07
4.6510838e-07
4.6496741e-07
4.6741152e-07
4.8174877e-07
5.3342001e-07
1.4385144e-06
1.2968082e-06
1.2567433e-06
1.2507639e-06
1.2514983e-06
1.253895e-06
1.2560557e-06
1.2576172e-06
1.2586006e-06
1.2590829e-06
1.2590636e-06
1.2586056e-06
1.2576218e-06
1.256058e-06
1.2538961e-06
1.251503e-06
1.250762e-06
1.2567312e-06
1.2968177e-06
1.438522e-06
3.016769e-06
2.716489e-06
2.6273598e-06
2.6159815e-06
2.618375e-06
2.6237459e-06
2.6284028e-06
2.6316946e-06
2.6337485e-06
2.6347283e-06
2.6347096e-06
2.6337546e-06
2.6317009e-06
2.6284075e-06
2.6237497e-06
2.618383e-06
2.615983e-06
2.6273516e-06
2.7165025e-06
3.0167811e-06
5.4277847e-06
4.8847026e-06
4.7107387e-06
4.6921027e-06
4.6983908e-06
4.7087813e-06
4.7174415e-06
4.7234242e-06
4.7271232e-06
4.7288564e-06
4.7288384e-06
4.7271306e-06
4.7234327e-06
4.7174491e-06
4.7087881e-06
4.6984025e-06
4.6921073e-06
4.7107337e-06
4.8847191e-06
5.4277992e-06
8.7960001e-06
7.9169812e-06
7.6046811e-06
7.5765222e-06
7.5901197e-06
7.608491e-06
7.6230026e-06
7.6327834e-06
7.638781e-06
7.6415504e-06
7.6415331e-06
7.63879e-06
7.6327939e-06
7.6230131e-06
7.6085006e-06
7.590134e-06
7.5765284e-06
7.6046776e-06
7.9169985e-06
8.7960136e-06
1.3208049e-05
1.189851e-05
1.1370821e-05
1.1329238e-05
1.1354745e-05
1.1384367e-05
1.1406638e-05
1.1421313e-05
1.1430284e-05
1.1434367e-05
1.143435e-05
1.1430294e-05
1.1421326e-05
1.140665e-05
1.1384378e-05
1.1354761e-05
1.1329244e-05
1.1370817e-05
1.1898526e-05
1.3208059e-05
1.8724156e-05
1.689373e-05
1.6041013e-05
1.5979985e-05
1.6022933e-05
1.6066701e-05
1.6098359e-05
1.6118839e-05
1.6131317e-05
1.6136961e-05
1.6136945e-05
1.6131328e-05
1.6118853e-05
1.6098372e-05
1.6066712e-05
1.6022947e-05
1.5979988e-05
1.6041007e-05
1.6893744e-05
1.8724163e-05
2.5400868e-05
2.2946567e-05
2.1625632e-05
2.1548172e-05
2.1613849e-05
2.1674353e-05
2.1716581e-05
2.1743442e-05
2.1760622e-05
2.1768092e-05
2.1768077e-05
2.1760633e-05
2.1743456e-05
2.1716594e-05
2.1674362e-05
2.161386e-05
2.1548171e-05
2.1625624e-05
2.2946582e-05
2.5400875e-05
3.3308164e-05
2.9998327e-05
2.8135406e-05
2.8080742e-05
2.8174788e-05
2.8254722e-05
2.8308311e-05
2.8341244e-05
2.8362372e-05
2.8371572e-05
2.8371557e-05
2.8362382e-05
2.8341257e-05
2.8308322e-05
2.8254728e-05
2.8174796e-05
2.8080736e-05
2.8135397e-05
2.9998347e-05
3.3308178e-05
4.2650081e-05
3.7863228e-05
3.5777305e-05
3.5782212e-05
3.5909295e-05
3.601064e-05
3.6074574e-05
3.6112227e-05
3.6136583e-05
3.6149586e-05
3.6149572e-05
3.6136593e-05
3.6112238e-05
3.6074582e-05
3.6010643e-05
3.5909298e-05
3.5782203e-05
3.5777294e-05
3.7863251e-05
4.2650109e-05
5.4423438e-05
4.6945105e-05
4.5178067e-05
4.5192876e-05
4.5343661e-05
4.5459201e-05
4.5530207e-05
4.5568252e-05
4.5593392e-05
4.5606304e-05
4.560629e-05
4.5593401e-05
4.5568262e-05
4.5530212e-05
4.5459199e-05
4.534366e-05
4.5192863e-05
4.5178054e-05
4.6945122e-05
5.4423473e-05
7.4443636e-05
6.126856e-05
5.9223022e-05
5.9048632e-05
5.912684e-05
5.9207632e-05
5.9256356e-05
5.9274274e-05
5.9280546e-05
5.9289075e-05
5.9289061e-05
5.9280553e-05
5.927428e-05
5.9256355e-05
5.9207622e-05
5.912683e-05
5.904861e-05
5.9223003e-05
6.126856e-05
7.444364e-05
0.00013161475
9.8877137e-05
9.2409829e-05
9.0990553e-05
9.0364607e-05
9.0053356e-05
8.9848943e-05
8.9720193e-05
8.9592918e-05
8.955807e-05
8.9558051e-05
8.9592906e-05
8.9720172e-05
8.9848903e-05
9.0053297e-05
9.0364544e-05
9.0990472e-05
9.2409739e-05
9.8877025e-05
0.0001316144
0.00045370725
0.00029259167
0.00024957989
0.00023723238
0.00023019492
0.00022630569
0.00022397366
0.0002226317
0.00022112355
0.00022059128
0.00022059121
0.00022112337
0.00022263144
0.00022397327
0.00022630522
0.00023019433
0.00023723172
0.00024957905
0.00029259023
0.0004537031
0.004715452
0.0024670048
0.0018699546
0.00168381
0.0015771366
0.0015230639
0.0014917902
0.0014734682
0.0014534462
0.0014455287
0.0014455278
0.0014534435
0.0014734641
0.0014917844
0.0015230569
0.0015771281
0.0016837991
0.0018699405
0.0024669777
0.0047153644
0.15433661
0.075362657
0.054063453
0.047014551
0.042682115
0.040448124
0.039150342
0.038462058
0.037799448
0.037519622
0.037519589
0.037799339
0.038461891
0.039150108
0.040447811
0.042681739
0.047014095
0.054062873
0.075361638
0.15433359
0.77936098
0.66106649
0.60250364
0.57629926
0.55847941
0.54877041
0.54284891
0.53936068
0.53600037
0.53458502
0.53458485
0.5359998
0.53935982
0.54284771
0.54876899
0.55847777
0.57629742
0.60250154
0.66106399
0.77935834
0.98969204
0.97690172
0.96824452
0.96379897
0.96054571
0.95868685
0.95751108
0.95678776
0.95608224
0.95578824
0.9557882
0.95608212
0.95678757
0.95751083
0.95868656
0.96054539
0.96379864
0.96824417
0.97690139
0.9896918
0.99995265
0.99979424
0.99965061
0.99957344
0.99951498
0.99948025
0.99945776
0.99944381
0.99942973
0.99942404
0.99942404
0.99942973
0.99944381
0.99945776
0.99948025
0.99951497
0.99957343
0.9996506
0.99979423
0.99995265
0.99999999
0.99999986
0.99999966
0.99999955
0.99999946
0.99999941
0.99999938
0.99999936
0.99999934
0.99999933
0.99999933
0.99999934
0.99999936
0.99999938
0.99999941
0.99999946
0.99999955
0.99999966
0.99999986
0.99999999
1
1
1
1
1
1
1
1
1
1
1
1
1
1
1
1
1
1
1
1
1
1
1
1
1
1
1
1
1
1
1
1
1
1
1
1
1
1
1
1
1
1
1
1
1
1
1
1
1
1
1
1
1
1
1
1
1
1
1
1
1
1
1
1
1
1
1
1
1
1
1
1
1
1
1
1
1
1
1
1
1
1
1
1
1
1
1
1
1
1
1
1
1
1
1
1
1
1
1
1
1
1
1
1
1
1
1
1
1
1
1
1
1
1
1
1
1
1
1
1
1
1
1
1
1
1
1
1
1
1
1
1
1
1
1
1
1
1
1
1
1
1
1
1
1
1
1
1
1
1
1
1
1
1
1
1
1
1
1
1
1
1
1
1
1
1
1
1
1
1
1
1
1
1
1
1
1
1
1
1
1
1
1
1
1
1
1
1
1
1
1
1
1
1
1
1
1
1
1
1
1
1
1
1
1
1
1
1
1
1
1
1
1
1
1
1
1
1
1
1
1
1
1
1
1
1
1
1
1
1
1
1
1
1
1
1
1
1
1
1
1
1
1
1
1
1
1
1
1
1
1
1
1
1
1
1
1
1
1
1
1
1
1
1
1
1
1
1
1
1
1
1
1
1
1
1
1
1
1
1
1
1
1
1
1
1
1
1
1
1
1
1
1
1
1
1
1
1
1
1
1
1
1
1
1
1
1
1
1
1
1
1
1
1
1
1
1
1
1
1
1
1
1
1
1
1
1
1
1
1
1
1
1
1
1
1
1
1
1
1
)
;

boundaryField
{
    Wall
    {
        type            zeroGradient;
    }
    frontAndBack
    {
        type            empty;
    }
    atmosphere
    {
        type            zeroGradient;
    }
}


// ************************************************************************* //
