/*--------------------------------*- C++ -*----------------------------------*\
| =========                 |                                                 |
| \\      /  F ield         | OpenFOAM: The Open Source CFD Toolbox           |
|  \\    /   O peration     | Version:  3.0.1                                 |
|   \\  /    A nd           | Web:      www.OpenFOAM.org                      |
|    \\/     M anipulation  |                                                 |
\*---------------------------------------------------------------------------*/
FoamFile
{
    version     2.0;
    format      ascii;
    class       volScalarField;
    location    "27";
    object      g1_BA;
}
// * * * * * * * * * * * * * * * * * * * * * * * * * * * * * * * * * * * * * //

dimensions      [0 0 0 0 0 0 0];

internalField   nonuniform List<scalar> 
800
(
0.51726723
0.51736464
0.51738476
0.51738773
0.51738819
0.51738851
0.51738894
0.51738936
0.51738968
0.51738985
0.51738985
0.51738968
0.51738936
0.51738894
0.51738851
0.51738819
0.51738773
0.51738477
0.51736465
0.51726724
0.50316384
0.50399982
0.50422349
0.50426689
0.5042649
0.5042549
0.50424648
0.50424114
0.50423824
0.50423698
0.50423699
0.50423824
0.50424114
0.50424648
0.50425489
0.50426489
0.50426687
0.50422346
0.50399979
0.50316377
0.47829405
0.47999146
0.48054687
0.48067081
0.48067789
0.48066004
0.48064273
0.4806311
0.48062453
0.48062166
0.48062166
0.48062452
0.48063108
0.48064271
0.48066001
0.48067785
0.48067076
0.4805468
0.47999137
0.4782939
0.44798987
0.45058457
0.45147313
0.45167538
0.45169041
0.45166405
0.45163756
0.45161937
0.45160893
0.45160431
0.45160431
0.45160892
0.45161935
0.45163753
0.45166401
0.45169034
0.4516753
0.45147304
0.45058445
0.44798967
0.41644245
0.41980098
0.42098482
0.42124919
0.42126545
0.42122758
0.42119076
0.42116535
0.42115065
0.42114409
0.42114409
0.42115063
0.42116532
0.42119071
0.42122752
0.42126537
0.4212491
0.42098471
0.41980084
0.41644224
0.38634486
0.39028892
0.39173319
0.39204579
0.39205699
0.3920045
0.391956
0.39192251
0.3919031
0.39189435
0.39189435
0.39190308
0.39192248
0.39195595
0.39200443
0.39205691
0.39204571
0.39173308
0.39028879
0.38634468
0.35890882
0.36326708
0.36490526
0.36525544
0.36525639
0.36518658
0.36512511
0.36508259
0.36505791
0.36504664
0.36504664
0.36505789
0.36508255
0.36512507
0.36518652
0.36525632
0.36525537
0.36490518
0.36326699
0.35890869
0.3343956
0.33914689
0.34089581
0.34128208
0.34127312
0.34118549
0.34111087
0.34105903
0.34102887
0.3410149
0.3410149
0.34102885
0.341059
0.34111083
0.34118545
0.34127307
0.34128204
0.34089576
0.33914684
0.33439554
0.31204366
0.31730194
0.31908572
0.31951759
0.31950099
0.31939938
0.3193134
0.31925333
0.31921813
0.31920161
0.3192016
0.31921811
0.3192533
0.31931337
0.31939936
0.31950097
0.31951757
0.3190857
0.31730193
0.31204365
0.29063358
0.2966016
0.29839254
0.29889241
0.29887752
0.2987651
0.29867258
0.2986074
0.29856859
0.29855015
0.29855015
0.29856857
0.29860738
0.29867256
0.29876509
0.29887752
0.29889242
0.29839255
0.29660163
0.29063361
0.26874944
0.27568526
0.27752357
0.27812713
0.27813282
0.27802003
0.27792981
0.27786511
0.27782514
0.27780601
0.27780601
0.27782512
0.27786508
0.27792979
0.27802002
0.27813283
0.27812715
0.2775236
0.27568531
0.26874949
0.24495094
0.25303617
0.2551171
0.25587332
0.25585072
0.25576043
0.25568495
0.25562922
0.25559477
0.25557699
0.25557699
0.25559475
0.25562919
0.25568493
0.25576043
0.25585073
0.25587335
0.25511713
0.25303622
0.24495099
0.21793519
0.22721242
0.22987599
0.23073423
0.23068059
0.23064329
0.23059877
0.23056661
0.23055548
0.23054444
0.23054443
0.23055546
0.23056659
0.23059875
0.23064328
0.2306806
0.23073425
0.22987602
0.22721246
0.21793521
0.18644527
0.1970711
0.20053557
0.20152126
0.20154863
0.20159879
0.20161066
0.20161693
0.2015103
0.201507
0.20150699
0.20151028
0.2016169
0.20161063
0.20159878
0.20154862
0.20152127
0.20053558
0.19707111
0.18644527
0.15856491
0.17129249
0.17609405
0.17764548
0.17792009
0.17809612
0.17821223
0.17825334
0.1779924
0.17799373
0.17799373
0.17799239
0.17825331
0.17821221
0.17809612
0.17792009
0.1776455
0.17609406
0.17129251
0.15856494
0.11620302
0.13108825
0.137211
0.13951098
0.14027044
0.14079372
0.14076444
0.14089382
0.14066984
0.14069875
0.14069874
0.14066983
0.1408938
0.14076443
0.14079372
0.14027045
0.139511
0.13721101
0.13108827
0.11620309
0.063451677
0.079568597
0.086962351
0.090150235
0.091575993
0.09195636
0.092005546
0.0922928
0.092589199
0.092703929
0.092703925
0.092589198
0.092292793
0.092005553
0.091956379
0.091576021
0.090150276
0.086962391
0.079568663
0.063451805
0.012915873
0.022658575
0.028632445
0.0314942
0.033531623
0.03421156
0.034576273
0.034878114
0.034815316
0.034936832
0.034936833
0.034815325
0.034878125
0.034576297
0.034211595
0.033531665
0.031494248
0.028632497
0.022658646
0.01291597
0
0
0
0
0
0
0
0
0
0
0
0
0
0
0
0
0
0
0
0
0
0
0
0
0
0
0
0
0
0
0
0
0
0
0
0
0
0
0
0
0
0
0
0
0
0
0
0
0
0
0
0
0
0
0
0
0
0
0
0
0
0
0
0
0
0
0
0
0
0
0
0
0
0
0
0
0
0
0
0
0
0
0
0
0
0
0
0
0
0
0
0
0
0
0
0
0
0
0
0
0
0
0
0
0
0
0
0
0
0
0
0
0
0
0
0
0
0
0
0
0
0
0
0
0
0
0
0
0
0
0
0
0
0
0
0
0
0
0
0
0
0
0
0
0
0
0
0
0
0
0
0
0
0
0
0
0
0
0
0
0
0
0
0
0
0
0
0
0
0
0
0
0
0
0
0
0
0
0
0
0
0
0
0
0
0
0
0
0
0
0
0
0
0
0
0
0
0
0
0
0
0
0
0
0
0
0
0
0
0
0
0
0
0
0
0
0
0
0
0
0
0
0
0
0
0
0
0
0
0
0
0
0
0
0
0
0
0
0
0
0
0
0
0
0
0
0
0
0
0
0
0
0
0
0
0
0
0
0
0
0
0
0
0
0
0
0
0
0
0
0
0
0
0
0
0
0
0
0
0
0
0
0
0
0
0
0
0
0
0
0
0
0
0
0
0
0
0
0
0
0
0
0
0
0
0
0
0
0
0
0
0
0
0
0
0
0
0
0
0
0
0
0
0
0
0
0
0
0
0
0
0
0
0
0
0
0
0
0
0
0
0
0
0
0
0
0
0
0
0
0
0
0
0
0
0
0
0
0
0
0
0
0
0
0
0
0
0
0
0
0
0
0
0
0
0
0
0
0
0
0
0
0
0
0
0
0
0
0
0
0
0
0
0
0
0
0
0
0
0
0
0
0
0
0
0
0
0
0
0
0
0
0
0
0
0
0
0
0
0
0
0
0
0
0
0
0
0
0
0
0
0
0
0
0
0
0
0
0
0
)
;

boundaryField
{
    Wall
    {
        type            zeroGradient;
    }
    frontAndBack
    {
        type            empty;
    }
    atmosphere
    {
        type            zeroGradient;
    }
}


// ************************************************************************* //
