/*--------------------------------*- C++ -*----------------------------------*\
| =========                 |                                                 |
| \\      /  F ield         | OpenFOAM: The Open Source CFD Toolbox           |
|  \\    /   O peration     | Version:  3.0.1                                 |
|   \\  /    A nd           | Web:      www.OpenFOAM.org                      |
|    \\/     M anipulation  |                                                 |
\*---------------------------------------------------------------------------*/
FoamFile
{
    version     2.0;
    format      ascii;
    class       volScalarField;
    location    "27";
    object      g1_CO2;
}
// * * * * * * * * * * * * * * * * * * * * * * * * * * * * * * * * * * * * * //

dimensions      [0 0 0 0 0 0 0];

internalField   nonuniform List<scalar> 
800
(
0.48523885
0.48528083
0.48529017
0.48529157
0.48529182
0.48529202
0.48529226
0.48529249
0.48529266
0.48529275
0.48529275
0.48529266
0.48529249
0.48529226
0.48529202
0.48529182
0.48529157
0.48529017
0.48528084
0.48523885
0.50323676
0.50311164
0.50314546
0.50316292
0.5031634
0.50315617
0.5031474
0.50313997
0.50313488
0.50313233
0.50313233
0.50313488
0.50313997
0.5031474
0.50315616
0.50316339
0.5031629
0.50314543
0.50311161
0.5032367
0.52167803
0.52138103
0.52140583
0.52143341
0.52143542
0.52142479
0.52141113
0.52139929
0.52139104
0.52138685
0.52138685
0.52139104
0.52139929
0.52141112
0.52142478
0.5214354
0.52143338
0.52140579
0.52138098
0.52167794
0.54271714
0.54204176
0.54202206
0.54205951
0.54206448
0.54205397
0.54203852
0.54202472
0.54201483
0.54200976
0.54200976
0.54201483
0.54202472
0.54203851
0.54205396
0.54206445
0.54205947
0.54202201
0.5420417
0.54271704
0.56871326
0.56734303
0.5672249
0.56723525
0.56724044
0.56723112
0.56721528
0.5672008
0.56719011
0.5671846
0.5671846
0.56719011
0.5672008
0.56721528
0.5672311
0.56724041
0.56723521
0.56722485
0.56734297
0.56871316
0.60192838
0.59947422
0.59920547
0.5991473
0.59914805
0.5991387
0.59912239
0.59910736
0.59909591
0.59909002
0.59909003
0.59909592
0.59910736
0.59912239
0.59913869
0.59914804
0.59914728
0.59920543
0.59947417
0.60192831
0.64407385
0.64004107
0.63951966
0.63936837
0.63935822
0.63934518
0.6393262
0.63930898
0.63929574
0.63928893
0.63928893
0.63929575
0.63930899
0.63932621
0.63934518
0.63935822
0.63936836
0.63951964
0.64004105
0.64407381
0.696656
0.69067829
0.68970209
0.68945234
0.68943069
0.68940888
0.68938279
0.68935981
0.68934259
0.68933375
0.68933376
0.68934261
0.68935983
0.68938281
0.68940889
0.6894307
0.68945234
0.68970209
0.69067828
0.69665598
0.76045395
0.75234245
0.75065065
0.75030072
0.75023603
0.75020327
0.75016155
0.75012646
0.75010174
0.75008906
0.75008907
0.75010175
0.75012648
0.75016158
0.75020331
0.75023606
0.75030075
0.75065067
0.75234247
0.76045397
0.83597595
0.8257297
0.82307733
0.82261831
0.82248979
0.82241873
0.8223443
0.82228671
0.82224946
0.82223026
0.82223027
0.82224948
0.82228675
0.82234434
0.82241878
0.82248983
0.82261836
0.82307737
0.82572975
0.83597602
0.92327355
0.91128156
0.90750489
0.90690087
0.90671115
0.90658957
0.90645363
0.90635669
0.90630021
0.90627057
0.90627058
0.90630023
0.90635673
0.90645368
0.90658962
0.90671121
0.90690094
0.90750497
0.91128165
0.92327367
1.021267
1.0083249
1.0037295
1.0028627
1.0025458
1.0023868
1.002147
1.0019828
1.0019015
1.001854
1.0018541
1.0019015
1.0019828
1.0021471
1.0023869
1.0025458
1.0028628
1.0037296
1.008325
1.0212671
1.1268663
1.1143529
1.1099905
1.1084051
1.1080261
1.1078123
1.1074104
1.1071174
1.1071208
1.1070236
1.1070236
1.1071208
1.1071174
1.1074104
1.1078123
1.1080261
1.1084052
1.1099905
1.114353
1.1268665
1.2328506
1.2240555
1.2212129
1.2192463
1.2189894
1.2186255
1.2179835
1.2175051
1.2173264
1.2171698
1.2171698
1.2173264
1.2175051
1.2179835
1.2186255
1.2189894
1.2192464
1.221213
1.2240555
1.2328506
1.3888991
1.3879453
1.3889888
1.3884339
1.3882179
1.3872526
1.3855197
1.384548
1.383907
1.3849109
1.3849109
1.3839069
1.384548
1.3855197
1.3872526
1.3882179
1.388434
1.3889888
1.3879454
1.3888991
1.4735697
1.4912851
1.4987955
1.5030854
1.502838
1.5001003
1.4956878
1.4942923
1.4936903
1.4963817
1.4963816
1.4936903
1.4942922
1.4956877
1.5001002
1.5028379
1.5030853
1.4987954
1.4912849
1.4735695
1.4832602
1.5382904
1.5613218
1.5721306
1.5799741
1.5737672
1.5683205
1.5663693
1.5634809
1.5668094
1.5668094
1.5634808
1.5663692
1.5683203
1.5737671
1.579974
1.5721305
1.5613216
1.5382902
1.4832602
1.2324207
1.3735323
1.4389365
1.4611965
1.4893176
1.4863348
1.4834848
1.4819734
1.4766311
1.4802329
1.4802329
1.4766311
1.4819734
1.4834848
1.4863348
1.4893177
1.4611966
1.4389366
1.3735326
1.2324215
0.7586797
0.89437529
0.96921625
0.99760171
1.0251466
1.0273787
1.0269636
1.0258835
1.0272745
1.031098
1.031098
1.0272745
1.0258835
1.0269636
1.0273787
1.0251466
0.99760172
0.9692163
0.89437553
0.75868044
0
0
0
0
0
0
0
0
0
0
0
0
0
0
0
0
0
0
0
0
0
0
0
0
0
0
0
0
0
0
0
0
0
0
0
0
0
0
0
0
0
0
0
0
0
0
0
0
0
0
0
0
0
0
0
0
0
0
0
0
0
0
0
0
0
0
0
0
0
0
0
0
0
0
0
0
0
0
0
0
0
0
0
0
0
0
0
0
0
0
0
0
0
0
0
0
0
0
0
0
0
0
0
0
0
0
0
0
0
0
0
0
0
0
0
0
0
0
0
0
0
0
0
0
0
0
0
0
0
0
0
0
0
0
0
0
0
0
0
0
0
0
0
0
0
0
0
0
0
0
0
0
0
0
0
0
0
0
0
0
0
0
0
0
0
0
0
0
0
0
0
0
0
0
0
0
0
0
0
0
0
0
0
0
0
0
0
0
0
0
0
0
0
0
0
0
0
0
0
0
0
0
0
0
0
0
0
0
0
0
0
0
0
0
0
0
0
0
0
0
0
0
0
0
0
0
0
0
0
0
0
0
0
0
0
0
0
0
0
0
0
0
0
0
0
0
0
0
0
0
0
0
0
0
0
0
0
0
0
0
0
0
0
0
0
0
0
0
0
0
0
0
0
0
0
0
0
0
0
0
0
0
0
0
0
0
0
0
0
0
0
0
0
0
0
0
0
0
0
0
0
0
0
0
0
0
0
0
0
0
0
0
0
0
0
0
0
0
0
0
0
0
0
0
0
0
0
0
0
0
0
0
0
0
0
0
0
0
0
0
0
0
0
0
0
0
0
0
0
0
0
0
0
0
0
0
0
0
0
0
0
0
0
0
0
0
0
0
0
0
0
0
0
0
0
0
0
0
0
0
0
0
0
0
0
0
0
0
0
0
0
0
0
0
0
0
0
0
0
0
0
0
0
0
0
0
0
0
0
0
0
0
0
0
0
0
0
0
0
0
)
;

boundaryField
{
    Wall
    {
        type            zeroGradient;
    }
    frontAndBack
    {
        type            empty;
    }
    atmosphere
    {
        type            zeroGradient;
    }
}


// ************************************************************************* //
