/*--------------------------------*- C++ -*----------------------------------*\
| =========                 |                                                 |
| \\      /  F ield         | OpenFOAM: The Open Source CFD Toolbox           |
|  \\    /   O peration     | Version:  3.0.1                                 |
|   \\  /    A nd           | Web:      www.OpenFOAM.org                      |
|    \\/     M anipulation  |                                                 |
\*---------------------------------------------------------------------------*/
FoamFile
{
    version     2.0;
    format      ascii;
    class       volScalarField;
    location    "27";
    object      M0;
}
// * * * * * * * * * * * * * * * * * * * * * * * * * * * * * * * * * * * * * //

dimensions      [0 0 0 0 0 0 0];

internalField   nonuniform List<scalar> 
800
(
7.2180797e+11
7.2174553e+11
7.2173658e+11
7.2173621e+11
7.2173661e+11
7.2173689e+11
7.2173698e+11
7.2173699e+11
7.2173698e+11
7.2173698e+11
7.2173698e+11
7.2173698e+11
7.21737e+11
7.2173698e+11
7.2173688e+11
7.2173661e+11
7.217362e+11
7.2173657e+11
7.2174552e+11
7.2180797e+11
7.3736622e+11
7.3651266e+11
7.3633814e+11
7.3631122e+11
7.3631687e+11
7.3632537e+11
7.363309e+11
7.3633357e+11
7.363346e+11
7.3633491e+11
7.3633491e+11
7.363346e+11
7.3633358e+11
7.3633091e+11
7.3632537e+11
7.3631688e+11
7.3631123e+11
7.3633816e+11
7.3651268e+11
7.3736626e+11
7.4550272e+11
7.4433699e+11
7.4401189e+11
7.4396126e+11
7.4396433e+11
7.4397347e+11
7.4397903e+11
7.4398107e+11
7.4398135e+11
7.4398118e+11
7.4398118e+11
7.4398135e+11
7.4398107e+11
7.4397903e+11
7.4397347e+11
7.4396434e+11
7.4396127e+11
7.4401191e+11
7.4433701e+11
7.4550277e+11
7.4544289e+11
7.442821e+11
7.4387701e+11
7.4381933e+11
7.4382163e+11
7.4382898e+11
7.4383192e+11
7.4383136e+11
7.438297e+11
7.438285e+11
7.438285e+11
7.438297e+11
7.4383136e+11
7.4383192e+11
7.4382898e+11
7.4382163e+11
7.4381933e+11
7.4387701e+11
7.4428211e+11
7.4544292e+11
7.3715958e+11
7.3631191e+11
7.3589626e+11
7.3582614e+11
7.3583046e+11
7.3583533e+11
7.3583437e+11
7.3583024e+11
7.35826e+11
7.3582348e+11
7.3582347e+11
7.3582599e+11
7.3583024e+11
7.3583436e+11
7.3583531e+11
7.3583045e+11
7.3582612e+11
7.3589624e+11
7.3631189e+11
7.3715957e+11
7.2152398e+11
7.2120686e+11
7.2083846e+11
7.207476e+11
7.2075612e+11
7.2075867e+11
7.2075358e+11
7.2074569e+11
7.2073879e+11
7.2073491e+11
7.207349e+11
7.2073878e+11
7.2074568e+11
7.2075356e+11
7.2075865e+11
7.2075609e+11
7.2074756e+11
7.2083842e+11
7.2120682e+11
7.2152394e+11
7.0007827e+11
7.0037189e+11
7.0012122e+11
7.0000902e+11
7.0002265e+11
7.0002345e+11
7.0001478e+11
7.0000369e+11
6.9999452e+11
6.9998951e+11
6.999895e+11
6.9999451e+11
7.0000367e+11
7.0001475e+11
7.0002341e+11
7.0002261e+11
7.0000897e+11
7.0012116e+11
7.0037183e+11
7.0007821e+11
6.7474049e+11
6.7559891e+11
6.7552914e+11
6.7540391e+11
6.754219e+11
6.7542159e+11
6.7541052e+11
6.7539734e+11
6.7538663e+11
6.7538085e+11
6.7538085e+11
6.7538661e+11
6.7539731e+11
6.7541048e+11
6.7542155e+11
6.7542185e+11
6.7540384e+11
6.7552907e+11
6.7559885e+11
6.7474042e+11
6.4753615e+11
6.4880377e+11
6.4896574e+11
6.4884318e+11
6.4883527e+11
6.4883461e+11
6.4882296e+11
6.4880918e+11
6.4879776e+11
6.4879163e+11
6.4879162e+11
6.4879774e+11
6.4880915e+11
6.4882293e+11
6.4883457e+11
6.4883521e+11
6.4884312e+11
6.4896567e+11
6.4880371e+11
6.4753609e+11
6.2039933e+11
6.2178838e+11
6.2222677e+11
6.2212823e+11
6.2205068e+11
6.220139e+11
6.2200424e+11
6.2199145e+11
6.2198004e+11
6.2197388e+11
6.2197387e+11
6.2198003e+11
6.2199143e+11
6.2200421e+11
6.2201386e+11
6.2205064e+11
6.2212818e+11
6.2222671e+11
6.2178833e+11
6.2039928e+11
5.9509732e+11
5.9624022e+11
5.9694271e+11
5.9689709e+11
5.9668261e+11
5.9655743e+11
5.9655236e+11
5.9654192e+11
5.9653088e+11
5.9652481e+11
5.965248e+11
5.9653087e+11
5.9654191e+11
5.9655234e+11
5.965574e+11
5.9668258e+11
5.9689705e+11
5.9694267e+11
5.9624018e+11
5.9509729e+11
5.7321972e+11
5.7378049e+11
5.7461107e+11
5.746664e+11
5.7423169e+11
5.7398959e+11
5.7399038e+11
5.7398288e+11
5.7397239e+11
5.739663e+11
5.7396629e+11
5.7397239e+11
5.7398287e+11
5.7399037e+11
5.7398957e+11
5.7423168e+11
5.7466638e+11
5.7461104e+11
5.7378047e+11
5.732197e+11
5.5629506e+11
5.5598451e+11
5.5672022e+11
5.5698007e+11
5.5627116e+11
5.5591973e+11
5.5592481e+11
5.5592055e+11
5.5583277e+11
5.558282e+11
5.558282e+11
5.5583277e+11
5.5592055e+11
5.5592481e+11
5.5591973e+11
5.5627116e+11
5.5698007e+11
5.5672021e+11
5.5598451e+11
5.5629507e+11
5.4622399e+11
5.4465669e+11
5.4513655e+11
5.4557553e+11
5.4459849e+11
5.4416601e+11
5.4416696e+11
5.4415954e+11
5.4393906e+11
5.4393694e+11
5.4393694e+11
5.4393906e+11
5.4415954e+11
5.4416697e+11
5.4416602e+11
5.4459851e+11
5.4557555e+11
5.4513656e+11
5.4465672e+11
5.4622404e+11
5.4100359e+11
5.3779248e+11
5.3789383e+11
5.3842167e+11
5.372578e+11
5.3679194e+11
5.3682378e+11
5.3681337e+11
5.3644048e+11
5.3624529e+11
5.3624529e+11
5.3644049e+11
5.3681338e+11
5.368238e+11
5.3679196e+11
5.3725783e+11
5.3842171e+11
5.3789387e+11
5.3779254e+11
5.4100368e+11
5.4656129e+11
5.4099374e+11
5.406676e+11
5.4108605e+11
5.3982978e+11
5.3940433e+11
5.3949783e+11
5.3946026e+11
5.3887799e+11
5.3836864e+11
5.3836864e+11
5.38878e+11
5.3946027e+11
5.3949785e+11
5.3940436e+11
5.3982982e+11
5.4108612e+11
5.4066766e+11
5.4099383e+11
5.4656141e+11
5.6795997e+11
5.5942681e+11
5.5872292e+11
5.5933722e+11
5.5764526e+11
5.5721676e+11
5.5719217e+11
5.5707787e+11
5.5629603e+11
5.5549139e+11
5.5549139e+11
5.5629603e+11
5.5707788e+11
5.571922e+11
5.572168e+11
5.5764532e+11
5.5933731e+11
5.58723e+11
5.5942692e+11
5.6796011e+11
6.1190104e+11
6.0053661e+11
6.0015446e+11
6.0200299e+11
5.9983112e+11
5.9913001e+11
5.9872916e+11
5.9843232e+11
5.969847e+11
5.9591235e+11
5.9591234e+11
5.9698469e+11
5.9843231e+11
5.9872918e+11
5.9913006e+11
5.9983119e+11
6.0200309e+11
6.0015456e+11
6.0053675e+11
6.1190122e+11
6.7671999e+11
6.6741308e+11
6.7082419e+11
6.7657442e+11
6.743344e+11
6.7348019e+11
6.7256608e+11
6.7192562e+11
6.6937079e+11
6.6804873e+11
6.6804871e+11
6.6937077e+11
6.7192559e+11
6.725661e+11
6.7348024e+11
6.7433448e+11
6.7657453e+11
6.708243e+11
6.6741326e+11
6.7672023e+11
7.4624384e+11
7.5640359e+11
7.7486221e+11
7.9081504e+11
7.9308236e+11
7.9306606e+11
7.9151909e+11
7.901123e+11
7.8635999e+11
7.8478989e+11
7.8478985e+11
7.8635993e+11
7.9011221e+11
7.9151906e+11
7.9306608e+11
7.9308241e+11
7.9081513e+11
7.7486231e+11
7.564038e+11
7.4624421e+11
7.5139793e+11
8.0258527e+11
8.5000189e+11
8.8586265e+11
9.0035114e+11
9.0427632e+11
9.0267013e+11
9.0004208e+11
8.9513016e+11
8.9310437e+11
8.931043e+11
8.9513004e+11
9.0004191e+11
9.0267003e+11
9.0427627e+11
9.0035113e+11
8.8586268e+11
8.5000197e+11
8.0258556e+11
7.5139861e+11
6.4392649e+11
7.7924684e+11
8.6930463e+11
9.3380021e+11
9.685259e+11
9.8141204e+11
9.8152706e+11
9.7749561e+11
9.7135725e+11
9.6844851e+11
9.6844839e+11
9.7135704e+11
9.7749534e+11
9.815269e+11
9.8141193e+11
9.6852582e+11
9.3380019e+11
8.6930473e+11
7.7924722e+11
6.4392771e+11
4.109415e+11
6.8293284e+11
8.2903719e+11
9.2544401e+11
9.8151543e+11
1.0051743e+12
1.0079636e+12
1.0022995e+12
9.9444953e+11
9.9012299e+11
9.9012282e+11
9.9444923e+11
1.0022991e+12
1.0079633e+12
1.0051741e+12
9.8151531e+11
9.2544395e+11
8.2903727e+11
6.8293327e+11
4.1094307e+11
1.7453299e+11
5.3179858e+11
7.3601554e+11
8.6452466e+11
9.3941846e+11
9.7216185e+11
9.7680473e+11
9.6888264e+11
9.5857339e+11
9.5235085e+11
9.5235061e+11
9.5857297e+11
9.6888213e+11
9.7680439e+11
9.7216161e+11
9.3941825e+11
8.6452454e+11
7.3601557e+11
5.3179903e+11
1.7453411e+11
5.1060695e+10
3.6495941e+11
6.06314e+11
7.6117602e+11
8.5070043e+11
8.8976038e+11
8.9508472e+11
8.8471381e+11
8.7176725e+11
8.6363208e+11
8.6363179e+11
8.7176671e+11
8.8471315e+11
8.9508423e+11
8.8976002e+11
8.5070013e+11
7.6117581e+11
6.0631396e+11
3.649598e+11
5.1061161e+10
1.164578e+10
2.2176111e+11
4.6324519e+11
6.3138196e+11
7.2956844e+11
7.7223311e+11
7.7779749e+11
7.6584443e+11
7.511491e+11
7.4175262e+11
7.4175228e+11
7.5114845e+11
7.6584362e+11
7.7779686e+11
7.7223262e+11
7.2956805e+11
6.3138167e+11
4.632451e+11
2.2176139e+11
1.1645915e+10
2.2877884e+09
1.2127393e+11
3.2948558e+11
4.9399676e+11
5.9341322e+11
6.3707373e+11
6.4308008e+11
6.3114226e+11
6.1630687e+11
6.0671832e+11
6.0671795e+11
6.1630615e+11
6.3114136e+11
6.4307935e+11
6.3707314e+11
5.9341277e+11
4.9399644e+11
3.2948549e+11
1.2127412e+11
2.2878197e+09
4.1041078e+08
6.0953624e+10
2.196521e+11
3.6576527e+11
4.5897833e+11
5.0108078e+11
5.0777682e+11
4.9738147e+11
4.8398108e+11
4.7522418e+11
4.7522382e+11
4.8398035e+11
4.9738055e+11
5.0777606e+11
5.0108017e+11
4.5897788e+11
3.6576499e+11
2.1965201e+11
6.0953737e+10
4.1041717e+08
69510757
2.8687762e+10
1.3835328e+11
2.5749661e+11
3.3881982e+11
3.7711443e+11
3.8440486e+11
3.7643531e+11
3.6546411e+11
3.581909e+11
3.5819057e+11
3.6546343e+11
3.7643445e+11
3.8440413e+11
3.7711386e+11
3.3881943e+11
2.5749641e+11
1.3835325e+11
2.8687827e+10
69511933
11332024
1.2818389e+10
8.2965446e+10
1.7324852e+11
2.3971511e+11
2.7262091e+11
2.8007524e+11
2.74674e+11
2.6642519e+11
2.6084909e+11
2.6084881e+11
2.664246e+11
2.7467323e+11
2.8007459e+11
2.7262042e+11
2.397148e+11
1.732484e+11
8.2965454e+10
1.2818427e+10
11332227
1798179.8
5.4881128e+09
4.7666276e+10
1.1194149e+11
1.6320718e+11
1.9000622e+11
1.9707913e+11
1.9387315e+11
1.8811605e+11
1.841213e+11
1.8412107e+11
1.8811556e+11
1.9387251e+11
1.970786e+11
1.9000583e+11
1.6320695e+11
1.1194142e+11
4.7666298e+10
5.4881334e+09
1798213.9
279489.55
2.2651022e+09
2.6367475e+10
6.9745273e+10
1.0731574e+11
1.2808882e+11
1.3433141e+11
1.3273202e+11
1.2897328e+11
1.2627359e+11
1.2627341e+11
1.2897289e+11
1.327315e+11
1.3433098e+11
1.2808852e+11
1.0731557e+11
6.974524e+10
2.6367497e+10
2.2651124e+09
279495.18
42697.437
9.0481808e+08
1.4095271e+10
4.2040395e+10
6.8353821e+10
8.3745833e+10
8.8907842e+10
8.8334856e+10
8.6028978e+10
8.429591e+10
8.4295775e+10
8.6028682e+10
8.8334465e+10
8.8907518e+10
8.3745609e+10
6.8353706e+10
4.2040381e+10
1.4095289e+10
9.0482289e+08
42698.363
6432.8854
3.5077516e+08
7.3017132e+09
2.457873e+10
4.2273679e+10
5.3218735e+10
5.7248758e+10
5.7242817e+10
5.5912455e+10
5.4850604e+10
5.4850506e+10
5.5912239e+10
5.7242531e+10
5.724852e+10
5.3218573e+10
4.22736e+10
2.4578726e+10
7.3017257e+09
3.5077731e+08
6433.0576
986.12133
1.3223284e+08
3.673113e+09
1.3965522e+10
2.5432927e+10
3.2927378e+10
3.5918187e+10
3.6167212e+10
3.5447948e+10
3.4825194e+10
3.4825126e+10
3.5447796e+10
3.6167009e+10
3.5918019e+10
3.2927266e+10
2.5432874e+10
1.3965522e+10
3.6731208e+09
1.3223376e+08
986.25526
258.71953
48543999
1.7972855e+09
7.7239879e+09
1.4906701e+10
1.9862194e+10
2.1983986e+10
2.2303233e+10
2.1942629e+10
2.1592601e+10
2.1592555e+10
2.1942526e+10
2.2303094e+10
2.1983871e+10
1.9862118e+10
1.4906667e+10
7.7239886e+09
1.7972901e+09
48544377
258.64144
258.84879
17377335
8.5655331e+08
4.1635567e+09
8.5219726e+09
1.1693537e+10
1.3139032e+10
1.3435352e+10
1.3271734e+10
1.3083277e+10
1.3083247e+10
1.3271666e+10
1.3435261e+10
1.3138955e+10
1.1693488e+10
8.521951e+09
4.1635577e+09
8.5655596e+08
17377489
259.02046
206.17902
6077994
3.9804871e+08
2.1897092e+09
4.7566118e+09
6.7251587e+09
7.6742506e+09
7.9117265e+09
7.8485407e+09
7.7515856e+09
7.7515666e+09
7.8484972e+09
7.9116678e+09
7.6742017e+09
6.7251273e+09
4.7565986e+09
2.18971e+09
3.9805016e+08
6078071.6
206.35677
86.23311
2081681.7
1.8055739e+08
1.1246094e+09
2.5942836e+09
3.7811984e+09
4.3835579e+09
4.557311e+09
4.5407117e+09
4.4933019e+09
4.4932903e+09
4.5406848e+09
4.5572746e+09
4.3835275e+09
3.7811792e+09
2.5942759e+09
1.12461e+09
1.8055818e+08
2081722.1
86.339774
26.410238
697403.49
80020870
5.6450084e+08
1.3836251e+09
2.0797894e+09
2.450219e+09
2.5692707e+09
2.5713745e+09
2.5495609e+09
2.5495539e+09
2.5713583e+09
2.5692487e+09
2.4502005e+09
2.079778e+09
1.3836207e+09
5.645012e+08
80021303
697422.78
26.46685
)
;

boundaryField
{
    Wall
    {
        type            zeroGradient;
    }
    frontAndBack
    {
        type            empty;
    }
    atmosphere
    {
        type            zeroGradient;
    }
}


// ************************************************************************* //
