/*--------------------------------*- C++ -*----------------------------------*\
| =========                 |                                                 |
| \\      /  F ield         | OpenFOAM: The Open Source CFD Toolbox           |
|  \\    /   O peration     | Version:  3.0.1                                 |
|   \\  /    A nd           | Web:      www.OpenFOAM.org                      |
|    \\/     M anipulation  |                                                 |
\*---------------------------------------------------------------------------*/
FoamFile
{
    version     2.0;
    format      ascii;
    class       volScalarField;
    location    "27";
    object      M1;
}
// * * * * * * * * * * * * * * * * * * * * * * * * * * * * * * * * * * * * * //

dimensions      [0 0 0 0 0 0 0];

internalField   nonuniform List<scalar> 
800
(
0.9278192
0.92782545
0.92782634
0.92782638
0.92782634
0.92782631
0.9278263
0.9278263
0.9278263
0.9278263
0.9278263
0.9278263
0.9278263
0.9278263
0.92782631
0.92782634
0.92782638
0.92782634
0.92782545
0.9278192
0.92626338
0.92634873
0.92636619
0.92636888
0.92636831
0.92636746
0.92636691
0.92636664
0.92636654
0.92636651
0.92636651
0.92636654
0.92636664
0.92636691
0.92636746
0.92636831
0.92636888
0.92636618
0.92634873
0.92626337
0.92466126
0.92479786
0.92483771
0.92484464
0.92484449
0.92484332
0.92484247
0.92484205
0.92484189
0.92484184
0.92484184
0.92484189
0.92484205
0.92484246
0.92484331
0.92484449
0.92484464
0.92483771
0.92479785
0.92466125
0.92320061
0.9233754
0.92343493
0.92344516
0.92344525
0.92344376
0.92344266
0.92344213
0.92344193
0.92344189
0.92344189
0.92344193
0.92344213
0.92344266
0.92344375
0.92344524
0.92344515
0.92343492
0.92337539
0.9232006
0.92200305
0.92220033
0.9222755
0.92228998
0.92228982
0.92228784
0.92228644
0.92228577
0.92228552
0.92228547
0.92228547
0.92228552
0.92228577
0.92228644
0.92228784
0.92228982
0.92228998
0.92227549
0.92220032
0.92200304
0.92110652
0.92131542
0.92140249
0.92142247
0.92142152
0.92141875
0.92141691
0.92141602
0.92141568
0.9214156
0.9214156
0.92141568
0.92141602
0.92141691
0.92141875
0.92142152
0.92142247
0.92140249
0.92131542
0.92110651
0.92047369
0.92069593
0.92078884
0.92081473
0.92081243
0.92080855
0.92080607
0.92080483
0.92080432
0.92080417
0.92080417
0.92080432
0.92080483
0.92080606
0.92080854
0.92081243
0.92081473
0.92078884
0.92069593
0.92047369
0.92000671
0.92025788
0.92035122
0.92038257
0.92037842
0.92037306
0.92036971
0.92036797
0.92036721
0.92036695
0.92036695
0.92036721
0.92036797
0.92036971
0.92037306
0.92037842
0.92038257
0.92035122
0.92025788
0.92000671
0.91956011
0.91987121
0.91996152
0.91999743
0.91999497
0.91998773
0.91998326
0.91998087
0.91997976
0.91997935
0.91997935
0.91997976
0.91998087
0.91998326
0.91998773
0.91999496
0.91999743
0.91996152
0.91987121
0.91956011
0.91894938
0.91937511
0.91946097
0.91950052
0.91950591
0.91950158
0.91949579
0.91949262
0.91949108
0.91949048
0.91949048
0.91949108
0.91949262
0.91949579
0.91950158
0.91950591
0.91950052
0.91946097
0.91937511
0.91894938
0.91794836
0.9185671
0.91865805
0.91870065
0.91872491
0.91873167
0.91872437
0.91872033
0.91871823
0.9187174
0.9187174
0.91871823
0.91872032
0.91872437
0.91873167
0.91872491
0.91870065
0.91865805
0.9185671
0.91794836
0.91627921
0.91718514
0.91731588
0.91736047
0.91742011
0.9174442
0.91743526
0.91743032
0.91742723
0.91742612
0.91742612
0.91742723
0.91743031
0.91743525
0.9174442
0.9174201
0.91736047
0.91731588
0.91718514
0.91627921
0.91357701
0.91488759
0.91512137
0.91516208
0.91527358
0.91531691
0.91530638
0.91530051
0.91530834
0.91530659
0.91530659
0.91530834
0.9153005
0.91530638
0.91531691
0.91527357
0.91516207
0.91512136
0.91488758
0.913577
0.90927747
0.91117476
0.91159287
0.91165269
0.91182883
0.91189064
0.91187941
0.9118733
0.91190276
0.91189943
0.91189943
0.91190276
0.91187329
0.9118794
0.91189063
0.91182882
0.91165269
0.91159286
0.91117475
0.90927745
0.90334307
0.90607453
0.90679432
0.90692612
0.90717466
0.90725157
0.90723217
0.90722462
0.90728228
0.90731121
0.90731121
0.90728227
0.90722462
0.90723216
0.90725156
0.90717465
0.90692611
0.9067943
0.90607451
0.90334304
0.89407794
0.89810371
0.89931833
0.89963914
0.89997909
0.90006391
0.90002882
0.90002126
0.90012082
0.90020849
0.90020849
0.90012081
0.90002125
0.9000288
0.90006389
0.89997908
0.89963912
0.89931831
0.89810368
0.89407791
0.87911585
0.88519423
0.8872603
0.88788497
0.88845801
0.88857641
0.88855688
0.88855258
0.88869358
0.88884364
0.88884364
0.88869358
0.88855257
0.88855687
0.88857639
0.88845799
0.88788494
0.88726028
0.8851942
0.87911582
0.85413551
0.86358378
0.8671485
0.86824162
0.86923749
0.86948878
0.86953605
0.86954285
0.86983124
0.87004389
0.87004389
0.86983124
0.86954284
0.86953604
0.86948877
0.86923747
0.86824159
0.86714847
0.86358376
0.8541355
0.81328873
0.82782276
0.83388741
0.83573195
0.83752564
0.83801087
0.83815884
0.83817772
0.83871466
0.83898259
0.83898259
0.83871466
0.83817771
0.83815883
0.83801086
0.83752562
0.83573192
0.83388739
0.82782275
0.81328877
0.74568267
0.76766413
0.77786192
0.78122202
0.78388561
0.78474605
0.78505837
0.78510867
0.78589749
0.78618647
0.78618647
0.78589749
0.78510867
0.78505838
0.78474605
0.78388561
0.78122201
0.77786193
0.76766417
0.74568285
0.64345166
0.68138891
0.70026065
0.70742772
0.711476
0.71283816
0.71326485
0.71325023
0.7141287
0.71436478
0.71436478
0.71412871
0.71325025
0.71326488
0.71283819
0.71147603
0.70742775
0.70026071
0.68138905
0.6434521
0.4845605
0.56682798
0.60194751
0.61630134
0.62258998
0.62436248
0.62442164
0.62388247
0.62434541
0.6243302
0.6243302
0.62434544
0.62388251
0.6244217
0.62436255
0.62259003
0.6163014
0.6019476
0.5668282
0.48456133
0.27621824
0.42942095
0.48985542
0.51516074
0.52507442
0.5271758
0.52618182
0.52436708
0.52370375
0.52310909
0.5231091
0.52370378
0.52436712
0.52618188
0.52717587
0.52507445
0.51516079
0.48985552
0.42942123
0.27621924
0.10611086
0.28900319
0.37321301
0.41075825
0.42549223
0.42843181
0.42636165
0.42299109
0.42083001
0.41945248
0.41945248
0.42083002
0.4229911
0.42636168
0.42843185
0.42549222
0.41075826
0.37321308
0.28900347
0.10611153
0.028327693
0.17131609
0.26450179
0.31089204
0.33015175
0.33446952
0.33196285
0.32750357
0.32410939
0.32206287
0.32206286
0.32410937
0.32750354
0.33196283
0.3344695
0.33015168
0.31089199
0.26450182
0.17131631
0.02832795
0.0059296016
0.090167949
0.17435081
0.22290654
0.2447683
0.25049965
0.24833576
0.24365655
0.23972821
0.23737601
0.23737599
0.23972817
0.24365647
0.24833568
0.25049957
0.24476821
0.22290645
0.1743508
0.090168089
0.0059296708
0.0010729753
0.042959637
0.1074492
0.15156376
0.17336875
0.17998958
0.17865154
0.17452773
0.17078598
0.16852761
0.16852758
0.17078591
0.17452764
0.17865144
0.17998948
0.17336864
0.15156366
0.10744919
0.042959719
0.0010729903
0.00017773177
0.018947472
0.062423262
0.098080828
0.11753629
0.12425855
0.12381972
0.12066151
0.11756832
0.11567367
0.11567363
0.11756824
0.12066141
0.12381961
0.12425845
0.1175362
0.098080756
0.062423249
0.018947514
0.0001777346
2.784525e-05
0.0078841488
0.034491091
0.060707587
0.076518303
0.08263578
0.08288635
0.08074089
0.07844914
0.077017476
0.077017447
0.078449072
0.080740797
0.082886257
0.082635695
0.076518232
0.060707543
0.034491091
0.0078841698
2.7845734e-05
4.205468e-06
0.0031369366
0.01826808
0.036126623
0.048018423
0.053103489
0.053739939
0.052434205
0.050879519
0.049883926
0.049883902
0.050879462
0.052434128
0.053739866
0.053103426
0.048018378
0.036126603
0.018268086
0.0031369472
4.2055455e-06
6.1909558e-07
0.0012038573
0.0093319985
0.020766309
0.029155309
0.033078042
0.033837494
0.033127031
0.032147185
0.031500059
0.031500041
0.032147141
0.033126972
0.03383744
0.033078
0.029155284
0.020766302
0.0093320064
0.0012038623
6.191076e-07
8.9394792e-08
0.00044803873
0.0046184503
0.011573936
0.017183095
0.020027119
0.020739863
0.020401991
0.019822732
0.019425173
0.019425159
0.0198227
0.020401947
0.020739825
0.020027092
0.017183082
0.011573936
0.0046184568
0.00044804101
8.939663e-08
1.2705122e-08
0.00016225461
0.0022213654
0.0062725787
0.0098558238
0.011812665
0.01239809
0.012268161
0.011945175
0.01171251
0.0117125
0.011945152
0.01226813
0.012398064
0.011812648
0.0098558177
0.006272581
0.0022213698
0.00016225559
1.27054e-08
1.7812565e-09
5.7300614e-05
0.0010406207
0.0033126828
0.0055126994
0.006799915
0.0072393453
0.0072117077
0.0070415504
0.006911145
0.0069111385
0.007041535
0.0072116875
0.0072393284
0.0067999045
0.0055126966
0.0033126853
0.0010406235
5.7301018e-05
1.7812999e-09
2.4890712e-10
1.9761843e-05
0.00047553628
0.0017074979
0.0030114207
0.0038254099
0.0041337275
0.0041481682
0.0040636771
0.0039934426
0.0039934383
0.0040636671
0.004148155
0.0041337168
0.0038254035
0.0030114194
0.0017074999
0.00047553787
1.9762003e-05
2.4892262e-10
4.5028812e-11
6.6625525e-06
0.00021222029
0.00085998637
0.0016084506
0.0021053411
0.0023102994
0.0023364082
0.002297197
0.002260786
0.0022607833
0.0022971907
0.0023363999
0.0023102927
0.0021053374
0.0016084502
0.00085998776
0.00021222115
6.6626135e-06
4.5014467e-11
2.9084736e-11
2.1976488e-06
9.2573099e-05
0.00042360657
0.00084072188
0.0011344517
0.0012646809
0.001289335
0.0012726539
0.0012544812
0.0012544796
0.0012726501
0.0012893299
0.0012646769
0.0011344496
0.00084072174
0.00042360745
9.2573544e-05
2.1976716e-06
2.9101561e-11
2.1446597e-11
7.1017568e-07
3.9499376e-05
0.00020421466
0.00043033589
0.00059889106
0.00067846257
0.00069745553
0.00069124442
0.00068252512
0.00068252414
0.00069124215
0.00069745254
0.00067846026
0.00059888989
0.00043033589
0.00020421519
3.9499598e-05
7.1018551e-07
2.1464902e-11
8.4174649e-12
2.2519876e-07
1.64966e-05
9.6411191e-05
0.00021583681
0.0003099141
0.00035687202
0.00036998545
0.00036823315
0.00036422533
0.00036422477
0.00036823186
0.00036998374
0.00035687071
0.00030991347
0.00021583685
9.6411492e-05
1.649671e-05
2.2520318e-07
8.4277353e-12
2.4163069e-12
7.0009284e-08
6.7479686e-06
4.459859e-05
0.00010612703
0.00015727897
0.0001841312
0.00019254795
0.00019245851
0.00019070525
0.00019070493
0.00019245778
0.000192547
0.00018413048
0.00015727864
0.00010612706
4.4598755e-05
6.7480222e-06
7.0011153e-08
2.4214105e-12
)
;

boundaryField
{
    Wall
    {
        type            zeroGradient;
    }
    frontAndBack
    {
        type            empty;
    }
    atmosphere
    {
        type            zeroGradient;
    }
}


// ************************************************************************* //
