/*--------------------------------*- C++ -*----------------------------------*\
| =========                 |                                                 |
| \\      /  F ield         | OpenFOAM: The Open Source CFD Toolbox           |
|  \\    /   O peration     | Version:  3.0.1                                 |
|   \\  /    A nd           | Web:      www.OpenFOAM.org                      |
|    \\/     M anipulation  |                                                 |
\*---------------------------------------------------------------------------*/
FoamFile
{
    version     2.0;
    format      ascii;
    class       volScalarField;
    location    "27";
    object      M2;
}
// * * * * * * * * * * * * * * * * * * * * * * * * * * * * * * * * * * * * * //

dimensions      [0 0 0 0 0 0 0];

internalField   nonuniform List<scalar> 
800
(
1.1913917e-12
1.1915108e-12
1.1915278e-12
1.1915285e-12
1.1915278e-12
1.1915272e-12
1.191527e-12
1.191527e-12
1.191527e-12
1.191527e-12
1.1915271e-12
1.191527e-12
1.191527e-12
1.1915271e-12
1.1915272e-12
1.1915278e-12
1.1915285e-12
1.1915278e-12
1.1915108e-12
1.1913918e-12
1.1626978e-12
1.1642311e-12
1.1645467e-12
1.1645953e-12
1.1645849e-12
1.1645692e-12
1.1645589e-12
1.1645538e-12
1.1645518e-12
1.1645512e-12
1.1645512e-12
1.1645518e-12
1.1645538e-12
1.1645589e-12
1.1645692e-12
1.1645848e-12
1.1645953e-12
1.1645466e-12
1.1642311e-12
1.1626977e-12
1.1461465e-12
1.1482489e-12
1.1488399e-12
1.1489338e-12
1.1489282e-12
1.1489108e-12
1.1488997e-12
1.1488952e-12
1.1488942e-12
1.1488943e-12
1.1488943e-12
1.1488942e-12
1.1488952e-12
1.1488997e-12
1.1489107e-12
1.1489282e-12
1.1489338e-12
1.1488398e-12
1.1482488e-12
1.1461464e-12
1.1426997e-12
1.1448803e-12
1.1456387e-12
1.1457508e-12
1.1457467e-12
1.1457311e-12
1.1457235e-12
1.1457227e-12
1.1457246e-12
1.1457262e-12
1.1457262e-12
1.1457246e-12
1.1457227e-12
1.1457235e-12
1.1457311e-12
1.1457467e-12
1.1457508e-12
1.1456386e-12
1.1448803e-12
1.1426996e-12
1.1528207e-12
1.1545876e-12
1.1554118e-12
1.1555557e-12
1.1555473e-12
1.1555341e-12
1.1555317e-12
1.1555362e-12
1.1555421e-12
1.1555458e-12
1.1555458e-12
1.1555421e-12
1.1555362e-12
1.1555317e-12
1.1555341e-12
1.1555473e-12
1.1555557e-12
1.1554118e-12
1.1545877e-12
1.1528207e-12
1.1762499e-12
1.1771966e-12
1.1779977e-12
1.1781956e-12
1.1781771e-12
1.1781649e-12
1.1781681e-12
1.1781784e-12
1.1781887e-12
1.1781947e-12
1.1781947e-12
1.1781887e-12
1.1781785e-12
1.1781681e-12
1.178165e-12
1.1781772e-12
1.1781957e-12
1.1779978e-12
1.1771967e-12
1.1762499e-12
1.2119702e-12
1.2118797e-12
1.2125248e-12
1.2127876e-12
1.2127543e-12
1.2127409e-12
1.2127486e-12
1.212764e-12
1.2127783e-12
1.2127864e-12
1.2127864e-12
1.2127783e-12
1.2127641e-12
1.2127486e-12
1.212741e-12
1.2127544e-12
1.2127877e-12
1.2125249e-12
1.2118798e-12
1.2119703e-12
1.2583254e-12
1.2571624e-12
1.257498e-12
1.2578193e-12
1.2577679e-12
1.25775e-12
1.2577592e-12
1.2577775e-12
1.2577945e-12
1.2578041e-12
1.2578041e-12
1.2577945e-12
1.2577775e-12
1.2577592e-12
1.25775e-12
1.257768e-12
1.2578194e-12
1.2574981e-12
1.2571625e-12
1.2583255e-12
1.3130914e-12
1.3110661e-12
1.3109259e-12
1.3112828e-12
1.3112911e-12
1.3112632e-12
1.3112681e-12
1.3112852e-12
1.3113028e-12
1.3113128e-12
1.3113128e-12
1.3113028e-12
1.3112853e-12
1.3112682e-12
1.3112633e-12
1.3112912e-12
1.3112829e-12
1.310926e-12
1.3110663e-12
1.3130915e-12
1.3734297e-12
1.3711957e-12
1.370395e-12
1.3707536e-12
1.3709539e-12
1.3710164e-12
1.3710065e-12
1.3710161e-12
1.3710312e-12
1.3710401e-12
1.3710401e-12
1.3710312e-12
1.3710161e-12
1.3710066e-12
1.3710165e-12
1.370954e-12
1.3707537e-12
1.3703951e-12
1.3711958e-12
1.3734298e-12
1.4358553e-12
1.4344924e-12
1.4330168e-12
1.4333337e-12
1.4339586e-12
1.4342747e-12
1.4342342e-12
1.4342269e-12
1.4342356e-12
1.4342413e-12
1.4342413e-12
1.4342356e-12
1.4342269e-12
1.4342342e-12
1.4342748e-12
1.4339587e-12
1.4333338e-12
1.4330169e-12
1.4344925e-12
1.4358554e-12
1.4962596e-12
1.4970169e-12
1.4953315e-12
1.4955331e-12
1.4968946e-12
1.4975702e-12
1.497479e-12
1.4974421e-12
1.4974378e-12
1.4974375e-12
1.4974375e-12
1.4974378e-12
1.4974422e-12
1.497479e-12
1.4975703e-12
1.4968946e-12
1.4955332e-12
1.4953316e-12
1.497017e-12
1.4962598e-12
1.5497193e-12
1.5539669e-12
1.5530597e-12
1.5529282e-12
1.5552621e-12
1.5562903e-12
1.5561263e-12
1.556038e-12
1.5562682e-12
1.5562502e-12
1.5562502e-12
1.5562682e-12
1.556038e-12
1.5561263e-12
1.5562904e-12
1.5552622e-12
1.5529282e-12
1.5530598e-12
1.553967e-12
1.5497194e-12
1.5893141e-12
1.5990377e-12
1.600037e-12
1.5998818e-12
1.6032475e-12
1.6045403e-12
1.6042893e-12
1.6041353e-12
1.6047329e-12
1.6046839e-12
1.6046839e-12
1.6047329e-12
1.6041353e-12
1.6042893e-12
1.6045403e-12
1.6032475e-12
1.5998819e-12
1.6000371e-12
1.5990378e-12
1.5893141e-12
1.5906605e-12
1.6084939e-12
1.611964e-12
1.6119692e-12
1.6162324e-12
1.6177102e-12
1.6173264e-12
1.6171523e-12
1.6182301e-12
1.618755e-12
1.618755e-12
1.6182301e-12
1.6171523e-12
1.6173263e-12
1.6177102e-12
1.6162324e-12
1.6119691e-12
1.611964e-12
1.6084938e-12
1.5906604e-12
1.5538386e-12
1.5819827e-12
1.5884759e-12
1.5895419e-12
1.5944335e-12
1.5958588e-12
1.5951869e-12
1.5950551e-12
1.5967267e-12
1.5981541e-12
1.5981541e-12
1.5967267e-12
1.595055e-12
1.5951869e-12
1.5958587e-12
1.5944334e-12
1.5895418e-12
1.5884757e-12
1.5819825e-12
1.5538383e-12
1.4692157e-12
1.5089425e-12
1.5191524e-12
1.5212105e-12
1.527705e-12
1.5290538e-12
1.5285216e-12
1.5285162e-12
1.5305891e-12
1.532723e-12
1.532723e-12
1.530589e-12
1.5285161e-12
1.5285215e-12
1.5290537e-12
1.5277049e-12
1.5212103e-12
1.5191522e-12
1.5089423e-12
1.4692154e-12
1.3297829e-12
1.380146e-12
1.3943427e-12
1.3967543e-12
1.4051202e-12
1.4070508e-12
1.4071489e-12
1.4073689e-12
1.4102708e-12
1.4127603e-12
1.4127603e-12
1.4102708e-12
1.4073688e-12
1.4071488e-12
1.4070507e-12
1.4051201e-12
1.396754e-12
1.3943425e-12
1.3801457e-12
1.3297827e-12
1.1499892e-12
1.2052184e-12
1.221705e-12
1.2236854e-12
1.2333184e-12
1.2359106e-12
1.2366112e-12
1.2370238e-12
1.24098e-12
1.2434396e-12
1.2434396e-12
1.2409799e-12
1.2370238e-12
1.2366111e-12
1.2359105e-12
1.2333183e-12
1.2236852e-12
1.2217048e-12
1.2052181e-12
1.149989e-12
9.3936521e-13
9.9157634e-13
1.0082932e-12
1.0101917e-12
1.0191843e-12
1.0222907e-12
1.0235034e-12
1.0241216e-12
1.0283607e-12
1.0304038e-12
1.0304038e-12
1.0283607e-12
1.0241216e-12
1.0235034e-12
1.0222906e-12
1.0191842e-12
1.0101916e-12
1.0082931e-12
9.9157626e-13
9.3936532e-13
7.3079939e-13
7.8504217e-13
8.0428146e-13
8.0691279e-13
8.1411897e-13
8.174135e-13
8.1910498e-13
8.1995574e-13
8.2409761e-13
8.2571251e-13
8.2571253e-13
8.2409765e-13
8.199558e-13
8.1910504e-13
8.1741355e-13
8.14119e-13
8.0691281e-13
8.0428151e-13
7.8504227e-13
7.3079982e-13
5.0218944e-13
5.8818956e-13
6.1653728e-13
6.2210573e-13
6.2677689e-13
6.2903518e-13
6.3023804e-13
6.307626e-13
6.3400425e-13
6.3509556e-13
6.3509559e-13
6.3400431e-13
6.307627e-13
6.3023816e-13
6.2903529e-13
6.2677697e-13
6.2210582e-13
6.165374e-13
5.8818976e-13
5.0219026e-13
2.6340883e-13
4.0323314e-13
4.5023025e-13
4.6331144e-13
4.6771965e-13
4.6845177e-13
4.6807545e-13
4.6736176e-13
4.6892593e-13
4.6927265e-13
4.6927267e-13
4.6892599e-13
4.6736186e-13
4.6807557e-13
4.6845189e-13
4.6771972e-13
4.6331153e-13
4.5023038e-13
4.0323342e-13
2.6340978e-13
9.3760927e-14
2.454709e-13
3.0855247e-13
3.3073117e-13
3.3745143e-13
3.3773974e-13
3.3596169e-13
3.3385883e-13
3.3363598e-13
3.331922e-13
3.3319222e-13
3.3363603e-13
3.3385889e-13
3.3596178e-13
3.3773982e-13
3.3745146e-13
3.3073123e-13
3.0855257e-13
2.4547117e-13
9.3761516e-14
2.3313219e-14
1.3142749e-13
1.9681971e-13
2.2480864e-13
2.3435673e-13
2.3530453e-13
2.330493e-13
2.3016822e-13
2.2870787e-13
2.277064e-13
2.2770641e-13
2.2870789e-13
2.3016824e-13
2.3304932e-13
2.3530455e-13
2.343567e-13
2.2480862e-13
1.9681976e-13
1.3142768e-13
2.3313432e-14
4.5608668e-15
6.2483205e-14
1.1684701e-13
1.4512566e-13
1.5621045e-13
1.5814993e-13
1.562398e-13
1.5336678e-13
1.5143134e-13
1.5022839e-13
1.5022839e-13
1.5143134e-13
1.5336676e-13
1.5623978e-13
1.581499e-13
1.562104e-13
1.4512561e-13
1.1684702e-13
6.2483317e-14
4.5609209e-15
7.7307274e-16
2.6944503e-14
6.4961325e-14
8.9088283e-14
9.9886994e-14
1.0250223e-13
1.0129826e-13
9.8956318e-14
9.7132373e-14
9.6019696e-14
9.6019689e-14
9.7132356e-14
9.8956285e-14
1.0129822e-13
1.0250217e-13
9.9886931e-14
8.9088226e-14
6.4961323e-14
2.6944561e-14
7.7308376e-16
1.2013888e-16
1.0792472e-14
3.4139513e-14
5.2216638e-14
6.1383582e-14
6.4140516e-14
6.3611171e-14
6.1967336e-14
6.0539388e-14
5.9664223e-14
5.9664214e-14
6.0539365e-14
6.1967298e-14
6.3611126e-14
6.4140464e-14
6.1383526e-14
5.2216594e-14
3.4139506e-14
1.0792498e-14
1.2014086e-16
1.7680668e-17
4.0949601e-15
1.7126815e-14
2.9380888e-14
3.6371024e-14
3.8840197e-14
3.8772955e-14
3.7751929e-14
3.676615e-14
3.61524e-14
3.6152392e-14
3.6766128e-14
3.7751896e-14
3.8772916e-14
3.8840156e-14
3.6370984e-14
2.9380861e-14
1.7126813e-14
4.0949717e-15
1.7680987e-17
2.5112361e-18
1.4921134e-15
8.2710797e-15
1.5957973e-14
2.085826e-14
2.2826196e-14
2.2995938e-14
2.2427661e-14
2.1808459e-14
2.1413702e-14
2.1413695e-14
2.1808441e-14
2.2427635e-14
2.2995909e-14
2.2826168e-14
2.0858236e-14
1.5957959e-14
8.2710814e-15
1.4921185e-15
2.511284e-18
3.4805963e-19
5.2667988e-16
3.869724e-15
8.4066555e-15
1.1620204e-14
1.3056954e-14
1.3302228e-14
1.3019239e-14
1.2658677e-14
1.2421476e-14
1.2421471e-14
1.2658664e-14
1.301922e-14
1.3302208e-14
1.3056936e-14
1.162019e-14
8.4066499e-15
3.8697263e-15
5.2668211e-16
3.4806663e-19
4.7374436e-20
1.8104e-16
1.7618254e-15
4.3115176e-15
6.308364e-15
7.2879875e-15
7.5202866e-15
7.3971876e-15
7.2003486e-15
7.0655229e-15
7.0655194e-15
7.2003394e-15
7.3971747e-15
7.5202738e-15
7.2879768e-15
6.3083572e-15
4.3115159e-15
1.7618274e-15
1.8104091e-16
4.7375441e-20
6.3544062e-21
6.0794058e-17
7.8288082e-16
2.1586905e-15
3.3453826e-15
3.9775693e-15
4.1618776e-15
4.118895e-15
4.0175444e-15
3.9444376e-15
3.9444353e-15
4.0175384e-15
4.1188867e-15
4.1618696e-15
3.9775631e-15
3.3453794e-15
2.1586902e-15
7.828821e-16
6.0794417e-17
6.3545487e-21
8.4161536e-22
1.9982019e-17
3.4018286e-16
1.0571542e-15
1.7361339e-15
2.1259103e-15
2.2574864e-15
2.2497488e-15
2.2004625e-15
2.1624375e-15
2.162436e-15
2.2004586e-15
2.2497436e-15
2.2574816e-15
2.1259068e-15
1.7361324e-15
1.0571545e-15
3.4018363e-16
1.9982155e-17
8.416358e-22
1.1062805e-22
6.4361205e-18
1.4472928e-16
5.0704484e-16
8.8285185e-16
1.1139879e-15
1.2012518e-15
1.2061948e-15
1.1836425e-15
1.1646083e-15
1.1646073e-15
1.1836402e-15
1.2061916e-15
1.201249e-15
1.113986e-15
8.828512e-16
5.0704515e-16
1.447297e-16
6.4361708e-18
1.1063277e-22
1.6891089e-23
2.0330406e-18
6.0338201e-17
2.3840128e-16
4.4030565e-16
5.7276639e-16
6.2747959e-16
6.350961e-16
6.2549549e-16
6.163124e-16
6.1631184e-16
6.254941e-16
6.3509424e-16
6.2747796e-16
5.7276535e-16
4.4030538e-16
2.3840153e-16
6.0338417e-17
2.0330586e-18
1.6886413e-23
7.8512169e-24
6.3016081e-19
2.4664913e-17
1.099525e-16
2.1550872e-16
2.8912916e-16
3.2190648e-16
3.2851425e-16
3.2481119e-16
3.2054226e-16
3.2054194e-16
3.2481039e-16
3.2851319e-16
3.2190557e-16
2.8912861e-16
2.1550862e-16
1.0995267e-16
2.4665019e-17
6.3016711e-19
7.8552369e-24
5.3456861e-24
1.9185358e-19
9.8904359e-18
4.9767532e-17
1.0356894e-16
1.4335577e-16
1.6224943e-16
1.6698716e-16
1.6577831e-16
1.6387023e-16
1.6387005e-16
1.6577787e-16
1.6698658e-16
1.6224895e-16
1.4335549e-16
1.0356891e-16
4.976763e-17
9.8904863e-18
1.9185608e-19
5.3502021e-24
1.9951164e-24
5.7447848e-20
3.8920806e-18
2.2115592e-17
4.888929e-17
6.9839179e-17
8.036912e-17
8.3431407e-17
8.3175175e-17
8.2358925e-17
8.2358828e-17
8.3174938e-17
8.3431093e-17
8.0368863e-17
6.983904e-17
4.8889287e-17
2.2115647e-17
3.8921043e-18
5.7448894e-20
1.9975224e-24
5.4573093e-25
1.6903097e-20
1.5036877e-18
9.6518346e-18
2.2675495e-17
3.3440447e-17
3.9134561e-17
4.0981617e-17
4.1030597e-17
4.0699264e-17
4.0699213e-17
4.1030472e-17
4.0981453e-17
3.913443e-17
3.3440381e-17
2.2675499e-17
9.651864e-18
1.5036987e-18
1.6903513e-20
5.4686919e-25
)
;

boundaryField
{
    Wall
    {
        type            zeroGradient;
    }
    frontAndBack
    {
        type            empty;
    }
    atmosphere
    {
        type            zeroGradient;
    }
}


// ************************************************************************* //
