/*--------------------------------*- C++ -*----------------------------------*\
| =========                 |                                                 |
| \\      /  F ield         | OpenFOAM: The Open Source CFD Toolbox           |
|  \\    /   O peration     | Version:  3.0.1                                 |
|   \\  /    A nd           | Web:      www.OpenFOAM.org                      |
|    \\/     M anipulation  |                                                 |
\*---------------------------------------------------------------------------*/
FoamFile
{
    version     2.0;
    format      ascii;
    class       volScalarField;
    location    "27";
    object      mOne;
}
// * * * * * * * * * * * * * * * * * * * * * * * * * * * * * * * * * * * * * //

dimensions      [0 0 0 0 0 0 0];

internalField   nonuniform List<scalar> 
800
(
12.8541
12.855299
12.855471
12.855478
12.85547
12.855465
12.855463
12.855463
12.855463
12.855463
12.855463
12.855463
12.855463
12.855463
12.855465
12.85547
12.855478
12.855471
12.855299
12.8541
12.561782
12.577499
12.580717
12.581214
12.581109
12.580953
12.580851
12.580801
12.580782
12.580777
12.580777
12.580782
12.580801
12.580851
12.580953
12.581109
12.581213
12.580717
12.577499
12.561781
12.273384
12.297493
12.304544
12.305772
12.305745
12.305536
12.305386
12.305312
12.305284
12.305276
12.305276
12.305283
12.305311
12.305386
12.305536
12.305745
12.305771
12.304543
12.297493
12.273383
12.020936
12.050639
12.060786
12.062531
12.062546
12.062292
12.062105
12.062014
12.061981
12.061973
12.061973
12.061981
12.062014
12.062105
12.062291
12.062545
12.06253
12.060785
12.050638
12.020935
11.821015
11.853525
11.865955
11.868354
11.868328
11.867999
11.867767
11.867656
11.867616
11.867606
11.867606
11.867615
11.867656
11.867767
11.867998
11.868327
11.868353
11.865955
11.853524
11.821013
11.675318
11.70897
11.72305
11.726285
11.72613
11.725682
11.725384
11.72524
11.725185
11.725171
11.725171
11.725185
11.72524
11.725384
11.725682
11.72613
11.726284
11.723049
11.70897
11.675317
11.574455
11.609693
11.624484
11.628611
11.628244
11.627625
11.62723
11.627032
11.626952
11.626928
11.626928
11.626952
11.627032
11.62723
11.627625
11.628244
11.628611
11.624483
11.609693
11.574455
11.501049
11.540424
11.55512
11.560063
11.559409
11.558564
11.558036
11.557761
11.557641
11.5576
11.5576
11.557641
11.557761
11.558035
11.558564
11.559409
11.560063
11.555119
11.540424
11.501048
11.431644
11.479909
11.493991
11.499598
11.499213
11.498083
11.497385
11.497011
11.496838
11.496774
11.496774
11.496838
11.497011
11.497385
11.498083
11.499213
11.499598
11.493991
11.479909
11.431644
11.337969
11.403118
11.416341
11.42244
11.423273
11.422605
11.421711
11.421222
11.420984
11.420891
11.420891
11.420984
11.421222
11.421711
11.422605
11.423273
11.42244
11.416341
11.403118
11.337969
11.187447
11.280049
11.29378
11.300221
11.303893
11.304917
11.303811
11.303199
11.302882
11.302755
11.302755
11.302882
11.303199
11.303811
11.304916
11.303893
11.300221
11.29378
11.280049
11.187447
10.944464
11.075128
11.094221
11.100746
11.109485
11.11302
11.111707
11.110983
11.11053
11.110367
11.110367
11.11053
11.110982
11.111707
11.113019
11.109485
11.100746
11.094221
11.075128
10.944464
10.570996
10.749168
10.781528
10.787182
10.802693
10.808733
10.807265
10.806446
10.807538
10.807295
10.807294
10.807538
10.806446
10.807264
10.808732
10.802693
10.787181
10.781527
10.749167
10.570994
10.022621
10.258062
10.311304
10.318964
10.341576
10.349532
10.348086
10.347298
10.351094
10.350665
10.350665
10.351093
10.347297
10.348085
10.349531
10.341574
10.318963
10.311303
10.25806
10.022618
9.3458695
9.646739
9.7289596
9.7441532
9.7729209
9.7818541
9.7795987
9.7787221
9.7854246
9.7887912
9.788791
9.785424
9.7787211
9.7795976
9.7818529
9.7729195
9.7441517
9.7289578
9.646737
9.3458668
8.4409037
8.8138998
8.9322949
8.9640438
8.9979096
9.0063948
9.0028824
9.0021266
9.0120962
9.0208928
9.0208926
9.0120956
9.0021256
9.0028812
9.0063935
8.997908
8.964042
8.9322929
8.8138975
8.4409012
7.2723829
7.7103634
7.8699901
7.9194104
7.9652334
7.9747599
7.9731875
7.9728413
7.984208
7.9963366
7.9963365
7.9842076
7.9728404
7.9731864
7.9747587
7.9652319
7.9194087
7.8699881
7.7103613
7.2723813
5.855678
6.3305066
6.5272015
6.5896498
6.647452
6.6621767
6.6649527
6.6653524
6.6823349
6.6949057
6.6949056
6.6823346
6.6653517
6.6649519
6.6621757
6.6474508
6.5896484
6.5272
6.3305053
5.8556778
4.3558631
4.8079685
5.0200134
5.087611
5.1548175
5.1732538
5.1788978
5.1796186
5.2001917
5.2105086
5.2105085
5.2001915
5.1796183
5.1788974
5.1732532
5.1548167
5.0876101
5.0200125
4.8079681
4.3558643
2.9320954
3.3041137
3.5017046
3.5708439
3.6271792
3.6456755
3.652426
3.6535148
3.6706598
3.6769725
3.6769725
3.6706598
3.6535148
3.6524261
3.6456756
3.6271791
3.5708437
3.5017047
3.3041145
2.9320982
1.8046688
2.1386227
2.3362319
2.4179588
2.4659161
2.4823568
2.4875389
2.4873611
2.4980776
2.5009688
2.5009689
2.4980778
2.4873614
2.4875393
2.4823573
2.4659165
2.4179592
2.3362326
2.1386241
1.8046723
0.94009191
1.3085517
1.5122315
1.6062119
1.6496382
1.6621409
1.6625602
1.6587434
1.6620199
1.6619121
1.6619122
1.6620201
1.6587437
1.6625606
1.6621414
1.6496385
1.6062123
1.5122321
1.3085529
0.94009502
0.38163194
0.75260552
0.96022859
1.0625393
1.105593
1.1149509
1.1105142
1.1024617
1.0995336
1.0969156
1.0969157
1.0995338
1.1024619
1.1105145
1.1149513
1.1055932
1.0625395
0.96022899
0.75260638
0.38163385
0.11870696
0.40647608
0.59543834
0.69709631
0.74062049
0.74957253
0.74325862
0.73307548
0.72660879
0.72251188
0.72251188
0.72660882
0.73307553
0.74325873
0.74957264
0.74062045
0.69709635
0.59543853
0.40647663
0.1187078
0.029153546
0.20673274
0.35962262
0.45115143
0.49287543
0.50256079
0.49692273
0.48699675
0.47952936
0.47506303
0.475063
0.47952932
0.48699668
0.49692269
0.50256074
0.49287529
0.45115133
0.35962268
0.20673305
0.029153818
0.0059649715
0.099103949
0.21116814
0.28684649
0.32409696
0.33422219
0.33038123
0.32215067
0.3153191
0.31126219
0.31126215
0.31531901
0.32215054
0.3303811
0.33422205
0.3240968
0.28684635
0.21116814
0.099104117
0.0059650415
0.0010741279
0.04488801
0.12038441
0.17863895
0.20972925
0.2194967
0.21751004
0.21142774
0.20596127
0.20268575
0.20268571
0.20596118
0.21142759
0.21750989
0.21949655
0.20972909
0.17863882
0.1203844
0.044888099
0.0010741428
0.00017776336
0.019313413
0.066579363
0.10874681
0.13319108
0.14188954
0.14131763
0.13721851
0.1332322
0.13080428
0.13080424
0.13323211
0.13721837
0.14131749
0.1418894
0.13319095
0.10874672
0.066579349
0.019313456
0.0001777662
2.7846025e-05
0.0079468026
0.035723224
0.06463119
0.082858494
0.090079576
0.090377403
0.08783257
0.085127304
0.083444132
0.083444098
0.085127224
0.087832459
0.090377292
0.090079475
0.082858411
0.064631141
0.035723224
0.0079468239
2.784651e-05
4.2054857e-06
0.003146808
0.018608012
0.037480673
0.050440496
0.056081618
0.056791935
0.055335688
0.053607018
0.052502981
0.052502955
0.053606955
0.055335602
0.056791852
0.056081549
0.050440446
0.037480651
0.018608019
0.0031468186
4.2055632e-06
6.1909596e-07
0.0012053083
0.009419905
0.021206694
0.030030869
0.03420963
0.03502257
0.034262031
0.033214953
0.032524585
0.032524566
0.033214905
0.034261967
0.035022512
0.034209585
0.030030842
0.021206687
0.0094199131
0.0012053134
6.1910799e-07
8.93948e-08
0.00044823956
0.0046398794
0.01170946
0.017483516
0.020436401
0.021179115
0.020826901
0.02022362
0.019809985
0.019809971
0.020223586
0.020826856
0.021179075
0.020436373
0.017483502
0.01170946
0.0046398859
0.00044824184
8.9396638e-08
1.2705122e-08
0.00016228094
0.0022263108
0.0063121723
0.009953928
0.011953872
0.012553732
0.012420538
0.012089587
0.011851319
0.011851309
0.012089564
0.012420507
0.012553706
0.011953854
0.0099539217
0.0063121747
0.0022263153
0.00016228192
1.27054e-08
1.7812565e-09
5.7303898e-05
0.0010417047
0.0033236931
0.0055432577
0.0068464704
0.0072921356
0.0072640943
0.0070914854
0.0069592414
0.0069592347
0.0070914698
0.0072640737
0.0072921185
0.0068464598
0.0055432549
0.0033236957
0.0010417075
5.7304301e-05
1.7812999e-09
2.4890712e-10
1.9762234e-05
0.00047576252
0.0017104185
0.0030205167
0.0038400998
0.0041508861
0.0041654471
0.004080258
0.0040094541
0.0040094498
0.0040802478
0.0041654338
0.0041508753
0.0038400934
0.0030205155
0.0017104205
0.00047576411
1.9762393e-05
2.4892262e-10
4.5028812e-11
6.6625969e-06
0.00021226534
0.00086072659
0.0016110419
0.0021097829
0.0023156492
0.0023418798
0.0023024863
0.0022659087
0.002265906
0.0023024799
0.0023418715
0.0023156426
0.0021097792
0.0016110414
0.00086072797
0.00021226619
6.6626579e-06
4.5014467e-11
2.9084736e-11
2.1976536e-06
9.258167e-05
0.00042378608
0.00084142929
0.0011357401
0.0012662823
0.0012909995
0.0012742756
0.0012560569
0.0012560553
0.0012742718
0.0012909944
0.0012662784
0.001135738
0.00084142914
0.00042378697
9.2582115e-05
2.1976765e-06
2.9101561e-11
2.1446597e-11
7.1017618e-07
3.9500936e-05
0.00020425637
0.00043052116
0.00059924995
0.00067892319
0.00069794231
0.00069172256
0.00068299128
0.0006829903
0.00069172029
0.00069793932
0.00067892088
0.00059924877
0.00043052116
0.0002042569
3.9501159e-05
7.1018601e-07
2.1464902e-11
8.4174649e-12
2.2519881e-07
1.6496872e-05
9.6420487e-05
0.00021588341
0.00031001018
0.00035699942
0.00037012239
0.0003683688
0.00036435804
0.00036435747
0.0003683675
0.00037012068
0.00035699812
0.00031000955
0.00021588345
9.6420788e-05
1.6496982e-05
2.2520323e-07
8.4277353e-12
2.4163069e-12
7.0009289e-08
6.7480141e-06
4.4600579e-05
0.00010613829
0.00015730371
0.00018416511
0.00019258504
0.00019249556
0.00019074162
0.00019074131
0.00019249483
0.00019258408
0.00018416439
0.00015730338
0.00010613833
4.4600744e-05
6.7480678e-06
7.0011158e-08
2.4214105e-12
)
;

boundaryField
{
    Wall
    {
        type            zeroGradient;
    }
    frontAndBack
    {
        type            empty;
    }
    atmosphere
    {
        type            zeroGradient;
    }
}


// ************************************************************************* //
