/*--------------------------------*- C++ -*----------------------------------*\
| =========                 |                                                 |
| \\      /  F ield         | OpenFOAM: The Open Source CFD Toolbox           |
|  \\    /   O peration     | Version:  3.0.1                                 |
|   \\  /    A nd           | Web:      www.OpenFOAM.org                      |
|    \\/     M anipulation  |                                                 |
\*---------------------------------------------------------------------------*/
FoamFile
{
    version     2.0;
    format      ascii;
    class       volScalarField;
    location    "27";
    object      mThree;
}
// * * * * * * * * * * * * * * * * * * * * * * * * * * * * * * * * * * * * * //

dimensions      [0 0 0 0 0 0 0];

internalField   nonuniform List<scalar> 
800
(
2.0999847e-23
2.1005814e-23
2.1006676e-23
2.1006716e-23
2.1006683e-23
2.100666e-23
2.1006654e-23
2.1006655e-23
2.1006658e-23
2.1006659e-23
2.1006659e-23
2.1006658e-23
2.1006655e-23
2.1006655e-23
2.1006661e-23
2.1006683e-23
2.1006717e-23
2.1006677e-23
2.1005815e-23
2.0999848e-23
1.9609764e-23
1.9683127e-23
1.9698217e-23
1.9700552e-23
1.9700067e-23
1.9699331e-23
1.9698851e-23
1.9698618e-23
1.9698527e-23
1.96985e-23
1.96985e-23
1.9698527e-23
1.9698618e-23
1.9698851e-23
1.9699331e-23
1.9700066e-23
1.9700551e-23
1.9698216e-23
1.9683125e-23
1.960976e-23
1.8684854e-23
1.8785491e-23
1.8814275e-23
1.8818984e-23
1.8818773e-23
1.8817936e-23
1.8817384e-23
1.8817146e-23
1.881708e-23
1.8817073e-23
1.8817073e-23
1.8817079e-23
1.8817146e-23
1.8817384e-23
1.8817935e-23
1.8818772e-23
1.8818983e-23
1.8814274e-23
1.8785489e-23
1.8684849e-23
1.8254731e-23
1.8363421e-23
1.8401256e-23
1.8407158e-23
1.8407051e-23
1.8406228e-23
1.8405748e-23
1.8405612e-23
1.8405634e-23
1.8405677e-23
1.8405678e-23
1.8405633e-23
1.8405612e-23
1.8405748e-23
1.8406228e-23
1.840705e-23
1.8407157e-23
1.8401255e-23
1.8363419e-23
1.8254727e-23
1.8328763e-23
1.8428034e-23
1.8471111e-23
1.8478947e-23
1.847865e-23
1.84778e-23
1.8477427e-23
1.8477433e-23
1.8477573e-23
1.8477683e-23
1.8477683e-23
1.8477573e-23
1.8477433e-23
1.8477427e-23
1.84778e-23
1.8478649e-23
1.8478947e-23
1.8471111e-23
1.8428033e-23
1.832876e-23
1.8898102e-23
1.8974438e-23
1.9019875e-23
1.9030856e-23
1.9030049e-23
1.9029048e-23
1.902875e-23
1.9028895e-23
1.9029157e-23
1.9029336e-23
1.9029336e-23
1.9029158e-23
1.9028895e-23
1.9028751e-23
1.9029049e-23
1.903005e-23
1.9030857e-23
1.9019876e-23
1.897444e-23
1.8898102e-23
1.9935155e-23
1.9983107e-23
2.0026045e-23
2.0041002e-23
2.003937e-23
2.0038035e-23
2.0037721e-23
2.0037952e-23
2.0038312e-23
2.0038549e-23
2.0038549e-23
2.0038313e-23
2.0037953e-23
2.0037722e-23
2.0038037e-23
2.0039372e-23
2.0041005e-23
2.0026048e-23
1.998311e-23
1.9935157e-23
2.1391048e-23
2.1413295e-23
2.1447683e-23
2.1466755e-23
2.146398e-23
2.1462044e-23
2.1461534e-23
2.1461733e-23
2.146213e-23
2.1462395e-23
2.1462396e-23
2.1462131e-23
2.1461734e-23
2.1461535e-23
2.1462046e-23
2.1463983e-23
2.1466759e-23
2.1447687e-23
2.1413299e-23
2.1391051e-23
2.3185746e-23
2.3197824e-23
2.3216525e-23
2.3239116e-23
2.3238936e-23
2.3236005e-23
2.323498e-23
2.3234944e-23
2.3235272e-23
2.3235516e-23
2.3235516e-23
2.3235273e-23
2.3234945e-23
2.3234982e-23
2.3236008e-23
2.323894e-23
2.3239121e-23
2.321653e-23
2.3197828e-23
2.318575e-23
2.5190148e-23
2.5233409e-23
2.5227874e-23
2.5252758e-23
2.5262251e-23
2.526351e-23
2.5261443e-23
2.5260862e-23
2.5260967e-23
2.5261117e-23
2.5261117e-23
2.5260968e-23
2.5260863e-23
2.5261445e-23
2.5263513e-23
2.5262255e-23
2.5252762e-23
2.5227879e-23
2.5233414e-23
2.5190153e-23
2.721053e-23
2.7354607e-23
2.7325408e-23
2.735074e-23
2.7383258e-23
2.7398034e-23
2.7394155e-23
2.7392586e-23
2.7392249e-23
2.7392204e-23
2.7392204e-23
2.739225e-23
2.7392587e-23
2.7394157e-23
2.7398037e-23
2.7383261e-23
2.7350744e-23
2.7325413e-23
2.7354612e-23
2.7210533e-23
2.8983731e-23
2.9312192e-23
2.9287931e-23
2.9310112e-23
2.9384733e-23
2.9420027e-23
2.9413407e-23
2.941028e-23
2.9409065e-23
2.9408676e-23
2.9408677e-23
2.9409065e-23
2.941028e-23
2.9413407e-23
2.9420029e-23
2.9384735e-23
2.9310115e-23
2.9287934e-23
2.9312196e-23
2.8983734e-23
3.0176685e-23
3.0776528e-23
3.0817657e-23
3.0825277e-23
3.0957043e-23
3.101334e-23
3.1003107e-23
3.0997518e-23
3.1009475e-23
3.1008141e-23
3.1008141e-23
3.1009474e-23
3.0997517e-23
3.1003107e-23
3.101334e-23
3.0957044e-23
3.0825278e-23
3.0817659e-23
3.0776529e-23
3.0176684e-23
3.0357188e-23
3.1328158e-23
3.1501126e-23
3.1513549e-23
3.1704831e-23
3.177679e-23
3.1762917e-23
3.1754647e-23
3.1787894e-23
3.1784805e-23
3.1784804e-23
3.1787893e-23
3.1754645e-23
3.1762915e-23
3.1776788e-23
3.1704829e-23
3.1513547e-23
3.1501124e-23
3.1328155e-23
3.0357182e-23
2.8979873e-23
3.0398042e-23
3.0743151e-23
3.0785044e-23
3.1022408e-23
3.1101951e-23
3.1080299e-23
3.1070555e-23
3.1127867e-23
3.1156666e-23
3.1156665e-23
3.1127866e-23
3.1070552e-23
3.1080295e-23
3.1101947e-23
3.1022403e-23
3.0785039e-23
3.0743145e-23
3.0398034e-23
2.8979862e-23
2.5749973e-23
2.7606929e-23
2.8137723e-23
2.826188e-23
2.8521491e-23
2.8593091e-23
2.8557748e-23
2.8549614e-23
2.8631522e-23
2.8704051e-23
2.870405e-23
2.863152e-23
2.854961e-23
2.8557743e-23
2.8593085e-23
2.8521484e-23
2.8261872e-23
2.8137714e-23
2.7606918e-23
2.5749959e-23
2.0772905e-23
2.2894822e-23
2.3586201e-23
2.377612e-23
2.4086805e-23
2.4149639e-23
2.4124897e-23
2.4121621e-23
2.4209115e-23
2.4303247e-23
2.4303247e-23
2.4209114e-23
2.4121617e-23
2.4124892e-23
2.4149633e-23
2.4086798e-23
2.3776111e-23
2.3586192e-23
2.2894811e-23
2.0772895e-23
1.4756816e-23
1.6798366e-23
1.7549886e-23
1.7751188e-23
1.8081811e-23
1.8157742e-23
1.8159987e-23
1.8163475e-23
1.8265446e-23
1.8353345e-23
1.8353345e-23
1.8265445e-23
1.8163472e-23
1.8159983e-23
1.8157737e-23
1.8081805e-23
1.775118e-23
1.7549879e-23
1.6798358e-23
1.4756812e-23
9.233709e-24
1.08116e-23
1.1455309e-23
1.1617001e-23
1.1908497e-23
1.1984257e-23
1.20008e-23
1.2006754e-23
1.2108711e-23
1.217181e-23
1.217181e-23
1.2108711e-23
1.2006753e-23
1.2000799e-23
1.1984255e-23
1.1908493e-23
1.1616996e-23
1.1455305e-23
1.0811596e-23
9.2337087e-24
5.0204714e-24
5.9726977e-24
6.4017706e-24
6.5155966e-24
6.6971542e-24
6.7555186e-24
6.774174e-24
6.7807642e-24
6.8505922e-24
6.884278e-24
6.8842781e-24
6.8505924e-24
6.7807643e-24
6.7741739e-24
6.7555181e-24
6.6971532e-24
6.5155953e-24
6.4017697e-24
5.9726977e-24
5.020475e-24
2.5392709e-24
3.1228836e-24
3.4159364e-24
3.5049303e-24
3.6065918e-24
3.6465644e-24
3.6620694e-24
3.6672938e-24
3.7086874e-24
3.7249642e-24
3.7249643e-24
3.7086878e-24
3.6672945e-24
3.6620702e-24
3.6465652e-24
3.6065923e-24
3.5049307e-24
3.4159372e-24
3.1228851e-24
2.5392754e-24
1.1070859e-24
1.5638551e-24
1.7788589e-24
1.8492678e-24
1.8988513e-24
1.9189801e-24
1.9255776e-24
1.9262308e-24
1.9458898e-24
1.9524159e-24
1.952416e-24
1.9458902e-24
1.9262314e-24
1.9255784e-24
1.9189809e-24
1.8988519e-24
1.8492684e-24
1.7788598e-24
1.5638563e-24
1.1070894e-24
3.8092681e-25
7.4054987e-25
9.1565369e-25
9.7881706e-25
1.0061411e-24
1.0129658e-24
1.0114985e-24
1.0074086e-24
1.0136434e-24
1.0148979e-24
1.014898e-24
1.0136437e-24
1.007409e-24
1.011499e-24
1.0129663e-24
1.0061415e-24
9.7881748e-25
9.1565422e-25
7.4055077e-25
3.8092869e-25
1.0144448e-25
3.2811741e-25
4.6071682e-25
5.1613853e-25
5.3610079e-25
5.3844547e-25
5.3412606e-25
5.2838371e-25
5.2833672e-25
5.2732119e-25
5.2732124e-25
5.2833685e-25
5.283839e-25
5.3412632e-25
5.3844573e-25
5.3610091e-25
5.1613872e-25
4.6071709e-25
3.2811794e-25
1.014452e-25
2.1461953e-26
1.3600577e-25
2.2514539e-25
2.6885875e-25
2.8511868e-25
2.8695043e-25
2.8307321e-25
2.7801409e-25
2.7600386e-25
2.7445086e-25
2.7445088e-25
2.7600391e-25
2.7801416e-25
2.8307329e-25
2.8695051e-25
2.8511869e-25
2.6885878e-25
2.2514551e-25
1.3600604e-25
2.1462158e-26
3.7926412e-27
5.2875172e-26
1.0658773e-25
1.3757581e-25
1.5032235e-25
1.5241336e-25
1.4993426e-25
1.4635704e-25
1.4431219e-25
1.4296868e-25
1.4296868e-25
1.443122e-25
1.4635705e-25
1.4993427e-25
1.5241336e-25
1.5032232e-25
1.3757577e-25
1.0658778e-25
5.2875293e-26
3.7926876e-27
5.899699e-28
1.9382525e-26
4.8868202e-26
6.8944331e-26
7.8192017e-26
8.0279088e-26
7.9019458e-26
7.6818031e-26
7.531904e-26
7.4374723e-26
7.4374722e-26
7.5319035e-26
7.6818016e-26
7.9019437e-26
8.0279057e-26
7.8191973e-26
6.8944292e-26
4.8868214e-26
1.9382577e-26
5.899786e-28
8.424945e-29
6.7504597e-27
2.1719682e-26
3.3791755e-26
4.0009004e-26
4.1778188e-26
4.1284046e-26
4.0062164e-26
3.9120399e-26
3.8530908e-26
3.8530904e-26
3.912039e-26
4.0062146e-26
4.1284023e-26
4.1778159e-26
4.0008969e-26
3.3791728e-26
2.1719683e-26
6.75048e-27
8.4250896e-29
1.1367591e-29
2.2516995e-27
9.3741528e-27
1.6193315e-26
2.0104041e-26
2.1428173e-26
2.1320811e-26
2.0699352e-26
2.0162888e-26
1.9823647e-26
1.9823644e-26
2.016288e-26
2.0699338e-26
2.1320793e-26
2.1428152e-26
2.0104019e-26
1.6193301e-26
9.3741542e-27
2.2517071e-27
1.1367806e-29
1.4756696e-30
7.2438177e-28
3.9364171e-27
7.5885911e-27
9.9121121e-27
1.0814584e-26
1.0861458e-26
1.0570758e-26
1.0286634e-26
1.0103147e-26
1.0103145e-26
1.0286628e-26
1.0570749e-26
1.0861446e-26
1.0814571e-26
9.9121002e-27
7.5885845e-27
3.9364186e-27
7.2438465e-28
1.4756994e-30
1.8629277e-31
2.2595232e-28
1.6111877e-27
3.4791585e-27
4.7933734e-27
5.3651723e-27
5.4498548e-27
5.3258209e-27
5.1841369e-27
5.0898141e-27
5.0898128e-27
5.184133e-27
5.3258146e-27
5.4498478e-27
5.3651654e-27
4.7933676e-27
3.4791559e-27
1.6111889e-27
2.2595339e-28
1.8629674e-31
2.3010982e-32
6.8594786e-29
6.4376316e-28
1.5612994e-27
2.2733047e-27
2.614786e-27
2.6905197e-27
2.6435899e-27
2.5766605e-27
2.530261e-27
2.5302602e-27
2.5766581e-27
2.6435862e-27
2.6905158e-27
2.6147824e-27
2.2733021e-27
1.5612985e-27
6.4376388e-28
6.8595161e-29
2.3011499e-32
2.7901427e-33
2.0318304e-29
2.5139379e-28
6.8610865e-28
1.0573562e-27
1.2514235e-27
1.3059395e-27
1.2914557e-27
1.2614539e-27
1.2395199e-27
1.2395194e-27
1.2614525e-27
1.2914536e-27
1.3059373e-27
1.2514216e-27
1.0573551e-27
6.8610842e-28
2.5139419e-28
2.0318432e-29
2.7902089e-33
3.3264608e-34
5.8819442e-30
9.6031175e-29
2.9536497e-28
4.8235023e-28
5.8802041e-28
6.2291122e-28
6.2046181e-28
6.0772832e-28
5.977405e-28
5.9774022e-28
6.0772751e-28
6.2046064e-28
6.2291005e-28
5.8801945e-28
4.8234974e-28
2.9536496e-28
9.6031381e-29
5.8819865e-30
3.3265447e-34
3.9053385e-35
1.6659081e-30
3.5906555e-29
1.2459948e-28
2.1583355e-28
2.7123561e-28
2.9187521e-28
2.9299944e-28
2.8791941e-28
2.8353412e-28
2.8353396e-28
2.8791897e-28
2.9299881e-28
2.918746e-28
2.7123514e-28
2.1583334e-28
1.2459952e-28
3.5906652e-29
1.6659216e-30
3.9054576e-35
4.8261064e-36
4.6192814e-31
1.3147276e-29
5.1519127e-29
9.4739078e-29
1.2281181e-28
1.3431949e-28
1.3594796e-28
1.340731e-28
1.3221719e-28
1.3221711e-28
1.3407286e-28
1.3594763e-28
1.3431918e-28
1.2281158e-28
9.4738994e-29
5.1519156e-29
1.314732e-29
4.6193233e-31
4.8250714e-36
1.350297e-36
1.2545814e-31
4.7156564e-30
2.0883299e-29
4.0797205e-29
5.4583756e-29
6.0700437e-29
6.1962012e-29
6.1344382e-29
6.0588665e-29
6.0588621e-29
6.1344262e-29
6.1961846e-29
6.0700283e-29
5.4583649e-29
4.0797172e-29
2.0883318e-29
4.7156751e-30
1.2545941e-31
1.3508467e-36
7.6704468e-37
3.3400527e-32
1.6573013e-30
8.3000027e-30
1.7236923e-29
2.3813348e-29
2.6935408e-29
2.7737009e-29
2.7572464e-29
2.7277496e-29
2.7277474e-29
2.7572405e-29
2.7736928e-29
2.6935334e-29
2.3813299e-29
1.7236911e-29
8.3000136e-30
1.657309e-30
3.3400951e-32
7.6769009e-37
2.516843e-37
8.7266504e-33
5.7084233e-31
3.234947e-30
7.1458765e-30
1.0198251e-29
1.1736097e-29
1.219386e-29
1.2172762e-29
1.2063151e-29
1.206314e-29
1.2172734e-29
1.2193821e-29
1.1736063e-29
1.0198229e-29
7.1458726e-30
3.2349526e-30
5.7084548e-31
8.7267998e-33
2.5198194e-37
6.0369982e-38
2.2359808e-33
1.9275213e-31
1.2365928e-30
2.907093e-30
4.2874865e-30
5.0210965e-30
5.2645456e-30
5.2782643e-30
5.2399577e-30
5.2399528e-30
5.2782513e-30
5.2645279e-30
5.021081e-30
4.2874772e-30
2.9070919e-30
1.2365954e-30
1.927534e-31
2.2360315e-33
6.0492124e-38
)
;

boundaryField
{
    Wall
    {
        type            zeroGradient;
    }
    frontAndBack
    {
        type            empty;
    }
    atmosphere
    {
        type            zeroGradient;
    }
}


// ************************************************************************* //
