/*--------------------------------*- C++ -*----------------------------------*\
| =========                 |                                                 |
| \\      /  F ield         | OpenFOAM: The Open Source CFD Toolbox           |
|  \\    /   O peration     | Version:  3.0.1                                 |
|   \\  /    A nd           | Web:      www.OpenFOAM.org                      |
|    \\/     M anipulation  |                                                 |
\*---------------------------------------------------------------------------*/
FoamFile
{
    version     2.0;
    format      ascii;
    class       volScalarField;
    location    "27";
    object      mTwo;
}
// * * * * * * * * * * * * * * * * * * * * * * * * * * * * * * * * * * * * * //

dimensions      [0 0 0 0 0 0 0];

internalField   nonuniform List<scalar> 
800
(
1.6505661e-11
1.6508738e-11
1.6509179e-11
1.6509197e-11
1.6509177e-11
1.6509163e-11
1.6509159e-11
1.6509158e-11
1.6509159e-11
1.6509159e-11
1.6509159e-11
1.6509159e-11
1.6509158e-11
1.6509159e-11
1.6509164e-11
1.6509177e-11
1.6509197e-11
1.6509179e-11
1.6508738e-11
1.6505661e-11
1.5768255e-11
1.5807347e-11
1.5815379e-11
1.5816618e-11
1.5816354e-11
1.5815959e-11
1.58157e-11
1.5815574e-11
1.5815525e-11
1.581551e-11
1.581551e-11
1.5815525e-11
1.5815574e-11
1.58157e-11
1.5815959e-11
1.5816354e-11
1.5816617e-11
1.5815378e-11
1.5807346e-11
1.5768253e-11
1.5213243e-11
1.5268832e-11
1.5284791e-11
1.5287451e-11
1.5287346e-11
1.5286874e-11
1.5286554e-11
1.5286409e-11
1.5286363e-11
1.5286355e-11
1.5286355e-11
1.5286363e-11
1.5286409e-11
1.5286554e-11
1.5286873e-11
1.5287345e-11
1.5287451e-11
1.528479e-11
1.5268831e-11
1.521324e-11
1.487902e-11
1.4941419e-11
1.4962941e-11
1.4966406e-11
1.4966369e-11
1.4965874e-11
1.4965561e-11
1.4965446e-11
1.4965432e-11
1.4965444e-11
1.4965444e-11
1.4965432e-11
1.4965446e-11
1.496556e-11
1.4965874e-11
1.4966368e-11
1.4966405e-11
1.496294e-11
1.4941418e-11
1.4879017e-11
1.4780331e-11
1.4840521e-11
1.4865476e-11
1.48701e-11
1.4869961e-11
1.4869411e-11
1.4869113e-11
1.4869043e-11
1.4869071e-11
1.4869108e-11
1.4869108e-11
1.4869071e-11
1.4869042e-11
1.4869112e-11
1.4869411e-11
1.4869961e-11
1.48701e-11
1.4865476e-11
1.484052e-11
1.4780329e-11
1.4909341e-11
1.4960957e-11
1.4987723e-11
1.4994053e-11
1.4993635e-11
1.4992953e-11
1.4992642e-11
1.4992604e-11
1.499267e-11
1.499273e-11
1.499273e-11
1.499267e-11
1.4992604e-11
1.4992642e-11
1.4992953e-11
1.4993635e-11
1.4994053e-11
1.4987723e-11
1.4960957e-11
1.4909341e-11
1.5239866e-11
1.5281432e-11
1.5307499e-11
1.5315823e-11
1.5314958e-11
1.5314038e-11
1.5313655e-11
1.5313611e-11
1.5313693e-11
1.5313766e-11
1.5313767e-11
1.5313693e-11
1.5313611e-11
1.5313655e-11
1.5314039e-11
1.5314958e-11
1.5315824e-11
1.53075e-11
1.5281432e-11
1.5239866e-11
1.5730387e-11
1.5765349e-11
1.5788038e-11
1.5798289e-11
1.5796822e-11
1.5795533e-11
1.5794984e-11
1.5794869e-11
1.5794932e-11
1.5795001e-11
1.5795001e-11
1.5794932e-11
1.5794869e-11
1.5794985e-11
1.5795534e-11
1.5796823e-11
1.5798291e-11
1.5788039e-11
1.5765351e-11
1.5730388e-11
1.6323884e-11
1.6361986e-11
1.6378696e-11
1.6390507e-11
1.6390108e-11
1.6388276e-11
1.6387423e-11
1.6387146e-11
1.6387139e-11
1.6387179e-11
1.638718e-11
1.638714e-11
1.6387146e-11
1.6387423e-11
1.6388277e-11
1.6390109e-11
1.6390509e-11
1.6378698e-11
1.6361988e-11
1.6323885e-11
1.6945333e-11
1.7007102e-11
1.7015291e-11
1.7028104e-11
1.7031734e-11
1.7031595e-11
1.7030247e-11
1.7029695e-11
1.7029557e-11
1.7029539e-11
1.7029539e-11
1.7029557e-11
1.7029695e-11
1.7030248e-11
1.7031596e-11
1.7031735e-11
1.7028106e-11
1.7015293e-11
1.7007104e-11
1.6945334e-11
1.749941e-11
1.7615637e-11
1.7617193e-11
1.7630322e-11
1.7643273e-11
1.7648631e-11
1.7646546e-11
1.7645579e-11
1.7645231e-11
1.764512e-11
1.764512e-11
1.7645231e-11
1.7645579e-11
1.7646546e-11
1.7648632e-11
1.7643274e-11
1.7630323e-11
1.7617194e-11
1.7615638e-11
1.7499411e-11
1.787202e-11
1.807667e-11
1.808487e-11
1.8097067e-11
1.8126622e-11
1.8140097e-11
1.8137027e-11
1.8135495e-11
1.8134766e-11
1.8134518e-11
1.8134518e-11
1.8134766e-11
1.8135495e-11
1.8137027e-11
1.8140097e-11
1.8126622e-11
1.8097067e-11
1.808487e-11
1.8076671e-11
1.787202e-11
1.7931796e-11
1.8257818e-11
1.8297417e-11
1.8304647e-11
1.8356282e-11
1.8377817e-11
1.8373595e-11
1.8371279e-11
1.8375696e-11
1.8375104e-11
1.8375104e-11
1.8375696e-11
1.8371278e-11
1.8373595e-11
1.8377817e-11
1.8356281e-11
1.8304647e-11
1.8297416e-11
1.8257818e-11
1.7931794e-11
1.7518406e-11
1.8002066e-11
1.8098506e-11
1.8109005e-11
1.8183352e-11
1.8210782e-11
1.8205613e-11
1.8202602e-11
1.8215474e-11
1.8214229e-11
1.8214229e-11
1.8215474e-11
1.8202601e-11
1.8205611e-11
1.821078e-11
1.8183351e-11
1.8109004e-11
1.8098504e-11
1.8002064e-11
1.7518402e-11
1.6456766e-11
1.7125215e-11
1.7294697e-11
1.7319244e-11
1.7411544e-11
1.7441916e-11
1.7434129e-11
1.7430835e-11
1.7453299e-11
1.746441e-11
1.7464409e-11
1.7453298e-11
1.7430833e-11
1.7434127e-11
1.7441913e-11
1.7411541e-11
1.7319241e-11
1.7294693e-11
1.7125211e-11
1.6456761e-11
1.466964e-11
1.5525419e-11
1.5777211e-11
1.5838265e-11
1.5941002e-11
1.5968793e-11
1.5956467e-11
1.5953943e-11
1.5986582e-11
1.6014931e-11
1.601493e-11
1.5986581e-11
1.5953941e-11
1.5956465e-11
1.596879e-11
1.5940999e-11
1.5838261e-11
1.5777206e-11
1.5525414e-11
1.4669634e-11
1.2153915e-11
1.3143438e-11
1.3474867e-11
1.3568301e-11
1.3696232e-11
1.3722891e-11
1.3715711e-11
1.3715133e-11
1.3751131e-11
1.3788892e-11
1.3788892e-11
1.375113e-11
1.3715131e-11
1.3715708e-11
1.3722888e-11
1.3696229e-11
1.3568297e-11
1.3474862e-11
1.3143432e-11
1.215391e-11
9.1165635e-12
1.0117169e-11
1.0495498e-11
1.0600876e-11
1.074559e-11
1.0781072e-11
1.078573e-11
1.0787978e-11
1.0834173e-11
1.0871058e-11
1.0871057e-11
1.0834172e-11
1.0787977e-11
1.0785728e-11
1.078107e-11
1.0745587e-11
1.0600872e-11
1.0495494e-11
1.0117165e-11
9.1165616e-12
6.1591846e-12
6.9998704e-12
7.3546805e-12
7.4493209e-12
7.5908498e-12
7.6295899e-12
7.6408941e-12
7.6443354e-12
7.6943136e-12
7.7223923e-12
7.7223923e-12
7.6943133e-12
7.6443348e-12
7.6408932e-12
7.6295885e-12
7.5908479e-12
7.4493186e-12
7.3546781e-12
6.9998685e-12
6.1591852e-12
3.6936737e-12
4.2678573e-12
4.5390382e-12
4.6174285e-12
4.7159485e-12
4.7492307e-12
4.761774e-12
4.7657652e-12
4.8031229e-12
4.8191703e-12
4.8191704e-12
4.803123e-12
4.7657653e-12
4.761774e-12
4.7492305e-12
4.7159481e-12
4.617428e-12
4.5390379e-12
4.2678577e-12
3.6936767e-12
2.0496502e-12
2.4639512e-12
2.6832695e-12
2.7579947e-12
2.821668e-12
2.8465255e-12
2.8566605e-12
2.8594817e-12
2.8827574e-12
2.8907937e-12
2.8907938e-12
2.8827577e-12
2.8594822e-12
2.856661e-12
2.846526e-12
2.8216685e-12
2.7579951e-12
2.6832702e-12
2.4639526e-12
2.049654e-12
9.7429366e-13
1.357866e-12
1.5488843e-12
1.6213393e-12
1.660732e-12
1.6745803e-12
1.6780467e-12
1.6770359e-12
1.6877319e-12
1.6905686e-12
1.6905687e-12
1.6877322e-12
1.6770363e-12
1.6780473e-12
1.6745809e-12
1.6607324e-12
1.6213398e-12
1.548885e-12
1.3578672e-12
9.7429683e-13
3.6393406e-13
7.0670863e-13
8.8255421e-13
9.5559803e-13
9.8482723e-13
9.9075251e-13
9.8787987e-13
9.8261019e-13
9.8452576e-13
9.8402515e-13
9.8402523e-13
9.8452596e-13
9.8261049e-13
9.8788027e-13
9.9075292e-13
9.8482747e-13
9.5559832e-13
8.8255464e-13
7.0670946e-13
3.6393587e-13
1.04891e-13
3.4524895e-13
4.9227644e-13
5.6128265e-13
5.8737488e-13
5.9090017e-13
5.8566812e-13
5.7860254e-13
5.7605882e-13
5.7392753e-13
5.7392756e-13
5.7605891e-13
5.7860268e-13
5.856683e-13
5.9090035e-13
5.8737492e-13
5.6128276e-13
4.9227665e-13
3.4524946e-13
1.0489174e-13
2.3992882e-14
1.5859785e-13
2.6760053e-13
3.2623137e-13
3.498654e-13
3.5355936e-13
3.4885679e-13
3.422594e-13
3.3838001e-13
3.3588129e-13
3.358813e-13
3.3838003e-13
3.4225942e-13
3.4885682e-13
3.5355938e-13
3.4986533e-13
3.2623133e-13
2.6760061e-13
1.5859813e-13
2.3993108e-14
4.5880722e-15
6.8675537e-14
1.4152138e-13
1.8675445e-13
2.0683778e-13
2.1100714e-13
2.078585e-13
2.0277399e-13
1.9918054e-13
1.9698881e-13
1.969888e-13
1.9918052e-13
2.0277395e-13
2.0785846e-13
2.1100708e-13
2.0683769e-13
1.8675436e-13
1.4152139e-13
6.8675671e-14
4.588127e-15
7.7390312e-16
2.8153988e-14
7.2781656e-14
1.0500292e-13
1.2083622e-13
1.2500113e-13
1.2333165e-13
1.1987843e-13
1.1713788e-13
1.1548152e-13
1.1548151e-13
1.1713785e-13
1.1987837e-13
1.2333158e-13
1.2500105e-13
1.2083613e-13
1.0500284e-13
7.2781653e-14
2.8154051e-14
7.7391416e-16
1.2016024e-16
1.1000912e-14
3.64125e-14
5.7895031e-14
6.9559328e-14
7.3241385e-14
7.2600551e-14
7.0470401e-14
6.8605184e-14
6.7468558e-14
6.7468546e-14
6.8605153e-14
7.0470349e-14
7.260049e-14
7.3241316e-14
6.9559257e-14
5.7894977e-14
3.6412492e-14
1.1000939e-14
1.2016221e-16
1.7681161e-17
4.1275019e-15
1.773864e-14
3.127981e-14
3.9384673e-14
4.2338905e-14
4.2277154e-14
4.1067778e-14
3.9895953e-14
3.9169106e-14
3.9169096e-14
3.9895927e-14
4.1067737e-14
4.2277107e-14
4.2338856e-14
3.9384626e-14
3.127978e-14
1.7738638e-14
4.1275137e-15
1.7681479e-17
2.5112466e-18
1.4968088e-15
8.424988e-15
1.6556089e-14
2.1910361e-14
2.4106326e-14
2.4301921e-14
2.3668712e-14
2.2977545e-14
2.2537985e-14
2.2537978e-14
2.2977525e-14
2.3668682e-14
2.4301889e-14
2.4106295e-14
2.1910335e-14
1.6556074e-14
8.4249899e-15
1.496814e-15
2.5112946e-18
3.4805985e-19
5.273147e-16
3.9061764e-15
8.5849329e-15
1.1969169e-14
1.3503627e-14
1.3768106e-14
1.3465305e-14
1.3079135e-14
1.2825479e-14
1.2825474e-14
1.3079121e-14
1.3465284e-14
1.3768085e-14
1.3503608e-14
1.1969155e-14
8.584927e-15
3.9061788e-15
5.2731693e-16
3.4806685e-19
4.737444e-20
1.8112115e-16
1.7700001e-15
4.3620032e-15
6.4186564e-15
7.4369278e-15
7.6795596e-15
7.5512481e-15
7.3459657e-15
7.2054908e-15
7.2054872e-15
7.3459561e-15
7.5512346e-15
7.6795462e-15
7.4369166e-15
6.4186494e-15
4.3620014e-15
1.770002e-15
1.8112206e-16
4.7375445e-20
6.3544062e-21
6.0803924e-17
7.8462376e-16
2.1723165e-15
3.3786823e-15
4.0251167e-15
4.2141247e-15
4.1700539e-15
4.0661149e-15
3.9911844e-15
3.991182e-15
4.0661086e-15
4.1700454e-15
4.2141165e-15
4.0251103e-15
3.3786791e-15
2.1723163e-15
7.8462505e-16
6.0804282e-17
6.3545488e-21
8.4161537e-22
1.9983164e-17
3.4053723e-16
1.0606679e-15
1.7457577e-15
2.1404653e-15
2.2739483e-15
2.2660912e-15
2.216067e-15
2.1774864e-15
2.1774849e-15
2.2160631e-15
2.2660859e-15
2.2739434e-15
2.1404618e-15
1.7457563e-15
1.0606681e-15
3.40538e-16
1.99833e-17
8.416358e-22
1.1062805e-22
6.4362477e-18
1.4479813e-16
5.079121e-16
8.8551851e-16
1.1182658e-15
1.2062381e-15
1.2112191e-15
1.1884721e-15
1.1692777e-15
1.1692768e-15
1.1884697e-15
1.2112159e-15
1.2062352e-15
1.1182638e-15
8.8551787e-16
5.0791241e-16
1.4479855e-16
6.436298e-18
1.1063277e-22
1.6891089e-23
2.0330541e-18
6.0351009e-17
2.3860648e-16
4.41015e-16
5.7397481e-16
6.2893261e-16
6.3658342e-16
6.2693569e-16
6.177089e-16
6.1770835e-16
6.2693429e-16
6.3658155e-16
6.2893098e-16
5.7397376e-16
4.4101473e-16
2.3860673e-16
6.0351224e-17
2.0330721e-18
1.6886413e-23
7.8512169e-24
6.301622e-19
2.4667196e-17
1.099991e-16
2.1569005e-16
2.8945753e-16
3.223141e-16
3.2893836e-16
3.2522508e-16
3.2094488e-16
3.2094456e-16
3.2522429e-16
3.289373e-16
3.2231319e-16
2.8945698e-16
2.1568995e-16
1.0999926e-16
2.4667303e-17
6.301685e-19
7.8552369e-24
5.3456861e-24
1.9185371e-19
9.8908266e-18
4.9777697e-17
1.0361353e-16
1.4344168e-16
1.6235959e-16
1.6710371e-16
1.6589298e-16
1.6398215e-16
1.6398197e-16
1.6589254e-16
1.6710312e-16
1.623591e-16
1.434414e-16
1.036135e-16
4.9777795e-17
9.890877e-18
1.9185622e-19
5.3502021e-24
1.9951164e-24
5.7447861e-20
3.8921448e-18
2.2117725e-17
4.8899844e-17
6.986083e-17
8.0397811e-17
8.3462286e-17
8.3205814e-17
8.2388933e-17
8.2388836e-17
8.3205577e-17
8.3461972e-17
8.0397555e-17
6.9860691e-17
4.8899842e-17
2.211778e-17
3.8921685e-18
5.7448907e-20
1.9975224e-24
5.4573093e-25
1.6903098e-20
1.5036978e-18
9.652265e-18
2.2677901e-17
3.3445708e-17
3.9141768e-17
4.098951e-17
4.1038495e-17
4.0707027e-17
4.0706976e-17
4.103837e-17
4.0989345e-17
3.9141637e-17
3.3445641e-17
2.2677905e-17
9.6522945e-18
1.5037088e-18
1.6903514e-20
5.4686919e-25
)
;

boundaryField
{
    Wall
    {
        type            zeroGradient;
    }
    frontAndBack
    {
        type            empty;
    }
    atmosphere
    {
        type            zeroGradient;
    }
}


// ************************************************************************* //
