/*--------------------------------*- C++ -*----------------------------------*\
| =========                 |                                                 |
| \\      /  F ield         | OpenFOAM: The Open Source CFD Toolbox           |
|  \\    /   O peration     | Version:  3.0.1                                 |
|   \\  /    A nd           | Web:      www.OpenFOAM.org                      |
|    \\/     M anipulation  |                                                 |
\*---------------------------------------------------------------------------*/
FoamFile
{
    version     2.0;
    format      ascii;
    class       volScalarField;
    location    "27";
    object      muMixture;
}
// * * * * * * * * * * * * * * * * * * * * * * * * * * * * * * * * * * * * * //

dimensions      [1 -1 -1 0 0 0 0];

internalField   nonuniform List<scalar> 
800
(
0.001
0.001
0.001
0.001
0.001
0.001
0.001
0.001
0.001
0.001
0.001
0.001
0.001
0.001
0.001
0.001
0.001
0.001
0.001
0.001
0.001
0.001
0.001
0.001
0.001
0.001
0.001
0.001
0.001
0.001
0.001
0.001
0.001
0.001
0.001
0.001
0.001
0.001
0.001
0.001
0.00099999988
0.00099999989
0.0009999999
0.0009999999
0.0009999999
0.0009999999
0.0009999999
0.0009999999
0.0009999999
0.0009999999
0.0009999999
0.0009999999
0.0009999999
0.0009999999
0.0009999999
0.0009999999
0.0009999999
0.0009999999
0.00099999989
0.00099999988
0.00099999947
0.00099999952
0.00099999954
0.00099999954
0.00099999954
0.00099999954
0.00099999954
0.00099999954
0.00099999954
0.00099999954
0.00099999954
0.00099999954
0.00099999954
0.00099999954
0.00099999954
0.00099999954
0.00099999954
0.00099999954
0.00099999952
0.00099999947
0.00099999858
0.00099999872
0.00099999876
0.00099999876
0.00099999876
0.00099999876
0.00099999876
0.00099999875
0.00099999875
0.00099999875
0.00099999875
0.00099999875
0.00099999875
0.00099999876
0.00099999876
0.00099999876
0.00099999876
0.00099999876
0.00099999872
0.00099999858
0.00099999701
0.00099999731
0.0009999974
0.00099999741
0.00099999741
0.0009999974
0.0009999974
0.00099999739
0.00099999739
0.00099999739
0.00099999739
0.00099999739
0.00099999739
0.0009999974
0.0009999974
0.00099999741
0.00099999741
0.0009999974
0.00099999731
0.00099999701
0.00099999463
0.00099999516
0.00099999534
0.00099999535
0.00099999535
0.00099999534
0.00099999533
0.00099999532
0.00099999532
0.00099999532
0.00099999532
0.00099999532
0.00099999532
0.00099999533
0.00099999534
0.00099999535
0.00099999535
0.00099999534
0.00099999516
0.00099999463
0.00099999129
0.00099999216
0.00099999247
0.0009999925
0.00099999249
0.00099999247
0.00099999245
0.00099999244
0.00099999244
0.00099999243
0.00099999243
0.00099999244
0.00099999244
0.00099999245
0.00099999247
0.00099999249
0.0009999925
0.00099999247
0.00099999216
0.00099999129
0.00099998692
0.00099998822
0.00099998874
0.00099998878
0.00099998876
0.00099998873
0.00099998871
0.00099998869
0.00099998868
0.00099998868
0.00099998868
0.00099998868
0.00099998869
0.00099998871
0.00099998873
0.00099998876
0.00099998878
0.00099998874
0.00099998822
0.00099998692
0.00099998146
0.00099998328
0.00099998412
0.00099998418
0.00099998414
0.00099998409
0.00099998406
0.00099998404
0.00099998403
0.00099998402
0.00099998402
0.00099998403
0.00099998404
0.00099998406
0.00099998409
0.00099998414
0.00099998418
0.00099998412
0.00099998328
0.00099998146
0.00099997485
0.00099997728
0.00099997859
0.00099997867
0.0009999786
0.00099997854
0.0009999785
0.00099997847
0.00099997846
0.00099997845
0.00099997845
0.00099997846
0.00099997847
0.0009999785
0.00099997854
0.0009999786
0.00099997867
0.00099997859
0.00099997728
0.00099997485
0.00099996702
0.0009999703
0.00099997215
0.0009999722
0.00099997211
0.00099997203
0.00099997197
0.00099997194
0.00099997192
0.00099997191
0.00099997191
0.00099997192
0.00099997194
0.00099997197
0.00099997203
0.00099997211
0.0009999722
0.00099997215
0.0009999703
0.00099996702
0.00099995778
0.00099996252
0.00099996458
0.00099996458
0.00099996445
0.00099996435
0.00099996429
0.00099996425
0.00099996422
0.00099996421
0.00099996421
0.00099996422
0.00099996425
0.00099996429
0.00099996435
0.00099996445
0.00099996458
0.00099996458
0.00099996252
0.00099995778
0.00099994612
0.00099995352
0.00099995527
0.00099995526
0.00099995511
0.000999955
0.00099995493
0.00099995489
0.00099995486
0.00099995485
0.00099995485
0.00099995486
0.00099995489
0.00099995493
0.000999955
0.00099995511
0.00099995526
0.00099995527
0.00099995352
0.00099994612
0.0009999263
0.00099993934
0.00099994137
0.00099994154
0.00099994146
0.00099994138
0.00099994134
0.00099994132
0.00099994131
0.0009999413
0.0009999413
0.00099994131
0.00099994132
0.00099994134
0.00099994138
0.00099994146
0.00099994154
0.00099994137
0.00099993934
0.0009999263
0.0009998697
0.00099990211
0.00099990851
0.00099990992
0.00099991054
0.00099991085
0.00099991105
0.00099991118
0.0009999113
0.00099991134
0.00099991134
0.0009999113
0.00099991118
0.00099991105
0.00099991085
0.00099991054
0.00099990992
0.00099990851
0.00099990211
0.0009998697
0.00099955083
0.00099971033
0.00099975292
0.00099976514
0.00099977211
0.00099977596
0.00099977827
0.00099977959
0.00099978109
0.00099978161
0.00099978161
0.00099978109
0.00099977959
0.00099977827
0.00099977596
0.00099977211
0.00099976514
0.00099975292
0.00099971034
0.00099955083
0.0009953317
0.00099755767
0.00099814874
0.00099833303
0.00099843863
0.00099849217
0.00099852313
0.00099854127
0.00099856109
0.00099856893
0.00099856893
0.00099856109
0.00099854127
0.00099852313
0.00099849217
0.00099843864
0.00099833304
0.00099814876
0.00099755769
0.00099533179
0.00084720675
0.00092539097
0.00094647718
0.00095345559
0.00095774471
0.00095995636
0.00096124116
0.00096192256
0.00096257855
0.00096285557
0.00096285561
0.00096257865
0.00096192273
0.00096124139
0.00095995667
0.00095774508
0.00095345605
0.00094647776
0.00092539198
0.00084720974
1e-05
1e-05
1e-05
1e-05
1e-05
1e-05
1e-05
1e-05
1e-05
1e-05
1e-05
1e-05
1e-05
1e-05
1e-05
1e-05
1e-05
1e-05
1e-05
1e-05
1e-05
1e-05
1e-05
1e-05
1e-05
1e-05
1e-05
1e-05
1e-05
1e-05
1e-05
1e-05
1e-05
1e-05
1e-05
1e-05
1e-05
1e-05
1e-05
1e-05
1e-05
1e-05
1e-05
1e-05
1e-05
1e-05
1e-05
1e-05
1e-05
1e-05
1e-05
1e-05
1e-05
1e-05
1e-05
1e-05
1e-05
1e-05
1e-05
1e-05
1e-05
1e-05
1e-05
1e-05
1e-05
1e-05
1e-05
1e-05
1e-05
1e-05
1e-05
1e-05
1e-05
1e-05
1e-05
1e-05
1e-05
1e-05
1e-05
1e-05
1e-05
1e-05
1e-05
1e-05
1e-05
1e-05
1e-05
1e-05
1e-05
1e-05
1e-05
1e-05
1e-05
1e-05
1e-05
1e-05
1e-05
1e-05
1e-05
1e-05
1e-05
1e-05
1e-05
1e-05
1e-05
1e-05
1e-05
1e-05
1e-05
1e-05
1e-05
1e-05
1e-05
1e-05
1e-05
1e-05
1e-05
1e-05
1e-05
1e-05
1e-05
1e-05
1e-05
1e-05
1e-05
1e-05
1e-05
1e-05
1e-05
1e-05
1e-05
1e-05
1e-05
1e-05
1e-05
1e-05
1e-05
1e-05
1e-05
1e-05
1e-05
1e-05
1e-05
1e-05
1e-05
1e-05
1e-05
1e-05
1e-05
1e-05
1e-05
1e-05
1e-05
1e-05
1e-05
1e-05
1e-05
1e-05
1e-05
1e-05
1e-05
1e-05
1e-05
1e-05
1e-05
1e-05
1e-05
1e-05
1e-05
1e-05
1e-05
1e-05
1e-05
1e-05
1e-05
1e-05
1e-05
1e-05
1e-05
1e-05
1e-05
1e-05
1e-05
1e-05
1e-05
1e-05
1e-05
1e-05
1e-05
1e-05
1e-05
1e-05
1e-05
1e-05
1e-05
1e-05
1e-05
1e-05
1e-05
1e-05
1e-05
1e-05
1e-05
1e-05
1e-05
1e-05
1e-05
1e-05
1e-05
1e-05
1e-05
1e-05
1e-05
1e-05
1e-05
1e-05
1e-05
1e-05
1e-05
1e-05
1e-05
1e-05
1e-05
1e-05
1e-05
1e-05
1e-05
1e-05
1e-05
1e-05
1e-05
1e-05
1e-05
1e-05
1e-05
1e-05
1e-05
1e-05
1e-05
1e-05
1e-05
1e-05
1e-05
1e-05
1e-05
1e-05
1e-05
1e-05
1e-05
1e-05
1e-05
1e-05
1e-05
1e-05
1e-05
1e-05
1e-05
1e-05
1e-05
1e-05
1e-05
1e-05
1e-05
1e-05
1e-05
1e-05
1e-05
1e-05
1e-05
1e-05
1e-05
1e-05
1e-05
1e-05
1e-05
1e-05
1e-05
1e-05
1e-05
1e-05
1e-05
1e-05
1e-05
1e-05
1e-05
1e-05
1e-05
1e-05
1e-05
1e-05
1e-05
1e-05
1e-05
1e-05
1e-05
1e-05
1e-05
1e-05
1e-05
1e-05
1e-05
1e-05
1e-05
1e-05
1e-05
1e-05
1e-05
1e-05
1e-05
1e-05
1e-05
1e-05
1e-05
1e-05
1e-05
1e-05
1e-05
1e-05
1e-05
1e-05
1e-05
1e-05
1e-05
1e-05
1e-05
1e-05
1e-05
1e-05
1e-05
1e-05
1e-05
1e-05
1e-05
1e-05
1e-05
1e-05
1e-05
1e-05
1e-05
1e-05
1e-05
1e-05
1e-05
1e-05
1e-05
1e-05
1e-05
1e-05
1e-05
1e-05
1e-05
1e-05
1e-05
1e-05
1e-05
1e-05
1e-05
1e-05
1e-05
1e-05
1e-05
1e-05
1e-05
1e-05
1e-05
1e-05
1e-05
1e-05
1e-05
1e-05
1e-05
1e-05
1e-05
1e-05
1e-05
1e-05
1e-05
1e-05
1e-05
1e-05
1e-05
1e-05
1e-05
1e-05
1e-05
1e-05
1e-05
1e-05
1e-05
1e-05
1e-05
1e-05
1e-05
1e-05
1e-05
1e-05
1e-05
1e-05
1e-05
1e-05
1e-05
1e-05
1e-05
1e-05
1e-05
1e-05
1e-05
1e-05
1e-05
1e-05
1e-05
1e-05
1e-05
1e-05
1e-05
1e-05
1e-05
1e-05
1e-05
1e-05
)
;

boundaryField
{
    Wall
    {
        type            zeroGradient;
    }
    frontAndBack
    {
        type            empty;
    }
    atmosphere
    {
        type            zeroGradient;
    }
}


// ************************************************************************* //
