/*--------------------------------*- C++ -*----------------------------------*\
| =========                 |                                                 |
| \\      /  F ield         | OpenFOAM: The Open Source CFD Toolbox           |
|  \\    /   O peration     | Version:  3.0.1                                 |
|   \\  /    A nd           | Web:      www.OpenFOAM.org                      |
|    \\/     M anipulation  |                                                 |
\*---------------------------------------------------------------------------*/
FoamFile
{
    version     2.0;
    format      ascii;
    class       volScalarField;
    location    "27";
    object      mZero;
}
// * * * * * * * * * * * * * * * * * * * * * * * * * * * * * * * * * * * * * //

dimensions      [0 0 0 0 0 0 0];

internalField   nonuniform List<scalar> 
800
(
1e+13
1e+13
1e+13
1e+13
1e+13
1e+13
1e+13
1e+13
1e+13
1e+13
1e+13
1e+13
1e+13
1e+13
1e+13
1e+13
1e+13
1e+13
1e+13
1e+13
1e+13
1e+13
1e+13
1e+13
1e+13
1e+13
1e+13
1e+13
1e+13
1e+13
1e+13
1e+13
1e+13
1e+13
1e+13
1e+13
1e+13
1e+13
1e+13
1e+13
9.8953438e+12
9.8978163e+12
9.8987388e+12
9.8989787e+12
9.8989999e+12
9.898966e+12
9.8989281e+12
9.8989e+12
9.8988827e+12
9.8988749e+12
9.8988749e+12
9.8988827e+12
9.8988999e+12
9.898928e+12
9.8989659e+12
9.8989997e+12
9.8989785e+12
9.8987386e+12
9.897816e+12
9.8953434e+12
9.7063644e+12
9.7133567e+12
9.7156182e+12
9.7161631e+12
9.7162042e+12
9.7161112e+12
9.7160107e+12
9.7159359e+12
9.7158893e+12
9.7158677e+12
9.7158677e+12
9.7158893e+12
9.7159357e+12
9.7160105e+12
9.7161109e+12
9.7162039e+12
9.7161627e+12
9.7156178e+12
9.7133562e+12
9.7063636e+12
9.4511336e+12
9.4642032e+12
9.4680085e+12
9.4688711e+12
9.4689075e+12
9.4687281e+12
9.4685455e+12
9.4684105e+12
9.4683261e+12
9.4682867e+12
9.4682867e+12
9.4683259e+12
9.4684103e+12
9.4685452e+12
9.4687277e+12
9.4689069e+12
9.4688704e+12
9.4680077e+12
9.4642024e+12
9.4511325e+12
9.1455459e+12
9.1657966e+12
9.1712635e+12
9.1724393e+12
9.1724362e+12
9.172146e+12
9.1718664e+12
9.171662e+12
9.1715347e+12
9.1714753e+12
9.1714752e+12
9.1715345e+12
9.1716617e+12
9.1718659e+12
9.1721454e+12
9.1724355e+12
9.1724384e+12
9.1712625e+12
9.1657956e+12
9.1455446e+12
8.8031029e+12
8.8314747e+12
8.838669e+12
8.8401416e+12
8.8400572e+12
8.8396338e+12
8.8392475e+12
8.8389691e+12
8.8387971e+12
8.8387169e+12
8.8387168e+12
8.8387969e+12
8.8389687e+12
8.839247e+12
8.8396331e+12
8.8400564e+12
8.8401407e+12
8.838668e+12
8.8314737e+12
8.8031017e+12
8.4349637e+12
8.4722966e+12
8.4813491e+12
8.4831157e+12
8.4829e+12
8.4823253e+12
8.4818293e+12
8.4814782e+12
8.4812628e+12
8.4811625e+12
8.4811625e+12
8.4812626e+12
8.4814777e+12
8.4818286e+12
8.4823246e+12
8.4828991e+12
8.4831148e+12
8.4813482e+12
8.4722957e+12
8.4349626e+12
8.0499387e+12
8.0970121e+12
8.108172e+12
8.1102788e+12
8.1099304e+12
8.1091887e+12
8.1085907e+12
8.1081755e+12
8.1079208e+12
8.1078022e+12
8.1078021e+12
8.1079205e+12
8.1081751e+12
8.10859e+12
8.109188e+12
8.1099296e+12
8.110278e+12
8.1081712e+12
8.0970114e+12
8.0499379e+12
7.6544678e+12
7.7121149e+12
7.7257794e+12
7.7283509e+12
7.7279053e+12
7.7270329e+12
7.7263572e+12
7.7258938e+12
7.7256043e+12
7.7254696e+12
7.7254695e+12
7.725604e+12
7.7258934e+12
7.7263566e+12
7.7270322e+12
7.7279046e+12
7.7283502e+12
7.7257788e+12
7.7121143e+12
7.6544671e+12
7.2527169e+12
7.3218591e+12
7.3386822e+12
7.3419662e+12
7.3415191e+12
7.3405895e+12
7.3398675e+12
7.3393741e+12
7.3390489e+12
7.3388988e+12
7.3388987e+12
7.3390486e+12
7.3393736e+12
7.339867e+12
7.340589e+12
7.3415185e+12
7.3419657e+12
7.3386816e+12
7.3218586e+12
7.2527164e+12
6.8468026e+12
6.9284728e+12
6.9494733e+12
6.9538923e+12
6.9536501e+12
6.9527471e+12
6.9520036e+12
6.9514966e+12
6.95111e+12
6.9509426e+12
6.9509425e+12
6.9511097e+12
6.9514962e+12
6.9520031e+12
6.9527466e+12
6.9536496e+12
6.9538918e+12
6.9494728e+12
6.9284723e+12
6.846802e+12
6.4368878e+12
6.5323554e+12
6.5590149e+12
6.5652254e+12
6.565498e+12
6.5647077e+12
6.5639516e+12
6.5634461e+12
6.5630168e+12
6.5628273e+12
6.5628272e+12
6.5630166e+12
6.5634457e+12
6.5639511e+12
6.5647073e+12
6.5654976e+12
6.565225e+12
6.5590143e+12
6.5323549e+12
6.4368872e+12
6.0208198e+12
6.1317788e+12
6.1662054e+12
6.1753499e+12
6.176605e+12
6.1760296e+12
6.1752535e+12
6.1747406e+12
6.1743033e+12
6.1740459e+12
6.1740458e+12
6.1743031e+12
6.1747402e+12
6.175253e+12
6.1760292e+12
6.1766046e+12
6.1753495e+12
6.1662049e+12
6.1317782e+12
6.0208192e+12
5.5971525e+12
5.7257362e+12
5.7710411e+12
5.7848849e+12
5.7878357e+12
5.7876124e+12
5.7867449e+12
5.7861621e+12
5.7857384e+12
5.7854384e+12
5.7854383e+12
5.7857381e+12
5.7861617e+12
5.7867445e+12
5.787612e+12
5.7878354e+12
5.7848846e+12
5.7710406e+12
5.7257357e+12
5.597152e+12
5.1600325e+12
5.3092584e+12
5.37007e+12
5.3914051e+12
5.3971693e+12
5.3974927e+12
5.3965333e+12
5.3957498e+12
5.3952983e+12
5.3949345e+12
5.3949344e+12
5.395298e+12
5.3957494e+12
5.3965329e+12
5.3974923e+12
5.3971689e+12
5.3914048e+12
5.3700695e+12
5.309258e+12
5.1600323e+12
4.6983823e+12
4.8728108e+12
4.9558667e+12
4.9889583e+12
4.9994198e+12
5.0008867e+12
4.9997898e+12
4.9985713e+12
4.9978793e+12
4.9973876e+12
4.9973874e+12
4.997879e+12
4.9985709e+12
4.9997895e+12
5.0008864e+12
4.9994196e+12
4.988958e+12
4.9558664e+12
4.8728106e+12
4.6983826e+12
4.1949965e+12
4.4022376e+12
4.5174835e+12
4.5689919e+12
4.5871797e+12
4.59064e+12
4.5892307e+12
4.5871946e+12
4.5862364e+12
4.5854894e+12
4.5854892e+12
4.5862361e+12
4.5871942e+12
4.5892304e+12
4.5906398e+12
4.5871795e+12
4.5689918e+12
4.5174834e+12
4.4022378e+12
4.1949976e+12
3.6244196e+12
3.8763142e+12
4.0383706e+12
4.1187219e+12
4.1504052e+12
4.1575641e+12
4.1557171e+12
4.1522441e+12
4.1502272e+12
4.1489224e+12
4.1489222e+12
4.150227e+12
4.1522436e+12
4.1557169e+12
4.157564e+12
4.1504051e+12
4.1187219e+12
4.0383707e+12
3.8763149e+12
3.6244217e+12
2.934302e+12
3.255647e+12
3.4882008e+12
3.6146921e+12
3.6697342e+12
3.6843276e+12
3.682484e+12
3.6767993e+12
3.67282e+12
3.6704407e+12
3.6704405e+12
3.6728197e+12
3.6767989e+12
3.6824839e+12
3.6843277e+12
3.6697344e+12
3.6146924e+12
3.4882013e+12
3.2556486e+12
2.9343055e+12
2.1074223e+12
2.5190124e+12
2.8358034e+12
3.0278421e+12
3.1205415e+12
3.1490128e+12
3.1480972e+12
3.1387717e+12
3.1312348e+12
3.1267305e+12
3.1267303e+12
3.1312345e+12
3.1387714e+12
3.1480972e+12
3.149013e+12
3.1205418e+12
3.0278425e+12
2.8358043e+12
2.5190144e+12
2.1074268e+12
1.2492766e+12
1.7989316e+12
2.1838944e+12
2.4336812e+12
2.5662432e+12
2.6126572e+12
2.6133749e+12
2.59891e+12
2.5857724e+12
2.5779248e+12
2.5779246e+12
2.585772e+12
2.5989096e+12
2.6133749e+12
2.6126573e+12
2.5662434e+12
2.4336815e+12
2.1838952e+12
1.7989334e+12
1.2492809e+12
5.677699e+11
1.1969119e+12
1.6251024e+12
1.9087646e+12
2.0666721e+12
2.1258943e+12
2.1273214e+12
2.1072962e+12
2.0878802e+12
2.0762044e+12
2.0762041e+12
2.0878797e+12
2.1072956e+12
2.1273212e+12
2.1258942e+12
2.066672e+12
1.9087647e+12
1.6251029e+12
1.1969132e+12
5.6777285e+11
1.9525127e+11
7.4796198e+11
1.1742674e+12
1.4671816e+12
1.635171e+12
1.7008677e+12
1.7028233e+12
1.6791467e+12
1.6550812e+12
1.6404356e+12
1.6404352e+12
1.6550806e+12
1.6791459e+12
1.7028228e+12
1.7008674e+12
1.6351706e+12
1.4671814e+12
1.1742676e+12
7.479629e+11
1.9525266e+11
5.2549296e+10
4.4040847e+11
8.2435823e+11
1.1045817e+12
1.2699898e+12
1.3369191e+12
1.3398727e+12
1.3155666e+12
1.2898052e+12
1.2739118e+12
1.2739113e+12
1.2898044e+12
1.3155655e+12
1.3398719e+12
1.3369185e+12
1.2699892e+12
1.1045813e+12
8.2435821e+11
4.4040905e+11
5.2549789e+10
1.1715247e+10
2.4373851e+11
5.6106781e+11
8.1249166e+11
9.6601936e+11
1.0303305e+12
1.0347672e+12
1.0125617e+12
9.8800076e+11
9.7263216e+11
9.7263169e+11
9.8799984e+11
1.0125606e+12
1.0347662e+12
1.0303298e+12
9.6601873e+11
8.1249119e+11
5.610677e+11
2.4373885e+11
1.1715383e+10
2.2902458e+09
1.2671767e+11
3.6915051e+11
5.8224382e+11
7.1786933e+11
7.7690931e+11
7.8295646e+11
7.6458324e+11
7.4324221e+11
7.2969147e+11
7.2969101e+11
7.4324129e+11
7.6458206e+11
7.8295548e+11
7.769085e+11
7.178687e+11
5.8224338e+11
3.691504e+11
1.2671788e+11
2.2902772e+09
4.1048373e+08
6.2130846e+10
2.3427639e+11
4.0554108e+11
5.2011015e+11
5.721789e+11
5.7953464e+11
5.6563141e+11
5.4846295e+11
5.3738553e+11
5.3738511e+11
5.4846208e+11
5.656303e+11
5.7953369e+11
5.7217813e+11
5.2010958e+11
4.0554073e+11
2.342763e+11
6.2130964e+10
4.1049013e+08
69512692
2.8915738e+10
1.432957e+11
2.7413893e+11
3.6689392e+11
4.1108474e+11
4.1914638e+11
4.094986e+11
3.9657508e+11
3.8807983e+11
3.8807946e+11
3.9657431e+11
4.0949761e+11
4.1914554e+11
4.1108408e+11
3.6689347e+11
2.7413869e+11
1.4329568e+11
2.8915805e+10
69513869
11332071
1.2858726e+10
8.4509268e+10
1.79742e+11
2.5180646e+11
2.8790993e+11
2.9598125e+11
2.8987328e+11
2.8070745e+11
2.7454445e+11
2.7454414e+11
2.8070681e+11
2.8987244e+11
2.9598055e+11
2.879094e+11
2.5180612e+11
1.7974186e+11
8.4509277e+10
1.2858765e+10
11332275
1798181
5.4947277e+09
4.8115288e+10
1.143154e+11
1.6810844e+11
1.9650627e+11
2.0398135e+11
2.0051564e+11
1.9436432e+11
1.9010977e+11
1.9010953e+11
1.943638e+11
2.0051496e+11
2.0398078e+11
1.9650585e+11
1.6810819e+11
1.1431532e+11
4.811531e+10
5.4947484e+09
1798215
279489.57
2.2661175e+09
2.6489817e+10
7.0561953e+10
1.09192e+11
1.307065e+11
1.3717643e+11
1.3549641e+11
1.3158159e+11
1.2877507e+11
1.2877488e+11
1.3158118e+11
1.3549588e+11
1.3717599e+11
1.3070619e+11
1.0919183e+11
7.0561919e+10
2.6489839e+10
2.2661277e+09
279495.2
42697.438
9.0496492e+08
1.4126652e+10
4.2305761e+10
6.903421e+10
8.474692e+10
9.0023967e+10
8.9432022e+10
8.7069033e+10
8.5294928e+10
8.529479e+10
8.7068731e+10
8.9431624e+10
9.0023636e+10
8.4746692e+10
6.9034094e+10
4.2305747e+10
1.4126669e+10
9.0496973e+08
42698.364
6432.8854
3.5079526e+08
7.3093195e+09
2.4660422e+10
4.2508013e+10
5.3583095e+10
5.7666224e+10
5.7658634e+10
5.6308957e+10
5.5232322e+10
5.5232223e+10
5.6308739e+10
5.7658345e+10
5.7665983e+10
5.3582932e+10
4.2507934e+10
2.4660418e+10
7.309332e+09
3.5079741e+08
6433.0577
986.12133
1.3223545e+08
3.6748605e+09
1.3989409e+10
2.5509748e+10
3.3053823e+10
3.606728e+10
3.6317865e+10
3.5592585e+10
3.4964824e+10
3.4964755e+10
3.5592432e+10
3.631766e+10
3.606711e+10
3.305371e+10
2.5509695e+10
1.3989409e+10
3.6748684e+09
1.3223637e+08
986.25526
258.71953
48544322
1.797667e+09
7.7306361e+09
1.4930717e+10
1.9904099e+10
2.2034893e+10
2.2355464e+10
2.1993152e+10
2.1641528e+10
2.1641482e+10
2.1993048e+10
2.2355325e+10
2.2034778e+10
1.9904023e+10
1.4930682e+10
7.7306368e+09
1.7976716e+09
48544701
258.64144
258.84879
17377374
8.5663261e+08
4.1653212e+09
8.5291432e+09
1.1706818e+10
1.3155669e+10
1.3452697e+10
1.3288646e+10
1.309971e+10
1.309968e+10
1.3288578e+10
1.3452605e+10
1.3155593e+10
1.1706768e+10
8.5291216e+09
4.1653222e+09
8.5663526e+08
17377527
259.02046
206.17902
6077998.4
3.9806444e+08
2.1901565e+09
4.7586596e+09
6.7291887e+09
7.6794608e+09
7.9172484e+09
7.8539697e+09
7.7568799e+09
7.7568609e+09
7.8539262e+09
7.9171896e+09
7.6794118e+09
6.7291573e+09
4.7586464e+09
2.1901573e+09
3.9806589e+08
6078075.9
206.35677
86.23311
2081682.1
1.8056037e+08
1.1247179e+09
2.5948437e+09
3.7823706e+09
4.3851228e+09
4.5589978e+09
4.5423844e+09
4.4949391e+09
4.4949274e+09
4.5423574e+09
4.5589613e+09
4.3850924e+09
3.7823514e+09
2.594836e+09
1.1247184e+09
1.8056116e+08
2081722.6
86.339774
26.410238
697403.54
80021410
5.6452602e+08
1.383772e+09
2.0801166e+09
2.4506702e+09
2.5697655e+09
2.5718695e+09
2.5500472e+09
2.5500402e+09
2.5718532e+09
2.5697435e+09
2.4506518e+09
2.0801051e+09
1.3837675e+09
5.6452638e+08
80021843
697422.83
26.46685
)
;

boundaryField
{
    Wall
    {
        type            zeroGradient;
    }
    frontAndBack
    {
        type            empty;
    }
    atmosphere
    {
        type            zeroGradient;
    }
}


// ************************************************************************* //
