/*--------------------------------*- C++ -*----------------------------------*\
| =========                 |                                                 |
| \\      /  F ield         | OpenFOAM: The Open Source CFD Toolbox           |
|  \\    /   O peration     | Version:  3.0.1                                 |
|   \\  /    A nd           | Web:      www.OpenFOAM.org                      |
|    \\/     M anipulation  |                                                 |
\*---------------------------------------------------------------------------*/
FoamFile
{
    version     2.0;
    format      ascii;
    class       volScalarField;
    location    "27";
    object      node1;
}
// * * * * * * * * * * * * * * * * * * * * * * * * * * * * * * * * * * * * * //

dimensions      [0 0 0 0 0 0 0];

internalField   nonuniform List<scalar> 
800
(
1.281979e-12
1.2820984e-12
1.2821155e-12
1.2821162e-12
1.2821154e-12
1.2821149e-12
1.2821147e-12
1.2821147e-12
1.2821147e-12
1.2821147e-12
1.2821147e-12
1.2821147e-12
1.2821147e-12
1.2821147e-12
1.2821149e-12
1.2821154e-12
1.2821162e-12
1.2821155e-12
1.2820985e-12
1.281979e-12
1.2522209e-12
1.2538248e-12
1.2541506e-12
1.2542006e-12
1.2541902e-12
1.2541746e-12
1.2541646e-12
1.2541599e-12
1.2541582e-12
1.2541577e-12
1.2541577e-12
1.2541582e-12
1.2541599e-12
1.2541646e-12
1.2541746e-12
1.2541902e-12
1.2542006e-12
1.2541506e-12
1.2538248e-12
1.2522209e-12
1.2361951e-12
1.2383544e-12
1.2389606e-12
1.2390555e-12
1.2390506e-12
1.2390342e-12
1.2390243e-12
1.2390207e-12
1.2390204e-12
1.2390207e-12
1.2390207e-12
1.2390203e-12
1.2390207e-12
1.2390243e-12
1.2390342e-12
1.2390506e-12
1.2390555e-12
1.2389606e-12
1.2383544e-12
1.236195e-12
1.2342839e-12
1.2364842e-12
1.2372527e-12
1.2373641e-12
1.2373612e-12
1.2373477e-12
1.237342e-12
1.2373427e-12
1.2373455e-12
1.2373476e-12
1.2373476e-12
1.2373455e-12
1.2373427e-12
1.237342e-12
1.2373477e-12
1.2373612e-12
1.2373641e-12
1.2372527e-12
1.2364841e-12
1.2342838e-12
1.2463635e-12
1.2481239e-12
1.24895e-12
1.2490918e-12
1.2490856e-12
1.2490756e-12
1.249076e-12
1.2490826e-12
1.2490899e-12
1.2490942e-12
1.2490942e-12
1.2490899e-12
1.2490826e-12
1.249076e-12
1.2490756e-12
1.2490856e-12
1.2490918e-12
1.24895e-12
1.2481239e-12
1.2463635e-12
1.2719547e-12
1.272791e-12
1.2735622e-12
1.2737524e-12
1.2737362e-12
1.2737281e-12
1.2737349e-12
1.2737478e-12
1.2737598e-12
1.2737666e-12
1.2737666e-12
1.2737598e-12
1.2737479e-12
1.2737349e-12
1.2737282e-12
1.2737362e-12
1.2737525e-12
1.2735623e-12
1.2727911e-12
1.2719547e-12
1.3105663e-12
1.3102753e-12
1.3108676e-12
1.3111193e-12
1.3110898e-12
1.3110827e-12
1.3110955e-12
1.3111147e-12
1.3111312e-12
1.3111405e-12
1.3111405e-12
1.3111313e-12
1.3111147e-12
1.3110956e-12
1.3110828e-12
1.3110899e-12
1.3111194e-12
1.3108677e-12
1.3102755e-12
1.3105664e-12
1.3604253e-12
1.3589276e-12
1.3591777e-12
1.3594862e-12
1.3594406e-12
1.3594315e-12
1.3594478e-12
1.3594712e-12
1.3594913e-12
1.3595023e-12
1.3595023e-12
1.3594913e-12
1.3594712e-12
1.3594479e-12
1.3594316e-12
1.3594407e-12
1.3594863e-12
1.3591778e-12
1.3589278e-12
1.3604255e-12
1.419451e-12
1.4169347e-12
1.416662e-12
1.4170041e-12
1.4170233e-12
1.4170066e-12
1.4170203e-12
1.4170436e-12
1.417065e-12
1.4170768e-12
1.4170768e-12
1.417065e-12
1.4170437e-12
1.4170204e-12
1.4170067e-12
1.4170234e-12
1.4170042e-12
1.4166622e-12
1.4169348e-12
1.4194511e-12
1.484664e-12
1.4818046e-12
1.480805e-12
1.4811408e-12
1.4813684e-12
1.4814521e-12
1.4814518e-12
1.481468e-12
1.4814873e-12
1.4814983e-12
1.4814983e-12
1.4814874e-12
1.481468e-12
1.4814518e-12
1.4814522e-12
1.4813685e-12
1.4811409e-12
1.4808051e-12
1.4818047e-12
1.4846641e-12
1.5523322e-12
1.550229e-12
1.5484768e-12
1.5487526e-12
1.5494375e-12
1.5497968e-12
1.549765e-12
1.5497641e-12
1.5497772e-12
1.5497851e-12
1.5497851e-12
1.5497772e-12
1.5497641e-12
1.5497651e-12
1.5497969e-12
1.5494376e-12
1.5487527e-12
1.5484769e-12
1.5502291e-12
1.5523324e-12
1.6183394e-12
1.6181759e-12
1.6161445e-12
1.6162733e-12
1.6177365e-12
1.618474e-12
1.6183892e-12
1.6183573e-12
1.6183575e-12
1.6183592e-12
1.6183592e-12
1.6183575e-12
1.6183573e-12
1.6183892e-12
1.6184741e-12
1.6177366e-12
1.6162734e-12
1.6161446e-12
1.618176e-12
1.6183395e-12
1.6782233e-12
1.6811864e-12
1.6798533e-12
1.679596e-12
1.6820473e-12
1.6831376e-12
1.6829751e-12
1.6828881e-12
1.6831416e-12
1.6831246e-12
1.6831246e-12
1.6831416e-12
1.6828882e-12
1.6829752e-12
1.6831376e-12
1.6820473e-12
1.6795961e-12
1.6798534e-12
1.6811864e-12
1.6782234e-12
1.7261724e-12
1.7339319e-12
1.7343359e-12
1.734018e-12
1.7374594e-12
1.7387942e-12
1.7385357e-12
1.7383757e-12
1.7389921e-12
1.738943e-12
1.738943e-12
1.7389921e-12
1.7383757e-12
1.7385357e-12
1.7387942e-12
1.7374594e-12
1.7340181e-12
1.734336e-12
1.733932e-12
1.7261724e-12
1.749693e-12
1.7643448e-12
1.7670916e-12
1.7670289e-12
1.7712883e-12
1.772758e-12
1.7723114e-12
1.7720909e-12
1.773107e-12
1.773644e-12
1.773644e-12
1.773107e-12
1.7720909e-12
1.7723114e-12
1.772758e-12
1.7712883e-12
1.7670289e-12
1.7670916e-12
1.7643448e-12
1.7496929e-12
1.7443022e-12
1.7676033e-12
1.7732174e-12
1.774381e-12
1.7792119e-12
1.7805766e-12
1.7796987e-12
1.7794485e-12
1.7808864e-12
1.7822681e-12
1.7822681e-12
1.7808864e-12
1.7794484e-12
1.7796986e-12
1.7805765e-12
1.7792118e-12
1.774381e-12
1.7732173e-12
1.7676032e-12
1.744302e-12
1.7055214e-12
1.738732e-12
1.7480201e-12
1.750497e-12
1.7569469e-12
1.7580574e-12
1.7570209e-12
1.7567732e-12
1.7583773e-12
1.7603979e-12
1.7603979e-12
1.7583773e-12
1.7567732e-12
1.7570208e-12
1.7580573e-12
1.7569469e-12
1.7504969e-12
1.7480201e-12
1.7387318e-12
1.7055212e-12
1.6264123e-12
1.6694623e-12
1.6828386e-12
1.6860745e-12
1.69459e-12
1.6959981e-12
1.6952152e-12
1.6950433e-12
1.6971057e-12
1.6995382e-12
1.6995382e-12
1.6971057e-12
1.6950433e-12
1.6952152e-12
1.6959981e-12
1.6945899e-12
1.6860744e-12
1.6828385e-12
1.6694622e-12
1.6264121e-12
1.5131384e-12
1.5618721e-12
1.5771408e-12
1.5796813e-12
1.5896648e-12
1.5914516e-12
1.5910025e-12
1.5909255e-12
1.5939454e-12
1.5965282e-12
1.5965282e-12
1.5939454e-12
1.5909255e-12
1.5910025e-12
1.5914516e-12
1.5896647e-12
1.5796812e-12
1.5771406e-12
1.5618719e-12
1.5131383e-12
0
0
0
0
0
0
0
0
0
0
0
0
0
0
0
0
0
0
0
0
0
0
0
0
0
0
0
0
0
0
0
0
0
0
0
0
0
0
0
0
0
0
0
0
0
0
0
0
0
0
0
0
0
0
0
0
0
0
0
0
0
0
0
0
0
0
0
0
0
0
0
0
0
0
0
0
0
0
0
0
0
0
0
0
0
0
0
0
0
0
0
0
0
0
0
0
0
0
0
0
0
0
0
0
0
0
0
0
0
0
0
0
0
0
0
0
0
0
0
0
0
0
0
0
0
0
0
0
0
0
0
0
0
0
0
0
0
0
0
0
0
0
0
0
0
0
0
0
0
0
0
0
0
0
0
0
0
0
0
0
0
0
0
0
0
0
0
0
0
0
0
0
0
0
0
0
0
0
0
0
0
0
0
0
0
0
0
0
0
0
0
0
0
0
0
0
0
0
0
0
0
0
0
0
0
0
0
0
0
0
0
0
0
0
0
0
0
0
0
0
0
0
0
0
0
0
0
0
0
0
0
0
0
0
0
0
0
0
0
0
0
0
0
0
0
0
0
0
0
0
0
0
0
0
0
0
0
0
0
0
0
0
0
0
0
0
0
0
0
0
0
0
0
0
0
0
0
0
0
0
0
0
0
0
0
0
0
0
0
0
0
0
0
0
0
0
0
0
0
0
0
0
0
0
0
0
0
0
0
0
0
0
0
0
0
0
0
0
0
0
0
0
0
0
0
0
0
0
0
0
0
0
0
0
0
0
0
0
0
0
0
0
0
0
0
0
0
0
0
0
0
0
0
0
0
0
0
0
0
0
0
0
0
0
0
0
0
0
0
0
0
0
0
0
0
0
0
0
0
0
0
0
0
0
0
0
0
0
0
0
0
0
0
0
0
0
0
0
0
0
0
0
0
0
0
0
0
0
0
0
0
0
0
0
0
0
0
0
0
0
)
;

boundaryField
{
    Wall
    {
        type            zeroGradient;
    }
    frontAndBack
    {
        type            empty;
    }
    atmosphere
    {
        type            zeroGradient;
    }
}


// ************************************************************************* //
