/*--------------------------------*- C++ -*----------------------------------*\
| =========                 |                                                 |
| \\      /  F ield         | OpenFOAM: The Open Source CFD Toolbox           |
|  \\    /   O peration     | Version:  3.0.1                                 |
|   \\  /    A nd           | Web:      www.OpenFOAM.org                      |
|    \\/     M anipulation  |                                                 |
\*---------------------------------------------------------------------------*/
FoamFile
{
    version     2.0;
    format      ascii;
    class       surfaceScalarField;
    location    "27";
    object      phi;
}
// * * * * * * * * * * * * * * * * * * * * * * * * * * * * * * * * * * * * * //

dimensions      [0 3 -1 0 0 0 0];

internalField   nonuniform List<scalar> 
1540
(
4.0551571e-10
1.7097618e-08
5.1710461e-10
1.7398557e-08
5.1587845e-10
1.7512497e-08
4.6078035e-10
1.756622e-08
3.851956e-10
1.7586465e-08
3.0467553e-10
1.7591273e-08
2.2525407e-10
1.7590136e-08
1.4834995e-10
1.7587625e-08
7.353227e-11
1.7585556e-08
-1.683998e-13
1.7584451e-08
-7.3865176e-11
1.7584447e-08
-1.4867213e-10
1.7585544e-08
-2.2555853e-10
1.7587605e-08
-3.0495676e-10
1.759011e-08
-3.8545085e-10
1.7591242e-08
-4.6100551e-10
1.758643e-08
-5.1606715e-10
1.7566176e-08
-5.1724519e-10
1.7512439e-08
-4.0561407e-10
1.7398502e-08
1.709751e-08
2.487988e-10
3.4803168e-08
4.2636695e-10
3.5167857e-08
4.6315671e-10
3.5424579e-08
4.3242947e-10
3.5546231e-08
3.7127266e-10
3.5596871e-08
2.9867615e-10
3.561292e-08
2.2315893e-10
3.5614491e-08
1.4789137e-10
3.5611561e-08
7.3587727e-11
3.5608414e-08
-9.3792501e-14
3.560663e-08
-7.3773452e-11
3.5606623e-08
-1.4807189e-10
3.5608394e-08
-2.2333069e-10
3.5611529e-08
-2.9883556e-10
3.5614449e-08
-3.7141778e-10
3.5612869e-08
-4.325582e-10
3.5596811e-08
-4.6326789e-10
3.5546161e-08
-4.2646422e-10
3.5424495e-08
-2.4886586e-10
3.5167759e-08
3.480298e-08
3.458694e-10
5.2757548e-08
4.4609505e-10
5.3357974e-08
4.5686125e-10
5.3705716e-08
4.1911345e-10
5.3876779e-08
3.5852981e-10
5.3950279e-08
2.8873345e-10
5.3975196e-08
2.161816e-10
5.3979108e-08
1.435167e-10
5.3975939e-08
7.1478697e-11
5.3971923e-08
-6.2464817e-14
5.396952e-08
-7.1602452e-11
5.3969511e-08
-1.4363705e-10
5.3971897e-08
-2.1629691e-10
5.3975898e-08
-2.8884148e-10
5.3979053e-08
-3.5862807e-10
5.3975128e-08
-4.1920007e-10
5.3950198e-08
-4.569344e-10
5.3876685e-08
-4.4615225e-10
5.3705605e-08
-3.4589765e-10
5.3357834e-08
5.2757324e-08
3.4746786e-10
7.099188e-08
4.4655035e-10
7.1828931e-08
4.4855269e-10
7.2275301e-08
4.0653006e-10
7.2493177e-08
3.4530449e-10
7.258601e-08
2.7707955e-10
7.2617448e-08
2.071219e-10
7.2622486e-08
1.3742128e-10
7.2618539e-08
6.8439756e-11
7.261344e-08
-4.7266231e-14
7.261036e-08
-6.8533214e-11
7.261035e-08
-1.3751248e-10
7.2613409e-08
-2.0720889e-10
7.2618489e-08
-2.7716104e-10
7.2622418e-08
-3.4537823e-10
7.2617364e-08
-4.0659413e-10
7.2585911e-08
-4.4860578e-10
7.2493062e-08
-4.465902e-10
7.2275166e-08
-3.4749093e-10
7.1828765e-08
7.0991627e-08
3.2609116e-10
8.9518224e-08
4.3370742e-10
9.0559479e-08
4.3543765e-10
9.1113261e-08
3.9212428e-10
9.1379201e-08
3.3098932e-10
9.1490041e-08
2.6435749e-10
9.1526346e-08
1.9700506e-10
9.1531303e-08
1.3046754e-10
9.1525851e-08
6.4919039e-11
9.1519283e-08
-3.8630916e-14
9.151537e-08
-6.4995509e-11
9.1515358e-08
-1.3054188e-10
9.1519248e-08
-1.9707581e-10
9.1525794e-08
-2.6442286e-10
9.1531225e-08
-3.3104658e-10
9.1526248e-08
-3.9217229e-10
9.1489925e-08
-4.3547436e-10
9.1379068e-08
-4.3373165e-10
9.1113106e-08
-3.2610147e-10
9.0559291e-08
8.9517956e-08
3.2817798e-10
1.0836592e-07
4.3056735e-10
1.0961322e-07
4.2687766e-10
1.1027193e-07
3.7919249e-10
1.1058294e-07
3.1681408e-10
1.1070863e-07
2.5120592e-10
1.1074735e-07
1.8627341e-10
1.1075063e-07
1.2295745e-10
1.107427e-07
6.107274e-11
1.107341e-07
-3.1863172e-14
1.107291e-07
-6.1135448e-11
1.1072909e-07
-1.2301801e-10
1.1073406e-07
-1.8633025e-10
1.1074264e-07
-2.5125742e-10
1.1075054e-07
-3.1685758e-10
1.1074725e-07
-3.7922654e-10
1.107085e-07
-4.2690001e-10
1.1058279e-07
-4.3057635e-10
1.1027175e-07
-3.2817619e-10
1.0961302e-07
1.0836565e-07
3.427259e-10
1.2762958e-07
4.3588042e-10
1.290908e-07
4.226315e-10
1.2985128e-07
3.6739961e-10
1.3020211e-07
3.025164e-10
1.3033745e-07
2.3747868e-10
1.3037529e-07
1.7489381e-10
1.3037489e-07
1.1490708e-10
1.3036332e-07
5.6923698e-11
1.3035199e-07
-2.4743798e-14
1.3034559e-07
-5.697228e-11
1.3034558e-07
-1.1495333e-10
1.3035195e-07
-1.7493637e-10
1.3036325e-07
-2.3751525e-10
1.303748e-07
-3.0254499e-10
1.3037518e-07
-3.674181e-10
1.3033731e-07
-4.2263888e-10
1.3020195e-07
-4.3587616e-10
1.298511e-07
-3.4271439e-10
1.2909059e-07
1.2762932e-07
3.6163841e-10
1.4746047e-07
4.4466596e-10
1.491407e-07
4.1871502e-10
1.499983e-07
3.5357723e-10
1.503826e-07
2.8616542e-10
1.5052391e-07
2.2215178e-10
1.5055706e-07
1.6233078e-10
1.5055102e-07
1.0604354e-10
1.5053468e-07
5.2362574e-11
1.5051989e-07
-1.6517956e-14
1.5051174e-07
-5.2394762e-11
1.5051173e-07
-1.060732e-10
1.5051984e-07
-1.6235675e-10
1.5053461e-07
-2.2217214e-10
1.5055092e-07
-2.8617812e-10
1.5055693e-07
-3.5358143e-10
1.5052376e-07
-4.1870929e-10
1.5038242e-07
-4.4465039e-10
1.499981e-07
-3.6161959e-10
1.4914048e-07
1.4746021e-07
3.8270496e-10
1.6803858e-07
4.5297389e-10
1.6994865e-07
4.1109267e-10
1.7089343e-07
3.3570111e-10
1.7130231e-07
2.6512456e-10
1.7144448e-07
2.0392398e-10
1.7147246e-07
1.4789599e-10
1.7145959e-07
9.6049897e-11
1.7143764e-07
4.7223761e-11
1.7141881e-07
-7.6455209e-15
1.7140855e-07
-4.723829e-11
1.7140854e-07
-9.6063175e-11
1.7141877e-07
-1.4790434e-10
1.7143756e-07
-2.0392647e-10
1.7145949e-07
-2.6512091e-10
1.7147233e-07
-3.3569037e-10
1.7144432e-07
-4.110745e-10
1.7130213e-07
-4.5295015e-10
1.7089323e-07
-3.8268206e-10
1.6994843e-07
1.6803834e-07
4.0739141e-10
1.8956335e-07
4.5403436e-10
1.9171862e-07
3.9454914e-10
1.9273709e-07
3.1034667e-10
1.9315904e-07
2.3945553e-10
1.9329697e-07
1.8211968e-10
1.9331885e-07
1.3104985e-10
1.9329771e-07
8.4512779e-11
1.9326953e-07
4.1356176e-11
1.9324609e-07
3.1832575e-15
1.932334e-07
-4.1349557e-11
1.9323339e-07
-8.4503107e-11
1.9324605e-07
-1.310377e-10
1.9326946e-07
-1.8210359e-10
1.9329761e-07
-2.3943507e-10
1.9331872e-07
-3.1032279e-10
1.9329681e-07
-3.9452188e-10
1.9315886e-07
-4.5400464e-10
1.9273687e-07
-4.0736399e-10
1.9171839e-07
1.8956313e-07
4.3454715e-10
2.1226513e-07
4.3812412e-10
2.1467602e-07
3.6137852e-10
2.1575106e-07
2.7358685e-10
2.161688e-07
2.0773383e-10
2.1629616e-07
1.5505259e-10
2.1630691e-07
1.1039844e-10
2.1627539e-07
6.9930778e-11
2.1624111e-07
3.4032843e-11
2.1621135e-07
1.1831108e-14
2.1619607e-07
-3.4006543e-11
2.1619606e-07
-6.9904143e-11
2.1621132e-07
-1.1037041e-10
2.1624105e-07
-1.5502112e-10
2.1627531e-07
-2.0770059e-10
2.163068e-07
-2.7355351e-10
2.1629602e-07
-3.6134735e-10
2.1616865e-07
-4.3809778e-10
2.1575088e-07
-4.3452751e-10
2.1467583e-07
2.1226498e-07
4.5570743e-10
2.3640561e-07
3.9490704e-10
2.3907586e-07
2.984256e-10
2.4017925e-07
2.1856169e-10
2.4055374e-07
1.632662e-10
2.4065348e-07
1.1878067e-10
2.4064346e-07
8.3709652e-11
2.4059943e-07
5.0147824e-11
2.4056098e-07
2.4387645e-11
2.4053965e-07
2.1390207e-14
2.405216e-07
-2.4348876e-11
2.405216e-07
-5.0106382e-11
2.4053962e-07
-8.3664992e-11
2.4056093e-07
-1.187348e-10
2.4059936e-07
-1.6322175e-10
2.4064337e-07
-2.1852072e-10
2.4065337e-07
-2.9839095e-10
2.4055361e-07
-3.948818e-10
2.4017912e-07
-4.557024e-10
2.3907572e-07
2.3640551e-07
4.5190489e-10
2.6220937e-07
3.048064e-10
2.6515039e-07
1.7423894e-10
2.6623195e-07
1.2273273e-10
2.6653295e-07
9.1321626e-11
2.6658003e-07
6.7007458e-11
2.6654015e-07
4.9899796e-11
2.6648511e-07
3.1905678e-11
2.6644411e-07
1.2818783e-11
2.6643665e-07
2.4758469e-14
2.6640941e-07
-1.2767166e-11
2.664094e-07
-3.1853557e-11
2.6643662e-07
-4.9848827e-11
2.6644407e-07
-6.6958194e-11
2.6648504e-07
-9.1274988e-11
2.6654006e-07
-1.2269108e-10
2.6657992e-07
-1.742042e-10
2.6653284e-07
-3.0479094e-10
2.6623183e-07
-4.5190119e-10
2.6515027e-07
2.6220929e-07
3.5918913e-10
2.9127142e-07
1.2737286e-10
2.9439412e-07
-3.6362445e-11
2.9542617e-07
-3.8441697e-11
2.956071e-07
-2.2976606e-11
2.9556899e-07
-5.87952e-12
2.9548964e-07
8.0034791e-12
2.9541631e-07
1.5107264e-11
2.9537211e-07
-5.0353831e-12
2.9538113e-07
3.3924344e-14
2.953832e-07
5.1031172e-12
2.953832e-07
-1.5040861e-11
2.953811e-07
-7.9381292e-12
2.9537207e-07
5.9430509e-12
2.9541625e-07
2.3036017e-11
2.9548956e-07
3.8494997e-11
2.9556889e-07
3.6407603e-11
2.9560699e-07
-1.2733698e-10
2.9542607e-07
-3.5917148e-10
2.9439403e-07
2.9127137e-07
1.163891e-10
3.2329586e-07
-2.1643801e-10
3.2646325e-07
-3.8417265e-10
3.2739896e-07
-3.0731056e-10
3.2748987e-07
-2.0128373e-10
3.2733431e-07
-1.1421548e-10
3.272084e-07
-4.8734428e-11
3.2711787e-07
1.4542248e-12
3.2707355e-07
-8.8963966e-12
3.2711231e-07
3.5744663e-14
3.2714254e-07
8.967717e-12
3.2714253e-07
-1.3837345e-12
3.2711228e-07
4.8802754e-11
3.2707351e-07
1.1428215e-10
3.2711781e-07
2.0134693e-10
3.2720833e-07
3.0737015e-10
3.2733423e-07
3.8422705e-10
3.2748978e-07
2.1647883e-10
3.2739889e-07
-1.1636055e-10
3.2646319e-07
3.2329587e-07
-2.6297523e-10
3.5779973e-07
-7.4095265e-10
3.6077819e-07
-8.5919745e-10
3.6152627e-07
-7.1912135e-10
3.6149903e-07
-4.6038296e-10
3.612939e-07
-2.7067781e-10
3.6118734e-07
-1.2586643e-10
3.6110925e-07
-1.394518e-11
3.6107491e-07
-1.7932181e-12
3.6112633e-07
3.4893549e-14
3.6117315e-07
1.863002e-12
3.6117314e-07
1.4013706e-11
3.6112631e-07
1.2593309e-10
3.6107487e-07
2.707434e-10
3.6110919e-07
4.6044535e-10
3.6118727e-07
7.191835e-10
3.6129383e-07
8.5925987e-10
3.6149896e-07
7.410008e-10
3.6152623e-07
2.6300712e-10
3.6077817e-07
3.577998e-07
-9.5678707e-10
3.9468817e-07
-1.534092e-09
3.9707966e-07
-1.498431e-09
3.9754987e-07
-1.2105889e-09
3.9743538e-07
-7.5126648e-10
3.972009e-07
-4.355496e-10
3.9715908e-07
-2.1692632e-10
3.9710725e-07
-5.1679996e-11
3.9709052e-07
-1.036697e-11
3.9727922e-07
3.0232571e-14
3.9733675e-07
1.0427326e-11
3.9733675e-07
5.1739497e-11
3.972792e-07
2.1698677e-10
3.9709048e-07
4.3561079e-10
3.971072e-07
7.5132524e-10
3.9715903e-07
1.210652e-09
3.9720083e-07
1.4985237e-09
3.9743529e-07
1.5341532e-09
3.9754974e-07
9.5683302e-10
3.9707952e-07
3.9468811e-07
-2.0719652e-09
4.3543582e-07
-2.6024434e-09
4.3553777e-07
-2.2607394e-09
4.356819e-07
-1.7395357e-09
4.3556763e-07
-1.0135334e-09
4.3579073e-07
-5.6956823e-10
4.3579434e-07
-2.8209591e-10
4.3574015e-07
-5.2715695e-11
4.3571502e-07
-1.6104163e-11
4.3577787e-07
2.2953996e-14
4.3581456e-07
1.614891e-11
4.3581455e-07
5.2761211e-11
4.3577784e-07
2.8214291e-10
4.3571498e-07
5.6962819e-10
4.3574008e-07
1.0135817e-09
4.3579424e-07
1.7395714e-09
4.357906e-07
2.2607555e-09
4.3556747e-07
2.6024663e-09
4.3568171e-07
2.0719913e-09
4.3553756e-07
4.3543568e-07
-3.919705e-09
4.7977693e-07
-3.5121784e-09
4.8013135e-07
-2.8190448e-09
4.8065583e-07
-1.8617345e-09
4.8077563e-07
-1.1903893e-09
4.808949e-07
-6.6649274e-10
4.8079644e-07
-3.3535781e-10
4.807453e-07
-7.4769667e-11
4.8070333e-07
-5.2646066e-11
4.8057303e-07
1.3096225e-14
4.8057856e-07
5.2671178e-11
4.8057855e-07
7.4795521e-11
4.80573e-07
3.3537908e-10
4.8070329e-07
6.6650357e-10
4.8074523e-07
1.1904045e-09
4.8079635e-07
1.8617546e-09
4.8089479e-07
2.819039e-09
4.8077552e-07
3.5121892e-09
4.8065578e-07
3.9196931e-09
4.8013138e-07
4.7977719e-07
-5.3218941e-10
4.687893e-07
-1.7079591e-09
4.7600296e-07
-1.8092125e-09
4.7955577e-07
-1.4243624e-09
4.8127661e-07
-9.0267907e-10
4.8256656e-07
-4.7305531e-10
4.8320754e-07
-2.2911007e-10
4.8366666e-07
-8.8405073e-11
4.8391919e-07
-5.7649692e-11
4.8403248e-07
1.7680167e-15
4.8411578e-07
5.7653458e-11
4.8411577e-07
8.8418126e-11
4.8403245e-07
2.2912501e-10
4.8391915e-07
4.7307489e-10
4.8366661e-07
9.0269061e-10
4.8320761e-07
1.4243561e-09
4.8256664e-07
1.8091908e-09
4.8127671e-07
1.7079417e-09
4.7955594e-07
5.3220507e-10
4.7600319e-07
4.6878977e-07
3.0650846e-08
4.3139346e-07
1.8928092e-08
4.7821931e-07
9.9221886e-09
4.7812829e-07
5.5272104e-09
4.7496749e-07
3.4508088e-09
4.7362874e-07
2.2184035e-09
4.7318335e-07
1.4821712e-09
4.7347487e-07
9.1633722e-10
4.7355165e-07
4.2604065e-10
4.7345222e-07
-3.7715254e-14
4.7341583e-07
-4.2611991e-10
4.7341585e-07
-9.1641677e-10
4.7345228e-07
-1.4822482e-09
4.7355176e-07
-2.2183724e-09
4.7347543e-07
-3.4508702e-09
4.7318337e-07
-5.5272547e-09
4.7362876e-07
-9.922201e-09
4.7496752e-07
-1.8928005e-08
4.781283e-07
-3.0650681e-08
4.7821938e-07
4.3139402e-07
7.8615594e-08
3.5244506e-07
8.4542877e-08
4.7157844e-07
6.9090439e-08
4.9266552e-07
5.1444109e-08
4.9161835e-07
3.6801431e-08
4.8719998e-07
2.5657706e-08
4.8320658e-07
1.6853941e-08
4.8043152e-07
1.0251344e-08
4.7898933e-07
4.8697562e-09
4.7820327e-07
-1.0829989e-13
4.7780283e-07
-4.8699902e-09
4.7780297e-07
-1.025159e-08
4.7820363e-07
-1.6853443e-08
4.789899e-07
-2.5657787e-08
4.8043153e-07
-3.6801544e-08
4.8320663e-07
-5.1444153e-08
4.8719996e-07
-6.9090463e-08
4.9161834e-07
-8.4542864e-08
4.9266549e-07
-7.8615699e-08
4.7157865e-07
3.5244542e-07
7.0795034e-08
2.8164896e-07
9.5323973e-08
4.4704385e-07
9.1982471e-08
4.9599773e-07
7.753297e-08
5.0605711e-07
6.0754062e-08
5.039669e-07
4.5113339e-08
4.9883459e-07
3.1566813e-08
4.9396472e-07
1.993427e-08
4.9022658e-07
9.6243642e-09
4.8775991e-07
-4.9714095e-14
4.8650713e-07
-9.6244493e-09
4.8650714e-07
-1.993435e-08
4.8775991e-07
-3.1566898e-08
4.9022659e-07
-4.5113425e-08
4.9396472e-07
-6.0754165e-08
4.9883463e-07
-7.753303e-08
5.0396687e-07
-9.1982526e-08
5.0605712e-07
-9.5323987e-08
4.9599774e-07
-7.0795073e-08
4.4704408e-07
2.8164927e-07
5.15833e-08
2.3006567e-07
8.0761632e-08
4.1786558e-07
8.6879569e-08
4.8987977e-07
7.9648594e-08
5.1328803e-07
6.6614624e-08
5.1700086e-07
5.1969147e-08
5.1347999e-07
3.7685963e-08
5.0824785e-07
2.4371897e-08
5.0354062e-07
1.1940293e-08
5.0019151e-07
-2.6477038e-14
4.9844748e-07
-1.194039e-08
4.9844747e-07
-2.4372002e-08
5.0019151e-07
-3.7686059e-08
5.0354061e-07
-5.1969223e-08
5.0824784e-07
-6.6614634e-08
5.1348001e-07
-7.964863e-08
5.1700084e-07
-8.6879522e-08
5.1328799e-07
-8.0761606e-08
4.8987982e-07
-5.1583258e-08
4.1786579e-07
2.30066e-07
3.3823615e-08
1.9624212e-07
6.042496e-08
3.912642e-07
7.1217686e-08
4.7908704e-07
7.0071165e-08
5.1443455e-07
6.1961688e-08
5.2511029e-07
5.0487279e-08
5.249544e-07
3.7817034e-08
5.2091806e-07
2.5008461e-08
5.1634922e-07
1.2416163e-08
5.1278376e-07
-2.07174e-14
5.1086371e-07
-1.2416239e-08
5.1086368e-07
-2.5008487e-08
5.1278373e-07
-3.7817082e-08
5.1634915e-07
-5.0487283e-08
5.2091803e-07
-6.1961646e-08
5.2495437e-07
-7.0071132e-08
5.2511032e-07
-7.1217626e-08
5.1443451e-07
-6.0424928e-08
4.790871e-07
-3.3823551e-08
3.9126444e-07
1.9624244e-07
2.085246e-08
1.7538966e-07
4.2108678e-08
3.7000794e-07
5.390054e-08
4.6729517e-07
5.6487294e-08
5.118478e-07
5.2498555e-08
5.2909904e-07
4.448318e-08
5.3296976e-07
3.4318156e-08
5.3108309e-07
2.316749e-08
5.2749988e-07
1.1643777e-08
5.2430744e-07
-1.1606109e-14
5.225075e-07
-1.1643788e-08
5.2250747e-07
-2.3167466e-08
5.2430741e-07
-3.4318143e-08
5.274998e-07
-4.4483165e-08
5.3108301e-07
-5.2498498e-08
5.3296968e-07
-5.6487211e-08
5.2909901e-07
-5.3900478e-08
5.1184774e-07
-4.210865e-08
4.6729525e-07
-2.0852434e-08
3.7000823e-07
1.7539e-07
1.247182e-08
1.6291782e-07
2.8087703e-08
3.543921e-07
3.8745952e-08
4.5663691e-07
4.2994635e-08
5.0759913e-07
4.1803231e-08
5.3029044e-07
3.6700352e-08
5.3807265e-07
2.9085949e-08
5.3869748e-07
2.0009599e-08
5.3657626e-07
1.0169325e-08
5.3414776e-07
7.1874184e-15
5.3267681e-07
-1.0169269e-08
5.326768e-07
-2.0009539e-08
5.3414768e-07
-2.9085891e-08
5.3657615e-07
-3.6700286e-08
5.3869741e-07
-4.1803133e-08
5.3807256e-07
-4.2994562e-08
5.3029039e-07
-3.8745911e-08
5.0759909e-07
-2.8087647e-08
4.5663699e-07
-1.247179e-08
3.5439237e-07
1.6291819e-07
7.386035e-09
1.555318e-07
1.8228915e-08
3.435492e-07
2.6869432e-08
4.4799642e-07
3.1399569e-08
5.0306897e-07
3.1812068e-08
5.2987796e-07
2.8848483e-08
5.4103624e-07
2.3432285e-08
5.441137e-07
1.6400777e-08
5.4360775e-07
8.4200465e-09
5.4212847e-07
4.2582943e-14
5.4109688e-07
-8.4199928e-09
5.4109682e-07
-1.6400693e-08
5.4212838e-07
-2.3432196e-08
5.4360765e-07
-2.8848386e-08
5.4411358e-07
-3.1811983e-08
5.4103612e-07
-3.139951e-08
5.2987789e-07
-2.686941e-08
5.0306898e-07
-1.8228967e-08
4.4799654e-07
-7.3860882e-09
3.4354943e-07
1.5553214e-07
4.369805e-09
1.51162e-07
1.1605419e-08
3.3631358e-07
1.8123833e-08
4.4147804e-07
2.2198552e-08
4.9899427e-07
2.3357707e-08
5.2871882e-07
2.1823749e-08
5.4257016e-07
1.8132296e-08
5.4780516e-07
1.2893971e-08
5.4884608e-07
6.6811941e-09
5.4834125e-07
3.3916057e-14
5.4777799e-07
-6.6810972e-09
5.4777797e-07
-1.2893875e-08
5.4834117e-07
-1.8132182e-08
5.4884597e-07
-2.1823655e-08
5.4780505e-07
-2.3357597e-08
5.4257008e-07
-2.2198463e-08
5.2871878e-07
-1.8123796e-08
4.989943e-07
-1.1605432e-08
4.4147819e-07
-4.3698413e-09
3.3631387e-07
1.5116228e-07
2.5811886e-09
1.4858087e-07
7.2664991e-09
3.3162827e-07
1.1935699e-08
4.3680882e-07
1.526231e-08
4.9566767e-07
1.6635403e-08
5.2734575e-07
1.5982527e-08
5.43223e-07
1.3562334e-08
5.5022536e-07
9.7872692e-09
5.5262111e-07
5.1149011e-09
5.5301358e-07
4.7556547e-14
5.5289286e-07
-5.1147935e-09
5.5289284e-07
-9.7871727e-09
5.5301351e-07
-1.3562208e-08
5.5262102e-07
-1.5982415e-08
5.5022527e-07
-1.6635272e-08
5.4322296e-07
-1.5262239e-08
5.2734574e-07
-1.1935656e-08
4.9566774e-07
-7.2664739e-09
4.3680904e-07
-2.5811859e-09
3.3162859e-07
1.485811e-07
1.5132645e-09
1.4706763e-07
4.4698316e-09
3.2867174e-07
7.6810351e-09
4.3359764e-07
1.0224212e-08
4.9312449e-07
1.1522568e-08
5.260474e-07
1.1367819e-08
5.4337777e-07
9.8413771e-09
5.5175173e-07
7.2014585e-09
5.5526103e-07
3.7938772e-09
5.5642112e-07
4.6163155e-14
5.5668663e-07
-3.7937575e-09
5.5668663e-07
-7.2013502e-09
5.5642108e-07
-9.8412624e-09
5.5526096e-07
-1.1367699e-08
5.5175166e-07
-1.1522449e-08
5.4337774e-07
-1.022414e-08
5.2604743e-07
-7.6809789e-09
4.9312461e-07
-4.469812e-09
4.3359789e-07
-1.5132581e-09
3.2867207e-07
1.4706787e-07
8.7180617e-10
1.4619583e-07
2.6895518e-09
3.2685402e-07
4.821982e-09
4.3146528e-07
6.6717094e-09
4.9127475e-07
7.767313e-09
5.2495181e-07
7.8633211e-09
5.4328177e-07
6.9408825e-09
5.5267417e-07
5.1475527e-09
5.5705433e-07
2.7328575e-09
5.5883582e-07
6.45533e-14
5.594194e-07
-2.732736e-09
5.5941939e-07
-5.1474541e-09
5.5883576e-07
-6.9407655e-09
5.5705429e-07
-7.8632261e-09
5.5267414e-07
-7.7672095e-09
5.4328176e-07
-6.6716398e-09
5.2495189e-07
-4.8219121e-09
4.9127489e-07
-2.6895317e-09
4.3146554e-07
-8.7179217e-10
3.2685435e-07
1.4619607e-07
4.8615348e-10
1.4570968e-07
1.5702223e-09
3.2576997e-07
2.939831e-09
4.3009568e-07
4.230701e-09
4.8998391e-07
5.0900688e-09
5.2409241e-07
5.2884661e-09
5.4308334e-07
4.7594456e-09
5.532032e-07
3.5770187e-09
5.5823673e-07
1.9135926e-09
5.6049922e-07
5.3837165e-14
5.6133293e-07
-1.9134768e-09
5.6133292e-07
-3.5769111e-09
5.6049918e-07
-4.7593341e-09
5.5823669e-07
-5.2883756e-09
5.5320318e-07
-5.089976e-09
5.4308337e-07
-4.2306117e-09
5.240925e-07
-2.9397658e-09
4.899841e-07
-1.5702162e-09
4.3009597e-07
-4.8614219e-10
3.2577033e-07
1.4570994e-07
2.5609744e-10
1.4545363e-07
8.7729578e-10
3.2514876e-07
1.726583e-09
4.2924641e-07
2.5943479e-09
4.8911615e-07
3.2330638e-09
5.2345369e-07
3.4519759e-09
5.4286445e-07
3.1697701e-09
5.5348539e-07
2.4150775e-09
5.5899137e-07
1.3021175e-09
5.6161217e-07
5.786517e-14
5.6263497e-07
-1.3020268e-09
5.6263497e-07
-2.4149737e-09
5.6161213e-07
-3.1696721e-09
5.5899134e-07
-3.4519e-09
5.534854e-07
-3.2329836e-09
5.428645e-07
-2.594261e-09
5.2345382e-07
-1.7265343e-09
4.8911637e-07
-8.772585e-10
4.2924675e-07
-2.5604678e-10
3.2514917e-07
1.454539e-07
1.2128056e-10
1.4533234e-07
4.5760386e-10
3.2481245e-07
9.6326009e-10
4.2874077e-07
1.5255935e-09
4.8855381e-07
1.979846e-09
5.2299944e-07
2.1790908e-09
5.4266521e-07
2.0452512e-09
5.5361924e-07
1.5813514e-09
5.5945525e-07
8.5972652e-10
5.6233377e-07
4.5029216e-14
5.6349465e-07
-8.596393e-10
5.6349464e-07
-1.5812483e-09
5.6233376e-07
-2.0451527e-09
5.5945522e-07
-2.1790124e-09
5.5361925e-07
-1.9797601e-09
5.4266529e-07
-1.5255293e-09
5.2299958e-07
-9.6320539e-10
4.8855406e-07
-4.5757649e-10
4.2874113e-07
-1.2124312e-10
3.2481286e-07
1.4533265e-07
4.4739624e-11
1.4528763e-07
2.116732e-10
3.2464551e-07
4.9781412e-10
4.2845466e-07
8.4837746e-10
4.8820326e-07
1.1589606e-09
5.2268888e-07
1.3227595e-09
5.4250141e-07
1.2732763e-09
5.5366874e-07
1.0009108e-09
5.597276e-07
5.4925885e-10
5.6278545e-07
4.4252804e-14
5.6404385e-07
-5.4913491e-10
5.6404384e-07
-1.0008383e-09
5.6278543e-07
-1.2731773e-09
5.597276e-07
-1.3226681e-09
5.5366876e-07
-1.1588771e-09
5.425015e-07
-8.4829336e-10
5.2268903e-07
-4.977542e-10
4.8820352e-07
-2.1165091e-10
4.2845504e-07
-4.4721286e-11
3.2464596e-07
1.4528794e-07
4.0016396e-12
1.4528365e-07
7.5099696e-11
3.2457442e-07
2.2655753e-10
4.2830322e-07
4.3576819e-10
4.8799407e-07
6.4012352e-10
5.2248455e-07
7.6576159e-10
5.4237581e-07
7.603281e-10
5.5367417e-07
6.0957396e-10
5.5987832e-07
3.3816686e-10
5.6305687e-07
3.6011082e-14
5.6438198e-07
-3.3804992e-10
5.6438198e-07
-6.0949509e-10
5.6305686e-07
-7.6023755e-10
5.5987834e-07
-7.6566309e-10
5.536742e-07
-6.4003346e-10
5.4237588e-07
-4.3570972e-10
5.2248471e-07
-2.2649316e-10
4.8799433e-07
-7.5079092e-11
4.2830359e-07
-3.9893865e-12
3.2457488e-07
1.45284e-07
-1.2794827e-11
1.4529644e-07
6.4813139e-12
3.2455514e-07
7.976027e-11
4.2822995e-07
1.9854582e-10
4.8787532e-07
3.2761002e-10
5.2235554e-07
4.1844075e-10
5.4228496e-07
4.3245237e-10
5.5366015e-07
3.5527876e-10
5.5995553e-07
1.9968619e-10
5.6321246e-07
2.988796e-14
5.6458165e-07
-1.9960391e-10
5.6458164e-07
-3.552141e-10
5.6321246e-07
-4.3239566e-10
5.5995553e-07
-4.1837443e-10
5.5366018e-07
-3.27511e-10
5.4228502e-07
-1.9848253e-10
5.2235566e-07
-7.9706412e-11
4.8787556e-07
-6.4520634e-12
4.2823033e-07
1.2830911e-11
3.2455563e-07
1.4529681e-07
-1.6608971e-11
1.4531308e-07
-1.8496219e-11
3.2455702e-07
1.1730798e-11
4.2819975e-07
7.5510716e-11
4.8781155e-07
1.5304333e-10
5.22278e-07
2.1452603e-10
5.4222345e-07
2.3338455e-10
5.536413e-07
1.9747043e-10
5.5999143e-07
1.1274616e-10
5.632972e-07
2.132562e-14
5.6469435e-07
-1.126793e-10
5.6469436e-07
-1.9740901e-10
5.6329719e-07
-2.333478e-10
5.5999141e-07
-2.1450083e-10
5.5364132e-07
-1.5295711e-10
5.4222351e-07
-7.5439945e-11
5.2227812e-07
-1.1664376e-11
4.878118e-07
1.8520185e-11
4.2820013e-07
1.6649238e-11
3.2455752e-07
1.4531349e-07
-1.3811096e-11
-2.02253e-11
-8.5776257e-12
2.4968792e-11
7.0181733e-11
1.0926012e-10
1.2513139e-10
1.0893925e-10
6.3153765e-11
2.2450192e-14
-6.3124731e-11
-1.088985e-10
-1.2510021e-10
-1.0922177e-10
-7.0118496e-11
-2.491195e-11
8.6423956e-12
2.0284528e-11
1.3868444e-11
)
;

boundaryField
{
    Wall
    {
        type            calculated;
        value           uniform 0;
    }
    frontAndBack
    {
        type            empty;
        value           nonuniform 0();
    }
    atmosphere
    {
        type            calculated;
        value           nonuniform List<scalar> 
20
(
1.4532689e-07
3.2456344e-07
4.2818812e-07
4.87778e-07
5.2223277e-07
5.421844e-07
5.5362545e-07
5.6000762e-07
5.6334298e-07
5.6475746e-07
5.6475745e-07
5.6334298e-07
5.6000761e-07
5.5362543e-07
5.4218441e-07
5.2223291e-07
4.8777826e-07
4.2818853e-07
3.2456398e-07
1.4532732e-07
)
;
    }
}


// ************************************************************************* //
