/*--------------------------------*- C++ -*----------------------------------*\
| =========                 |                                                 |
| \\      /  F ield         | OpenFOAM: The Open Source CFD Toolbox           |
|  \\    /   O peration     | Version:  3.0.1                                 |
|   \\  /    A nd           | Web:      www.OpenFOAM.org                      |
|    \\/     M anipulation  |                                                 |
\*---------------------------------------------------------------------------*/
FoamFile
{
    version     2.0;
    format      ascii;
    class       volScalarField;
    location    "27";
    object      Psi2;
}
// * * * * * * * * * * * * * * * * * * * * * * * * * * * * * * * * * * * * * //

dimensions      [0 -2 2 0 0 0 0];

internalField   nonuniform List<scalar> 
800
(
0.00081537821
0.00081530934
0.00081529948
0.00081529908
0.00081529952
0.00081529983
0.00081529993
0.00081529994
0.00081529993
0.00081529993
0.00081529992
0.00081529993
0.00081529994
0.00081529993
0.00081529982
0.00081529951
0.00081529907
0.00081529947
0.00081530933
0.0008153782
0.00083276487
0.00083181854
0.00083162532
0.00083159562
0.00083160191
0.00083161131
0.00083161741
0.00083162034
0.00083162145
0.00083162178
0.00083162178
0.00083162145
0.00083162034
0.00083161742
0.00083161132
0.00083160192
0.00083159563
0.00083162533
0.00083181857
0.00083276491
0.00085058181
0.00084906963
0.00084862926
0.00084855283
0.00084855458
0.00084856761
0.00084857695
0.00084858153
0.00084858324
0.00084858369
0.00084858368
0.00084858324
0.00084858154
0.00084857697
0.00084856763
0.0008485546
0.00084855285
0.00084862929
0.00084906967
0.00085058189
0.00086676168
0.00086482915
0.00086417208
0.00086405954
0.00086405874
0.0008640752
0.0008640872
0.000864093
0.00086409509
0.00086409558
0.00086409558
0.0008640951
0.00086409301
0.00086408722
0.00086407522
0.00086405877
0.00086405957
0.00086417212
0.00086482921
0.00086676178
0.00087997573
0.00087779704
0.00087696777
0.00087680832
0.00087681032
0.00087683226
0.0008768476
0.00087685491
0.00087685754
0.00087685812
0.00087685812
0.00087685755
0.00087685493
0.00087684762
0.00087683229
0.00087681035
0.00087680836
0.00087696781
0.00087779709
0.00087997582
0.00088982915
0.00088752317
0.00088656239
0.00088634216
0.00088635299
0.00088638355
0.00088640378
0.00088641351
0.00088641715
0.00088641806
0.00088641806
0.00088641716
0.00088641352
0.0008864038
0.00088638358
0.00088635302
0.00088634219
0.00088656243
0.00088752321
0.00088982922
0.00089676309
0.00089430712
0.00089328164
0.00089299591
0.00089302157
0.00089306449
0.00089309178
0.00089310536
0.00089311084
0.00089311248
0.00089311247
0.00089311085
0.00089310538
0.0008930918
0.00089306451
0.00089302159
0.00089299593
0.00089328166
0.00089430715
0.00089676314
0.00090189295
0.00089910906
0.00089807814
0.00089773166
0.00089777764
0.00089783686
0.00089787377
0.00089789292
0.00089790121
0.00089790406
0.00089790406
0.00089790122
0.00089789293
0.00089787379
0.00089783687
0.00089777766
0.00089773167
0.00089807815
0.00089910907
0.00090189297
0.00090686209
0.00090339991
0.00090240092
0.0009020034
0.00090202964
0.00090210962
0.00090215883
0.0009021852
0.00090219732
0.00090220185
0.00090220185
0.00090219733
0.00090218521
0.00090215884
0.00090210963
0.00090202965
0.0009020034
0.00090240092
0.00090339991
0.0009068621
0.00091375213
0.00090899467
0.00090804211
0.00090760308
0.00090754046
0.00090758682
0.0009076506
0.00090768549
0.00090770238
0.00090770901
0.00090770901
0.00090770239
0.00090768551
0.00090765062
0.00090758684
0.00090754048
0.00090760308
0.00090804212
0.00090899466
0.00091375214
0.00092511926
0.00091818397
0.00091716763
0.00091669281
0.0009164175
0.00091633843
0.00091641871
0.00091646305
0.00091648601
0.00091649514
0.00091649514
0.00091648603
0.00091646307
0.00091641873
0.00091633845
0.00091641752
0.00091669282
0.00091716764
0.00091818397
0.00092511928
0.00094411548
0.00093394288
0.00093246712
0.00093196722
0.00093129416
0.00093102048
0.00093111836
0.00093117226
0.0009312061
0.00093121818
0.00093121819
0.00093120612
0.00093117229
0.0009311184
0.00093102052
0.0009312942
0.00093196724
0.00093246714
0.0009339429
0.00094411554
0.00097490539
0.00096016867
0.00095751576
0.00095705659
0.00095580149
0.00095531247
0.00095542674
0.00095549008
0.0009553978
0.00095541676
0.00095541677
0.00095539784
0.00095549013
0.0009554268
0.00095531253
0.00095580155
0.00095705665
0.00095751582
0.00096016874
0.00097490551
0.0010239731
0.0010025987
0.00099784978
0.00099716297
0.00099518091
0.00099448393
0.00099460348
0.00099466764
0.00099433052
0.0009943669
0.00099436692
0.00099433056
0.00099466771
0.00099460357
0.00099448402
0.00099518101
0.00099716307
0.00099784989
0.0010025988
0.0010239733
0.0010919132
0.0010610625
0.0010528789
0.0010513596
0.001048557
0.0010476865
0.001047894
0.0010479713
0.0010473149
0.0010469784
0.0010469784
0.001047315
0.0010479714
0.0010478941
0.0010476866
0.0010485571
0.0010513597
0.0010528791
0.0010610627
0.0010919134
0.0011984219
0.0011527913
0.0011389458
0.0011352494
0.0011313947
0.0011304227
0.0011307957
0.0011308679
0.0011297306
0.0011287288
0.0011287288
0.0011297306
0.001130868
0.0011307958
0.0011304229
0.0011313949
0.0011352496
0.001138946
0.0011527916
0.0011984222
0.0013711522
0.0013020136
0.0012783741
0.0012711989
0.0012646484
0.0012632482
0.0012634067
0.0012634331
0.0012618038
0.001260103
0.001260103
0.0012618039
0.0012634332
0.0012634069
0.0012632484
0.0012646486
0.0012711992
0.0012783744
0.0013020139
0.0013711524
0.0016594314
0.0015520826
0.0015113186
0.0014988044
0.0014874881
0.0014844987
0.0014838591
0.0014837519
0.0014803304
0.0014779326
0.0014779326
0.0014803304
0.0014837521
0.0014838593
0.0014844989
0.0014874883
0.0014988047
0.0015113189
0.0015520828
0.0016594314
0.0021299807
0.0019641432
0.0018945312
0.0018734167
0.0018528561
0.0018471673
0.0018453633
0.0018451146
0.0018388354
0.0018358572
0.0018358572
0.0018388355
0.0018451147
0.0018453634
0.0018471675
0.0018528564
0.001873417
0.0018945315
0.0019641433
0.0021299802
0.0029017786
0.0026502407
0.0025323399
0.002493207
0.0024628393
0.0024528204
0.0024491279
0.0024485214
0.0024394959
0.0024363461
0.0024363461
0.0024394958
0.0024485213
0.0024491278
0.0024528204
0.0024628393
0.002493207
0.0025323398
0.0026502401
0.0029017765
0.0040693745
0.0036282956
0.0034102285
0.0033265804
0.0032806349
0.0032651481
0.0032604382
0.0032607861
0.0032511497
0.0032487336
0.0032487335
0.0032511495
0.0032607858
0.0032604378
0.0032651477
0.0032806346
0.00332658
0.0034102278
0.003628294
0.0040693695
0.0058743665
0.0049117019
0.0045071117
0.0043415597
0.0042704444
0.0042509307
0.0042510526
0.0042578508
0.0042535338
0.0042541656
0.0042541656
0.0042535335
0.0042578503
0.0042510519
0.00425093
0.0042704439
0.004341559
0.0045071106
0.0049116996
0.0058743573
0.0081593269
0.0064304137
0.0057456231
0.0054580164
0.0053461421
0.0053230276
0.0053351787
0.0053565224
0.0053651856
0.0053724394
0.0053724393
0.0053651853
0.0053565219
0.005335178
0.0053230269
0.0053461418
0.0054580159
0.0057456221
0.0064304108
0.0081593162
0.0099262947
0.0079524432
0.0070197807
0.0066006906
0.0064361365
0.0064035129
0.0064271261
0.0064653054
0.0064903458
0.0065061458
0.0065061458
0.0064903457
0.0064653053
0.0064271258
0.0064035126
0.0064361367
0.0066006906
0.00701978
0.0079524403
0.009926288
0.010694597
0.0092019987
0.0081922411
0.0076834999
0.0074713544
0.0074236063
0.0074512207
0.0075004515
0.0075383057
0.0075610595
0.0075610596
0.007538306
0.0075004519
0.007451221
0.0074236066
0.0074713552
0.0076835006
0.0081922409
0.0092019965
0.010694595
0.01090872
0.010047435
0.0091521441
0.0086280738
0.0083905777
0.0083278773
0.008351074
0.0084017263
0.0084445208
0.0084701171
0.0084701174
0.0084445214
0.0084017271
0.0083510749
0.0083278782
0.0083905788
0.0086280749
0.0091521442
0.010047433
0.01090872
0.010954306
0.010531595
0.0098560789
0.0093864684
0.0091525716
0.0090810085
0.0090949158
0.0091388411
0.0091789041
0.0092030782
0.0092030785
0.0091789048
0.0091388422
0.009094917
0.0090810097
0.0091525728
0.0093864695
0.0098560791
0.010531594
0.010954306
0.010962622
0.010774884
0.010324922
0.0099497513
0.0097433784
0.0096715357
0.0096757347
0.0097089114
0.0097415788
0.0097615939
0.0097615942
0.0097415796
0.0097089125
0.0096757359
0.0096715368
0.0097433795
0.0099497521
0.010324922
0.010774884
0.010962622
0.010964005
0.010885953
0.010613197
0.010340063
0.010173972
0.010109248
0.010106218
0.010128477
0.010152407
0.010167368
0.010167369
0.010152408
0.010128478
0.010106219
0.010109249
0.010173973
0.010340063
0.010613197
0.010885953
0.010964005
0.010964222
0.010933272
0.010779368
0.010594858
0.010470982
0.010417654
0.010410713
0.010424099
0.010440177
0.010450486
0.010450487
0.010440178
0.0104241
0.010410713
0.010417655
0.010470983
0.010594858
0.010779368
0.010933272
0.010964222
0.010964255
0.010952427
0.010870304
0.010753019
0.010666272
0.010625452
0.010617373
0.010624566
0.010634613
0.010641262
0.010641262
0.010634614
0.010624567
0.010617373
0.010625453
0.010666273
0.010753019
0.010870304
0.010952427
0.010964255
0.01096426
0.010959878
0.010917991
0.010847105
0.010789482
0.010760091
0.010752615
0.010755983
0.010761877
0.010765933
0.010765933
0.010761877
0.010755983
0.010752615
0.010760092
0.010789483
0.010847105
0.010917991
0.010959878
0.01096426
0.010964261
0.010962681
0.010942113
0.010901068
0.010864477
0.010844381
0.010838301
0.010839562
0.010842824
0.010845183
0.010845183
0.010842825
0.010839562
0.010838302
0.010844381
0.010864477
0.010901068
0.010942113
0.010962681
0.010964261
0.010964261
0.010963706
0.010953934
0.010931042
0.0109087
0.010895557
0.010891031
0.010891271
0.010892978
0.010894292
0.010894292
0.010892978
0.010891272
0.010891032
0.010895558
0.0109087
0.010931041
0.010953934
0.010963706
0.010964261
0.010964261
0.01096407
0.010959564
0.010947216
0.010934045
0.010925779
0.010922626
0.010922455
0.010923296
0.010924
0.010924
0.010923296
0.010922456
0.010922626
0.010925779
0.010934045
0.010947216
0.010959564
0.01096407
0.010964261
0.010964261
0.010964197
0.010962175
0.010955715
0.010948193
0.010943174
0.010941091
0.010940814
0.010941201
0.010941564
0.010941564
0.010941201
0.010940814
0.010941091
0.010943174
0.010948193
0.010955715
0.010962175
0.010964197
0.010964261
0.010964261
0.01096424
0.010963355
0.010960071
0.010955899
0.010952947
0.010951631
0.010951377
0.01095154
0.01095172
0.01095172
0.01095154
0.010951377
0.010951631
0.010952947
0.010955899
0.010960071
0.010963355
0.01096424
0.010964261
0.010964261
0.010964254
0.010963876
0.01096225
0.01096
0.010958314
0.010957515
0.010957321
0.010957381
0.010957466
0.010957466
0.010957381
0.010957321
0.010957515
0.010958314
0.01096
0.01096225
0.010963876
0.010964254
0.010964261
0.010964261
0.010964259
0.010964101
0.010963316
0.010962133
0.010961197
0.010960728
0.010960595
0.010960611
0.010960651
0.010960651
0.010960611
0.010960595
0.010960728
0.010961197
0.010962133
0.010963316
0.010964101
0.010964259
0.010964261
0.010964261
0.01096426
0.010964196
0.010963826
0.010963219
0.010962713
0.010962446
0.010962361
0.010962362
0.010962379
0.010962379
0.010962362
0.010962361
0.010962446
0.010962713
0.010963219
0.010963826
0.010964196
0.01096426
0.010964261
)
;

boundaryField
{
    Wall
    {
        type            calculated;
        value           nonuniform List<scalar> 
100
(
9.9999997e-21
9.9999997e-21
9.9999997e-21
9.9999997e-21
9.9999997e-21
9.9999997e-21
9.9999997e-21
9.9999997e-21
9.9999997e-21
9.9999997e-21
9.9999997e-21
9.9999997e-21
9.9999997e-21
9.9999998e-21
9.9999998e-21
9.9999998e-21
9.9999998e-21
9.9999998e-21
9.9999999e-21
1e-20
1e-20
1e-20
1e-20
1e-20
1e-20
1e-20
1e-20
1e-20
1e-20
1e-20
1e-20
1e-20
1e-20
1e-20
1e-20
1e-20
1e-20
1e-20
1e-20
1e-20
9.9999997e-21
9.9999997e-21
9.9999997e-21
9.9999997e-21
9.9999997e-21
9.9999997e-21
9.9999997e-21
9.9999997e-21
9.9999997e-21
9.9999997e-21
9.9999997e-21
9.9999997e-21
9.9999997e-21
9.9999998e-21
9.9999998e-21
9.9999998e-21
9.9999998e-21
9.9999998e-21
9.9999999e-21
1e-20
1e-20
1e-20
1e-20
1e-20
1e-20
1e-20
1e-20
1e-20
1e-20
1e-20
1e-20
1e-20
1e-20
1e-20
1e-20
1e-20
1e-20
1e-20
1e-20
1e-20
9.9999997e-21
9.9999997e-21
9.9999997e-21
9.9999997e-21
9.9999997e-21
9.9999997e-21
9.9999997e-21
9.9999997e-21
9.9999997e-21
9.9999997e-21
9.9999997e-21
9.9999997e-21
9.9999997e-21
9.9999997e-21
9.9999997e-21
9.9999997e-21
9.9999997e-21
9.9999997e-21
9.9999997e-21
9.9999997e-21
)
;
    }
    frontAndBack
    {
        type            empty;
    }
    atmosphere
    {
        type            calculated;
        value           uniform 1e-20;
    }
}


// ************************************************************************* //
