/*--------------------------------*- C++ -*----------------------------------*\
| =========                 |                                                 |
| \\      /  F ield         | OpenFOAM: The Open Source CFD Toolbox           |
|  \\    /   O peration     | Version:  3.0.1                                 |
|   \\  /    A nd           | Web:      www.OpenFOAM.org                      |
|    \\/     M anipulation  |                                                 |
\*---------------------------------------------------------------------------*/
FoamFile
{
    version     2.0;
    format      ascii;
    class       volScalarField;
    location    "27";
    object      rho;
}
// * * * * * * * * * * * * * * * * * * * * * * * * * * * * * * * * * * * * * //

dimensions      [1 -3 0 0 0 0 0];

internalField   nonuniform List<scalar> 
800
(
81.537823
81.530936
81.52995
81.52991
81.529954
81.529985
81.529995
81.529996
81.529995
81.529995
81.529994
81.529995
81.529997
81.529995
81.529984
81.529954
81.529909
81.529949
81.530935
81.537822
83.276489
83.181857
83.162534
83.159564
83.160193
83.161134
83.161743
83.162036
83.162148
83.16218
83.16218
83.162148
83.162037
83.161744
83.161134
83.160194
83.159565
83.162535
83.181859
83.276494
85.058173
84.906956
84.86292
84.855276
84.855452
84.856755
84.857689
84.858146
84.858317
84.858362
84.858362
84.858318
84.858147
84.85769
84.856757
84.855454
84.855279
84.862923
84.906961
85.058182
86.676125
86.482876
86.41717
86.405916
86.405837
86.407483
86.408683
86.409262
86.409472
86.40952
86.40952
86.409472
86.409264
86.408684
86.407485
86.40584
86.40592
86.417175
86.482882
86.676134
87.99745
87.779594
87.696671
87.680726
87.680926
87.68312
87.684654
87.685385
87.685647
87.685706
87.685706
87.685648
87.685387
87.684656
87.683122
87.680929
87.68073
87.696675
87.779599
87.997459
88.982653
88.752082
88.656012
88.63399
88.635072
88.638128
88.64015
88.641123
88.641487
88.641578
88.641578
88.641488
88.641124
88.640152
88.638131
88.635075
88.633993
88.656015
88.752086
88.98266
89.675832
89.430284
89.327751
89.29918
89.301745
89.306037
89.308765
89.310123
89.31067
89.310833
89.310833
89.310671
89.310124
89.308766
89.306038
89.301748
89.299182
89.327754
89.430286
89.675836
90.188514
89.910206
89.807142
89.772497
89.777094
89.783014
89.786704
89.788618
89.789447
89.789731
89.789731
89.789448
89.788619
89.786706
89.783015
89.777096
89.772498
89.807143
89.910207
90.188517
90.685029
90.338933
90.239082
90.199334
90.201955
90.209951
90.21487
90.217505
90.218717
90.219169
90.219169
90.218718
90.217507
90.214871
90.209952
90.201957
90.199334
90.239082
90.338933
90.68503
91.373527
90.897953
90.802776
90.758879
90.752614
90.757246
90.76362
90.767107
90.768795
90.769458
90.769458
90.768797
90.767109
90.763622
90.757247
90.752615
90.758879
90.802777
90.897953
91.373528
92.509609
91.81632
91.714808
91.667334
91.639798
91.631885
91.639909
91.64434
91.646635
91.647547
91.647547
91.646637
91.644343
91.639912
91.631888
91.6398
91.667335
91.714809
91.81632
92.509611
94.408446
93.391525
93.244124
93.194141
93.126828
93.099454
93.109236
93.114623
93.118005
93.119212
93.119213
93.118007
93.114627
93.10924
93.099458
93.126832
93.194143
93.244127
93.391527
94.408451
97.486434
96.013279
95.748196
95.70228
95.576762
95.527852
95.539273
95.545603
95.536373
95.538267
95.538268
95.536377
95.545608
95.539279
95.527858
95.576768
95.702285
95.748202
96.013286
97.486446
102.39181
100.25522
99.780526
99.711847
99.513635
99.443929
99.455877
99.462288
99.428575
99.432212
99.432214
99.42858
99.462295
99.455885
99.443938
99.513645
99.711857
99.780538
100.25523
102.39183
109.18328
106.09983
105.28173
105.12982
104.84957
104.76252
104.78327
104.79099
104.72536
104.6917
104.6917
104.72536
104.791
104.78328
104.76253
104.84959
105.12984
105.28175
106.09985
109.18331
119.82658
115.26786
113.88417
113.51472
113.12936
113.0322
113.06952
113.07676
112.96304
112.86288
112.86288
112.96305
113.07677
113.06953
113.03222
113.12938
113.51474
113.88419
115.26788
119.82661
137.05355
130.16361
127.80581
127.09002
126.43601
126.29651
126.31264
126.31545
126.15274
125.98277
125.98277
126.15275
126.31546
126.31266
126.29653
126.43603
127.09005
127.80584
130.16364
137.05358
165.1663
154.82832
150.8515
149.6301
148.51611
148.2256
148.16635
148.15834
147.81963
147.58136
147.58136
147.81963
148.15835
148.16636
148.22562
148.51613
149.63012
150.85153
154.82835
165.16632
180.30987
181.70245
179.27551
178.5903
177.42845
177.29383
177.35865
177.46093
176.97821
176.74268
176.74269
176.97823
177.46097
177.35871
177.2939
177.42854
178.59041
179.27565
181.70266
180.31047
64.959793
90.618818
101.38259
106.32893
109.4096
111.33704
112.61357
113.43575
113.83572
114.0327
114.03274
113.83585
113.43596
112.61386
111.33739
109.41
106.32938
101.38312
90.619459
64.96051
5.3823258
9.5530221
11.991236
13.199121
14.096167
14.63978
15.002263
15.238734
15.425621
15.51017
15.510182
15.425659
15.238792
15.002342
14.639871
14.096269
13.19923
11.991353
9.5531367
5.3824195
1.2277586
1.3008165
1.3570566
1.3846834
1.4065449
1.4203169
1.4298574
1.4361492
1.4418804
1.4443298
1.4443301
1.4418815
1.4361508
1.4298596
1.4203193
1.4065475
1.3846861
1.3570593
1.3008187
1.2277597
1.2000079
1.2000894
1.2001939
1.2002471
1.2002875
1.2003127
1.2003303
1.2003413
1.2003528
1.2003574
1.2003574
1.2003528
1.2003414
1.2003303
1.2003127
1.2002875
1.2002471
1.2001939
1.2000894
1.2000079
1.2000002
1.2000003
1.2000002
1.2000002
1.2000002
1.2000003
1.2000002
1.2000002
1.2000002
1.2000002
1.2000002
1.2000002
1.2000002
1.2000002
1.2000003
1.2000002
1.2000002
1.2000002
1.2000003
1.2000002
1.2000001
1.2000003
1.2000003
1.2000003
1.2000003
1.2000004
1.2000003
1.2000004
1.2000004
1.2000004
1.2000004
1.2000004
1.2000004
1.2000003
1.2000004
1.2000003
1.2000003
1.2000003
1.2000003
1.2000001
1.2
1.2000002
1.2000003
1.2000003
1.2000004
1.2000004
1.2000004
1.2000004
1.2000004
1.2000004
1.2000004
1.2000004
1.2000004
1.2000004
1.2000004
1.2000004
1.2000003
1.2000003
1.2000002
1.2
1.2
1.2000001
1.2000003
1.2000003
1.2000004
1.2000004
1.2000005
1.2000005
1.2000005
1.2000005
1.2000005
1.2000005
1.2000005
1.2000005
1.2000004
1.2000004
1.2000003
1.2000003
1.2000001
1.2
1.2
1.2000001
1.2000002
1.2000003
1.2000004
1.2000004
1.2000005
1.2000005
1.2000005
1.2000004
1.2000004
1.2000005
1.2000005
1.2000005
1.2000004
1.2000004
1.2000003
1.2000002
1.2000001
1.2
1.2
1.2
1.2000002
1.2000003
1.2000003
1.2000004
1.2000004
1.2000004
1.2000004
1.2000004
1.2000004
1.2000004
1.2000004
1.2000004
1.2000004
1.2000003
1.2000003
1.2000002
1.2
1.2
1.2
1.2
1.2000001
1.2000002
1.2000003
1.2000003
1.2000004
1.2000004
1.2000004
1.2000003
1.2000003
1.2000004
1.2000004
1.2000004
1.2000003
1.2000003
1.2000002
1.2000001
1.2
1.2
1.2
1.2
1.2000001
1.2000002
1.2000002
1.2000003
1.2000003
1.2000003
1.2000003
1.2000003
1.2000003
1.2000003
1.2000003
1.2000003
1.2000003
1.2000002
1.2000002
1.2000001
1.2
1.2
1.2
1.2
1.2
1.2000001
1.2000002
1.2000002
1.2000002
1.2000002
1.2000002
1.2000002
1.2000002
1.2000002
1.2000002
1.2000002
1.2000002
1.2000002
1.2000001
1.2
1.2
1.2
1.2
1.2
1.2
1.2000001
1.2000001
1.2000002
1.2000002
1.2000002
1.2000002
1.2000002
1.2000002
1.2000002
1.2000002
1.2000002
1.2000002
1.2000001
1.2000001
1.2
1.2
1.2
1.2
1.2
1.2
1.2
1.2000001
1.2000001
1.2000001
1.2000001
1.2000001
1.2000001
1.2000001
1.2000001
1.2000001
1.2000001
1.2000001
1.2000001
1.2
1.2
1.2
1.2
1.2
1.2
1.2
1.2
1.2000001
1.2000001
1.2000001
1.2000001
1.2000001
1.2000001
1.2000001
1.2000001
1.2000001
1.2000001
1.2000001
1.2000001
1.2
1.2
1.2
1.2
1.2
1.2
1.2
1.2
1.2
1.2
1.2000001
1.2000001
1.2000001
1.2000001
1.2000001
1.2000001
1.2000001
1.2000001
1.2
1.2
1.2
1.2
1.2
1.2
1.2
1.2
1.2
1.2
1.2
1.2
1.2
1.2
1.2
1.2
1.2
1.2
1.2
1.2
1.2
1.2
1.2
1.2
1.2
1.2
1.2
1.2
1.2
1.2
1.2
1.2
1.2
1.2
1.2
1.2
1.2
1.2
1.2
1.2
1.2
1.2
1.2
1.2
1.2
1.2
1.2
1.2
1.2
1.2
1.2
1.2
1.2
1.2
1.2
1.2
1.2
1.2
1.2
1.2
1.2
1.2
1.2
1.2
1.2
1.2
1.2
1.2
1.2
1.2
1.2
1.2
1.2
1.2
1.2
1.2
1.2
1.2
1.2
1.2
1.2
1.2
1.2
1.2
1.2
1.2
)
;

boundaryField
{
    Wall
    {
        type            calculated;
        value           nonuniform List<scalar> 
100
(
1e-15
2.2822092e-12
1.4163858e-07
6.4010039e-07
1.7262173e-06
3.6201228e-06
6.5133416e-06
1.05552e-05
1.5849658e-05
2.2468987e-05
3.0481041e-05
3.9969797e-05
5.1180097e-05
6.5308126e-05
8.9332362e-05
0.0001579377
0.00054444869
0.0056585424
0.18520394
0.93523318
1.1876304
1.1999432
1.2
1.2
1.2
1.2
1.2
1.2
1.2
1.2
1.2
1.2
1.2
1.2
1.2
1.2
1.2
1.2
1.2
1.2
1e-15
1.0942703e-14
1.416384e-07
6.4010402e-07
1.7262264e-06
3.6201374e-06
6.513359e-06
1.0555216e-05
1.584967e-05
2.2468996e-05
3.048105e-05
3.9969814e-05
5.118013e-05
6.5308167e-05
8.9332368e-05
0.00015793728
0.00054444372
0.0056584373
0.18520031
0.93523
1.1876302
1.1999432
1.2
1.2
1.2
1.2
1.2
1.2
1.2
1.2
1.2
1.2
1.2
1.2
1.2
1.2
1.2
1.2
1.2
1.2
1e-15
1e-15
1.0000005e-15
1.000001e-15
1e-15
1.0000013e-15
1.0000011e-15
1.0000001e-15
1e-15
1e-15
1e-15
1e-15
1e-15
1.0000001e-15
1.0000001e-15
1e-15
1e-15
1e-15
1e-15
1e-15
)
;
    }
    frontAndBack
    {
        type            empty;
    }
    atmosphere
    {
        type            calculated;
        value           nonuniform List<scalar> 
20
(
1.2
1.2
1.2
1.2
1.2
1.2
1.2
1.2
1.2
1.2
1.2
1.2
1.2
1.2
1.2
1.2
1.2
1.2
1.2
1.2
)
;
    }
}


// ************************************************************************* //
