/*--------------------------------*- C++ -*----------------------------------*\
| =========                 |                                                 |
| \\      /  F ield         | OpenFOAM: The Open Source CFD Toolbox           |
|  \\    /   O peration     | Version:  3.0.1                                 |
|   \\  /    A nd           | Web:      www.OpenFOAM.org                      |
|    \\/     M anipulation  |                                                 |
\*---------------------------------------------------------------------------*/
FoamFile
{
    version     2.0;
    format      ascii;
    class       volScalarField;
    location    "27";
    object      rho_foam;
}
// * * * * * * * * * * * * * * * * * * * * * * * * * * * * * * * * * * * * * //

dimensions      [1 -3 0 0 0 0 0];

internalField   nonuniform List<scalar> 
800
(
81.537823
81.530936
81.52995
81.52991
81.529954
81.529985
81.529995
81.529996
81.529995
81.529995
81.529994
81.529995
81.529997
81.529995
81.529984
81.529954
81.529909
81.529949
81.530935
81.537822
83.276489
83.181857
83.162534
83.159564
83.160193
83.161134
83.161743
83.162036
83.162148
83.16218
83.16218
83.162148
83.162037
83.161744
83.161134
83.160194
83.159565
83.162535
83.181859
83.276494
85.058183
84.906965
84.862928
84.855285
84.85546
84.856764
84.857698
84.858155
84.858326
84.858371
84.858371
84.858326
84.858156
84.857699
84.856765
84.855463
84.855287
84.862932
84.90697
85.058192
86.67617
86.482917
86.41721
86.405956
86.405877
86.407522
86.408722
86.409302
86.409511
86.40956
86.40956
86.409512
86.409304
86.408724
86.407525
86.40588
86.405959
86.417214
86.482923
86.67618
87.997575
87.779706
87.696779
87.680834
87.681034
87.683228
87.684763
87.685494
87.685756
87.685815
87.685815
87.685757
87.685495
87.684765
87.683231
87.681038
87.680838
87.696784
87.779712
87.997584
88.982918
88.75232
88.656242
88.634219
88.635301
88.638358
88.64038
88.641353
88.641717
88.641809
88.641809
88.641718
88.641354
88.640382
88.63836
88.635304
88.634221
88.656245
88.752324
88.982925
89.676312
89.430715
89.328167
89.299594
89.302159
89.306451
89.30918
89.310539
89.311086
89.31125
89.31125
89.311087
89.31054
89.309182
89.306453
89.302161
89.299596
89.328169
89.430717
89.676316
90.189297
89.910908
89.807816
89.773168
89.777767
89.783688
89.787379
89.789294
89.790124
89.790408
89.790408
89.790125
89.789296
89.787381
89.783689
89.777768
89.773169
89.807817
89.910909
90.1893
90.686211
90.339994
90.240094
90.200342
90.202966
90.210964
90.215885
90.218522
90.219734
90.220187
90.220187
90.219735
90.218524
90.215887
90.210965
90.202967
90.200342
90.240094
90.339994
90.686212
91.375215
90.899469
90.804214
90.76031
90.754049
90.758685
90.765062
90.768551
90.77024
90.770903
90.770904
90.770242
90.768553
90.765064
90.758686
90.75405
90.76031
90.804214
90.899468
91.375216
92.511928
91.8184
91.716765
91.669284
91.641752
91.633845
91.641873
91.646307
91.648604
91.649516
91.649516
91.648605
91.646309
91.641876
91.633848
91.641755
91.669285
91.716766
91.8184
92.51193
94.41155
93.39429
93.246714
93.196724
93.129418
93.10205
93.111838
93.117228
93.120612
93.12182
93.121821
93.120614
93.117232
93.111842
93.102054
93.129422
93.196727
93.246717
93.394293
94.411556
97.490541
96.016869
95.751579
95.705662
95.580151
95.531249
95.542676
95.54901
95.539783
95.541678
95.541679
95.539786
95.549015
95.542682
95.531255
95.580157
95.705667
95.751584
96.016876
97.490553
102.39731
100.25987
99.78498
99.716299
99.518093
99.448395
99.46035
99.466766
99.433054
99.436693
99.436694
99.433058
99.466773
99.460359
99.448404
99.518103
99.716309
99.784992
100.25988
102.39734
109.19132
106.10626
105.2879
105.13596
104.8557
104.76865
104.7894
104.79713
104.7315
104.69784
104.69784
104.7315
104.79714
104.78942
104.76867
104.85571
105.13597
105.28791
106.10628
109.19135
119.84219
115.27914
113.89458
113.52494
113.13948
113.04227
113.07957
113.0868
112.97306
112.87288
112.87289
112.97306
113.08681
113.07958
113.04229
113.13949
113.52496
113.89461
115.27916
119.84222
137.11522
130.20136
127.83742
127.11989
126.46484
126.32483
126.34067
126.34331
126.18038
126.0103
126.0103
126.18039
126.34332
126.34069
126.32484
126.46486
127.11992
127.83744
130.20139
137.11524
165.94314
155.20826
151.13186
149.88045
148.74881
148.44988
148.38592
148.37519
148.03304
147.79326
147.79326
148.03305
148.37521
148.38593
148.44989
148.74883
149.88047
151.13189
155.20829
165.94315
212.99807
196.41432
189.45313
187.34167
185.28561
184.71673
184.53633
184.51146
183.88355
183.58572
183.58573
183.88355
184.51147
184.53635
184.71675
185.28564
187.3417
189.45315
196.41433
212.99802
290.17786
265.02407
253.23399
249.3207
246.28393
245.28205
244.91279
244.85214
243.94959
243.63461
243.63461
243.94958
244.85213
244.91278
245.28204
246.28393
249.32071
253.23398
265.02401
290.17765
406.93745
362.82956
341.02285
332.65804
328.06349
326.51481
326.04382
326.07861
325.11497
324.87336
324.87335
325.11495
326.07858
326.04378
326.51477
328.06346
332.658
341.02278
362.8294
406.93695
587.43666
491.17019
450.71117
434.15597
427.04444
425.09307
425.10526
425.78508
425.35338
425.41656
425.41656
425.35335
425.78503
425.10519
425.093
427.04439
434.1559
450.71106
491.16996
587.43573
815.93269
643.04137
574.56231
545.80164
534.61421
532.30276
533.51787
535.65224
536.51856
537.24394
537.24393
536.51853
535.65219
533.5178
532.30269
534.61418
545.80159
574.56221
643.04108
815.93162
992.62947
795.24432
701.97807
660.06906
643.61365
640.35129
642.71261
646.53054
649.03458
650.61458
650.61458
649.03457
646.53053
642.71258
640.35126
643.61367
660.06906
701.978
795.24403
992.6288
1069.4597
920.19987
819.22411
768.34999
747.13544
742.36063
745.12207
750.04515
753.83057
756.10595
756.10596
753.8306
750.04519
745.1221
742.36066
747.13552
768.35006
819.22409
920.19965
1069.4595
1090.872
1004.7435
915.21441
862.80738
839.05777
832.78773
835.1074
840.17263
844.45208
847.01171
847.01174
844.45214
840.17271
835.10749
832.78782
839.05788
862.80749
915.21442
1004.7433
1090.872
1095.4306
1053.1595
985.60789
938.64684
915.25716
908.10085
909.49158
913.88411
917.89041
920.30782
920.30785
917.89048
913.88422
909.4917
908.10097
915.25728
938.64695
985.60791
1053.1594
1095.4306
1096.2622
1077.4884
1032.4922
994.97513
974.33784
967.15357
967.57347
970.89114
974.15788
976.15939
976.15942
974.15796
970.89125
967.57359
967.15368
974.33795
994.97521
1032.4922
1077.4884
1096.2622
1096.4005
1088.5953
1061.3197
1034.0063
1017.3972
1010.9248
1010.6218
1012.8477
1015.2407
1016.7368
1016.7369
1015.2408
1012.8478
1010.6219
1010.9249
1017.3973
1034.0063
1061.3197
1088.5953
1096.4005
1096.4222
1093.3272
1077.9368
1059.4858
1047.0982
1041.7654
1041.0713
1042.4099
1044.0177
1045.0486
1045.0487
1044.0178
1042.41
1041.0713
1041.7655
1047.0983
1059.4858
1077.9368
1093.3272
1096.4222
1096.4255
1095.2427
1087.0304
1075.3019
1066.6272
1062.5452
1061.7373
1062.4566
1063.4613
1064.1262
1064.1262
1063.4614
1062.4567
1061.7373
1062.5453
1066.6273
1075.3019
1087.0304
1095.2427
1096.4255
1096.426
1095.9878
1091.7991
1084.7105
1078.9482
1076.0091
1075.2615
1075.5983
1076.1877
1076.5933
1076.5933
1076.1877
1075.5983
1075.2615
1076.0092
1078.9483
1084.7105
1091.7991
1095.9878
1096.426
1096.4261
1096.2681
1094.2113
1090.1068
1086.4477
1084.4381
1083.8301
1083.9562
1084.2824
1084.5183
1084.5183
1084.2825
1083.9562
1083.8302
1084.4381
1086.4477
1090.1068
1094.2113
1096.2681
1096.4261
1096.4261
1096.3706
1095.3934
1093.1042
1090.87
1089.5557
1089.1031
1089.1271
1089.2978
1089.4292
1089.4292
1089.2978
1089.1272
1089.1032
1089.5558
1090.87
1093.1041
1095.3934
1096.3706
1096.4261
1096.4261
1096.407
1095.9564
1094.7216
1093.4045
1092.5779
1092.2626
1092.2455
1092.3296
1092.4
1092.4
1092.3296
1092.2456
1092.2626
1092.5779
1093.4045
1094.7216
1095.9564
1096.407
1096.4261
1096.4261
1096.4197
1096.2175
1095.5715
1094.8193
1094.3174
1094.1091
1094.0814
1094.1201
1094.1564
1094.1564
1094.1201
1094.0814
1094.1091
1094.3174
1094.8193
1095.5715
1096.2175
1096.4197
1096.4261
1096.4261
1096.424
1096.3355
1096.0071
1095.5899
1095.2947
1095.1631
1095.1377
1095.154
1095.172
1095.172
1095.154
1095.1377
1095.1631
1095.2947
1095.5899
1096.0071
1096.3355
1096.424
1096.4261
1096.4261
1096.4254
1096.3876
1096.225
1096
1095.8314
1095.7515
1095.7321
1095.7381
1095.7466
1095.7466
1095.7381
1095.7321
1095.7515
1095.8314
1096
1096.225
1096.3876
1096.4254
1096.4261
1096.4261
1096.4259
1096.4101
1096.3316
1096.2133
1096.1197
1096.0728
1096.0595
1096.0611
1096.0651
1096.0651
1096.0611
1096.0595
1096.0728
1096.1197
1096.2133
1096.3316
1096.4101
1096.4259
1096.4261
1096.4261
1096.426
1096.4196
1096.3826
1096.3219
1096.2713
1096.2446
1096.2361
1096.2362
1096.2379
1096.2379
1096.2362
1096.2361
1096.2446
1096.2713
1096.3219
1096.3826
1096.4196
1096.426
1096.4261
)
;

boundaryField
{
    Wall
    {
        type            zeroGradient;
    }
    frontAndBack
    {
        type            empty;
    }
    atmosphere
    {
        type            zeroGradient;
    }
}


// ************************************************************************* //
