/*--------------------------------*- C++ -*----------------------------------*\
| =========                 |                                                 |
| \\      /  F ield         | OpenFOAM: The Open Source CFD Toolbox           |
|  \\    /   O peration     | Version:  3.0.1                                 |
|   \\  /    A nd           | Web:      www.OpenFOAM.org                      |
|    \\/     M anipulation  |                                                 |
\*---------------------------------------------------------------------------*/
FoamFile
{
    version     2.0;
    format      ascii;
    class       volScalarField;
    location    "27";
    object      thermalDiff_foam;
}
// * * * * * * * * * * * * * * * * * * * * * * * * * * * * * * * * * * * * * //

dimensions      [0 2 -1 0 0 0 0];

internalField   nonuniform List<scalar> 
800
(
1.2976656e-07
1.2977287e-07
1.2977377e-07
1.297738e-07
1.2977376e-07
1.2977374e-07
1.2977373e-07
1.2977372e-07
1.2977372e-07
1.2977373e-07
1.2977373e-07
1.2977372e-07
1.2977372e-07
1.2977373e-07
1.2977374e-07
1.2977376e-07
1.2977381e-07
1.2977377e-07
1.2977287e-07
1.2976656e-07
1.2819492e-07
1.2827835e-07
1.2829537e-07
1.2829797e-07
1.282974e-07
1.2829657e-07
1.2829604e-07
1.2829578e-07
1.2829569e-07
1.2829566e-07
1.2829566e-07
1.2829569e-07
1.2829578e-07
1.2829604e-07
1.2829657e-07
1.282974e-07
1.2829797e-07
1.2829536e-07
1.2827835e-07
1.2819491e-07
1.2665709e-07
1.2678452e-07
1.2682168e-07
1.268281e-07
1.2682794e-07
1.2682684e-07
1.2682606e-07
1.2682567e-07
1.2682553e-07
1.268255e-07
1.268255e-07
1.2682553e-07
1.2682567e-07
1.2682605e-07
1.2682684e-07
1.2682794e-07
1.268281e-07
1.2682168e-07
1.2678452e-07
1.2665708e-07
1.2532047e-07
1.2547689e-07
1.2553022e-07
1.255393e-07
1.2553935e-07
1.2553801e-07
1.2553704e-07
1.2553658e-07
1.2553641e-07
1.2553637e-07
1.2553638e-07
1.2553641e-07
1.2553657e-07
1.2553704e-07
1.2553801e-07
1.2553935e-07
1.255393e-07
1.2553021e-07
1.2547689e-07
1.2532046e-07
1.2426872e-07
1.2443944e-07
1.2450464e-07
1.2451716e-07
1.2451698e-07
1.2451525e-07
1.2451405e-07
1.2451348e-07
1.2451328e-07
1.2451324e-07
1.2451324e-07
1.2451328e-07
1.2451348e-07
1.2451404e-07
1.2451525e-07
1.2451698e-07
1.2451716e-07
1.2450464e-07
1.2443944e-07
1.2426871e-07
1.2350597e-07
1.2368253e-07
1.2375632e-07
1.2377328e-07
1.2377242e-07
1.2377006e-07
1.2376851e-07
1.2376777e-07
1.237675e-07
1.2376743e-07
1.2376743e-07
1.237675e-07
1.2376777e-07
1.2376851e-07
1.2377006e-07
1.2377242e-07
1.2377328e-07
1.2375632e-07
1.2368252e-07
1.2350596e-07
1.2297797e-07
1.2316338e-07
1.2324085e-07
1.2326256e-07
1.2326058e-07
1.2325732e-07
1.2325526e-07
1.2325424e-07
1.2325383e-07
1.2325371e-07
1.2325371e-07
1.2325383e-07
1.2325424e-07
1.2325526e-07
1.2325732e-07
1.2326058e-07
1.2326256e-07
1.2324085e-07
1.2316338e-07
1.2297797e-07
1.2258846e-07
1.2279694e-07
1.2287395e-07
1.229e-07
1.2289651e-07
1.2289206e-07
1.228893e-07
1.2288787e-07
1.2288725e-07
1.2288705e-07
1.2288705e-07
1.2288725e-07
1.2288787e-07
1.228893e-07
1.2289206e-07
1.2289651e-07
1.229e-07
1.2287395e-07
1.2279694e-07
1.2258845e-07
1.2220948e-07
1.2246698e-07
1.2254092e-07
1.2257051e-07
1.2256861e-07
1.2256266e-07
1.2255901e-07
1.2255706e-07
1.2255617e-07
1.2255583e-07
1.2255583e-07
1.2255617e-07
1.2255706e-07
1.2255901e-07
1.2256266e-07
1.2256861e-07
1.2257051e-07
1.2254092e-07
1.2246698e-07
1.2220948e-07
1.2168759e-07
1.2203743e-07
1.2210715e-07
1.2213939e-07
1.2214422e-07
1.2214095e-07
1.2213628e-07
1.2213373e-07
1.221325e-07
1.2213202e-07
1.2213202e-07
1.221325e-07
1.2213373e-07
1.2213628e-07
1.2214095e-07
1.2214422e-07
1.2213939e-07
1.2210715e-07
1.2203743e-07
1.2168759e-07
1.2084649e-07
1.2134522e-07
1.214185e-07
1.214526e-07
1.2147297e-07
1.2147904e-07
1.2147329e-07
1.2147013e-07
1.2146849e-07
1.2146784e-07
1.2146784e-07
1.2146849e-07
1.2147013e-07
1.2147329e-07
1.2147904e-07
1.2147297e-07
1.214526e-07
1.214185e-07
1.2134522e-07
1.2084649e-07
1.19495e-07
1.2019782e-07
1.203014e-07
1.2033599e-07
1.2038386e-07
1.2040349e-07
1.2039673e-07
1.2039303e-07
1.2039069e-07
1.2038986e-07
1.2038986e-07
1.2039069e-07
1.2039303e-07
1.2039673e-07
1.2040348e-07
1.2038386e-07
1.2033599e-07
1.2030139e-07
1.2019782e-07
1.1949499e-07
1.1743222e-07
1.1838604e-07
1.185623e-07
1.1859221e-07
1.1867623e-07
1.1870904e-07
1.1870163e-07
1.1869754e-07
1.18704e-07
1.1870277e-07
1.1870277e-07
1.18704e-07
1.1869754e-07
1.1870162e-07
1.1870903e-07
1.1867623e-07
1.1859221e-07
1.1856229e-07
1.1838604e-07
1.1743222e-07
1.1443005e-07
1.1568009e-07
1.1596758e-07
1.160094e-07
1.1613035e-07
1.1617294e-07
1.1616595e-07
1.1616224e-07
1.1618336e-07
1.1618118e-07
1.1618118e-07
1.1618336e-07
1.1616223e-07
1.1616594e-07
1.1617294e-07
1.1613035e-07
1.1600939e-07
1.1596757e-07
1.1568008e-07
1.1443004e-07
1.1076264e-07
1.1234066e-07
1.1277897e-07
1.128619e-07
1.1301381e-07
1.1306115e-07
1.1305022e-07
1.130463e-07
1.130827e-07
1.1310171e-07
1.1310171e-07
1.130827e-07
1.130463e-07
1.1305021e-07
1.1306114e-07
1.130138e-07
1.1286189e-07
1.1277896e-07
1.1234065e-07
1.1076262e-07
1.0593915e-07
1.0785344e-07
1.084721e-07
1.0864176e-07
1.0881784e-07
1.0886257e-07
1.0884643e-07
1.0884354e-07
1.0889651e-07
1.0894321e-07
1.0894321e-07
1.088965e-07
1.0884353e-07
1.0884642e-07
1.0886256e-07
1.0881783e-07
1.0864175e-07
1.0847209e-07
1.0785343e-07
1.0593914e-07
9.9917867e-08
1.0206877e-07
1.028721e-07
1.0312357e-07
1.0335562e-07
1.034071e-07
1.0340359e-07
1.0340323e-07
1.0346204e-07
1.0352271e-07
1.0352271e-07
1.0346204e-07
1.0340322e-07
1.0340358e-07
1.0340709e-07
1.0335561e-07
1.0312357e-07
1.0287209e-07
1.0206876e-07
9.991786e-08
9.3155981e-08
9.5273216e-08
9.6183028e-08
9.6474786e-08
9.6742004e-08
9.6816515e-08
9.6834088e-08
9.6837193e-08
9.6923324e-08
9.6981003e-08
9.6981003e-08
9.6923322e-08
9.683719e-08
9.6834085e-08
9.6816511e-08
9.6741999e-08
9.647478e-08
9.6183021e-08
9.527321e-08
9.315598e-08
8.6998646e-08
8.86727e-08
8.9513423e-08
8.9785316e-08
9.0059438e-08
9.0138199e-08
9.016414e-08
9.0167904e-08
9.0255806e-08
9.0295807e-08
9.0295807e-08
9.0255806e-08
9.0167903e-08
9.0164139e-08
9.0138196e-08
9.0059435e-08
8.9785312e-08
8.951342e-08
8.8672698e-08
8.6998651e-08
0.00026026601
0.00026031874
0.00026044359
0.0002605811
0.00026069811
0.00026080373
0.00026089018
0.00026095535
0.00026099914
0.00026102133
0.00026102133
0.00026099914
0.00026095535
0.00026089017
0.00026080373
0.00026069811
0.00026058109
0.00026044358
0.00026031874
0.000260266
0.0002570471
0.00025711634
0.00025722919
0.00025735394
0.0002574698
0.00025757161
0.00025765494
0.00025771787
0.00025775999
0.00025778113
0.00025778112
0.00025775999
0.00025771787
0.00025765494
0.0002575716
0.00025746979
0.00025735394
0.00025722918
0.00025711633
0.00025704709
0.00025406291
0.00025416275
0.0002542862
0.00025441206
0.00025452809
0.00025462838
0.00025470975
0.00025477087
0.00025481151
0.0002548318
0.0002548318
0.00025481151
0.00025477086
0.00025470975
0.00025462838
0.00025452809
0.00025441206
0.0002542862
0.00025416275
0.00025406291
0.00025131087
0.00025144909
0.00025160175
0.00025174309
0.00025186609
0.0002519684
0.00025204944
0.00025210943
0.00025214894
0.00025216854
0.00025216854
0.00025214894
0.00025210942
0.00025204944
0.0002519684
0.00025186609
0.00025174309
0.00025160174
0.00025144909
0.00025131087
0.00024880407
0.00024897087
0.00024915516
0.00024931935
0.00024945593
0.0002495651
0.00024964893
0.00024970963
0.00024974903
0.00024976841
0.00024976841
0.00024974903
0.00024970963
0.00024964893
0.0002495651
0.00024945593
0.00024931935
0.00024915515
0.00024897087
0.00024880407
0.00024654325
0.00024672461
0.00024693275
0.00024711887
0.0002472714
0.00024739063
0.00024748013
0.00024754368
0.00024758434
0.00024760417
0.00024760417
0.00024758434
0.00024754368
0.00024748013
0.00024739062
0.00024727139
0.00024711887
0.00024693275
0.0002467246
0.00024654325
0.00024451748
0.00024470166
0.00024492275
0.00024512487
0.00024529152
0.00024542132
0.0002455179
0.00024558577
0.00024562881
0.00024564967
0.00024564967
0.00024562881
0.00024558577
0.0002455179
0.00024542132
0.00024529152
0.00024512487
0.00024492275
0.00024470166
0.00024451748
0.00024270926
0.00024288847
0.0002431125
0.00024332301
0.00024349946
0.00024363802
0.00024374136
0.00024381393
0.00024385984
0.00024388205
0.00024388205
0.00024385984
0.00024381393
0.00024374136
0.00024363802
0.00024349946
0.00024332301
0.0002431125
0.00024288847
0.00024270926
0.00024109887
0.00024126863
0.00024148801
0.00024169972
0.00024188075
0.0002420249
0.00024213342
0.00024221003
0.00024225864
0.00024228219
0.00024228219
0.00024225864
0.00024221003
0.00024213342
0.00024202491
0.00024188075
0.00024169972
0.00024148801
0.00024126863
0.00024109887
0.00023966691
0.00023982499
0.00024003462
0.00024024172
0.00024042233
0.00024056847
0.00024067982
0.00024075914
0.00024080977
0.00024083437
0.00024083437
0.00024080977
0.00024075914
0.00024067982
0.00024056847
0.00024042234
0.00024024173
0.00024003463
0.00023982499
0.00023966691
0.00023839561
0.0002385411
0.00023873788
0.00023893611
0.00023911212
0.00023925678
0.00023936845
0.0002394488
0.00023950045
0.00023952567
0.00023952567
0.00023950045
0.0002394488
0.00023936845
0.00023925678
0.00023911212
0.00023893611
0.00023873788
0.0002385411
0.00023839562
0.00023726935
0.00023740206
0.00023758426
0.00023777076
0.00023793897
0.00023807921
0.00023818883
0.00023826851
0.00023832011
0.00023834541
0.00023834541
0.00023832011
0.00023826851
0.00023818883
0.00023807921
0.00023793897
0.00023777076
0.00023758426
0.00023740206
0.00023726936
0.00023627483
0.00023639493
0.00023656174
0.00023673474
0.00023689286
0.00023702638
0.00023713194
0.00023720941
0.00023725995
0.00023728483
0.00023728483
0.00023725995
0.00023720941
0.00023713195
0.00023702638
0.00023689286
0.00023673474
0.00023656175
0.00023639493
0.00023627483
0.0002354011
0.00023550893
0.00023566012
0.00023581862
0.00023596515
0.00023609028
0.00023619024
0.00023626423
0.00023631282
0.00023633684
0.00023633684
0.00023631282
0.00023626423
0.00023619024
0.00023609028
0.00023596515
0.00023581862
0.00023566012
0.00023550893
0.0002354011
0.00023463959
0.00023473555
0.0002348712
0.00023501475
0.00023514882
0.00023526447
0.00023535772
0.00023542729
0.00023547326
0.00023549607
0.00023549607
0.00023547326
0.00023542729
0.00023535772
0.00023526447
0.00023514882
0.00023501476
0.0002348712
0.00023473555
0.0002346396
0.00023398415
0.00023406863
0.00023418901
0.00023431758
0.0002344388
0.00023454437
0.00023463022
0.00023469477
0.00023473766
0.00023475901
0.00023475901
0.00023473766
0.00023469477
0.00023463023
0.00023454437
0.0002344388
0.00023431758
0.00023418901
0.00023406863
0.00023398416
0.00023343112
0.00023350449
0.00023361002
0.00023372387
0.0002338323
0.00023392763
0.00023400585
0.00023406508
0.00023410465
0.00023412443
0.00023412443
0.00023410465
0.00023406508
0.00023400585
0.00023392763
0.0002338323
0.00023372387
0.00023361003
0.00023350449
0.00023343112
0.00023297947
0.00023304214
0.00023313346
0.00023323321
0.00023332933
0.00023341475
0.00023348549
0.00023353947
0.00023357573
0.00023359392
0.00023359392
0.00023357573
0.00023353947
0.00023348549
0.00023341476
0.00023332934
0.00023323321
0.00023313346
0.00023304214
0.00023297947
0.00023263101
0.00023268358
0.00023276169
0.00023284851
0.00023293342
0.00023300982
0.00023307374
0.00023312291
0.00023315614
0.00023317287
0.00023317287
0.00023315614
0.00023312291
0.00023307374
0.00023300982
0.00023293342
0.00023284851
0.0002327617
0.00023268358
0.00023263101
0.0002323905
0.00023243411
0.00023250092
0.00023257692
0.0002326526
0.00023272166
0.00023278006
0.00023282536
0.00023285614
0.00023287169
0.00023287169
0.00023285614
0.00023282536
0.00023278006
0.00023272166
0.0002326526
0.00023257692
0.00023250092
0.00023243411
0.0002323905
0.00023226551
0.00023230276
0.00023236201
0.00023243108
0.00023250099
0.00023256554
0.00023262059
0.00023266355
0.00023269287
0.00023270771
0.00023270771
0.00023269287
0.00023266355
0.00023262059
0.00023256554
0.00023250099
0.00023243108
0.00023236201
0.00023230276
0.00023226551
)
;

boundaryField
{
    Wall
    {
        type            calculated;
        value           uniform 4e-05;
    }
    frontAndBack
    {
        type            empty;
    }
    atmosphere
    {
        type            calculated;
        value           uniform 4e-05;
    }
}


// ************************************************************************* //
