/*--------------------------------*- C++ -*----------------------------------*\
| =========                 |                                                 |
| \\      /  F ield         | OpenFOAM: The Open Source CFD Toolbox           |
|  \\    /   O peration     | Version:  3.0.1                                 |
|   \\  /    A nd           | Web:      www.OpenFOAM.org                      |
|    \\/     M anipulation  |                                                 |
\*---------------------------------------------------------------------------*/
FoamFile
{
    version     2.0;
    format      ascii;
    class       volScalarField;
    location    "27";
    object      thermalDiff_gas;
}
// * * * * * * * * * * * * * * * * * * * * * * * * * * * * * * * * * * * * * //

dimensions      [0 2 -1 0 0 0 0];

internalField   nonuniform List<scalar> 
800
(
0.00030112574
0.00030113683
0.00030113899
0.00030113929
0.00030113933
0.00030113936
0.00030113941
0.00030113945
0.00030113949
0.0003011395
0.0003011395
0.00030113949
0.00030113945
0.00030113941
0.00030113936
0.00030113933
0.00030113929
0.00030113899
0.00030113683
0.00030112574
0.00029909587
0.00029919315
0.0002992176
0.00029922237
0.0002992223
0.0002992214
0.00029922067
0.00029922025
0.00029922003
0.00029921995
0.00029921995
0.00029922003
0.00029922025
0.00029922067
0.0002992214
0.00029922229
0.00029922237
0.0002992176
0.00029919315
0.00029909586
0.00029733172
0.0002974826
0.00029752914
0.00029753921
0.00029753994
0.00029753879
0.00029753771
0.00029753704
0.0002975367
0.00029753656
0.00029753656
0.0002975367
0.00029753704
0.00029753771
0.00029753879
0.00029753994
0.00029753921
0.00029752914
0.0002974826
0.00029733171
0.00029594398
0.00029613379
0.00029619804
0.0002962123
0.00029621361
0.00029621225
0.00029621093
0.00029621011
0.00029620969
0.00029620952
0.00029620952
0.00029620968
0.00029621011
0.00029621093
0.00029621225
0.0002962136
0.00029621229
0.00029619804
0.00029613378
0.00029594397
0.00029499961
0.00029521122
0.00029529024
0.00029530766
0.00029530916
0.00029530746
0.00029530585
0.00029530485
0.00029530434
0.00029530414
0.00029530414
0.00029530434
0.00029530484
0.00029530585
0.00029530745
0.00029530916
0.00029530766
0.00029529024
0.00029521121
0.0002949996
0.00029453818
0.00029475363
0.00029484618
0.00029486624
0.00029486761
0.00029486534
0.00029486334
0.00029486208
0.00029486144
0.00029486118
0.00029486118
0.00029486144
0.00029486208
0.00029486334
0.00029486534
0.00029486761
0.00029486624
0.00029484618
0.00029475363
0.00029453817
0.00029457214
0.00029477714
0.00029488072
0.00029490347
0.00029490462
0.00029490158
0.00029489904
0.00029489739
0.00029489655
0.00029489618
0.00029489618
0.00029489655
0.00029489739
0.00029489904
0.00029490158
0.00029490462
0.00029490347
0.00029488072
0.00029477714
0.00029457214
0.00029508357
0.00029527212
0.00029538078
0.00029540706
0.00029540826
0.00029540436
0.00029540111
0.00029539894
0.0002953978
0.00029539728
0.00029539728
0.0002953978
0.00029539894
0.00029540111
0.00029540436
0.00029540826
0.00029540706
0.00029538078
0.00029527212
0.00029508357
0.00029601891
0.00029619741
0.00029630293
0.00029633475
0.00029633655
0.00029633187
0.00029632782
0.00029632498
0.00029632346
0.00029632274
0.00029632274
0.00029632346
0.00029632498
0.00029632782
0.00029633187
0.00029633655
0.00029633476
0.00029630293
0.00029619742
0.00029601892
0.00029728436
0.00029747466
0.00029756981
0.00029761103
0.00029761486
0.00029760955
0.00029760468
0.00029760113
0.0002975992
0.00029759825
0.00029759825
0.0002975992
0.00029760114
0.00029760468
0.00029760955
0.00029761486
0.00029761104
0.00029756982
0.00029747468
0.00029728437
0.00029873131
0.00029897455
0.00029905712
0.0002991144
0.00029912313
0.00029911811
0.00029911287
0.00029910885
0.00029910667
0.00029910553
0.00029910554
0.00029910667
0.00029910885
0.00029911287
0.00029911812
0.00029912314
0.00029911441
0.00029905713
0.00029897457
0.00029873133
0.00030013254
0.00030047692
0.00030057013
0.00030065449
0.00030065799
0.00030065543
0.0003006512
0.00030064758
0.00030064605
0.00030064499
0.00030064499
0.00030064606
0.00030064758
0.00030065121
0.00030065544
0.000300658
0.00030065451
0.00030057015
0.00030047694
0.00030013256
0.00030114294
0.00030163355
0.00030180257
0.00030190529
0.00030189347
0.0003018978
0.00030189773
0.00030189708
0.00030190044
0.00030190055
0.00030190055
0.00030190044
0.00030189708
0.00030189773
0.00030189781
0.00030189348
0.00030190531
0.00030180258
0.00030163356
0.00030114296
0.00030121153
0.00030194439
0.00030225019
0.00030237025
0.00030235649
0.00030237585
0.00030238696
0.00030239341
0.00030236905
0.00030237102
0.00030237102
0.00030236905
0.00030239341
0.00030238697
0.00030237586
0.0003023565
0.00030237027
0.00030225021
0.00030194441
0.00030121154
0.000299567
0.00030070273
0.00030117798
0.00030134924
0.00030137331
0.00030142476
0.00030147119
0.00030149308
0.00030143271
0.00030143799
0.00030143799
0.00030143271
0.00030149308
0.00030147119
0.00030142476
0.00030137332
0.00030134925
0.000301178
0.00030070275
0.00029956702
0.00029520605
0.00029692464
0.00029761305
0.00029789478
0.00029800944
0.00029814087
0.00029814861
0.00029819442
0.00029814542
0.00029815762
0.00029815762
0.00029814542
0.00029819442
0.00029814862
0.00029814088
0.00029800945
0.00029789479
0.00029761306
0.00029692466
0.00029520607
0.00028672658
0.00028923915
0.00029025319
0.00029070201
0.00029094912
0.00029102978
0.00029105837
0.00029114385
0.00029123103
0.00029126477
0.00029126477
0.00029123104
0.00029114385
0.00029105837
0.00029102978
0.00029094913
0.00029070203
0.00029025321
0.00028923916
0.00028672661
0.0002741489
0.00027652662
0.00027780434
0.00027837693
0.00027891508
0.00027910985
0.00027923829
0.00027934725
0.00027933669
0.00027937942
0.00027937942
0.0002793367
0.00027934726
0.0002792383
0.00027910987
0.00027891509
0.00027837695
0.00027780436
0.00027652665
0.00027414892
0.00026550213
0.00026585699
0.00026618389
0.00026642013
0.00026654533
0.00026667856
0.00026678051
0.0002668543
0.00026690494
0.00026693144
0.00026693144
0.00026690494
0.0002668543
0.00026678051
0.00026667855
0.00026654533
0.00026642013
0.00026618389
0.00026585698
0.00026550212
0.00026026601
0.00026031874
0.00026044359
0.0002605811
0.00026069811
0.00026080373
0.00026089018
0.00026095535
0.00026099914
0.00026102133
0.00026102133
0.00026099914
0.00026095535
0.00026089017
0.00026080373
0.00026069811
0.00026058109
0.00026044358
0.00026031874
0.000260266
0.0002570471
0.00025711634
0.00025722919
0.00025735394
0.0002574698
0.00025757161
0.00025765494
0.00025771787
0.00025775999
0.00025778113
0.00025778112
0.00025775999
0.00025771787
0.00025765494
0.0002575716
0.00025746979
0.00025735394
0.00025722918
0.00025711633
0.00025704709
0.00025406291
0.00025416275
0.0002542862
0.00025441206
0.00025452809
0.00025462838
0.00025470975
0.00025477087
0.00025481151
0.0002548318
0.0002548318
0.00025481151
0.00025477086
0.00025470975
0.00025462838
0.00025452809
0.00025441206
0.0002542862
0.00025416275
0.00025406291
0.00025131087
0.00025144909
0.00025160175
0.00025174309
0.00025186609
0.0002519684
0.00025204944
0.00025210943
0.00025214894
0.00025216854
0.00025216854
0.00025214894
0.00025210942
0.00025204944
0.0002519684
0.00025186609
0.00025174309
0.00025160174
0.00025144909
0.00025131087
0.00024880407
0.00024897087
0.00024915516
0.00024931935
0.00024945593
0.0002495651
0.00024964893
0.00024970963
0.00024974903
0.00024976841
0.00024976841
0.00024974903
0.00024970963
0.00024964893
0.0002495651
0.00024945593
0.00024931935
0.00024915515
0.00024897087
0.00024880407
0.00024654325
0.00024672461
0.00024693275
0.00024711887
0.0002472714
0.00024739063
0.00024748013
0.00024754368
0.00024758434
0.00024760417
0.00024760417
0.00024758434
0.00024754368
0.00024748013
0.00024739062
0.00024727139
0.00024711887
0.00024693275
0.0002467246
0.00024654325
0.00024451748
0.00024470166
0.00024492275
0.00024512487
0.00024529152
0.00024542132
0.0002455179
0.00024558577
0.00024562881
0.00024564967
0.00024564967
0.00024562881
0.00024558577
0.0002455179
0.00024542132
0.00024529152
0.00024512487
0.00024492275
0.00024470166
0.00024451748
0.00024270926
0.00024288847
0.0002431125
0.00024332301
0.00024349946
0.00024363802
0.00024374136
0.00024381393
0.00024385984
0.00024388205
0.00024388205
0.00024385984
0.00024381393
0.00024374136
0.00024363802
0.00024349946
0.00024332301
0.0002431125
0.00024288847
0.00024270926
0.00024109887
0.00024126863
0.00024148801
0.00024169972
0.00024188075
0.0002420249
0.00024213342
0.00024221003
0.00024225864
0.00024228219
0.00024228219
0.00024225864
0.00024221003
0.00024213342
0.00024202491
0.00024188075
0.00024169972
0.00024148801
0.00024126863
0.00024109887
0.00023966691
0.00023982499
0.00024003462
0.00024024172
0.00024042233
0.00024056847
0.00024067982
0.00024075914
0.00024080977
0.00024083437
0.00024083437
0.00024080977
0.00024075914
0.00024067982
0.00024056847
0.00024042234
0.00024024173
0.00024003463
0.00023982499
0.00023966691
0.00023839561
0.0002385411
0.00023873788
0.00023893611
0.00023911212
0.00023925678
0.00023936845
0.0002394488
0.00023950045
0.00023952567
0.00023952567
0.00023950045
0.0002394488
0.00023936845
0.00023925678
0.00023911212
0.00023893611
0.00023873788
0.0002385411
0.00023839562
0.00023726935
0.00023740206
0.00023758426
0.00023777076
0.00023793897
0.00023807921
0.00023818883
0.00023826851
0.00023832011
0.00023834541
0.00023834541
0.00023832011
0.00023826851
0.00023818883
0.00023807921
0.00023793897
0.00023777076
0.00023758426
0.00023740206
0.00023726936
0.00023627483
0.00023639493
0.00023656174
0.00023673474
0.00023689286
0.00023702638
0.00023713194
0.00023720941
0.00023725995
0.00023728483
0.00023728483
0.00023725995
0.00023720941
0.00023713195
0.00023702638
0.00023689286
0.00023673474
0.00023656175
0.00023639493
0.00023627483
0.0002354011
0.00023550893
0.00023566012
0.00023581862
0.00023596515
0.00023609028
0.00023619024
0.00023626423
0.00023631282
0.00023633684
0.00023633684
0.00023631282
0.00023626423
0.00023619024
0.00023609028
0.00023596515
0.00023581862
0.00023566012
0.00023550893
0.0002354011
0.00023463959
0.00023473555
0.0002348712
0.00023501475
0.00023514882
0.00023526447
0.00023535772
0.00023542729
0.00023547326
0.00023549607
0.00023549607
0.00023547326
0.00023542729
0.00023535772
0.00023526447
0.00023514882
0.00023501476
0.0002348712
0.00023473555
0.0002346396
0.00023398415
0.00023406863
0.00023418901
0.00023431758
0.0002344388
0.00023454437
0.00023463022
0.00023469477
0.00023473766
0.00023475901
0.00023475901
0.00023473766
0.00023469477
0.00023463023
0.00023454437
0.0002344388
0.00023431758
0.00023418901
0.00023406863
0.00023398416
0.00023343112
0.00023350449
0.00023361002
0.00023372387
0.0002338323
0.00023392763
0.00023400585
0.00023406508
0.00023410465
0.00023412443
0.00023412443
0.00023410465
0.00023406508
0.00023400585
0.00023392763
0.0002338323
0.00023372387
0.00023361003
0.00023350449
0.00023343112
0.00023297947
0.00023304214
0.00023313346
0.00023323321
0.00023332933
0.00023341475
0.00023348549
0.00023353947
0.00023357573
0.00023359392
0.00023359392
0.00023357573
0.00023353947
0.00023348549
0.00023341476
0.00023332934
0.00023323321
0.00023313346
0.00023304214
0.00023297947
0.00023263101
0.00023268358
0.00023276169
0.00023284851
0.00023293342
0.00023300982
0.00023307374
0.00023312291
0.00023315614
0.00023317287
0.00023317287
0.00023315614
0.00023312291
0.00023307374
0.00023300982
0.00023293342
0.00023284851
0.0002327617
0.00023268358
0.00023263101
0.0002323905
0.00023243411
0.00023250092
0.00023257692
0.0002326526
0.00023272166
0.00023278006
0.00023282536
0.00023285614
0.00023287169
0.00023287169
0.00023285614
0.00023282536
0.00023278006
0.00023272166
0.0002326526
0.00023257692
0.00023250092
0.00023243411
0.0002323905
0.00023226551
0.00023230276
0.00023236201
0.00023243108
0.00023250099
0.00023256554
0.00023262059
0.00023266355
0.00023269287
0.00023270771
0.00023270771
0.00023269287
0.00023266355
0.00023262059
0.00023256554
0.00023250099
0.00023243108
0.00023236201
0.00023230276
0.00023226551
)
;

boundaryField
{
    Wall
    {
        type            calculated;
        value           uniform 0.1;
    }
    frontAndBack
    {
        type            empty;
    }
    atmosphere
    {
        type            calculated;
        value           uniform 0.1;
    }
}


// ************************************************************************* //
