/*--------------------------------*- C++ -*----------------------------------*\
| =========                 |                                                 |
| \\      /  F ield         | OpenFOAM: The Open Source CFD Toolbox           |
|  \\    /   O peration     | Version:  3.0.1                                 |
|   \\  /    A nd           | Web:      www.OpenFOAM.org                      |
|    \\/     M anipulation  |                                                 |
\*---------------------------------------------------------------------------*/
FoamFile
{
    version     2.0;
    format      ascii;
    class       volScalarField;
    location    "27";
    object      thermalConductivity;
}
// * * * * * * * * * * * * * * * * * * * * * * * * * * * * * * * * * * * * * //

dimensions      [0 2 -1 0 0 0 0];

internalField   nonuniform List<scalar> 
800
(
0.019109747
0.019109065
0.019108968
0.019108964
0.019108968
0.019108971
0.019108972
0.019108972
0.019108972
0.019108972
0.019108972
0.019108972
0.019108972
0.019108972
0.019108971
0.019108968
0.019108964
0.019108968
0.019109065
0.019109747
0.019283853
0.019274399
0.019272474
0.019272179
0.019272243
0.019272337
0.019272398
0.019272426
0.019272437
0.01927244
0.01927244
0.019272437
0.019272426
0.019272398
0.019272337
0.019272243
0.019272179
0.019272474
0.019274399
0.019283854
0.019462594
0.019447452
0.019443048
0.019442287
0.019442307
0.019442437
0.01944253
0.019442575
0.019442592
0.019442596
0.019442596
0.019442592
0.019442575
0.01944253
0.019442437
0.019442307
0.019442288
0.019443048
0.019447452
0.019462594
0.019625187
0.019605795
0.019599207
0.019598085
0.01959808
0.019598245
0.019598365
0.019598422
0.019598442
0.019598447
0.019598447
0.019598442
0.019598422
0.019598365
0.019598245
0.01959808
0.019598086
0.019599208
0.019605796
0.019625188
0.019758181
0.019736279
0.019727947
0.019726349
0.019726373
0.019726594
0.019726747
0.019726819
0.019726845
0.01972685
0.01972685
0.019726845
0.01972682
0.019726747
0.019726594
0.019726373
0.019726349
0.019727948
0.01973628
0.019758182
0.01985757
0.019834338
0.019824669
0.019822449
0.019822563
0.019822871
0.019823074
0.019823171
0.019823206
0.019823215
0.019823215
0.019823207
0.019823171
0.019823074
0.019822871
0.019822563
0.019822449
0.019824669
0.019834338
0.019857571
0.019927877
0.019903045
0.019892715
0.019889825
0.019890089
0.019890523
0.019890798
0.019890934
0.019890988
0.019891004
0.019891004
0.019890988
0.019890934
0.019890798
0.019890523
0.019890089
0.019889825
0.019892716
0.019903045
0.019927877
0.019980558
0.019952274
0.019941878
0.019938366
0.019938837
0.019939436
0.019939808
0.019940001
0.019940084
0.019940112
0.019940112
0.019940084
0.019940001
0.019939809
0.019939436
0.019938837
0.019938366
0.019941878
0.019952274
0.019980558
0.020032492
0.019997132
0.019987036
0.019983002
0.01998326
0.019984072
0.019984569
0.019984835
0.019984957
0.019985002
0.019985002
0.019984957
0.019984835
0.01998457
0.019984072
0.019983261
0.019983002
0.019987036
0.019997132
0.020032493
0.020105134
0.020056295
0.020046632
0.020042173
0.020041504
0.020041957
0.020042603
0.020042955
0.020043125
0.020043191
0.020043191
0.020043125
0.020042955
0.020042603
0.020041957
0.020041505
0.020042173
0.020046632
0.020056295
0.020105134
0.02022503
0.02015351
0.020143108
0.020138276
0.020135393
0.020134533
0.020135346
0.020135794
0.020136026
0.020136118
0.020136118
0.020136026
0.020135794
0.020135347
0.020134533
0.020135393
0.020138276
0.020143108
0.02015351
0.02022503
0.020425362
0.020319969
0.020304661
0.020299561
0.020292514
0.020289629
0.020290622
0.020291166
0.02029151
0.020291632
0.020291632
0.020291511
0.020291167
0.020290622
0.02028963
0.020292514
0.020299561
0.020304661
0.020319969
0.020425363
0.020750931
0.02059727
0.020569474
0.020564775
0.020551602
0.020546471
0.02054763
0.020548268
0.020547258
0.020547451
0.020547451
0.020547259
0.020548269
0.02054763
0.020546471
0.020551603
0.020564775
0.020569475
0.020597271
0.020750932
0.0212734
0.021048289
0.020998091
0.020990837
0.020969921
0.02096258
0.020963786
0.020964424
0.020960787
0.020961162
0.020961162
0.020960787
0.020964425
0.020963786
0.020962581
0.020969922
0.020990838
0.020998092
0.021048291
0.021273402
0.022005952
0.021676554
0.021589009
0.021572628
0.021542773
0.021533509
0.021535647
0.021536412
0.021529298
0.021525586
0.021525586
0.021529298
0.021536413
0.021535648
0.02153351
0.021542775
0.02157263
0.021589011
0.021676556
0.022005955
0.023176539
0.022678968
0.022528002
0.022487381
0.022445572
0.022435006
0.022438816
0.022439498
0.022427004
0.022416014
0.022416015
0.022427004
0.022439499
0.022438817
0.022435008
0.022445573
0.022487383
0.022528004
0.022678971
0.023176543
0.025129478
0.024351628
0.024086222
0.024005657
0.023932343
0.023916208
0.023917306
0.023917419
0.02389904
0.023880145
0.023880146
0.023899041
0.023917421
0.023917308
0.02391621
0.023932345
0.02400566
0.024086225
0.024351631
0.025129481
0.028516162
0.027254353
0.026777998
0.026632375
0.026501845
0.02646592
0.026457477
0.026455986
0.026414775
0.026387325
0.026387326
0.026414775
0.026455988
0.026457478
0.026465922
0.026501848
0.026632378
0.026778001
0.027254356
0.028516162
0.034395222
0.032293371
0.031421567
0.031159932
0.030905128
0.030833507
0.030810068
0.030806673
0.030727835
0.030692236
0.030692236
0.030727835
0.030806674
0.030810069
0.030833509
0.030905131
0.031159935
0.03142157
0.032293372
0.034395215
0.024
0.024
0.024
0.024
0.024
0.024
0.024
0.024
0.024
0.024
0.024
0.024
0.024
0.024
0.024
0.024
0.024
0.024
0.024
0.024
0.024
0.024
0.024
0.024
0.024
0.024
0.024
0.024
0.024
0.024
0.024
0.024
0.024
0.024
0.024
0.024
0.024
0.024
0.024
0.024
0.024
0.024
0.024
0.024
0.024
0.024
0.024
0.024
0.024
0.024
0.024
0.024
0.024
0.024
0.024
0.024
0.024
0.024
0.024
0.024
0.024
0.024
0.024
0.024
0.024
0.024
0.024
0.024
0.024
0.024
0.024
0.024
0.024
0.024
0.024
0.024
0.024
0.024
0.024
0.024
0.024
0.024
0.024
0.024
0.024
0.024
0.024
0.024
0.024
0.024
0.024
0.024
0.024
0.024
0.024
0.024
0.024
0.024
0.024
0.024
0.024
0.024
0.024
0.024
0.024
0.024
0.024
0.024
0.024
0.024
0.024
0.024
0.024
0.024
0.024
0.024
0.024
0.024
0.024
0.024
0.024
0.024
0.024
0.024
0.024
0.024
0.024
0.024
0.024
0.024
0.024
0.024
0.024
0.024
0.024
0.024
0.024
0.024
0.024
0.024
0.024
0.024
0.024
0.024
0.024
0.024
0.024
0.024
0.024
0.024
0.024
0.024
0.024
0.024
0.024
0.024
0.024
0.024
0.024
0.024
0.024
0.024
0.024
0.024
0.024
0.024
0.024
0.024
0.024
0.024
0.024
0.024
0.024
0.024
0.024
0.024
0.024
0.024
0.024
0.024
0.024
0.024
0.024
0.024
0.024
0.024
0.024
0.024
0.024
0.024
0.024
0.024
0.024
0.024
0.024
0.024
0.024
0.024
0.024
0.024
0.024
0.024
0.024
0.024
0.024
0.024
0.024
0.024
0.024
0.024
0.024
0.024
0.024
0.024
0.024
0.024
0.024
0.024
0.024
0.024
0.024
0.024
0.024
0.024
0.024
0.024
0.024
0.024
0.024
0.024
0.024
0.024
0.024
0.024
0.024
0.024
0.024
0.024
0.024
0.024
0.024
0.024
0.024
0.024
0.024
0.024
0.024
0.024
0.024
0.024
0.024
0.024
0.024
0.024
0.024
0.024
0.024
0.024
0.024
0.024
0.024
0.024
0.024
0.024
0.024
0.024
0.024
0.024
0.024
0.024
0.024
0.024
0.024
0.024
0.024
0.024
0.024
0.024
0.024
0.024
0.024
0.024
0.024
0.024
0.024
0.024
0.024
0.024
0.024
0.024
0.024
0.024
0.024
0.024
0.024
0.024
0.024
0.024
0.024
0.024
0.024
0.024
0.024
0.024
0.024
0.024
0.024
0.024
0.024
0.024
0.024
0.024
0.024
0.024
0.024
0.024
0.024
0.024
0.024
0.024
0.024
0.024
0.024
0.024
0.024
0.024
0.024
0.024
0.024
0.024
0.024
0.024
0.024
0.024
0.024
0.024
0.024
0.024
0.024
0.024
0.024
0.024
0.024
0.024
0.024
0.024
0.024
0.024
0.024
0.024
0.024
0.024
0.024
0.024
0.024
0.024
0.024
0.024
0.024
0.024
0.024
0.024
0.024
0.024
0.024
0.024
0.024
0.024
0.024
0.024
0.024
0.024
0.024
0.024
0.024
0.024
0.024
0.024
0.024
0.024
0.024
0.024
0.024
0.024
0.024
0.024
0.024
0.024
0.024
0.024
0.024
0.024
0.024
0.024
0.024
0.024
0.024
0.024
0.024
0.024
0.024
0.024
0.024
0.024
0.024
0.024
0.024
0.024
0.024
0.024
0.024
0.024
0.024
0.024
0.024
0.024
0.024
0.024
0.024
0.024
)
;

boundaryField
{
    Wall
    {
        type            calculated;
        value           uniform 0.024;
    }
    frontAndBack
    {
        type            empty;
    }
    atmosphere
    {
        type            calculated;
        value           uniform 0.024;
    }
}


// ************************************************************************* //
