/*--------------------------------*- C++ -*----------------------------------*\
| =========                 |                                                 |
| \\      /  F ield         | OpenFOAM: The Open Source CFD Toolbox           |
|  \\    /   O peration     | Version:  3.0.1                                 |
|   \\  /    A nd           | Web:      www.OpenFOAM.org                      |
|    \\/     M anipulation  |                                                 |
\*---------------------------------------------------------------------------*/
FoamFile
{
    version     2.0;
    format      ascii;
    class       volScalarField;
    location    "27";
    object      thermalDiffusivity;
}
// * * * * * * * * * * * * * * * * * * * * * * * * * * * * * * * * * * * * * //

dimensions      [0 2 -1 0 0 0 0];

internalField   nonuniform List<scalar> 
800
(
1.2976656e-07
1.2977287e-07
1.2977377e-07
1.297738e-07
1.2977376e-07
1.2977374e-07
1.2977373e-07
1.2977372e-07
1.2977372e-07
1.2977373e-07
1.2977373e-07
1.2977372e-07
1.2977372e-07
1.2977373e-07
1.2977374e-07
1.2977376e-07
1.2977381e-07
1.2977377e-07
1.2977287e-07
1.2976656e-07
1.2819492e-07
1.2827835e-07
1.2829537e-07
1.2829797e-07
1.282974e-07
1.2829658e-07
1.2829604e-07
1.2829579e-07
1.2829569e-07
1.2829568e-07
1.2829567e-07
1.282957e-07
1.2829579e-07
1.2829604e-07
1.2829658e-07
1.282974e-07
1.2829797e-07
1.2829536e-07
1.2827835e-07
1.2819491e-07
1.2669217e-07
1.2681632e-07
1.2685255e-07
1.2685879e-07
1.2685863e-07
1.2685758e-07
1.2685685e-07
1.2685651e-07
1.2685639e-07
1.2685638e-07
1.2685637e-07
1.2685639e-07
1.2685651e-07
1.2685685e-07
1.2685758e-07
1.2685863e-07
1.2685879e-07
1.2685254e-07
1.2681631e-07
1.2669216e-07
1.2547826e-07
1.2561949e-07
1.2566861e-07
1.2567698e-07
1.2567706e-07
1.2567597e-07
1.2567523e-07
1.2567494e-07
1.2567489e-07
1.2567491e-07
1.256749e-07
1.2567489e-07
1.2567494e-07
1.2567523e-07
1.2567597e-07
1.2567706e-07
1.2567697e-07
1.256686e-07
1.2561949e-07
1.2547826e-07
1.246929e-07
1.2482211e-07
1.2487559e-07
1.2488637e-07
1.248864e-07
1.2488538e-07
1.2488481e-07
1.248847e-07
1.2488479e-07
1.2488489e-07
1.2488489e-07
1.2488479e-07
1.248847e-07
1.2488481e-07
1.2488537e-07
1.248864e-07
1.2488637e-07
1.2487558e-07
1.2482211e-07
1.246929e-07
1.2439415e-07
1.2448289e-07
1.2453066e-07
1.2454433e-07
1.2454417e-07
1.2454339e-07
1.245432e-07
1.2454343e-07
1.2454376e-07
1.2454398e-07
1.2454398e-07
1.2454376e-07
1.2454343e-07
1.245432e-07
1.2454339e-07
1.2454417e-07
1.2454432e-07
1.2453066e-07
1.2448289e-07
1.2439415e-07
1.2457618e-07
1.2460268e-07
1.2462938e-07
1.246457e-07
1.2464558e-07
1.2464537e-07
1.2464585e-07
1.2464658e-07
1.2464726e-07
1.2464765e-07
1.2464764e-07
1.2464726e-07
1.2464658e-07
1.2464585e-07
1.2464537e-07
1.2464558e-07
1.246457e-07
1.2462938e-07
1.2460268e-07
1.2457618e-07
1.2518293e-07
1.2513363e-07
1.2511929e-07
1.2513723e-07
1.2513776e-07
1.2513871e-07
1.251402e-07
1.2514165e-07
1.2514279e-07
1.251434e-07
1.2514339e-07
1.251428e-07
1.2514165e-07
1.2514021e-07
1.2513871e-07
1.2513776e-07
1.2513723e-07
1.2511929e-07
1.2513364e-07
1.2518294e-07
1.261177e-07
1.2598983e-07
1.2590873e-07
1.2592637e-07
1.2593205e-07
1.2593481e-07
1.2593771e-07
1.2594008e-07
1.2594183e-07
1.259427e-07
1.2594269e-07
1.2594183e-07
1.2594008e-07
1.2593772e-07
1.2593482e-07
1.2593205e-07
1.2592637e-07
1.2590873e-07
1.2598983e-07
1.261177e-07
1.2725171e-07
1.2706082e-07
1.2687851e-07
1.2689326e-07
1.2691093e-07
1.2692059e-07
1.2692526e-07
1.2692875e-07
1.269312e-07
1.2693238e-07
1.2693238e-07
1.269312e-07
1.2692875e-07
1.2692526e-07
1.2692059e-07
1.2691093e-07
1.2689326e-07
1.2687851e-07
1.2706083e-07
1.2725171e-07
1.2843146e-07
1.2820288e-07
1.2788317e-07
1.2789535e-07
1.2793554e-07
1.279596e-07
1.2796636e-07
1.2797114e-07
1.279746e-07
1.2797616e-07
1.2797615e-07
1.279746e-07
1.2797115e-07
1.2796637e-07
1.279596e-07
1.2793555e-07
1.2789535e-07
1.2788317e-07
1.2820288e-07
1.2843146e-07
1.2948788e-07
1.2920802e-07
1.2875467e-07
1.2877522e-07
1.2885145e-07
1.2889502e-07
1.2890425e-07
1.2891034e-07
1.2891431e-07
1.2891622e-07
1.2891621e-07
1.2891431e-07
1.2891035e-07
1.2890425e-07
1.2889502e-07
1.2885145e-07
1.2877521e-07
1.2875467e-07
1.2920802e-07
1.2948788e-07
1.3027099e-07
1.2980238e-07
1.2935574e-07
1.2939081e-07
1.2951275e-07
1.295763e-07
1.2958818e-07
1.2959543e-07
1.2960936e-07
1.2961206e-07
1.2961206e-07
1.2960936e-07
1.2959543e-07
1.2958818e-07
1.2957629e-07
1.2951275e-07
1.293908e-07
1.2935573e-07
1.2980239e-07
1.3027099e-07
1.3081679e-07
1.2984947e-07
1.2961742e-07
1.2966913e-07
1.2983504e-07
1.2991343e-07
1.299284e-07
1.2993648e-07
1.2996409e-07
1.299659e-07
1.299659e-07
1.2996409e-07
1.2993648e-07
1.2992839e-07
1.2991342e-07
1.2983503e-07
1.2966912e-07
1.2961741e-07
1.2984947e-07
1.3081679e-07
1.3305525e-07
1.307574e-07
1.3060896e-07
1.306495e-07
1.3082638e-07
1.309011e-07
1.309076e-07
1.3091039e-07
1.3094509e-07
1.3096698e-07
1.3096698e-07
1.3094509e-07
1.3091038e-07
1.309076e-07
1.3090109e-07
1.3082637e-07
1.3064949e-07
1.3060895e-07
1.3075739e-07
1.3305524e-07
1.4477867e-07
1.3720183e-07
1.3596444e-07
1.3573749e-07
1.3573751e-07
1.3570135e-07
1.3562498e-07
1.3558783e-07
1.3559847e-07
1.3563587e-07
1.3563586e-07
1.3559846e-07
1.3558782e-07
1.3562497e-07
1.3570132e-07
1.3573748e-07
1.3573745e-07
1.3596441e-07
1.3720179e-07
1.4477856e-07
2.2996246e-07
1.8666787e-07
1.7528778e-07
1.7206304e-07
1.7030683e-07
1.6924539e-07
1.6856983e-07
1.6819806e-07
1.678372e-07
1.6775034e-07
1.6775032e-07
1.6783715e-07
1.6819798e-07
1.6856972e-07
1.6924525e-07
1.7030666e-07
1.7206284e-07
1.7528753e-07
1.8666745e-07
2.2996128e-07
1.3854527e-06
7.7723068e-07
6.1548467e-07
5.6504621e-07
5.3647659e-07
5.2177119e-07
5.1325457e-07
5.0830379e-07
5.0278331e-07
5.0069178e-07
5.0069155e-07
5.0278254e-07
5.0830265e-07
5.1325298e-07
5.2176928e-07
5.3647427e-07
5.6504319e-07
6.1548079e-07
7.7722324e-07
1.3854288e-06
4.1050271e-05
2.0117679e-05
1.4475494e-05
1.2611187e-05
1.1462934e-05
1.087314e-05
1.0531183e-05
1.0350466e-05
1.0175704e-05
1.0102075e-05
1.0102066e-05
1.0175675e-05
1.0350421e-05
1.053112e-05
1.0873056e-05
1.1462834e-05
1.2611066e-05
1.447534e-05
2.0117408e-05
4.1049468e-05
0.00026026601
0.00026031874
0.00026044359
0.0002605811
0.00026069811
0.00026080373
0.00026089018
0.00026095535
0.00026099914
0.00026102133
0.00026102133
0.00026099914
0.00026095535
0.00026089017
0.00026080373
0.00026069811
0.00026058109
0.00026044358
0.00026031874
0.000260266
0.0002570471
0.00025711634
0.00025722919
0.00025735394
0.0002574698
0.00025757161
0.00025765494
0.00025771787
0.00025775999
0.00025778113
0.00025778112
0.00025775999
0.00025771787
0.00025765494
0.0002575716
0.00025746979
0.00025735394
0.00025722918
0.00025711633
0.00025704709
0.00025406291
0.00025416275
0.0002542862
0.00025441206
0.00025452809
0.00025462838
0.00025470975
0.00025477087
0.00025481151
0.0002548318
0.0002548318
0.00025481151
0.00025477086
0.00025470975
0.00025462838
0.00025452809
0.00025441206
0.0002542862
0.00025416275
0.00025406291
0.00025131087
0.00025144909
0.00025160175
0.00025174309
0.00025186609
0.0002519684
0.00025204944
0.00025210943
0.00025214894
0.00025216854
0.00025216854
0.00025214894
0.00025210942
0.00025204944
0.0002519684
0.00025186609
0.00025174309
0.00025160174
0.00025144909
0.00025131087
0.00024880407
0.00024897087
0.00024915516
0.00024931935
0.00024945593
0.0002495651
0.00024964893
0.00024970963
0.00024974903
0.00024976841
0.00024976841
0.00024974903
0.00024970963
0.00024964893
0.0002495651
0.00024945593
0.00024931935
0.00024915515
0.00024897087
0.00024880407
0.00024654325
0.00024672461
0.00024693275
0.00024711887
0.0002472714
0.00024739063
0.00024748013
0.00024754368
0.00024758434
0.00024760417
0.00024760417
0.00024758434
0.00024754368
0.00024748013
0.00024739062
0.00024727139
0.00024711887
0.00024693275
0.0002467246
0.00024654325
0.00024451748
0.00024470166
0.00024492275
0.00024512487
0.00024529152
0.00024542132
0.0002455179
0.00024558577
0.00024562881
0.00024564967
0.00024564967
0.00024562881
0.00024558577
0.0002455179
0.00024542132
0.00024529152
0.00024512487
0.00024492275
0.00024470166
0.00024451748
0.00024270926
0.00024288847
0.0002431125
0.00024332301
0.00024349946
0.00024363802
0.00024374136
0.00024381393
0.00024385984
0.00024388205
0.00024388205
0.00024385984
0.00024381393
0.00024374136
0.00024363802
0.00024349946
0.00024332301
0.0002431125
0.00024288847
0.00024270926
0.00024109887
0.00024126863
0.00024148801
0.00024169972
0.00024188075
0.0002420249
0.00024213342
0.00024221003
0.00024225864
0.00024228219
0.00024228219
0.00024225864
0.00024221003
0.00024213342
0.00024202491
0.00024188075
0.00024169972
0.00024148801
0.00024126863
0.00024109887
0.00023966691
0.00023982499
0.00024003462
0.00024024172
0.00024042233
0.00024056847
0.00024067982
0.00024075914
0.00024080977
0.00024083437
0.00024083437
0.00024080977
0.00024075914
0.00024067982
0.00024056847
0.00024042234
0.00024024173
0.00024003463
0.00023982499
0.00023966691
0.00023839561
0.0002385411
0.00023873788
0.00023893611
0.00023911212
0.00023925678
0.00023936845
0.0002394488
0.00023950045
0.00023952567
0.00023952567
0.00023950045
0.0002394488
0.00023936845
0.00023925678
0.00023911212
0.00023893611
0.00023873788
0.0002385411
0.00023839562
0.00023726935
0.00023740206
0.00023758426
0.00023777076
0.00023793897
0.00023807921
0.00023818883
0.00023826851
0.00023832011
0.00023834541
0.00023834541
0.00023832011
0.00023826851
0.00023818883
0.00023807921
0.00023793897
0.00023777076
0.00023758426
0.00023740206
0.00023726936
0.00023627483
0.00023639493
0.00023656174
0.00023673474
0.00023689286
0.00023702638
0.00023713194
0.00023720941
0.00023725995
0.00023728483
0.00023728483
0.00023725995
0.00023720941
0.00023713195
0.00023702638
0.00023689286
0.00023673474
0.00023656175
0.00023639493
0.00023627483
0.0002354011
0.00023550893
0.00023566012
0.00023581862
0.00023596515
0.00023609028
0.00023619024
0.00023626423
0.00023631282
0.00023633684
0.00023633684
0.00023631282
0.00023626423
0.00023619024
0.00023609028
0.00023596515
0.00023581862
0.00023566012
0.00023550893
0.0002354011
0.00023463959
0.00023473555
0.0002348712
0.00023501475
0.00023514882
0.00023526447
0.00023535772
0.00023542729
0.00023547326
0.00023549607
0.00023549607
0.00023547326
0.00023542729
0.00023535772
0.00023526447
0.00023514882
0.00023501476
0.0002348712
0.00023473555
0.0002346396
0.00023398415
0.00023406863
0.00023418901
0.00023431758
0.0002344388
0.00023454437
0.00023463022
0.00023469477
0.00023473766
0.00023475901
0.00023475901
0.00023473766
0.00023469477
0.00023463023
0.00023454437
0.0002344388
0.00023431758
0.00023418901
0.00023406863
0.00023398416
0.00023343112
0.00023350449
0.00023361002
0.00023372387
0.0002338323
0.00023392763
0.00023400585
0.00023406508
0.00023410465
0.00023412443
0.00023412443
0.00023410465
0.00023406508
0.00023400585
0.00023392763
0.0002338323
0.00023372387
0.00023361003
0.00023350449
0.00023343112
0.00023297947
0.00023304214
0.00023313346
0.00023323321
0.00023332933
0.00023341475
0.00023348549
0.00023353947
0.00023357573
0.00023359392
0.00023359392
0.00023357573
0.00023353947
0.00023348549
0.00023341476
0.00023332934
0.00023323321
0.00023313346
0.00023304214
0.00023297947
0.00023263101
0.00023268358
0.00023276169
0.00023284851
0.00023293342
0.00023300982
0.00023307374
0.00023312291
0.00023315614
0.00023317287
0.00023317287
0.00023315614
0.00023312291
0.00023307374
0.00023300982
0.00023293342
0.00023284851
0.0002327617
0.00023268358
0.00023263101
0.0002323905
0.00023243411
0.00023250092
0.00023257692
0.0002326526
0.00023272166
0.00023278006
0.00023282536
0.00023285614
0.00023287169
0.00023287169
0.00023285614
0.00023282536
0.00023278006
0.00023272166
0.0002326526
0.00023257692
0.00023250092
0.00023243411
0.0002323905
0.00023226551
0.00023230276
0.00023236201
0.00023243108
0.00023250099
0.00023256554
0.00023262059
0.00023266355
0.00023269287
0.00023270771
0.00023270771
0.00023269287
0.00023266355
0.00023262059
0.00023256554
0.00023250099
0.00023243108
0.00023236201
0.00023230276
0.00023226551
)
;

boundaryField
{
    Wall
    {
        type            calculated;
        value           uniform 4e-05;
    }
    frontAndBack
    {
        type            empty;
    }
    atmosphere
    {
        type            calculated;
        value           uniform 4e-05;
    }
}


// ************************************************************************* //
