/*--------------------------------*- C++ -*----------------------------------*\
| =========                 |                                                 |
| \\      /  F ield         | OpenFOAM: The Open Source CFD Toolbox           |
|  \\    /   O peration     | Version:  3.0.1                                 |
|   \\  /    A nd           | Web:      www.OpenFOAM.org                      |
|    \\/     M anipulation  |                                                 |
\*---------------------------------------------------------------------------*/
FoamFile
{
    version     2.0;
    format      ascii;
    class       volScalarField;
    location    "27";
    object      TS;
}
// * * * * * * * * * * * * * * * * * * * * * * * * * * * * * * * * * * * * * //

dimensions      [0 0 0 1 0 0 0];

internalField   nonuniform List<scalar> 
800
(
345.92255
345.92959
345.93096
345.93115
345.93118
345.9312
345.93123
345.93126
345.93128
345.93129
345.93129
345.93128
345.93126
345.93123
345.9312
345.93118
345.93115
345.93096
345.92959
345.92255
344.64619
344.70768
344.72318
344.72622
344.72618
344.72562
344.72516
344.72489
344.72475
344.7247
344.7247
344.72475
344.72489
344.72516
344.72562
344.72618
344.72622
344.72318
344.70767
344.64618
343.53487
343.63037
343.65991
343.66632
343.6668
343.66608
343.66539
343.66497
343.66475
343.66466
343.66466
343.66475
343.66497
343.66539
343.66608
343.6668
343.66632
343.6599
343.63037
343.53487
342.65924
342.7795
342.8203
342.82939
342.83024
342.8294
342.82856
342.82803
342.82776
342.82765
342.82765
342.82776
342.82803
342.82856
342.82939
342.83024
342.82939
342.8203
342.7795
342.65923
342.06243
342.19661
342.2468
342.25791
342.25889
342.25782
342.25681
342.25617
342.25584
342.25571
342.25571
342.25584
342.25617
342.2568
342.25782
342.25889
342.25791
342.2468
342.19661
342.06242
341.7704
341.90706
341.96581
341.97859
341.97949
341.97807
341.9768
341.976
341.97559
341.97542
341.97542
341.97559
341.976
341.9768
341.97807
341.97949
341.97859
341.96581
341.90706
341.7704
341.79196
341.9219
341.98758
342.00205
342.00281
342.0009
341.99929
341.99825
341.99771
341.99748
341.99748
341.99771
341.99825
341.99929
342.0009
342.00281
342.00205
341.98758
341.9219
341.79196
342.11673
342.23588
342.30475
342.32141
342.32219
342.31973
342.31768
342.3163
342.31558
342.31526
342.31526
342.31558
342.31631
342.31768
342.31973
342.32219
342.32141
342.30475
342.23589
342.11673
342.71194
342.82401
342.89083
342.91092
342.91205
342.9091
342.90654
342.90475
342.90379
342.90333
342.90333
342.90379
342.90475
342.90654
342.9091
342.91206
342.91092
342.89083
342.82402
342.71195
343.51974
343.63805
343.69818
343.72408
343.72646
343.7231
343.72002
343.71778
343.71656
343.71596
343.71596
343.71656
343.71778
343.72002
343.72311
343.72647
343.72408
343.69819
343.63806
343.51975
344.4485
344.59839
344.65029
344.68613
344.69152
344.68831
344.68497
344.68242
344.68103
344.68031
344.68031
344.68103
344.68242
344.68497
344.68831
344.69153
344.68614
344.6503
344.5984
344.44851
345.35854
345.56997
345.62769
345.68028
345.6825
345.68075
345.678
345.67566
345.67466
345.67398
345.67398
345.67466
345.67566
345.678
345.68076
345.6825
345.68029
345.6277
345.56998
345.35855
346.03829
346.33947
346.44305
346.5073
346.49994
346.50236
346.50211
346.50154
346.50346
346.50347
346.50348
346.50346
346.50154
346.50211
346.50237
346.49995
346.50731
346.44306
346.33948
346.0383
346.15033
346.60064
346.78855
346.86358
346.8544
346.866
346.87253
346.87625
346.86129
346.86244
346.86244
346.86129
346.87625
346.87253
346.866
346.85441
346.86359
346.78856
346.60065
346.15034
345.2193
345.91935
346.21291
346.31917
346.33244
346.36366
346.39156
346.4047
346.36684
346.37002
346.37002
346.36684
346.4047
346.39156
346.36366
346.33244
346.31918
346.21292
345.91936
345.21931
342.62163
343.68754
344.11434
344.28887
344.35755
344.43749
344.44198
344.46992
344.43743
344.44488
344.44488
344.43743
344.46992
344.44198
344.43749
344.35755
344.28888
344.11435
343.68755
342.62164
337.46895
339.04281
339.67411
339.95429
340.10621
340.15587
340.17108
340.22383
340.27304
340.29369
340.29369
340.27305
340.22383
340.17108
340.15587
340.10621
339.9543
339.67412
339.04282
337.46897
329.51249
331.11682
331.95038
332.32513
332.66294
332.78527
332.86531
332.93538
332.9261
332.95363
332.95364
332.92611
332.93539
332.86532
332.78527
332.66295
332.32514
331.95039
331.11684
329.51251
323.42772
323.66255
323.87251
324.02518
324.10313
324.1882
324.2538
324.30171
324.33261
324.34983
324.34983
324.33261
324.30171
324.2538
324.1882
324.10312
324.02518
323.87251
323.66255
323.42772
319.92923
319.96911
320.0526
320.14265
320.21845
320.28699
320.34332
320.38588
320.41422
320.4287
320.4287
320.41422
320.38588
320.34332
320.28698
320.21845
320.14265
320.05259
319.9691
319.92923
317.82265
317.8679
317.94132
318.0223
318.0974
318.16359
318.21798
318.25915
318.28668
318.30053
318.30053
318.28668
318.25915
318.21798
318.16359
318.0974
318.02229
317.94131
317.86789
317.82265
315.85842
315.92165
316.00096
316.08245
316.1579
316.22337
316.27667
316.3168
316.34352
316.35687
316.35687
316.34352
316.3168
316.27667
316.22337
316.1579
316.08245
316.00095
315.92164
315.85842
314.03902
314.12786
314.22625
314.31782
314.3979
314.46481
314.518
314.55747
314.58351
314.59644
314.59644
314.58351
314.55747
314.518
314.46481
314.3979
314.31782
314.22625
314.12786
314.03902
312.37643
312.48518
312.60503
312.71191
312.80103
312.87248
312.92751
312.96745
312.99341
313.0062
313.0062
312.99341
312.96745
312.92751
312.87248
312.80103
312.7119
312.60503
312.48517
312.37643
310.8735
310.99288
311.12938
311.25126
311.35115
311.42932
311.48809
311.52989
311.55666
311.56972
311.56972
311.55665
311.52989
311.48809
311.42932
311.35115
311.25125
311.12938
310.99288
310.8735
309.52447
309.64649
309.79241
309.92551
310.03511
310.12045
310.18396
310.22862
310.25695
310.27069
310.27069
310.25695
310.22862
310.18396
310.12045
310.03511
309.92551
309.79241
309.64649
309.52447
308.31864
308.43788
308.58646
308.72573
308.84226
308.93367
309.0018
309.04963
309.07988
309.09452
309.09452
309.07988
309.04963
309.0018
308.93367
308.84226
308.72573
308.58646
308.43788
308.31864
307.24348
307.35676
307.5028
307.64341
307.76341
307.85883
307.93058
307.9812
308.0133
308.02885
308.02885
308.0133
307.9812
307.93058
307.85883
307.76341
307.64341
307.5028
307.35676
307.24348
306.28648
306.3922
306.53214
306.67011
306.79022
306.88726
306.96111
307.01367
307.04719
307.06347
307.06347
307.04719
307.01367
306.96111
306.88726
306.79023
306.67011
306.53214
306.3922
306.28648
305.4361
305.53356
305.6652
305.7976
305.91498
306.0113
306.08557
306.13896
306.17325
306.18999
306.18999
306.17325
306.13896
306.08557
306.01131
305.91498
305.7976
305.6652
305.53356
305.4361
304.68214
304.77116
304.89326
305.01808
305.13051
305.22412
305.29721
305.35029
305.38464
305.40148
305.40148
305.38464
305.35029
305.29721
305.22412
305.13051
305.01809
304.89326
304.77116
304.68214
304.01591
304.09656
304.20851
304.32448
304.43037
304.51968
304.59022
304.64195
304.67567
304.69226
304.69226
304.67567
304.64195
304.59022
304.51968
304.43037
304.32449
304.20851
304.09656
304.01591
303.43022
303.5027
303.60428
303.71069
303.80897
303.89282
303.95974
304.00925
304.04174
304.05779
304.05779
304.04174
304.00925
303.95974
303.89282
303.80897
303.71069
303.60429
303.50271
303.43022
302.91948
302.98403
303.07526
303.17174
303.26178
303.3394
303.40192
303.44855
303.47935
303.49462
303.49462
303.47935
303.44856
303.40193
303.3394
303.26179
303.17174
303.07526
302.98403
302.91948
302.47965
302.53651
302.61754
302.70404
302.78554
302.85647
302.91413
302.95745
302.98622
303.00055
303.00055
302.98622
302.95745
302.91413
302.85647
302.78554
302.70404
302.61754
302.53652
302.47965
302.10837
302.15779
302.22887
302.30552
302.37849
302.44262
302.4952
302.53501
302.56159
302.57487
302.57487
302.56159
302.53501
302.4952
302.44262
302.3785
302.30553
302.22887
302.15779
302.10837
301.80503
301.84727
301.90881
301.97601
302.04075
302.09826
302.14586
302.18217
302.20656
302.21879
302.21879
302.20656
302.18217
302.14586
302.09826
302.04075
301.97601
301.90881
301.84727
301.80503
301.57092
301.60636
301.65903
301.71755
301.77477
301.82624
301.86929
301.90239
301.92476
301.93602
301.93602
301.92476
301.90239
301.86929
301.82624
301.77477
301.71755
301.65903
301.60637
301.57092
301.4093
301.43871
301.48377
301.53502
301.58604
301.63259
301.67194
301.70245
301.72319
301.73366
301.73366
301.72319
301.70245
301.67194
301.63259
301.58604
301.53502
301.48377
301.43871
301.4093
301.3253
301.35043
301.3904
301.43698
301.48412
301.52764
301.56474
301.59369
301.61345
301.62345
301.62345
301.61345
301.59369
301.56474
301.52764
301.48412
301.43698
301.3904
301.35043
301.3253
)
;

boundaryField
{
    Wall
    {
        type            zeroGradient;
    }
    frontAndBack
    {
        type            empty;
    }
    atmosphere
    {
        type            zeroGradient;
    }
}


// ************************************************************************* //
