/*--------------------------------*- C++ -*----------------------------------*\
| =========                 |                                                 |
| \\      /  F ield         | OpenFOAM: The Open Source CFD Toolbox           |
|  \\    /   O peration     | Version:  3.0.1                                 |
|   \\  /    A nd           | Web:      www.OpenFOAM.org                      |
|    \\/     M anipulation  |                                                 |
\*---------------------------------------------------------------------------*/
FoamFile
{
    version     2.0;
    format      ascii;
    class       volVectorField;
    location    "27";
    object      U;
}
// * * * * * * * * * * * * * * * * * * * * * * * * * * * * * * * * * * * * * //

dimensions      [0 1 -1 0 0 0 0];

internalField   nonuniform List<vector> 
800
(
(7.0505606e-06 0.00027249796 0)
(9.2746026e-06 0.00027470117 0)
(1.0749253e-05 0.00027622304 0)
(1.0006839e-05 0.00027696343 0)
(8.5204621e-06 0.00027722312 0)
(6.8995363e-06 0.00027726047 0)
(5.2855527e-06 0.00027721833 0)
(3.7210279e-06 0.00027716461 0)
(2.2083837e-06 0.00027712491 0)
(7.3006527e-07 0.00027710524 0)
(-7.3676617e-07 0.00027710518 0)
(-2.2149377e-06 0.00027712474 0)
(-3.7273021e-06 0.00027716434 0)
(-5.2914255e-06 0.00027721799 0)
(-6.9049222e-06 0.00027726007 0)
(-8.5252461e-06 0.00027722265 0)
(-1.0010782e-05 0.00027696289 0)
(-1.0752588e-05 0.00027622246 0)
(-9.2769453e-06 0.0002747011 0)
(-7.0525348e-06 0.00027249721 0)
(4.5828453e-06 0.00047783071 0)
(6.6581815e-06 0.00048419605 0)
(9.3515427e-06 0.00048772652 0)
(9.2140003e-06 0.00048938537 0)
(8.1085764e-06 0.00049004798 0)
(6.7123545e-06 0.00049023982 0)
(5.2133517e-06 0.00049024164 0)
(3.7006122e-06 0.00049019007 0)
(2.2069455e-06 0.00049014158 0)
(7.3213621e-07 0.00049011495 0)
(-7.3586133e-07 0.00049011484 0)
(-2.2106018e-06 0.00049014125 0)
(-3.7041363e-06 0.00049018955 0)
(-5.2166782e-06 0.00049024095 0)
(-6.7154333e-06 0.000490239 0)
(-8.1113478e-06 0.00049004704 0)
(-9.2163097e-06 0.00048938423 0)
(-9.3533709e-06 0.00048772512 0)
(-6.6598751e-06 0.00048419463 0)
(-4.5841085e-06 0.00047782769 0)
(6.0282664e-06 0.00086728672 0)
(7.9523431e-06 0.00087906626 0)
(9.4301613e-06 0.00088526442 0)
(8.967028e-06 0.00088824499 0)
(7.8362506e-06 0.00088951112 0)
(6.4865643e-06 0.00088993283 0)
(5.0466754e-06 0.00088999275 0)
(3.5890373e-06 0.00088993342 0)
(2.1432562e-06 0.0008898619 0)
(7.1174372e-07 0.0008898194 0)
(-7.1421554e-07 0.00088981925 0)
(-2.1456839e-06 0.00088986145 0)
(-3.5913896e-06 0.00088993271 0)
(-5.0489212e-06 0.0008899918 0)
(-6.4886676e-06 0.00088993167 0)
(-7.8381617e-06 0.00088950975 0)
(-8.9685953e-06 0.00088824339 0)
(-9.4312718e-06 0.0008852625 0)
(-7.9530798e-06 0.00087906384 0)
(-6.0284831e-06 0.00086728287 0)
(6.258499e-06 0.0012390686 0)
(8.0404023e-06 0.0012536048 0)
(9.3031802e-06 0.001261545 0)
(8.724599e-06 0.0012654521 0)
(7.5626803e-06 0.0012671344 0)
(6.2307807e-06 0.0012677109 0)
(4.8363357e-06 0.0012678075 0)
(3.4362188e-06 0.0012677399 0)
(2.0514635e-06 0.0012676504 0)
(6.8138575e-07 0.0012675963 0)
(-6.8324893e-07 0.0012675961 0)
(-2.0532957e-06 0.0012676499 0)
(-3.4379947e-06 0.001267739 0)
(-4.8380308e-06 0.0012678063 0)
(-6.2323731e-06 0.0012677094 0)
(-7.5641261e-06 0.0012671327 0)
(-8.7257548e-06 0.00126545 0)
(-9.303902e-06 0.0012615425 0)
(-8.0408826e-06 0.0012536017 0)
(-6.258498e-06 0.0012390635 0)
(5.9796256e-06 0.0016045733 0)
(7.6957704e-06 0.0016230385 0)
(9.0446361e-06 0.0016330054 0)
(8.4389366e-06 0.0016378481 0)
(7.2629848e-06 0.0016398991 0)
(5.9517435e-06 0.0016405894 0)
(4.6028765e-06 0.0016406981 0)
(3.2627396e-06 0.0016406095 0)
(1.9453617e-06 0.001640496 0)
(6.4587005e-07 0.0016404275 0)
(-6.4739106e-07 0.0016404273 0)
(-1.9468561e-06 0.0016404953 0)
(-3.2641841e-06 0.0016406084 0)
(-4.6042456e-06 0.0016406966 0)
(-5.9530071e-06 0.0016405876 0)
(-7.2641089e-06 0.001639897 0)
(-8.4397582e-06 0.0016378457 0)
(-9.0450156e-06 0.0016330025 0)
(-7.6960008e-06 0.0016230349 0)
(-5.9794449e-06 0.001604568 0)
(6.0087045e-06 0.0019767026 0)
(7.6976419e-06 0.0019995624 0)
(8.9333331e-06 0.0020116978 0)
(8.2080668e-06 0.0020174879 0)
(6.9745443e-06 0.0020198738 0)
(5.6671834e-06 0.002020641 0)
(4.3575092e-06 0.0020207343 0)
(3.076437e-06 0.0020206071 0)
(1.8297307e-06 0.0020204593 0)
(6.0685499e-07 0.002020372 0)
(-6.0810336e-07 0.0020203717 0)
(-1.8309505e-06 0.0020204585 0)
(-3.0776046e-06 0.0020206059 0)
(-4.3585983e-06 0.0020207326 0)
(-5.6681648e-06 0.0020206389 0)
(-6.9753822e-06 0.0020198714 0)
(-8.2086139e-06 0.0020174851 0)
(-8.9334018e-06 0.0020116945 0)
(-7.6975816e-06 0.0019995585 0)
(-6.0083242e-06 0.0019766972 0)
(6.2783656e-06 0.002357181 0)
(7.9337776e-06 0.0023843254 0)
(8.9385282e-06 0.0023985492 0)
(8.0199414e-06 0.0024052016 0)
(6.6885409e-06 0.0024078395 0)
(5.3727821e-06 0.0024086224 0)
(4.0991162e-06 0.0024086628 0)
(2.8774478e-06 0.0024084747 0)
(1.7050357e-06 0.0024082795 0)
(5.6463314e-07 0.0024081675 0)
(-5.6559554e-07 0.0024081672 0)
(-1.7059706e-06 0.0024082788 0)
(-2.8783286e-06 0.0024084734 0)
(-4.099911e-06 0.002408661 0)
(-5.3734621e-06 0.0024086202 0)
(-6.6890747e-06 0.0024078368 0)
(-8.0201706e-06 0.0024051985 0)
(-8.9383036e-06 0.0023985456 0)
(-7.9334816e-06 0.0023843213 0)
(-6.2777842e-06 0.0023571756 0)
(6.6460297e-06 0.0027474317 0)
(8.2619278e-06 0.0027788637 0)
(8.9741483e-06 0.0027950798 0)
(7.8060893e-06 0.0028024762 0)
(6.354544e-06 0.0028052715 0)
(5.039231e-06 0.0028059968 0)
(3.8135844e-06 0.0028059412 0)
(2.6587968e-06 0.0028056678 0)
(1.567837e-06 0.0028054111 0)
(5.1822288e-07 0.0028052677 0)
(-5.1886314e-07 0.0028052674 0)
(-1.5684395e-06 0.0028054102 0)
(-2.6593421e-06 0.0028056665 0)
(-3.8140486e-06 0.0028059393 0)
(-5.0395855e-06 0.0028059944 0)
(-6.3547664e-06 0.0028052686 0)
(-7.8060532e-06 0.0028024728 0)
(-8.9736713e-06 0.002795076 0)
(-8.2614249e-06 0.0027788593 0)
(-6.6452865e-06 0.0027474265 0)
(7.0524695e-06 0.0031506245 0)
(8.6172779e-06 0.0031865088 0)
(8.9523693e-06 0.0032045802 0)
(7.5037209e-06 0.0032125732 0)
(5.9278026e-06 0.0032154372 0)
(4.6308961e-06 0.0032160634 0)
(3.4816196e-06 0.0032158812 0)
(2.4105084e-06 0.003215504 0)
(1.4129477e-06 0.0032151731 0)
(4.660205e-07 0.0032149923 0)
(-4.6630384e-07 0.003214992 0)
(-1.4131728e-06 0.0032151722 0)
(-2.4106858e-06 0.0032155027 0)
(-3.4817366e-06 0.0032158794 0)
(-4.6309136e-06 0.003216061 0)
(-5.9277093e-06 0.0032154344 0)
(-7.5033976e-06 0.0032125698 0)
(-8.95168e-06 0.0032045763 0)
(-8.6166499e-06 0.0031865046 0)
(-7.0516017e-06 0.0031506199 0)
(7.5021427e-06 0.0035707051 0)
(8.9414455e-06 0.0036113074 0)
(8.7231834e-06 0.0036310187 0)
(7.024579e-06 0.003639415 0)
(5.3827981e-06 0.0036422602 0)
(4.144578e-06 0.0036427734 0)
(3.0931744e-06 0.0036424411 0)
(2.1240572e-06 0.0036419429 0)
(1.2348343e-06 0.0036415173 0)
(4.0642454e-07 0.0036412919 0)
(-4.0627834e-07 0.0036412916 0)
(-1.2346293e-06 0.0036415165 0)
(-2.1238196e-06 0.0036419415 0)
(-3.0928913e-06 0.0036424392 0)
(-4.1442258e-06 0.003642771 0)
(-5.3823931e-06 0.0036422572 0)
(-7.0240513e-06 0.0036394115 0)
(-8.7223342e-06 0.0036310147 0)
(-8.9406791e-06 0.003611303 0)
(-7.5011841e-06 0.0035707006 0)
(7.9831684e-06 0.0040120149 0)
(9.1506028e-06 0.0040576394 0)
(8.0785734e-06 0.0040787093 0)
(6.2517103e-06 0.0040872283 0)
(4.6760452e-06 0.0040899509 0)
(3.5537934e-06 0.0040903029 0)
(2.6164856e-06 0.0040897839 0)
(1.7688113e-06 0.0040891501 0)
(1.0111616e-06 0.0040886082 0)
(3.3405437e-07 0.0040883268 0)
(-3.33559e-07 0.0040883265 0)
(-1.0106099e-06 0.0040886075 0)
(-1.7682513e-06 0.0040891488 0)
(-2.6158985e-06 0.004089782 0)
(-3.5531702e-06 0.0040903006 0)
(-4.6754224e-06 0.004089948 0)
(-6.2510529e-06 0.0040872249 0)
(-8.077716e-06 0.0040787054 0)
(-9.1499671e-06 0.0040576353 0)
(-7.9823117e-06 0.0040120115 0)
(8.3568234e-06 0.0044788189 0)
(9.1074619e-06 0.0045296938 0)
(6.7330604e-06 0.0045516768 0)
(4.9884148e-06 0.004559772 0)
(3.6847734e-06 0.0045621295 0)
(2.7565582e-06 0.0045621736 0)
(1.9926271e-06 0.0045614217 0)
(1.3067386e-06 0.0045606731 0)
(7.1145116e-07 0.0045601376 0)
(2.376495e-07 0.004559782 0)
(-2.3677954e-07 0.0045597817 0)
(-7.1050729e-07 0.0045601368 0)
(-1.3058389e-06 0.0045606717 0)
(-1.9917254e-06 0.0045614198 0)
(-2.7556615e-06 0.0045621711 0)
(-3.683939e-06 0.0045621266 0)
(-4.9876883e-06 0.0045597686 0)
(-6.7321978e-06 0.004551673 0)
(-9.1070015e-06 0.0045296898 0)
(-8.3562491e-06 0.0044788159 0)
(8.2175185e-06 0.004976026 0)
(8.432457e-06 0.0050318818 0)
(4.075782e-06 0.0050539847 0)
(2.7036833e-06 0.0050609227 0)
(2.0644588e-06 0.0050624911 0)
(1.5474149e-06 0.0050620322 0)
(1.1588045e-06 0.005061035 0)
(8.3291679e-07 0.0050602193 0)
(4.1201071e-07 0.0050598785 0)
(9.3838142e-08 0.0050594048 0)
(-9.2825603e-08 0.0050594046 0)
(-4.1098827e-07 0.0050598778 0)
(-8.3192398e-07 0.0050602182 0)
(-1.1578107e-06 0.0050610335 0)
(-1.5464525e-06 0.0050620303 0)
(-2.0635875e-06 0.0050624888 0)
(-2.7029809e-06 0.0050609201 0)
(-4.0750042e-06 0.0050539819 0)
(-8.4321118e-06 0.005031879 0)
(-8.2170907e-06 0.0049760237 0)
(6.4325471e-06 0.0055229797 0)
(6.0454601e-06 0.0055832503 0)
(-7.0172638e-07 0.0056046464 0)
(-1.2116243e-06 0.0056095752 0)
(-6.1908334e-07 0.0056096964 0)
(-2.5739623e-07 0.00560848 0)
(6.6521169e-08 0.0056071576 0)
(3.709066e-07 0.0056062813 0)
(9.5937052e-08 0.005606266 0)
(-1.5059619e-07 0.0056059888 0)
(1.5196297e-07 0.0056059886 0)
(-9.4580216e-08 0.0056062656 0)
(-3.6958102e-07 0.0056062805 0)
(-6.5221962e-08 0.0056071565 0)
(2.5862968e-07 0.0056084787 0)
(6.2019492e-07 0.0056096948 0)
(1.2125505e-06 0.0056095735 0)
(7.0268667e-07 0.0056046448 0)
(-6.0449396e-06 0.0055832488 0)
(-6.4320949e-06 0.0055229791 0)
(2.1400461e-06 0.0061336717 0)
(1.2391108e-06 0.0061968899 0)
(-8.2321086e-06 0.0062167851 0)
(-7.54841e-06 0.0062194685 0)
(-5.0099608e-06 0.0062174462 0)
(-3.0074421e-06 0.0062152657 0)
(-1.4946479e-06 0.0062135254 0)
(-1.8774557e-07 0.0062125952 0)
(5.9477214e-09 0.0062130119 0)
(-2.1800393e-07 0.0062132774 0)
(2.1944239e-07 0.0062132773 0)
(-4.5355748e-09 0.0062130113 0)
(1.8912091e-07 0.0062125943 0)
(1.4960122e-06 0.0062135241 0)
(3.0087435e-06 0.0062152641 0)
(5.0111535e-06 0.0062174444 0)
(7.5495135e-06 0.0062194666 0)
(8.2332271e-06 0.0062167833 0)
(-1.2384722e-06 0.0061968883 0)
(-2.1395791e-06 0.0061336713 0)
(-6.5155265e-06 0.0068024413 0)
(-8.0528427e-06 0.0068655125 0)
(-1.8876369e-05 0.0068824148 0)
(-1.6537035e-05 0.0068827373 0)
(-1.1657262e-05 0.0068787822 0)
(-6.9439378e-06 0.0068762512 0)
(-3.6644998e-06 0.0068744549 0)
(-9.6121094e-07 0.0068735727 0)
(7.1502843e-08 0.0068744257 0)
(-1.1341571e-07 0.006875145 0)
(1.1481899e-07 0.0068751448 0)
(-7.0133759e-08 0.0068744251 0)
(9.6255243e-07 0.0068735718 0)
(3.6658339e-06 0.0068744537 0)
(6.9452179e-06 0.0068762498 0)
(1.1658481e-05 0.0068787805 0)
(1.6538224e-05 0.0068827356 0)
(1.8877611e-05 0.0068824136 0)
(8.0536884e-06 0.0068655117 0)
(6.516067e-06 0.0068024422 0)
(-2.0884511e-05 0.0075163589 0)
(-2.4412759e-05 0.0075756006 0)
(-3.3608237e-05 0.007587818 0)
(-2.7848593e-05 0.0075858057 0)
(-1.9476303e-05 0.0075808468 0)
(-1.1049023e-05 0.007579091 0)
(-6.0024166e-06 0.0075777704 0)
(-2.1655002e-06 0.0075772859 0)
(-3.0533029e-07 0.0075797572 0)
(-1.8081896e-07 0.0075808844 0)
(1.8203451e-07 0.0075808842 0)
(3.0651866e-07 0.0075797567 0)
(2.1666735e-06 0.0075772851 0)
(6.0036576e-06 0.0075777693 0)
(1.1050237e-05 0.0075790898 0)
(1.9477434e-05 0.0075808453 0)
(2.7850146e-05 0.0075858041 0)
(3.3609906e-05 0.007587816 0)
(2.4413891e-05 0.0075755987 0)
(2.0885218e-05 0.0075163585 0)
(-4.0056374e-05 0.008252401 0)
(-4.9095893e-05 0.0083026794 0)
(-5.2037129e-05 0.0083123257 0)
(-4.0682169e-05 0.0083105891 0)
(-2.7409974e-05 0.008310899 0)
(-1.4340511e-05 0.0083108272 0)
(-7.9100194e-06 0.0083100255 0)
(-2.493541e-06 0.0083099028 0)
(-1.1134092e-07 0.0083129691 0)
(-4.2933537e-07 0.0083141872 0)
(4.3026615e-07 0.0083141871 0)
(1.1224619e-07 0.0083129686 0)
(2.4944175e-06 0.0083099019 0)
(7.9111332e-06 0.0083100242 0)
(1.4341582e-05 0.0083108254 0)
(2.7410795e-05 0.0083108967 0)
(4.0682668e-05 0.0083105863 0)
(5.2037542e-05 0.0083123225 0)
(4.9096532e-05 0.0083026759 0)
(4.005689e-05 0.0082523991 0)
(-6.3255882e-05 0.0089128256 0)
(-7.9415097e-05 0.0089826446 0)
(-6.7064203e-05 0.0090000965 0)
(-4.7406531e-05 0.0090046305 0)
(-3.0379452e-05 0.0090115038 0)
(-1.6429386e-05 0.0090133694 0)
(-9.4191858e-06 0.0090137648 0)
(-3.1863808e-06 0.0090141029 0)
(-7.3392807e-07 0.0090151831 0)
(-9.7894212e-07 0.0090162711 0)
(9.7946135e-07 0.0090162709 0)
(7.3443652e-07 0.0090151824 0)
(3.1868415e-06 0.0090141018 0)
(9.419532e-06 0.0090137632 0)
(1.6429659e-05 0.0090133673 0)
(3.037952e-05 0.0090115012 0)
(4.7406878e-05 0.0090046274 0)
(6.7064445e-05 0.0090000933 0)
(7.9415027e-05 0.0089826416 0)
(6.3256128e-05 0.0089128243 0)
(-4.3269074e-06 0.0095687758 0)
(-1.9812859e-05 0.0095943159 0)
(-4.1082463e-05 0.0095919346 0)
(-3.3219335e-05 0.0095923145 0)
(-2.3569752e-05 0.0095947021 0)
(-1.1949867e-05 0.0095946744 0)
(-6.7417916e-06 0.0095949688 0)
(-2.4531027e-06 0.00959514 0)
(-1.1462107e-06 0.0095931255 0)
(-1.1542119e-06 0.0095939182 0)
(1.1543036e-06 0.0095939179 0)
(1.1463002e-06 0.0095931244 0)
(2.4531065e-06 0.0095951383 0)
(6.7421738e-06 0.0095949664 0)
(1.1950255e-05 0.0095946716 0)
(2.3569672e-05 0.0095946987 0)
(3.3219075e-05 0.0095923109 0)
(4.1081965e-05 0.0095919303 0)
(1.9812724e-05 0.009594312 0)
(4.3273835e-06 0.0095687747 0)
(0.00043174883 0.0096288937 0)
(0.00047155583 0.0099662023 0)
(0.00027948897 0.0099944353 0)
(0.00016140877 0.0099995764 0)
(9.4006986e-05 0.010007651 0)
(6.1507155e-05 0.010014417 0)
(3.9461617e-05 0.010021452 0)
(2.5704253e-05 0.01002562 0)
(1.4039549e-05 0.010025043 0)
(3.8761901e-06 0.010026592 0)
(-3.8777802e-06 0.010026592 0)
(-1.4041147e-05 0.010025042 0)
(-2.570588e-05 0.010025618 0)
(-3.9462186e-05 0.010021451 0)
(-6.1507619e-05 0.010014415 0)
(-9.4008164e-05 0.01000765 0)
(-0.00016140948 0.0099995746 0)
(-0.00027948921 0.0099944351 0)
(-0.00047155376 0.0099662035 0)
(-0.00043174421 0.0096289067 0)
(0.0010411414 0.0079420486 0)
(0.0017522218 0.0096365457 0)
(0.0015728864 0.0097955657 0)
(0.0012118508 0.0097228665 0)
(0.00087436324 0.0096655548 0)
(0.00061679545 0.0096309 0)
(0.00041864658 0.0096210095 0)
(0.00026678954 0.0096170337 0)
(0.00014858226 0.0096143482 0)
(4.8085379e-05 0.0096127058 0)
(-4.8090017e-05 0.0096127078 0)
(-0.00014858703 0.0096143538 0)
(-0.00026678705 0.0096170429 0)
(-0.00041864291 0.0096210222 0)
(-0.00061679731 0.0096309048 0)
(-0.00087436462 0.0096655608 0)
(-0.0012118513 0.009722873 0)
(-0.001572887 0.0097955728 0)
(-0.0017522231 0.0096365566 0)
(-0.0010411401 0.0079420619 0)
(0.00087670427 0.0062519184 0)
(0.0018149693 0.0091760856 0)
(0.0019511677 0.0098712148 0)
(0.0017235528 0.009936695 0)
(0.0013843051 0.0098521309 0)
(0.0010518033 0.0097499455 0)
(0.00075850937 0.0096686287 0)
(0.00050833268 0.0096154475 0)
(0.0002912513 0.0095830199 0)
(9.5707393e-05 0.0095662962 0)
(-9.5709785e-05 0.0095662981 0)
(-0.00029125265 0.0095830245 0)
(-0.0005083338 0.009615455 0)
(-0.00075851174 0.0096686306 0)
(-0.001051806 0.0097499485 0)
(-0.0013843057 0.0098521313 0)
(-0.0017235528 0.0099366968 0)
(-0.0019511692 0.0098712155 0)
(-0.0018149701 0.0091760914 0)
(-0.00087670463 0.0062519276 0)
(0.00056981634 0.0050416024 0)
(0.0014425586 0.0086436591 0)
(0.001760625 0.0098749919 0)
(0.0017081837 0.010207466 0)
(0.001477335 0.01021311 0)
(0.0011873207 0.010115989 0)
(0.00089284774 0.010006975 0)
(0.00061598775 0.0099174334 0)
(0.00035962955 0.0098564431 0)
(0.00011956718 0.0098251564 0)
(-0.00011956889 0.0098251565 0)
(-0.00035963151 0.0098564433 0)
(-0.00061598957 0.0099174329 0)
(-0.00089284977 0.010006975 0)
(-0.0011873226 0.010115989 0)
(-0.0014773342 0.010213108 0)
(-0.0017081823 0.010207465 0)
(-0.0017606251 0.0098749918 0)
(-0.0014425582 0.0086436636 0)
(-0.0005698164 0.0050416105 0)
(0.00032866831 0.0042086771 0)
(0.0010115099 0.008079656 0)
(0.0013879533 0.0097056869 0)
(0.0014586925 0.010302368 0)
(0.0013430444 0.010444713 0)
(0.0011336892 0.010402605 0)
(0.00088511091 0.010304196 0)
(0.000627329 0.010206902 0)
(0.0003727111 0.010134801 0)
(0.00012509231 0.010096704 0)
(-0.0001250936 0.010096704 0)
(-0.00037271215 0.0101348 0)
(-0.00062732968 0.010206901 0)
(-0.00088511147 0.010304195 0)
(-0.0011336901 0.010402604 0)
(-0.0013430425 0.010444713 0)
(-0.0014586903 0.010302366 0)
(-0.0013879532 0.0097056883 0)
(-0.0010115088 0.0080796604 0)
(-0.00032866828 0.0042086837 0)
(0.00017915978 0.0036801126 0)
(0.00065818811 0.0075924395 0)
(0.0010125782 0.0094657938 0)
(0.0011446951 0.010276602 0)
(0.0011148401 0.010559243 0)
(0.00098355677 0.010595201 0)
(0.00079449424 0.01053299 0)
(0.0005772912 0.010448418 0)
(0.00034859657 0.010378549 0)
(0.00011791775 0.010340147 0)
(-0.00011791822 0.010340146 0)
(-0.00034859648 0.010378548 0)
(-0.00057729083 0.010448416 0)
(-0.0007944938 0.010532989 0)
(-0.00098355653 0.0105952 0)
(-0.0011148392 0.010559243 0)
(-0.0011446924 0.0102766 0)
(-0.0010125766 0.0094657946 0)
(-0.00065818827 0.0075924449 0)
(-0.00017915965 0.0036801194 0)
(9.6161135e-05 0.0033609479 0)
(0.00040986246 0.0072233059 0)
(0.0007025815 0.009233285 0)
(0.00084972794 0.010199294 0)
(0.00087124522 0.010604033 0)
(0.00080017424 0.010721897 0)
(0.00066675671 0.010708488 0)
(0.00049566392 0.010649919 0)
(0.00030380521 0.010592317 0)
(0.00010343606 0.01055882 0)
(-0.00010343544 0.010558819 0)
(-0.00030380407 0.010592316 0)
(-0.00049566275 0.010649917 0)
(-0.00066675534 0.010708487 0)
(-0.00080017256 0.010721895 0)
(-0.00087124385 0.010604032 0)
(-0.00084972708 0.010199294 0)
(-0.00070257937 0.0092332855 0)
(-0.00040986129 0.0072233109 0)
(-9.6161746e-05 0.0033609544 0)
(5.2163671e-05 0.0031713718 0)
(0.00024953597 0.0069625279 0)
(0.00047106071 0.0090379165 0)
(0.00060611657 0.010106877 0)
(0.00065157494 0.010607405 0)
(0.00062094101 0.010799433 0)
(0.00053236922 0.010837154 0)
(0.00040413449 0.0108106 0)
(0.00025111292 0.010770972 0)
(8.5963363e-05 0.010745583 0)
(-8.5962085e-05 0.010745582 0)
(-0.00025111155 0.01077097 0)
(-0.00040413277 0.010810598 0)
(-0.0005323673 0.010837152 0)
(-0.00062093906 0.010799431 0)
(-0.00065157343 0.010607403 0)
(-0.00060611597 0.010106877 0)
(-0.00047106059 0.0090379189 0)
(-0.00024953711 0.0069625322 0)
(-5.2164692e-05 0.0031713784 0)
(2.8846973e-05 0.0030591625 0)
(0.00015025244 0.0067861997 0)
(0.00030778591 0.0088865267 0)
(0.0004190081 0.010018475 0)
(0.00047062947 0.010588642 0)
(0.00046415544 0.010841749 0)
(0.00040858935 0.010926379 0)
(0.00031622013 0.010932271 0)
(0.00019897305 0.010912507 0)
(6.8434693e-05 0.010896527 0)
(-6.8433063e-05 0.010896526 0)
(-0.00019897111 0.010912505 0)
(-0.00031621805 0.010932269 0)
(-0.00040858724 0.010926377 0)
(-0.0004641533 0.010841747 0)
(-0.00047062736 0.010588641 0)
(-0.00041900684 0.010018475 0)
(-0.00030778557 0.0088865298 0)
(-0.00015025317 0.0067862058 0)
(-2.8847536e-05 0.0030591693 0)
(1.6155586e-05 0.002992785 0)
(8.9713804e-05 0.0066707488 0)
(0.00019671467 0.0087758867 0)
(0.00028195352 0.0099435268 0)
(0.00032996927 0.01056134 0)
(0.00033610262 0.010861454 0)
(0.00030328242 0.010985614 0)
(0.00023899148 0.011020957 0)
(0.00015214753 0.011020291 0)
(5.254956e-05 0.011013632 0)
(-5.2547468e-05 0.011013632 0)
(-0.00015214548 0.01102029 0)
(-0.00023898928 0.011020955 0)
(-0.00030328001 0.010985612 0)
(-0.00033610011 0.010861453 0)
(-0.00032996719 0.010561339 0)
(-0.00028195237 0.0099435279 0)
(-0.00019671393 0.0087758905 0)
(-8.9713678e-05 0.0066707551 0)
(-1.6155671e-05 0.0029927902 0)
(9.0341727e-06 0.0029536786 0)
(5.2951592e-05 0.0065971549 0)
(0.00012304053 0.0086986286 0)
(0.00018497465 0.0098847974 0)
(0.00022509768 0.010533551 0)
(0.00023646936 0.010868001 0)
(0.00021848048 0.0110235 0)
(0.00017513943 0.011083671 0)
(0.00011273691 0.011099834 0)
(3.9090965e-05 0.011101571 0)
(-3.9088847e-05 0.01110157 0)
(-0.00011273465 0.011099833 0)
(-0.0001751372 0.01108367 0)
(-0.00021847811 0.011023499 0)
(-0.00023646689 0.010868 0)
(-0.00022509571 0.010533551 0)
(-0.00018497336 0.0098847994 0)
(-0.00012303973 0.0086986332 0)
(-5.2951429e-05 0.0065971614 0)
(-9.0341699e-06 0.0029536834 0)
(4.944881e-06 0.0029309316 0)
(3.0653284e-05 0.0065514196 0)
(7.5120181e-05 0.0086466452 0)
(0.00011821975 0.0098412814 0)
(0.00014945383 0.010509152 0)
(0.00016182326 0.010867607 0)
(0.00015300213 0.011046784 0)
(0.0001247049 0.011126761 0)
(8.1132989e-05 0.011156852 0)
(2.8241604e-05 0.011165665 0)
(-2.8239061e-05 0.011165665 0)
(-8.1130754e-05 0.011156851 0)
(-0.00012470277 0.01112676 0)
(-0.00015299999 0.011046783 0)
(-0.00016182119 0.010867607 0)
(-0.00014945205 0.010509153 0)
(-0.00011821837 0.0098412841 0)
(-7.5119266e-05 0.0086466503 0)
(-3.0652997e-05 0.0065514261 0)
(-4.9447985e-06 0.0029309365 0)
(2.571222e-06 0.002918026 0)
(1.7174165e-05 0.0065237756 0)
(4.4492934e-05 0.0086128141 0)
(7.3367434e-05 0.0098104296 0)
(9.6424341e-05 0.010489498 0)
(0.00010765256 0.010864074 0)
(0.00010417352 0.011060424 0)
(8.632617e-05 0.011155509 0)
(5.6761015e-05 0.011196576 0)
(1.9836553e-05 0.011211057 0)
(-1.9834361e-05 0.011211057 0)
(-5.6758752e-05 0.011196575 0)
(-8.632396e-05 0.011155508 0)
(-0.0001041715 0.011060424 0)
(-0.00010765067 0.010864074 0)
(-9.6422509e-05 0.0104895 0)
(-7.3365895e-05 0.009810433 0)
(-4.4492171e-05 0.0086128196 0)
(-1.7174043e-05 0.0065237826 0)
(-2.5711627e-06 0.002918031 0)
(1.2008431e-06 0.0029110187 0)
(9.1062241e-06 0.0065076396 0)
(2.5282278e-05 0.0085915265 0)
(4.3932735e-05 0.0097893828 0)
(6.0224272e-05 0.010474593 0)
(6.9461915e-05 0.010859573 0)
(6.8868894e-05 0.011067924 0)
(5.8056465e-05 0.011174095 0)
(3.858955e-05 0.011223465 0)
(1.3543863e-05 0.0112423 0)
(-1.3541837e-05 0.0112423 0)
(-3.8587557e-05 0.011223464 0)
(-5.8054427e-05 0.011174095 0)
(-6.8867123e-05 0.011067924 0)
(-6.9460357e-05 0.010859574 0)
(-6.0222597e-05 0.010474595 0)
(-4.3931357e-05 0.0097893869 0)
(-2.5281399e-05 0.0085915328 0)
(-9.1053643e-06 0.0065076474 0)
(-1.2003361e-06 0.002911024 0)
(4.3062802e-07 0.0029074995 0)
(4.3742751e-06 0.0064986662 0)
(1.351017e-05 0.0085786289 0)
(2.5103941e-05 0.0097755406 0)
(3.6172945e-05 0.010463812 0)
(4.3287887e-05 0.010855229 0)
(4.4080937e-05 0.011071672 0)
(3.7855138e-05 0.011185695 0)
(2.5455289e-05 0.011241121 0)
(8.976734e-06 0.01126318 0)
(-8.975011e-06 0.01126318 0)
(-2.5453319e-05 0.01124112 0)
(-3.7853106e-05 0.011185694 0)
(-4.4079169e-05 0.011071672 0)
(-4.3286243e-05 0.010855231 0)
(-3.6171449e-05 0.010463815 0)
(-2.5102749e-05 0.0097755453 0)
(-1.3509314e-05 0.0085786359 0)
(-4.3736256e-06 0.0064986744 0)
(-4.3025269e-07 0.0029075053 0)
(2.4820257e-08 0.0029059962 0)
(1.7018607e-06 0.0064940276 0)
(6.5271766e-06 0.0085711683 0)
(1.3427562e-05 0.0097667734 0)
(2.0668922e-05 0.010456328 0)
(2.5878105e-05 0.010851534 0)
(2.7190444e-05 0.011073237 0)
(2.3847876e-05 0.011192634 0)
(1.6245692e-05 0.011252331 0)
(5.7609939e-06 0.011276698 0)
(-5.7588488e-06 0.011276698 0)
(-1.6243673e-05 0.011252331 0)
(-2.3846165e-05 0.011192634 0)
(-2.7188537e-05 0.011073237 0)
(-2.5876326e-05 0.010851536 0)
(-2.0667246e-05 0.010456331 0)
(-1.342614e-05 0.0097667786 0)
(-6.5263297e-06 0.0085711757 0)
(-1.7014508e-06 0.0064940362 0)
(-2.4677529e-08 0.0029060025 0)
(-1.5824774e-07 0.0029056352 0)
(2.9708588e-07 0.0064919071 0)
(2.5895128e-06 0.0085671198 0)
(6.486425e-06 0.0097614595 0)
(1.1041085e-05 0.010451339 0)
(1.4691302e-05 0.010848639 0)
(1.6055173e-05 0.011073628 0)
(1.4443552e-05 0.011196579 0)
(9.9902268e-06 0.011259189 0)
(3.5663633e-06 0.011285155 0)
(-3.5644766e-06 0.011285155 0)
(-9.9882403e-06 0.011259189 0)
(-1.4441859e-05 0.011196579 0)
(-1.6053271e-05 0.011073629 0)
(-1.4689412e-05 0.010848641 0)
(-1.1039612e-05 0.010451342 0)
(-6.485191e-06 0.0097614647 0)
(-2.5886327e-06 0.0085671274 0)
(-2.9670202e-07 0.0064919161 0)
(1.5839093e-07 0.0029056418 0)
(-2.146417e-07 0.002905758 0)
(-3.3664767e-07 0.0064911312 0)
(5.6488064e-07 0.0085650621 0)
(2.6228237e-06 0.0097583674 0)
(5.3674013e-06 0.010448121 0)
(7.8166186e-06 0.010846482 0)
(9.0020025e-06 0.011073432 0)
(8.3614215e-06 0.011198646 0)
(5.8915079e-06 0.011263174 0)
(2.1203038e-06 0.01129021 0)
(-2.1189342e-06 0.01129021 0)
(-5.890007e-06 0.011263174 0)
(-8.3602088e-06 0.011198646 0)
(-9.0007666e-06 0.011073433 0)
(-7.8149794e-06 0.010846483 0)
(-5.3657854e-06 0.010448124 0)
(-2.621621e-06 0.0097583724 0)
(-5.6401797e-07 0.0085650697 0)
(3.3732703e-07 0.0064911406 0)
(2.1499334e-07 0.0029057651 0)
(-1.8824479e-07 0.0029054087 0)
(-4.9866769e-07 0.0064904932 0)
(-2.7590697e-07 0.0085636529 0)
(7.283007e-07 0.0097562096 0)
(2.3011471e-06 0.010445699 0)
(3.862362e-06 0.01084454 0)
(4.7722162e-06 0.011072614 0)
(4.6118727e-06 0.011199224 0)
(3.3222117e-06 0.011264979 0)
(1.2073552e-06 0.011292713 0)
(-1.2063889e-06 0.011292713 0)
(-3.3208806e-06 0.011264979 0)
(-4.6109169e-06 0.011199224 0)
(-4.7716246e-06 0.011072614 0)
(-3.8612574e-06 0.010844541 0)
(-2.2995695e-06 0.010445701 0)
(-7.2692123e-07 0.0097562144 0)
(2.7689022e-07 0.0085636605 0)
(4.9939853e-07 0.006490503 0)
(1.8865843e-07 0.0029054164 0)
(-1.3104942e-07 0.0029065482 0)
(-4.0848921e-07 0.0064912853 0)
(-4.2394717e-07 0.0085637969 0)
(4.9803417e-08 0.0097556196 0)
(9.3244281e-07 0.010444732 0)
(1.8880481e-06 0.01084376 0)
(2.5161197e-06 0.011072558 0)
(2.529423e-06 0.011200167 0)
(1.8617272e-06 0.011266842 0)
(6.8322294e-07 0.011295112 0)
(-6.8248243e-07 0.011295112 0)
(-1.8609913e-06 0.011266842 0)
(-2.5287235e-06 0.011200167 0)
(-2.515484e-06 0.011072558 0)
(-1.887041e-06 0.010843761 0)
(-9.3118932e-07 0.010444734 0)
(-4.8538479e-08 0.0097556247 0)
(4.2525148e-07 0.0085638051 0)
(4.0972059e-07 0.0064912956 0)
(1.3169061e-07 0.0029065569 0)
)
;

boundaryField
{
    Wall
    {
        type            fixedValue;
        value           uniform (0 0 0);
    }
    frontAndBack
    {
        type            empty;
    }
    atmosphere
    {
        type            pressureInletOutletVelocity;
        value           nonuniform List<vector> 
20
(
(-1.3104942e-07 0.0029065482 0)
(-4.0848921e-07 0.0064912853 0)
(-4.2394717e-07 0.0085637969 0)
(4.9803417e-08 0.0097556196 0)
(9.3244281e-07 0.010444732 0)
(1.8880481e-06 0.01084376 0)
(2.5161197e-06 0.011072558 0)
(2.529423e-06 0.011200167 0)
(1.8617272e-06 0.011266842 0)
(6.8322294e-07 0.011295112 0)
(-6.8248243e-07 0.011295112 0)
(-1.8609913e-06 0.011266842 0)
(-2.5287235e-06 0.011200167 0)
(-2.515484e-06 0.011072558 0)
(-1.887041e-06 0.010843761 0)
(-9.3118932e-07 0.010444734 0)
(-4.8538479e-08 0.0097556247 0)
(4.2525148e-07 0.0085638051 0)
(4.0972059e-07 0.0064912956 0)
(1.3169061e-07 0.0029065569 0)
)
;
    }
}


// ************************************************************************* //
