/*--------------------------------*- C++ -*----------------------------------*\
| =========                 |                                                 |
| \\      /  F ield         | OpenFOAM: The Open Source CFD Toolbox           |
|  \\    /   O peration     | Version:  3.0.1                                 |
|   \\  /    A nd           | Web:      www.OpenFOAM.org                      |
|    \\/     M anipulation  |                                                 |
\*---------------------------------------------------------------------------*/
FoamFile
{
    version     2.0;
    format      ascii;
    class       volScalarField;
    location    "27";
    object      wBA_g;
}
// * * * * * * * * * * * * * * * * * * * * * * * * * * * * * * * * * * * * * //

dimensions      [0 0 0 0 0 0 0];

internalField   nonuniform List<scalar> 
800
(
0.048188399
0.048190438
0.04819094
0.04819108
0.048191157
0.048191216
0.048191263
0.048191298
0.048191322
0.048191333
0.048191333
0.048191322
0.048191298
0.048191263
0.048191216
0.048191157
0.04819108
0.04819094
0.048190439
0.048188399
0.051764208
0.051712413
0.051699471
0.051696308
0.051695532
0.051695379
0.051695334
0.051695284
0.051695233
0.051695201
0.051695201
0.051695233
0.051695284
0.051695334
0.051695379
0.051695532
0.051696309
0.051699473
0.051712415
0.051764212
0.053978071
0.053912512
0.053910674
0.053905781
0.053904124
0.053903487
0.053903145
0.053902923
0.05390277
0.053902692
0.053902692
0.05390277
0.053902922
0.053903144
0.053903486
0.053904123
0.05390578
0.053910673
0.053912511
0.053978071
0.054953539
0.054895409
0.054910113
0.054905325
0.054903491
0.054902623
0.054902059
0.054901731
0.054901512
0.054901412
0.054901411
0.054901511
0.054901729
0.054902056
0.054902619
0.054903487
0.054905321
0.054910109
0.054895404
0.054953533
0.054867272
0.054839148
0.054862922
0.054869253
0.05486731
0.054866288
0.054865555
0.054865204
0.054864965
0.054864877
0.054864877
0.054864963
0.054865201
0.05486555
0.054866281
0.054867303
0.054869245
0.054862912
0.054839138
0.054867259
0.053954861
0.053977578
0.053996443
0.054020054
0.054017153
0.054015677
0.054014671
0.054014296
0.054014045
0.054013989
0.054013988
0.054014042
0.054014291
0.054014663
0.054015667
0.054017141
0.054020041
0.053996429
0.053977563
0.053954842
0.052487749
0.05257361
0.052576299
0.052613932
0.052608295
0.052605625
0.052604015
0.052603473
0.052603143
0.052603101
0.052603099
0.052603139
0.052603467
0.052604005
0.052605612
0.052608281
0.052613915
0.052576281
0.052573591
0.052487726
0.050750408
0.050887506
0.05087764
0.050918892
0.050908068
0.050903017
0.050900222
0.050899201
0.050898622
0.050898525
0.050898524
0.050898618
0.050899193
0.05090021
0.050903002
0.050908051
0.050918872
0.05087762
0.050887484
0.050750383
0.049002309
0.049165507
0.049148292
0.049179329
0.049172754
0.049163891
0.04915904
0.049157017
0.049155889
0.049155602
0.0491556
0.049155885
0.049157009
0.049159027
0.049163875
0.049172735
0.049179308
0.04914827
0.049165484
0.049002282
0.047430307
0.047617841
0.047584686
0.047590728
0.047601114
0.047601842
0.047593647
0.047589791
0.047587626
0.047586915
0.047586913
0.047587622
0.047589783
0.047593635
0.047601826
0.047601095
0.047590706
0.047584663
0.047617816
0.047430279
0.046148431
0.046377033
0.046324425
0.046290139
0.046337177
0.046364206
0.046350435
0.046343353
0.046339336
0.046337815
0.046337814
0.046339332
0.046343345
0.046350424
0.04636419
0.046337158
0.046290117
0.046324401
0.046377007
0.046148403
0.045224182
0.045523305
0.045457295
0.045362484
0.045495263
0.04555204
0.045529344
0.045516834
0.045509322
0.045506331
0.04550633
0.045509318
0.045516827
0.045529333
0.045552025
0.045495244
0.045362463
0.045457273
0.04552328
0.045224156
0.044690522
0.045106903
0.045036859
0.044878976
0.045121978
0.045194941
0.045158578
0.045135884
0.045152781
0.045145609
0.045145608
0.045152778
0.045135878
0.045158569
0.045194928
0.045121961
0.044878956
0.045036838
0.04510688
0.044690499
0.044490357
0.045075428
0.045043934
0.04488297
0.045199228
0.045264686
0.045208353
0.045170971
0.045260809
0.045247823
0.045247822
0.045260806
0.045170967
0.045208345
0.045264674
0.045199213
0.044882952
0.045043914
0.045075406
0.044490334
0.04451684
0.045337788
0.045412866
0.045269544
0.045582103
0.045610851
0.045495631
0.045436346
0.045596794
0.045678529
0.045678528
0.045596791
0.045436341
0.045495623
0.04561084
0.045582089
0.045269526
0.045412847
0.045337766
0.044516815
0.044146813
0.045405738
0.04569033
0.045710984
0.0459435
0.045856005
0.045709867
0.045626853
0.045806347
0.046009841
0.04600984
0.045806343
0.045626848
0.045709858
0.045855994
0.045943486
0.045710967
0.045690311
0.045405715
0.044146785
0.042083383
0.044173701
0.044853011
0.044995723
0.045472845
0.045355798
0.045187269
0.045079996
0.045101219
0.045352767
0.045352766
0.045101215
0.045079991
0.045187261
0.045355787
0.045472832
0.044995707
0.044852994
0.04417368
0.042083363
0.033151007
0.037466457
0.039133899
0.039451193
0.04048718
0.040399458
0.040259797
0.040180025
0.04021433
0.040462131
0.040462131
0.040214329
0.040180024
0.040259795
0.040399455
0.040487177
0.039451188
0.039133895
0.037466454
0.033151015
0.019141351
0.022263755
0.023696462
0.024049008
0.024942525
0.024939598
0.024872772
0.024838863
0.024907617
0.025114124
0.025114124
0.024907617
0.024838863
0.024872772
0.024939598
0.024942523
0.024049006
0.023696459
0.022263753
0.019141356
0.011175466
0.01314107
0.014138478
0.014442658
0.014988133
0.015021288
0.014994255
0.014982311
0.015055749
0.015201469
0.01520147
0.01505575
0.014982312
0.014994257
0.015021289
0.014988133
0.014442657
0.014138478
0.013141072
0.011175475
0.0061117432
0.0074167293
0.008143706
0.0084096577
0.0087134125
0.0087613784
0.0087549923
0.0087517423
0.0088113763
0.0088989636
0.008898964
0.0088113774
0.0087517441
0.0087549935
0.008761381
0.0087134146
0.0084096596
0.0081437087
0.0074167338
0.0061117545
0.0028794297
0.0039890943
0.0045629939
0.0047906496
0.004955579
0.0049932142
0.0049880618
0.0049798008
0.0050131445
0.0050561752
0.0050561755
0.0050131453
0.0049798015
0.0049880652
0.0049932163
0.0049555807
0.0047906513
0.0045629962
0.0039890978
0.0028794392
0.0010651364
0.0020267967
0.0025253866
0.0027346909
0.0028391837
0.0028599008
0.0028456705
0.0028290593
0.0028394772
0.0028550488
0.0028550492
0.0028394782
0.0028290607
0.002845672
0.0028599022
0.0028391845
0.0027346919
0.0025253879
0.0020267992
0.0010651416
0.00030164939
0.00096563106
0.0013705718
0.0015600775
0.0016422102
0.0016563435
0.0016397683
0.0016192165
0.0016154144
0.0016167847
0.0016167849
0.0016154147
0.001619217
0.001639769
0.0016563441
0.0016422104
0.0015600778
0.0013705724
0.00096563251
0.00030165147
6.7035058e-05
0.00043242534
0.00072677046
0.00088460948
0.00095404362
0.00096759966
0.00095431993
0.00093573712
0.00092673216
0.00092270633
0.00092270635
0.00092673225
0.00093573724
0.00095432009
0.0009675998
0.00095404349
0.00088460942
0.00072677072
0.00043242609
6.7035681e-05
1.2314629e-05
0.00018274278
0.00037646905
0.00049697425
0.00055398286
0.0005677405
0.00055936049
0.00054526686
0.00053612846
0.00053112341
0.00053112338
0.00053612842
0.00054526677
0.00055936041
0.00056774038
0.00055398265
0.00049697406
0.00037646911
0.00018274314
1.2314775e-05
1.9784041e-06
7.3287615e-05
0.00019069978
0.00027617637
0.00032037659
0.0003332528
0.0003290151
0.00031949023
0.00031220342
0.00030795499
0.00030795495
0.00031220332
0.00031949007
0.00032901493
0.00033325261
0.00032037636
0.00027617617
0.00019069978
7.328778e-05
1.9784323e-06
2.9101495e-07
2.8103101e-05
9.4580774e-05
0.00015165982
0.00018403657
0.00019501995
0.00019351019
0.00018760272
0.00018248086
0.00017939423
0.00017939419
0.00018248075
0.00018760257
0.00019351002
0.00019501977
0.00018403639
0.00015165968
9.4580756e-05
2.8103171e-05
2.9101976e-07
4.0458976e-08
1.0384195e-05
4.5974196e-05
8.2216533e-05
0.00010477485
0.00011344164
0.00011341925
0.00011001116
0.00010669516
0.00010464454
0.0001046445
0.00010669507
0.00011001103
0.00011341912
0.0001134415
0.00010477474
8.2216456e-05
4.5974192e-05
1.0384224e-05
4.0459711e-08
5.4232414e-09
3.7209363e-06
2.1913042e-05
4.3947611e-05
5.8995379e-05
6.5416701e-05
6.6039749e-05
6.4205876e-05
6.2186955e-05
6.0905457e-05
6.0905428e-05
6.2186885e-05
6.4205777e-05
6.6039651e-05
6.5416613e-05
5.8995309e-05
4.3947575e-05
2.1913046e-05
3.7209491e-06
5.4233458e-09
7.0911598e-10
1.2987248e-06
1.0241758e-05
2.3131301e-05
3.2788478e-05
3.7304595e-05
3.8090761e-05
3.7177323e-05
3.6009232e-05
3.5245266e-05
3.5245246e-05
3.6009181e-05
3.7177253e-05
3.8090695e-05
3.7304539e-05
3.2788441e-05
2.3131287e-05
1.0241764e-05
1.2987303e-06
7.0913027e-10
9.1028197e-11
4.4272257e-07
4.6922281e-06
1.1971027e-05
1.7953792e-05
2.0991084e-05
2.1708283e-05
2.129681e-05
2.0651446e-05
2.0213779e-05
2.0213764e-05
2.0651411e-05
2.1296762e-05
2.1708239e-05
2.0991051e-05
1.7953773e-05
1.1971023e-05
4.6922337e-06
4.4272481e-07
9.1030129e-11
1.1508855e-11
1.4760539e-07
2.1061155e-06
6.0833891e-06
9.6694115e-06
1.1632477e-05
1.2197542e-05
1.2039883e-05
1.1698942e-05
1.1457073e-05
1.1457063e-05
1.1698918e-05
1.2039851e-05
1.2197514e-05
1.1632458e-05
9.6694028e-06
6.0833896e-06
2.1061192e-06
1.4760627e-07
1.1509114e-11
1.4353527e-12
4.8159315e-08
9.2561202e-07
3.0320793e-06
5.1149744e-06
6.3383867e-06
6.7448519e-06
6.7038087e-06
6.5318341e-06
6.4026707e-06
6.4026643e-06
6.5318189e-06
6.7037883e-06
6.7448346e-06
6.3383754e-06
5.1149704e-06
3.0320809e-06
9.2561428e-07
4.8159652e-08
1.4353877e-12
1.7754394e-13
1.5378714e-08
3.9809694e-07
1.4808687e-06
2.6546119e-06
3.3915649e-06
3.6652113e-06
3.6703901e-06
3.5879325e-06
3.5212477e-06
3.5212437e-06
3.587923e-06
3.6703775e-06
3.6652008e-06
3.3915584e-06
2.6546102e-06
1.4808701e-06
3.980982e-07
1.5378838e-08
1.7755219e-13
2.6552466e-14
4.806013e-09
1.674864e-07
7.0823731e-07
1.3505427e-06
1.7803923e-06
1.9551249e-06
1.9735983e-06
1.9363426e-06
1.9030747e-06
1.9030723e-06
1.9363369e-06
1.9735906e-06
1.9551187e-06
1.7803887e-06
1.3505419e-06
7.082383e-07
1.6748705e-07
4.8060571e-09
2.6543142e-14
1.4158682e-14
1.4697245e-09
6.8909097e-08
3.3153482e-07
6.7314686e-07
9.1627024e-07
1.0229451e-06
1.0412861e-06
1.0256867e-06
1.0096712e-06
1.0096698e-06
1.0256834e-06
1.0412816e-06
1.0229416e-06
9.1626828e-07
6.7314657e-07
3.3153545e-07
6.8909418e-08
1.4697398e-09
1.4166004e-14
1.1147478e-14
4.4004317e-10
2.7721192e-08
1.51863e-07
3.2858144e-07
4.6208566e-07
5.2468211e-07
5.3873591e-07
5.3289214e-07
5.254702e-07
5.2546937e-07
5.3289023e-07
5.3873336e-07
5.2468011e-07
4.6208461e-07
3.2858134e-07
1.5186337e-07
2.7721344e-08
4.4004913e-10
1.1158968e-14
4.2607239e-15
1.2917221e-10
1.0903973e-08
6.8060862e-08
1.5704388e-07
2.2829342e-07
2.637301e-07
2.7321472e-07
2.7143133e-07
2.6813328e-07
2.6813282e-07
2.7143028e-07
2.7321331e-07
2.6372901e-07
2.2829287e-07
1.5704386e-07
6.8061061e-08
1.0904043e-08
1.2917475e-10
4.2663089e-15
1.1520819e-15
3.7128322e-11
4.1943205e-09
2.9844988e-08
7.3488037e-08
1.1047968e-07
1.2988744e-07
1.3578751e-07
1.3550794e-07
1.3411154e-07
1.3411129e-07
1.3550738e-07
1.3578675e-07
1.2988686e-07
1.1047941e-07
7.3488036e-08
2.9845092e-08
4.1943532e-09
3.7129362e-11
1.1545966e-15
)
;

boundaryField
{
    Wall
    {
        type            zeroGradient;
    }
    frontAndBack
    {
        type            empty;
    }
    atmosphere
    {
        type            zeroGradient;
    }
}


// ************************************************************************* //
