/*--------------------------------*- C++ -*----------------------------------*\
| =========                 |                                                 |
| \\      /  F ield         | OpenFOAM: The Open Source CFD Toolbox           |
|  \\    /   O peration     | Version:  3.0.1                                 |
|   \\  /    A nd           | Web:      www.OpenFOAM.org                      |
|    \\/     M anipulation  |                                                 |
\*---------------------------------------------------------------------------*/
FoamFile
{
    version     2.0;
    format      ascii;
    class       volScalarField;
    location    "27";
    object      wBA_l;
}
// * * * * * * * * * * * * * * * * * * * * * * * * * * * * * * * * * * * * * //

dimensions      [0 0 0 0 0 0 0];

internalField   nonuniform List<scalar> 
800
(
0.048562521
0.048560528
0.048560222
0.048560193
0.048560194
0.048560192
0.048560186
0.04856018
0.048560176
0.048560173
0.048560173
0.048560176
0.04856018
0.048560186
0.048560192
0.048560194
0.048560193
0.048560222
0.048560528
0.048562521
0.049299396
0.049271897
0.049265974
0.049264771
0.049264669
0.049264738
0.049264778
0.049264775
0.049264755
0.04926474
0.04926474
0.049264755
0.049264775
0.049264779
0.049264739
0.049264669
0.049264772
0.049265975
0.049271898
0.049299398
0.049501358
0.049470836
0.049463545
0.049462061
0.049461767
0.049461658
0.049461538
0.049461411
0.049461308
0.049461252
0.049461252
0.049461308
0.049461411
0.049461538
0.049461658
0.049461767
0.049462061
0.049463545
0.049470837
0.049501359
0.049216583
0.049197785
0.04919294
0.049192081
0.049191718
0.049191344
0.049190957
0.049190628
0.049190392
0.049190273
0.049190273
0.049190392
0.049190627
0.049190957
0.049191343
0.049191717
0.04919208
0.04919294
0.049197784
0.049216582
0.048504766
0.048510736
0.048510841
0.048511015
0.0485106
0.048509872
0.048509137
0.048508549
0.048508146
0.048507948
0.048507947
0.048508146
0.048508548
0.048509136
0.048509871
0.048510598
0.048511013
0.048510839
0.048510734
0.048504763
0.047435216
0.047476147
0.04748283
0.04748425
0.047483694
0.047482515
0.047481363
0.047480474
0.047479881
0.047479594
0.047479593
0.04747988
0.047480473
0.047481361
0.047482513
0.047483692
0.047484246
0.047482826
0.047476143
0.047435211
0.046079425
0.046162948
0.046177699
0.046180452
0.046179574
0.04617783
0.046176203
0.046174987
0.046174194
0.046173814
0.046173814
0.046174193
0.046174986
0.046176201
0.046177827
0.046179571
0.046180448
0.046177695
0.046162944
0.046079419
0.044505982
0.044637586
0.044662038
0.044666156
0.044664823
0.044662387
0.044660249
0.044658699
0.044657705
0.044657234
0.044657234
0.044657703
0.044658697
0.044660246
0.044662383
0.044664819
0.044666152
0.044662033
0.044637582
0.044505976
0.042776671
0.042960373
0.042996468
0.043002073
0.043000123
0.042997036
0.042994387
0.042992524
0.042991337
0.04299078
0.04299078
0.042991335
0.042992522
0.042994384
0.042997033
0.043000119
0.043002068
0.042996464
0.042960369
0.042776666
0.04094257
0.041181558
0.041231797
0.041239265
0.041236804
0.041233093
0.04123
0.04122787
0.041226498
0.041225859
0.041225859
0.041226496
0.041227868
0.041229997
0.04123309
0.0412368
0.04123926
0.041231793
0.041181553
0.040942565
0.039041627
0.039339438
0.039406996
0.039417194
0.039414611
0.039410385
0.03940694
0.039404595
0.039403017
0.039402292
0.039402291
0.039403015
0.039404592
0.039406937
0.039410382
0.039414607
0.03941719
0.039406992
0.039339434
0.039041622
0.037097017
0.037459192
0.037547919
0.037562583
0.037560868
0.037556403
0.037552672
0.037550155
0.037548485
0.037547652
0.037547651
0.037548484
0.037550152
0.03755267
0.0375564
0.037560865
0.037562579
0.037547915
0.037459188
0.037097013
0.035115821
0.035550767
0.035666317
0.035689182
0.035689855
0.035685538
0.035681528
0.035678869
0.035676996
0.035676008
0.035676007
0.035676995
0.035678867
0.035681526
0.035685535
0.035689852
0.035689179
0.035666314
0.035550763
0.035115818
0.033090998
0.033610427
0.033763183
0.033799674
0.033804767
0.033801085
0.033796693
0.033793835
0.033792235
0.03379118
0.033791179
0.033792233
0.033793833
0.033796691
0.033801082
0.033804765
0.033799672
0.03376318
0.033610424
0.033090995
0.030988578
0.031605226
0.031810784
0.031868942
0.031881408
0.031879012
0.03187435
0.03187109
0.031870058
0.031868789
0.031868789
0.031870057
0.031871088
0.031874348
0.03187901
0.031881405
0.03186894
0.031810781
0.031605223
0.030988576
0.028781454
0.029514681
0.029797648
0.029891178
0.029915805
0.029916288
0.029911267
0.029907153
0.02990624
0.02990492
0.02990492
0.029906239
0.029907151
0.029911265
0.029916286
0.029915803
0.029891176
0.029797645
0.029514679
0.028781454
0.026387402
0.027268251
0.027665767
0.027817295
0.027864137
0.027869676
0.027864026
0.027858242
0.027856881
0.027855212
0.027855212
0.02785688
0.027858239
0.027864024
0.027869675
0.027864136
0.027817293
0.027665766
0.027268251
0.026387405
0.023665965
0.024740956
0.02530957
0.025555661
0.025641942
0.025658295
0.025652372
0.025643747
0.025640776
0.0256382
0.0256382
0.025640775
0.025643745
0.025652371
0.025658294
0.025641942
0.025555661
0.025309569
0.024740958
0.023665972
0.020423901
0.021733716
0.022556982
0.022954839
0.023113056
0.023151129
0.023145608
0.02313155
0.023126268
0.023121134
0.023121133
0.023126267
0.023131548
0.023145607
0.023151129
0.023113057
0.02295484
0.022556983
0.02173372
0.020423912
0.016727592
0.018351706
0.01953147
0.020163642
0.020433296
0.020503723
0.020494995
0.020468035
0.020450808
0.020439123
0.020439122
0.020450807
0.020468033
0.020494995
0.020503723
0.020433297
0.020163643
0.019531472
0.018351714
0.016727611
0.012113596
0.014261314
0.015956002
0.016975846
0.017461143
0.017608333
0.017602277
0.017554997
0.017518128
0.017495467
0.017495466
0.017518127
0.017554995
0.017602275
0.017608334
0.017461145
0.016975848
0.015956007
0.014261327
0.012113622
0.0071106308
0.010058704
0.012167991
0.01354312
0.014270989
0.014523611
0.014529353
0.014450015
0.014379093
0.014337161
0.014337159
0.014379091
0.01445001
0.014529356
0.014523612
0.014270989
0.013543121
0.012167995
0.010058715
0.0071106572
0.003084522
0.0065443727
0.0089091645
0.010485774
0.011364931
0.011691535
0.011695853
0.011583736
0.011476803
0.011412725
0.011412723
0.011476801
0.011583734
0.011695852
0.011691535
0.01136493
0.010485774
0.0089091672
0.0065443806
0.0030845389
0.00096721488
0.0039680836
0.0063115699
0.0079362779
0.0088702445
0.0092305289
0.0092334682
0.0090952687
0.008957912
0.008875004
0.0088750019
0.0089579084
0.0090952643
0.0092334657
0.0092305273
0.0088702424
0.0079362769
0.006311571
0.0039680888
0.00096722219
0.00022747318
0.0022480949
0.0043288224
0.0058685445
0.0067797987
0.0071421346
0.0071475003
0.0070035303
0.0068551423
0.0067644989
0.0067644964
0.0068551377
0.0070035248
0.0071474963
0.0071421316
0.0067797956
0.0058685423
0.0043288224
0.002248098
0.00022747544
4.2897476e-05
0.0011840126
0.0028654586
0.004225889
0.0050598659
0.0054025842
0.0054150232
0.0052832311
0.0051422433
0.0050550248
0.0050550221
0.0051422382
0.0052832248
0.0054150182
0.0054025802
0.0050598626
0.0042258865
0.002865458
0.0011840144
4.2898001e-05
6.9477678e-06
0.00057856372
0.0018228687
0.0029517757
0.0036751656
0.0039843787
0.0040061548
0.0038979082
0.003776984
0.0037011775
0.0037011749
0.0037769789
0.0038979018
0.0040061495
0.0039843743
0.0036751622
0.0029517733
0.0018228681
0.00057856473
6.9478671e-06
1.0203596e-06
0.00026349669
0.0011106793
0.001993412
0.0025907765
0.002858241
0.0028884207
0.002807721
0.002712449
0.0026518323
0.00265183
0.0027124443
0.002807715
0.0028884156
0.0028582369
0.0025907735
0.0019934102
0.0011106788
0.00026349722
1.020376e-06
1.4095576e-07
0.00011275163
0.00064722724
0.0012987766
0.001769151
0.0019910689
0.0020263682
0.0019715487
0.0019018098
0.0018566487
0.0018566467
0.0019018057
0.0019715434
0.0020263637
0.0019910654
0.0017691486
0.0012987754
0.00064722707
0.0001127519
1.4095819e-07
1.8731656e-08
4.5708381e-05
0.0003608311
0.0008155992
0.0011689969
0.0013454446
0.0013817419
0.0013479519
0.0013001787
0.0012685545
0.0012685529
0.0013001753
0.0013479475
0.0013817382
0.0013454418
0.0011689952
0.00081559851
0.00036083113
4.5708523e-05
1.8731992e-08
2.4254468e-09
1.7677223e-05
0.00019274473
0.00049363557
0.00074714646
0.00088147259
0.00091515123
0.0008965617
0.00086580406
0.00084486455
0.00084486332
0.00086580143
0.00089655825
0.00091514834
0.00088147049
0.00074714523
0.00049363522
0.00019274482
1.7677292e-05
2.4254923e-09
3.0809621e-10
6.5565336e-06
9.885057e-05
0.00028812244
0.00046194507
0.00055983663
0.00058853235
0.00057980346
0.00056115663
0.00054799251
0.00054799161
0.00056115467
0.00057980086
0.00058853019
0.0005598351
0.00046194424
0.00028812228
9.8850656e-05
6.5565647e-06
3.0810234e-10
3.8520004e-11
2.341256e-06
4.8778225e-05
0.00016233015
0.00027641389
0.00034474227
0.00036747548
0.00036445528
0.00035381487
0.0003459362
0.00034593556
0.00035381346
0.00036445341
0.00036747392
0.0003447412
0.00027641335
0.00016233008
4.8778288e-05
2.341269e-06
3.8520834e-11
4.7579144e-12
8.071279e-07
2.3205967e-05
8.8380397e-05
0.00016017457
0.00020590383
0.00022280363
0.00022265443
0.00021695816
0.00021246252
0.00021246208
0.00021695719
0.00022265313
0.00022280255
0.0002059031
0.00016017421
8.8380375e-05
2.3206008e-05
8.0713308e-07
4.7580555e-12
6.1428104e-13
2.6917443e-07
1.0663085e-05
4.6553138e-05
8.9953019e-05
0.00011933856
0.00013121096
0.00013221393
0.00012937497
0.00012692838
0.00012692809
0.00012937433
0.00013221306
0.00013121024
0.00011933808
8.9952794e-05
4.6553131e-05
1.0663108e-05
2.6917638e-07
6.1442207e-13
2.0403767e-13
8.6973662e-08
4.7397894e-06
2.3750197e-05
4.8996859e-05
6.7156021e-05
7.5081681e-05
7.6326338e-05
7.50301e-05
7.3761361e-05
7.3761177e-05
7.5029689e-05
7.6325778e-05
7.5081214e-05
6.7155718e-05
4.8996719e-05
2.3750196e-05
4.739802e-06
8.6974365e-08
2.0391066e-13
2.6800883e-13
2.7263592e-08
2.0409035e-06
1.1748217e-05
2.5905577e-05
3.6714206e-05
4.1764294e-05
4.2850733e-05
4.2327542e-05
4.1702196e-05
4.1702084e-05
4.2327288e-05
4.2850387e-05
4.1764005e-05
3.671402e-05
2.5905495e-05
1.1748218e-05
2.04091e-06
2.726384e-08
2.6818857e-13
2.237789e-13
8.3098368e-09
8.5230156e-07
5.640151e-06
1.330527e-05
1.9511513e-05
2.2593985e-05
2.3404213e-05
2.3235115e-05
2.2943626e-05
2.294356e-05
2.3234964e-05
2.3404007e-05
2.2593812e-05
1.9511403e-05
1.3305223e-05
5.6401517e-06
8.5230469e-07
8.3099488e-09
2.2400945e-13
8.3960819e-14
2.4713903e-09
3.455854e-07
2.6303586e-06
6.6432069e-06
1.0085943e-05
1.1893669e-05
1.2441338e-05
1.2415423e-05
1.228812e-05
1.2288083e-05
1.2415336e-05
1.2441219e-05
1.1893569e-05
1.0085881e-05
6.6431809e-06
2.6303591e-06
3.4558693e-07
2.4714469e-09
8.4070593e-14
2.2171906e-14
7.1594603e-10
1.3619879e-07
1.192635e-06
3.2266859e-06
5.0741859e-06
6.0953185e-06
6.4398307e-06
6.4602973e-06
6.4091302e-06
6.4091095e-06
6.4602488e-06
6.4397644e-06
6.0952628e-06
5.0741517e-06
3.2266721e-06
1.1926352e-06
1.3619955e-07
7.1597147e-10
2.2221288e-14
)
;

boundaryField
{
    Wall
    {
        type            zeroGradient;
    }
    frontAndBack
    {
        type            empty;
    }
    atmosphere
    {
        type            zeroGradient;
    }
}


// ************************************************************************* //
