/*--------------------------------*- C++ -*----------------------------------*\
| =========                 |                                                 |
| \\      /  F ield         | OpenFOAM: The Open Source CFD Toolbox           |
|  \\    /   O peration     | Version:  3.0.1                                 |
|   \\  /    A nd           | Web:      www.OpenFOAM.org                      |
|    \\/     M anipulation  |                                                 |
\*---------------------------------------------------------------------------*/
FoamFile
{
    version     2.0;
    format      ascii;
    class       volScalarField;
    location    "27";
    object      wBA_l_0;
}
// * * * * * * * * * * * * * * * * * * * * * * * * * * * * * * * * * * * * * //

dimensions      [0 0 0 0 0 0 0];

internalField   nonuniform List<scalar> 
800
(
0.048618362
0.048616377
0.048616073
0.048616045
0.048616045
0.048616043
0.048616038
0.048616032
0.048616027
0.048616025
0.048616025
0.048616027
0.048616032
0.048616038
0.048616043
0.048616045
0.048616045
0.048616073
0.048616378
0.048618362
0.049356329
0.049328866
0.049322962
0.049321767
0.049321667
0.049321736
0.049321775
0.049321771
0.04932175
0.049321735
0.049321735
0.04932175
0.049321771
0.049321775
0.049321736
0.049321667
0.049321767
0.049322963
0.049328867
0.04935633
0.049554684
0.049524323
0.049517088
0.04951562
0.049515327
0.049515216
0.049515093
0.049514964
0.04951486
0.049514803
0.049514803
0.04951486
0.049514964
0.049515093
0.049515216
0.049515327
0.04951562
0.049517088
0.049524323
0.049554685
0.049262486
0.049244039
0.049239292
0.049238451
0.049238085
0.049237704
0.049237312
0.049236978
0.049236741
0.04923662
0.04923662
0.049236741
0.049236978
0.049237311
0.049237703
0.049238084
0.04923845
0.049239291
0.049244038
0.049262485
0.048540463
0.048547008
0.048547243
0.04854743
0.048547003
0.048546263
0.048545519
0.048544925
0.048544519
0.048544319
0.048544318
0.048544518
0.048544924
0.048545517
0.048546262
0.048547002
0.048547428
0.048547241
0.048547005
0.04854046
0.04745894
0.04750068
0.047507515
0.047508937
0.047508358
0.047507158
0.047505992
0.047505096
0.047504499
0.04750421
0.04750421
0.047504498
0.047505095
0.047505991
0.047507156
0.047508355
0.047508933
0.047507512
0.047500676
0.047458935
0.046090263
0.046174826
0.046189747
0.046192487
0.04619157
0.046189797
0.046188153
0.046186928
0.046186129
0.046185748
0.046185747
0.046186128
0.046186926
0.046188151
0.046189794
0.046191567
0.046192483
0.046189743
0.046174821
0.046090258
0.044503686
0.044636559
0.044661206
0.044665296
0.044663909
0.044661435
0.044659277
0.044657717
0.044656718
0.044656246
0.044656245
0.044656716
0.044657715
0.044659274
0.044661432
0.044663905
0.044665291
0.044661202
0.044636555
0.044503681
0.042761389
0.042946602
0.042982936
0.042988503
0.042986486
0.042983358
0.042980687
0.042978814
0.042977622
0.042977064
0.042977064
0.042977621
0.042978812
0.042980684
0.042983354
0.042986482
0.042988499
0.042982931
0.042946597
0.042761383
0.040914568
0.041155347
0.041205905
0.041213344
0.041210814
0.041207059
0.041203946
0.041201808
0.041200432
0.041199793
0.041199792
0.041200431
0.041201806
0.041203943
0.041207056
0.04121081
0.04121334
0.0412059
0.041155343
0.040914563
0.03900104
0.039301005
0.039369018
0.03937923
0.039376592
0.03937233
0.039368872
0.039366522
0.039364942
0.039364216
0.039364216
0.03936494
0.03936652
0.039368869
0.039372326
0.039376589
0.039379226
0.039369014
0.039301001
0.039001036
0.037043596
0.03740843
0.037497837
0.037512616
0.037510892
0.037506409
0.037502672
0.037500155
0.037498483
0.03749765
0.037497649
0.037498482
0.037500153
0.037502669
0.037506406
0.037510889
0.037512613
0.037497833
0.037408426
0.037043592
0.03504863
0.035486935
0.035603567
0.035626752
0.035627503
0.035623199
0.035619189
0.035616535
0.035614656
0.035613666
0.035613666
0.035614655
0.035616532
0.035619186
0.035623196
0.0356275
0.035626749
0.035603563
0.035486931
0.035048627
0.03300797
0.033531719
0.033686303
0.033723479
0.033728802
0.03372518
0.033720797
0.033717948
0.033716358
0.033715289
0.033715288
0.033716357
0.033717945
0.033720795
0.033725178
0.033728799
0.033723476
0.0336863
0.033531716
0.033007967
0.030886766
0.031508995
0.031717641
0.031777107
0.031790056
0.031787796
0.03178316
0.031779901
0.031778879
0.031777595
0.031777594
0.031778878
0.031779898
0.031783157
0.031787794
0.031790053
0.031777104
0.031717638
0.031508992
0.030886764
0.028655472
0.02939628
0.029684424
0.029780437
0.029805963
0.029806724
0.029801718
0.029797586
0.029796656
0.02979533
0.029795329
0.029796655
0.029797583
0.029801715
0.029806722
0.029805961
0.029780435
0.029684421
0.029396278
0.028655472
0.026227671
0.027119137
0.027525152
0.027681153
0.027729862
0.027735905
0.027730294
0.027724451
0.027723003
0.027721302
0.027721302
0.027723001
0.027724449
0.027730292
0.027735903
0.02772986
0.027681152
0.02752515
0.027119136
0.026227674
0.02345697
0.024547425
0.02512972
0.025383662
0.025472721
0.025490132
0.025484328
0.025475555
0.025472577
0.025469911
0.025469911
0.025472575
0.025475553
0.025484326
0.025490131
0.02547272
0.025383662
0.025129719
0.024547426
0.023456977
0.020159998
0.021481909
0.022322408
0.022731565
0.022894957
0.02293433
0.022928555
0.022913869
0.022908185
0.022902668
0.022902667
0.022908184
0.022913866
0.022928554
0.022934329
0.022894957
0.022731566
0.022322409
0.021481914
0.02016001
0.016387532
0.018048195
0.019266019
0.019922408
0.020203607
0.020277553
0.020268513
0.020240251
0.020221828
0.020209518
0.020209517
0.020221827
0.020240248
0.020268513
0.020277554
0.020203608
0.019922409
0.019266021
0.018048203
0.016387552
0.011692182
0.013893971
0.015625745
0.01667612
0.017179557
0.017333079
0.017328633
0.017279581
0.017240649
0.017216867
0.017216866
0.017240647
0.017279579
0.017328634
0.017333081
0.017179559
0.016676123
0.01562575
0.013893984
0.011692209
0.0067004765
0.0097238726
0.011858846
0.013250974
0.013989772
0.014246475
0.014248989
0.014168399
0.014096142
0.014053003
0.014053002
0.01409614
0.014168397
0.014248989
0.014246475
0.013989773
0.013250976
0.01185885
0.0097238828
0.0067005022
0.0028244065
0.0062819173
0.00865127
0.010230708
0.011110847
0.011436787
0.011438788
0.011322664
0.011212202
0.011146219
0.011146217
0.011212199
0.011322661
0.011438787
0.011436787
0.011110846
0.010230708
0.0086512726
0.0062819247
0.0028244226
0.00086197374
0.0037841767
0.0061070056
0.007721169
0.0086479649
0.0090039719
0.0090045203
0.0088648477
0.0087264068
0.0086429232
0.0086429209
0.008726403
0.0088648432
0.0090045176
0.0090039701
0.0086479626
0.0077211679
0.0061070064
0.0037841815
0.00086198044
0.00019840483
0.0021288196
0.0041718205
0.0056906955
0.0065891107
0.0069450309
0.0069485724
0.0068050036
0.006657386
0.0065672923
0.0065672898
0.0066573814
0.006804998
0.0069485682
0.0069450277
0.0065891075
0.0056906933
0.0041718204
0.0021288225
0.00019840684
3.6861263e-05
0.001112574
0.0027487639
0.0040819969
0.0048997515
0.0052350105
0.0052462738
0.0051163609
0.0049776233
0.0048918623
0.0048918596
0.0049776183
0.0051163545
0.0052462687
0.0052350063
0.004899748
0.0040819943
0.0027487632
0.0011125756
3.686172e-05
5.9142811e-06
0.00053945319
0.0017394848
0.002838716
0.0035443989
0.003845799
0.0038668074
0.0037612129
0.00364333
0.0035694711
0.0035694685
0.003643325
0.0037612065
0.003866802
0.0038457946
0.0035443954
0.0028387136
0.0017394841
0.00053945413
5.914366e-06
8.6368682e-07
0.00024389457
0.0010538795
0.0019078082
0.0024875293
0.0027472667
0.0027767765
0.0026988321
0.002606734
0.0025481507
0.0025481484
0.0026067294
0.0026988261
0.0027767715
0.0027472626
0.0024875264
0.0019078065
0.001053879
0.00024389505
8.6370066e-07
1.1889939e-07
0.00010366477
0.00061052876
0.0012366483
0.0016906733
0.0019052849
0.0019397982
0.0018873767
0.0018204851
0.0017771594
0.0017771575
0.001820481
0.0018873715
0.0019397938
0.0019052815
0.001690671
0.0012366472
0.00061052861
0.00010366503
1.1890142e-07
1.576316e-08
4.1765064e-05
0.00033836311
0.00077248471
0.0011116961
0.0012815445
0.0013168749
0.001284909
0.0012394268
0.0012092967
0.0012092952
0.0012394235
0.0012849048
0.0013168713
0.0012815418
0.0011116944
0.00077248408
0.00033836314
4.1765196e-05
1.576344e-08
2.0371261e-09
1.6058635e-05
0.00017968665
0.00046503638
0.00070697981
0.00083563268
0.00086821739
0.00085085697
0.00082178782
0.00080196896
0.00080196779
0.00082178528
0.00085085363
0.00086821459
0.00083563065
0.00070697863
0.00046503605
0.00017968674
1.6058699e-05
2.0371641e-09
2.5828385e-10
5.9232293e-06
9.162401e-05
0.00026997062
0.0004349025
0.00052816285
0.00055574628
0.00054774636
0.00053025235
0.00051787273
0.00051787187
0.00053025046
0.00054774385
0.00055574419
0.00052816138
0.00043490171
0.00026997047
9.1624091e-05
5.9232576e-06
2.5828897e-10
3.2227339e-11
2.1037441e-06
4.4957172e-05
0.00015128783
0.00025890928
0.00032364918
0.00034535751
0.00034270473
0.00033279773
0.00032543564
0.00032543503
0.00033279638
0.00034270294
0.00034535601
0.00032364816
0.00025890876
0.00015128777
4.4957231e-05
2.1037559e-06
3.2228036e-11
3.9740517e-12
7.2141905e-07
2.1269545e-05
8.192946e-05
0.00014926649
0.00019235348
0.0002083865
0.00020837638
0.0002031157
0.00019894159
0.00019894118
0.00020311477
0.00020837514
0.00020838547
0.00019235279
0.00014926615
8.1929439e-05
2.1269582e-05
7.2142371e-07
3.9741755e-12
5.1858048e-13
2.3933379e-07
9.7199451e-06
4.2926875e-05
8.3399909e-05
0.00011093289
0.00012212469
0.00012314237
0.00012054445
0.00011828758
0.00011828731
0.00012054384
0.00012314155
0.00012212401
0.00011093243
8.3399693e-05
4.2926869e-05
9.7199666e-06
2.3933552e-07
5.1872183e-13
1.9508584e-13
7.6930222e-08
4.2972791e-06
2.1785168e-05
4.5196214e-05
6.2115602e-05
6.9540498e-05
7.0745052e-05
6.957216e-05
6.8409677e-05
6.8409505e-05
6.9571773e-05
7.0744524e-05
6.9540058e-05
6.2115315e-05
4.5196082e-05
2.1785167e-05
4.2972905e-06
7.6930844e-08
1.9495117e-13
2.7008355e-13
2.3991199e-08
1.8405041e-06
1.0720014e-05
2.3774717e-05
3.3789448e-05
3.8491748e-05
3.9523405e-05
3.9057602e-05
3.8488714e-05
3.8488609e-05
3.9057364e-05
3.952308e-05
3.8491477e-05
3.3789274e-05
2.3774639e-05
1.0720014e-05
1.8405098e-06
2.3991417e-08
2.7027224e-13
2.042296e-13
7.2768713e-09
7.64557e-07
5.1198658e-06
1.2148951e-05
1.7867585e-05
2.0720731e-05
2.1480856e-05
2.1335075e-05
2.1071975e-05
2.1071913e-05
2.1334934e-05
2.1480664e-05
2.072057e-05
1.7867483e-05
1.2148907e-05
5.1198663e-06
7.645598e-07
7.2769748e-09
2.0440965e-13
7.353427e-14
2.1537133e-09
3.0839054e-07
2.3754183e-06
6.0351837e-06
9.1900369e-06
1.0853529e-05
1.1362553e-05
1.1343983e-05
1.1230116e-05
1.1230081e-05
1.1343902e-05
1.1362443e-05
1.0853437e-05
9.1899791e-06
6.0351596e-06
2.3754186e-06
3.0839191e-07
2.1537648e-09
7.3624887e-14
1.9031541e-14
6.2074883e-10
1.2091168e-07
1.071526e-06
2.9165624e-06
4.6003557e-06
5.5346356e-06
5.8523009e-06
5.8735644e-06
5.8283194e-06
5.8283004e-06
5.8735198e-06
5.8522398e-06
5.5345842e-06
4.600324e-06
2.9165496e-06
1.0715262e-06
1.2091235e-07
6.2077095e-10
1.9072715e-14
)
;

boundaryField
{
    Wall
    {
        type            zeroGradient;
    }
    frontAndBack
    {
        type            empty;
    }
    atmosphere
    {
        type            zeroGradient;
    }
}


// ************************************************************************* //
