/*--------------------------------*- C++ -*----------------------------------*\
| =========                 |                                                 |
| \\      /  F ield         | OpenFOAM: The Open Source CFD Toolbox           |
|  \\    /   O peration     | Version:  3.0.1                                 |
|   \\  /    A nd           | Web:      www.OpenFOAM.org                      |
|    \\/     M anipulation  |                                                 |
\*---------------------------------------------------------------------------*/
FoamFile
{
    version     2.0;
    format      ascii;
    class       volScalarField;
    location    "27";
    object      wCO2_l;
}
// * * * * * * * * * * * * * * * * * * * * * * * * * * * * * * * * * * * * * //

dimensions      [0 0 0 0 0 0 0];

internalField   nonuniform List<scalar> 
800
(
0.0035539376
0.0035541453
0.003554186
0.0035541916
0.0035541927
0.0035541936
0.0035541947
0.0035541957
0.0035541964
0.0035541968
0.0035541968
0.0035541964
0.0035541957
0.0035541947
0.0035541936
0.0035541927
0.0035541917
0.003554186
0.0035541454
0.0035539376
0.0035169994
0.0035189483
0.0035197557
0.0035199874
0.0035200106
0.003519967
0.0035199144
0.0035198724
0.0035198451
0.0035198319
0.0035198319
0.0035198451
0.0035198724
0.0035199144
0.003519967
0.0035200105
0.0035199873
0.0035197555
0.0035189481
0.003516999
0.0035822888
0.0035829632
0.0035830363
0.0035833094
0.0035833633
0.0035833298
0.0035832758
0.003583228
0.0035831949
0.0035831782
0.0035831782
0.0035831949
0.003583228
0.0035832759
0.0035833298
0.0035833633
0.0035833093
0.0035830362
0.003582963
0.0035822884
0.0037515304
0.0037477338
0.0037464376
0.0037466485
0.0037467138
0.0037467125
0.0037466836
0.00374665
0.0037466241
0.00374661
0.00374661
0.0037466242
0.0037466501
0.0037466838
0.0037467127
0.0037467139
0.0037466486
0.0037464377
0.0037477338
0.0037515304
0.0040356306
0.0040230595
0.0040200912
0.0040195284
0.0040195922
0.0040196405
0.0040196545
0.0040196471
0.0040196365
0.0040196284
0.0040196285
0.0040196367
0.0040196474
0.0040196549
0.0040196409
0.0040195926
0.0040195289
0.0040200917
0.00402306
0.0040356312
0.004451727
0.004424523
0.004419748
0.0044177254
0.0044178044
0.0044179252
0.0044180005
0.0044180287
0.0044180382
0.0044180376
0.0044180377
0.0044180385
0.0044180292
0.0044180011
0.0044179259
0.0044178053
0.0044177263
0.004419749
0.004424524
0.0044517282
0.005019915
0.0049708746
0.0049637227
0.004959958
0.0049601392
0.0049603803
0.0049605424
0.0049606154
0.0049606485
0.0049606553
0.0049606555
0.0049606489
0.0049606161
0.0049605434
0.0049603815
0.0049601405
0.0049599594
0.0049637242
0.0049708762
0.0050199168
0.005759718
0.0056820668
0.0056700843
0.0056647967
0.0056653207
0.0056657724
0.0056660565
0.005666182
0.0056662414
0.0056662545
0.0056662547
0.005666242
0.005666183
0.0056660578
0.005665774
0.0056653226
0.0056647987
0.0056700864
0.0056820689
0.0057597203
0.0066878412
0.0065762294
0.0065556804
0.0065495711
0.006549744
0.0065505988
0.0065510421
0.0065512246
0.0065513145
0.0065513321
0.0065513323
0.0065513153
0.0065512259
0.0065510438
0.0065506009
0.0065497463
0.0065495737
0.006555683
0.0065762321
0.0066878442
0.0078178088
0.0076670343
0.0076346571
0.0076289212
0.0076276307
0.0076277673
0.0076283812
0.0076286227
0.0076287573
0.0076287805
0.0076287809
0.0076287582
0.0076286242
0.0076283833
0.0076277698
0.0076276336
0.0076289243
0.0076346603
0.0076670376
0.0078178125
0.0091559803
0.0089628826
0.0089156846
0.0089120243
0.008907197
0.0089047677
0.0089055766
0.008905894
0.0089061258
0.0089061678
0.0089061682
0.0089061268
0.0089058956
0.0089055789
0.0089047705
0.0089072002
0.0089120278
0.0089156883
0.0089628866
0.0091559848
0.01069396
0.010457178
0.010396361
0.010397193
0.010381049
0.010374997
0.010376095
0.010376535
0.010377118
0.010377208
0.010377208
0.010377119
0.010376536
0.010376097
0.010375
0.010381052
0.010397197
0.010396365
0.010457183
0.010693966
0.012399568
0.01211995
0.012055094
0.012057638
0.012023639
0.012014504
0.012016145
0.012016837
0.012015204
0.01201544
0.01201544
0.012015205
0.012016838
0.012016147
0.012014507
0.012023643
0.012057642
0.012055099
0.012119955
0.012399574
0.014205805
0.013903137
0.013841417
0.013840227
0.013791604
0.013781387
0.013784031
0.013785277
0.013769027
0.013769778
0.013769779
0.013769028
0.013785278
0.013784032
0.01378139
0.013791608
0.013840231
0.013841422
0.013903142
0.01420581
0.015864784
0.015586991
0.015525395
0.015522969
0.015472324
0.015464311
0.015470628
0.015473552
0.015440405
0.01543596
0.015435961
0.015440405
0.015473552
0.015470629
0.015464313
0.015472326
0.015522972
0.015525398
0.015586995
0.015864788
0.017274288
0.017082096
0.0170215
0.01702162
0.016982973
0.016982145
0.016969803
0.016975385
0.016939383
0.016927816
0.016927816
0.016939383
0.016975385
0.016969803
0.016982146
0.016982975
0.017021621
0.017021502
0.017082098
0.01727429
0.018178978
0.018152771
0.018118999
0.018134539
0.01810659
0.018078431
0.018065296
0.018074258
0.018056494
0.018041436
0.018041436
0.018056494
0.018074258
0.018065296
0.018078431
0.01810659
0.018134539
0.018119001
0.018152773
0.01817898
0.018139911
0.018369616
0.018438551
0.018484821
0.018470127
0.018467248
0.018482555
0.018494096
0.018456311
0.018442422
0.018442422
0.018456311
0.018494096
0.018482555
0.018467248
0.018470127
0.018484821
0.018438551
0.018369616
0.018139914
0.016014945
0.016857279
0.017200957
0.017302302
0.017323651
0.017365955
0.017407074
0.01741883
0.017459096
0.017449467
0.017449467
0.017459096
0.01741883
0.017407074
0.017365955
0.017323651
0.017302301
0.017200956
0.01685728
0.016014949
0.011584085
0.012657972
0.01323017
0.013421943
0.013534841
0.013586748
0.01362403
0.01362971
0.013681475
0.013675664
0.013675664
0.013681475
0.013629711
0.013624031
0.013586748
0.013534841
0.013421943
0.013230171
0.012657976
0.011584095
0.0075843184
0.0088056083
0.0095630811
0.0098883696
0.010049028
0.010106839
0.010132473
0.010129125
0.010166979
0.01016181
0.01016181
0.01016698
0.010129126
0.010132474
0.010106841
0.01004903
0.0098883716
0.0095630844
0.0088056147
0.0075843332
0.0041891238
0.0056977572
0.0065817152
0.0070201615
0.0072152622
0.0072731972
0.0072805219
0.0072602556
0.0072703019
0.0072606163
0.0072606164
0.0072703024
0.0072602554
0.0072805253
0.0072731992
0.0072152637
0.0070201632
0.0065817181
0.0056977628
0.0041891379
0.0017929644
0.0034403869
0.0043995248
0.0049065728
0.0051287215
0.0051848797
0.0051707019
0.0051325357
0.0051169595
0.0051002985
0.0051002987
0.0051169604
0.005132537
0.0051707033
0.005184881
0.0051287221
0.0049065737
0.0043995266
0.0034403911
0.0017929734
0.00058067574
0.0019425581
0.0028571299
0.0033781773
0.0036152476
0.0036746259
0.003650839
0.003601024
0.0035677581
0.003545101
0.0035451009
0.0035677581
0.0036010242
0.0036508394
0.0036746263
0.0036152475
0.0033781774
0.0028571308
0.0019425609
0.00058067979
0.00014618375
0.0010294534
0.0018008812
0.0022839924
0.0025173824
0.0025810882
0.0025586345
0.0025081533
0.00246861
0.0024440379
0.0024440377
0.0024686096
0.0025081529
0.0025586342
0.0025810879
0.0025173817
0.0022839919
0.0018008816
0.001029455
0.0001461851
3.0212754e-05
0.00051227694
0.0011004002
0.0015119087
0.0017247499
0.0017897479
0.0017742787
0.0017306831
0.0016931424
0.001670265
0.0016702647
0.0016931418
0.0017306823
0.0017742779
0.0017897472
0.001724749
0.001511908
0.0011004002
0.00051227781
3.0213106e-05
5.4333692e-06
0.00023975877
0.00065096551
0.00097752055
0.0011591025
0.0012210174
0.0012135852
0.001180056
0.0011488578
0.0011297835
0.0011297832
0.0011488571
0.0011800551
0.0012135843
0.0012210166
0.0011591017
0.00097751991
0.00065096544
0.00023975925
5.4334446e-06
8.9112031e-07
0.0001060813
0.00037251789
0.00061622343
0.00076239178
0.00081753406
0.00081663488
0.00079315511
0.00076955158
0.00075493489
0.0007549346
0.00076955092
0.00079315421
0.00081663403
0.00081753328
0.00076239112
0.00061622296
0.00037251782
0.00010608154
8.9113451e-07
1.3766648e-07
4.46828e-05
0.00020621374
0.00037836522
0.00049008925
0.0005362842
0.00053956858
0.00052444775
0.00050785439
0.00049738662
0.00049738635
0.00050785381
0.00052444696
0.00053956785
0.00053628357
0.00049008876
0.00037836495
0.00020621374
4.4682917e-05
1.3766887e-07
2.0442437e-08
1.8040442e-05
0.00011050736
0.00022618173
0.00030765187
0.00034427826
0.00034956229
0.00034060004
0.00032963353
0.0003225501
0.00032254989
0.00032963306
0.0003405994
0.00034956172
0.00034427779
0.00030765156
0.0002261816
0.0001105074
1.8040502e-05
2.0442814e-08
2.9528625e-09
7.0209229e-06
5.7396382e-05
0.00013164011
0.0001885277
0.00021615774
0.0002218489
0.00021700595
0.000210146
0.0002055831
0.00020558293
0.00021014563
0.00021700546
0.00022184847
0.00021615742
0.00018852751
0.00013164007
5.7396428e-05
7.0209521e-06
2.9529195e-09
4.1772442e-10
2.6448608e-06
2.8932531e-05
7.4618479e-05
0.00011277242
0.00013269173
0.0001378451
0.00013552478
0.00013144851
0.00012863633
0.00012863621
0.00013144824
0.00013552442
0.0001378448
0.00013269151
0.00011277232
7.4618474e-05
2.893257e-05
2.6448741e-06
4.1773295e-10
5.8082269e-11
9.6732454e-07
1.417343e-05
4.1214623e-05
6.5858795e-05
7.9633252e-05
8.3827476e-05
8.2916985e-05
8.0613448e-05
7.8949527e-05
7.8949442e-05
8.0613256e-05
8.2916732e-05
8.3827266e-05
7.9633112e-05
6.585874e-05
4.1214634e-05
1.4173457e-05
9.6733029e-07
5.808353e-11
7.9564902e-12
3.4420137e-07
6.7557818e-06
2.2195189e-05
3.7560739e-05
4.6725772e-05
4.9886774e-05
4.9682197e-05
4.844578e-05
4.7498567e-05
4.7498509e-05
4.8445648e-05
4.9682024e-05
4.9886631e-05
4.6725682e-05
3.7560708e-05
2.2195203e-05
6.7557987e-06
3.4420376e-07
7.9566859e-12
1.0878357e-12
1.1933424e-07
3.1365265e-06
1.1660999e-05
2.0927722e-05
2.6810762e-05
2.9053083e-05
2.9148857e-05
2.8521274e-05
2.80019e-05
2.8001862e-05
2.8521187e-05
2.9148742e-05
2.9052989e-05
2.6810705e-05
2.0927706e-05
1.166101e-05
3.1365363e-06
1.1933519e-07
1.0879144e-12
2.0408187e-13
4.0354696e-08
1.4196919e-06
5.9806113e-06
1.1395977e-05
1.5047382e-05
1.6559779e-05
1.6745392e-05
1.6446956e-05
1.6172612e-05
1.6172587e-05
1.64469e-05
1.6745317e-05
1.6559719e-05
1.5047347e-05
1.1395968e-05
5.9806192e-06
1.4196973e-06
4.0355059e-08
2.0401141e-13
1.4839907e-13
1.332242e-08
6.2698641e-07
2.9960008e-06
6.0674185e-06
8.263021e-06
9.239562e-06
9.4201132e-06
9.2896799e-06
9.1502048e-06
9.1501892e-06
9.2896449e-06
9.4200664e-06
9.2395248e-06
8.263e-06
6.0674136e-06
2.9960059e-06
6.2698921e-07
1.3322556e-08
1.4848555e-13
1.2283141e-13
4.2996617e-09
2.7036267e-07
1.4667818e-06
3.1598136e-06
4.4410037e-06
5.0475848e-06
5.1900404e-06
5.1398709e-06
5.0717792e-06
5.0717699e-06
5.1398497e-06
5.1900121e-06
5.0475625e-06
4.4409913e-06
3.1598111e-06
1.4667848e-06
2.7036407e-07
4.2997197e-09
1.2295604e-13
4.9802117e-14
1.3593504e-09
1.1390756e-07
7.0217012e-07
1.6102917e-06
2.3368585e-06
2.7006428e-06
2.8011075e-06
2.7861804e-06
2.7543935e-06
2.754388e-06
2.7861679e-06
2.8010908e-06
2.7006297e-06
2.3368514e-06
1.6102904e-06
7.0217185e-07
1.1390825e-07
1.3593773e-09
4.9867411e-14
1.437905e-14
4.2059244e-10
4.692083e-08
3.2884387e-07
8.033597e-07
1.2043162e-06
1.415558e-06
1.4812914e-06
1.4800077e-06
1.4659239e-06
1.4659208e-06
1.4800005e-06
1.4812818e-06
1.4155506e-06
1.2043123e-06
8.0335904e-07
3.288448e-07
4.6921173e-08
4.2060435e-10
1.4410647e-14
)
;

boundaryField
{
    Wall
    {
        type            zeroGradient;
    }
    frontAndBack
    {
        type            empty;
    }
    atmosphere
    {
        type            zeroGradient;
    }
}


// ************************************************************************* //
