/*--------------------------------*- C++ -*----------------------------------*\
| =========                 |                                                 |
| \\      /  F ield         | OpenFOAM: The Open Source CFD Toolbox           |
|  \\    /   O peration     | Version:  3.0.1                                 |
|   \\  /    A nd           | Web:      www.OpenFOAM.org                      |
|    \\/     M anipulation  |                                                 |
\*---------------------------------------------------------------------------*/
FoamFile
{
    version     2.0;
    format      ascii;
    class       volScalarField;
    location    "27";
    object      wCO2_g;
}
// * * * * * * * * * * * * * * * * * * * * * * * * * * * * * * * * * * * * * //

dimensions      [0 0 0 0 0 0 0];

internalField   nonuniform List<scalar> 
800
(
0.013873506
0.013874196
0.013874321
0.013874355
0.013874375
0.013874392
0.013874405
0.013874414
0.01387442
0.013874423
0.013874423
0.01387442
0.013874414
0.013874405
0.013874392
0.013874375
0.013874355
0.013874321
0.013874196
0.013873506
0.013985847
0.013990004
0.01399075
0.013990783
0.013990681
0.013990596
0.013990546
0.013990521
0.013990511
0.013990507
0.013990507
0.013990511
0.013990521
0.013990546
0.013990596
0.013990681
0.013990783
0.01399075
0.013990004
0.013985846
0.01410672
0.014111714
0.01411382
0.014113896
0.014113745
0.014113626
0.014113565
0.014113544
0.01411354
0.014113541
0.014113541
0.01411354
0.014113544
0.014113565
0.014113626
0.014113745
0.014113896
0.01411382
0.014111714
0.01410672
0.014248928
0.014252789
0.014256162
0.014256276
0.014256091
0.014255966
0.014255919
0.01425592
0.014255935
0.014255946
0.014255946
0.014255935
0.01425592
0.014255919
0.014255966
0.01425609
0.014256276
0.014256162
0.014252789
0.014248928
0.01441635
0.014417712
0.014421919
0.01442252
0.014422264
0.014422122
0.014422087
0.014422112
0.014422147
0.014422171
0.014422171
0.014422147
0.014422112
0.014422087
0.014422122
0.014422264
0.01442252
0.014421919
0.014417712
0.01441635
0.014603479
0.014602543
0.014607122
0.01460865
0.014608248
0.014608043
0.014607992
0.014608027
0.014608074
0.014608106
0.014608106
0.014608074
0.014608027
0.014607992
0.014608043
0.014608248
0.01460865
0.014607122
0.014602543
0.014603479
0.014797089
0.014796335
0.014800491
0.014803121
0.014802471
0.014802128
0.014802014
0.014802027
0.014802067
0.0148021
0.0148021
0.014802067
0.014802027
0.014802014
0.014802128
0.014802471
0.014803121
0.014800491
0.014796335
0.014797089
0.014977786
0.014981834
0.014985048
0.014988662
0.01498769
0.01498711
0.014986865
0.014986812
0.01498682
0.014986841
0.014986841
0.01498682
0.014986812
0.014986865
0.01498711
0.01498769
0.014988662
0.014985048
0.014981834
0.014977786
0.015120625
0.015136575
0.015138734
0.015143001
0.015142463
0.015141584
0.015141126
0.015140954
0.0151409
0.015140896
0.015140896
0.0151409
0.015140953
0.015141126
0.015141583
0.015142462
0.015143001
0.015138734
0.015136575
0.015120624
0.015194747
0.015233882
0.01523518
0.01523967
0.015240927
0.015240768
0.015240008
0.015239661
0.015239513
0.015239468
0.015239468
0.015239513
0.015239661
0.015240007
0.015240768
0.015240926
0.015239669
0.01523518
0.015233881
0.015194746
0.015162643
0.015239942
0.015242637
0.015246895
0.01525225
0.015254492
0.015253332
0.015252757
0.015252472
0.01525237
0.01525237
0.015252471
0.015252756
0.015253331
0.015254491
0.015252249
0.015246894
0.015242636
0.015239941
0.015162641
0.014980778
0.015112102
0.01512281
0.015126223
0.01513908
0.015144807
0.015143171
0.01514232
0.015141885
0.015141705
0.015141705
0.015141884
0.01514232
0.01514317
0.015144806
0.015139079
0.015126221
0.015122809
0.015112101
0.014980776
0.014599967
0.014800528
0.014829712
0.014831344
0.014854326
0.014863399
0.014861266
0.014860079
0.014861751
0.014861393
0.014861393
0.014861751
0.014860078
0.014861265
0.014863398
0.014854324
0.014831342
0.01482971
0.014800526
0.014599964
0.013961469
0.014247342
0.014305876
0.014310133
0.014343455
0.014354862
0.014352361
0.014350935
0.014356771
0.014356196
0.014356196
0.01435677
0.014350934
0.01435236
0.014354861
0.014343453
0.014310131
0.014305874
0.01424734
0.013961466
0.013121641
0.013505846
0.013605602
0.013620208
0.013661889
0.013674066
0.013669899
0.013668012
0.013678532
0.013683369
0.013683368
0.013678532
0.013668011
0.013669898
0.013674064
0.013661886
0.013620205
0.013605599
0.013505842
0.013121637
0.011945056
0.01244068
0.012593466
0.012631552
0.012679425
0.012690179
0.01268407
0.012682029
0.012697368
0.012710088
0.012710088
0.012697367
0.012682028
0.012684068
0.012690177
0.012679423
0.012631549
0.012593462
0.012440677
0.011945052
0.010366475
0.010969708
0.011185322
0.011249499
0.011313855
0.011325823
0.011322345
0.011320672
0.011337566
0.011355156
0.011355156
0.011337565
0.011320671
0.011322344
0.011325821
0.011313852
0.011249497
0.011185319
0.010969705
0.010366473
0.0083737564
0.0090520029
0.0093279385
0.0094132466
0.0094952509
0.0095151229
0.0095181945
0.0095178355
0.0095428349
0.0095612
0.0095611998
0.0095428345
0.0095178345
0.0095181934
0.0095151215
0.0094952492
0.0094132446
0.0093279362
0.0090520009
0.0083737563
0.0061837484
0.0068387398
0.0071430277
0.0072381058
0.0073361633
0.007362831
0.0073710795
0.0073718538
0.0074028059
0.0074179368
0.0074179367
0.0074028057
0.0073718533
0.0073710789
0.0073628302
0.0073361622
0.0072381045
0.0071430263
0.006838739
0.0061837499
0.0041583443
0.0046790809
0.0049502496
0.0050420535
0.0051206058
0.0051462139
0.0051557402
0.0051570104
0.0051825654
0.0051915703
0.0051915703
0.0051825654
0.0051570104
0.0051557402
0.0051462137
0.0051206054
0.0050420531
0.0049502494
0.0046790816
0.0041583478
0.0025627091
0.0030198166
0.0032882854
0.0033963881
0.0034620321
0.0034849309
0.0034924114
0.0034923505
0.0035086737
0.0035129019
0.003512902
0.0035086739
0.0034923507
0.0034924114
0.0034849315
0.0034620325
0.0033963885
0.0032882863
0.0030198185
0.002562714
0.0013391371
0.0018297278
0.002101652
0.0022252734
0.0022830939
0.0023001137
0.0023017158
0.0022967852
0.0023021857
0.0023022416
0.0023022416
0.0023021858
0.0022967851
0.0023017169
0.0023001143
0.0022830943
0.0022252739
0.0021016528
0.0018297295
0.0013391415
0.00054303205
0.0010372219
0.0013120225
0.0014457378
0.0015015516
0.0015133239
0.0015074851
0.0014970826
0.0014939229
0.0014906616
0.0014906617
0.0014939232
0.001497083
0.0015074856
0.0015133243
0.0015015518
0.0014457381
0.001312023
0.0010372231
0.00054303476
0.00016666924
0.00054870402
0.00079693843
0.00092909119
0.00098480301
0.00099539932
0.00098651215
0.00097290533
0.00096454316
0.00095918879
0.00095918881
0.00096454324
0.00097290545
0.00098651232
0.00099539949
0.00098480299
0.00092909126
0.0007969387
0.00054870482
0.00016667041
3.9708712e-05
0.000271441
0.00046956406
0.00058741687
0.00064034153
0.00065170131
0.00064355311
0.00063021304
0.00062038794
0.00061453225
0.00061453222
0.00062038791
0.00063021299
0.00064355308
0.00065170129
0.00064034138
0.00058741677
0.00046956417
0.00027144145
3.9709085e-05
7.7414618e-06
0.00012564916
0.00026787204
0.00036383844
0.00041052517
0.00042244624
0.00041673355
0.00040572021
0.00039676775
0.00039149332
0.00039149327
0.00039676766
0.00040572007
0.00041673342
0.00042244609
0.00041052498
0.00036383828
0.00026787206
0.0001256494
7.7415538e-06
1.3067836e-06
5.4545953e-05
0.00014774065
0.00022008622
0.00025841031
0.00026989109
0.00026673999
0.00025867867
0.00025160255
0.00024740559
0.00024740553
0.00025160243
0.0002586785
0.00026673982
0.00026989091
0.00025841013
0.00022008608
0.00014774065
5.4546073e-05
1.3068022e-06
1.9992833e-07
2.2329919e-05
7.8716614e-05
0.00012973503
0.00015923041
0.00016935664
0.00016816438
0.00016279911
0.00015772738
0.00015467516
0.00015467511
0.00015772727
0.00016279895
0.00016816423
0.00016935648
0.00015923027
0.00012973493
7.8716604e-05
2.2329974e-05
1.9993164e-07
2.8609366e-08
8.6826149e-06
4.0516265e-05
7.4424028e-05
9.5856018e-05
0.00010412325
0.00010413833
0.00010085293
9.7482536e-05
9.5414181e-05
9.541414e-05
9.7482441e-05
0.00010085279
0.0001041382
0.00010412313
9.5855922e-05
7.4423971e-05
4.0516267e-05
8.68264e-06
2.8609888e-08
3.9058405e-09
3.2288135e-06
2.0159847e-05
4.1519982e-05
5.6304943e-05
6.2618643e-05
6.3219327e-05
6.1363462e-05
5.9261046e-05
5.7939317e-05
5.7939286e-05
5.9260973e-05
6.1363361e-05
6.3219232e-05
6.2618563e-05
5.6304886e-05
4.1519957e-05
2.0159855e-05
3.2288251e-06
3.9059163e-09
5.1484148e-10
1.1548116e-06
9.7076565e-06
2.2521674e-05
3.2248093e-05
3.679655e-05
3.7569989e-05
3.6608969e-05
3.5369266e-05
3.4566655e-05
3.4566633e-05
3.5369213e-05
3.6608897e-05
3.7569924e-05
3.6796499e-05
3.2248062e-05
2.2521666e-05
9.7076652e-06
1.1548167e-06
5.1485198e-10
6.5984361e-11
3.9892998e-07
4.5295282e-06
1.1879675e-05
1.8003643e-05
2.1114686e-05
2.1836018e-05
2.1388963e-05
2.069539e-05
2.022989e-05
2.0229875e-05
2.0695353e-05
2.1388914e-05
2.1835974e-05
2.1114655e-05
1.8003628e-05
1.1879674e-05
4.5295349e-06
3.9893211e-07
6.5985783e-11
8.2569455e-12
1.3351563e-07
2.0504037e-06
6.095711e-06
9.7972252e-06
1.1827676e-05
1.2404764e-05
1.2227733e-05
1.1859101e-05
1.1600375e-05
1.1600364e-05
1.1859076e-05
1.22277e-05
1.2404736e-05
1.1827658e-05
9.7972187e-06
6.0957133e-06
2.050408e-06
1.3351648e-07
8.2571339e-12
1.0115351e-12
4.3388191e-08
9.0150405e-07
3.0441763e-06
5.1975578e-06
6.4671337e-06
6.885611e-06
6.8361961e-06
6.6502582e-06
6.5121617e-06
6.512155e-06
6.6502424e-06
6.8361752e-06
6.8855937e-06
6.467123e-06
5.1975549e-06
3.0441787e-06
9.0150655e-07
4.3388511e-08
1.0115602e-12
1.2215656e-13
1.3712142e-08
3.8537033e-07
1.4803932e-06
2.6888568e-06
3.451839e-06
3.7340262e-06
3.7364196e-06
3.6477568e-06
3.5768922e-06
3.576888e-06
3.647747e-06
3.7364066e-06
3.7340158e-06
3.451833e-06
2.6888557e-06
1.480395e-06
3.8537168e-07
1.3712259e-08
1.2216245e-13
1.8325786e-14
4.219361e-09
1.6030974e-07
7.0144255e-07
1.3569337e-06
1.7988356e-06
1.9783295e-06
1.9962207e-06
1.95658e-06
1.9216125e-06
1.92161e-06
1.9565742e-06
1.9962129e-06
1.9783233e-06
1.7988322e-06
1.3569333e-06
7.0144375e-07
1.6031042e-07
4.2194017e-09
1.8317235e-14
1.0961801e-14
1.2653622e-09
6.4946686e-08
3.2401182e-07
6.6825397e-07
9.1546757e-07
1.0241374e-06
1.0424926e-06
1.0261473e-06
1.0095689e-06
1.0095674e-06
1.0261439e-06
1.0424881e-06
1.0241339e-06
9.1546575e-07
6.6825385e-07
3.2401254e-07
6.4947015e-08
1.265376e-09
1.0967547e-14
8.9168952e-15
3.7035337e-10
2.5643515e-08
1.4599031e-07
3.2128918e-07
4.5512957e-07
5.1813373e-07
5.3222374e-07
5.2622793e-07
5.1869103e-07
5.1869021e-07
5.2622602e-07
5.3222121e-07
5.1813179e-07
4.551286e-07
3.2128917e-07
1.4599072e-07
2.5643666e-08
3.7035862e-10
8.9262327e-15
3.3533011e-15
1.0602508e-10
9.8745405e-09
6.4196777e-08
1.5087132e-07
2.2111183e-07
2.5624719e-07
2.6567534e-07
2.6390273e-07
2.6062956e-07
2.606291e-07
2.639017e-07
2.6567397e-07
2.5624615e-07
2.2111133e-07
1.5087134e-07
6.4196989e-08
9.874609e-09
1.0602727e-10
3.3577142e-15
8.848155e-16
2.9664652e-11
3.7108472e-09
2.7564737e-08
6.922435e-08
1.0500909e-07
1.2391854e-07
1.2970221e-07
1.2945072e-07
1.2810176e-07
1.2810152e-07
1.2945018e-07
1.2970148e-07
1.23918e-07
1.0500885e-07
6.9224368e-08
2.7564844e-08
3.7108781e-09
2.9665533e-11
8.8674551e-16
)
;

boundaryField
{
    Wall
    {
        type            zeroGradient;
    }
    frontAndBack
    {
        type            empty;
    }
    atmosphere
    {
        type            zeroGradient;
    }
}


// ************************************************************************* //
