/*--------------------------------*- C++ -*----------------------------------*\
| =========                 |                                                 |
| \\      /  F ield         | OpenFOAM: The Open Source CFD Toolbox           |
|  \\    /   O peration     | Version:  3.0.1                                 |
|   \\  /    A nd           | Web:      www.OpenFOAM.org                      |
|    \\/     M anipulation  |                                                 |
\*---------------------------------------------------------------------------*/
FoamFile
{
    version     2.0;
    format      ascii;
    class       volScalarField;
    location    "27";
    object      weight1;
}
// * * * * * * * * * * * * * * * * * * * * * * * * * * * * * * * * * * * * * //

dimensions      [0 0 0 0 0 0 0];

internalField   nonuniform List<scalar> 
800
(
9.9896709e+12
9.9896701e+12
9.9896699e+12
9.9896699e+12
9.9896699e+12
9.9896699e+12
9.9896698e+12
9.9896698e+12
9.9896698e+12
9.9896698e+12
9.9896698e+12
9.9896698e+12
9.9896698e+12
9.9896698e+12
9.9896699e+12
9.9896699e+12
9.9896699e+12
9.9896699e+12
9.9896701e+12
9.9896709e+12
9.992713e+12
9.9924653e+12
9.9924284e+12
9.9924226e+12
9.9924216e+12
9.9924207e+12
9.9924194e+12
9.992418e+12
9.992417e+12
9.9924164e+12
9.9924164e+12
9.992417e+12
9.992418e+12
9.9924194e+12
9.9924207e+12
9.9924216e+12
9.9924226e+12
9.9924284e+12
9.9924653e+12
9.992713e+12
9.8884332e+12
9.8906372e+12
9.8914757e+12
9.891702e+12
9.8917176e+12
9.8916799e+12
9.8916387e+12
9.8916079e+12
9.8915889e+12
9.8915801e+12
9.8915801e+12
9.8915889e+12
9.8916079e+12
9.8916386e+12
9.8916798e+12
9.8917175e+12
9.8917018e+12
9.8914755e+12
9.890637e+12
9.8884328e+12
9.6990661e+12
9.7057799e+12
9.7079312e+12
9.7084554e+12
9.708487e+12
9.708388e+12
9.7082833e+12
9.7082054e+12
9.7081569e+12
9.7081344e+12
9.7081344e+12
9.7081569e+12
9.7082053e+12
9.7082831e+12
9.7083877e+12
9.7084867e+12
9.708455e+12
9.7079307e+12
9.7057793e+12
9.6990654e+12
9.4447358e+12
9.4573941e+12
9.461062e+12
9.4618979e+12
9.4619196e+12
9.4617325e+12
9.4615454e+12
9.4614076e+12
9.4613215e+12
9.4612813e+12
9.4612813e+12
9.4613213e+12
9.4614074e+12
9.4615451e+12
9.4617321e+12
9.4619191e+12
9.4618972e+12
9.4610612e+12
9.4573933e+12
9.4447347e+12
9.1403401e+12
9.1606584e+12
9.1661224e+12
9.1672885e+12
9.1672786e+12
9.1669845e+12
9.1667031e+12
9.1664979e+12
9.1663702e+12
9.1663107e+12
9.1663106e+12
9.1663701e+12
9.1664976e+12
9.1667026e+12
9.1669839e+12
9.1672779e+12
9.1672877e+12
9.1661215e+12
9.1606574e+12
9.1403388e+12
8.7956344e+12
8.8241927e+12
8.8313968e+12
8.8328546e+12
8.8327625e+12
8.8323349e+12
8.8319468e+12
8.8316677e+12
8.8314955e+12
8.8314153e+12
8.8314152e+12
8.8314953e+12
8.8316673e+12
8.8319462e+12
8.8323342e+12
8.8327616e+12
8.8328537e+12
8.8313959e+12
8.8241917e+12
8.7956331e+12
8.4227796e+12
8.4606669e+12
8.4697947e+12
8.4715281e+12
8.4713117e+12
8.4707381e+12
8.4702439e+12
8.4698945e+12
8.4696806e+12
8.469581e+12
8.4695809e+12
8.4696803e+12
8.4698941e+12
8.4702432e+12
8.4707374e+12
8.4713109e+12
8.4715272e+12
8.4697938e+12
8.460666e+12
8.4227785e+12
8.0275652e+12
8.0756581e+12
8.0870332e+12
8.089061e+12
8.088686e+12
8.0879673e+12
8.0873876e+12
8.0869854e+12
8.0867386e+12
8.0866241e+12
8.086624e+12
8.0867383e+12
8.0869849e+12
8.087387e+12
8.0879665e+12
8.0886852e+12
8.0890602e+12
8.0870324e+12
8.0756574e+12
8.0275643e+12
7.61493e+12
7.673607e+12
7.6876585e+12
7.6900612e+12
7.6894695e+12
7.6885874e+12
7.6879734e+12
7.6875512e+12
7.6872859e+12
7.6871638e+12
7.6871637e+12
7.6872856e+12
7.6875507e+12
7.6879728e+12
7.6885867e+12
7.6894688e+12
7.6900605e+12
7.6876578e+12
7.6736064e+12
7.6149293e+12
7.1883115e+12
7.2579743e+12
7.2751303e+12
7.2780457e+12
7.2772312e+12
7.2762145e+12
7.2756363e+12
7.2752374e+12
7.274966e+12
7.2748446e+12
7.2748445e+12
7.2749657e+12
7.2752369e+12
7.2756357e+12
7.2762139e+12
7.2772305e+12
7.2780451e+12
7.2751297e+12
7.2579738e+12
7.1883108e+12
6.7467295e+12
6.8284738e+12
6.8491447e+12
6.8527375e+12
6.8519734e+12
6.8510317e+12
6.8505675e+12
6.8502466e+12
6.8499606e+12
6.8498497e+12
6.8498496e+12
6.8499603e+12
6.8502461e+12
6.8505669e+12
6.8510311e+12
6.8519728e+12
6.8527369e+12
6.8491441e+12
6.8284731e+12
6.7467287e+12
6.2838335e+12
6.3793873e+12
6.4042467e+12
6.4087598e+12
6.4086994e+12
6.4081248e+12
6.4078648e+12
6.4077055e+12
6.4074101e+12
6.4073274e+12
6.4073272e+12
6.4074098e+12
6.407705e+12
6.4078642e+12
6.4081241e+12
6.4086987e+12
6.4087591e+12
6.4042459e+12
6.3793865e+12
6.2838325e+12
5.7881795e+12
5.8994924e+12
5.9296967e+12
5.9355033e+12
5.9369024e+12
5.9369244e+12
5.9369889e+12
5.9370917e+12
5.9372537e+12
5.9371738e+12
5.9371737e+12
5.9372533e+12
5.9370912e+12
5.9369883e+12
5.9369237e+12
5.9369017e+12
5.9355024e+12
5.9296958e+12
5.8994914e+12
5.7881782e+12
5.2770469e+12
5.4062801e+12
5.444671e+12
5.4531795e+12
5.4565283e+12
5.4571692e+12
5.4574864e+12
5.4578391e+12
5.4588857e+12
5.4592501e+12
5.45925e+12
5.4588854e+12
5.4578386e+12
5.4574857e+12
5.4571685e+12
5.4565275e+12
5.4531786e+12
5.4446699e+12
5.4062789e+12
5.2770455e+12
4.6941232e+12
4.8460335e+12
4.8956623e+12
4.9086066e+12
4.9143933e+12
4.9156775e+12
4.9169756e+12
4.9177419e+12
4.9204477e+12
4.9218764e+12
4.9218763e+12
4.9204474e+12
4.9177414e+12
4.916975e+12
4.9156768e+12
4.9143924e+12
4.9086056e+12
4.8956611e+12
4.8460322e+12
4.6941219e+12
3.9945393e+12
4.1662184e+12
4.2275517e+12
4.2442799e+12
4.2540013e+12
4.2577039e+12
4.2614573e+12
4.262922e+12
4.2674703e+12
4.2696667e+12
4.2696666e+12
4.2674701e+12
4.2629215e+12
4.2614567e+12
4.2577031e+12
4.2540003e+12
4.2442788e+12
4.2275505e+12
4.1662172e+12
3.9945384e+12
3.2124678e+12
3.3879597e+12
3.4578497e+12
3.4776191e+12
3.4901523e+12
3.497193e+12
3.5033e+12
3.5053523e+12
3.5135498e+12
3.5153898e+12
3.5153897e+12
3.5135497e+12
3.505352e+12
3.5032996e+12
3.4971924e+12
3.4901515e+12
3.4776182e+12
3.4578488e+12
3.3879588e+12
3.2124677e+12
2.4570777e+12
2.6207672e+12
2.6990644e+12
2.7246779e+12
2.7418436e+12
2.7511235e+12
2.7579201e+12
2.7599048e+12
2.7685456e+12
2.7692852e+12
2.7692852e+12
2.7685455e+12
2.7599047e+12
2.7579199e+12
2.7511232e+12
2.7418432e+12
2.7246773e+12
2.6990639e+12
2.620767e+12
2.4570785e+12
0
0
0
0
0
0
0
0
0
0
0
0
0
0
0
0
0
0
0
0
0
0
0
0
0
0
0
0
0
0
0
0
0
0
0
0
0
0
0
0
0
0
0
0
0
0
0
0
0
0
0
0
0
0
0
0
0
0
0
0
0
0
0
0
0
0
0
0
0
0
0
0
0
0
0
0
0
0
0
0
0
0
0
0
0
0
0
0
0
0
0
0
0
0
0
0
0
0
0
0
0
0
0
0
0
0
0
0
0
0
0
0
0
0
0
0
0
0
0
0
0
0
0
0
0
0
0
0
0
0
0
0
0
0
0
0
0
0
0
0
0
0
0
0
0
0
0
0
0
0
0
0
0
0
0
0
0
0
0
0
0
0
0
0
0
0
0
0
0
0
0
0
0
0
0
0
0
0
0
0
0
0
0
0
0
0
0
0
0
0
0
0
0
0
0
0
0
0
0
0
0
0
0
0
0
0
0
0
0
0
0
0
0
0
0
0
0
0
0
0
0
0
0
0
0
0
0
0
0
0
0
0
0
0
0
0
0
0
0
0
0
0
0
0
0
0
0
0
0
0
0
0
0
0
0
0
0
0
0
0
0
0
0
0
0
0
0
0
0
0
0
0
0
0
0
0
0
0
0
0
0
0
0
0
0
0
0
0
0
0
0
0
0
0
0
0
0
0
0
0
0
0
0
0
0
0
0
0
0
0
0
0
0
0
0
0
0
0
0
0
0
0
0
0
0
0
0
0
0
0
0
0
0
0
0
0
0
0
0
0
0
0
0
0
0
0
0
0
0
0
0
0
0
0
0
0
0
0
0
0
0
0
0
0
0
0
0
0
0
0
0
0
0
0
0
0
0
0
0
0
0
0
0
0
0
0
0
0
0
0
0
0
0
0
0
0
0
0
0
0
0
0
0
0
0
0
0
0
0
0
0
0
0
0
0
0
0
0
0
0
)
;

boundaryField
{
    Wall
    {
        type            zeroGradient;
    }
    frontAndBack
    {
        type            empty;
    }
    atmosphere
    {
        type            zeroGradient;
    }
}


// ************************************************************************* //
