/*--------------------------------*- C++ -*----------------------------------*\
| =========                 |                                                 |
| \\      /  F ield         | OpenFOAM: The Open Source CFD Toolbox           |
|  \\    /   O peration     | Version:  3.0.1                                 |
|   \\  /    A nd           | Web:      www.OpenFOAM.org                      |
|    \\/     M anipulation  |                                                 |
\*---------------------------------------------------------------------------*/
FoamFile
{
    version     2.0;
    format      ascii;
    class       volScalarField;
    location    "27";
    object      weight0;
}
// * * * * * * * * * * * * * * * * * * * * * * * * * * * * * * * * * * * * * //

dimensions      [0 0 0 0 0 0 0];

internalField   nonuniform List<scalar> 
800
(
1.032913e+10
1.0329881e+10
1.0330066e+10
1.0330109e+10
1.0330129e+10
1.0330145e+10
1.0330158e+10
1.0330169e+10
1.0330176e+10
1.033018e+10
1.033018e+10
1.0330176e+10
1.0330169e+10
1.0330158e+10
1.0330145e+10
1.0330129e+10
1.0330109e+10
1.0330066e+10
1.0329881e+10
1.032913e+10
7.2870154e+09
7.5346961e+09
7.571551e+09
7.577447e+09
7.5783678e+09
7.5793034e+09
7.5806265e+09
7.5819712e+09
7.5830045e+09
7.5835557e+09
7.5835555e+09
7.5830042e+09
7.5819707e+09
7.5806259e+09
7.5793026e+09
7.578367e+09
7.5774464e+09
7.5715503e+09
7.5346954e+09
7.2870124e+09
6.2179e+09
6.4957846e+09
6.5810037e+09
6.593869e+09
6.598569e+09
6.6019295e+09
6.604924e+09
6.6074055e+09
6.6091529e+09
6.6100524e+09
6.610052e+09
6.6091525e+09
6.6074049e+09
6.604923e+09
6.6019282e+09
6.598568e+09
6.5938683e+09
6.581003e+09
6.4957837e+09
6.2178967e+09
5.4023298e+09
5.7057749e+09
5.8172058e+09
5.8348861e+09
5.8421696e+09
5.8467138e+09
5.8501798e+09
5.8528221e+09
5.8546153e+09
5.8555246e+09
5.855524e+09
5.8546143e+09
5.8528206e+09
5.8501777e+09
5.8467109e+09
5.8421666e+09
5.8348829e+09
5.8172023e+09
5.7057707e+09
5.4023223e+09
2.952756e+09
3.4072402e+09
3.5443442e+09
3.5650399e+09
3.5752934e+09
3.5804167e+09
3.5836046e+09
3.5858027e+09
3.5872442e+09
3.587969e+09
3.5879681e+09
3.5872419e+09
3.5857987e+09
3.583599e+09
3.5804095e+09
3.5752852e+09
3.5650305e+09
3.5443339e+09
3.4072288e+09
2.9527394e+09
5047511.9
1952015.4
1510910.2
1484248.2
1446633.1
1430487.7
1422647.7
1418034
1415203.9
1413804
1413808.2
1415215
1418053.2
1422674.2
1430521.2
1446671.5
1484291.8
1510956.4
1952073
5047652.7
4.1393822e+08
3.1741801e+08
3.0083554e+08
3.0214525e+08
3.0023509e+08
2.9932805e+08
2.9889087e+08
2.9864158e+08
2.9849761e+08
2.9842658e+08
2.9842677e+08
2.9849823e+08
2.9864256e+08
2.988922e+08
2.9932968e+08
3.0023692e+08
3.0214723e+08
3.0083751e+08
3.1742002e+08
4.1394113e+08
3.2523932e+09
2.8182797e+09
2.73545e+09
2.7518374e+09
2.7402295e+09
2.7330061e+09
2.7288039e+09
2.7261735e+09
2.724638e+09
2.7238681e+09
2.7238691e+09
2.724641e+09
2.7261784e+09
2.7288104e+09
2.7330137e+09
2.7402377e+09
2.7518462e+09
2.735458e+09
2.8182872e+09
3.2524034e+09
1.1580893e+10
1.0717989e+10
1.0499626e+10
1.0560747e+10
1.0573909e+10
1.0544126e+10
1.0523564e+10
1.0510186e+10
1.0502343e+10
1.0498355e+10
1.0498358e+10
1.050235e+10
1.0510198e+10
1.052358e+10
1.0544144e+10
1.0573927e+10
1.0560767e+10
1.0499643e+10
1.0718005e+10
1.1580916e+10
2.6905318e+10
2.6077866e+10
2.5700421e+10
2.5854288e+10
2.5987237e+10
2.5991202e+10
2.5928305e+10
2.5887393e+10
2.586362e+10
2.585131e+10
2.5851314e+10
2.5863633e+10
2.5887414e+10
2.5928334e+10
2.5991234e+10
2.598727e+10
2.5854328e+10
2.5700453e+10
2.6077899e+10
2.6905372e+10
4.9928284e+10
4.9667403e+10
4.9371343e+10
4.9734788e+10
5.0092579e+10
5.0176523e+10
5.00331e+10
4.9939857e+10
4.9886708e+10
4.9858481e+10
4.9858487e+10
4.9886729e+10
4.993989e+10
5.0033152e+10
5.0176583e+10
5.0092646e+10
4.9734873e+10
4.9371415e+10
4.9667482e+10
4.9928409e+10
8.3693833e+10
8.3951575e+10
8.4367946e+10
8.5209772e+10
8.5731478e+10
8.5771267e+10
8.5493929e+10
8.5310274e+10
8.5209672e+10
8.515379e+10
8.5153799e+10
8.5209707e+10
8.5310326e+10
8.549402e+10
8.5771377e+10
8.5731608e+10
8.520994e+10
8.4368092e+10
8.3951743e+10
8.3694084e+10
1.3463209e+11
1.3497208e+11
1.3694295e+11
1.3869502e+11
1.3904528e+11
1.3883643e+11
1.3834362e+11
1.3800091e+11
1.3786704e+11
1.3776071e+11
1.3776072e+11
1.3786709e+11
1.3800099e+11
1.3834377e+11
1.3883662e+11
1.3904551e+11
1.3869531e+11
1.3694321e+11
1.3497239e+11
1.3463253e+11
2.1190552e+11
2.1210591e+11
2.1663506e+11
2.2010142e+11
2.2000508e+11
2.1942272e+11
2.1858586e+11
2.1797338e+11
2.1737465e+11
2.1719608e+11
2.1719609e+11
2.1737471e+11
2.1797348e+11
2.1858606e+11
2.19423e+11
2.2000543e+11
2.2010188e+11
2.1663548e+11
2.1210642e+11
2.1190621e+11
2.9665167e+11
2.9673603e+11
3.0418505e+11
3.0977573e+11
3.0947794e+11
3.0864055e+11
3.0745705e+11
3.0652141e+11
3.0505137e+11
3.0438478e+11
3.0438478e+11
3.0505143e+11
3.065215e+11
3.0745729e+11
3.086409e+11
3.0947839e+11
3.0977632e+11
3.041856e+11
2.9673671e+11
2.9665256e+11
4.3903593e+11
4.3737221e+11
4.4945772e+11
4.583156e+11
4.5848383e+11
4.5756804e+11
4.5531243e+11
4.5375383e+11
4.5059178e+11
4.4879315e+11
4.4879314e+11
4.5059183e+11
4.5375389e+11
4.5531269e+11
4.5756846e+11
4.5848439e+11
4.5831635e+11
4.4945843e+11
4.3737309e+11
4.3903703e+11
6.724019e+11
6.7663543e+11
6.9985129e+11
7.170386e+11
7.1812376e+11
7.159759e+11
7.1112239e+11
7.0841204e+11
7.0315152e+11
7.0045111e+11
7.0045106e+11
7.0315151e+11
7.0841202e+11
7.1112263e+11
7.1597636e+11
7.1812441e+11
7.1703948e+11
6.9985214e+11
6.7663648e+11
6.7240312e+11
9.4466399e+11
9.786992e+11
1.0265003e+12
1.0596648e+12
1.065937e+12
1.0625111e+12
1.0549746e+12
1.0508255e+12
1.0416318e+12
1.039021e+12
1.0390209e+12
1.0416317e+12
1.0508253e+12
1.0549748e+12
1.0625115e+12
1.0659376e+12
1.0596656e+12
1.0265011e+12
9.7870025e+11
9.4466525e+11
1.1198418e+12
1.2119248e+12
1.2996483e+12
1.3568267e+12
1.372449e+12
1.3706347e+12
1.3619585e+12
1.3563835e+12
1.3456319e+12
1.3435389e+12
1.3435387e+12
1.3456317e+12
1.3563833e+12
1.3619586e+12
1.370635e+12
1.3724495e+12
1.3568273e+12
1.2996489e+12
1.2119258e+12
1.1198432e+12
0
0
0
0
0
0
0
0
0
0
0
0
0
0
0
0
0
0
0
0
0
0
0
0
0
0
0
0
0
0
0
0
0
0
0
0
0
0
0
0
0
0
0
0
0
0
0
0
0
0
0
0
0
0
0
0
0
0
0
0
0
0
0
0
0
0
0
0
0
0
0
0
0
0
0
0
0
0
0
0
0
0
0
0
0
0
0
0
0
0
0
0
0
0
0
0
0
0
0
0
0
0
0
0
0
0
0
0
0
0
0
0
0
0
0
0
0
0
0
0
0
0
0
0
0
0
0
0
0
0
0
0
0
0
0
0
0
0
0
0
0
0
0
0
0
0
0
0
0
0
0
0
0
0
0
0
0
0
0
0
0
0
0
0
0
0
0
0
0
0
0
0
0
0
0
0
0
0
0
0
0
0
0
0
0
0
0
0
0
0
0
0
0
0
0
0
0
0
0
0
0
0
0
0
0
0
0
0
0
0
0
0
0
0
0
0
0
0
0
0
0
0
0
0
0
0
0
0
0
0
0
0
0
0
0
0
0
0
0
0
0
0
0
0
0
0
0
0
0
0
0
0
0
0
0
0
0
0
0
0
0
0
0
0
0
0
0
0
0
0
0
0
0
0
0
0
0
0
0
0
0
0
0
0
0
0
0
0
0
0
0
0
0
0
0
0
0
0
0
0
0
0
0
0
0
0
0
0
0
0
0
0
0
0
0
0
0
0
0
0
0
0
0
0
0
0
0
0
0
0
0
0
0
0
0
0
0
0
0
0
0
0
0
0
0
0
0
0
0
0
0
0
0
0
0
0
0
0
0
0
0
0
0
0
0
0
0
0
0
0
0
0
0
0
0
0
0
0
0
0
0
0
0
0
0
0
0
0
0
0
0
0
0
0
0
0
0
0
0
0
0
0
0
0
0
0
0
0
0
0
0
0
0
0
0
0
0
0
0
0
)
;

boundaryField
{
    Wall
    {
        type            zeroGradient;
    }
    frontAndBack
    {
        type            empty;
    }
    atmosphere
    {
        type            zeroGradient;
    }
}


// ************************************************************************* //
