/*--------------------------------*- C++ -*----------------------------------*\
| =========                 |                                                 |
| \\      /  F ield         | OpenFOAM: The Open Source CFD Toolbox           |
|  \\    /   O peration     | Version:  3.0.1                                 |
|   \\  /    A nd           | Web:      www.OpenFOAM.org                      |
|    \\/     M anipulation  |                                                 |
\*---------------------------------------------------------------------------*/
FoamFile
{
    version     2.0;
    format      ascii;
    class       volScalarField;
    location    "27";
    object      XOH;
}
// * * * * * * * * * * * * * * * * * * * * * * * * * * * * * * * * * * * * * //

dimensions      [0 0 0 0 0 0 0];

internalField   nonuniform List<scalar> 
800
(
0.16025664
0.16026992
0.16027201
0.16027228
0.16027235
0.16027241
0.16027247
0.16027253
0.16027257
0.16027259
0.16027259
0.16027257
0.16027253
0.16027247
0.16027241
0.16027235
0.16027228
0.16027201
0.16026992
0.16025664
0.15411776
0.15432861
0.15437262
0.15438109
0.15438142
0.15438056
0.15438001
0.15437986
0.15437991
0.15437996
0.15437997
0.1543799
0.15437986
0.15438001
0.15438056
0.15438141
0.15438109
0.15437262
0.1543286
0.15411774
0.14863141
0.14896297
0.14904932
0.14906791
0.14907025
0.14906947
0.14906876
0.14906854
0.14906859
0.14906867
0.14906867
0.14906859
0.14906853
0.14906875
0.14906947
0.14907025
0.14906791
0.14904931
0.14896296
0.1486314
0.14374202
0.14417973
0.14430002
0.14432614
0.1443298
0.14432888
0.14432793
0.14432757
0.14432758
0.14432767
0.14432767
0.14432758
0.14432757
0.14432793
0.14432887
0.14432979
0.14432613
0.14430001
0.14417972
0.143742
0.13937797
0.13991077
0.14006176
0.14009416
0.14009846
0.14009701
0.14009564
0.14009501
0.14009491
0.14009495
0.14009495
0.14009491
0.14009501
0.14009564
0.140097
0.14009845
0.14009416
0.14006175
0.13991076
0.13937796
0.13543452
0.13605685
0.13623945
0.13627821
0.13628279
0.13628051
0.13627854
0.13627751
0.13627722
0.13627718
0.13627718
0.13627722
0.13627751
0.13627854
0.1362805
0.13628279
0.1362782
0.13623945
0.13605684
0.13543451
0.13177561
0.13249325
0.13270926
0.1327553
0.13276013
0.13275684
0.13275415
0.13275263
0.13275211
0.13275196
0.13275196
0.13275211
0.13275263
0.13275414
0.13275683
0.13276013
0.1327553
0.13270926
0.13249325
0.1317756
0.12823553
0.12906731
0.12931912
0.12937423
0.12937941
0.12937509
0.12937167
0.12936966
0.12936891
0.12936865
0.12936865
0.12936891
0.12936966
0.12937166
0.12937509
0.12937941
0.12937423
0.12931912
0.1290673
0.12823553
0.1246161
0.1255943
0.12588651
0.1259535
0.12595982
0.1259545
0.12595052
0.12594816
0.12594726
0.12594692
0.12594692
0.12594726
0.12594816
0.12595052
0.12595449
0.12595982
0.1259535
0.12588651
0.1255943
0.1246161
0.12068228
0.12185302
0.12219439
0.12227714
0.12228616
0.12228069
0.12227679
0.12227447
0.12227358
0.12227326
0.12227326
0.12227358
0.12227446
0.12227679
0.12228069
0.12228616
0.12227714
0.12219439
0.12185302
0.12068228
0.11615232
0.11757494
0.11798055
0.11808429
0.1180997
0.11809636
0.11809384
0.11809236
0.11809177
0.11809165
0.11809165
0.11809177
0.11809236
0.11809384
0.11809636
0.1180997
0.11808429
0.11798055
0.11757495
0.11615232
0.11068605
0.11242882
0.11292309
0.11305527
0.11308203
0.11308441
0.11308545
0.11308628
0.11308637
0.11308679
0.11308679
0.11308637
0.11308628
0.11308544
0.11308441
0.11308203
0.11305527
0.1129231
0.11242882
0.11068605
0.10387756
0.10601471
0.10662701
0.10679455
0.10684123
0.10685389
0.10686166
0.10686786
0.10687363
0.10687571
0.10687571
0.10687363
0.10686785
0.10686166
0.10685389
0.10684123
0.10679455
0.10662702
0.10601471
0.10387755
0.095258237
0.097860536
0.098615976
0.098828296
0.098907468
0.098935383
0.098954439
0.098969568
0.098994765
0.098998336
0.098998335
0.098994761
0.098969563
0.098954434
0.09893538
0.098907465
0.098828295
0.098615974
0.097860532
0.095258227
0.084465497
0.087561667
0.088487577
0.088747416
0.08886812
0.088916689
0.088958328
0.088986087
0.089051013
0.089057686
0.089057685
0.08905101
0.088986082
0.088958323
0.088916685
0.088868115
0.088747412
0.088487571
0.087561658
0.084465485
0.071227162
0.074772236
0.075907715
0.076201784
0.076360119
0.076441087
0.076572487
0.076613371
0.076727258
0.076738277
0.076738276
0.076727256
0.076613367
0.076572482
0.076441082
0.076360113
0.076201777
0.075907706
0.074772226
0.071227153
0.055412684
0.05929844
0.060684145
0.060972016
0.06114389
0.061404515
0.061637651
0.061688284
0.061848207
0.061865752
0.061865752
0.061848206
0.061688281
0.061637648
0.061404511
0.061143884
0.060972009
0.060684137
0.059298431
0.055412681
0.036730346
0.041330602
0.042979011
0.043197549
0.043354217
0.043694372
0.043934772
0.04398222
0.044535509
0.044554861
0.044554861
0.044535508
0.043982219
0.043934769
0.043694368
0.043354212
0.043197543
0.042979004
0.041330596
0.036730347
0.015686838
0.020382628
0.022405058
0.022512338
0.023615368
0.023831435
0.023972491
0.024000104
0.024416283
0.02442808
0.02442808
0.024416282
0.024000104
0.023972489
0.023831433
0.023615364
0.022512334
0.022405054
0.020382626
0.015686841
1e-150
1e-150
1e-150
1e-150
1e-150
1e-150
1e-150
1e-150
1e-150
1e-150
1e-150
1e-150
1e-150
1e-150
1e-150
1e-150
1e-150
1e-150
1e-150
1e-150
1e-150
1e-150
1e-150
1e-150
1e-150
1e-150
1e-150
1e-150
1e-150
1e-150
1e-150
1e-150
1e-150
1e-150
1e-150
1e-150
1e-150
1e-150
1e-150
1e-150
1e-150
1e-150
1e-150
1e-150
1e-150
1e-150
1e-150
1e-150
1e-150
1e-150
1e-150
1e-150
1e-150
1e-150
1e-150
1e-150
1e-150
1e-150
1e-150
1e-150
1e-150
1e-150
1e-150
1e-150
1e-150
1e-150
1e-150
1e-150
1e-150
1e-150
1e-150
1e-150
1e-150
1e-150
1e-150
1e-150
1e-150
1e-150
1e-150
1e-150
1e-150
1e-150
1e-150
1e-150
1e-150
1e-150
1e-150
1e-150
1e-150
1e-150
1e-150
1e-150
1e-150
1e-150
1e-150
1e-150
1e-150
1e-150
1e-150
1e-150
1e-150
1e-150
1e-150
1e-150
1e-150
1e-150
1e-150
1e-150
1e-150
1e-150
1e-150
1e-150
1e-150
1e-150
1e-150
1e-150
1e-150
1e-150
1e-150
1e-150
1e-150
1e-150
1e-150
1e-150
1e-150
1e-150
1e-150
1e-150
1e-150
1e-150
1e-150
1e-150
1e-150
1e-150
1e-150
1e-150
1e-150
1e-150
1e-150
1e-150
1e-150
1e-150
1e-150
1e-150
1e-150
1e-150
1e-150
1e-150
1e-150
1e-150
1e-150
1e-150
1e-150
1e-150
1e-150
1e-150
1e-150
1e-150
1e-150
1e-150
1e-150
1e-150
1e-150
1e-150
1e-150
1e-150
1e-150
1e-150
1e-150
1e-150
1e-150
1e-150
1e-150
1e-150
1e-150
1e-150
1e-150
1e-150
1e-150
1e-150
1e-150
1e-150
1e-150
1e-150
1e-150
1e-150
1e-150
1e-150
1e-150
1e-150
1e-150
1e-150
1e-150
1e-150
1e-150
1e-150
1e-150
1e-150
1e-150
1e-150
1e-150
1e-150
1e-150
1e-150
1e-150
1e-150
1e-150
1e-150
1e-150
1e-150
1e-150
1e-150
1e-150
1e-150
1e-150
1e-150
1e-150
1e-150
1e-150
1e-150
1e-150
1e-150
1e-150
1e-150
1e-150
1e-150
1e-150
1e-150
1e-150
1e-150
1e-150
1e-150
1e-150
1e-150
1e-150
1e-150
1e-150
1e-150
1e-150
1e-150
1e-150
1e-150
1e-150
1e-150
1e-150
1e-150
1e-150
1e-150
1e-150
1e-150
1e-150
1e-150
1e-150
1e-150
1e-150
1e-150
1e-150
1e-150
1e-150
1e-150
1e-150
1e-150
1e-150
1e-150
1e-150
1e-150
1e-150
1e-150
1e-150
1e-150
1e-150
1e-150
1e-150
1e-150
1e-150
1e-150
1e-150
1e-150
1e-150
1e-150
1e-150
1e-150
1e-150
1e-150
1e-150
1e-150
1e-150
1e-150
1e-150
1e-150
1e-150
1e-150
1e-150
1e-150
1e-150
1e-150
1e-150
1e-150
1e-150
1e-150
1e-150
1e-150
1e-150
1e-150
1e-150
1e-150
1e-150
1e-150
1e-150
1e-150
1e-150
1e-150
1e-150
1e-150
1e-150
1e-150
1e-150
1e-150
1e-150
1e-150
1e-150
1e-150
1e-150
1e-150
1e-150
1e-150
1e-150
1e-150
1e-150
1e-150
1e-150
1e-150
1e-150
1e-150
1e-150
1e-150
1e-150
1e-150
1e-150
1e-150
1e-150
1e-150
1e-150
1e-150
1e-150
1e-150
1e-150
1e-150
1e-150
1e-150
1e-150
1e-150
1e-150
1e-150
1e-150
1e-150
1e-150
1e-150
1e-150
1e-150
1e-150
1e-150
1e-150
1e-150
1e-150
1e-150
1e-150
1e-150
1e-150
1e-150
1e-150
1e-150
1e-150
1e-150
1e-150
1e-150
1e-150
1e-150
1e-150
1e-150
1e-150
1e-150
1e-150
1e-150
1e-150
1e-150
1e-150
1e-150
1e-150
1e-150
1e-150
1e-150
1e-150
1e-150
1e-150
1e-150
1e-150
1e-150
1e-150
1e-150
1e-150
1e-150
1e-150
1e-150
1e-150
1e-150
1e-150
1e-150
1e-150
1e-150
1e-150
1e-150
1e-150
1e-150
1e-150
1e-150
1e-150
1e-150
1e-150
1e-150
)
;

boundaryField
{
    Wall
    {
        type            zeroGradient;
    }
    frontAndBack
    {
        type            empty;
    }
    atmosphere
    {
        type            zeroGradient;
    }
}


// ************************************************************************* //
