/*--------------------------------*- C++ -*----------------------------------*\
| =========                 |                                                 |
| \\      /  F ield         | OpenFOAM: The Open Source CFD Toolbox           |
|  \\    /   O peration     | Version:  3.0.1                                 |
|   \\  /    A nd           | Web:      www.OpenFOAM.org                      |
|    \\/     M anipulation  |                                                 |
\*---------------------------------------------------------------------------*/
FoamFile
{
    version     2.0;
    format      ascii;
    class       volScalarField;
    location    "27";
    object      XW;
}
// * * * * * * * * * * * * * * * * * * * * * * * * * * * * * * * * * * * * * //

dimensions      [0 0 0 0 0 0 0];

internalField   nonuniform List<scalar> 
800
(
0.6536872
0.65371591
0.65372036
0.65372093
0.65372107
0.65372119
0.65372132
0.65372144
0.65372153
0.65372157
0.65372157
0.65372153
0.65372144
0.65372132
0.65372119
0.65372107
0.65372093
0.65372037
0.65371591
0.6536872
0.63884129
0.63934839
0.63945319
0.63947366
0.63947481
0.63947309
0.63947204
0.63947187
0.63947208
0.63947228
0.63947228
0.63947208
0.63947187
0.63947204
0.63947309
0.6394748
0.63947365
0.63945318
0.63934837
0.63884127
0.62481115
0.62564658
0.62586126
0.62590821
0.62591469
0.62591324
0.62591179
0.62591145
0.6259117
0.62591197
0.62591197
0.6259117
0.62591145
0.62591179
0.62591323
0.62591468
0.6259082
0.62586124
0.62564656
0.62481111
0.6114816
0.61264244
0.61295302
0.61302133
0.61303166
0.61302979
0.61302761
0.6130268
0.61302688
0.61302712
0.61302712
0.61302688
0.6130268
0.6130276
0.61302978
0.61303164
0.61302131
0.61295299
0.61264241
0.61148155
0.59867948
0.60017319
0.60057731
0.60066527
0.60067788
0.60067448
0.60067096
0.60066926
0.60066892
0.60066899
0.60066899
0.60066892
0.60066925
0.60067095
0.60067447
0.60067786
0.60066525
0.60057728
0.60017316
0.59867943
0.58612606
0.58797636
0.58848179
0.58859095
0.58860505
0.58859924
0.58859381
0.58859083
0.58858987
0.58858966
0.58858966
0.58858986
0.58859082
0.58859379
0.58859922
0.58860503
0.58859092
0.58848176
0.58797633
0.58612601
0.57343559
0.57569875
0.57631894
0.57645288
0.57646826
0.57645943
0.5764517
0.57644718
0.57644548
0.57644494
0.57644493
0.57644547
0.57644717
0.57645169
0.57645942
0.57646824
0.57645286
0.57631891
0.57569873
0.57343556
0.56011656
0.5628857
0.56364317
0.56380747
0.5638238
0.56381165
0.56380151
0.56379545
0.56379304
0.56379217
0.56379217
0.56379303
0.56379544
0.5638015
0.56381163
0.56382378
0.56380746
0.56364316
0.56288568
0.56011654
0.54555908
0.54896581
0.54989731
0.55009991
0.55011873
0.55010276
0.55009073
0.5500836
0.55008071
0.55007965
0.55007965
0.5500807
0.55008358
0.55009071
0.55010275
0.55011871
0.5500999
0.5498973
0.54896581
0.54555907
0.52900647
0.53322621
0.53438678
0.53463795
0.53466257
0.53464504
0.53463299
0.53462604
0.53462319
0.53462227
0.53462226
0.53462318
0.53462603
0.53463297
0.53464503
0.53466256
0.53463794
0.53438677
0.53322621
0.52900646
0.50951936
0.51477247
0.51623961
0.51655272
0.51659245
0.51658011
0.51657208
0.51656781
0.51656574
0.51656548
0.51656547
0.51656573
0.51656779
0.51657206
0.51658009
0.51659244
0.51655271
0.5162396
0.51477247
0.50951935
0.4859378
0.49249795
0.4943603
0.49475443
0.49484116
0.49484499
0.49484773
0.4948508
0.4948498
0.49485119
0.49485119
0.49484978
0.49485078
0.49484771
0.49484497
0.49484114
0.49475442
0.49436029
0.49249794
0.48593778
0.45683804
0.46504837
0.46737516
0.46789399
0.46808008
0.46811448
0.46813787
0.46815801
0.46817295
0.46817929
0.46817928
0.46817294
0.46815798
0.46813785
0.46811445
0.46808005
0.46789397
0.46737514
0.46504834
0.45683799
0.42048615
0.43069279
0.43355789
0.43426072
0.43459631
0.43467751
0.43473599
0.43478534
0.43490478
0.43491477
0.43491477
0.43490477
0.43478532
0.43473596
0.43467748
0.43459628
0.43426069
0.43355786
0.43069274
0.42048608
0.37534997
0.38774796
0.39130354
0.39220364
0.39270533
0.39285111
0.39297865
0.39306997
0.39339816
0.39341834
0.39341833
0.39339814
0.39306995
0.39297862
0.39285108
0.3927053
0.3922036
0.39130349
0.3877479
0.3753499
0.3198157
0.33437057
0.33888026
0.33991836
0.34055062
0.34079923
0.34135522
0.34149236
0.34204782
0.34208371
0.34208371
0.34204781
0.34149234
0.3413552
0.3407992
0.34055058
0.33991832
0.33888021
0.3343705
0.31981564
0.25226597
0.26876519
0.27454243
0.27556612
0.27623466
0.27735268
0.27839418
0.27856831
0.27929056
0.27935102
0.27935102
0.27929056
0.2785683
0.27839416
0.27735265
0.27623462
0.27556607
0.27454238
0.26876513
0.25226594
0.16956686
0.19018407
0.19744731
0.19823226
0.19882509
0.2003429
0.20142444
0.20159398
0.20419048
0.20426149
0.20426149
0.20419047
0.20159397
0.20142442
0.20034288
0.19882507
0.19823223
0.19744727
0.19018403
0.16956686
0.07312372
0.09484221
0.10415374
0.10453936
0.10966747
0.11063703
0.11127075
0.11137046
0.11332271
0.1133668
0.1133668
0.11332271
0.11137046
0.11127074
0.11063702
0.10966745
0.10453934
0.10415372
0.094842194
0.073123727
1e-150
1e-150
1e-150
1e-150
1e-150
1e-150
1e-150
1e-150
1e-150
1e-150
1e-150
1e-150
1e-150
1e-150
1e-150
1e-150
1e-150
1e-150
1e-150
1e-150
1e-150
1e-150
1e-150
1e-150
1e-150
1e-150
1e-150
1e-150
1e-150
1e-150
1e-150
1e-150
1e-150
1e-150
1e-150
1e-150
1e-150
1e-150
1e-150
1e-150
1e-150
1e-150
1e-150
1e-150
1e-150
1e-150
1e-150
1e-150
1e-150
1e-150
1e-150
1e-150
1e-150
1e-150
1e-150
1e-150
1e-150
1e-150
1e-150
1e-150
1e-150
1e-150
1e-150
1e-150
1e-150
1e-150
1e-150
1e-150
1e-150
1e-150
1e-150
1e-150
1e-150
1e-150
1e-150
1e-150
1e-150
1e-150
1e-150
1e-150
1e-150
1e-150
1e-150
1e-150
1e-150
1e-150
1e-150
1e-150
1e-150
1e-150
1e-150
1e-150
1e-150
1e-150
1e-150
1e-150
1e-150
1e-150
1e-150
1e-150
1e-150
1e-150
1e-150
1e-150
1e-150
1e-150
1e-150
1e-150
1e-150
1e-150
1e-150
1e-150
1e-150
1e-150
1e-150
1e-150
1e-150
1e-150
1e-150
1e-150
1e-150
1e-150
1e-150
1e-150
1e-150
1e-150
1e-150
1e-150
1e-150
1e-150
1e-150
1e-150
1e-150
1e-150
1e-150
1e-150
1e-150
1e-150
1e-150
1e-150
1e-150
1e-150
1e-150
1e-150
1e-150
1e-150
1e-150
1e-150
1e-150
1e-150
1e-150
1e-150
1e-150
1e-150
1e-150
1e-150
1e-150
1e-150
1e-150
1e-150
1e-150
1e-150
1e-150
1e-150
1e-150
1e-150
1e-150
1e-150
1e-150
1e-150
1e-150
1e-150
1e-150
1e-150
1e-150
1e-150
1e-150
1e-150
1e-150
1e-150
1e-150
1e-150
1e-150
1e-150
1e-150
1e-150
1e-150
1e-150
1e-150
1e-150
1e-150
1e-150
1e-150
1e-150
1e-150
1e-150
1e-150
1e-150
1e-150
1e-150
1e-150
1e-150
1e-150
1e-150
1e-150
1e-150
1e-150
1e-150
1e-150
1e-150
1e-150
1e-150
1e-150
1e-150
1e-150
1e-150
1e-150
1e-150
1e-150
1e-150
1e-150
1e-150
1e-150
1e-150
1e-150
1e-150
1e-150
1e-150
1e-150
1e-150
1e-150
1e-150
1e-150
1e-150
1e-150
1e-150
1e-150
1e-150
1e-150
1e-150
1e-150
1e-150
1e-150
1e-150
1e-150
1e-150
1e-150
1e-150
1e-150
1e-150
1e-150
1e-150
1e-150
1e-150
1e-150
1e-150
1e-150
1e-150
1e-150
1e-150
1e-150
1e-150
1e-150
1e-150
1e-150
1e-150
1e-150
1e-150
1e-150
1e-150
1e-150
1e-150
1e-150
1e-150
1e-150
1e-150
1e-150
1e-150
1e-150
1e-150
1e-150
1e-150
1e-150
1e-150
1e-150
1e-150
1e-150
1e-150
1e-150
1e-150
1e-150
1e-150
1e-150
1e-150
1e-150
1e-150
1e-150
1e-150
1e-150
1e-150
1e-150
1e-150
1e-150
1e-150
1e-150
1e-150
1e-150
1e-150
1e-150
1e-150
1e-150
1e-150
1e-150
1e-150
1e-150
1e-150
1e-150
1e-150
1e-150
1e-150
1e-150
1e-150
1e-150
1e-150
1e-150
1e-150
1e-150
1e-150
1e-150
1e-150
1e-150
1e-150
1e-150
1e-150
1e-150
1e-150
1e-150
1e-150
1e-150
1e-150
1e-150
1e-150
1e-150
1e-150
1e-150
1e-150
1e-150
1e-150
1e-150
1e-150
1e-150
1e-150
1e-150
1e-150
1e-150
1e-150
1e-150
1e-150
1e-150
1e-150
1e-150
1e-150
1e-150
1e-150
1e-150
1e-150
1e-150
1e-150
1e-150
1e-150
1e-150
1e-150
1e-150
1e-150
1e-150
1e-150
1e-150
1e-150
1e-150
1e-150
1e-150
1e-150
1e-150
1e-150
1e-150
1e-150
1e-150
1e-150
1e-150
1e-150
1e-150
1e-150
1e-150
1e-150
1e-150
1e-150
1e-150
1e-150
1e-150
1e-150
1e-150
1e-150
1e-150
1e-150
1e-150
1e-150
1e-150
1e-150
1e-150
1e-150
1e-150
1e-150
1e-150
1e-150
1e-150
1e-150
1e-150
1e-150
1e-150
1e-150
)
;

boundaryField
{
    Wall
    {
        type            zeroGradient;
    }
    frontAndBack
    {
        type            empty;
    }
    atmosphere
    {
        type            zeroGradient;
    }
}


// ************************************************************************* //
