/*--------------------------------*- C++ -*----------------------------------*\
| =========                 |                                                 |
| \\      /  F ield         | OpenFOAM: The Open Source CFD Toolbox           |
|  \\    /   O peration     | Version:  3.0.1                                 |
|   \\  /    A nd           | Web:      www.OpenFOAM.org                      |
|    \\/     M anipulation  |                                                 |
\*---------------------------------------------------------------------------*/
FoamFile
{
    version     2.0;
    format      ascii;
    class       volScalarField;
    location    "29";
    object      alpha.gas;
}
// * * * * * * * * * * * * * * * * * * * * * * * * * * * * * * * * * * * * * //

dimensions      [0 0 0 0 0 0 0];

internalField   nonuniform List<scalar> 
800
(
2.0294342e-28
2.2702466e-25
4.3577031e-22
8.5619429e-22
1.5191675e-23
1.0558602e-21
9.285818e-22
6.0076066e-23
3.0662901e-25
7.1612124e-28
3.0369897e-23
2.949448e-23
5.6680988e-25
6.8810505e-23
6.7194832e-23
1.566373e-27
3.9906828e-32
1.7286198e-35
3.4064041e-39
6.3403415e-43
1.6652591e-12
3.832342e-13
2.6799728e-11
9.8830984e-12
4.8512046e-13
1.2686865e-11
1.0085461e-11
1.2110447e-11
2.4601332e-11
6.1817625e-11
3.1088376e-11
3.0908206e-11
1.6710398e-11
9.9189166e-12
9.3058249e-12
1.8068461e-12
9.1300294e-16
9.3541986e-14
5.2063769e-12
7.2580771e-15
4.4041024e-08
3.9518559e-08
3.8089663e-08
3.7708683e-08
3.763689e-08
3.7683669e-08
3.7737709e-08
3.7786226e-08
3.7825624e-08
3.7865392e-08
3.7845033e-08
3.782985e-08
3.7789352e-08
3.7737706e-08
3.768159e-08
3.7637962e-08
3.770236e-08
3.8072257e-08
3.9522167e-08
4.4040549e-08
1.9693867e-07
1.7619685e-07
1.6958914e-07
1.6803855e-07
1.6778754e-07
1.6797868e-07
1.6822645e-07
1.6843463e-07
1.6857874e-07
1.686665e-07
1.6864892e-07
1.6858256e-07
1.6843761e-07
1.6822683e-07
1.6797742e-07
1.6778915e-07
1.6803386e-07
1.6957498e-07
1.7620135e-07
1.9694014e-07
5.2795683e-07
4.7173277e-07
4.532015e-07
4.4925455e-07
4.4871617e-07
4.4925857e-07
4.4993533e-07
4.504879e-07
4.5085913e-07
4.5105606e-07
4.5103923e-07
4.5086313e-07
4.5049136e-07
4.499365e-07
4.4925844e-07
4.4871903e-07
4.4925153e-07
4.5318963e-07
4.7173959e-07
5.2796147e-07
1.1048367e-06
9.8696715e-07
9.4562606e-07
9.3763719e-07
9.3678918e-07
9.3803088e-07
9.394878e-07
9.4064793e-07
9.4141713e-07
9.4180518e-07
9.4178873e-07
9.4142164e-07
9.4065232e-07
9.3949028e-07
9.3803243e-07
9.3679403e-07
9.3763647e-07
9.4561698e-07
9.8697738e-07
1.1048455e-06
1.9902046e-06
1.7790553e-06
1.6982628e-06
1.6840771e-06
1.6831306e-06
1.6856044e-06
1.6883272e-06
1.6904427e-06
1.6918314e-06
1.6925146e-06
1.6924985e-06
1.6918367e-06
1.6904484e-06
1.6883315e-06
1.6856082e-06
1.6831382e-06
1.6840793e-06
1.6982571e-06
1.7790696e-06
1.9902179e-06
3.2378934e-06
2.8991191e-06
2.7543864e-06
2.7309125e-06
2.7304459e-06
2.7349406e-06
2.7395629e-06
2.7430666e-06
2.7453451e-06
2.7464483e-06
2.7464327e-06
2.7453514e-06
2.743074e-06
2.7395696e-06
2.7349471e-06
2.7304567e-06
2.7309179e-06
2.7543844e-06
2.8991375e-06
3.2379103e-06
4.8894168e-06
4.3900337e-06
4.1469876e-06
4.1090644e-06
4.1101093e-06
4.11769e-06
4.1249774e-06
4.1303719e-06
4.1338549e-06
4.1355202e-06
4.1355051e-06
4.1338625e-06
4.1303811e-06
4.1249866e-06
4.1176993e-06
4.1101233e-06
4.109073e-06
4.1469892e-06
4.3900555e-06
4.8894356e-06
6.9716398e-06
6.2847542e-06
5.8980647e-06
5.8361885e-06
5.8402464e-06
5.8521832e-06
5.8629876e-06
5.8708144e-06
5.875827e-06
5.8782055e-06
5.8781911e-06
5.8758358e-06
5.8708255e-06
5.8629993e-06
5.8521952e-06
5.8402633e-06
5.8361995e-06
5.8980691e-06
6.284778e-06
6.9716588e-06
9.4952899e-06
8.6011519e-06
8.0193098e-06
7.9165327e-06
7.9253371e-06
7.9430271e-06
7.958228e-06
7.9690336e-06
7.9759568e-06
7.9792148e-06
7.979201e-06
7.9759667e-06
7.9690463e-06
7.9582418e-06
7.9430411e-06
7.9253561e-06
7.9165452e-06
8.019316e-06
8.6011764e-06
9.4953078e-06
1.244738e-05
1.1324691e-05
1.0519193e-05
1.0342915e-05
1.0356605e-05
1.0381561e-05
1.0402043e-05
1.0416329e-05
1.0425485e-05
1.0429741e-05
1.0429728e-05
1.0425496e-05
1.0416343e-05
1.0402058e-05
1.0381576e-05
1.0356625e-05
1.0342928e-05
1.0519201e-05
1.1324714e-05
1.2447396e-05
1.5786566e-05
1.4449187e-05
1.3485182e-05
1.3111614e-05
1.3118532e-05
1.3152412e-05
1.3178987e-05
1.3197055e-05
1.3208597e-05
1.3214101e-05
1.3214088e-05
1.3208608e-05
1.319707e-05
1.3179004e-05
1.3152427e-05
1.3118552e-05
1.3111626e-05
1.3485192e-05
1.4449206e-05
1.5786579e-05
1.9522345e-05
1.8353338e-05
1.7474055e-05
1.6164533e-05
1.6184388e-05
1.6228971e-05
1.626233e-05
1.6284735e-05
1.6298647e-05
1.6305544e-05
1.6305532e-05
1.6298659e-05
1.628475e-05
1.6262346e-05
1.6228986e-05
1.6184407e-05
1.6164545e-05
1.7474107e-05
1.8353358e-05
1.952236e-05
2.3859253e-05
2.8110305e-05
2.1292306e-05
1.9400381e-05
1.9503701e-05
1.9560476e-05
1.9601505e-05
1.9628361e-05
1.9644355e-05
1.9652315e-05
1.9652303e-05
1.9644367e-05
1.9628376e-05
1.9601521e-05
1.956049e-05
1.9503718e-05
1.9400388e-05
2.1292376e-05
2.8110587e-05
2.3859271e-05
2.9130411e-05
3.0584183e-05
2.1897767e-05
2.30078e-05
2.3054704e-05
2.3125081e-05
2.3175055e-05
2.3206118e-05
2.3223957e-05
2.3232456e-05
2.3232444e-05
2.3223968e-05
2.3206132e-05
2.3175069e-05
2.3125093e-05
2.3054718e-05
2.3007811e-05
2.1897711e-05
3.058431e-05
2.9130443e-05
3.4322586e-05
2.6840031e-05
2.5412579e-05
2.6760427e-05
2.6877348e-05
2.6963711e-05
2.7023407e-05
2.7058465e-05
2.7078328e-05
2.7086967e-05
2.7086956e-05
2.7078339e-05
2.7058479e-05
2.7023421e-05
2.6963721e-05
2.6877359e-05
2.6760429e-05
2.5412544e-05
2.6839936e-05
3.432267e-05
3.7821456e-05
2.8352007e-05
3.0483786e-05
3.1050023e-05
3.1187197e-05
3.1284433e-05
3.1350252e-05
3.1386968e-05
3.1405087e-05
3.1412635e-05
3.1412624e-05
3.1405097e-05
3.1386982e-05
3.1350265e-05
3.128444e-05
3.1187207e-05
3.105002e-05
3.0483766e-05
2.8351888e-05
3.7821455e-05
4.7554442e-05
3.5965965e-05
3.7044967e-05
3.7082479e-05
3.712274e-05
3.718407e-05
3.7229172e-05
3.7252452e-05
3.724895e-05
3.7247415e-05
3.7247405e-05
3.7248958e-05
3.7252462e-05
3.7229181e-05
3.7184074e-05
3.7122745e-05
3.7082471e-05
3.7044946e-05
3.5965886e-05
4.7554359e-05
8.4159469e-05
5.7253583e-05
5.3236318e-05
5.1967255e-05
5.1306019e-05
5.1049293e-05
5.0918935e-05
5.0840359e-05
5.0711621e-05
5.0654265e-05
5.0654251e-05
5.0711616e-05
5.084035e-05
5.0918916e-05
5.1049263e-05
5.1305981e-05
5.1967197e-05
5.3236228e-05
5.7253366e-05
8.4158814e-05
0.00036520829
0.00019548044
0.0001493271
0.00013636879
0.00012925785
0.00012581015
0.00012397155
0.00012288734
0.00012172009
0.00012117255
0.0001211725
0.00012171995
0.00012288713
0.00012397124
0.00012580976
0.00012925735
0.00013636819
0.00014932618
0.00019547823
0.00036520046
0.0053508354
0.0021218839
0.0013524691
0.0011458352
0.0010326146
0.0009794102
0.00094970181
0.00093241403
0.00091606617
0.00090837233
0.00090837163
0.0009160639
0.00093241051
0.00094969682
0.00097940393
0.0010326069
0.0011458247
0.0013524531
0.0021218417
0.0053506401
0.19512999
0.075462449
0.045066454
0.036353384
0.031416965
0.029137668
0.027827615
0.027098021
0.026426272
0.026113039
0.026113008
0.026426174
0.027097864
0.027827388
0.029137378
0.031416573
0.036352893
0.045065736
0.075460603
0.19512421
0.81472068
0.66601975
0.57762807
0.53868823
0.5132025
0.49933452
0.49078635
0.4859263
0.48134151
0.47918733
0.47918712
0.48134082
0.4859252
0.49078478
0.4993326
0.5132003
0.53868574
0.57762501
0.66601569
0.81471646
0.99298468
0.97821267
0.96497969
0.95764109
0.95233778
0.94915389
0.94707595
0.94587635
0.94472491
0.94417991
0.94417986
0.94472473
0.94587608
0.94707557
0.94915343
0.95233729
0.95764058
0.96497914
0.97821217
0.99298436
0.99997743
0.99982557
0.99961747
0.99948179
0.9993779
0.99931102
0.99926415
0.99923699
0.99921042
0.99919778
0.99919778
0.99921042
0.99923698
0.99926414
0.99931101
0.99937789
0.99948178
0.99961746
0.99982556
0.99997743
1
0.99999991
0.99999966
0.99999946
0.9999993
0.9999992
0.99999913
0.99999909
0.99999905
0.99999903
0.99999903
0.99999905
0.99999909
0.99999913
0.9999992
0.9999993
0.99999946
0.99999966
0.99999991
1
1
1
1
1
1
1
1
1
1
1
1
1
1
1
1
1
1
1
1
1
1
1
1
1
1
1
1
1
1
1
1
1
1
1
1
1
1
1
1
1
1
1
1
1
1
1
1
1
1
1
1
1
1
1
1
1
1
1
1
1
1
1
1
1
1
1
1
1
1
1
1
1
1
1
1
1
1
1
1
1
1
1
1
1
1
1
1
1
1
1
1
1
1
1
1
1
1
1
1
1
1
1
1
1
1
1
1
1
1
1
1
1
1
1
1
1
1
1
1
1
1
1
1
1
1
1
1
1
1
1
1
1
1
1
1
1
1
1
1
1
1
1
1
1
1
1
1
1
1
1
1
1
1
1
1
1
1
1
1
1
1
1
1
1
1
1
1
1
1
1
1
1
1
1
1
1
1
1
1
1
1
1
1
1
1
1
1
1
1
1
1
1
1
1
1
1
1
1
1
1
1
1
1
1
1
1
1
1
1
1
1
1
1
1
1
1
1
1
1
1
1
1
1
1
1
1
1
1
1
1
1
1
1
1
1
1
1
1
1
1
1
1
1
1
1
1
1
1
1
1
1
1
1
1
1
1
1
1
1
1
)
;

boundaryField
{
    Wall
    {
        type            zeroGradient;
    }
    frontAndBack
    {
        type            empty;
    }
    atmosphere
    {
        type            zeroGradient;
    }
}


// ************************************************************************* //
