/*--------------------------------*- C++ -*----------------------------------*\
| =========                 |                                                 |
| \\      /  F ield         | OpenFOAM: The Open Source CFD Toolbox           |
|  \\    /   O peration     | Version:  3.0.1                                 |
|   \\  /    A nd           | Web:      www.OpenFOAM.org                      |
|    \\/     M anipulation  |                                                 |
\*---------------------------------------------------------------------------*/
FoamFile
{
    version     2.0;
    format      ascii;
    class       volScalarField;
    location    "29";
    object      g1_BA;
}
// * * * * * * * * * * * * * * * * * * * * * * * * * * * * * * * * * * * * * //

dimensions      [0 0 0 0 0 0 0];

internalField   nonuniform List<scalar> 
800
(
0.55726404
0.55731371
0.55732622
0.55732836
0.55732868
0.55732881
0.55732898
0.55732916
0.55732931
0.55732938
0.55732938
0.55732931
0.55732916
0.55732898
0.55732881
0.55732868
0.55732837
0.55732622
0.55731371
0.55726404
0.55668401
0.55692571
0.55701574
0.55703801
0.55703983
0.55703633
0.55703239
0.55702939
0.55702751
0.55702662
0.55702662
0.55702751
0.55702939
0.55703238
0.55703632
0.55703982
0.557038
0.55701572
0.55692569
0.55668397
0.54623469
0.54696279
0.54725663
0.54733806
0.54735087
0.54734437
0.54733486
0.54732724
0.54732237
0.54732006
0.54732006
0.54732236
0.54732723
0.54733484
0.54734435
0.54735084
0.54733802
0.54725658
0.54696273
0.54623458
0.52870058
0.53009139
0.53064021
0.53079489
0.53082206
0.53081265
0.53079696
0.53078411
0.5307758
0.53077185
0.53077184
0.53077579
0.53078408
0.53079693
0.53081261
0.530822
0.53079482
0.53064011
0.53009127
0.52870039
0.50668746
0.50879185
0.50960081
0.5098255
0.50986434
0.50985019
0.50982733
0.50980866
0.50979657
0.50979082
0.50979082
0.50979655
0.50980863
0.50982728
0.50985012
0.50986426
0.5098254
0.50960068
0.50879169
0.50668722
0.48244842
0.48520445
0.48625219
0.48653651
0.48658143
0.48655968
0.48652839
0.48650325
0.48648705
0.48647936
0.48647935
0.48648703
0.48650321
0.48652833
0.4865596
0.48658133
0.48653639
0.48625204
0.48520427
0.48244816
0.45752908
0.4608757
0.4621293
0.46246043
0.46250573
0.46247366
0.46243274
0.46240047
0.46237984
0.46237004
0.46237003
0.46237981
0.46240042
0.46243267
0.46247357
0.46250562
0.4624603
0.46212915
0.46087552
0.45752884
0.43270498
0.43655703
0.43796156
0.43832698
0.4383676
0.43832282
0.43827141
0.43823156
0.43820629
0.43819426
0.43819425
0.43820626
0.43823151
0.43827133
0.43832272
0.43836749
0.43832685
0.43796141
0.43655686
0.43270477
0.40833383
0.41269635
0.4142071
0.41459883
0.41463163
0.41457439
0.4145127
0.41446552
0.41443571
0.41442146
0.41442145
0.41443567
0.41446546
0.41451262
0.41457429
0.41463152
0.41459871
0.41420697
0.4126962
0.40833365
0.38417889
0.38909429
0.39068806
0.39110478
0.39112622
0.39105642
0.39098633
0.39093315
0.39089944
0.39088325
0.39088324
0.3908994
0.3909331
0.39098626
0.39105633
0.39112612
0.39110468
0.39068794
0.38909418
0.38417876
0.35992738
0.36545195
0.3671334
0.36758212
0.36758782
0.36750314
0.36742825
0.36737152
0.36733501
0.36731741
0.3673174
0.36733498
0.36737147
0.36742818
0.36750306
0.36758773
0.36758203
0.36713331
0.36545185
0.35992728
0.33524949
0.34145792
0.34326374
0.34375755
0.34373937
0.34364183
0.3435668
0.34350972
0.34347257
0.3434542
0.34345419
0.34347254
0.34350967
0.34356674
0.34364176
0.34373929
0.34375747
0.34326365
0.34145784
0.33524941
0.30980297
0.31677261
0.31877233
0.31932121
0.31928028
0.31918071
0.31911036
0.31905676
0.31901711
0.31899883
0.31899882
0.31901708
0.31905671
0.3191103
0.31918064
0.3192802
0.31932114
0.31877225
0.31677254
0.3098029
0.28337574
0.29116705
0.29344061
0.29405009
0.29401082
0.29392402
0.29386241
0.29381556
0.29376495
0.29374827
0.29374826
0.29376492
0.2938155
0.29386234
0.29392395
0.29401075
0.29405002
0.29344053
0.29116697
0.28337567
0.2561822
0.26481585
0.26743712
0.2681357
0.26813823
0.26807526
0.26802545
0.26798267
0.26791982
0.26790224
0.26790223
0.26791979
0.26798261
0.26802538
0.26807519
0.26813816
0.26813563
0.26743704
0.26481577
0.25618212
0.23711064
0.24699931
0.25034537
0.25132871
0.25146336
0.25142353
0.25133341
0.25127618
0.25119389
0.25117229
0.25117228
0.25119386
0.25127613
0.25133335
0.25142348
0.2514633
0.25132865
0.2503453
0.24699925
0.23711059
0.21059706
0.22143779
0.22541655
0.22668529
0.22694189
0.22691796
0.22681042
0.22675164
0.22667236
0.22665145
0.22665144
0.22667233
0.2267516
0.22681037
0.22691791
0.22694183
0.22668524
0.22541648
0.22143773
0.21059703
0.18397757
0.19580149
0.20056994
0.20225033
0.20269165
0.20269272
0.20257218
0.2025079
0.20241876
0.202399
0.20239899
0.20241874
0.20250785
0.20257214
0.20269267
0.2026916
0.20225028
0.20056989
0.19580145
0.18397757
0.15671915
0.16972308
0.17552886
0.1778066
0.17850352
0.17856804
0.17844883
0.17837843
0.17826603
0.178248
0.17824799
0.17826601
0.17837839
0.17844879
0.178568
0.17850349
0.17780657
0.17552882
0.16972306
0.15671918
0.12674429
0.14166327
0.14898801
0.15220687
0.15324446
0.15346347
0.15338348
0.15332228
0.15318802
0.15317712
0.15317711
0.153188
0.15332224
0.15338345
0.15346344
0.15324444
0.15220685
0.148988
0.14166329
0.1267444
0.08689005
0.10598985
0.11600158
0.12058357
0.12235034
0.12311146
0.12323653
0.12326782
0.12318069
0.1232069
0.12320689
0.12318068
0.1232678
0.12323652
0.12311146
0.12235035
0.12058358
0.11600162
0.10598996
0.086890321
0.030376828
0.049035954
0.06145554
0.068198465
0.071368815
0.072585706
0.07384921
0.07424013
0.074456115
0.074596122
0.074596121
0.074456125
0.07424014
0.073849246
0.072585753
0.071368882
0.068198555
0.061455664
0.049036173
0.030377088
0.00084880145
0.0051454886
0.0091943532
0.011741733
0.013311086
0.015878742
0.016205973
0.016434558
0.016596092
0.01666668
0.016666676
0.016596087
0.016434549
0.016205969
0.015878739
0.013311076
0.011741725
0.0091943546
0.0051455081
0.00084883424
0
0
0
0
0
0
0
0
0
0
0
0
0
0
0
0
0
0
0
0
0
0
0
0
0
0
0
0
0
0
0
0
0
0
0
0
0
0
0
0
0
0
0
0
0
0
0
0
0
0
0
0
0
0
0
0
0
0
0
0
0
0
0
0
0
0
0
0
0
0
0
0
0
0
0
0
0
0
0
0
0
0
0
0
0
0
0
0
0
0
0
0
0
0
0
0
0
0
0
0
0
0
0
0
0
0
0
0
0
0
0
0
0
0
0
0
0
0
0
0
0
0
0
0
0
0
0
0
0
0
0
0
0
0
0
0
0
0
0
0
0
0
0
0
0
0
0
0
0
0
0
0
0
0
0
0
0
0
0
0
0
0
0
0
0
0
0
0
0
0
0
0
0
0
0
0
0
0
0
0
0
0
0
0
0
0
0
0
0
0
0
0
0
0
0
0
0
0
0
0
0
0
0
0
0
0
0
0
0
0
0
0
0
0
0
0
0
0
0
0
0
0
0
0
0
0
0
0
0
0
0
0
0
0
0
0
0
0
0
0
0
0
0
0
0
0
0
0
0
0
0
0
0
0
0
0
0
0
0
0
0
0
0
0
0
0
0
0
0
0
0
0
0
0
0
0
0
0
0
0
0
0
0
0
0
0
0
0
0
0
0
0
0
0
0
0
0
0
0
0
0
0
0
0
0
0
0
0
0
0
0
0
0
0
0
0
0
0
0
0
0
0
0
0
0
0
0
0
0
0
0
0
0
0
0
0
0
0
0
0
)
;

boundaryField
{
    Wall
    {
        type            zeroGradient;
    }
    frontAndBack
    {
        type            empty;
    }
    atmosphere
    {
        type            zeroGradient;
    }
}


// ************************************************************************* //
