/*--------------------------------*- C++ -*----------------------------------*\
| =========                 |                                                 |
| \\      /  F ield         | OpenFOAM: The Open Source CFD Toolbox           |
|  \\    /   O peration     | Version:  3.0.1                                 |
|   \\  /    A nd           | Web:      www.OpenFOAM.org                      |
|    \\/     M anipulation  |                                                 |
\*---------------------------------------------------------------------------*/
FoamFile
{
    version     2.0;
    format      ascii;
    class       volScalarField;
    location    "29";
    object      g1_CO2;
}
// * * * * * * * * * * * * * * * * * * * * * * * * * * * * * * * * * * * * * //

dimensions      [0 0 0 0 0 0 0];

internalField   nonuniform List<scalar> 
800
(
0.48437036
0.48441636
0.4844278
0.48442965
0.48442992
0.48443007
0.48443028
0.48443049
0.48443066
0.48443074
0.48443074
0.48443066
0.48443049
0.48443028
0.48443007
0.48442992
0.48442965
0.4844278
0.48441636
0.48437036
0.50171082
0.5015454
0.50156894
0.50158835
0.50159408
0.50159187
0.50158687
0.50158194
0.50157834
0.50157648
0.50157648
0.50157834
0.50158193
0.50158686
0.50159186
0.50159407
0.50158834
0.50156892
0.50154537
0.50171077
0.51862691
0.51830063
0.51831777
0.51834856
0.51835869
0.5183559
0.5183482
0.51834038
0.51833456
0.51833152
0.51833152
0.51833456
0.51834037
0.51834819
0.51835588
0.51835867
0.51834852
0.51831773
0.51830058
0.51862682
0.53633847
0.53572511
0.53571777
0.53575978
0.53577507
0.53577402
0.53576585
0.53575699
0.53575017
0.53574655
0.53574655
0.53575016
0.53575698
0.53576583
0.535774
0.53577505
0.53575974
0.53571772
0.53572504
0.53633836
0.55620317
0.55511398
0.55504126
0.5550744
0.55509236
0.55509384
0.55508641
0.55507772
0.5550707
0.55506694
0.55506694
0.55507069
0.55507771
0.55508639
0.55509382
0.55509234
0.55507436
0.55504121
0.55511391
0.55620306
0.57975891
0.57791463
0.57771976
0.57771305
0.57772842
0.57773141
0.5777249
0.57771685
0.57770996
0.57770626
0.57770626
0.57770996
0.57771685
0.5777249
0.57773139
0.5777284
0.57771302
0.57771972
0.57791456
0.5797588
0.60849462
0.60557601
0.60519399
0.60511915
0.60512651
0.60512907
0.6051228
0.60511503
0.60510808
0.60510435
0.60510435
0.60510808
0.60511503
0.6051228
0.60512907
0.6051265
0.60511913
0.60519395
0.60557596
0.60849454
0.64351829
0.63914713
0.63845913
0.63829583
0.63829161
0.63829076
0.63828282
0.63827394
0.63826613
0.63826198
0.63826198
0.63826615
0.63827396
0.63828284
0.63829077
0.63829162
0.63829583
0.63845912
0.6391471
0.64351823
0.68593276
0.67981645
0.67866546
0.67840089
0.67837046
0.67836514
0.67835202
0.67833931
0.6783292
0.67832384
0.67832385
0.67832922
0.67833933
0.67835205
0.67836517
0.67837048
0.6784009
0.67866547
0.67981644
0.68593273
0.73641403
0.72830736
0.72652007
0.72614607
0.72606332
0.72603736
0.72601228
0.72599131
0.72597689
0.72596922
0.72596923
0.72597691
0.72599135
0.72601233
0.72603741
0.72606337
0.72614611
0.72652011
0.72830738
0.73641404
0.79568513
0.7854091
0.78280914
0.78231904
0.78214513
0.78206465
0.78201617
0.78198011
0.78195896
0.7819475
0.78194751
0.78195899
0.78198016
0.78201623
0.78206472
0.78214519
0.78231911
0.7828092
0.78540917
0.7956852
0.86437545
0.85190848
0.84837776
0.84775668
0.84741155
0.84724838
0.84715942
0.84709723
0.84706914
0.84705145
0.84705146
0.84706918
0.84709728
0.84715949
0.84724846
0.84741164
0.84775677
0.84837786
0.85190859
0.86437559
0.94259448
0.92816724
0.92377693
0.92295071
0.92235567
0.92210623
0.9219535
0.92184484
0.92178792
0.92175718
0.9217572
0.92178796
0.9218449
0.92195358
0.92210633
0.92235577
0.92295083
0.92377707
0.92816741
0.94259467
1.029669
1.0139602
1.0090232
1.007881
1.0070382
1.0067148
1.0064652
1.0062794
1.0060837
1.0060387
1.0060387
1.0060837
1.0062795
1.0064653
1.0067149
1.0070384
1.0078811
1.0090234
1.0139604
1.0296692
1.12251
1.1070021
1.1019965
1.1004956
1.0995147
1.0991139
1.0986929
1.0984376
1.0979655
1.0979488
1.0979488
1.0979655
1.0984377
1.0986929
1.099114
1.0995148
1.1004958
1.1019966
1.1070023
1.1225102
1.2552935
1.2423047
1.2384973
1.2373812
1.236599
1.2359733
1.234834
1.2343935
1.2335197
1.2336673
1.2336673
1.2335197
1.2343935
1.2348341
1.2359734
1.2365991
1.2373813
1.2384975
1.242305
1.2552937
1.3556964
1.3484759
1.3463825
1.3461671
1.3458152
1.3443767
1.342225
1.3415753
1.3402965
1.3407772
1.3407772
1.3402965
1.3415753
1.342225
1.3443767
1.3458152
1.3461672
1.3463826
1.348476
1.3556964
1.4512685
1.4529775
1.4540219
1.45558
1.4564274
1.4536942
1.4505102
1.4495641
1.4472175
1.4480849
1.4480849
1.4472174
1.449564
1.4505102
1.4536942
1.4564274
1.4555801
1.4540219
1.4529775
1.4512684
1.5329543
1.5488751
1.5555123
1.5596953
1.5616464
1.5578874
1.554134
1.5528294
1.5493152
1.5504791
1.5504791
1.5493152
1.5528293
1.5541339
1.5578873
1.5616463
1.5596952
1.5555122
1.548875
1.5329542
1.5841529
1.6233212
1.6398995
1.6484519
1.6505793
1.6477398
1.6440321
1.6423032
1.6386531
1.6398934
1.6398933
1.6386531
1.642303
1.644032
1.6477397
1.6505792
1.6484518
1.6398994
1.6233211
1.5841529
1.5695733
1.6485792
1.6863158
1.7013777
1.7073076
1.7059344
1.7026842
1.700455
1.6998171
1.7008548
1.7008548
1.699817
1.7004548
1.7026841
1.7059343
1.7073076
1.7013776
1.6863157
1.6485793
1.569574
1.3735629
1.5331867
1.6155662
1.6532434
1.6748327
1.6729747
1.6702733
1.6678347
1.6704586
1.6712612
1.6712612
1.6704586
1.6678347
1.6702733
1.6729748
1.6748329
1.6532437
1.6155667
1.5331878
1.3735651
0.89722781
1.1140947
1.2507241
1.3168681
1.3623422
1.3716077
1.3677928
1.3650485
1.3689503
1.3697835
1.3697835
1.3689503
1.3650485
1.367793
1.3716079
1.3623424
1.3168683
1.2507246
1.1140958
0.89722987
0
0
0
0
0
0.88530796
0.88752693
0.88511512
0.88794686
0.88861988
0.88861986
0.88794687
0.88511515
0.88752708
0.88530815
0
0
0
0
0
0
0
0
0
0
0
0
0
0
0
0
0
0
0
0
0
0
0
0
0
0
0
0
0
0
0
0
0
0
0
0
0
0
0
0
0
0
0
0
0
0
0
0
0
0
0
0
0
0
0
0
0
0
0
0
0
0
0
0
0
0
0
0
0
0
0
0
0
0
0
0
0
0
0
0
0
0
0
0
0
0
0
0
0
0
0
0
0
0
0
0
0
0
0
0
0
0
0
0
0
0
0
0
0
0
0
0
0
0
0
0
0
0
0
0
0
0
0
0
0
0
0
0
0
0
0
0
0
0
0
0
0
0
0
0
0
0
0
0
0
0
0
0
0
0
0
0
0
0
0
0
0
0
0
0
0
0
0
0
0
0
0
0
0
0
0
0
0
0
0
0
0
0
0
0
0
0
0
0
0
0
0
0
0
0
0
0
0
0
0
0
0
0
0
0
0
0
0
0
0
0
0
0
0
0
0
0
0
0
0
0
0
0
0
0
0
0
0
0
0
0
0
0
0
0
0
0
0
0
0
0
0
0
0
0
0
0
0
0
0
0
0
0
0
0
0
0
0
0
0
0
0
0
0
0
0
0
0
0
0
0
0
0
0
0
0
0
0
0
0
0
0
0
0
0
0
0
0
0
0
0
0
0
0
0
0
0
0
0
0
0
0
0
0
0
0
0
0
0
0
0
0
0
0
0
0
0
0
0
0
0
0
0
0
0
0
0
0
0
0
)
;

boundaryField
{
    Wall
    {
        type            zeroGradient;
    }
    frontAndBack
    {
        type            empty;
    }
    atmosphere
    {
        type            zeroGradient;
    }
}


// ************************************************************************* //
