/*--------------------------------*- C++ -*----------------------------------*\
| =========                 |                                                 |
| \\      /  F ield         | OpenFOAM: The Open Source CFD Toolbox           |
|  \\    /   O peration     | Version:  3.0.1                                 |
|   \\  /    A nd           | Web:      www.OpenFOAM.org                      |
|    \\/     M anipulation  |                                                 |
\*---------------------------------------------------------------------------*/
FoamFile
{
    version     2.0;
    format      ascii;
    class       volScalarField;
    location    "29";
    object      mOne;
}
// * * * * * * * * * * * * * * * * * * * * * * * * * * * * * * * * * * * * * //

dimensions      [0 0 0 0 0 0 0];

internalField   nonuniform List<scalar> 
800
(
14.900215
14.901642
14.90187
14.901887
14.901881
14.901876
14.901875
14.901876
14.901877
14.901878
14.901878
14.901877
14.901876
14.901875
14.901876
14.901881
14.901887
14.901871
14.901642
14.900215
14.664239
14.679462
14.682883
14.683533
14.683496
14.683352
14.683239
14.683174
14.683142
14.683129
14.683129
14.683142
14.683174
14.683239
14.683352
14.683495
14.683533
14.682883
14.679461
14.664238
14.413983
14.438252
14.445722
14.447287
14.447393
14.447207
14.447035
14.446929
14.446875
14.446854
14.446854
14.446875
14.446929
14.447035
14.447207
14.447393
14.447287
14.445722
14.438251
14.413981
14.179326
14.210298
14.221253
14.223566
14.223787
14.223569
14.223353
14.223218
14.223149
14.223122
14.223122
14.223149
14.223218
14.223352
14.223569
14.223786
14.223565
14.221252
14.210296
14.179323
13.980773
14.015739
14.029395
14.032388
14.032633
14.032355
14.032089
14.031926
14.031843
14.03181
14.03181
14.031842
14.031925
14.032088
14.032355
14.032633
14.032387
14.029394
14.015737
13.980771
13.829071
13.86552
13.881121
13.88478
13.884945
13.884561
13.884226
13.884026
13.883925
13.883886
13.883886
13.883925
13.884026
13.884226
13.88456
13.884944
13.884779
13.88112
13.865518
13.829069
13.72581
13.762372
13.779036
13.783323
13.78331
13.782769
13.782341
13.782088
13.781961
13.781912
13.781912
13.781961
13.782088
13.78234
13.782768
13.783309
13.783322
13.779035
13.762371
13.725808
13.665983
13.702667
13.719398
13.724245
13.723973
13.723224
13.722672
13.722348
13.722184
13.722119
13.722119
13.722184
13.722348
13.722672
13.723223
13.723973
13.724244
13.719398
13.702666
13.665982
13.638949
13.677524
13.693409
13.69873
13.698319
13.69732
13.696613
13.696195
13.695982
13.695894
13.695894
13.695981
13.696195
13.696612
13.697319
13.698319
13.698729
13.693408
13.677524
13.638948
13.629531
13.67381
13.68815
13.693868
13.693699
13.692611
13.691717
13.691185
13.690908
13.690791
13.690791
13.690908
13.691184
13.691716
13.692611
13.693698
13.693868
13.68815
13.67381
13.629531
13.619508
13.67542
13.688141
13.694204
13.694982
13.694262
13.693147
13.692479
13.692125
13.691972
13.691972
13.692124
13.692479
13.693147
13.694262
13.694981
13.694204
13.688141
13.67542
13.619508
13.588301
13.663368
13.675863
13.682206
13.684926
13.685183
13.683812
13.682985
13.682532
13.682334
13.682334
13.682531
13.682985
13.683812
13.685182
13.684925
13.682206
13.675863
13.663368
13.588301
13.513239
13.615823
13.631641
13.637919
13.643744
13.645487
13.643824
13.642805
13.64251
13.642244
13.642243
13.642509
13.642805
13.643823
13.645486
13.643743
13.637919
13.631641
13.615823
13.513238
13.368957
13.508336
13.532815
13.539023
13.549073
13.552518
13.550534
13.549296
13.549568
13.549187
13.549187
13.549568
13.549295
13.550534
13.552517
13.549072
13.539023
13.532815
13.508336
13.368956
13.137592
13.323578
13.362899
13.370575
13.385629
13.39061
13.388092
13.386212
13.387454
13.387566
13.387566
13.387454
13.386211
13.388091
13.390609
13.385628
13.370574
13.362898
13.323577
13.137591
12.846539
13.09002
13.151505
13.164523
13.184913
13.190626
13.186485
13.183784
13.186297
13.188236
13.188236
13.186297
13.183783
13.186484
13.190625
13.184912
13.164522
13.151503
13.090018
12.846537
12.426753
12.739459
12.830197
12.853113
12.879921
12.884843
12.878283
12.87494
12.878749
12.883773
12.883772
12.878748
12.874939
12.878282
12.884842
12.879919
12.853111
12.830195
12.739457
12.42675
11.845934
12.23792
12.365362
12.402251
12.43824
12.441571
12.432996
12.429218
12.43348
12.442002
12.442002
12.433479
12.429217
12.432994
12.441569
12.438238
12.402249
12.365359
12.237918
11.845932
11.067623
11.547776
11.720111
11.773872
11.822257
11.825072
11.816084
11.81205
11.816898
11.828368
11.828367
11.816897
11.812049
11.816082
11.82507
11.822255
11.77387
11.720109
11.547774
11.067622
10.050587
10.624375
10.850412
10.924862
10.988455
10.995058
10.98761
10.983521
10.990449
11.003688
11.003688
10.990448
10.983519
10.987609
10.995056
10.988453
10.92486
10.85041
10.624373
10.050587
8.7554426
9.4181385
9.7077434
9.8089046
9.8907302
9.904323
9.8999145
9.8960686
9.9088295
9.9224934
9.9224931
9.9088288
9.8960674
9.8999132
9.9043215
9.8907285
9.8089027
9.7077417
9.4181378
8.7554445
7.1779221
7.9041351
8.2540034
8.3861112
8.487066
8.5135933
8.5135628
8.5103568
8.528278
8.5411408
8.5411406
8.5282775
8.5103559
8.5135619
8.5135921
8.4870647
8.3861098
8.2540023
7.9041355
7.1779259
5.409195
6.1459878
6.5314359
6.6972794
6.8060193
6.8424113
6.8605236
6.8578954
6.8764776
6.8873699
6.8873698
6.8764773
6.8578948
6.8605229
6.8424105
6.8060184
6.6972784
6.5314354
6.1459895
5.4092006
3.6953022
4.3227793
4.6902572
4.8546568
4.9515193
5.0262996
5.0459956
5.0442271
5.0594115
5.0675595
5.0675595
5.0594115
5.044227
5.0459957
5.0262997
4.9515192
4.8546568
4.690258
4.3227831
3.6953103
2.2902984
2.8529114
3.2159264
3.3933068
3.4868499
3.5252649
3.5381762
3.5351725
3.5446889
3.5493892
3.5493892
3.5446891
3.5351729
3.538177
3.5252658
3.4868506
3.3933075
3.2159282
2.852916
2.2903074
1.1874826
1.7777651
2.1371068
2.3276383
2.4222477
2.4550864
2.4604021
2.4533997
2.4553989
2.4560321
2.4560321
2.4553991
2.4534
2.4604027
2.455087
2.4222486
2.3276391
2.1371082
1.7777689
1.1874903
0.47618194
1.0409015
1.3919308
1.5886024
1.6845231
1.7149479
1.7133118
1.7003914
1.6944527
1.6908047
1.6908048
1.6944529
1.7003918
1.7133125
1.7149488
1.684524
1.5886033
1.391932
1.0409044
0.47618663
0.1450251
0.57358981
0.88776064
1.077037
1.1717058
1.2015902
1.1974684
1.1816439
1.1706887
1.1641708
1.1641708
1.1706889
1.1816442
1.1974689
1.2015908
1.1717063
1.0770376
0.88776147
0.57359161
0.14502722
0.034413399
0.29850009
0.55427211
0.72366471
0.81254707
0.84221097
0.83876913
0.82324898
0.81059115
0.80297173
0.80297175
0.81059125
0.82324916
0.83876944
0.8422113
0.81254728
0.72366496
0.55427247
0.298501
0.034414102
0.0067551619
0.14724282
0.33874042
0.48055126
0.55948325
0.58791744
0.5864689
0.57330056
0.56136405
0.55403624
0.55403624
0.56136408
0.57330061
0.58646904
0.58791756
0.55948327
0.48055131
0.33874062
0.14724331
0.0067553317
0.0011654152
0.069049969
0.20249811
0.3146361
0.38118869
0.40712199
0.4076938
0.39764638
0.387673
0.38142286
0.38142285
0.38767297
0.39764634
0.40769381
0.40712199
0.38118861
0.31463606
0.20249822
0.069050237
0.0011654485
0.00018532629
0.030980333
0.11832993
0.20271277
0.25630601
0.2788156
0.28085953
0.27383259
0.26618307
0.26128023
0.2612802
0.266183
0.2738325
0.28085946
0.27881553
0.25630591
0.2027127
0.11833
0.030980472
0.00018533198
2.8097009e-05
0.013392307
0.067559675
0.12831146
0.16973729
0.18840944
0.1912557
0.18672231
0.1812338
0.17762736
0.17762733
0.18123372
0.18672221
0.19125561
0.18840936
0.16973719
0.1283114
0.067559716
0.013392375
2.8097908e-05
4.1504906e-06
0.0056129544
0.037688053
0.079706192
0.11055716
0.12542056
0.12849581
0.12581114
0.12208799
0.11957009
0.11957006
0.12208791
0.12581104
0.12849572
0.12542048
0.11055708
0.079706151
0.037688078
0.0056129854
4.1506252e-06
6.0498636e-07
0.002291575
0.020548284
0.048557664
0.07075814
0.082153442
0.085060272
0.083629611
0.081227284
0.079545932
0.079545905
0.081227218
0.083629523
0.08506019
0.082153373
0.070758086
0.048557641
0.020548301
0.0022915886
6.0500579e-07
8.7596117e-08
0.00091425694
0.010955285
0.029000561
0.044471968
0.052910835
0.05542577
0.054777829
0.053299726
0.052220427
0.052220405
0.053299671
0.054777758
0.055425705
0.052910784
0.044471935
0.029000552
0.010955298
0.00091426277
8.7598846e-08
1.2650038e-08
0.00035718329
0.0057148467
0.016978366
0.027439622
0.033490584
0.035527413
0.035325103
0.034458039
0.033789977
0.03378996
0.034457997
0.035325049
0.035527365
0.033490549
0.027439604
0.016978365
0.0057148561
0.00035718573
1.2650415e-08
1.8507457e-09
0.00013682234
0.0029185829
0.0097445406
0.016618857
0.020828195
0.022392696
0.022415212
0.021931814
0.021532359
0.021532347
0.021931784
0.022415172
0.022392662
0.020828172
0.016618849
0.0097445433
0.0029185892
0.00013682334
1.850725e-09
3.0710722e-10
5.1427452e-05
0.0014600143
0.0054838408
0.0098801926
0.012725972
0.013875326
0.013990157
0.013735926
0.013505032
0.013505023
0.013735904
0.01399013
0.013875303
0.012725958
0.009880189
0.0054838446
0.0014600184
5.142786e-05
3.0704109e-10
7.4613903e-11
1.8975714e-05
0.00071575069
0.0030267099
0.0057665591
0.0076391614
0.0084515227
0.0085868475
0.0084626224
0.0083336363
0.0083336301
0.0084626074
0.0085868285
0.008451507
0.0076391527
0.0057665581
0.0030267133
0.00071575314
1.8975877e-05
7.4577733e-11
)
;

boundaryField
{
    Wall
    {
        type            zeroGradient;
    }
    frontAndBack
    {
        type            empty;
    }
    atmosphere
    {
        type            zeroGradient;
    }
}


// ************************************************************************* //
