/*--------------------------------*- C++ -*----------------------------------*\
| =========                 |                                                 |
| \\      /  F ield         | OpenFOAM: The Open Source CFD Toolbox           |
|  \\    /   O peration     | Version:  3.0.1                                 |
|   \\  /    A nd           | Web:      www.OpenFOAM.org                      |
|    \\/     M anipulation  |                                                 |
\*---------------------------------------------------------------------------*/
FoamFile
{
    version     2.0;
    format      ascii;
    class       volScalarField;
    location    "29";
    object      mThree;
}
// * * * * * * * * * * * * * * * * * * * * * * * * * * * * * * * * * * * * * //

dimensions      [0 0 0 0 0 0 0];

internalField   nonuniform List<scalar> 
800
(
3.2824184e-23
3.2833709e-23
3.2835242e-23
3.2835357e-23
3.283532e-23
3.2835294e-23
3.2835292e-23
3.2835299e-23
3.2835307e-23
3.2835311e-23
3.2835312e-23
3.2835307e-23
3.2835299e-23
3.2835292e-23
3.2835295e-23
3.2835321e-23
3.2835358e-23
3.2835243e-23
3.283371e-23
3.2824185e-23
3.1298189e-23
3.139553e-23
3.1417467e-23
3.1421644e-23
3.1421414e-23
3.1420498e-23
3.1419781e-23
3.1419364e-23
3.1419158e-23
3.1419076e-23
3.1419077e-23
3.1419158e-23
3.1419363e-23
3.141978e-23
3.1420498e-23
3.1421412e-23
3.1421642e-23
3.1417464e-23
3.1395527e-23
3.1298182e-23
3.0210476e-23
3.0350257e-23
3.0392062e-23
3.0400312e-23
3.0400655e-23
3.0399557e-23
3.0398626e-23
3.0398092e-23
3.0397842e-23
3.0397749e-23
3.0397749e-23
3.0397841e-23
3.0398091e-23
3.0398625e-23
3.0399555e-23
3.0400652e-23
3.0400309e-23
3.0392058e-23
3.0350252e-23
3.0210466e-23
2.9631704e-23
2.9789376e-23
2.9845049e-23
2.9855661e-23
2.9856234e-23
2.985506e-23
2.9854103e-23
2.9853607e-23
2.9853409e-23
2.9853351e-23
2.9853351e-23
2.9853408e-23
2.9853606e-23
2.9854102e-23
2.9855059e-23
2.9856232e-23
2.9855658e-23
2.9845045e-23
2.978937e-23
2.9631694e-23
2.9614597e-23
2.9765904e-23
2.9829643e-23
2.9842042e-23
2.9842278e-23
2.9840924e-23
2.9839981e-23
2.9839589e-23
2.9839496e-23
2.9839502e-23
2.9839502e-23
2.9839496e-23
2.9839589e-23
2.983998e-23
2.9840922e-23
2.9842276e-23
2.984204e-23
2.9829641e-23
2.97659e-23
2.9614589e-23
3.0194644e-23
3.0316365e-23
3.0382872e-23
3.0397018e-23
3.0396289e-23
3.0394544e-23
3.039358e-23
3.0393304e-23
3.0393336e-23
3.0393417e-23
3.0393417e-23
3.0393336e-23
3.0393304e-23
3.039358e-23
3.0394544e-23
3.0396288e-23
3.0397019e-23
3.0382872e-23
3.0316363e-23
3.019464e-23
3.1399285e-23
3.1471121e-23
3.1533528e-23
3.1549375e-23
3.1547033e-23
3.1544623e-23
3.154354e-23
3.1543345e-23
3.1543493e-23
3.1543647e-23
3.1543647e-23
3.1543494e-23
3.1543346e-23
3.1543541e-23
3.1544625e-23
3.1547035e-23
3.1549378e-23
3.1533531e-23
3.1471123e-23
3.1399286e-23
3.3243711e-23
3.32512e-23
3.3300426e-23
3.3317701e-23
3.33132e-23
3.3309811e-23
3.3308448e-23
3.3308244e-23
3.3308466e-23
3.3308674e-23
3.3308675e-23
3.3308467e-23
3.3308246e-23
3.3308451e-23
3.3309814e-23
3.3313204e-23
3.3317707e-23
3.3300432e-23
3.3251206e-23
3.3243716e-23
3.5722573e-23
3.5659829e-23
3.568415e-23
3.5702192e-23
3.5696689e-23
3.5691986e-23
3.5690076e-23
3.568969e-23
3.5689904e-23
3.5690127e-23
3.5690128e-23
3.5689906e-23
3.5689693e-23
3.569008e-23
3.5691993e-23
3.5696696e-23
3.57022e-23
3.5684159e-23
3.5659839e-23
3.5722581e-23
3.8802721e-23
3.867976e-23
3.8664939e-23
3.8682657e-23
3.8680055e-23
3.867568e-23
3.8672753e-23
3.8671898e-23
3.8671969e-23
3.8672139e-23
3.8672141e-23
3.8671972e-23
3.8671902e-23
3.8672759e-23
3.8675688e-23
3.8680064e-23
3.8682668e-23
3.8664951e-23
3.8679772e-23
3.8802731e-23
4.2413268e-23
4.2262925e-23
4.2196108e-23
4.2211944e-23
4.2220327e-23
4.2221216e-23
4.2216505e-23
4.2214724e-23
4.2214451e-23
4.2214468e-23
4.2214469e-23
4.2214454e-23
4.2214729e-23
4.2216512e-23
4.2221225e-23
4.2220337e-23
4.2211957e-23
4.2196121e-23
4.2262939e-23
4.2413281e-23
4.643717e-23
4.6315795e-23
4.619658e-23
4.6207985e-23
4.6239812e-23
4.6253055e-23
4.6245416e-23
4.6241996e-23
4.6241107e-23
4.6240808e-23
4.624081e-23
4.624111e-23
4.6242001e-23
4.6245423e-23
4.6253065e-23
4.6239824e-23
4.6207999e-23
4.6196595e-23
4.631581e-23
4.6437185e-23
5.0701621e-23
5.0686378e-23
5.0539864e-23
5.0539704e-23
5.0610413e-23
5.0642529e-23
5.0630381e-23
5.0624091e-23
5.0625892e-23
5.0624839e-23
5.0624841e-23
5.0625895e-23
5.0624096e-23
5.0630388e-23
5.0642538e-23
5.0610424e-23
5.0539718e-23
5.0539879e-23
5.0686394e-23
5.0701635e-23
5.4957126e-23
5.5152795e-23
5.503227e-23
5.5016101e-23
5.514149e-23
5.5195912e-23
5.5177249e-23
5.5166386e-23
5.5175747e-23
5.5173264e-23
5.5173265e-23
5.5175749e-23
5.516639e-23
5.5177254e-23
5.519592e-23
5.51415e-23
5.5016113e-23
5.5032284e-23
5.515281e-23
5.4957139e-23
5.8786774e-23
5.9338584e-23
5.9314382e-23
5.9287373e-23
5.9479597e-23
5.9555259e-23
5.9525897e-23
5.9510522e-23
5.9531908e-23
5.9536183e-23
5.9536184e-23
5.9531909e-23
5.9510524e-23
5.95259e-23
5.9555265e-23
5.9479604e-23
5.9287383e-23
5.9314392e-23
5.9338595e-23
5.8786781e-23
6.1586617e-23
6.2673641e-23
6.2818782e-23
6.2810225e-23
6.3072787e-23
6.316066e-23
6.3107283e-23
6.3086674e-23
6.3125965e-23
6.3156549e-23
6.3156549e-23
6.3125965e-23
6.3086673e-23
6.3107283e-23
6.3160662e-23
6.3072789e-23
6.2810229e-23
6.2818787e-23
6.2673645e-23
6.1586615e-23
6.2855011e-23
6.4653472e-23
6.5036576e-23
6.5091065e-23
6.5435239e-23
6.5511574e-23
6.5420964e-23
6.5393648e-23
6.545252e-23
6.5529148e-23
6.5529147e-23
6.5452518e-23
6.5393644e-23
6.542096e-23
6.5511571e-23
6.5435236e-23
6.5091062e-23
6.5036573e-23
6.4653467e-23
6.2854998e-23
6.2122312e-23
6.4761676e-23
6.5445921e-23
6.5597249e-23
6.605028e-23
6.6096569e-23
6.5972808e-23
6.5939084e-23
6.6004086e-23
6.6134504e-23
6.6134503e-23
6.6004083e-23
6.5939078e-23
6.59728e-23
6.609656e-23
6.6050271e-23
6.5597239e-23
6.5445911e-23
6.4761662e-23
6.2122293e-23
5.8913365e-23
6.2470266e-23
6.3512953e-23
6.3768685e-23
6.4348483e-23
6.4371424e-23
6.423827e-23
6.4201525e-23
6.4271484e-23
6.4447679e-23
6.4447678e-23
6.427148e-23
6.4201517e-23
6.423826e-23
6.4371412e-23
6.4348469e-23
6.3768669e-23
6.3512936e-23
6.2470247e-23
5.8913347e-23
5.2832541e-23
5.7278623e-23
5.8721527e-23
5.90922e-23
5.97874e-23
5.9838081e-23
5.9725645e-23
5.969177e-23
5.9786181e-23
5.9988343e-23
5.9988342e-23
5.9786176e-23
5.9691763e-23
5.9725634e-23
5.9838068e-23
5.9787384e-23
5.9092182e-23
5.8721509e-23
5.7278605e-23
5.2832532e-23
4.3801972e-23
4.8891816e-23
5.0758604e-23
5.1262452e-23
5.2056659e-23
5.2165845e-23
5.2095393e-23
5.2071183e-23
5.2235357e-23
5.2438962e-23
5.2438961e-23
5.2235353e-23
5.2071176e-23
5.2095384e-23
5.2165833e-23
5.2056644e-23
5.1262435e-23
5.0758588e-23
4.8891805e-23
4.3801976e-23
3.2574015e-23
3.7734128e-23
3.9856567e-23
4.0500889e-23
4.1351147e-23
4.1543814e-23
4.152723e-23
4.1517221e-23
4.1728893e-23
4.1910211e-23
4.191021e-23
4.172889e-23
4.1517216e-23
4.1527223e-23
4.1543805e-23
4.1351136e-23
4.0500876e-23
3.9856556e-23
3.7734125e-23
3.2574029e-23
2.1103732e-23
2.5593093e-23
2.7609014e-23
2.835366e-23
2.910519e-23
2.9336488e-23
2.9457315e-23
2.9456028e-23
2.9649296e-23
2.9788926e-23
2.9788925e-23
2.9649294e-23
2.9456025e-23
2.945731e-23
2.9336481e-23
2.9105181e-23
2.8353649e-23
2.7609006e-23
2.5593095e-23
2.1103751e-23
1.1938394e-23
1.4849219e-23
1.6299651e-23
1.6858937e-23
1.7354141e-23
1.7811522e-23
1.793182e-23
1.7936562e-23
1.8067957e-23
1.8158109e-23
1.8158109e-23
1.8067956e-23
1.7936561e-23
1.7931819e-23
1.781152e-23
1.7354138e-23
1.6858933e-23
1.629965e-23
1.484923e-23
1.1938419e-23
6.2494014e-24
8.1389512e-24
9.1973328e-24
9.6251829e-24
9.943628e-24
1.0098722e-23
1.0170724e-23
1.0174828e-23
1.0253661e-23
1.0306189e-23
1.030619e-23
1.0253662e-23
1.0174829e-23
1.0170726e-23
1.0098723e-23
9.9436289e-24
9.6251837e-24
9.1973367e-24
8.1389635e-24
6.2494263e-24
2.7849453e-24
4.2678447e-24
5.0698228e-24
5.4082567e-24
5.6064081e-24
5.6851535e-24
5.7135528e-24
5.7091456e-24
5.7487831e-24
5.7757685e-24
5.7757687e-24
5.7487835e-24
5.7091462e-24
5.7135537e-24
5.6851544e-24
5.60641e-24
5.408258e-24
5.0698253e-24
4.2678536e-24
2.7849635e-24
9.7164738e-25
2.1126929e-24
2.7564109e-24
3.0454816e-24
3.1819225e-24
3.2208314e-24
3.2175382e-24
3.1992152e-24
3.2098524e-24
3.218917e-24
3.2189172e-24
3.209853e-24
3.1992162e-24
3.2175397e-24
3.2208332e-24
3.1819246e-24
3.0454835e-24
2.7564129e-24
2.1126984e-24
9.716571e-25
2.5983536e-25
9.7991275e-25
1.4669517e-24
1.7091001e-24
1.8151332e-24
1.8386542e-24
1.8252393e-24
1.8026099e-24
1.7986094e-24
1.7981708e-24
1.798171e-24
1.7986098e-24
1.8026107e-24
1.8252405e-24
1.8386556e-24
1.8151344e-24
1.7091012e-24
1.466953e-24
9.7991585e-25
2.5983923e-25
5.437478e-26
4.2583197e-25
7.6128001e-25
9.5064697e-25
1.0357282e-24
1.0546789e-24
1.0425131e-24
1.0225739e-24
1.0138767e-24
1.0098463e-24
1.0098464e-24
1.013877e-24
1.0225744e-24
1.0425138e-24
1.0546797e-24
1.0357288e-24
9.5064746e-25
7.6128051e-25
4.2583338e-25
5.4375917e-26
9.4248512e-27
1.74377e-25
3.8477349e-25
5.217212e-25
5.8770489e-25
6.0462368e-25
5.9702334e-25
5.8242589e-25
5.7406838e-25
5.6962954e-25
5.6962961e-25
5.7406855e-25
5.8242617e-25
5.9702377e-25
6.0462411e-25
5.8770515e-25
5.2172138e-25
3.8477378e-25
1.7437767e-25
9.4250943e-27
1.4340836e-27
6.76425e-26
1.8943101e-25
2.817855e-25
3.3021885e-25
3.4476967e-25
3.4123974e-25
3.3180471e-25
3.2547986e-25
3.2188814e-25
3.2188818e-25
3.2547995e-25
3.3180484e-25
3.4123995e-25
3.4476986e-25
3.3021893e-25
2.8178556e-25
1.8943119e-25
6.7642815e-26
1.4341258e-27
2.005808e-28
2.507181e-26
9.0944648e-26
1.4959764e-25
1.8323496e-25
1.948732e-25
1.9393469e-25
1.8839663e-25
1.8419499e-25
1.8168461e-25
1.8168462e-25
1.8419502e-25
1.8839668e-25
1.9393477e-25
1.9487327e-25
1.8323497e-25
1.4959766e-25
9.0944748e-26
2.5071948e-26
2.0058717e-28
2.6666152e-29
8.9578826e-27
4.2640788e-26
7.8025459e-26
1.0024759e-25
1.0892387e-25
1.0928081e-25
1.0629564e-25
1.0374176e-25
1.0214294e-25
1.0214295e-25
1.0374177e-25
1.0629565e-25
1.0928083e-25
1.0892389e-25
1.0024758e-25
7.8025456e-26
4.2640841e-26
8.9579384e-27
2.6667038e-29
3.4451331e-30
3.1083648e-27
1.9557686e-26
3.9981127e-26
5.4027403e-26
6.0111924e-26
6.092864e-26
5.9453678e-26
5.8005225e-26
5.7053432e-26
5.7053432e-26
5.8005222e-26
5.9453674e-26
6.092864e-26
6.0111922e-26
5.4027387e-26
3.9981123e-26
1.9557714e-26
3.1083859e-27
3.4452499e-30
4.3828372e-31
1.0532631e-27
8.7881704e-27
2.013097e-26
2.8670392e-26
3.2721817e-26
3.3563154e-26
3.2906443e-26
3.2132252e-26
3.1595252e-26
3.159525e-26
3.2132246e-26
3.2906434e-26
3.3563146e-26
3.272181e-26
2.867038e-26
2.0130968e-26
8.7881839e-27
1.0532707e-27
4.3829854e-31
5.5293187e-32
3.4977116e-28
3.8735466e-27
9.9629811e-27
1.4977707e-26
1.7558422e-26
1.8248748e-26
1.7998834e-26
1.7607544e-26
1.7318038e-26
1.7318037e-26
1.7607538e-26
1.7998826e-26
1.824874e-26
1.7558415e-26
1.49777e-26
9.9629801e-27
3.8735534e-27
3.4977382e-28
5.529502e-32
6.9418663e-33
1.1409026e-28
1.6764006e-27
4.8480464e-27
7.702468e-27
9.2842933e-27
9.7868138e-27
9.7196711e-27
9.5329779e-27
9.3831651e-27
9.3831637e-27
9.5329735e-27
9.7196649e-27
9.7868078e-27
9.2842882e-27
7.7024643e-27
4.8480464e-27
1.6764041e-27
1.1409116e-28
6.9420886e-33
8.6981147e-34
3.6601321e-29
7.1289544e-28
2.3202103e-27
3.8994634e-27
4.8366566e-27
5.1748792e-27
5.1785733e-27
5.0951466e-27
5.020562e-27
5.0205611e-27
5.0951436e-27
5.1785692e-27
5.1748751e-27
4.8366534e-27
3.8994618e-27
2.3202108e-27
7.1289716e-28
3.6601622e-29
8.6983085e-34
1.1072112e-34
1.1556392e-29
2.9804157e-28
1.0923991e-27
1.9435852e-27
2.4822098e-27
2.6970891e-27
2.7209636e-27
2.6867003e-27
2.6509604e-27
2.6509598e-27
2.6866984e-27
2.720961e-27
2.6970865e-27
2.482208e-27
1.9435845e-27
1.0923996e-27
2.9804241e-28
1.1556492e-29
1.1071692e-34
1.5462642e-35
3.5920763e-30
1.2253934e-28
5.0607077e-28
9.5380424e-28
1.2549228e-27
1.3853549e-27
1.4094884e-27
1.397127e-27
1.3806656e-27
1.3806652e-27
1.3971258e-27
1.4094869e-27
1.3853534e-27
1.2549218e-27
9.5380402e-28
5.0607117e-28
1.2253975e-28
3.5921086e-30
1.5458793e-35
)
;

boundaryField
{
    Wall
    {
        type            zeroGradient;
    }
    frontAndBack
    {
        type            empty;
    }
    atmosphere
    {
        type            zeroGradient;
    }
}


// ************************************************************************* //
