/*--------------------------------*- C++ -*----------------------------------*\
| =========                 |                                                 |
| \\      /  F ield         | OpenFOAM: The Open Source CFD Toolbox           |
|  \\    /   O peration     | Version:  3.0.1                                 |
|   \\  /    A nd           | Web:      www.OpenFOAM.org                      |
|    \\/     M anipulation  |                                                 |
\*---------------------------------------------------------------------------*/
FoamFile
{
    version     2.0;
    format      ascii;
    class       volScalarField;
    location    "29";
    object      mTwo;
}
// * * * * * * * * * * * * * * * * * * * * * * * * * * * * * * * * * * * * * //

dimensions      [0 0 0 0 0 0 0];

internalField   nonuniform List<scalar> 
800
(
2.2180207e-11
2.2184455e-11
2.2185136e-11
2.2185184e-11
2.2185166e-11
2.2185152e-11
2.218515e-11
2.2185152e-11
2.2185155e-11
2.2185157e-11
2.2185157e-11
2.2185155e-11
2.2185152e-11
2.218515e-11
2.2185153e-11
2.2185166e-11
2.2185185e-11
2.2185136e-11
2.2184455e-11
2.2180207e-11
2.1486844e-11
2.153116e-11
2.1541145e-11
2.1543044e-11
2.1542934e-11
2.1542512e-11
2.1542182e-11
2.1541989e-11
2.1541894e-11
2.1541856e-11
2.1541857e-11
2.1541894e-11
2.1541989e-11
2.1542182e-11
2.1542512e-11
2.1542933e-11
2.1543043e-11
2.1541144e-11
2.1531158e-11
2.1486841e-11
2.0928716e-11
2.0994423e-11
2.1014207e-11
2.1018182e-11
2.1018373e-11
2.1017855e-11
2.1017405e-11
2.1017142e-11
2.1017014e-11
2.1016966e-11
2.1016966e-11
2.1017014e-11
2.1017141e-11
2.1017405e-11
2.1017854e-11
2.1018371e-11
2.1018181e-11
2.1014205e-11
2.099442e-11
2.0928711e-11
2.0556292e-11
2.06331e-11
2.0660181e-11
2.0665515e-11
2.0665869e-11
2.0665302e-11
2.066481e-11
2.0664538e-11
2.0664418e-11
2.0664377e-11
2.0664377e-11
2.0664417e-11
2.0664538e-11
2.0664809e-11
2.0665301e-11
2.0665868e-11
2.0665513e-11
2.0660179e-11
2.0633097e-11
2.0556287e-11
2.0403442e-11
2.0480794e-11
2.0512521e-11
2.0518945e-11
2.05192e-11
2.0518528e-11
2.0518006e-11
2.0517749e-11
2.0517654e-11
2.0517632e-11
2.0517632e-11
2.0517654e-11
2.0517749e-11
2.0518005e-11
2.0518527e-11
2.0519199e-11
2.0518943e-11
2.0512519e-11
2.0480792e-11
2.0403438e-11
2.048679e-11
2.055489e-11
2.0588824e-11
2.0596285e-11
2.0596155e-11
2.0595276e-11
2.0594697e-11
2.0594452e-11
2.0594386e-11
2.0594383e-11
2.0594383e-11
2.0594386e-11
2.0594452e-11
2.0594697e-11
2.0595276e-11
2.0596155e-11
2.0596284e-11
2.0588823e-11
2.0554889e-11
2.0486788e-11
2.0808384e-11
2.0859929e-11
2.0893126e-11
2.0901554e-11
2.0900765e-11
2.0899554e-11
2.0898866e-11
2.0898607e-11
2.0898557e-11
2.0898569e-11
2.0898569e-11
2.0898557e-11
2.0898607e-11
2.0898866e-11
2.0899554e-11
2.0900766e-11
2.0901555e-11
2.0893126e-11
2.0859929e-11
2.0808383e-11
2.1357644e-11
2.1388871e-11
2.1417747e-11
2.1426979e-11
2.1425317e-11
2.1423639e-11
2.1422766e-11
2.1422444e-11
2.1422384e-11
2.1422399e-11
2.1422399e-11
2.1422385e-11
2.1422444e-11
2.1422767e-11
2.142364e-11
2.1425318e-11
2.1426981e-11
2.1417748e-11
2.1388872e-11
2.1357645e-11
2.2110581e-11
2.2122528e-11
2.2143051e-11
2.2152814e-11
2.215074e-11
2.2148471e-11
2.2147305e-11
2.2146846e-11
2.2146737e-11
2.2146734e-11
2.2146735e-11
2.2146738e-11
2.2146846e-11
2.2147306e-11
2.2148473e-11
2.2150742e-11
2.2152816e-11
2.2143053e-11
2.212253e-11
2.2110583e-11
2.302969e-11
2.3030241e-11
2.3038239e-11
2.3048179e-11
2.3047126e-11
2.3044868e-11
2.3043248e-11
2.3042548e-11
2.3042337e-11
2.304229e-11
2.304229e-11
2.3042338e-11
2.3042549e-11
2.3043249e-11
2.304487e-11
2.3047128e-11
2.3048182e-11
2.3038242e-11
2.3030245e-11
2.3029693e-11
2.4064377e-11
2.4069743e-11
2.4062429e-11
2.4072139e-11
2.4074869e-11
2.4074334e-11
2.4072031e-11
2.4070948e-11
2.4070564e-11
2.4070437e-11
2.4070438e-11
2.4070565e-11
2.4070949e-11
2.4072032e-11
2.4074337e-11
2.4074872e-11
2.4072142e-11
2.4062433e-11
2.4069747e-11
2.406438e-11
2.5150909e-11
2.5184721e-11
2.5164337e-11
2.51732e-11
2.5183716e-11
2.5187234e-11
2.5183936e-11
2.5182271e-11
2.5181624e-11
2.5181367e-11
2.5181368e-11
2.5181625e-11
2.5182272e-11
2.5183937e-11
2.5187237e-11
2.5183719e-11
2.5173203e-11
2.5164341e-11
2.5184725e-11
2.5150912e-11
2.6211627e-11
2.6302942e-11
2.6280375e-11
2.6286449e-11
2.6309458e-11
2.6319016e-11
2.6314329e-11
2.6311763e-11
2.6311909e-11
2.6311392e-11
2.6311393e-11
2.6311909e-11
2.6311764e-11
2.6314331e-11
2.6319018e-11
2.6309461e-11
2.6286452e-11
2.6280379e-11
2.6302946e-11
2.621163e-11
2.7150789e-11
2.7335267e-11
2.732974e-11
2.7332191e-11
2.7372249e-11
2.7388707e-11
2.7382185e-11
2.737832e-11
2.7380803e-11
2.7379827e-11
2.7379827e-11
2.7380803e-11
2.737832e-11
2.7382186e-11
2.7388709e-11
2.7372251e-11
2.7332193e-11
2.7329743e-11
2.7335271e-11
2.7150791e-11
2.7836899e-11
2.8159242e-11
2.819396e-11
2.8195323e-11
2.8255627e-11
2.8278388e-11
2.8268954e-11
2.8263887e-11
2.8270147e-11
2.8271229e-11
2.8271229e-11
2.8270147e-11
2.8263886e-11
2.8268954e-11
2.8278389e-11
2.8255627e-11
2.8195324e-11
2.8193961e-11
2.8159244e-11
2.7836899e-11
2.8115034e-11
2.862667e-11
2.8725215e-11
2.8736237e-11
2.8817583e-11
2.8843731e-11
2.8827463e-11
2.8820628e-11
2.8832414e-11
2.8841412e-11
2.8841412e-11
2.8832414e-11
2.8820627e-11
2.8827462e-11
2.884373e-11
2.8817582e-11
2.8736237e-11
2.8725214e-11
2.8626669e-11
2.8115031e-11
2.7878971e-11
2.8627656e-11
2.8811739e-11
2.8847312e-11
2.8952882e-11
2.8975427e-11
2.894871e-11
2.8939809e-11
2.8957487e-11
2.8980069e-11
2.8980068e-11
2.8957485e-11
2.8939807e-11
2.8948707e-11
2.8975424e-11
2.895288e-11
2.8847309e-11
2.8811736e-11
2.8627652e-11
2.7878965e-11
2.700498e-11
2.8026579e-11
2.8316976e-11
2.8388665e-11
2.8527171e-11
2.8541285e-11
2.8505642e-11
2.8494915e-11
2.8514662e-11
2.8552879e-11
2.8552878e-11
2.851466e-11
2.8494912e-11
2.8505639e-11
2.8541281e-11
2.8527166e-11
2.838866e-11
2.831697e-11
2.8026573e-11
2.7004973e-11
2.5357715e-11
2.6676851e-11
2.7093913e-11
2.7205775e-11
2.7384783e-11
2.7393266e-11
2.7355716e-11
2.7344141e-11
2.736604e-11
2.7417511e-11
2.741751e-11
2.7366038e-11
2.7344137e-11
2.7355712e-11
2.7393261e-11
2.7384778e-11
2.7205769e-11
2.7093906e-11
2.6676844e-11
2.5357708e-11
2.280715e-11
2.4424201e-11
2.498573e-11
2.514309e-11
2.5363844e-11
2.5382679e-11
2.5351852e-11
2.5341018e-11
2.5371219e-11
2.5430464e-11
2.5430463e-11
2.5371217e-11
2.5341015e-11
2.5351848e-11
2.5382674e-11
2.5363838e-11
2.5143083e-11
2.4985723e-11
2.4424195e-11
2.2807148e-11
1.9286514e-11
2.1145303e-11
2.1866692e-11
2.2079009e-11
2.2341688e-11
2.238107e-11
2.23631e-11
2.2354941e-11
2.2407959e-11
2.2468437e-11
2.2468437e-11
2.2407957e-11
2.2354938e-11
2.2363096e-11
2.2381065e-11
2.2341683e-11
2.2079003e-11
2.1866686e-11
2.1145299e-11
1.9286517e-11
1.4948234e-11
1.6896094e-11
1.7735322e-11
1.8007111e-11
1.8303004e-11
1.8375507e-11
1.8374356e-11
1.8370457e-11
1.8441026e-11
1.8496503e-11
1.8496502e-11
1.8441025e-11
1.8370455e-11
1.8374353e-11
1.8375504e-11
1.8303e-11
1.8007106e-11
1.7735318e-11
1.6896093e-11
1.4948241e-11
1.0340154e-11
1.214587e-11
1.2991306e-11
1.3315847e-11
1.3596305e-11
1.3687705e-11
1.3738016e-11
1.3737132e-11
1.3805359e-11
1.3850262e-11
1.3850262e-11
1.3805359e-11
1.373713e-11
1.3738014e-11
1.3687702e-11
1.3596302e-11
1.3315843e-11
1.2991303e-11
1.2145872e-11
1.0340164e-11
6.3631036e-12
7.6678698e-12
8.3503175e-12
8.6227587e-12
8.8292301e-12
9.0126467e-12
9.0638153e-12
9.0654517e-12
9.1160708e-12
9.1473447e-12
9.1473447e-12
9.1160706e-12
9.0654514e-12
9.0638151e-12
9.0126461e-12
8.8292291e-12
8.6227575e-12
8.350318e-12
7.6678757e-12
6.3631172e-12
3.5977518e-12
4.5675074e-12
5.1356142e-12
5.3781462e-12
5.5317169e-12
5.6031868e-12
5.6348851e-12
5.6354321e-12
5.6677969e-12
5.6870204e-12
5.6870205e-12
5.6677973e-12
5.6354329e-12
5.6348863e-12
5.603188e-12
5.5317177e-12
5.378147e-12
5.1356167e-12
4.5675145e-12
3.597766e-12
1.720774e-12
2.592159e-12
3.0814066e-12
3.3050976e-12
3.4216941e-12
3.4643213e-12
3.4764941e-12
3.4714393e-12
3.4870376e-12
3.4964169e-12
3.496417e-12
3.4870379e-12
3.4714398e-12
3.4764949e-12
3.464322e-12
3.4216953e-12
3.3050986e-12
3.0814084e-12
2.5921645e-12
1.7207852e-12
6.414107e-13
1.3866504e-12
1.820257e-12
2.0321786e-12
2.1293496e-12
2.1566096e-12
2.1531954e-12
2.1394444e-12
2.1405762e-12
2.1417977e-12
2.1417979e-12
2.1405766e-12
2.1394451e-12
2.1531964e-12
2.1566107e-12
2.1293508e-12
2.0321798e-12
1.8202584e-12
1.3866541e-12
6.4141706e-13
1.8269399e-13
6.9672099e-13
1.0534314e-12
1.2448074e-12
1.3310694e-12
1.3523906e-12
1.3436396e-12
1.3264658e-12
1.3195349e-12
1.3159926e-12
1.3159927e-12
1.3195352e-12
1.3264663e-12
1.3436404e-12
1.3523914e-12
1.3310702e-12
1.2448082e-12
1.0534323e-12
6.9672321e-13
1.8269668e-13
4.0700578e-14
3.2941943e-13
5.9598262e-13
7.5648119e-13
8.3221413e-13
8.5196904e-13
8.4406959e-13
8.2804391e-13
8.1846784e-13
8.131409e-13
8.1314097e-13
8.1846804e-13
8.2804424e-13
8.4407009e-13
8.5196956e-13
8.3221449e-13
7.5648153e-13
5.9598302e-13
3.2942049e-13
4.0701419e-14
7.5175562e-15
1.4735495e-13
3.2952411e-13
4.5450283e-13
5.1783358e-13
5.3650163e-13
5.3159867e-13
5.1897276e-13
5.0996176e-13
5.0472522e-13
5.0472526e-13
5.0996187e-13
5.1897293e-13
5.3159894e-13
5.3650189e-13
5.178337e-13
4.5450293e-13
3.2952434e-13
1.4735549e-13
7.5177475e-15
1.2213681e-15
6.2653701e-14
1.7809776e-13
2.6939658e-13
3.1949205e-13
3.3624957e-13
3.3422028e-13
3.2536721e-13
3.1821416e-13
3.1391618e-13
3.139162e-13
3.182142e-13
3.2536727e-13
3.342204e-13
3.3624966e-13
3.1949206e-13
2.6939659e-13
1.7809789e-13
6.265397e-14
1.2214035e-15
1.8287172e-16
2.5523181e-14
9.4158216e-14
1.5733087e-13
1.9497212e-13
2.0908019e-13
2.0902811e-13
2.0336268e-13
1.9825075e-13
1.9508004e-13
1.9508005e-13
1.9825075e-13
2.0336268e-13
2.0902814e-13
2.090802e-13
1.9497208e-13
1.5733085e-13
9.4158294e-14
2.5523309e-14
1.8287743e-16
2.6091956e-17
1.0043275e-14
4.8737185e-14
9.0460991e-14
1.1749316e-13
1.2868943e-13
1.2969966e-13
1.2635898e-13
1.2297184e-13
1.2080101e-13
1.20801e-13
1.2297182e-13
1.2635895e-13
1.2969964e-13
1.2868941e-13
1.1749311e-13
9.0460963e-14
4.8737228e-14
1.0043331e-14
2.6092807e-17
3.6259443e-18
3.8441452e-15
2.4723768e-14
5.1188391e-14
6.9843754e-14
7.8283867e-14
7.9684083e-14
7.7874314e-14
7.5761652e-14
7.4357762e-14
7.4357754e-14
7.5761629e-14
7.7874281e-14
7.968405e-14
7.8283833e-14
6.9843713e-14
5.118837e-14
2.4723792e-14
3.8441686e-15
3.6260645e-18
4.9716526e-19
1.4385291e-15
1.2303694e-14
2.8501099e-14
4.0928783e-14
4.7015751e-14
4.8404517e-14
4.7520152e-14
4.6269476e-14
4.540293e-14
4.5402922e-14
4.6269454e-14
4.7520121e-14
4.8404485e-14
4.701572e-14
4.0928754e-14
2.8501087e-14
1.2303707e-14
1.4385384e-15
4.9718164e-19
6.7726176e-20
5.2806588e-16
6.0115428e-15
1.5613709e-14
2.3633687e-14
2.7857474e-14
2.9042533e-14
2.8673686e-14
2.7968688e-14
2.7454845e-14
2.7454838e-14
2.796867e-14
2.8673661e-14
2.9042507e-14
2.7857451e-14
2.363367e-14
1.5613703e-14
6.0115506e-15
5.2806948e-16
6.7728352e-20
9.2005209e-21
1.9055094e-16
2.8857786e-15
8.4162202e-15
1.3443908e-14
1.6276398e-14
1.719888e-14
1.7091627e-14
1.6713388e-14
1.641957e-14
1.6419565e-14
1.6713374e-14
1.7091609e-14
1.7198862e-14
1.6276383e-14
1.3443899e-14
8.4162185e-15
2.8857834e-15
1.9055231e-16
9.2008044e-21
1.2554422e-21
6.7671528e-17
1.3617354e-15
4.4640156e-15
7.5327009e-15
9.3747146e-15
1.0047601e-14
1.0056923e-14
9.8646615e-15
9.7023197e-15
9.7023162e-15
9.8646519e-15
1.005691e-14
1.0047589e-14
9.3747051e-15
7.5326961e-15
4.4640159e-15
1.3617383e-15
6.7672039e-17
1.2554537e-21
1.8158272e-22
2.366672e-17
6.3188211e-16
2.3300696e-15
4.1569829e-15
5.3217842e-15
5.7885778e-15
5.8385738e-15
5.7469873e-15
5.6602579e-15
5.6602555e-15
5.7469808e-15
5.8385652e-15
5.7885696e-15
5.3217786e-15
4.1569808e-15
2.3300705e-15
6.3188375e-16
2.366691e-17
1.8156193e-22
3.3194759e-23
8.1530006e-18
2.884036e-16
1.1969607e-15
2.2594113e-15
2.977179e-15
3.2879925e-15
3.3431479e-15
3.3032104e-15
3.2584392e-15
3.2584376e-15
3.3032061e-15
3.3431423e-15
3.2879874e-15
2.9771757e-15
2.2594105e-15
1.1969617e-15
2.8840451e-16
8.1530703e-18
3.318166e-23
)
;

boundaryField
{
    Wall
    {
        type            zeroGradient;
    }
    frontAndBack
    {
        type            empty;
    }
    atmosphere
    {
        type            zeroGradient;
    }
}


// ************************************************************************* //
