/*--------------------------------*- C++ -*----------------------------------*\
| =========                 |                                                 |
| \\      /  F ield         | OpenFOAM: The Open Source CFD Toolbox           |
|  \\    /   O peration     | Version:  3.0.1                                 |
|   \\  /    A nd           | Web:      www.OpenFOAM.org                      |
|    \\/     M anipulation  |                                                 |
\*---------------------------------------------------------------------------*/
FoamFile
{
    version     2.0;
    format      ascii;
    class       volScalarField;
    location    "29";
    object      muMixture;
}
// * * * * * * * * * * * * * * * * * * * * * * * * * * * * * * * * * * * * * //

dimensions      [1 -1 -1 0 0 0 0];

internalField   nonuniform List<scalar> 
800
(
0.001
0.001
0.001
0.001
0.001
0.001
0.001
0.001
0.001
0.001
0.001
0.001
0.001
0.001
0.001
0.001
0.001
0.001
0.001
0.001
0.001
0.001
0.001
0.001
0.001
0.001
0.001
0.001
0.001
0.001
0.001
0.001
0.001
0.001
0.001
0.001
0.001
0.001
0.001
0.001
0.00099999996
0.00099999996
0.00099999996
0.00099999996
0.00099999996
0.00099999996
0.00099999996
0.00099999996
0.00099999996
0.00099999996
0.00099999996
0.00099999996
0.00099999996
0.00099999996
0.00099999996
0.00099999996
0.00099999996
0.00099999996
0.00099999996
0.00099999996
0.00099999981
0.00099999983
0.00099999983
0.00099999983
0.00099999983
0.00099999983
0.00099999983
0.00099999983
0.00099999983
0.00099999983
0.00099999983
0.00099999983
0.00099999983
0.00099999983
0.00099999983
0.00099999983
0.00099999983
0.00099999983
0.00099999983
0.00099999981
0.00099999948
0.00099999953
0.00099999955
0.00099999956
0.00099999956
0.00099999956
0.00099999955
0.00099999955
0.00099999955
0.00099999955
0.00099999955
0.00099999955
0.00099999955
0.00099999955
0.00099999956
0.00099999956
0.00099999956
0.00099999955
0.00099999953
0.00099999948
0.00099999891
0.00099999902
0.00099999906
0.00099999907
0.00099999907
0.00099999907
0.00099999907
0.00099999907
0.00099999907
0.00099999907
0.00099999907
0.00099999907
0.00099999907
0.00099999907
0.00099999907
0.00099999907
0.00099999907
0.00099999906
0.00099999902
0.00099999891
0.00099999803
0.00099999824
0.00099999832
0.00099999833
0.00099999833
0.00099999833
0.00099999833
0.00099999833
0.00099999833
0.00099999832
0.00099999832
0.00099999833
0.00099999833
0.00099999833
0.00099999833
0.00099999833
0.00099999833
0.00099999832
0.00099999824
0.00099999803
0.00099999679
0.00099999713
0.00099999727
0.0009999973
0.0009999973
0.00099999729
0.00099999729
0.00099999728
0.00099999728
0.00099999728
0.00099999728
0.00099999728
0.00099999728
0.00099999729
0.00099999729
0.0009999973
0.0009999973
0.00099999727
0.00099999713
0.00099999679
0.00099999516
0.00099999565
0.00099999589
0.00099999593
0.00099999593
0.00099999592
0.00099999592
0.00099999591
0.00099999591
0.00099999591
0.00099999591
0.00099999591
0.00099999591
0.00099999592
0.00099999592
0.00099999593
0.00099999593
0.00099999589
0.00099999565
0.00099999516
0.0009999931
0.00099999378
0.00099999416
0.00099999422
0.00099999422
0.00099999421
0.0009999942
0.00099999419
0.00099999418
0.00099999418
0.00099999418
0.00099999418
0.00099999419
0.0009999942
0.00099999421
0.00099999422
0.00099999422
0.00099999416
0.00099999378
0.0009999931
0.0009999906
0.00099999148
0.00099999206
0.00099999216
0.00099999215
0.00099999214
0.00099999212
0.00099999211
0.0009999921
0.0009999921
0.0009999921
0.0009999921
0.00099999211
0.00099999212
0.00099999214
0.00099999215
0.00099999216
0.00099999206
0.00099999148
0.0009999906
0.00099998768
0.00099998879
0.00099998959
0.00099998976
0.00099998975
0.00099998972
0.0009999897
0.00099998969
0.00099998968
0.00099998967
0.00099998967
0.00099998968
0.00099998969
0.0009999897
0.00099998972
0.00099998975
0.00099998976
0.00099998959
0.00099998879
0.00099998768
0.00099998437
0.0009999857
0.00099998665
0.00099998702
0.00099998701
0.00099998698
0.00099998695
0.00099998693
0.00099998692
0.00099998692
0.00099998692
0.00099998692
0.00099998693
0.00099998695
0.00099998698
0.00099998701
0.00099998702
0.00099998665
0.0009999857
0.00099998437
0.00099998067
0.00099998183
0.0009999827
0.000999984
0.00099998398
0.00099998393
0.0009999839
0.00099998388
0.00099998386
0.00099998386
0.00099998386
0.00099998386
0.00099998388
0.0009999839
0.00099998393
0.00099998398
0.000999984
0.0009999827
0.00099998183
0.00099998067
0.00099997638
0.00099997217
0.00099997892
0.00099998079
0.00099998069
0.00099998064
0.00099998059
0.00099998057
0.00099998055
0.00099998054
0.00099998054
0.00099998055
0.00099998057
0.00099998059
0.00099998064
0.00099998069
0.00099998079
0.00099997892
0.00099997217
0.00099997638
0.00099997116
0.00099996972
0.00099997832
0.00099997722
0.00099997718
0.00099997711
0.00099997706
0.00099997703
0.00099997701
0.000999977
0.000999977
0.00099997701
0.00099997703
0.00099997706
0.00099997711
0.00099997718
0.00099997722
0.00099997832
0.00099996972
0.00099997116
0.00099996602
0.00099997343
0.00099997484
0.00099997351
0.00099997339
0.00099997331
0.00099997325
0.00099997321
0.00099997319
0.00099997318
0.00099997318
0.00099997319
0.00099997321
0.00099997325
0.00099997331
0.00099997339
0.00099997351
0.00099997484
0.00099997343
0.00099996602
0.00099996256
0.00099997193
0.00099996982
0.00099996926
0.00099996912
0.00099996903
0.00099996896
0.00099996893
0.00099996891
0.0009999689
0.0009999689
0.00099996891
0.00099996893
0.00099996896
0.00099996903
0.00099996912
0.00099996926
0.00099996982
0.00099997193
0.00099996256
0.00099995292
0.00099996439
0.00099996333
0.00099996329
0.00099996325
0.00099996319
0.00099996314
0.00099996312
0.00099996312
0.00099996313
0.00099996313
0.00099996312
0.00099996312
0.00099996314
0.00099996319
0.00099996325
0.00099996329
0.00099996333
0.00099996439
0.00099995292
0.00099991668
0.00099994332
0.0009999473
0.00099994855
0.00099994921
0.00099994946
0.00099994959
0.00099994967
0.0009999498
0.00099994985
0.00099994985
0.0009999498
0.00099994967
0.00099994959
0.00099994946
0.00099994921
0.00099994855
0.0009999473
0.00099994332
0.00099991668
0.00099963844
0.00099980647
0.00099985217
0.00099986499
0.00099987203
0.00099987545
0.00099987727
0.00099987834
0.0009998795
0.00099988004
0.00099988004
0.0009998795
0.00099987834
0.00099987727
0.00099987545
0.00099987204
0.000999865
0.00099985217
0.00099980648
0.00099963845
0.00099470267
0.00099789933
0.00099866106
0.00099886562
0.00099897771
0.00099903038
0.0009990598
0.00099907691
0.00099909309
0.00099910071
0.00099910071
0.0009990931
0.00099907691
0.0009990598
0.00099903039
0.00099897772
0.00099886563
0.00099866107
0.00099789938
0.00099470287
0.00080682131
0.00092529218
0.00095538421
0.00096401015
0.00096889721
0.00097115371
0.00097245066
0.00097317296
0.00097383799
0.00097414809
0.00097414812
0.00097383809
0.00097317311
0.00097245089
0.000971154
0.00096889759
0.00096401064
0.00095538492
0.000925294
0.00080682703
1e-05
1e-05
1e-05
1e-05
1e-05
0.00050565882
0.00051412151
0.00051893297
0.00052347191
0.00052560454
0.00052560476
0.00052347259
0.00051893406
0.00051412306
0.00050566073
1e-05
1e-05
1e-05
1e-05
1e-05
1e-05
1e-05
1e-05
1e-05
1e-05
1e-05
1e-05
1e-05
1e-05
1e-05
1e-05
1e-05
1e-05
1e-05
1e-05
1e-05
1e-05
1e-05
1e-05
1e-05
1e-05
1e-05
1e-05
1e-05
1e-05
1e-05
1e-05
1e-05
1e-05
1e-05
1e-05
1e-05
1e-05
1e-05
1e-05
1e-05
1e-05
1e-05
1e-05
1e-05
1e-05
1e-05
1e-05
1e-05
1e-05
1e-05
1e-05
1e-05
1e-05
1e-05
1e-05
1e-05
1e-05
1e-05
1e-05
1e-05
1e-05
1e-05
1e-05
1e-05
1e-05
1e-05
1e-05
1e-05
1e-05
1e-05
1e-05
1e-05
1e-05
1e-05
1e-05
1e-05
1e-05
1e-05
1e-05
1e-05
1e-05
1e-05
1e-05
1e-05
1e-05
1e-05
1e-05
1e-05
1e-05
1e-05
1e-05
1e-05
1e-05
1e-05
1e-05
1e-05
1e-05
1e-05
1e-05
1e-05
1e-05
1e-05
1e-05
1e-05
1e-05
1e-05
1e-05
1e-05
1e-05
1e-05
1e-05
1e-05
1e-05
1e-05
1e-05
1e-05
1e-05
1e-05
1e-05
1e-05
1e-05
1e-05
1e-05
1e-05
1e-05
1e-05
1e-05
1e-05
1e-05
1e-05
1e-05
1e-05
1e-05
1e-05
1e-05
1e-05
1e-05
1e-05
1e-05
1e-05
1e-05
1e-05
1e-05
1e-05
1e-05
1e-05
1e-05
1e-05
1e-05
1e-05
1e-05
1e-05
1e-05
1e-05
1e-05
1e-05
1e-05
1e-05
1e-05
1e-05
1e-05
1e-05
1e-05
1e-05
1e-05
1e-05
1e-05
1e-05
1e-05
1e-05
1e-05
1e-05
1e-05
1e-05
1e-05
1e-05
1e-05
1e-05
1e-05
1e-05
1e-05
1e-05
1e-05
1e-05
1e-05
1e-05
1e-05
1e-05
1e-05
1e-05
1e-05
1e-05
1e-05
1e-05
1e-05
1e-05
1e-05
1e-05
1e-05
1e-05
1e-05
1e-05
1e-05
1e-05
1e-05
1e-05
1e-05
1e-05
1e-05
1e-05
1e-05
1e-05
1e-05
1e-05
1e-05
1e-05
1e-05
1e-05
1e-05
1e-05
1e-05
1e-05
1e-05
1e-05
1e-05
1e-05
1e-05
1e-05
1e-05
1e-05
1e-05
1e-05
1e-05
1e-05
1e-05
1e-05
1e-05
1e-05
1e-05
1e-05
1e-05
1e-05
1e-05
1e-05
1e-05
1e-05
1e-05
1e-05
1e-05
1e-05
1e-05
1e-05
1e-05
1e-05
1e-05
1e-05
1e-05
1e-05
1e-05
1e-05
1e-05
1e-05
1e-05
1e-05
1e-05
1e-05
1e-05
1e-05
1e-05
1e-05
1e-05
1e-05
1e-05
1e-05
1e-05
1e-05
1e-05
1e-05
1e-05
1e-05
1e-05
1e-05
1e-05
1e-05
1e-05
1e-05
1e-05
1e-05
1e-05
1e-05
1e-05
1e-05
1e-05
1e-05
1e-05
1e-05
1e-05
1e-05
1e-05
1e-05
1e-05
1e-05
1e-05
1e-05
1e-05
1e-05
1e-05
1e-05
1e-05
1e-05
1e-05
1e-05
1e-05
1e-05
1e-05
1e-05
1e-05
1e-05
1e-05
1e-05
1e-05
1e-05
1e-05
1e-05
)
;

boundaryField
{
    Wall
    {
        type            zeroGradient;
    }
    frontAndBack
    {
        type            empty;
    }
    atmosphere
    {
        type            zeroGradient;
    }
}


// ************************************************************************* //
