/*--------------------------------*- C++ -*----------------------------------*\
| =========                 |                                                 |
| \\      /  F ield         | OpenFOAM: The Open Source CFD Toolbox           |
|  \\    /   O peration     | Version:  3.0.1                                 |
|   \\  /    A nd           | Web:      www.OpenFOAM.org                      |
|    \\/     M anipulation  |                                                 |
\*---------------------------------------------------------------------------*/
FoamFile
{
    version     2.0;
    format      ascii;
    class       volScalarField;
    location    "29";
    object      mZero;
}
// * * * * * * * * * * * * * * * * * * * * * * * * * * * * * * * * * * * * * //

dimensions      [0 0 0 0 0 0 0];

internalField   nonuniform List<scalar> 
800
(
1e+13
1e+13
1e+13
1e+13
1e+13
1e+13
1e+13
1e+13
1e+13
1e+13
1e+13
1e+13
1e+13
1e+13
1e+13
1e+13
1e+13
1e+13
1e+13
1e+13
1e+13
1e+13
1e+13
1e+13
1e+13
1e+13
1e+13
1e+13
1e+13
1e+13
1e+13
1e+13
1e+13
1e+13
1e+13
1e+13
1e+13
1e+13
1e+13
1e+13
9.9196534e+12
9.9217788e+12
9.9226507e+12
9.9229166e+12
9.9229697e+12
9.9229576e+12
9.9229319e+12
9.9229099e+12
9.9228955e+12
9.9228887e+12
9.9228887e+12
9.9228955e+12
9.9229099e+12
9.9229318e+12
9.9229574e+12
9.9229696e+12
9.9229165e+12
9.9226505e+12
9.9217785e+12
9.9196531e+12
9.7733109e+12
9.7793599e+12
9.7815515e+12
9.7821988e+12
9.7823313e+12
9.7822985e+12
9.7822317e+12
9.782174e+12
9.7821356e+12
9.7821171e+12
9.7821171e+12
9.7821355e+12
9.7821738e+12
9.7822315e+12
9.7822982e+12
9.782331e+12
9.7821984e+12
9.781551e+12
9.7793593e+12
9.77331e+12
9.5735998e+12
9.5849946e+12
9.588764e+12
9.589842e+12
9.5900522e+12
9.5899836e+12
9.5898618e+12
9.5897577e+12
9.5896881e+12
9.5896545e+12
9.5896544e+12
9.5896879e+12
9.5897575e+12
9.5898614e+12
9.5899831e+12
9.5900516e+12
9.5898413e+12
9.5887631e+12
9.5849937e+12
9.5735984e+12
9.3316821e+12
9.3494289e+12
9.3549439e+12
9.3564756e+12
9.3567476e+12
9.3566259e+12
9.3564364e+12
9.3562775e+12
9.3561715e+12
9.3561203e+12
9.3561203e+12
9.3561713e+12
9.3562771e+12
9.3564359e+12
9.3566252e+12
9.3567468e+12
9.3564747e+12
9.3549428e+12
9.3494277e+12
9.3316804e+12
9.0572116e+12
9.0821172e+12
9.0894725e+12
9.0914579e+12
9.0917635e+12
9.0915691e+12
9.0913011e+12
9.0910806e+12
9.090935e+12
9.0908647e+12
9.0908646e+12
9.0909347e+12
9.0910802e+12
9.0913004e+12
9.0915683e+12
9.0917625e+12
9.0914568e+12
9.0894712e+12
9.0821157e+12
9.0572098e+12
8.7584596e+12
8.7912146e+12
8.8004924e+12
8.8029213e+12
8.8032204e+12
8.802933e+12
8.8025776e+12
8.8022919e+12
8.8021047e+12
8.8020146e+12
8.8020145e+12
8.8021044e+12
8.8022913e+12
8.8025769e+12
8.802932e+12
8.8032193e+12
8.80292e+12
8.800491e+12
8.7912131e+12
8.7584577e+12
8.4423781e+12
8.4835855e+12
8.4949026e+12
8.4977744e+12
8.4980374e+12
8.497636e+12
8.4971891e+12
8.4968379e+12
8.4966091e+12
8.496499e+12
8.4964989e+12
8.4966087e+12
8.4968373e+12
8.4971883e+12
8.497635e+12
8.4980361e+12
8.4977731e+12
8.4949012e+12
8.4835839e+12
8.4423763e+12
8.1146084e+12
8.1648366e+12
8.1783721e+12
8.1817144e+12
8.1819305e+12
8.1814108e+12
8.1808761e+12
8.1804637e+12
8.1801941e+12
8.1800645e+12
8.1800644e+12
8.1801937e+12
8.1804631e+12
8.1808752e+12
8.1814097e+12
8.1819293e+12
8.1817131e+12
8.1783707e+12
8.1648351e+12
8.1146069e+12
7.7795006e+12
7.8393283e+12
7.8553634e+12
7.8592525e+12
7.8594384e+12
7.8588188e+12
7.8582073e+12
7.8577413e+12
7.8574312e+12
7.8572823e+12
7.8572821e+12
7.8574307e+12
7.8577407e+12
7.8582064e+12
7.8588177e+12
7.8594372e+12
7.8592513e+12
7.8553621e+12
7.839327e+12
7.7794993e+12
7.4401957e+12
7.5102352e+12
7.5292034e+12
7.533786e+12
7.5339992e+12
7.5333139e+12
7.5326384e+12
7.5321282e+12
7.5317705e+12
7.5316017e+12
7.5316016e+12
7.5317701e+12
7.5321275e+12
7.5326376e+12
7.5333129e+12
7.5339981e+12
7.5337849e+12
7.5292022e+12
7.510234e+12
7.4401945e+12
7.0987221e+12
7.1796528e+12
7.2021852e+12
7.2076928e+12
7.208037e+12
7.2073255e+12
7.2065946e+12
7.2060503e+12
7.2056453e+12
7.2054549e+12
7.2054548e+12
7.2056449e+12
7.2060497e+12
7.2065938e+12
7.2073246e+12
7.208036e+12
7.2076917e+12
7.202184e+12
7.1796517e+12
7.098721e+12
6.7559772e+12
6.8486232e+12
6.8755848e+12
6.8823878e+12
6.8830215e+12
6.882324e+12
6.8815398e+12
6.8809698e+12
6.8805286e+12
6.880304e+12
6.8803039e+12
6.8805282e+12
6.8809691e+12
6.881539e+12
6.8823232e+12
6.8830205e+12
6.8823869e+12
6.8755837e+12
6.8486222e+12
6.7559762e+12
6.412557e+12
6.5178773e+12
6.5504296e+12
6.5591055e+12
6.5602562e+12
6.559618e+12
6.5587658e+12
6.5581541e+12
6.5576941e+12
6.5574329e+12
6.5574327e+12
6.5576938e+12
6.5581535e+12
6.5587651e+12
6.5596172e+12
6.5602554e+12
6.5591046e+12
6.5504286e+12
6.5178763e+12
6.412556e+12
6.0685629e+12
6.1877336e+12
6.2274423e+12
6.2388549e+12
6.2408439e+12
6.2403179e+12
6.2393689e+12
6.2386876e+12
6.2382247e+12
6.2379366e+12
6.2379364e+12
6.2382243e+12
6.238687e+12
6.2393682e+12
6.2403172e+12
6.2408431e+12
6.2388541e+12
6.2274413e+12
6.1877327e+12
6.068562e+12
5.7225285e+12
5.8570419e+12
5.9060142e+12
5.9214156e+12
5.924746e+12
5.9244321e+12
5.9233558e+12
5.9225498e+12
5.9220709e+12
5.9217584e+12
5.9217583e+12
5.9220705e+12
5.9225492e+12
5.9233551e+12
5.9244314e+12
5.9247453e+12
5.9214149e+12
5.9060133e+12
5.8570411e+12
5.7225278e+12
5.3710606e+12
5.5229094e+12
5.5839709e+12
5.6051411e+12
5.6105907e+12
5.6106889e+12
5.6094574e+12
5.6084352e+12
5.6079063e+12
5.6075528e+12
5.6075527e+12
5.607906e+12
5.6084346e+12
5.6094568e+12
5.6106883e+12
5.61059e+12
5.6051405e+12
5.5839701e+12
5.5229088e+12
5.3710602e+12
5.0090255e+12
5.1808614e+12
5.2578244e+12
5.287296e+12
5.2960954e+12
5.2969511e+12
5.2955355e+12
5.2941612e+12
5.2935157e+12
5.2930763e+12
5.2930761e+12
5.2935153e+12
5.2941606e+12
5.2955349e+12
5.2969506e+12
5.2960948e+12
5.2872954e+12
5.2578237e+12
5.1808609e+12
5.0090256e+12
4.6289985e+12
4.8243418e+12
4.9224385e+12
4.9638126e+12
4.9779459e+12
4.9801602e+12
4.9785492e+12
4.9766324e+12
4.975701e+12
4.9750889e+12
4.9750888e+12
4.9757006e+12
4.9766318e+12
4.9785487e+12
4.9801597e+12
4.9779454e+12
4.9638121e+12
4.922438e+12
4.8243417e+12
4.6289992e+12
4.2202307e+12
4.4440142e+12
4.570426e+12
4.6290889e+12
4.6515289e+12
4.6560645e+12
4.6543122e+12
4.6515954e+12
4.6501055e+12
4.6491724e+12
4.6491722e+12
4.6501052e+12
4.6515948e+12
4.6543117e+12
4.6560641e+12
4.6515285e+12
4.6290886e+12
4.5704257e+12
4.4440145e+12
4.2202321e+12
3.7673684e+12
4.0268705e+12
4.1915034e+12
4.2751097e+12
4.3103487e+12
4.3192592e+12
4.317571e+12
4.3137215e+12
4.3112484e+12
4.3097489e+12
4.3097487e+12
4.3112481e+12
4.313721e+12
4.3175706e+12
4.3192589e+12
4.3103485e+12
4.2751095e+12
4.1915033e+12
4.0268712e+12
3.7673708e+12
3.2480518e+12
3.5539218e+12
3.7706017e+12
3.8909492e+12
3.9460423e+12
3.9624904e+12
3.9618026e+12
3.9564379e+12
3.95237e+12
3.9499231e+12
3.9499229e+12
3.9523697e+12
3.9564374e+12
3.9618024e+12
3.9624902e+12
3.9460422e+12
3.8909492e+12
3.7706021e+12
3.5539234e+12
3.2480556e+12
2.6127519e+12
2.9877351e+12
3.27952e+12
3.4555612e+12
3.5428909e+12
3.5731192e+12
3.5751031e+12
3.5677916e+12
3.5612803e+12
3.5573111e+12
3.5573109e+12
3.56128e+12
3.5677912e+12
3.5751031e+12
3.5731193e+12
3.542891e+12
3.4555615e+12
3.279521e+12
2.987738e+12
2.6127579e+12
1.8556307e+12
2.3144042e+12
2.6876873e+12
2.9377894e+12
3.0745119e+12
3.128447e+12
3.1363748e+12
3.1265237e+12
3.1159964e+12
3.1093921e+12
3.1093919e+12
3.1159961e+12
3.1265235e+12
3.136375e+12
3.1284473e+12
3.0745123e+12
2.93779e+12
2.6876889e+12
2.3144081e+12
1.8556381e+12
1.0797927e+12
1.6613472e+12
2.0938153e+12
2.4039708e+12
2.5909092e+12
2.6740214e+12
2.6909011e+12
2.6784416e+12
2.6622643e+12
2.6517709e+12
2.6517707e+12
2.6622639e+12
2.6784412e+12
2.6909011e+12
2.6740216e+12
2.5909096e+12
2.4039715e+12
2.0938168e+12
1.6613509e+12
1.0797996e+12
4.7933038e+11
1.1160666e+12
1.5840515e+12
1.9273622e+12
2.1453757e+12
2.2493703e+12
2.2727657e+12
2.2569379e+12
2.2343064e+12
2.219276e+12
2.2192757e+12
2.234306e+12
2.2569375e+12
2.2727658e+12
2.2493706e+12
2.1453762e+12
1.927363e+12
1.5840529e+12
1.1160696e+12
4.7933507e+11
1.5992085e+11
7.0875457e+11
1.1724447e+12
1.5238765e+12
1.7538631e+12
1.8676594e+12
1.8944516e+12
1.876153e+12
1.8485549e+12
1.8298621e+12
1.8298618e+12
1.8485543e+12
1.8761525e+12
1.8944514e+12
1.8676595e+12
1.7538633e+12
1.5238771e+12
1.1724457e+12
7.0875667e+11
1.5992317e+11
4.1297623e+10
4.2702811e+11
8.504784e+11
1.1895678e+12
1.4166077e+12
1.5312709e+12
1.558941e+12
1.5397564e+12
1.5098724e+12
1.4893245e+12
1.4893241e+12
1.5098718e+12
1.5397557e+12
1.5589406e+12
1.5312707e+12
1.4166075e+12
1.189568e+12
8.504788e+11
4.2702924e+11
4.1298458e+10
8.7873938e+09
2.4380882e+11
6.0388016e+11
9.1487858e+11
1.1282601e+12
1.2376135e+12
1.2646788e+12
1.2463895e+12
1.2170451e+12
1.1966204e+12
1.19662e+12
1.2170444e+12
1.2463887e+12
1.2646782e+12
1.2376131e+12
1.1282597e+12
9.1487841e+11
6.0388032e+11
2.4380949e+11
8.7876119e+09
1.640383e+09
1.3180128e+11
4.183369e+11
6.9097932e+11
8.8366468e+11
9.8386698e+11
1.0095743e+12
9.9364712e+11
9.6703995e+11
9.4832813e+11
9.483277e+11
9.6703914e+11
9.9364618e+11
1.0095736e+12
9.8386642e+11
8.8366419e+11
6.9097901e+11
4.1833696e+11
1.3180169e+11
1.6404291e+09
2.8212117e+08
6.7727502e+10
2.8184287e+11
5.1088252e+11
6.7883702e+11
7.6776232e+11
7.9173581e+11
7.7904461e+11
7.5650492e+11
7.4047357e+11
7.4047316e+11
7.565041e+11
7.7904363e+11
7.9173503e+11
7.677617e+11
6.788365e+11
5.1088219e+11
2.8184289e+11
6.7727753e+10
2.8212966e+08
46252364
3.3280216e+10
1.8427304e+11
3.6885563e+11
5.10453e+11
5.8716595e+11
6.0915522e+11
5.9994718e+11
5.8196198e+11
5.6898932e+11
5.6898893e+11
5.8196119e+11
5.9994622e+11
6.0915444e+11
5.8716533e+11
5.1045252e+11
3.6885534e+11
1.8427305e+11
3.3280357e+10
46253811
7386318.8
1.573383e+10
1.1682975e+11
2.5966017e+11
3.7520401e+11
4.3959899e+11
4.5936657e+11
4.5338482e+11
4.3979433e+11
4.2980665e+11
4.298063e+11
4.3979361e+11
4.5338394e+11
4.5936584e+11
4.3959842e+11
3.752036e+11
2.5965996e+11
1.1682976e+11
1.5733904e+10
7386552
1163243.8
7.1926769e+09
7.1843839e+10
1.7809223e+11
2.6938221e+11
3.2197988e+11
3.3931659e+11
3.3598747e+11
3.2622905e+11
3.1887505e+11
3.1887475e+11
3.2622842e+11
3.3598669e+11
3.3931594e+11
3.2197939e+11
2.693819e+11
1.780921e+11
7.1843864e+10
7.1927141e+09
1163280
181837.52
3.1913693e+09
4.2890005e+10
1.1899365e+11
1.8885682e+11
2.3064432e+11
2.4542149e+11
2.4405202e+11
2.3738542e+11
2.3218768e+11
2.3218743e+11
2.373849e+11
2.4405136e+11
2.4542095e+11
2.3064392e+11
1.8885659e+11
1.1899357e+11
4.2890035e+10
3.1913873e+09
181843
28412.593
1.378029e+09
2.4886654e+10
7.7477687e+10
1.2929566e+11
1.6157834e+11
1.7379042e+11
1.7371291e+11
1.6938255e+11
1.6584767e+11
1.6584747e+11
1.6938212e+11
1.7371238e+11
1.7378998e+11
1.6157803e+11
1.2929549e+11
7.7477654e+10
2.4886682e+10
1.3780374e+09
28413.442
4669.211
5.8016884e+08
1.4052738e+10
4.9186857e+10
8.6466866e+10
1.1071812e+11
1.2049322e+11
1.2115224e+11
1.1848616e+11
1.1616967e+11
1.1616952e+11
1.1848583e+11
1.2115182e+11
1.2049287e+11
1.1071788e+11
8.6466756e+10
4.9186849e+10
1.405276e+10
5.8017273e+08
4668.8942
1066.22
2.38477e+08
7.7313016e+09
3.046781e+10
5.6509119e+10
7.4229177e+10
8.1807851e+10
8.2793802e+10
8.1248945e+10
7.9785326e+10
7.978521e+10
8.1248692e+10
8.2793481e+10
8.1807589e+10
7.4229008e+10
5.6509047e+10
3.0467814e+10
7.7313183e+09
2.3847874e+08
1065.7959
418.27938
95799727
4.1486344e+09
1.842758e+10
3.6108329e+10
4.8708911e+10
5.4404192e+10
5.5448947e+10
5.4618383e+10
5.3727085e+10
5.3727e+10
5.4618197e+10
5.5448709e+10
5.4403999e+10
4.870879e+10
3.6108282e+10
1.8427588e+10
4.1486456e+09
95800498
418.08476
)
;

boundaryField
{
    Wall
    {
        type            zeroGradient;
    }
    frontAndBack
    {
        type            empty;
    }
    atmosphere
    {
        type            zeroGradient;
    }
}


// ************************************************************************* //
