/*--------------------------------*- C++ -*----------------------------------*\
| =========                 |                                                 |
| \\      /  F ield         | OpenFOAM: The Open Source CFD Toolbox           |
|  \\    /   O peration     | Version:  3.0.1                                 |
|   \\  /    A nd           | Web:      www.OpenFOAM.org                      |
|    \\/     M anipulation  |                                                 |
\*---------------------------------------------------------------------------*/
FoamFile
{
    version     2.0;
    format      ascii;
    class       volScalarField;
    location    "29";
    object      node0;
}
// * * * * * * * * * * * * * * * * * * * * * * * * * * * * * * * * * * * * * //

dimensions      [0 0 0 0 0 0 0];

internalField   nonuniform List<scalar> 
800
(
0
0
0
0
0
0
0
0
0
0
0
0
0
0
0
0
0
0
0
0
0
0
0
0
0
0
0
0
0
0
0
0
0
0
0
0
0
0
0
0
0
0
0
0
0
0
0
0
0
0
0
0
0
0
0
0
0
0
0
0
0
0
0
0
0
0
0
0
0
0
0
0
0
0
0
0
0
0
0
0
0
0
0
0
0
0
0
0
0
0
0
0
0
0
0
0
0
0
0
0
0
0
0
0
0
0
0
0
0
0
0
0
0
0
0
0
0
0
0
0
0
0
0
0
0
0
0
0
0
0
0
0
0
0
0
0
0
0
0
0
0
0
0
0
0
0
0
0
0
0
0
0
0
0
0
0
0
0
0
0
0
0
0
0
0
0
0
0
0
0
0
0
0
0
0
0
0
0
0
0
0
0
0
0
0
0
0
0
0
0
0
0
0
0
0
0
0
0
0
0
0
0
0
0
0
0
0
0
0
0
0
0
0
0
0
0
0
0
0
0
0
0
0
0
0
0
0
0
0
0
0
0
0
0
0
0
0
0
0
0
0
0
0
0
0
0
0
0
0
0
0
0
0
0
0
0
0
0
0
0
0
0
0
0
0
0
0
0
0
0
0
0
0
0
0
0
0
0
0
0
0
0
0
0
0
0
0
0
0
0
0
0
0
0
0
0
0
0
0
0
5.8966486e-14
7.1489095e-14
7.8418861e-14
8.3424089e-14
8.7430819e-14
8.826665e-14
8.6503906e-14
8.2615603e-14
8.2422901e-14
8.2963788e-14
8.2963758e-14
8.2422872e-14
8.2615542e-14
8.6503886e-14
8.8266662e-14
8.7430873e-14
8.3424199e-14
7.8418949e-14
7.1489236e-14
5.8966674e-14
3.3586917e-13
3.3958648e-13
3.459898e-13
3.5322766e-13
3.5652797e-13
3.5648511e-13
3.5409119e-13
3.4911422e-13
3.481369e-13
3.4887494e-13
3.4887491e-13
3.481369e-13
3.4911421e-13
3.5409125e-13
3.5648523e-13
3.5652815e-13
3.5322791e-13
3.4599005e-13
3.3958676e-13
3.3586943e-13
6.1186909e-13
6.0933395e-13
6.1525681e-13
6.2356956e-13
6.2691037e-13
6.2611549e-13
6.2325997e-13
6.1825838e-13
6.162963e-13
6.1713127e-13
6.1713126e-13
6.1629631e-13
6.182584e-13
6.2326007e-13
6.2611566e-13
6.2691061e-13
6.2356985e-13
6.1525712e-13
6.0933428e-13
6.1186934e-13
8.5124482e-13
8.5015448e-13
8.5628541e-13
8.6362516e-13
8.6738344e-13
8.6609569e-13
8.6323759e-13
8.5930609e-13
8.5697614e-13
8.5816928e-13
8.5816928e-13
8.5697616e-13
8.5930613e-13
8.6323768e-13
8.6609585e-13
8.6738366e-13
8.6362542e-13
8.5628569e-13
8.5015475e-13
8.5124497e-13
1.0022442e-12
1.0119772e-12
1.0186049e-12
1.0222101e-12
1.0265839e-12
1.0253902e-12
1.0231713e-12
1.0208457e-12
1.0194189e-12
1.0211633e-12
1.0211633e-12
1.0194189e-12
1.0208458e-12
1.0231714e-12
1.0253904e-12
1.026584e-12
1.0222103e-12
1.0186051e-12
1.0119773e-12
1.0022443e-12
1.0279829e-12
1.0522166e-12
1.0591617e-12
1.0578069e-12
1.0615982e-12
1.0605423e-12
1.0592638e-12
1.0584707e-12
1.0594504e-12
1.061561e-12
1.061561e-12
1.0594505e-12
1.0584708e-12
1.0592639e-12
1.0605424e-12
1.0615983e-12
1.0578071e-12
1.0591619e-12
1.0522168e-12
1.0279831e-12
9.3215901e-13
9.6778848e-13
9.7249518e-13
9.6519447e-13
9.6587939e-13
9.6665462e-13
9.6620988e-13
9.6655203e-13
9.6944681e-13
9.7166895e-13
9.71669e-13
9.6944691e-13
9.6655218e-13
9.6621001e-13
9.6665474e-13
9.6587953e-13
9.651946e-13
9.7249531e-13
9.677886e-13
9.3215915e-13
7.5739286e-13
7.9563554e-13
7.9373681e-13
7.8329862e-13
7.7756801e-13
7.7596989e-13
7.8112552e-13
7.8201548e-13
7.8536092e-13
7.8753521e-13
7.8753527e-13
7.8536104e-13
7.8201564e-13
7.8112565e-13
7.7597001e-13
7.7756811e-13
7.832987e-13
7.9373688e-13
7.9563559e-13
7.5739291e-13
0
0
0
0
0
5.4887374e-13
5.5036673e-13
5.5133598e-13
5.5424146e-13
5.5624204e-13
5.5624212e-13
5.542416e-13
5.5133616e-13
5.5036688e-13
5.4887388e-13
0
0
0
0
0
0
0
0
0
0
0
0
0
0
0
0
0
0
0
0
0
0
0
0
0
0
0
0
0
0
0
0
0
0
0
0
0
0
0
0
0
0
0
0
0
0
0
0
0
0
0
0
0
0
0
0
0
0
0
0
0
0
0
0
0
0
0
0
0
0
0
0
0
0
0
0
0
0
0
0
0
0
0
0
0
0
0
0
0
0
0
0
0
0
0
0
0
0
0
0
0
0
0
0
0
0
0
0
0
0
0
0
0
0
0
0
0
0
0
0
0
0
0
0
0
0
0
0
0
0
0
0
0
0
0
0
0
0
0
0
0
0
0
0
0
0
0
0
0
0
0
0
0
0
0
0
0
0
0
0
0
0
0
0
0
0
0
0
0
0
0
0
0
0
0
0
0
0
0
0
0
0
0
0
0
0
0
0
0
0
0
0
0
0
0
0
0
0
0
0
0
0
0
0
0
0
0
0
0
0
0
0
0
0
0
0
0
0
0
0
0
0
0
0
0
0
0
0
0
0
0
0
0
0
0
0
0
0
0
0
0
0
0
0
0
0
0
0
0
0
0
0
0
0
0
0
0
0
0
0
0
0
0
0
0
0
0
0
0
0
0
0
0
0
0
0
0
0
0
0
0
0
0
0
0
0
0
0
0
0
0
0
0
0
0
0
0
0
0
0
0
0
0
0
0
0
0
0
0
0
0
0
0
0
0
0
0
0
0
0
0
0
0
0
0
)
;

boundaryField
{
    Wall
    {
        type            zeroGradient;
    }
    frontAndBack
    {
        type            empty;
    }
    atmosphere
    {
        type            zeroGradient;
    }
}


// ************************************************************************* //
