/*--------------------------------*- C++ -*----------------------------------*\
| =========                 |                                                 |
| \\      /  F ield         | OpenFOAM: The Open Source CFD Toolbox           |
|  \\    /   O peration     | Version:  3.0.1                                 |
|   \\  /    A nd           | Web:      www.OpenFOAM.org                      |
|    \\/     M anipulation  |                                                 |
\*---------------------------------------------------------------------------*/
FoamFile
{
    version     2.0;
    format      ascii;
    class       volScalarField;
    location    "29";
    object      node1;
}
// * * * * * * * * * * * * * * * * * * * * * * * * * * * * * * * * * * * * * //

dimensions      [0 0 0 0 0 0 0];

internalField   nonuniform List<scalar> 
800
(
1.4865098e-12
1.4866523e-12
1.4866751e-12
1.4866767e-12
1.4866761e-12
1.4866756e-12
1.4866755e-12
1.4866756e-12
1.4866757e-12
1.4866758e-12
1.4866758e-12
1.4866757e-12
1.4866756e-12
1.4866755e-12
1.4866756e-12
1.4866761e-12
1.4866767e-12
1.4866751e-12
1.4866523e-12
1.4865098e-12
1.4624928e-12
1.4640404e-12
1.4643863e-12
1.4644516e-12
1.4644477e-12
1.4644333e-12
1.4644221e-12
1.4644156e-12
1.4644125e-12
1.4644113e-12
1.4644113e-12
1.4644125e-12
1.4644156e-12
1.4644221e-12
1.4644333e-12
1.4644477e-12
1.4644516e-12
1.4643862e-12
1.4640403e-12
1.4624927e-12
1.4489892e-12
1.4511508e-12
1.451783e-12
1.4519024e-12
1.4519054e-12
1.4518886e-12
1.4518752e-12
1.451868e-12
1.4518648e-12
1.4518638e-12
1.4518638e-12
1.4518648e-12
1.4518679e-12
1.4518752e-12
1.4518886e-12
1.4519054e-12
1.4519024e-12
1.451783e-12
1.4511507e-12
1.448989e-12
1.4467028e-12
1.4489974e-12
1.4498006e-12
1.4499418e-12
1.449945e-12
1.449928e-12
1.4499161e-12
1.4499112e-12
1.4499101e-12
1.4499101e-12
1.4499101e-12
1.4499101e-12
1.4499112e-12
1.4499161e-12
1.4499279e-12
1.449945e-12
1.4499418e-12
1.4498006e-12
1.4489974e-12
1.4467026e-12
1.4561381e-12
1.4580823e-12
1.458942e-12
1.4590912e-12
1.4590855e-12
1.4590675e-12
1.4590586e-12
1.4590578e-12
1.45906e-12
1.4590618e-12
1.4590618e-12
1.45906e-12
1.4590578e-12
1.4590586e-12
1.4590675e-12
1.4590855e-12
1.4590912e-12
1.458942e-12
1.4580823e-12
1.4561381e-12
1.4773911e-12
1.4785421e-12
1.4793511e-12
1.4795014e-12
1.4794776e-12
1.4794567e-12
1.4794514e-12
1.4794555e-12
1.4794617e-12
1.4794657e-12
1.4794658e-12
1.4794617e-12
1.4794555e-12
1.4794515e-12
1.4794567e-12
1.4794776e-12
1.4795014e-12
1.4793512e-12
1.4785421e-12
1.4773911e-12
1.5105605e-12
1.5104076e-12
1.5110121e-12
1.5111545e-12
1.5111023e-12
1.5110755e-12
1.5110734e-12
1.5110827e-12
1.5110932e-12
1.5110995e-12
1.5110996e-12
1.5110932e-12
1.5110827e-12
1.5110735e-12
1.5110756e-12
1.5111024e-12
1.5111546e-12
1.5110122e-12
1.5104077e-12
1.5105606e-12
1.5562427e-12
1.5544756e-12
1.5547087e-12
1.5548343e-12
1.5547486e-12
1.5547138e-12
1.5547141e-12
1.554728e-12
1.5547426e-12
1.5547512e-12
1.5547512e-12
1.5547426e-12
1.554728e-12
1.5547142e-12
1.5547139e-12
1.5547487e-12
1.5548344e-12
1.5547089e-12
1.5544758e-12
1.5562429e-12
1.6136921e-12
1.6101042e-12
1.6097505e-12
1.6098443e-12
1.6097462e-12
1.6097012e-12
1.609701e-12
1.6097175e-12
1.6097353e-12
1.6097456e-12
1.6097456e-12
1.6097353e-12
1.6097176e-12
1.6097011e-12
1.6097014e-12
1.6097464e-12
1.6098445e-12
1.6097507e-12
1.6101045e-12
1.6136923e-12
1.681846e-12
1.6765282e-12
1.6753484e-12
1.6753874e-12
1.6753442e-12
1.6753181e-12
1.6753108e-12
1.6753257e-12
1.6753446e-12
1.6753557e-12
1.6753557e-12
1.6753447e-12
1.6753258e-12
1.6753109e-12
1.6753182e-12
1.6753444e-12
1.6753877e-12
1.6753487e-12
1.6765285e-12
1.6818463e-12
1.7588139e-12
1.7521983e-12
1.75e-12
1.7499506e-12
1.7500887e-12
1.7501604e-12
1.7501347e-12
1.7501409e-12
1.7501582e-12
1.7501684e-12
1.7501685e-12
1.7501583e-12
1.750141e-12
1.7501349e-12
1.7501606e-12
1.7500889e-12
1.7499509e-12
1.7500003e-12
1.7521986e-12
1.7588142e-12
1.8422942e-12
1.8350158e-12
1.8318103e-12
1.8316222e-12
1.8321082e-12
1.8323727e-12
1.8323123e-12
1.8322993e-12
1.8323119e-12
1.8323191e-12
1.8323191e-12
1.832312e-12
1.8322994e-12
1.8323125e-12
1.8323729e-12
1.8321084e-12
1.8316225e-12
1.8318106e-12
1.8350161e-12
1.8422945e-12
1.9299519e-12
1.922699e-12
1.9188239e-12
1.9183823e-12
1.9193806e-12
1.919899e-12
1.9197827e-12
1.919733e-12
1.9197915e-12
1.9197896e-12
1.9197897e-12
1.9197916e-12
1.9197331e-12
1.9197829e-12
1.9198992e-12
1.9193809e-12
1.9183826e-12
1.9188242e-12
1.9226993e-12
1.9299522e-12
2.0193609e-12
2.0129492e-12
2.0090034e-12
2.0082432e-12
2.0098775e-12
2.010653e-12
2.0104545e-12
2.0103441e-12
2.0105054e-12
2.0104869e-12
2.0104869e-12
2.0105054e-12
2.0103442e-12
2.0104546e-12
2.0106532e-12
2.0098777e-12
2.0082435e-12
2.0090037e-12
2.0129495e-12
2.0193612e-12
2.1061249e-12
2.1017555e-12
2.0983809e-12
2.0973255e-12
2.099654e-12
2.1006384e-12
2.1003053e-12
2.1001508e-12
2.1004475e-12
2.1005209e-12
2.1005209e-12
2.1004476e-12
2.1001508e-12
2.1003055e-12
2.1006386e-12
2.0996542e-12
2.0973258e-12
2.0983812e-12
2.1017557e-12
2.1061252e-12
2.1830712e-12
2.1823635e-12
2.1800686e-12
2.1789755e-12
2.1819715e-12
2.183045e-12
2.1824166e-12
2.1822092e-12
2.1826907e-12
2.1830827e-12
2.1830827e-12
2.1826908e-12
2.1822093e-12
2.1824167e-12
2.1830451e-12
2.1819717e-12
2.1789756e-12
2.1800688e-12
2.1823637e-12
2.1830713e-12
2.2474855e-12
2.251952e-12
2.2511206e-12
2.2503944e-12
2.2541497e-12
2.2550217e-12
2.2539297e-12
2.253615e-12
2.2542681e-12
2.2551791e-12
2.2551791e-12
2.2542682e-12
2.253615e-12
2.2539297e-12
2.2550218e-12
2.2541498e-12
2.2503945e-12
2.2511207e-12
2.2519521e-12
2.2474855e-12
2.2970999e-12
2.3079417e-12
2.3089432e-12
2.3088519e-12
2.3136728e-12
2.3141127e-12
2.3125557e-12
2.3120974e-12
2.3127044e-12
2.3141951e-12
2.3141952e-12
2.3127045e-12
2.3120974e-12
2.3125557e-12
2.3141127e-12
2.3136728e-12
2.308852e-12
2.3089432e-12
2.3079417e-12
2.2970998e-12
2.3292039e-12
2.3478303e-12
2.3512203e-12
2.3518305e-12
2.3579251e-12
2.3579558e-12
2.3560981e-12
2.3555082e-12
2.3559718e-12
2.3579733e-12
2.3579733e-12
2.3559718e-12
2.3555082e-12
2.3560981e-12
2.3579558e-12
2.3579251e-12
2.3518305e-12
2.3512203e-12
2.3478303e-12
2.3292038e-12
2.3383046e-12
2.3668627e-12
2.3735413e-12
2.3750431e-12
2.382345e-12
2.3824672e-12
2.3805348e-12
2.3798848e-12
2.3803895e-12
2.3827867e-12
2.3827867e-12
2.3803895e-12
2.3798848e-12
2.3805348e-12
2.3824672e-12
2.3823449e-12
2.3750431e-12
2.3735413e-12
2.3668626e-12
2.3383045e-12
2.3123372e-12
2.3537489e-12
2.3653083e-12
2.3677984e-12
2.3764794e-12
2.377061e-12
2.3752836e-12
2.3747034e-12
2.3759856e-12
2.3786881e-12
2.3786881e-12
2.3759856e-12
2.3747034e-12
2.3752836e-12
2.377061e-12
2.3764794e-12
2.3677983e-12
2.3653083e-12
2.3537489e-12
2.3123372e-12
2.235315e-12
2.291307e-12
2.3082321e-12
2.3120244e-12
2.3223466e-12
2.3238402e-12
2.3225324e-12
2.3221522e-12
2.3244619e-12
2.3274179e-12
2.3274179e-12
2.3244619e-12
2.3221522e-12
2.3225324e-12
2.3238401e-12
2.3223465e-12
2.3120244e-12
2.308232e-12
2.2913069e-12
2.235315e-12
2.0994197e-12
2.1702536e-12
2.190885e-12
2.1966294e-12
2.2073769e-12
2.209467e-12
2.2108147e-12
2.2105963e-12
2.2135876e-12
2.2167209e-12
2.2167209e-12
2.2135876e-12
2.2105963e-12
2.2108147e-12
2.2094669e-12
2.2073768e-12
2.1966292e-12
2.1908848e-12
2.1702535e-12
2.0994197e-12
0
0
0
0
0
2.0239848e-12
2.0259948e-12
2.0259719e-12
2.0291427e-12
2.0323289e-12
2.0323289e-12
2.0291426e-12
2.0259719e-12
2.0259947e-12
2.0239847e-12
0
0
0
0
0
0
0
0
0
0
0
0
0
0
0
0
0
0
0
0
0
0
0
0
0
0
0
0
0
0
0
0
0
0
0
0
0
0
0
0
0
0
0
0
0
0
0
0
0
0
0
0
0
0
0
0
0
0
0
0
0
0
0
0
0
0
0
0
0
0
0
0
0
0
0
0
0
0
0
0
0
0
0
0
0
0
0
0
0
0
0
0
0
0
0
0
0
0
0
0
0
0
0
0
0
0
0
0
0
0
0
0
0
0
0
0
0
0
0
0
0
0
0
0
0
0
0
0
0
0
0
0
0
0
0
0
0
0
0
0
0
0
0
0
0
0
0
0
0
0
0
0
0
0
0
0
0
0
0
0
0
0
0
0
0
0
0
0
0
0
0
0
0
0
0
0
0
0
0
0
0
0
0
0
0
0
0
0
0
0
0
0
0
0
0
0
0
0
0
0
0
0
0
0
0
0
0
0
0
0
0
0
0
0
0
0
0
0
0
0
0
0
0
0
0
0
0
0
0
0
0
0
0
0
0
0
0
0
0
0
0
0
0
0
0
0
0
0
0
0
0
0
0
0
0
0
0
0
0
0
0
0
0
0
0
0
0
0
0
0
0
0
0
0
0
0
0
0
0
0
0
0
0
0
0
0
0
0
0
0
0
0
0
0
0
0
0
0
0
0
0
0
0
0
0
0
0
0
0
0
0
0
0
0
0
0
0
0
0
0
0
0
0
0
0
)
;

boundaryField
{
    Wall
    {
        type            zeroGradient;
    }
    frontAndBack
    {
        type            empty;
    }
    atmosphere
    {
        type            zeroGradient;
    }
}


// ************************************************************************* //
