/*--------------------------------*- C++ -*----------------------------------*\
| =========                 |                                                 |
| \\      /  F ield         | OpenFOAM: The Open Source CFD Toolbox           |
|  \\    /   O peration     | Version:  3.0.1                                 |
|   \\  /    A nd           | Web:      www.OpenFOAM.org                      |
|    \\/     M anipulation  |                                                 |
\*---------------------------------------------------------------------------*/
FoamFile
{
    version     2.0;
    format      ascii;
    class       surfaceScalarField;
    location    "29";
    object      phi;
}
// * * * * * * * * * * * * * * * * * * * * * * * * * * * * * * * * * * * * * //

dimensions      [0 3 -1 0 0 0 0];

internalField   nonuniform List<scalar> 
1540
(
4.6326314e-10
1.5404574e-08
5.9418141e-10
1.5741506e-08
6.0322544e-10
1.5864291e-08
5.4975363e-10
1.5926734e-08
4.6795584e-10
1.5954855e-08
3.7545867e-10
1.5965414e-08
2.8044174e-10
1.5967864e-08
1.8593338e-10
1.596733e-08
9.2511269e-11
1.5966238e-08
-1.8645015e-13
1.5965515e-08
-9.2880621e-11
1.5965511e-08
-1.862915e-10
1.5966228e-08
-2.8078216e-10
1.5967313e-08
-3.7577587e-10
1.5967842e-08
-4.6824459e-10
1.5965387e-08
-5.5001037e-10
1.5954823e-08
-6.0344629e-10
1.5926698e-08
-5.943653e-10
1.5864253e-08
-4.633999e-10
1.5741459e-08
1.5404436e-08
2.7397264e-10
3.1484014e-08
4.8293439e-10
3.1872877e-08
5.3847619e-10
3.2148621e-08
5.1388026e-10
3.2291185e-08
4.4928976e-10
3.2359308e-08
3.6663909e-10
3.238787e-08
2.7684493e-10
3.2397378e-08
1.8478707e-10
3.2399025e-08
9.2316152e-11
3.2398285e-08
-1.4471837e-13
3.239752e-08
-9.2602356e-11
3.2397513e-08
-1.8506454e-10
3.2398266e-08
-2.7710917e-10
3.2398995e-08
-3.6688497e-10
3.2397337e-08
-4.4951267e-10
3.2387821e-08
-5.1407608e-10
3.235925e-08
-5.3864034e-10
3.2291117e-08
-4.8305692e-10
3.2148542e-08
-2.7403719e-10
3.1872773e-08
3.1483811e-08
3.6363944e-10
4.7880873e-08
4.9847293e-10
4.847767e-08
5.3007252e-10
4.8854134e-08
4.9998255e-10
4.9058375e-08
4.3683856e-10
4.9159644e-08
3.5743942e-10
4.9204407e-08
2.707514e-10
4.9221061e-08
1.8117405e-10
4.9225442e-08
9.0644285e-11
4.9225533e-08
-1.0533238e-13
4.9224923e-08
-9.0852737e-11
4.9224915e-08
-1.8137611e-10
4.9225508e-08
-2.7094418e-10
4.9225402e-08
-3.5761811e-10
4.9221006e-08
-4.3699902e-10
4.9204339e-08
-5.0012055e-10
4.9159563e-08
-5.3018271e-10
4.9058278e-08
-4.9854507e-10
4.8854017e-08
-3.6366309e-10
4.8477516e-08
4.7880644e-08
3.7771897e-10
6.4590617e-08
5.0596149e-10
6.541067e-08
5.2707257e-10
6.5890571e-08
4.9181078e-10
6.6151968e-08
4.2752585e-10
6.6282515e-08
3.4917599e-10
6.63413e-08
2.6443047e-10
6.6364146e-08
1.7701608e-10
6.6370967e-08
8.8612896e-11
6.6371866e-08
-7.9988653e-14
6.637145e-08
-8.8771833e-11
6.637144e-08
-1.7716998e-10
6.6371836e-08
-2.6457688e-10
6.6370919e-08
-3.4931119e-10
6.636408e-08
-4.276456e-10
6.6341217e-08
-4.9191288e-10
6.6282414e-08
-5.2715102e-10
6.6151848e-08
-5.0601114e-10
6.5890424e-08
-3.7773713e-10
6.5410482e-08
6.4590369e-08
3.6241951e-10
8.1581113e-08
4.9981833e-10
8.259684e-08
5.2050073e-10
8.3189105e-08
4.8390498e-10
8.3509041e-08
4.1928399e-10
8.3668065e-08
3.417309e-10
8.3739763e-08
2.5851606e-10
8.3768009e-08
1.7298873e-10
8.3776841e-08
8.6599171e-11
8.3778362e-08
-6.0481389e-14
8.3778087e-08
-8.6718438e-11
8.3778076e-08
-1.7310458e-10
8.3778328e-08
-2.5862594e-10
8.3776786e-08
-3.4183108e-10
8.3767932e-08
-4.1937239e-10
8.3739666e-08
-4.8397738e-10
8.3667947e-08
-5.2055475e-10
8.3508901e-08
-4.9985172e-10
8.3188936e-08
-3.6243305e-10
8.259663e-08
8.158085e-08
3.6298842e-10
9.8800956e-08
4.9961077e-10
1.0001099e-07
5.1773263e-10
1.0071581e-07
4.7871165e-10
1.0109374e-07
4.1306588e-10
1.0128001e-07
3.3570954e-10
1.0136342e-07
2.5350985e-10
1.0139618e-07
1.6946782e-10
1.0140648e-07
8.4799331e-11
1.0140832e-07
-4.4453527e-14
1.0140806e-07
-8.4887133e-11
1.0140805e-07
-1.6955308e-10
1.0140828e-07
-2.5358985e-10
1.0140641e-07
-3.3578166e-10
1.0139609e-07
-4.1312768e-10
1.0136331e-07
-4.7875993e-10
1.0127988e-07
-5.1776565e-10
1.0109358e-07
-4.9962768e-10
1.0071562e-07
-3.6299297e-10
1.0001076e-07
9.8800687e-08
3.7204608e-10
1.1624042e-07
5.0631992e-10
1.1765126e-07
5.2010084e-10
1.1846817e-07
4.7702056e-10
1.1890257e-07
4.0934224e-10
1.191142e-07
3.3145124e-10
1.192078e-07
2.4968643e-10
1.1924404e-07
1.6666075e-10
1.1925514e-07
8.3331264e-11
1.1925692e-07
-3.0315128e-14
1.192565e-07
-8.3391021e-11
1.1925649e-07
-1.6671805e-10
1.1925688e-07
-2.4973948e-10
1.1925507e-07
-3.3149744e-10
1.1924395e-07
-4.0937929e-10
1.1920768e-07
-4.7704603e-10
1.1911406e-07
-5.2011286e-10
1.189024e-07
-5.0631862e-10
1.1846797e-07
-3.7203634e-10
1.1765103e-07
1.1624015e-07
3.8446102e-10
1.3392038e-07
5.1749451e-10
1.355366e-07
5.2629348e-10
1.3646563e-07
4.7800527e-10
1.3695488e-07
4.0767397e-10
1.3719023e-07
3.287557e-10
1.3729239e-07
2.4697341e-10
1.3733101e-07
1.6455359e-10
1.373422e-07
8.2200057e-11
1.3734349e-07
-1.3725672e-14
1.373427e-07
-8.2226552e-11
1.3734268e-07
-1.6457875e-10
1.3734345e-07
-2.4699474e-10
1.3734213e-07
-3.2877207e-10
1.3733091e-07
-4.0768299e-10
1.3729226e-07
-4.7800507e-10
1.3719008e-07
-5.2628137e-10
1.3695469e-07
-5.1747024e-10
1.3646541e-07
-3.8442997e-10
1.3553636e-07
1.3392015e-07
4.0070162e-10
1.518906e-07
5.3246688e-10
1.5371725e-07
5.353129e-10
1.5475772e-07
4.8096538e-10
1.5529979e-07
4.0725783e-10
1.5555722e-07
3.2716262e-10
1.5566679e-07
2.4507985e-10
1.5570682e-07
1.6297463e-10
1.557174e-07
8.1320557e-11
1.5571775e-07
2.1603364e-15
1.5571635e-07
-8.1316778e-11
1.5571634e-07
-1.6296943e-10
1.557177e-07
-2.4507299e-10
1.5571733e-07
-3.2715143e-10
1.5570671e-07
-4.0724216e-10
1.5566666e-07
-4.8094358e-10
1.5555706e-07
-5.3528434e-10
1.552996e-07
-5.3243168e-10
1.547575e-07
-4.006651e-10
1.5371701e-07
1.5189041e-07
4.220074e-10
1.7022298e-07
5.503786e-10
1.7226706e-07
5.4609894e-10
1.7341746e-07
4.8518733e-10
1.7400953e-07
4.0763441e-10
1.7428716e-07
3.261342e-10
1.7440314e-07
2.4355191e-10
1.7444352e-07
1.6159999e-10
1.7445274e-07
8.052192e-11
1.7445164e-07
1.5462449e-14
1.7444937e-07
-8.0490748e-11
1.7444935e-07
-1.6156862e-10
1.744516e-07
-2.4351937e-10
1.7445266e-07
-3.2610029e-10
1.7444342e-07
-4.0759927e-10
1.74403e-07
-4.851506e-10
1.74287e-07
-5.4606243e-10
1.7400934e-07
-5.5034689e-10
1.7341724e-07
-4.2199012e-10
1.7226682e-07
1.702228e-07
4.4918186e-10
1.890148e-07
5.6938128e-10
1.9128318e-07
5.5699654e-10
1.9254184e-07
4.8969321e-10
1.9317968e-07
4.0831405e-10
1.9347435e-07
3.2484166e-10
1.9359467e-07
2.4161026e-10
1.9363388e-07
1.5978631e-10
1.9364079e-07
7.9481778e-11
1.9363749e-07
2.4332673e-14
1.9363401e-07
-7.9432675e-11
1.9363399e-07
-1.5973695e-10
1.9363745e-07
-2.4156136e-10
1.9364071e-07
-3.2479365e-10
1.9363377e-07
-4.0826754e-10
1.9359454e-07
-4.8964967e-10
1.9347419e-07
-5.5696001e-10
1.931795e-07
-5.6935734e-10
1.9254163e-07
-4.4917992e-10
1.9128297e-07
1.8901462e-07
4.8180231e-10
2.0839119e-07
5.8706913e-10
2.1088929e-07
5.6500043e-10
2.1225362e-07
4.9206857e-10
2.1292856e-07
4.0726615e-10
2.1323415e-07
3.2142447e-10
2.1335475e-07
2.3781738e-10
2.1339043e-07
1.562957e-10
2.1339405e-07
7.7689661e-11
2.1338921e-07
4.1922499e-14
2.1338424e-07
-7.7606224e-11
2.1338423e-07
-1.5621315e-10
2.1338917e-07
-2.377371e-10
2.1339398e-07
-3.2134712e-10
2.1339033e-07
-4.0719404e-10
2.1335462e-07
-4.9200369e-10
2.13234e-07
-5.6494734e-10
2.1292839e-07
-5.870326e-10
2.1225343e-07
-4.8178839e-10
2.108891e-07
2.0839102e-07
5.1779041e-10
2.2849693e-07
5.9963047e-10
2.3123458e-07
5.629046e-10
2.3269701e-07
4.8682284e-10
2.3339662e-07
3.9993628e-10
2.3370371e-07
3.1280679e-10
2.3381843e-07
2.3036239e-10
2.3384765e-07
1.5081462e-10
2.3384677e-07
7.4402781e-11
2.3384089e-07
5.4736071e-14
2.3383302e-07
-7.4293448e-11
2.3383301e-07
-1.5070825e-10
2.3384086e-07
-2.3025926e-10
2.338467e-07
-3.1270914e-10
2.3384756e-07
-3.9984612e-10
2.3381832e-07
-4.8674375e-10
2.3370357e-07
-5.6284005e-10
2.3339646e-07
-5.9958403e-10
2.3269684e-07
-5.1776477e-10
2.3123441e-07
2.2849679e-07
5.494409e-10
2.4959563e-07
5.9831633e-10
2.5257969e-07
5.3962789e-10
2.5412476e-07
4.6467412e-10
2.5483496e-07
3.7923888e-10
2.5513066e-07
2.9469669e-10
2.5523162e-07
2.1655845e-10
2.5525008e-07
1.4230063e-10
2.5523926e-07
6.7906092e-11
2.552326e-07
6.3932396e-14
2.5522315e-07
-6.7777502e-11
2.5522313e-07
-1.4217712e-10
2.5523257e-07
-2.1643897e-10
2.552392e-07
-2.9458445e-10
2.5525e-07
-3.7913541e-10
2.5523151e-07
-4.6458341e-10
2.5513053e-07
-5.3955409e-10
2.5483482e-07
-5.9825841e-10
2.541246e-07
-5.4940634e-10
2.5257954e-07
2.4959552e-07
5.5931602e-10
2.7234684e-07
5.6847715e-10
2.755744e-07
4.8329512e-10
2.7718865e-07
4.1316877e-10
2.7789657e-07
3.3618474e-10
2.7816309e-07
2.6068913e-10
2.7823948e-07
1.9018523e-10
2.7823792e-07
1.2821796e-10
2.7821461e-07
5.885742e-11
2.7820728e-07
7.0819014e-14
2.7819995e-07
-5.8719135e-11
2.7819994e-07
-1.2807999e-10
2.7820724e-07
-1.9005395e-10
2.7821456e-07
-2.6056474e-10
2.7823784e-07
-3.3607181e-10
2.7823938e-07
-4.1306786e-10
2.7816297e-07
-4.832131e-10
2.7789645e-07
-5.6841942e-10
2.7718852e-07
-5.5927967e-10
2.7557428e-07
2.7234677e-07
5.4962514e-10
2.9678467e-07
5.0126009e-10
3.0026473e-07
3.8473217e-10
3.0192111e-07
3.1643479e-10
3.0260841e-07
2.5812406e-10
3.0283258e-07
1.9946176e-10
3.0287122e-07
1.4653945e-10
3.0283996e-07
1.0618112e-10
3.0280196e-07
4.7930862e-11
3.0279219e-07
7.7100202e-14
3.027883e-07
-4.7776052e-11
3.0278829e-07
-1.0602967e-10
3.0279217e-07
-1.4639872e-10
3.0280192e-07
-1.9932738e-10
3.028399e-07
-2.5800298e-10
3.0287114e-07
-3.1633087e-10
3.0283249e-07
-3.8464597e-10
3.0260831e-07
-5.0118733e-10
3.01921e-07
-5.4959245e-10
3.0026465e-07
2.9678465e-07
5.0995258e-10
3.2276947e-07
3.8106471e-10
3.2649851e-07
2.277673e-10
3.2815385e-07
1.5964579e-10
3.2878927e-07
1.2832129e-10
3.2896373e-07
9.9479363e-11
3.2895403e-07
7.9968104e-11
3.2888911e-07
7.3101941e-11
3.2883465e-07
3.4843639e-11
3.2881475e-07
7.9156432e-14
3.288134e-07
-3.4682267e-11
3.2881339e-07
-7.2947842e-11
3.2881473e-07
-7.9814032e-11
3.2883461e-07
-9.933918e-11
3.2888906e-07
-1.2819235e-10
3.2895397e-07
-1.595307e-10
3.2896366e-07
-2.2768239e-10
3.2878921e-07
-3.8101811e-10
3.2815378e-07
-5.099458e-10
3.2649849e-07
3.2276946e-07
4.0335265e-10
3.504908e-07
1.8064628e-10
3.5444074e-07
-1.0360081e-11
3.5606017e-07
-6.4570369e-11
3.5659768e-07
-5.8717844e-11
3.5671682e-07
-4.3045466e-11
3.5665484e-07
-1.5245116e-11
3.5655656e-07
2.0576026e-11
3.5648585e-07
1.538009e-11
3.5645503e-07
7.4616945e-14
3.5645691e-07
-1.5241763e-11
3.5645691e-07
-2.0430381e-11
3.5645501e-07
1.539085e-11
3.5648581e-07
4.3189852e-11
3.5655651e-07
5.8841911e-11
3.566548e-07
6.4681432e-11
3.5671677e-07
1.0448652e-11
3.5659765e-07
-1.8058919e-10
3.5606014e-07
-4.0332997e-10
3.5444076e-07
3.5049083e-07
1.8417192e-10
3.8003821e-07
-1.5113773e-10
3.841431e-07
-3.6555817e-10
3.8569559e-07
-3.6537439e-10
3.861124e-07
-3.0907222e-10
3.8617967e-07
-2.2361339e-10
3.8608509e-07
-1.332118e-10
3.8596115e-07
-4.6849015e-11
3.8588045e-07
-1.073221e-11
3.8584383e-07
7.8114324e-14
3.8585012e-07
1.0892475e-11
3.8585011e-07
4.7002172e-11
3.8584381e-07
1.3335241e-10
3.8588042e-07
2.2375173e-10
3.8596111e-07
3.0921257e-10
3.8608505e-07
3.6550706e-10
3.8617962e-07
3.6567139e-10
3.8611239e-07
1.5121596e-10
3.856956e-07
-1.841341e-10
3.8414317e-07
3.8003829e-07
-1.3411649e-10
4.112113e-07
-6.2960301e-10
4.1542265e-07
-8.5154053e-10
4.1694459e-07
-7.436701e-10
4.1726694e-07
-6.0057898e-10
4.1729223e-07
-4.2946989e-10
4.1717559e-07
-2.6537845e-10
4.1703415e-07
-1.2962713e-10
4.1696068e-07
-4.0851073e-11
4.1695406e-07
7.2616496e-14
4.1697408e-07
4.0996384e-11
4.1697408e-07
1.2977219e-10
4.1695404e-07
2.6552692e-10
4.1696065e-07
4.2960729e-10
4.1703412e-07
6.0071432e-10
4.1717556e-07
7.4379676e-10
4.172922e-07
8.5168167e-10
4.1726691e-07
6.2972155e-10
4.1694462e-07
1.3416943e-10
4.1542278e-07
4.1121144e-07
-5.7512087e-10
4.435671e-07
-1.2280401e-09
4.4789014e-07
-1.434526e-09
4.4939844e-07
-1.1735391e-09
4.4964149e-07
-9.1194357e-10
4.4967986e-07
-6.56094e-10
4.4970026e-07
-3.9375255e-10
4.4954235e-07
-1.8863037e-10
4.4949532e-07
-6.5234867e-11
4.4951236e-07
7.0799267e-14
4.4954323e-07
6.5375802e-11
4.4954322e-07
1.8877033e-10
4.4951235e-07
3.93895e-10
4.494953e-07
6.5623248e-10
4.4954233e-07
9.1209795e-10
4.4970022e-07
1.1736862e-09
4.4967984e-07
1.4346585e-09
4.4964149e-07
1.2281599e-09
4.4939848e-07
5.7521427e-10
4.478903e-07
4.4356733e-07
-1.1721034e-09
4.7961739e-07
-1.9540161e-09
4.8181546e-07
-2.0586715e-09
4.8294843e-07
-1.5847737e-09
4.8353452e-07
-1.1518047e-09
4.8353318e-07
-8.7407716e-10
4.8349869e-07
-5.1146771e-10
4.837248e-07
-2.3951536e-10
4.8370903e-07
-8.8838254e-11
4.8371759e-07
6.2966204e-14
4.8374271e-07
8.8965655e-11
4.8374271e-07
2.396403e-10
4.8371758e-07
5.1159112e-10
4.8370901e-07
8.7421176e-10
4.8372478e-07
1.1519486e-09
4.8349866e-07
1.5849448e-09
4.8353314e-07
2.058891e-09
4.8353448e-07
1.9542944e-09
4.8294843e-07
1.1722809e-09
4.8181545e-07
4.7961741e-07
-3.0162393e-09
5.2046832e-07
-2.8458491e-09
5.2529986e-07
-2.327631e-09
5.270423e-07
-1.8937359e-09
5.2735019e-07
-1.3597333e-09
5.2719298e-07
-7.7112238e-10
5.2675162e-07
-5.7657751e-10
5.2633853e-07
-3.0007898e-10
5.2612367e-07
-1.2682852e-10
5.2603701e-07
6.0298744e-14
5.2601926e-07
1.2695202e-10
5.2601925e-07
3.0021759e-10
5.2603698e-07
5.7672965e-10
5.2612363e-07
7.712737e-10
5.263385e-07
1.3598764e-09
5.2675158e-07
1.8938955e-09
5.2719294e-07
2.3277962e-09
5.2735016e-07
2.845947e-09
5.2704234e-07
3.0162796e-09
5.2530014e-07
5.2046909e-07
1.6302903e-09
5.038607e-07
-8.4031645e-10
5.1998631e-07
-1.5641064e-09
5.2525559e-07
-1.4617231e-09
5.2682506e-07
-1.1104325e-09
5.2813343e-07
-7.0783186e-10
5.2856934e-07
-4.8833813e-10
5.2858839e-07
-2.9986698e-10
5.2861449e-07
-1.4416222e-10
5.287952e-07
6.873214e-14
5.2890902e-07
1.4430151e-10
5.2890903e-07
3.0001335e-10
5.2879524e-07
4.8848156e-10
5.2861457e-07
7.0796679e-10
5.2858854e-07
1.110624e-09
5.2856945e-07
1.4619435e-09
5.2813352e-07
1.5643621e-09
5.2682519e-07
8.4055431e-10
5.2525591e-07
-1.6299665e-09
5.1998702e-07
5.038623e-07
3.9874733e-08
4.5743241e-07
2.3374571e-08
5.2364615e-07
1.1166742e-08
5.3033197e-07
6.3747639e-09
5.2857788e-07
3.7758312e-09
5.2630112e-07
2.0344552e-09
5.2500476e-07
1.3366624e-09
5.2529863e-07
7.7258563e-10
5.2557147e-07
3.5621828e-10
5.2582785e-07
4.3589476e-14
5.2594943e-07
-3.5613327e-10
5.2594939e-07
-7.7249798e-10
5.2582769e-07
-1.3365621e-09
5.2557121e-07
-2.0343538e-09
5.2529825e-07
-3.7758783e-09
5.2500431e-07
-6.3746991e-09
5.2630118e-07
-1.1166765e-08
5.2857778e-07
-2.33746e-08
5.3033166e-07
-3.9874448e-08
5.2364653e-07
4.5743416e-07
8.6268947e-08
3.7090024e-07
9.2139506e-08
5.1190044e-07
6.8895974e-08
5.4161589e-07
5.3372008e-08
5.4718554e-07
3.8953388e-08
5.4456973e-07
2.7415472e-08
5.4047941e-07
1.8388232e-08
5.3716119e-07
1.1284546e-08
5.3479924e-07
5.3505107e-09
5.3342989e-07
-5.1627372e-14
5.32765e-07
-5.3506358e-09
5.32765e-07
-1.1284666e-08
5.3342989e-07
-1.8388347e-08
5.3479926e-07
-2.7415585e-08
5.3716126e-07
-3.8953503e-08
5.4047952e-07
-5.3372066e-08
5.4457004e-07
-6.8896026e-08
5.4718598e-07
-9.2139421e-08
5.4161608e-07
-8.6269069e-08
5.1190069e-07
3.7090187e-07
7.7287451e-08
2.9204231e-07
1.0322531e-07
4.7857409e-07
9.7076412e-08
5.3816946e-07
8.3656987e-08
5.5651879e-07
6.6548403e-08
5.5751485e-07
4.9841323e-08
5.5294161e-07
3.4998078e-08
5.4780859e-07
2.2096525e-08
5.435028e-07
1.0674595e-08
5.4064247e-07
-1.1219805e-13
5.3918864e-07
-1.0674828e-08
5.3918864e-07
-2.2096758e-08
5.4064248e-07
-3.4998285e-08
5.4350286e-07
-4.9841544e-08
5.4780866e-07
-6.6548584e-08
5.5294171e-07
-8.3656983e-08
5.5751508e-07
-9.7076109e-08
5.5651908e-07
-1.03225e-07
5.3816966e-07
-7.7287377e-08
4.785746e-07
2.9204429e-07
5.5201398e-08
2.3030139e-07
8.6214564e-08
4.4072218e-07
9.4726986e-08
5.2952693e-07
8.8221337e-08
5.6251074e-07
7.4612491e-08
5.7038315e-07
5.8570275e-08
5.679944e-07
4.2592007e-08
5.6255805e-07
2.7551568e-08
5.5718713e-07
1.3514041e-08
5.5325928e-07
-1.3008948e-13
5.5118789e-07
-1.3514322e-08
5.5118789e-07
-2.7551817e-08
5.5325929e-07
-4.2592249e-08
5.5718715e-07
-5.8570499e-08
5.625581e-07
-7.4612681e-08
5.6799448e-07
-8.8221452e-08
5.7038322e-07
-9.4726823e-08
5.6251086e-07
-8.6214177e-08
5.2952697e-07
-5.5201308e-08
4.4072231e-07
2.3030295e-07
3.5954854e-08
1.9394039e-07
6.6102834e-08
4.1200696e-07
7.9475113e-08
5.1765671e-07
7.9180281e-08
5.6362882e-07
7.0531903e-08
5.7932655e-07
5.7707179e-08
5.808654e-07
4.3315823e-08
5.7686657e-07
2.8663942e-08
5.7171586e-07
1.4258007e-08
5.6753877e-07
-1.401613e-13
5.6524517e-07
-1.4258288e-08
5.6524518e-07
-2.8664204e-08
5.6753878e-07
-4.3316065e-08
5.7171588e-07
-5.7707395e-08
5.7686662e-07
-7.0532104e-08
5.8086545e-07
-7.9180461e-08
5.7932659e-07
-7.9475213e-08
5.6362891e-07
-6.6102996e-08
5.1765691e-07
-3.5955225e-08
4.1200739e-07
1.939416e-07
2.2918536e-08
1.7305415e-07
4.713772e-08
3.8918949e-07
6.1406499e-08
5.0501496e-07
6.4926938e-08
5.609841e-07
6.0604486e-08
5.8396456e-07
5.1477097e-08
5.9004441e-07
3.9766363e-08
5.8850466e-07
2.6866274e-08
5.8450186e-07
1.3533498e-08
5.8075651e-07
-1.3312602e-13
5.7859385e-07
-1.3533767e-08
5.7859385e-07
-2.6866534e-08
5.8075651e-07
-3.9766585e-08
5.8450187e-07
-5.1477292e-08
5.8850467e-07
-6.0604685e-08
5.9004442e-07
-6.4927136e-08
5.8396458e-07
-6.1406703e-08
5.609842e-07
-4.7137974e-08
5.0501524e-07
-2.2918863e-08
3.8919003e-07
1.7305507e-07
1.4170951e-08
1.6052206e-07
3.2061517e-08
3.7243446e-07
4.4906131e-08
4.9356428e-07
5.0143414e-08
5.5654018e-07
4.886946e-08
5.8554465e-07
4.2958296e-08
5.9600276e-07
3.4071731e-08
5.9730891e-07
2.3456112e-08
5.9498033e-07
1.1949887e-08
5.9211838e-07
-1.2076127e-13
5.9033713e-07
-1.1950136e-08
5.9033713e-07
-2.3456346e-08
5.9211836e-07
-3.4071937e-08
5.9498032e-07
-4.2958484e-08
5.973089e-07
-4.8869643e-08
5.9600276e-07
-5.0143608e-08
5.8554468e-07
-4.4906354e-08
5.5654029e-07
-3.2061785e-08
4.9356456e-07
-1.4171191e-08
3.7243501e-07
1.6052273e-07
8.6335574e-09
1.5301061e-07
2.1124823e-08
3.6072794e-07
3.1562448e-08
4.8422316e-07
3.7062856e-08
5.5173713e-07
3.7601989e-08
5.8532258e-07
3.4121545e-08
5.9957258e-07
2.7729958e-08
6.0366999e-07
1.9421491e-08
6.0320199e-07
9.9949937e-09
6.0144472e-07
-1.0866356e-13
6.001826e-07
-9.9952218e-09
6.0018259e-07
-1.9421682e-08
6.0144469e-07
-2.7730158e-08
6.0320196e-07
-3.4121728e-08
6.0366997e-07
-3.7602165e-08
5.9957258e-07
-3.7063052e-08
5.8532261e-07
-3.1562668e-08
5.5173724e-07
-2.1125049e-08
4.8422344e-07
-8.6337369e-09
3.6072842e-07
1.5301112e-07
5.2135302e-09
1.4850612e-07
1.358912e-08
3.5287691e-07
2.1496278e-08
4.771219e-07
2.6450901e-08
5.4734766e-07
2.7869362e-08
5.8419628e-07
2.6057197e-08
6.0149706e-07
2.1663369e-08
6.0807464e-07
1.5416585e-08
6.0940941e-07
8.0064514e-09
6.0880014e-07
-9.6936957e-14
6.0809744e-07
-8.0066411e-09
6.0809743e-07
-1.5416754e-08
6.0880011e-07
-2.1663523e-08
6.094094e-07
-2.6057352e-08
6.0807462e-07
-2.7869535e-08
6.0149704e-07
-2.6451089e-08
5.8419632e-07
-2.149649e-08
5.4734778e-07
-1.358932e-08
4.7712217e-07
-5.2136787e-09
3.528773e-07
1.4850649e-07
3.1199847e-09
1.4581994e-07
8.5611406e-09
3.4778177e-07
1.424977e-08
4.7199621e-07
1.8320775e-08
5.4370367e-07
2.0010772e-08
5.827493e-07
1.9249267e-08
6.0236842e-07
1.6350964e-08
6.1100245e-07
1.1811406e-08
6.1393635e-07
6.1864073e-09
6.1439841e-07
-8.6551021e-14
6.1423123e-07
-6.1865653e-09
6.1423122e-07
-1.1811549e-08
6.1439839e-07
-1.6351092e-08
6.1393633e-07
-1.9249426e-08
6.1100242e-07
-2.0010923e-08
6.0236842e-07
-1.8320955e-08
5.8274934e-07
-1.4249955e-08
5.4370381e-07
-8.5613371e-09
4.7199644e-07
-3.1200948e-09
3.4778208e-07
1.4582017e-07
1.8430573e-09
1.4423686e-07
5.2803218e-09
3.4457027e-07
9.2058828e-09
4.6845269e-07
1.2341988e-08
5.4087755e-07
1.3959001e-08
5.8132217e-07
1.3803671e-08
6.026186e-07
1.1971127e-08
6.1286893e-07
8.7723506e-09
6.1713595e-07
4.6317054e-09
6.1852775e-07
-7.0772396e-14
6.1883399e-07
-4.6318323e-09
6.1883399e-07
-8.7724759e-09
6.1852771e-07
-1.1971254e-08
6.1713592e-07
-1.3803804e-08
6.128689e-07
-1.3959155e-08
6.026186e-07
-1.2342135e-08
5.8132224e-07
-9.2060681e-09
5.4087769e-07
-5.28049e-09
4.6845291e-07
-1.8431664e-09
3.4457053e-07
1.44237e-07
1.0654252e-09
1.433241e-07
3.1766625e-09
3.4260442e-07
5.790962e-09
4.6609112e-07
8.0905987e-09
5.387948e-07
9.4726431e-09
5.8008164e-07
9.6263382e-09
6.0254147e-07
8.5200271e-09
6.1400771e-07
6.3312415e-09
6.1933167e-07
3.3689766e-09
6.2148652e-07
-6.2999907e-14
6.2218778e-07
-3.369107e-09
6.2218778e-07
-6.3313402e-09
6.2148648e-07
-8.5201433e-09
6.1933164e-07
-9.6264566e-09
6.140077e-07
-9.4727701e-09
6.025415e-07
-8.0907415e-09
5.8008173e-07
-5.7911288e-09
5.3879495e-07
-3.1768031e-09
4.6609134e-07
-1.0655161e-09
3.4260462e-07
1.4332417e-07
5.9632348e-10
1.428142e-07
1.854615e-09
3.4143671e-07
3.5394068e-09
4.6456797e-07
5.1580149e-09
5.3732178e-07
6.2555966e-09
5.7908435e-07
6.5346598e-09
6.0232014e-07
5.9026538e-09
6.1466691e-07
4.4473018e-09
6.2079553e-07
2.3846986e-09
6.2354941e-07
-6.058172e-14
6.2456498e-07
-2.3848283e-09
6.2456498e-07
-4.4474048e-09
6.235494e-07
-5.9027589e-09
6.2079552e-07
-6.5347687e-09
6.1466691e-07
-6.2557097e-09
6.0232019e-07
-5.1581495e-09
5.7908447e-07
-3.5395471e-09
5.3732196e-07
-1.8547378e-09
4.645682e-07
-5.9638504e-10
3.4143687e-07
1.4281418e-07
3.2059385e-10
1.4253993e-07
1.0472395e-09
3.4076273e-07
2.0995393e-09
4.6361379e-07
3.1981881e-09
5.3631552e-07
4.0225597e-09
5.783266e-07
4.3217636e-09
6.020612e-07
3.9846895e-09
6.1502459e-07
3.043823e-09
6.2174483e-07
1.6446229e-09
6.2495175e-07
-5.8016903e-14
6.2620809e-07
-1.6447414e-09
6.2620809e-07
-3.0439336e-09
6.2495175e-07
-3.9847849e-09
6.2174483e-07
-4.321865e-09
6.1502459e-07
-4.0226588e-09
6.0206128e-07
-3.1982873e-09
5.7832673e-07
-2.0996534e-09
5.363157e-07
-1.0473537e-09
4.6361401e-07
-3.2066699e-10
3.4076284e-07
1.4253986e-07
1.6944325e-10
1.4239315e-07
5.7909159e-10
3.4037981e-07
1.2189535e-09
4.6303052e-07
1.9403838e-09
5.3565158e-07
2.5300061e-09
5.7778109e-07
2.794101e-09
6.0182428e-07
2.6279895e-09
6.1520321e-07
2.0339406e-09
6.2234103e-07
1.1068291e-09
6.2587554e-07
-5.7132309e-14
6.2730775e-07
-1.1069349e-09
6.2730774e-07
-2.0340621e-09
6.2587554e-07
-2.6280884e-09
6.2234106e-07
-2.7941903e-09
6.1520323e-07
-2.5300982e-09
6.0182436e-07
-1.9404665e-09
5.7778125e-07
-1.2190389e-09
5.3565178e-07
-5.7918634e-10
4.6303073e-07
-1.6950446e-10
3.4037988e-07
1.42393e-07
1.0193252e-10
3.4062507e-10
7.3560848e-10
1.20791e-09
1.6188064e-09
1.8273681e-09
1.746746e-09
1.3654592e-09
7.4673887e-10
-5.2381003e-14
-7.4685277e-10
-1.3655691e-09
-1.7468567e-09
-1.8274524e-09
-1.6188761e-09
-1.2079942e-09
-7.3566854e-10
-3.407128e-10
-1.0198422e-10
)
;

boundaryField
{
    Wall
    {
        type            calculated;
        value           uniform 0;
    }
    frontAndBack
    {
        type            empty;
        value           nonuniform 0();
    }
    atmosphere
    {
        type            calculated;
        value           nonuniform List<scalar> 
20
(
1.4232966e-07
3.4021024e-07
4.627581e-07
5.3532687e-07
5.7750057e-07
6.0168789e-07
6.1527334e-07
6.2262642e-07
6.2633618e-07
6.2786595e-07
6.2786593e-07
6.2633619e-07
6.2262644e-07
6.1527338e-07
6.0168795e-07
5.7750072e-07
5.3532707e-07
4.6275829e-07
3.4021027e-07
1.4232951e-07
)
;
    }
}


// ************************************************************************* //
