/*--------------------------------*- C++ -*----------------------------------*\
| =========                 |                                                 |
| \\      /  F ield         | OpenFOAM: The Open Source CFD Toolbox           |
|  \\    /   O peration     | Version:  3.0.1                                 |
|   \\  /    A nd           | Web:      www.OpenFOAM.org                      |
|    \\/     M anipulation  |                                                 |
\*---------------------------------------------------------------------------*/
FoamFile
{
    version     2.0;
    format      ascii;
    class       volScalarField;
    location    "29";
    object      Psi2;
}
// * * * * * * * * * * * * * * * * * * * * * * * * * * * * * * * * * * * * * //

dimensions      [0 -2 2 0 0 0 0];

internalField   nonuniform List<scalar> 
800
(
0.00071272624
0.00071266375
0.00071265373
0.00071265301
0.00071265328
0.00071265348
0.00071265351
0.00071265348
0.00071265343
0.00071265341
0.00071265341
0.00071265343
0.00071265348
0.00071265351
0.00071265348
0.00071265328
0.00071265301
0.00071265373
0.00071266375
0.00071272624
0.00072337319
0.00072268391
0.0007225292
0.00072249986
0.00072250155
0.00072250803
0.0007225131
0.00072251603
0.00072251747
0.00072251804
0.00072251804
0.00072251747
0.00072251604
0.0007225131
0.00072250804
0.00072250156
0.00072249987
0.00072252921
0.00072268394
0.00072337324
0.00073494347
0.00073381097
0.00073346367
0.00073339102
0.00073338617
0.00073339482
0.00073340281
0.00073340771
0.00073341018
0.00073341116
0.00073341116
0.00073341019
0.00073340772
0.00073340283
0.00073339484
0.0007333862
0.00073339105
0.0007334637
0.00073381102
0.00073494357
0.00074608424
0.00074459676
0.00074407306
0.00074396276
0.00074395236
0.0007439628
0.00074397313
0.00074397953
0.00074398279
0.00074398407
0.00074398407
0.0007439828
0.00074397955
0.00074397315
0.00074396282
0.00074395239
0.0007439628
0.00074407311
0.00074459683
0.00074608436
0.00075573628
0.00075401531
0.00075334631
0.00075320016
0.0007531884
0.00075320209
0.00075321514
0.0007532231
0.00075322713
0.00075322868
0.00075322868
0.00075322714
0.00075322312
0.00075321516
0.00075320213
0.00075318844
0.00075320021
0.00075334637
0.00075401539
0.0007557364
0.00076323923
0.00076141133
0.00076063196
0.00076044998
0.00076044205
0.00076046133
0.00076047804
0.000760488
0.000760493
0.00076049492
0.00076049492
0.00076049301
0.00076048802
0.00076047806
0.00076046137
0.00076044209
0.00076045002
0.00076063201
0.0007614114
0.00076323934
0.00076838739
0.00076653016
0.00076568637
0.00076547025
0.00076547127
0.00076549879
0.00076552046
0.00076553319
0.00076553957
0.00076554204
0.00076554204
0.00076553958
0.00076553321
0.00076552048
0.00076549882
0.00076547131
0.00076547029
0.00076568642
0.00076653022
0.00076838748
0.00077135115
0.00076947294
0.000768619
0.00076837263
0.00076838682
0.00076842517
0.00076845331
0.00076846981
0.00076847813
0.00076848144
0.00076848144
0.00076847814
0.00076846982
0.00076845333
0.00076842519
0.00076838685
0.00076837266
0.00076861903
0.00076947298
0.00077135122
0.00077264249
0.0007706576
0.00076984425
0.00076957252
0.00076959359
0.00076964487
0.00076968106
0.00076970239
0.0007697133
0.00076971776
0.00076971776
0.00076971331
0.0007697024
0.00076968107
0.00076964488
0.00076959362
0.00076957254
0.00076984427
0.00077065762
0.00077264253
0.00077304342
0.00077075597
0.00077002123
0.00076972838
0.00076973654
0.00076979211
0.0007698379
0.00076986513
0.00076987928
0.00076988524
0.00076988524
0.00076987929
0.00076986514
0.00076983792
0.00076979212
0.00076973656
0.00076972839
0.00077002124
0.00077075598
0.00077304344
0.00077351056
0.0007706096
0.00076995687
0.00076964528
0.00076960391
0.00076964003
0.00076969706
0.00076973124
0.00076974936
0.00076975716
0.00076975716
0.00076974937
0.00076973125
0.00076969707
0.00076964005
0.00076960393
0.00076964529
0.00076995688
0.00077060961
0.00077351057
0.00077513273
0.00077121441
0.00077056825
0.00077024015
0.00077009782
0.00077008309
0.00077015319
0.0007701955
0.00077021872
0.00077022882
0.00077022882
0.00077021874
0.00077019552
0.00077015321
0.00077008311
0.00077009784
0.00077024016
0.00077056825
0.00077121441
0.00077513275
0.00077913744
0.00077372694
0.0007728958
0.00077256743
0.00077226288
0.00077217067
0.00077225602
0.00077230834
0.00077232301
0.0007723367
0.00077233671
0.00077232303
0.00077230836
0.00077225605
0.00077217069
0.0007722629
0.00077256745
0.00077289582
0.00077372694
0.00077913747
0.00078698706
0.00077949683
0.00077818466
0.00077785316
0.00077732235
0.00077713942
0.00077724223
0.00077730641
0.00077729108
0.00077731094
0.00077731094
0.0007772911
0.00077730645
0.00077724227
0.00077713946
0.00077732239
0.00077785319
0.00077818469
0.00077949686
0.00078698711
0.00079991486
0.0007896141
0.00078745077
0.0007870267
0.000786214
0.00078594434
0.00078607758
0.00078617818
0.00078611054
0.00078610331
0.00078610331
0.00078611057
0.00078617823
0.00078607764
0.00078594439
0.00078621406
0.00078702675
0.00078745083
0.00078961416
0.00079991495
0.00081685907
0.00080284465
0.00079935532
0.00079861188
0.00079747919
0.00079716122
0.00079738851
0.00079753684
0.00079739722
0.0007972866
0.00079728661
0.00079739726
0.0007975369
0.00079738857
0.00079716129
0.00079747926
0.00079861195
0.0007993554
0.00080284474
0.00081685919
0.0008426344
0.00082356803
0.00081816507
0.00081679816
0.00081523688
0.00081495085
0.00081532825
0.00081551866
0.00081529719
0.00081500128
0.00081500129
0.00081529723
0.00081551873
0.00081532834
0.00081495094
0.00081523698
0.00081679826
0.00081816518
0.00082356815
0.00084263455
0.00088115418
0.00085517615
0.00084701927
0.00084467027
0.00084242025
0.00084221046
0.00084273426
0.00084296206
0.00084269714
0.00084216449
0.00084216451
0.00084269718
0.00084296215
0.00084273436
0.00084221056
0.00084242037
0.0008446704
0.00084701941
0.0008551763
0.00088115435
0.00093875078
0.00090291782
0.0008906628
0.00088689045
0.00088354633
0.00088333986
0.00088393518
0.00088420048
0.00088386323
0.00088307824
0.00088307826
0.00088386329
0.00088420058
0.00088393529
0.00088333998
0.00088354647
0.00088689059
0.00089066297
0.00090291798
0.0009387509
0.0010265935
0.00097592885
0.00095723407
0.00095121221
0.00094614711
0.0009455906
0.00094614035
0.00094644563
0.00094588273
0.00094484819
0.00094484821
0.00094588278
0.00094644574
0.00094614047
0.00094559074
0.00094614726
0.00095121238
0.00095723425
0.00097592899
0.0010265935
0.0011656473
0.0010913546
0.0010616278
0.0010515887
0.0010436183
0.0010422473
0.0010426144
0.0010429586
0.0010417001
0.0010404077
0.0010404078
0.0010417002
0.0010429587
0.0010426145
0.0010422474
0.0010436185
0.0010515889
0.0010616279
0.0010913547
0.0011656471
0.0013951383
0.0012811932
0.0012324268
0.0012149065
0.0012018713
0.0011983546
0.0011982687
0.0011986421
0.0011963444
0.0011947441
0.0011947441
0.0011963444
0.0011986423
0.0011982688
0.0011983548
0.0012018715
0.0012149067
0.001232427
0.0012811932
0.0013951376
0.0017874366
0.0016024792
0.00152003
0.0014869067
0.0014662308
0.0014592322
0.001455496
0.0014559476
0.0014524988
0.0014505148
0.0014505149
0.0014524989
0.0014559477
0.0014554961
0.0014592323
0.0014662309
0.0014869069
0.0015200301
0.0016024788
0.001787435
0.0024419929
0.0021528504
0.0020120057
0.0019545084
0.0019225086
0.0019104944
0.001904031
0.0019045083
0.0018997638
0.00189725
0.00189725
0.0018997638
0.0019045083
0.001904031
0.0019104944
0.0019225086
0.0019545084
0.0020120054
0.0021528488
0.0024419886
0.0034909555
0.0029713671
0.0027119592
0.0026001868
0.002545329
0.0025254454
0.0025184749
0.0025202558
0.0025152054
0.0025127643
0.0025127643
0.0025152052
0.0025202555
0.0025184744
0.0025254448
0.0025453286
0.0026001864
0.0027119581
0.0029713636
0.0034909459
0.0052519941
0.0041066786
0.0036294366
0.0034187474
0.0033229955
0.0032917039
0.0032876056
0.0032949595
0.0032937759
0.003293596
0.003293596
0.0032937757
0.0032949592
0.003287605
0.0032917032
0.0033229947
0.0034187465
0.0036294349
0.004106673
0.0052519761
0.0076918515
0.0055572094
0.0047358034
0.0043738228
0.004216575
0.0041695016
0.0041730289
0.0041939365
0.0042042344
0.0042105692
0.0042105691
0.004204234
0.0041939359
0.0041730278
0.0041695004
0.0042165737
0.0043738213
0.0047358012
0.005557202
0.0076918286
0.0097332967
0.0071498133
0.0059665806
0.005423946
0.0051878283
0.0051177797
0.0051280439
0.0051658453
0.0051928132
0.0052090308
0.0052090307
0.0051928127
0.0051658445
0.0051280427
0.0051177784
0.0051878271
0.0054239446
0.0059665782
0.0071498055
0.0097332806
0.010650289
0.0085902479
0.0072040905
0.0065044436
0.0061885311
0.0060898242
0.0061013404
0.00615309
0.0061963258
0.006222703
0.0062227029
0.0061963255
0.0061530895
0.0061013394
0.0060898232
0.0061885305
0.0065044428
0.007204089
0.0085902422
0.010650283
0.010901939
0.0096549145
0.0083175938
0.0075378669
0.0071631
0.0070368513
0.0070430166
0.0071008892
0.0071544853
0.0071878496
0.0071878496
0.0071544852
0.007100889
0.0070430161
0.0070368508
0.0071630999
0.0075378667
0.0083175927
0.0096549106
0.010901937
0.01095355
0.010311786
0.0092162071
0.0084537597
0.0080568256
0.0079116981
0.0079081825
0.0079632974
0.0080190629
0.0080544557
0.0080544558
0.0080190631
0.0079632976
0.0079081825
0.0079116982
0.008056826
0.00845376
0.0092162063
0.010311784
0.01095355
0.010962564
0.010662922
0.0098734284
0.0092072306
0.0088273877
0.0086765842
0.0086626922
0.008708496
0.0087592044
0.0087920568
0.008792057
0.0087592049
0.0087084967
0.0086626927
0.0086765847
0.0088273885
0.0092072312
0.0098734278
0.010662921
0.010962564
0.010964004
0.010832459
0.01031578
0.0097857258
0.0094529431
0.0093097544
0.0092878662
0.0093215036
0.0093628592
0.0093902702
0.0093902705
0.0093628598
0.0093215044
0.0092878669
0.0093097551
0.0094529438
0.0097857263
0.01031578
0.010832458
0.010964004
0.010964223
0.010908834
0.010594073
0.010203369
0.0099329703
0.0098072968
0.0097813132
0.0098031733
0.0098339741
0.0098549486
0.0098549489
0.0098339748
0.0098031741
0.0097813141
0.0098072975
0.009932971
0.010203369
0.010594073
0.010908834
0.010964223
0.010964255
0.010941642
0.010760017
0.010489349
0.010283134
0.010180011
0.01015374
0.010166133
0.01018736
0.010202302
0.010202302
0.010187361
0.010166134
0.010153741
0.010180012
0.010283134
0.01048935
0.010760017
0.010941642
0.010964255
0.01096426
0.010955256
0.01085482
0.010676586
0.010527466
0.010447556
0.010423758
0.010429554
0.01044321
0.010453234
0.010453234
0.010443211
0.010429555
0.010423759
0.010447557
0.010527467
0.010676586
0.01085482
0.010955256
0.01096426
0.010964261
0.010960753
0.010907113
0.010794602
0.010691507
0.010632529
0.010612671
0.010614442
0.010622686
0.010629072
0.010629072
0.010622686
0.010614443
0.010612672
0.01063253
0.010691507
0.010794602
0.010907113
0.010960753
0.010964261
0.010964261
0.010962921
0.010935112
0.010866602
0.010798017
0.010756273
0.010740738
0.010740397
0.01074507
0.010748958
0.010748958
0.010745071
0.010740397
0.010740738
0.010756273
0.010798017
0.010866602
0.010935112
0.010962921
0.010964261
0.010964261
0.010963759
0.010949716
0.010909295
0.010865174
0.010836683
0.010825153
0.010823934
0.010826411
0.010828681
0.010828681
0.010826411
0.010823934
0.010825153
0.010836683
0.010865174
0.010909295
0.010949716
0.010963759
0.010964261
0.010964261
0.010964076
0.010957153
0.010933971
0.010906424
0.010887596
0.010879406
0.010878004
0.010879216
0.01088049
0.01088049
0.010879216
0.010878005
0.010879406
0.010887596
0.010906424
0.010933971
0.010957153
0.010964076
0.010964261
)
;

boundaryField
{
    Wall
    {
        type            calculated;
        value           nonuniform List<scalar> 
100
(
9.9999999e-21
9.9999999e-21
9.9999999e-21
9.9999999e-21
9.9999999e-21
9.9999999e-21
9.9999999e-21
9.9999999e-21
9.9999999e-21
9.9999999e-21
9.9999999e-21
9.9999999e-21
9.9999999e-21
9.9999999e-21
9.9999999e-21
9.9999999e-21
9.9999999e-21
9.9999999e-21
9.9999999e-21
9.9999999e-21
9.9999999e-21
9.9999999e-21
9.9999999e-21
1e-20
1e-20
1e-20
1e-20
1e-20
1e-20
1e-20
1e-20
1e-20
1e-20
1e-20
1e-20
1e-20
1e-20
1e-20
1e-20
1e-20
9.9999999e-21
9.9999999e-21
9.9999999e-21
9.9999999e-21
9.9999999e-21
9.9999999e-21
9.9999999e-21
9.9999999e-21
9.9999999e-21
9.9999999e-21
9.9999999e-21
9.9999999e-21
9.9999999e-21
9.9999999e-21
9.9999999e-21
9.9999999e-21
9.9999999e-21
9.9999999e-21
9.9999999e-21
9.9999999e-21
9.9999999e-21
9.9999999e-21
9.9999999e-21
1e-20
1e-20
1e-20
1e-20
1e-20
1e-20
1e-20
1e-20
1e-20
1e-20
1e-20
1e-20
1e-20
1e-20
1e-20
1e-20
1e-20
9.9999999e-21
9.9999999e-21
9.9999999e-21
9.9999999e-21
9.9999999e-21
9.9999999e-21
9.9999999e-21
9.9999999e-21
9.9999999e-21
9.9999999e-21
9.9999999e-21
9.9999999e-21
9.9999999e-21
9.9999999e-21
9.9999999e-21
9.9999999e-21
9.9999999e-21
9.9999999e-21
9.9999999e-21
9.9999999e-21
)
;
    }
    frontAndBack
    {
        type            empty;
    }
    atmosphere
    {
        type            calculated;
        value           uniform 1e-20;
    }
}


// ************************************************************************* //
