/*--------------------------------*- C++ -*----------------------------------*\
| =========                 |                                                 |
| \\      /  F ield         | OpenFOAM: The Open Source CFD Toolbox           |
|  \\    /   O peration     | Version:  3.0.1                                 |
|   \\  /    A nd           | Web:      www.OpenFOAM.org                      |
|    \\/     M anipulation  |                                                 |
\*---------------------------------------------------------------------------*/
FoamFile
{
    version     2.0;
    format      ascii;
    class       volScalarField;
    location    "29";
    object      rho;
}
// * * * * * * * * * * * * * * * * * * * * * * * * * * * * * * * * * * * * * //

dimensions      [1 -3 0 0 0 0 0];

internalField   nonuniform List<scalar> 
800
(
71.272625
71.266376
71.265374
71.265302
71.265329
71.265349
71.265352
71.265348
71.265344
71.265342
71.265342
71.265344
71.265349
71.265352
71.265348
71.265329
71.265301
71.265373
71.266376
71.272624
72.33732
72.268392
72.252921
72.249986
72.250156
72.250804
72.25131
72.251604
72.251748
72.251805
72.251805
72.251748
72.251604
72.251311
72.250805
72.250157
72.249987
72.252922
72.268395
72.337325
73.494345
73.381095
73.346365
73.3391
73.338615
73.33948
73.340279
73.340769
73.341016
73.341114
73.341114
73.341017
73.34077
73.340281
73.339482
73.338618
73.339103
73.346368
73.3811
73.494354
74.608411
74.459664
74.407294
74.396264
74.395224
74.396268
74.397301
74.397942
74.398267
74.398395
74.398395
74.398268
74.397943
74.397303
74.396271
74.395228
74.396268
74.4073
74.459671
74.608422
75.57359
75.401497
75.334598
75.319984
75.318807
75.320177
75.321482
75.322277
75.32268
75.322836
75.322836
75.322681
75.322279
75.321484
75.32018
75.318811
75.319988
75.334604
75.401505
75.573602
76.323841
76.14106
76.063126
76.044928
76.044135
76.046064
76.047734
76.04873
76.04923
76.049422
76.049422
76.049231
76.048732
76.047737
76.046067
76.04414
76.044933
76.063131
76.141067
76.323852
76.83859
76.652882
76.56851
76.546899
76.547001
76.549753
76.551919
76.553192
76.55383
76.554077
76.554077
76.553831
76.553194
76.551922
76.549756
76.547005
76.546903
76.568514
76.652888
76.838599
77.13487
76.947075
76.861692
76.837058
76.838476
76.842311
76.845125
76.846774
76.847607
76.847937
76.847937
76.847607
76.846776
76.845127
76.842313
76.838479
76.83706
76.861696
76.947079
77.134877
77.263878
77.065428
76.984111
76.956942
76.959049
76.964175
76.967794
76.969927
76.971018
76.971464
76.971464
76.971018
76.969928
76.967795
76.964177
76.959051
76.956944
76.984113
77.06543
77.263882
77.303812
77.075121
77.001677
76.972396
76.973212
76.978768
76.983347
76.986069
76.987484
76.988079
76.988079
76.987485
76.98607
76.983348
76.97877
76.973214
76.972397
77.001678
77.075122
77.303814
77.350333
77.060309
76.99508
76.963929
76.959792
76.963402
76.969104
76.972521
76.974332
76.975112
76.975112
76.974333
76.972522
76.969105
76.963404
76.959793
76.96393
76.99508
77.060309
77.350335
77.512324
77.120582
77.056027
77.023231
77.008998
77.007523
77.014531
77.018761
77.021083
77.022092
77.022092
77.021084
77.018763
77.014533
77.007524
77.008999
77.023232
77.056028
77.120582
77.512326
77.912534
77.371594
77.288555
77.255747
77.225291
77.216068
77.224601
77.229831
77.231298
77.232666
77.232667
77.231299
77.229833
77.224603
77.21607
77.225294
77.255748
77.288556
77.371595
77.912536
78.697194
77.948275
77.817128
77.784078
77.730997
77.712701
77.722979
77.729396
77.727861
77.729847
77.729847
77.727863
77.729399
77.722983
77.712705
77.731001
77.784081
77.817131
77.948278
78.697199
79.989607
78.959225
78.743427
78.701167
78.619891
78.592921
78.606242
78.6163
78.609534
78.60881
78.608811
78.609537
78.616304
78.606247
78.592926
78.619897
78.701172
78.743433
78.959231
79.989616
81.683563
80.282047
79.933808
79.859379
79.746108
79.714307
79.737031
79.751862
79.737899
79.726836
79.726837
79.737902
79.751868
79.737038
79.714314
79.746116
79.859386
79.933816
80.282056
81.683575
84.26059
82.354625
81.814459
81.677663
81.52153
81.492921
81.530655
81.549693
81.527544
81.497953
81.497955
81.527549
81.5497
81.530663
81.49293
81.52154
81.677673
81.81447
82.354638
84.260605
88.112132
85.515225
84.699382
84.464443
84.239436
84.218449
84.270822
84.293599
84.267105
84.213842
84.213843
84.26711
84.293607
84.270832
84.21846
84.239448
84.464455
84.699397
85.51524
88.112148
93.870672
90.288579
89.063026
88.685801
88.351398
88.330747
88.390273
88.4168
88.383077
88.30458
88.304582
88.383082
88.416809
88.390284
88.330759
88.351412
88.685816
89.063043
90.288595
93.870684
102.65081
97.587367
95.718376
95.116341
94.609919
94.554295
94.609279
94.639813
94.583538
94.480094
94.480097
94.583543
94.639824
94.609291
94.554309
94.609934
95.116358
95.718394
97.587381
102.65081
116.5226
109.11436
106.1471
105.14469
104.3485
104.21177
104.24867
104.28319
104.15748
104.02831
104.02832
104.15749
104.2832
104.24868
104.21178
104.34852
105.14471
106.14712
109.11437
116.52258
138.77374
127.85002
123.07762
121.35282
120.06427
119.71927
119.71421
119.75357
119.52594
119.36697
119.36698
119.52595
119.75358
119.71422
119.71928
120.06428
121.35284
123.07764
127.85002
138.7737
144.09957
148.24578
145.20685
143.32888
142.05433
141.70632
141.5327
141.68195
141.44318
141.29509
141.29509
141.4432
141.68198
141.53274
141.70637
142.0544
143.32898
145.20697
148.24603
144.10046
46.222745
72.700175
85.674628
90.8102
94.20308
96.251062
97.544804
98.488874
99.110472
99.386207
99.386249
99.110603
98.489082
97.545097
96.251424
94.2035
90.810684
85.675227
72.700993
46.223688
3.6405982
7.6476709
10.655341
12.163278
13.274409
13.979892
14.46528
14.775595
15.036491
15.159288
15.159302
15.036534
14.775663
14.465374
13.980005
13.274531
12.163408
10.655485
7.6478121
3.6407018
1.2118258
1.2714251
1.3383784
1.3765397
1.4059779
1.4259661
1.4410344
1.4504939
1.4591215
1.4632568
1.4632572
1.4591228
1.4504959
1.4410371
1.4259693
1.4059814
1.3765431
1.3383816
1.2714276
1.2118267
1.2000021
1.2000526
1.200162
1.2002368
1.2002954
1.2003343
1.200364
1.2003822
1.2004003
1.200409
1.200409
1.2004003
1.2003822
1.200364
1.2003343
1.2002954
1.2002368
1.200162
1.2000526
1.2000021
1.2000002
1.2000002
1.2000002
1.2000001
1.2000001
1.2000002
1.2000002
1.2000002
1.2000002
1.2000002
1.2000002
1.2000002
1.2000002
1.2000002
1.2000002
1.2000001
1.2000001
1.2000002
1.2000002
1.2000002
1.2
1.2000002
1.2000002
1.2000002
1.2000002
1.2000003
1.2000003
1.2000003
1.2000003
1.2000003
1.2000003
1.2000003
1.2000003
1.2000003
1.2000003
1.2000002
1.2000002
1.2000002
1.2000002
1.2
1.2
1.2000001
1.2000002
1.2000003
1.2000003
1.2000003
1.2000003
1.2000003
1.2000003
1.2000003
1.2000003
1.2000003
1.2000003
1.2000003
1.2000003
1.2000003
1.2000003
1.2000002
1.2000001
1.2
1.2
1.2000001
1.2000002
1.2000003
1.2000003
1.2000004
1.2000004
1.2000004
1.2000004
1.2000004
1.2000004
1.2000004
1.2000004
1.2000004
1.2000004
1.2000003
1.2000003
1.2000002
1.2000001
1.2
1.2
1.2
1.2000002
1.2000003
1.2000003
1.2000004
1.2000004
1.2000004
1.2000004
1.2000004
1.2000004
1.2000004
1.2000004
1.2000004
1.2000004
1.2000003
1.2000003
1.2000002
1.2
1.2
1.2
1.2
1.2000001
1.2000002
1.2000003
1.2000004
1.2000004
1.2000004
1.2000004
1.2000004
1.2000004
1.2000004
1.2000004
1.2000004
1.2000004
1.2000003
1.2000002
1.2000001
1.2
1.2
1.2
1.2
1.2000001
1.2000002
1.2000003
1.2000003
1.2000004
1.2000004
1.2000004
1.2000004
1.2000004
1.2000004
1.2000004
1.2000004
1.2000003
1.2000003
1.2000002
1.2000001
1.2
1.2
1.2
1.2
1.2000001
1.2000002
1.2000002
1.2000003
1.2000003
1.2000003
1.2000003
1.2000003
1.2000003
1.2000003
1.2000003
1.2000003
1.2000003
1.2000002
1.2000002
1.2000001
1.2
1.2
1.2
1.2
1.2
1.2000001
1.2000002
1.2000002
1.2000003
1.2000003
1.2000003
1.2000003
1.2000003
1.2000003
1.2000003
1.2000003
1.2000002
1.2000002
1.2000001
1.2
1.2
1.2
1.2
1.2
1.2
1.2000001
1.2000002
1.2000002
1.2000002
1.2000002
1.2000002
1.2000002
1.2000002
1.2000002
1.2000002
1.2000002
1.2000002
1.2000002
1.2000001
1.2
1.2
1.2
1.2
1.2
1.2
1.2000001
1.2000001
1.2000002
1.2000002
1.2000002
1.2000002
1.2000002
1.2000002
1.2000002
1.2000002
1.2000002
1.2000002
1.2000001
1.2000001
1.2
1.2
1.2
1.2
1.2
1.2
1.2
1.2000001
1.2000001
1.2000001
1.2000001
1.2000001
1.2000001
1.2000001
1.2000001
1.2000001
1.2000001
1.2000001
1.2000001
1.2
1.2
1.2
1.2
1.2
1.2
1.2
1.2
1.2000001
1.2000001
1.2000001
1.2000001
1.2000001
1.2000001
1.2000001
1.2000001
1.2000001
1.2000001
1.2000001
1.2000001
1.2
1.2
1.2
1.2
)
;

boundaryField
{
    Wall
    {
        type            calculated;
        value           nonuniform List<scalar> 
100
(
1e-15
1.9993109e-12
5.284923e-08
2.3632641e-07
6.335482e-07
1.325804e-06
2.3882455e-06
3.885472e-06
5.8673002e-06
8.3659678e-06
1.1394348e-05
1.4936856e-05
1.8943879e-05
2.3426814e-05
2.8631103e-05
3.4956493e-05
4.1187103e-05
4.5385747e-05
5.706533e-05
0.00010099136
0.00043824994
0.0064210025
0.23415599
0.97766481
1.1915816
1.1999729
1.2
1.2
1.2
1.2
1.2
1.2
1.2
1.2
1.2
1.2
1.2
1.2
1.2
1.2
1e-15
9.7096925e-15
5.284866e-08
2.3632817e-07
6.3355376e-07
1.3258146e-06
2.3882615e-06
3.8854923e-06
5.8673227e-06
8.3659905e-06
1.1394369e-05
1.4936875e-05
1.8943895e-05
2.3426832e-05
2.8631125e-05
3.4956532e-05
4.1187204e-05
4.5385745e-05
5.7065231e-05
0.00010099058
0.00043824055
0.0064207681
0.23414905
0.97765976
1.1915812
1.1999729
1.2
1.2
1.2
1.2
1.2
1.2
1.2
1.2
1.2
1.2
1.2
1.2
1.2
1.2
1e-15
1e-15
1.0000005e-15
1.000001e-15
1e-15
1.0000013e-15
1.0000011e-15
1.0000001e-15
1e-15
1e-15
1e-15
1e-15
1e-15
1.0000001e-15
1.0000001e-15
1e-15
1e-15
1e-15
1e-15
1e-15
)
;
    }
    frontAndBack
    {
        type            empty;
    }
    atmosphere
    {
        type            calculated;
        value           nonuniform List<scalar> 
20
(
1.2
1.2
1.2
1.2
1.2
1.2
1.2
1.2
1.2
1.2
1.2
1.2
1.2
1.2
1.2
1.2
1.2
1.2
1.2
1.2
)
;
    }
}


// ************************************************************************* //
