/*--------------------------------*- C++ -*----------------------------------*\
| =========                 |                                                 |
| \\      /  F ield         | OpenFOAM: The Open Source CFD Toolbox           |
|  \\    /   O peration     | Version:  3.0.1                                 |
|   \\  /    A nd           | Web:      www.OpenFOAM.org                      |
|    \\/     M anipulation  |                                                 |
\*---------------------------------------------------------------------------*/
FoamFile
{
    version     2.0;
    format      ascii;
    class       volScalarField;
    location    "29";
    object      rho_foam;
}
// * * * * * * * * * * * * * * * * * * * * * * * * * * * * * * * * * * * * * //

dimensions      [1 -3 0 0 0 0 0];

internalField   nonuniform List<scalar> 
800
(
71.272625
71.266376
71.265374
71.265302
71.265329
71.265349
71.265352
71.265348
71.265344
71.265342
71.265342
71.265344
71.265349
71.265352
71.265348
71.265329
71.265301
71.265373
71.266376
71.272624
72.33732
72.268392
72.252921
72.249986
72.250156
72.250804
72.25131
72.251604
72.251748
72.251805
72.251805
72.251748
72.251604
72.251311
72.250805
72.250157
72.249987
72.252922
72.268395
72.337325
73.494348
73.381098
73.346367
73.339103
73.338618
73.339483
73.340282
73.340771
73.341019
73.341117
73.341117
73.34102
73.340773
73.340283
73.339485
73.338621
73.339106
73.346371
73.381103
73.494358
74.608425
74.459677
74.407307
74.396277
74.395236
74.39628
74.397314
74.397954
74.39828
74.398408
74.398408
74.398281
74.397956
74.397316
74.396283
74.39524
74.396281
74.407312
74.459684
74.608437
75.573629
75.401532
75.334632
75.320017
75.31884
75.32021
75.321515
75.322311
75.322714
75.322869
75.322869
75.322714
75.322313
75.321517
75.320213
75.318845
75.320022
75.334638
75.40154
75.573641
76.323924
76.141134
76.063196
76.044999
76.044206
76.046134
76.047805
76.048801
76.049301
76.049493
76.049493
76.049302
76.048803
76.047807
76.046138
76.04421
76.045003
76.063202
76.141141
76.323935
76.83874
76.653017
76.568638
76.547026
76.547128
76.54988
76.552047
76.55332
76.553958
76.554205
76.554205
76.553959
76.553321
76.552049
76.549883
76.547132
76.54703
76.568642
76.653022
76.838749
77.135116
76.947294
76.8619
76.837264
76.838682
76.842518
76.845332
76.846982
76.847814
76.848145
76.848145
76.847815
76.846983
76.845334
76.84252
76.838685
76.837267
76.861904
76.947299
77.135123
77.26425
77.065761
76.984425
76.957253
76.95936
76.964487
76.968106
76.97024
76.971331
76.971777
76.971777
76.971332
76.970241
76.968108
76.964489
76.959362
76.957255
76.984428
77.065763
77.264254
77.304343
77.075598
77.002124
76.972838
76.973655
76.979212
76.983791
76.986514
76.987929
76.988525
76.988525
76.98793
76.986515
76.983792
76.979213
76.973657
76.972839
77.002125
77.075599
77.304345
77.351056
77.060961
76.995688
76.964529
76.960392
76.964004
76.969707
76.973124
76.974936
76.975717
76.975717
76.974937
76.973126
76.969708
76.964005
76.960394
76.964529
76.995688
77.060961
77.351058
77.513274
77.121442
77.056825
77.024016
77.009783
77.00831
77.01532
77.019551
77.021873
77.022883
77.022883
77.021874
77.019553
77.015322
77.008311
77.009785
77.024016
77.056826
77.121442
77.513275
77.913745
77.372694
77.289581
77.256744
77.226289
77.217068
77.225603
77.230834
77.232302
77.233671
77.233671
77.232304
77.230837
77.225605
77.21707
77.226291
77.256745
77.289583
77.372695
77.913747
78.698707
77.949684
77.818467
77.785316
77.732236
77.713943
77.724224
77.730642
77.729108
77.731094
77.731095
77.729111
77.730645
77.724228
77.713947
77.73224
77.785319
77.81847
77.949687
78.698712
79.991487
78.961411
78.745078
78.702671
78.621401
78.594435
78.607759
78.617819
78.611055
78.610331
78.610332
78.611058
78.617824
78.607764
78.59444
78.621407
78.702676
78.745084
78.961417
79.991496
81.685908
80.284466
79.935532
79.861189
79.747919
79.716122
79.738851
79.753685
79.739723
79.728661
79.728662
79.739726
79.753691
79.738858
79.716129
79.747927
79.861196
79.93554
80.284475
81.68592
84.263441
82.356804
81.816508
81.679817
81.523689
81.495086
81.532826
81.551867
81.52972
81.500128
81.50013
81.529724
81.551874
81.532834
81.495095
81.523699
81.679826
81.816519
82.356816
84.263456
88.115419
85.517616
84.701928
84.467028
84.242026
84.221046
84.273427
84.296207
84.269714
84.216449
84.216451
84.269719
84.296215
84.273436
84.221057
84.242038
84.46704
84.701942
85.517631
88.115436
93.875079
90.291783
89.066281
88.689045
88.354634
88.333987
88.393519
88.420049
88.386324
88.307825
88.307827
88.386329
88.420059
88.39353
88.333999
88.354647
88.68906
89.066298
90.291799
93.875091
102.65935
97.592886
95.723408
95.121222
94.614711
94.559061
94.614036
94.644564
94.588274
94.48482
94.484822
94.588279
94.644574
94.614048
94.559075
94.614727
95.121238
95.723426
97.5929
102.65935
116.56473
109.13546
106.16278
105.15887
104.36183
104.22473
104.26144
104.29586
104.17001
104.04078
104.04078
104.17002
104.29587
104.26145
104.22475
104.36185
105.15889
106.1628
109.13547
116.56471
139.51383
128.11932
123.24268
121.49065
120.18713
119.83546
119.82687
119.86422
119.63444
119.47441
119.47441
119.63444
119.86423
119.82688
119.83548
120.18715
121.49067
123.2427
128.11932
139.51377
178.74366
160.24792
152.00301
148.69067
146.62308
145.92322
145.5496
145.59476
145.24988
145.05148
145.05149
145.24989
145.59477
145.54961
145.92323
146.62309
148.69069
152.00301
160.24788
178.7435
244.19929
215.28504
201.20058
195.45084
192.25086
191.04944
190.40311
190.45083
189.97638
189.725
189.725
189.97638
190.45083
190.4031
191.04944
192.25086
195.45084
201.20054
215.28488
244.19886
349.09555
297.13671
271.19592
260.01868
254.5329
252.54454
251.84749
252.02558
251.52054
251.27643
251.27643
251.52052
252.02555
251.84744
252.54448
254.53286
260.01864
271.19581
297.13636
349.09459
525.19941
410.66786
362.94366
341.87474
332.29955
329.17039
328.76056
329.49595
329.37759
329.3596
329.3596
329.37757
329.49592
328.7605
329.17032
332.29947
341.87465
362.94349
410.6673
525.19761
769.18515
555.72094
473.58034
437.38228
421.6575
416.95016
417.30289
419.39365
420.42344
421.05692
421.05691
420.4234
419.39359
417.30278
416.95004
421.65737
437.38213
473.58012
555.7202
769.18286
973.32967
714.98133
596.65806
542.3946
518.78283
511.77797
512.80439
516.58453
519.28132
520.90308
520.90307
519.28127
516.58445
512.80427
511.77784
518.78271
542.39446
596.65782
714.98055
973.32806
1065.0289
859.02479
720.40905
650.44436
618.85311
608.98242
610.13404
615.309
619.63258
622.2703
622.27029
619.63255
615.30895
610.13394
608.98232
618.85305
650.44428
720.4089
859.02422
1065.0283
1090.1939
965.49145
831.75938
753.78669
716.31
703.68513
704.30166
710.08892
715.44853
718.78496
718.78496
715.44852
710.0889
704.30161
703.68508
716.30999
753.78667
831.75927
965.49106
1090.1937
1095.355
1031.1786
921.62071
845.37597
805.68256
791.16981
790.81825
796.32974
801.90629
805.44557
805.44558
801.90631
796.32976
790.81825
791.16982
805.6826
845.376
921.62063
1031.1784
1095.355
1096.2564
1066.2922
987.34284
920.72306
882.73877
867.65842
866.26922
870.8496
875.92044
879.20568
879.2057
875.92049
870.84967
866.26927
867.65847
882.73885
920.72312
987.34278
1066.2921
1096.2564
1096.4004
1083.2459
1031.578
978.57258
945.29431
930.97544
928.78662
932.15036
936.28592
939.02702
939.02705
936.28598
932.15044
928.78669
930.97551
945.29438
978.57263
1031.578
1083.2458
1096.4004
1096.4223
1090.8834
1059.4073
1020.3369
993.29703
980.72968
978.13132
980.31733
983.39741
985.49486
985.49489
983.39748
980.31741
978.13141
980.72975
993.2971
1020.3369
1059.4073
1090.8834
1096.4223
1096.4255
1094.1642
1076.0017
1048.9349
1028.3134
1018.0011
1015.374
1016.6133
1018.736
1020.2302
1020.2302
1018.7361
1016.6134
1015.3741
1018.0012
1028.3134
1048.935
1076.0017
1094.1642
1096.4255
1096.426
1095.5256
1085.482
1067.6586
1052.7466
1044.7556
1042.3758
1042.9554
1044.321
1045.3234
1045.3234
1044.3211
1042.9555
1042.3759
1044.7557
1052.7467
1067.6586
1085.482
1095.5256
1096.426
1096.4261
1096.0753
1090.7113
1079.4602
1069.1507
1063.2529
1061.2671
1061.4442
1062.2686
1062.9072
1062.9072
1062.2686
1061.4443
1061.2672
1063.253
1069.1507
1079.4602
1090.7113
1096.0753
1096.4261
1096.4261
1096.2921
1093.5112
1086.6602
1079.8017
1075.6273
1074.0738
1074.0397
1074.507
1074.8958
1074.8958
1074.5071
1074.0397
1074.0738
1075.6273
1079.8017
1086.6602
1093.5112
1096.2921
1096.4261
1096.4261
1096.3759
1094.9716
1090.9295
1086.5174
1083.6683
1082.5153
1082.3934
1082.6411
1082.8681
1082.8681
1082.6411
1082.3934
1082.5153
1083.6683
1086.5174
1090.9295
1094.9716
1096.3759
1096.4261
1096.4261
1096.4076
1095.7153
1093.3971
1090.6424
1088.7596
1087.9406
1087.8004
1087.9216
1088.049
1088.049
1087.9216
1087.8005
1087.9406
1088.7596
1090.6424
1093.3971
1095.7153
1096.4076
1096.4261
)
;

boundaryField
{
    Wall
    {
        type            zeroGradient;
    }
    frontAndBack
    {
        type            empty;
    }
    atmosphere
    {
        type            zeroGradient;
    }
}


// ************************************************************************* //
