/*--------------------------------*- C++ -*----------------------------------*\
| =========                 |                                                 |
| \\      /  F ield         | OpenFOAM: The Open Source CFD Toolbox           |
|  \\    /   O peration     | Version:  3.0.1                                 |
|   \\  /    A nd           | Web:      www.OpenFOAM.org                      |
|    \\/     M anipulation  |                                                 |
\*---------------------------------------------------------------------------*/
FoamFile
{
    version     2.0;
    format      ascii;
    class       volScalarField;
    location    "29";
    object      thermalConductivity;
}
// * * * * * * * * * * * * * * * * * * * * * * * * * * * * * * * * * * * * * //

dimensions      [0 2 -1 0 0 0 0];

internalField   nonuniform List<scalar> 
800
(
0.018097983
0.018097374
0.018097277
0.01809727
0.018097272
0.018097274
0.018097275
0.018097274
0.018097274
0.018097274
0.018097274
0.018097274
0.018097274
0.018097275
0.018097274
0.018097272
0.01809727
0.018097277
0.018097374
0.018097983
0.01820278
0.01819602
0.018194506
0.01819422
0.018194237
0.018194301
0.01819435
0.018194379
0.018194393
0.018194398
0.018194398
0.018194393
0.018194379
0.01819435
0.018194301
0.018194237
0.01819422
0.018194506
0.01819602
0.01820278
0.018316722
0.018305598
0.018302191
0.018301481
0.018301435
0.018301521
0.018301599
0.018301647
0.018301671
0.01830168
0.01830168
0.018301671
0.018301647
0.018301599
0.018301521
0.018301435
0.018301482
0.018302191
0.018305598
0.018316723
0.018426501
0.018411869
0.018406724
0.018405645
0.018405545
0.018405649
0.01840575
0.018405813
0.018405845
0.018405857
0.018405857
0.018405845
0.018405813
0.01840575
0.018405649
0.018405546
0.018405645
0.018406725
0.01841187
0.018426502
0.018521638
0.018504692
0.018498111
0.018496678
0.018496565
0.018496701
0.01849683
0.018496908
0.018496947
0.018496962
0.018496962
0.018496947
0.018496908
0.01849683
0.018496702
0.018496566
0.018496678
0.018498111
0.018504693
0.018521639
0.018595582
0.018577567
0.018569891
0.018568102
0.018568029
0.01856822
0.018568385
0.018568483
0.018568532
0.01856855
0.01856855
0.018568532
0.018568483
0.018568385
0.01856822
0.018568029
0.018568103
0.018569892
0.018577568
0.018595583
0.018646305
0.01862798
0.018619665
0.018617535
0.01861755
0.018617824
0.018618038
0.018618163
0.018618226
0.01861825
0.01861825
0.018618226
0.018618163
0.018618038
0.018617824
0.018617551
0.018617536
0.018619666
0.01862798
0.018646306
0.018675534
0.018656964
0.018648548
0.018646116
0.018646261
0.018646642
0.01864692
0.018647082
0.018647164
0.018647197
0.018647197
0.018647164
0.018647083
0.01864692
0.018646642
0.018646261
0.018646116
0.018648548
0.018656964
0.018675535
0.018688431
0.018668742
0.018660726
0.018658039
0.01865825
0.018658759
0.018659117
0.018659327
0.018659435
0.018659479
0.018659479
0.018659435
0.018659328
0.018659117
0.018658759
0.01865825
0.01865804
0.018660726
0.018668742
0.018688431
0.018692847
0.018670064
0.018662821
0.018659922
0.018659998
0.018660546
0.018660999
0.018661268
0.018661408
0.018661467
0.018661467
0.018661408
0.018661268
0.018660999
0.018660546
0.018659998
0.018659922
0.018662821
0.018670064
0.018692847
0.018698383
0.018669376
0.018662929
0.018659842
0.018659413
0.018659759
0.018660324
0.018660662
0.018660841
0.018660918
0.018660918
0.018660841
0.018660662
0.018660324
0.01865976
0.018659413
0.018659842
0.018662929
0.018669376
0.018698383
0.018715972
0.018676681
0.018670254
0.018667002
0.018665549
0.018665378
0.018666072
0.018666491
0.018666721
0.018666821
0.018666821
0.018666721
0.018666491
0.018666073
0.018665379
0.018665549
0.018667002
0.018670254
0.018676681
0.018715972
0.018757975
0.018703613
0.018695263
0.01869201
0.018688915
0.018687963
0.018688809
0.018689327
0.018689466
0.018689602
0.018689602
0.018689466
0.018689327
0.018688809
0.018687964
0.018688916
0.01869201
0.018695263
0.018703613
0.018757975
0.018839239
0.018763825
0.018750558
0.018747266
0.018741884
0.018740022
0.018741041
0.018741677
0.018741505
0.018741703
0.018741703
0.018741505
0.018741677
0.018741042
0.018740022
0.018741885
0.018747266
0.018750558
0.018763826
0.01883924
0.018972313
0.018868325
0.018846385
0.01884212
0.018833887
0.018831156
0.018832483
0.018833492
0.01883278
0.018832694
0.018832694
0.018832781
0.018833493
0.018832484
0.018831157
0.018833888
0.018842121
0.018846386
0.018868326
0.018972314
0.019147244
0.01900527
0.018969801
0.018962234
0.018950761
0.018947551
0.018949834
0.018951324
0.018949868
0.018948713
0.018948713
0.018949868
0.018951325
0.018949835
0.018947552
0.018950762
0.018962235
0.018969802
0.019005271
0.019147245
0.019413968
0.019219776
0.019164643
0.019150643
0.019134767
0.019131885
0.019135686
0.019137595
0.019135291
0.019132231
0.019132232
0.019135292
0.019137596
0.019135687
0.019131886
0.019134768
0.019150644
0.019164644
0.019219777
0.019413969
0.019814964
0.019548244
0.019464449
0.019440265
0.019417197
0.019415052
0.019420319
0.019422603
0.019419831
0.019414336
0.019414336
0.019419832
0.019422604
0.01942032
0.019415053
0.019417198
0.019440266
0.019464451
0.019548245
0.019814966
0.020420875
0.020048484
0.019921212
0.019882054
0.019847352
0.019845126
0.019851085
0.019853754
0.01985015
0.019842028
0.019842028
0.01985015
0.019853755
0.019851086
0.019845128
0.019847353
0.019882056
0.019921214
0.020048485
0.020420877
0.021360454
0.020824218
0.020626804
0.020563343
0.020509853
0.020503708
0.020509154
0.020512246
0.02050611
0.020495308
0.020495308
0.02050611
0.020512247
0.020509156
0.02050371
0.020509855
0.020563344
0.020626806
0.020824219
0.021360454
0.022885528
0.022077497
0.021755599
0.021647061
0.021560878
0.02154562
0.021549094
0.021552617
0.0215387
0.021524963
0.021524963
0.021538701
0.021552618
0.021549095
0.021545621
0.02156088
0.021647063
0.0217556
0.022077498
0.022885526
0.025492684
0.02420321
0.023656344
0.023460609
0.023315369
0.023274799
0.02327316
0.023277082
0.023251274
0.023233751
0.023233751
0.023251275
0.023277083
0.023273161
0.0232748
0.023315371
0.023460611
0.023656346
0.024203209
0.025492676
0.030213265
0.027970115
0.026992002
0.026600436
0.026360494
0.026277639
0.026229892
0.026234815
0.026194766
0.026172044
0.026172045
0.026194766
0.026234816
0.026229893
0.026277641
0.026360496
0.026600438
0.026992003
0.02797011
0.030213245
0.024
0.024
0.024
0.024
0.024
0.031693008
0.03161058
0.031616055
0.03155743
0.031526772
0.031526772
0.031557429
0.031616055
0.031610579
0.031693006
0.024
0.024
0.024
0.024
0.024
0.024
0.024
0.024
0.024
0.024
0.024
0.024
0.024
0.024
0.024
0.024
0.024
0.024
0.024
0.024
0.024
0.024
0.024
0.024
0.024
0.024
0.024
0.024
0.024
0.024
0.024
0.024
0.024
0.024
0.024
0.024
0.024
0.024
0.024
0.024
0.024
0.024
0.024
0.024
0.024
0.024
0.024
0.024
0.024
0.024
0.024
0.024
0.024
0.024
0.024
0.024
0.024
0.024
0.024
0.024
0.024
0.024
0.024
0.024
0.024
0.024
0.024
0.024
0.024
0.024
0.024
0.024
0.024
0.024
0.024
0.024
0.024
0.024
0.024
0.024
0.024
0.024
0.024
0.024
0.024
0.024
0.024
0.024
0.024
0.024
0.024
0.024
0.024
0.024
0.024
0.024
0.024
0.024
0.024
0.024
0.024
0.024
0.024
0.024
0.024
0.024
0.024
0.024
0.024
0.024
0.024
0.024
0.024
0.024
0.024
0.024
0.024
0.024
0.024
0.024
0.024
0.024
0.024
0.024
0.024
0.024
0.024
0.024
0.024
0.024
0.024
0.024
0.024
0.024
0.024
0.024
0.024
0.024
0.024
0.024
0.024
0.024
0.024
0.024
0.024
0.024
0.024
0.024
0.024
0.024
0.024
0.024
0.024
0.024
0.024
0.024
0.024
0.024
0.024
0.024
0.024
0.024
0.024
0.024
0.024
0.024
0.024
0.024
0.024
0.024
0.024
0.024
0.024
0.024
0.024
0.024
0.024
0.024
0.024
0.024
0.024
0.024
0.024
0.024
0.024
0.024
0.024
0.024
0.024
0.024
0.024
0.024
0.024
0.024
0.024
0.024
0.024
0.024
0.024
0.024
0.024
0.024
0.024
0.024
0.024
0.024
0.024
0.024
0.024
0.024
0.024
0.024
0.024
0.024
0.024
0.024
0.024
0.024
0.024
0.024
0.024
0.024
0.024
0.024
0.024
0.024
0.024
0.024
0.024
0.024
0.024
0.024
0.024
0.024
0.024
0.024
0.024
0.024
0.024
0.024
0.024
0.024
0.024
0.024
0.024
0.024
0.024
0.024
0.024
0.024
0.024
0.024
0.024
0.024
0.024
0.024
0.024
0.024
0.024
0.024
0.024
0.024
0.024
0.024
0.024
0.024
0.024
0.024
0.024
0.024
0.024
0.024
0.024
0.024
0.024
0.024
0.024
0.024
0.024
0.024
0.024
0.024
0.024
0.024
0.024
0.024
0.024
0.024
0.024
0.024
0.024
0.024
0.024
0.024
0.024
0.024
0.024
0.024
0.024
0.024
0.024
0.024
0.024
0.024
0.024
0.024
0.024
0.024
0.024
0.024
0.024
0.024
0.024
0.024
0.024
0.024
0.024
0.024
0.024
0.024
0.024
0.024
0.024
0.024
0.024
)
;

boundaryField
{
    Wall
    {
        type            calculated;
        value           uniform 0.024;
    }
    frontAndBack
    {
        type            empty;
    }
    atmosphere
    {
        type            calculated;
        value           uniform 0.024;
    }
}


// ************************************************************************* //
