/*--------------------------------*- C++ -*----------------------------------*\
| =========                 |                                                 |
| \\      /  F ield         | OpenFOAM: The Open Source CFD Toolbox           |
|  \\    /   O peration     | Version:  3.0.1                                 |
|   \\  /    A nd           | Web:      www.OpenFOAM.org                      |
|    \\/     M anipulation  |                                                 |
\*---------------------------------------------------------------------------*/
FoamFile
{
    version     2.0;
    format      ascii;
    class       volScalarField;
    location    "29";
    object      thermalDiff_foam;
}
// * * * * * * * * * * * * * * * * * * * * * * * * * * * * * * * * * * * * * //

dimensions      [0 2 -1 0 0 0 0];

internalField   nonuniform List<scalar> 
800
(
1.4064181e-07
1.4064942e-07
1.4065063e-07
1.4065072e-07
1.4065069e-07
1.4065066e-07
1.4065066e-07
1.4065066e-07
1.4065067e-07
1.4065067e-07
1.4065067e-07
1.4065067e-07
1.4065066e-07
1.4065066e-07
1.4065066e-07
1.4065069e-07
1.4065072e-07
1.4065063e-07
1.4064942e-07
1.4064182e-07
1.3935472e-07
1.3943647e-07
1.3945481e-07
1.3945827e-07
1.3945806e-07
1.3945729e-07
1.3945669e-07
1.3945634e-07
1.3945617e-07
1.3945611e-07
1.3945611e-07
1.3945617e-07
1.3945634e-07
1.3945669e-07
1.3945729e-07
1.3945806e-07
1.3945827e-07
1.3945481e-07
1.3943647e-07
1.3935472e-07
1.3800242e-07
1.3813235e-07
1.3817223e-07
1.3818055e-07
1.3818108e-07
1.3818008e-07
1.3817917e-07
1.3817861e-07
1.3817832e-07
1.3817821e-07
1.3817821e-07
1.3817832e-07
1.381786e-07
1.3817916e-07
1.3818008e-07
1.3818108e-07
1.3818054e-07
1.3817223e-07
1.3813235e-07
1.3800241e-07
1.3674372e-07
1.3690905e-07
1.3696736e-07
1.3697961e-07
1.3698074e-07
1.3697956e-07
1.3697841e-07
1.369777e-07
1.3697734e-07
1.369772e-07
1.369772e-07
1.3697734e-07
1.369777e-07
1.3697841e-07
1.3697956e-07
1.3698073e-07
1.369796e-07
1.3696736e-07
1.3690904e-07
1.367437e-07
1.3568634e-07
1.3587247e-07
1.3594501e-07
1.3596083e-07
1.3596207e-07
1.3596056e-07
1.3595915e-07
1.3595828e-07
1.3595785e-07
1.3595768e-07
1.3595768e-07
1.3595785e-07
1.3595828e-07
1.3595914e-07
1.3596056e-07
1.3596206e-07
1.3596082e-07
1.3594501e-07
1.3587246e-07
1.3568633e-07
1.3488511e-07
1.3507869e-07
1.3516148e-07
1.3518081e-07
1.351816e-07
1.3517953e-07
1.3517775e-07
1.351767e-07
1.3517617e-07
1.3517597e-07
1.3517597e-07
1.3517617e-07
1.3517669e-07
1.3517775e-07
1.3517953e-07
1.351816e-07
1.351808e-07
1.3516148e-07
1.3507868e-07
1.348851e-07
1.3434558e-07
1.3453957e-07
1.3462793e-07
1.346506e-07
1.3465044e-07
1.3464753e-07
1.3464526e-07
1.3464392e-07
1.3464326e-07
1.34643e-07
1.34643e-07
1.3464325e-07
1.3464392e-07
1.3464525e-07
1.3464753e-07
1.3465044e-07
1.346506e-07
1.3462793e-07
1.3453957e-07
1.3434557e-07
1.3403833e-07
1.3423323e-07
1.3432191e-07
1.3434758e-07
1.3434605e-07
1.3434203e-07
1.3433909e-07
1.3433738e-07
1.3433651e-07
1.3433617e-07
1.3433617e-07
1.3433651e-07
1.3433738e-07
1.3433909e-07
1.3434203e-07
1.3434605e-07
1.3434758e-07
1.3432191e-07
1.3423323e-07
1.3403832e-07
1.339036e-07
1.3410949e-07
1.3419366e-07
1.3422192e-07
1.342197e-07
1.3421435e-07
1.3421058e-07
1.3420837e-07
1.3420724e-07
1.3420677e-07
1.3420677e-07
1.3420724e-07
1.3420837e-07
1.3421058e-07
1.3421434e-07
1.342197e-07
1.3422191e-07
1.3419366e-07
1.3410949e-07
1.339036e-07
1.3385758e-07
1.3409563e-07
1.3417164e-07
1.3420211e-07
1.3420132e-07
1.3419555e-07
1.3419079e-07
1.3418796e-07
1.3418649e-07
1.3418588e-07
1.3418588e-07
1.3418649e-07
1.3418796e-07
1.3419079e-07
1.3419555e-07
1.3420131e-07
1.3420211e-07
1.3417164e-07
1.3409563e-07
1.3385758e-07
1.3379997e-07
1.3410284e-07
1.3417051e-07
1.3420296e-07
1.3420747e-07
1.3420382e-07
1.3419789e-07
1.3419434e-07
1.3419246e-07
1.3419165e-07
1.3419165e-07
1.3419246e-07
1.3419434e-07
1.3419789e-07
1.3420382e-07
1.3420747e-07
1.3420296e-07
1.3417051e-07
1.3410284e-07
1.3379997e-07
1.3361758e-07
1.3402633e-07
1.3409364e-07
1.3412775e-07
1.34143e-07
1.3414479e-07
1.341375e-07
1.3413311e-07
1.341307e-07
1.3412965e-07
1.3412965e-07
1.341307e-07
1.3413311e-07
1.341375e-07
1.3414479e-07
1.34143e-07
1.3412775e-07
1.3409364e-07
1.3402633e-07
1.3361758e-07
1.3318577e-07
1.3374565e-07
1.3383243e-07
1.338663e-07
1.3389855e-07
1.3390847e-07
1.3389966e-07
1.3389426e-07
1.338928e-07
1.3389139e-07
1.3389139e-07
1.338928e-07
1.3389425e-07
1.3389965e-07
1.3390847e-07
1.3389854e-07
1.338663e-07
1.3383243e-07
1.3374565e-07
1.3318577e-07
1.3236513e-07
1.3312604e-07
1.3326163e-07
1.3329536e-07
1.3335056e-07
1.3336969e-07
1.3335922e-07
1.333527e-07
1.3335446e-07
1.3335243e-07
1.3335243e-07
1.3335446e-07
1.3335269e-07
1.3335922e-07
1.3336969e-07
1.3335056e-07
1.3329536e-07
1.3326163e-07
1.3312604e-07
1.3236513e-07
1.3106195e-07
1.3207605e-07
1.3229389e-07
1.3233639e-07
1.3241859e-07
1.324459e-07
1.3243263e-07
1.3242254e-07
1.3242966e-07
1.3243052e-07
1.3243052e-07
1.3242965e-07
1.3242253e-07
1.3243262e-07
1.3244589e-07
1.3241858e-07
1.3233638e-07
1.3229388e-07
1.3207605e-07
1.3106194e-07
1.2942168e-07
1.3074674e-07
1.3108609e-07
1.3115893e-07
1.3126967e-07
1.3130071e-07
1.3127863e-07
1.3126423e-07
1.3127831e-07
1.3128948e-07
1.3128948e-07
1.312783e-07
1.3126422e-07
1.3127863e-07
1.3130071e-07
1.3126966e-07
1.3115893e-07
1.3108608e-07
1.3074673e-07
1.2942167e-07
1.2706816e-07
1.2876461e-07
1.2926286e-07
1.2939059e-07
1.2953604e-07
1.2956251e-07
1.295276e-07
1.2951008e-07
1.2953123e-07
1.2955933e-07
1.2955933e-07
1.2953122e-07
1.2951008e-07
1.2952759e-07
1.295625e-07
1.2953603e-07
1.2939058e-07
1.2926285e-07
1.287646e-07
1.2706815e-07
1.2383057e-07
1.2594584e-07
1.2664151e-07
1.2684519e-07
1.270407e-07
1.2705893e-07
1.2701417e-07
1.2699477e-07
1.2701831e-07
1.2706502e-07
1.2706502e-07
1.270183e-07
1.2699476e-07
1.2701416e-07
1.2705892e-07
1.2704069e-07
1.2684518e-07
1.2664149e-07
1.2594583e-07
1.2383055e-07
1.1952456e-07
1.2209378e-07
1.2302762e-07
1.2332103e-07
1.2358349e-07
1.2360041e-07
1.2355515e-07
1.235349e-07
1.2356225e-07
1.2362397e-07
1.2362397e-07
1.2356224e-07
1.2353489e-07
1.2355514e-07
1.236004e-07
1.2358348e-07
1.2332101e-07
1.2302761e-07
1.2209377e-07
1.1952455e-07
1.1396318e-07
1.1698921e-07
1.1820004e-07
1.1860133e-07
1.1894429e-07
1.1898396e-07
1.189488e-07
1.1892885e-07
1.1896845e-07
1.190383e-07
1.190383e-07
1.1896845e-07
1.1892884e-07
1.1894879e-07
1.1898396e-07
1.1894428e-07
1.1860132e-07
1.1820003e-07
1.169892e-07
1.1396318e-07
1.0703625e-07
1.1043406e-07
1.1195191e-07
1.124874e-07
1.1292157e-07
1.1299928e-07
1.1298157e-07
1.1296362e-07
1.1303461e-07
1.131049e-07
1.131049e-07
1.1303461e-07
1.1296361e-07
1.1298156e-07
1.1299928e-07
1.1292157e-07
1.1248739e-07
1.119519e-07
1.1043405e-07
1.0703626e-07
9.9006846e-08
1.0251332e-07
1.0425742e-07
1.049253e-07
1.0543687e-07
1.0558229e-07
1.0558819e-07
1.0557408e-07
1.0566712e-07
1.0573056e-07
1.0573056e-07
1.0566712e-07
1.0557407e-07
1.0558819e-07
1.0558229e-07
1.0543687e-07
1.0492529e-07
1.0425742e-07
1.0251332e-07
9.9006864e-08
9.0853276e-08
9.4023894e-08
9.5766045e-08
9.6539666e-08
9.7037626e-08
9.7214005e-08
9.7316706e-08
9.7306083e-08
9.7392761e-08
9.7442184e-08
9.7442184e-08
9.739276e-08
9.730608e-08
9.7316704e-08
9.7214002e-08
9.7037622e-08
9.6539662e-08
9.5766043e-08
9.4023903e-08
9.08533e-08
0.00026890133
0.00026901171
0.00026925947
0.00026951114
0.00026973588
8.924119e-08
8.9322822e-08
8.9317372e-08
8.9375936e-08
8.9406744e-08
8.9406744e-08
8.9375936e-08
8.9317372e-08
8.9322823e-08
8.9241191e-08
0.00026973587
0.00026951113
0.00026925946
0.0002690117
0.00026890132
0.0002649135
0.00026503876
0.00026524093
0.00026545907
0.00026566198
0.00026583453
0.00026597108
0.00026607518
0.00026614536
0.0002661805
0.0002661805
0.00026614535
0.00026607517
0.00026597108
0.00026583452
0.00026566198
0.00026545906
0.00026524092
0.00026503875
0.00026491349
0.00026119472
0.00026135701
0.00026156161
0.00026177095
0.00026196412
0.00026212995
0.00026226375
0.00026236453
0.00026243182
0.00026246543
0.00026246543
0.00026243182
0.00026236453
0.00026226375
0.00026212995
0.00026196412
0.00026177094
0.00026156161
0.000261357
0.00026119472
0.0002577484
0.00025795768
0.00025819628
0.00025842188
0.00025862004
0.00025878546
0.00025891674
0.00025901418
0.00025907857
0.00025911055
0.00025911055
0.00025907856
0.00025901417
0.00025891674
0.00025878546
0.00025862004
0.00025842187
0.00025819628
0.00025795768
0.0002577484
0.00025460032
0.00025484472
0.00025512315
0.00025537729
0.00025559171
0.00025576457
0.00025589807
0.00025599511
0.00025605829
0.00025608942
0.00025608942
0.00025605829
0.00025599511
0.00025589807
0.00025576457
0.00025559171
0.00025537729
0.00025512315
0.00025484472
0.00025460032
0.00025176013
0.000252022
0.00025233121
0.00025261358
0.00025284835
0.00025303369
0.00025317377
0.00025327369
0.00025333782
0.00025336915
0.00025336915
0.00025333782
0.00025327369
0.00025317377
0.00025303369
0.00025284835
0.00025261358
0.0002523312
0.000252022
0.00025176013
0.00024922214
0.00024948597
0.00024981079
0.00025011328
0.00025036599
0.00025056466
0.00025071345
0.0002508185
0.00025088531
0.00025091775
0.00025091775
0.00025088531
0.0002508185
0.00025071345
0.00025056467
0.00025036599
0.00025011328
0.00024981078
0.00024948597
0.00024922214
0.00024696882
0.00024722381
0.00024755019
0.00024786198
0.00024812637
0.00024833572
0.00024849279
0.00024860354
0.0002486738
0.00024870785
0.00024870785
0.0002486738
0.00024860354
0.00024849279
0.00024833572
0.00024812637
0.00024786198
0.00024755019
0.00024722381
0.00024696882
0.00024497909
0.00024521887
0.00024553585
0.00024584644
0.00024611482
0.00024633015
0.00024649312
0.00024660862
0.0002466821
0.00024671775
0.00024671775
0.0002466821
0.00024660862
0.00024649312
0.00024633016
0.00024611482
0.00024584644
0.00024553585
0.00024521887
0.00024497909
0.00024323258
0.00024345368
0.00024375357
0.00024405426
0.00024431916
0.00024453505
0.00024470044
0.00024481871
0.00024489441
0.00024493126
0.00024493126
0.00024489441
0.00024481871
0.00024470044
0.00024453505
0.00024431916
0.00024405426
0.00024375357
0.00024345368
0.00024323259
0.00024171189
0.00024191254
0.00024219032
0.0002424745
0.00024272954
0.00024294079
0.00024310483
0.0002432234
0.00024329988
0.00024333728
0.00024333729
0.00024329988
0.00024322341
0.00024310483
0.00024294079
0.00024272954
0.0002424745
0.00024219032
0.00024191254
0.0002417119
0.0002404038
0.00024058314
0.0002408357
0.00024109877
0.000241339
0.0002415412
0.00024170042
0.00024181683
0.00024189254
0.00024192976
0.00024192976
0.00024189254
0.00024181683
0.00024170042
0.0002415412
0.000241339
0.00024109877
0.00024083571
0.00024058314
0.0002404038
0.00023930008
0.00023945778
0.00023968341
0.00023992244
0.00024014446
0.00024033431
0.00024048592
0.00024059806
0.00024067164
0.000240708
0.000240708
0.00024067164
0.00024059807
0.00024048592
0.00024033431
0.00024014446
0.00023992245
0.00023968341
0.00023945778
0.00023930009
0.00023839815
0.00023853425
0.00023873236
0.00023894605
0.00023914802
0.00023932357
0.00023946577
0.0002395722
0.00023964264
0.00023967764
0.00023967764
0.00023964264
0.0002395722
0.00023946577
0.00023932357
0.00023914803
0.00023894605
0.00023873236
0.00023853425
0.00023839815
0.00023770152
0.00023781665
0.00023798804
0.00023817685
0.0002383588
0.00023851968
0.00023865192
0.00023875208
0.00023881894
0.00023885234
0.00023885234
0.00023881895
0.00023875208
0.00023865192
0.00023851968
0.0002383588
0.00023817685
0.00023798804
0.00023781666
0.00023770153
0.00023722009
0.00023731623
0.00023746392
0.00023763091
0.00023779529
0.00023794322
0.00023806656
0.00023816102
0.00023822459
0.00023825648
0.00023825648
0.00023822459
0.00023816102
0.00023806657
0.00023794322
0.00023779529
0.00023763091
0.00023746393
0.00023731624
0.00023722009
0.00023696966
0.00023705211
0.00023718356
0.00023733601
0.00023748889
0.0002376284
0.00023774597
0.00023783672
0.00023789813
0.00023792905
0.00023792905
0.00023789813
0.00023783672
0.00023774597
0.0002376284
0.00023748889
0.00023733601
0.00023718356
0.00023705211
0.00023696966
)
;

boundaryField
{
    Wall
    {
        type            calculated;
        value           uniform 4e-05;
    }
    frontAndBack
    {
        type            empty;
    }
    atmosphere
    {
        type            calculated;
        value           uniform 4e-05;
    }
}


// ************************************************************************* //
