/*--------------------------------*- C++ -*----------------------------------*\
| =========                 |                                                 |
| \\      /  F ield         | OpenFOAM: The Open Source CFD Toolbox           |
|  \\    /   O peration     | Version:  3.0.1                                 |
|   \\  /    A nd           | Web:      www.OpenFOAM.org                      |
|    \\/     M anipulation  |                                                 |
\*---------------------------------------------------------------------------*/
FoamFile
{
    version     2.0;
    format      ascii;
    class       volScalarField;
    location    "29";
    object      thermalDiff_gas;
}
// * * * * * * * * * * * * * * * * * * * * * * * * * * * * * * * * * * * * * //

dimensions      [0 2 -1 0 0 0 0];

internalField   nonuniform List<scalar> 
800
(
0.00030965026
0.00030966346
0.00030966634
0.00030966678
0.00030966684
0.00030966686
0.00030966691
0.00030966695
0.00030966699
0.00030966701
0.00030966701
0.00030966699
0.00030966695
0.00030966691
0.00030966686
0.00030966684
0.00030966678
0.00030966634
0.00030966346
0.00030965026
0.00030809942
0.00030819122
0.00030821726
0.00030822347
0.00030822415
0.00030822355
0.00030822287
0.00030822241
0.00030822214
0.00030822202
0.00030822202
0.00030822214
0.0003082224
0.00030822287
0.00030822355
0.00030822415
0.00030822347
0.00030821726
0.00030819121
0.00030809941
0.00030671617
0.0003068593
0.00030690824
0.00030692079
0.00030692283
0.00030692218
0.0003069212
0.00030692047
0.00030692004
0.00030691985
0.00030691985
0.00030692004
0.00030692047
0.0003069212
0.00030692218
0.00030692282
0.00030692079
0.00030690823
0.00030685929
0.00030671615
0.00030559999
0.00030578116
0.00030584855
0.00030586621
0.0003058693
0.00030586867
0.00030586751
0.00030586664
0.00030586612
0.00030586589
0.00030586589
0.00030586612
0.00030586663
0.00030586751
0.00030586867
0.0003058693
0.0003058662
0.00030584854
0.00030578115
0.00030559997
0.00030481526
0.00030501913
0.00030510111
0.00030512247
0.00030512612
0.00030512534
0.00030512399
0.00030512299
0.0003051224
0.00030512215
0.00030512215
0.0003051224
0.00030512298
0.00030512399
0.00030512534
0.00030512611
0.00030512247
0.00030510111
0.00030501912
0.00030481524
0.00030441138
0.00030462042
0.00030471391
0.00030473778
0.00030474146
0.00030474031
0.00030473869
0.00030473751
0.00030473684
0.00030473655
0.00030473655
0.00030473684
0.00030473751
0.00030473868
0.00030474031
0.00030474146
0.00030473777
0.0003047139
0.00030462041
0.00030441137
0.00030442547
0.00030462215
0.00030472375
0.00030474922
0.00030475255
0.00030475078
0.00030474874
0.0003047473
0.0003047465
0.00030474615
0.00030474616
0.0003047465
0.0003047473
0.00030474873
0.00030475077
0.00030475254
0.00030474922
0.00030472375
0.00030462215
0.00030442546
0.00030488187
0.00030505113
0.0003051558
0.0003051824
0.0003051852
0.0003051826
0.00030518
0.00030517819
0.0003051772
0.00030517675
0.00030517675
0.0003051772
0.00030517819
0.00030518
0.0003051826
0.0003051852
0.0003051824
0.0003051558
0.00030505113
0.00030488186
0.00030579058
0.00030592233
0.00030602299
0.00030605087
0.00030605316
0.00030604964
0.00030604632
0.000306044
0.00030604273
0.00030604214
0.00030604214
0.00030604273
0.000306044
0.00030604632
0.00030604965
0.00030605316
0.00030605087
0.00030602299
0.00030592234
0.00030579058
0.00030714598
0.0003072373
0.00030732563
0.00030735587
0.00030735802
0.0003073535
0.00030734928
0.00030734629
0.00030734466
0.00030734388
0.00030734388
0.00030734466
0.00030734629
0.00030734929
0.0003073535
0.00030735803
0.00030735588
0.00030732564
0.00030723731
0.00030714599
0.00030892417
0.00030898157
0.00030904966
0.00030908478
0.00030908755
0.00030908195
0.0003090767
0.00030907291
0.00030907088
0.00030906988
0.00030906988
0.00030907089
0.00030907291
0.0003090767
0.00030908195
0.00030908756
0.00030908479
0.00030904967
0.00030898158
0.00030892418
0.0003110775
0.00031111631
0.0003111622
0.0003112067
0.0003112083
0.00031120178
0.00031119555
0.00031119094
0.00031118869
0.00031118746
0.00031118746
0.0003111887
0.00031119095
0.00031119555
0.00031120179
0.00031120831
0.00031120672
0.00031116222
0.00031111633
0.00031107752
0.0003135246
0.00031356584
0.00031360253
0.00031365946
0.00031365436
0.00031364775
0.00031364105
0.00031363585
0.00031363362
0.00031363225
0.00031363226
0.00031363362
0.00031363586
0.00031364106
0.00031364776
0.00031365437
0.00031365947
0.00031360254
0.00031356586
0.00031352462
0.00031612951
0.00031620654
0.00031626337
0.00031633329
0.00031631646
0.00031631192
0.00031630622
0.00031630114
0.00031629281
0.00031629163
0.00031629163
0.00031629281
0.00031630115
0.00031630623
0.00031631193
0.00031631647
0.0003163333
0.00031626339
0.00031620656
0.00031612953
0.0003186607
0.00031883659
0.00031895067
0.00031903776
0.00031901167
0.00031901382
0.00031901285
0.00031900973
0.0003189825
0.00031898171
0.00031898171
0.0003189825
0.00031900973
0.00031901286
0.00031901383
0.00031901169
0.00031903778
0.00031895069
0.00031883661
0.00031866073
0.00032078028
0.00032116085
0.00032136882
0.00032148875
0.00032146818
0.00032148615
0.00032148109
0.00032148322
0.00032142836
0.00032142852
0.00032142852
0.00032142836
0.00032148322
0.0003214811
0.00032148616
0.0003214682
0.00032148876
0.00032136884
0.00032116088
0.0003207803
0.00032202216
0.0003227623
0.00032310331
0.00032328723
0.00032329889
0.00032332093
0.00032329676
0.00032330974
0.00032323714
0.00032324049
0.00032324049
0.00032323714
0.00032330974
0.00032329676
0.00032332094
0.0003232989
0.00032328724
0.00032310333
0.00032276232
0.00032202219
0.00032179661
0.00032303315
0.00032356312
0.00032385599
0.00032394444
0.00032396054
0.00032392199
0.00032395303
0.00032384785
0.00032385792
0.00032385792
0.00032384785
0.00032395303
0.00032392199
0.00032396055
0.00032394445
0.00032385601
0.00032356314
0.00032303317
0.00032179663
0.00031921673
0.00032113489
0.0003219444
0.00032239947
0.00032256167
0.00032260047
0.00032258211
0.00032263938
0.00032250713
0.00032252828
0.00032252828
0.00032250713
0.00032263938
0.00032258212
0.00032260048
0.00032256168
0.00032239948
0.00032194441
0.00032113492
0.00031921676
0.00031298932
0.00031585764
0.00031709946
0.0003178065
0.00031797726
0.00031810129
0.00031815047
0.00031824219
0.00031814276
0.00031817941
0.00031817941
0.00031814277
0.00031824219
0.00031815048
0.0003181013
0.00031797727
0.00031780651
0.00031709948
0.00031585767
0.00031298938
0.0003015001
0.00030565284
0.00030753632
0.00030836188
0.00030870347
0.00030906234
0.0003092315
0.00030936701
0.0003093708
0.00030942629
0.00030942629
0.0003093708
0.00030936702
0.00030923151
0.00030906236
0.00030870348
0.00030836191
0.00030753635
0.0003056529
0.0003015002
0.00028493639
0.00028913683
0.00029152072
0.00029279176
0.00029341835
0.00029372085
0.00029421994
0.00029441869
0.00029453588
0.00029460751
0.00029460751
0.00029453589
0.0002944187
0.00029421996
0.00029372087
0.00029341838
0.00029279179
0.00029152076
0.00028913689
0.00028493645
0.00027516449
0.00027579763
0.00027648287
0.00027688909
0.00027720931
0.00027743865
0.00027755448
0.00027768327
0.0002777725
0.0002778157
0.0002778157
0.0002777725
0.00027768326
0.00027755448
0.00027743864
0.00027720931
0.00027688909
0.00027648286
0.00027579763
0.00027516448
0.00026890133
0.00026901171
0.00026925947
0.00026951114
0.00026973588
0.00026991953
0.00027005549
0.00027016373
0.0002702376
0.00027027452
0.00027027452
0.0002702376
0.00027016372
0.00027005549
0.00026991952
0.00026973587
0.00026951113
0.00026925946
0.0002690117
0.00026890132
0.0002649135
0.00026503876
0.00026524093
0.00026545907
0.00026566198
0.00026583453
0.00026597108
0.00026607518
0.00026614536
0.0002661805
0.0002661805
0.00026614535
0.00026607517
0.00026597108
0.00026583452
0.00026566198
0.00026545906
0.00026524092
0.00026503875
0.00026491349
0.00026119472
0.00026135701
0.00026156161
0.00026177095
0.00026196412
0.00026212995
0.00026226375
0.00026236453
0.00026243182
0.00026246543
0.00026246543
0.00026243182
0.00026236453
0.00026226375
0.00026212995
0.00026196412
0.00026177094
0.00026156161
0.000261357
0.00026119472
0.0002577484
0.00025795768
0.00025819628
0.00025842188
0.00025862004
0.00025878546
0.00025891674
0.00025901418
0.00025907857
0.00025911055
0.00025911055
0.00025907856
0.00025901417
0.00025891674
0.00025878546
0.00025862004
0.00025842187
0.00025819628
0.00025795768
0.0002577484
0.00025460032
0.00025484472
0.00025512315
0.00025537729
0.00025559171
0.00025576457
0.00025589807
0.00025599511
0.00025605829
0.00025608942
0.00025608942
0.00025605829
0.00025599511
0.00025589807
0.00025576457
0.00025559171
0.00025537729
0.00025512315
0.00025484472
0.00025460032
0.00025176013
0.000252022
0.00025233121
0.00025261358
0.00025284835
0.00025303369
0.00025317377
0.00025327369
0.00025333782
0.00025336915
0.00025336915
0.00025333782
0.00025327369
0.00025317377
0.00025303369
0.00025284835
0.00025261358
0.0002523312
0.000252022
0.00025176013
0.00024922214
0.00024948597
0.00024981079
0.00025011328
0.00025036599
0.00025056466
0.00025071345
0.0002508185
0.00025088531
0.00025091775
0.00025091775
0.00025088531
0.0002508185
0.00025071345
0.00025056467
0.00025036599
0.00025011328
0.00024981078
0.00024948597
0.00024922214
0.00024696882
0.00024722381
0.00024755019
0.00024786198
0.00024812637
0.00024833572
0.00024849279
0.00024860354
0.0002486738
0.00024870785
0.00024870785
0.0002486738
0.00024860354
0.00024849279
0.00024833572
0.00024812637
0.00024786198
0.00024755019
0.00024722381
0.00024696882
0.00024497909
0.00024521887
0.00024553585
0.00024584644
0.00024611482
0.00024633015
0.00024649312
0.00024660862
0.0002466821
0.00024671775
0.00024671775
0.0002466821
0.00024660862
0.00024649312
0.00024633016
0.00024611482
0.00024584644
0.00024553585
0.00024521887
0.00024497909
0.00024323258
0.00024345368
0.00024375357
0.00024405426
0.00024431916
0.00024453505
0.00024470044
0.00024481871
0.00024489441
0.00024493126
0.00024493126
0.00024489441
0.00024481871
0.00024470044
0.00024453505
0.00024431916
0.00024405426
0.00024375357
0.00024345368
0.00024323259
0.00024171189
0.00024191254
0.00024219032
0.0002424745
0.00024272954
0.00024294079
0.00024310483
0.0002432234
0.00024329988
0.00024333728
0.00024333729
0.00024329988
0.00024322341
0.00024310483
0.00024294079
0.00024272954
0.0002424745
0.00024219032
0.00024191254
0.0002417119
0.0002404038
0.00024058314
0.0002408357
0.00024109877
0.000241339
0.0002415412
0.00024170042
0.00024181683
0.00024189254
0.00024192976
0.00024192976
0.00024189254
0.00024181683
0.00024170042
0.0002415412
0.000241339
0.00024109877
0.00024083571
0.00024058314
0.0002404038
0.00023930008
0.00023945778
0.00023968341
0.00023992244
0.00024014446
0.00024033431
0.00024048592
0.00024059806
0.00024067164
0.000240708
0.000240708
0.00024067164
0.00024059807
0.00024048592
0.00024033431
0.00024014446
0.00023992245
0.00023968341
0.00023945778
0.00023930009
0.00023839815
0.00023853425
0.00023873236
0.00023894605
0.00023914802
0.00023932357
0.00023946577
0.0002395722
0.00023964264
0.00023967764
0.00023967764
0.00023964264
0.0002395722
0.00023946577
0.00023932357
0.00023914803
0.00023894605
0.00023873236
0.00023853425
0.00023839815
0.00023770152
0.00023781665
0.00023798804
0.00023817685
0.0002383588
0.00023851968
0.00023865192
0.00023875208
0.00023881894
0.00023885234
0.00023885234
0.00023881895
0.00023875208
0.00023865192
0.00023851968
0.0002383588
0.00023817685
0.00023798804
0.00023781666
0.00023770153
0.00023722009
0.00023731623
0.00023746392
0.00023763091
0.00023779529
0.00023794322
0.00023806656
0.00023816102
0.00023822459
0.00023825648
0.00023825648
0.00023822459
0.00023816102
0.00023806657
0.00023794322
0.00023779529
0.00023763091
0.00023746393
0.00023731624
0.00023722009
0.00023696966
0.00023705211
0.00023718356
0.00023733601
0.00023748889
0.0002376284
0.00023774597
0.00023783672
0.00023789813
0.00023792905
0.00023792905
0.00023789813
0.00023783672
0.00023774597
0.0002376284
0.00023748889
0.00023733601
0.00023718356
0.00023705211
0.00023696966
)
;

boundaryField
{
    Wall
    {
        type            calculated;
        value           uniform 0.1;
    }
    frontAndBack
    {
        type            empty;
    }
    atmosphere
    {
        type            calculated;
        value           uniform 0.1;
    }
}


// ************************************************************************* //
