/*--------------------------------*- C++ -*----------------------------------*\
| =========                 |                                                 |
| \\      /  F ield         | OpenFOAM: The Open Source CFD Toolbox           |
|  \\    /   O peration     | Version:  3.0.1                                 |
|   \\  /    A nd           | Web:      www.OpenFOAM.org                      |
|    \\/     M anipulation  |                                                 |
\*---------------------------------------------------------------------------*/
FoamFile
{
    version     2.0;
    format      ascii;
    class       volScalarField;
    location    "29";
    object      thermalDiffusivity;
}
// * * * * * * * * * * * * * * * * * * * * * * * * * * * * * * * * * * * * * //

dimensions      [0 2 -1 0 0 0 0];

internalField   nonuniform List<scalar> 
800
(
1.4064181e-07
1.4064942e-07
1.4065063e-07
1.4065072e-07
1.4065069e-07
1.4065066e-07
1.4065066e-07
1.4065066e-07
1.4065067e-07
1.4065067e-07
1.4065067e-07
1.4065067e-07
1.4065066e-07
1.4065066e-07
1.4065066e-07
1.4065069e-07
1.4065072e-07
1.4065063e-07
1.4064942e-07
1.4064182e-07
1.3935472e-07
1.3943647e-07
1.3945482e-07
1.3945827e-07
1.3945806e-07
1.3945729e-07
1.3945669e-07
1.3945635e-07
1.3945618e-07
1.3945612e-07
1.3945612e-07
1.3945618e-07
1.3945635e-07
1.3945669e-07
1.3945729e-07
1.3945806e-07
1.3945827e-07
1.3945481e-07
1.3943647e-07
1.3935472e-07
1.3801593e-07
1.3814447e-07
1.3818392e-07
1.3819211e-07
1.3819263e-07
1.3819165e-07
1.3819074e-07
1.381902e-07
1.3818993e-07
1.3818983e-07
1.3818982e-07
1.3818993e-07
1.381902e-07
1.3819074e-07
1.3819164e-07
1.3819263e-07
1.3819211e-07
1.3818391e-07
1.3814447e-07
1.3801591e-07
1.3680387e-07
1.369629e-07
1.3701921e-07
1.3703098e-07
1.3703204e-07
1.3703092e-07
1.3702984e-07
1.370292e-07
1.3702888e-07
1.3702877e-07
1.3702876e-07
1.3702888e-07
1.370292e-07
1.3702984e-07
1.3703092e-07
1.3703203e-07
1.3703098e-07
1.370192e-07
1.369629e-07
1.3680386e-07
1.358472e-07
1.3601629e-07
1.3608322e-07
1.3609784e-07
1.3609892e-07
1.3609758e-07
1.3609637e-07
1.3609568e-07
1.3609536e-07
1.3609525e-07
1.3609524e-07
1.3609536e-07
1.3609568e-07
1.3609637e-07
1.3609758e-07
1.3609892e-07
1.3609784e-07
1.3608321e-07
1.3601628e-07
1.3584719e-07
1.3522129e-07
1.3537921e-07
1.354495e-07
1.3546641e-07
1.3546696e-07
1.3546526e-07
1.3546393e-07
1.3546322e-07
1.3546292e-07
1.3546284e-07
1.3546284e-07
1.3546293e-07
1.3546322e-07
1.3546392e-07
1.3546526e-07
1.3546695e-07
1.3546641e-07
1.3544949e-07
1.353792e-07
1.3522128e-07
1.3495119e-07
1.3508127e-07
1.3514521e-07
1.351636e-07
1.3516316e-07
1.35161e-07
1.3515954e-07
1.3515885e-07
1.3515861e-07
1.3515856e-07
1.3515855e-07
1.3515861e-07
1.3515885e-07
1.3515954e-07
1.3516099e-07
1.3516315e-07
1.351636e-07
1.351452e-07
1.3508127e-07
1.3495118e-07
1.3502507e-07
1.3511722e-07
1.3516206e-07
1.3518064e-07
1.3517897e-07
1.3517632e-07
1.3517479e-07
1.3517413e-07
1.3517396e-07
1.3517395e-07
1.3517395e-07
1.3517396e-07
1.3517413e-07
1.3517479e-07
1.3517632e-07
1.3517897e-07
1.3518064e-07
1.3516205e-07
1.3511722e-07
1.3502507e-07
1.3539808e-07
1.3545191e-07
1.3546218e-07
1.3547895e-07
1.3547706e-07
1.3547401e-07
1.3547246e-07
1.3547189e-07
1.3547182e-07
1.3547186e-07
1.3547186e-07
1.3547182e-07
1.3547189e-07
1.3547246e-07
1.3547401e-07
1.3547706e-07
1.3547895e-07
1.3546217e-07
1.3545192e-07
1.3539809e-07
1.3599796e-07
1.360257e-07
1.3598348e-07
1.3599512e-07
1.3599558e-07
1.3599346e-07
1.3599199e-07
1.3599155e-07
1.3599161e-07
1.3599172e-07
1.3599171e-07
1.3599161e-07
1.3599155e-07
1.3599199e-07
1.3599346e-07
1.3599558e-07
1.3599512e-07
1.3598348e-07
1.3602571e-07
1.3599796e-07
1.3673203e-07
1.3675929e-07
1.366478e-07
1.3664877e-07
1.3665603e-07
1.366578e-07
1.3665652e-07
1.3665628e-07
1.3665652e-07
1.3665671e-07
1.3665671e-07
1.3665652e-07
1.3665628e-07
1.3665653e-07
1.3665781e-07
1.3665603e-07
1.3664878e-07
1.366478e-07
1.3675929e-07
1.3673203e-07
1.3748802e-07
1.3754811e-07
1.373654e-07
1.3734515e-07
1.3736467e-07
1.3737415e-07
1.3737318e-07
1.3737318e-07
1.3737359e-07
1.3737386e-07
1.3737385e-07
1.3737359e-07
1.3737318e-07
1.3737318e-07
1.3737416e-07
1.3736467e-07
1.3734515e-07
1.373654e-07
1.3754812e-07
1.3748802e-07
1.3813315e-07
1.3827449e-07
1.3805961e-07
1.3797713e-07
1.3801148e-07
1.3803194e-07
1.3803136e-07
1.3803156e-07
1.380337e-07
1.3803399e-07
1.3803398e-07
1.380337e-07
1.3803156e-07
1.3803136e-07
1.3803194e-07
1.3801148e-07
1.3797713e-07
1.3805962e-07
1.3827449e-07
1.3813315e-07
1.3853414e-07
1.3892705e-07
1.3878571e-07
1.3840659e-07
1.3846779e-07
1.3850094e-07
1.3850093e-07
1.385014e-07
1.3850743e-07
1.3850756e-07
1.3850756e-07
1.3850743e-07
1.3850141e-07
1.3850093e-07
1.3850094e-07
1.384678e-07
1.3840659e-07
1.3878572e-07
1.3892705e-07
1.3853414e-07
1.3866183e-07
1.4103493e-07
1.3908226e-07
1.3852328e-07
1.3863791e-07
1.3868337e-07
1.3868316e-07
1.3868158e-07
1.3869326e-07
1.3869665e-07
1.3869664e-07
1.3869326e-07
1.3868158e-07
1.3868316e-07
1.3868337e-07
1.3863791e-07
1.3852327e-07
1.3908228e-07
1.4103502e-07
1.3866183e-07
1.3876237e-07
1.4056518e-07
1.3812048e-07
1.3855266e-07
1.38678e-07
1.3873207e-07
1.3872593e-07
1.3872156e-07
1.387401e-07
1.38754e-07
1.38754e-07
1.387401e-07
1.3872156e-07
1.3872593e-07
1.3873207e-07
1.3867799e-07
1.3855266e-07
1.3812046e-07
1.4056521e-07
1.3876237e-07
1.3811643e-07
1.374241e-07
1.3747046e-07
1.3803843e-07
1.3822197e-07
1.3827695e-07
1.3826068e-07
1.3825484e-07
1.3828044e-07
1.3831142e-07
1.3831142e-07
1.3828044e-07
1.3825484e-07
1.3826068e-07
1.3827695e-07
1.3822197e-07
1.3803842e-07
1.3747044e-07
1.3742406e-07
1.3811644e-07
1.359967e-07
1.3510091e-07
1.3650107e-07
1.3689698e-07
1.3713965e-07
1.3718988e-07
1.3716522e-07
1.3715869e-07
1.3718479e-07
1.3723426e-07
1.3723426e-07
1.3718479e-07
1.3715868e-07
1.3716522e-07
1.3718987e-07
1.3713965e-07
1.3689697e-07
1.3650106e-07
1.3510086e-07
1.3599669e-07
1.3469905e-07
1.3363932e-07
1.3494948e-07
1.3527182e-07
1.3555328e-07
1.3559141e-07
1.3556001e-07
1.355494e-07
1.355707e-07
1.3563271e-07
1.3563271e-07
1.3557069e-07
1.355494e-07
1.3556001e-07
1.355914e-07
1.3555327e-07
1.3527181e-07
1.3494946e-07
1.3363928e-07
1.3469901e-07
1.4029461e-07
1.3506649e-07
1.3507495e-07
1.351107e-07
1.3525233e-07
1.3521674e-07
1.3514262e-07
1.3510235e-07
1.3509595e-07
1.3514942e-07
1.3514941e-07
1.3509595e-07
1.3510234e-07
1.3514261e-07
1.3521672e-07
1.3525231e-07
1.3511067e-07
1.3507491e-07
1.3506641e-07
1.4029441e-07
2.1710749e-07
1.7016162e-07
1.578587e-07
1.54523e-07
1.5280932e-07
1.5186825e-07
1.5130347e-07
1.5096702e-07
1.5067749e-07
1.5058517e-07
1.5058515e-07
1.5067745e-07
1.5096695e-07
1.5130337e-07
1.5186812e-07
1.5280916e-07
1.5452281e-07
1.5785841e-07
1.7016095e-07
2.1710518e-07
1.6231248e-06
7.1581058e-07
4.9838919e-07
4.4029617e-07
4.0831609e-07
3.9315208e-07
3.8490912e-07
3.7999575e-07
3.7538468e-07
3.7324783e-07
3.7324762e-07
3.7538402e-07
3.7999472e-07
3.8490767e-07
3.9315025e-07
4.0831385e-07
4.4029313e-07
4.9838456e-07
7.1579852e-07
1.6230695e-06
5.3765969e-05
2.0899293e-05
1.2551553e-05
1.0158886e-05
8.8030642e-06
8.1782966e-06
7.818288e-06
7.6193363e-06
7.4353107e-06
7.3495099e-06
7.3495014e-06
7.4352835e-06
7.6192926e-06
7.8182248e-06
8.1782161e-06
8.8029556e-06
1.015875e-05
1.2551354e-05
2.0898784e-05
5.3764377e-05
0.00026890133
0.00026901171
0.00026925947
0.00026951114
0.00026973588
0.00013482482
0.00013258503
0.00013132557
0.00013012293
0.00012955869
0.00012955863
0.00013012274
0.00013132528
0.00013258461
0.0001348243
0.00026973587
0.00026951113
0.00026925946
0.0002690117
0.00026890132
0.0002649135
0.00026503876
0.00026524093
0.00026545907
0.00026566198
0.00026583453
0.00026597108
0.00026607518
0.00026614536
0.0002661805
0.0002661805
0.00026614535
0.00026607517
0.00026597108
0.00026583452
0.00026566198
0.00026545906
0.00026524092
0.00026503875
0.00026491349
0.00026119472
0.00026135701
0.00026156161
0.00026177095
0.00026196412
0.00026212995
0.00026226375
0.00026236453
0.00026243182
0.00026246543
0.00026246543
0.00026243182
0.00026236453
0.00026226375
0.00026212995
0.00026196412
0.00026177094
0.00026156161
0.000261357
0.00026119472
0.0002577484
0.00025795768
0.00025819628
0.00025842188
0.00025862004
0.00025878546
0.00025891674
0.00025901418
0.00025907857
0.00025911055
0.00025911055
0.00025907856
0.00025901417
0.00025891674
0.00025878546
0.00025862004
0.00025842187
0.00025819628
0.00025795768
0.0002577484
0.00025460032
0.00025484472
0.00025512315
0.00025537729
0.00025559171
0.00025576457
0.00025589807
0.00025599511
0.00025605829
0.00025608942
0.00025608942
0.00025605829
0.00025599511
0.00025589807
0.00025576457
0.00025559171
0.00025537729
0.00025512315
0.00025484472
0.00025460032
0.00025176013
0.000252022
0.00025233121
0.00025261358
0.00025284835
0.00025303369
0.00025317377
0.00025327369
0.00025333782
0.00025336915
0.00025336915
0.00025333782
0.00025327369
0.00025317377
0.00025303369
0.00025284835
0.00025261358
0.0002523312
0.000252022
0.00025176013
0.00024922214
0.00024948597
0.00024981079
0.00025011328
0.00025036599
0.00025056466
0.00025071345
0.0002508185
0.00025088531
0.00025091775
0.00025091775
0.00025088531
0.0002508185
0.00025071345
0.00025056467
0.00025036599
0.00025011328
0.00024981078
0.00024948597
0.00024922214
0.00024696882
0.00024722381
0.00024755019
0.00024786198
0.00024812637
0.00024833572
0.00024849279
0.00024860354
0.0002486738
0.00024870785
0.00024870785
0.0002486738
0.00024860354
0.00024849279
0.00024833572
0.00024812637
0.00024786198
0.00024755019
0.00024722381
0.00024696882
0.00024497909
0.00024521887
0.00024553585
0.00024584644
0.00024611482
0.00024633015
0.00024649312
0.00024660862
0.0002466821
0.00024671775
0.00024671775
0.0002466821
0.00024660862
0.00024649312
0.00024633016
0.00024611482
0.00024584644
0.00024553585
0.00024521887
0.00024497909
0.00024323258
0.00024345368
0.00024375357
0.00024405426
0.00024431916
0.00024453505
0.00024470044
0.00024481871
0.00024489441
0.00024493126
0.00024493126
0.00024489441
0.00024481871
0.00024470044
0.00024453505
0.00024431916
0.00024405426
0.00024375357
0.00024345368
0.00024323259
0.00024171189
0.00024191254
0.00024219032
0.0002424745
0.00024272954
0.00024294079
0.00024310483
0.0002432234
0.00024329988
0.00024333728
0.00024333729
0.00024329988
0.00024322341
0.00024310483
0.00024294079
0.00024272954
0.0002424745
0.00024219032
0.00024191254
0.0002417119
0.0002404038
0.00024058314
0.0002408357
0.00024109877
0.000241339
0.0002415412
0.00024170042
0.00024181683
0.00024189254
0.00024192976
0.00024192976
0.00024189254
0.00024181683
0.00024170042
0.0002415412
0.000241339
0.00024109877
0.00024083571
0.00024058314
0.0002404038
0.00023930008
0.00023945778
0.00023968341
0.00023992244
0.00024014446
0.00024033431
0.00024048592
0.00024059806
0.00024067164
0.000240708
0.000240708
0.00024067164
0.00024059807
0.00024048592
0.00024033431
0.00024014446
0.00023992245
0.00023968341
0.00023945778
0.00023930009
0.00023839815
0.00023853425
0.00023873236
0.00023894605
0.00023914802
0.00023932357
0.00023946577
0.0002395722
0.00023964264
0.00023967764
0.00023967764
0.00023964264
0.0002395722
0.00023946577
0.00023932357
0.00023914803
0.00023894605
0.00023873236
0.00023853425
0.00023839815
0.00023770152
0.00023781665
0.00023798804
0.00023817685
0.0002383588
0.00023851968
0.00023865192
0.00023875208
0.00023881894
0.00023885234
0.00023885234
0.00023881895
0.00023875208
0.00023865192
0.00023851968
0.0002383588
0.00023817685
0.00023798804
0.00023781666
0.00023770153
0.00023722009
0.00023731623
0.00023746392
0.00023763091
0.00023779529
0.00023794322
0.00023806656
0.00023816102
0.00023822459
0.00023825648
0.00023825648
0.00023822459
0.00023816102
0.00023806657
0.00023794322
0.00023779529
0.00023763091
0.00023746393
0.00023731624
0.00023722009
0.00023696966
0.00023705211
0.00023718356
0.00023733601
0.00023748889
0.0002376284
0.00023774597
0.00023783672
0.00023789813
0.00023792905
0.00023792905
0.00023789813
0.00023783672
0.00023774597
0.0002376284
0.00023748889
0.00023733601
0.00023718356
0.00023705211
0.00023696966
)
;

boundaryField
{
    Wall
    {
        type            calculated;
        value           uniform 4e-05;
    }
    frontAndBack
    {
        type            empty;
    }
    atmosphere
    {
        type            calculated;
        value           uniform 4e-05;
    }
}


// ************************************************************************* //
