/*--------------------------------*- C++ -*----------------------------------*\
| =========                 |                                                 |
| \\      /  F ield         | OpenFOAM: The Open Source CFD Toolbox           |
|  \\    /   O peration     | Version:  3.0.1                                 |
|   \\  /    A nd           | Web:      www.OpenFOAM.org                      |
|    \\/     M anipulation  |                                                 |
\*---------------------------------------------------------------------------*/
FoamFile
{
    version     2.0;
    format      ascii;
    class       volScalarField;
    location    "29";
    object      TS;
}
// * * * * * * * * * * * * * * * * * * * * * * * * * * * * * * * * * * * * * //

dimensions      [0 0 0 1 0 0 0];

internalField   nonuniform List<scalar> 
800
(
351.30562
351.31395
351.31577
351.31605
351.31609
351.3161
351.31613
351.31616
351.31618
351.31619
351.31619
351.31618
351.31616
351.31613
351.31611
351.31609
351.31605
351.31577
351.31395
351.30562
350.33659
350.39429
350.4107
350.41463
350.41507
350.41469
350.41427
350.41398
350.41381
350.41374
350.41374
350.41381
350.41398
350.41427
350.41469
350.41507
350.41463
350.4107
350.39428
350.33658
349.47097
349.56101
349.59187
349.59981
349.60112
349.60072
349.6001
349.59964
349.59937
349.59925
349.59925
349.59937
349.59964
349.6001
349.60072
349.60111
349.59981
349.59186
349.561
349.47096
348.77156
348.88562
348.92814
348.93932
348.9413
348.94091
348.94019
348.93964
348.93931
348.93917
348.93917
348.93931
348.93964
348.94019
348.94091
348.9413
348.93932
348.92814
348.88561
348.77155
348.27921
348.40765
348.4594
348.47293
348.47526
348.47479
348.47394
348.47331
348.47294
348.47278
348.47278
348.47294
348.47331
348.47394
348.47478
348.47526
348.47292
348.45939
348.40764
348.27919
348.02541
348.15718
348.21617
348.23129
348.23365
348.23295
348.23193
348.23119
348.23077
348.23058
348.23058
348.23077
348.23118
348.23193
348.23295
348.23365
348.23129
348.21617
348.15717
348.0254
348.03392
348.15791
348.22198
348.2381
348.24024
348.23914
348.23786
348.23696
348.23646
348.23624
348.23624
348.23646
348.23696
348.23786
348.23914
348.24023
348.2381
348.22198
348.1579
348.03391
348.32041
348.42702
348.49298
348.50979
348.51158
348.50996
348.50833
348.50719
348.50657
348.50629
348.50629
348.50657
348.50719
348.50833
348.50996
348.51158
348.50978
348.49298
348.42702
348.32041
348.89149
348.97418
349.03757
349.05511
349.05657
349.05438
349.0523
349.05084
349.05004
349.04967
349.04967
349.05004
349.05084
349.0523
349.05438
349.05657
349.05512
349.03757
348.97419
348.89149
349.74389
349.80058
349.85614
349.87508
349.87642
349.87358
349.87094
349.86907
349.86804
349.86756
349.86756
349.86805
349.86907
349.87094
349.87359
349.87642
349.87508
349.85615
349.80059
349.74389
350.86291
350.89736
350.94009
350.96193
350.96362
350.9601
350.9568
350.95443
350.95316
350.95253
350.95253
350.95316
350.95443
350.9568
350.9601
350.96362
350.96194
350.94009
350.89737
350.86292
352.2192
352.24067
352.26916
352.29666
352.2976
352.29349
352.28957
352.28668
352.28527
352.2845
352.2845
352.28527
352.28668
352.28957
352.29349
352.29761
352.29667
352.26917
352.24068
352.21921
353.76288
353.78416
353.80615
353.84121
353.83804
353.83382
353.82959
353.82631
353.82489
353.82403
353.82404
353.82489
353.82632
353.82959
353.83383
353.83805
353.84122
353.80616
353.78418
353.7629
355.41119
355.45255
355.48585
355.52885
355.51842
355.5154
355.51173
355.50849
355.50338
355.50263
355.50263
355.50338
355.50849
355.51173
355.5154
355.51842
355.52887
355.48586
355.45256
355.4112
357.02366
357.12334
357.19076
357.24421
357.22783
357.2288
357.22792
357.22582
357.20922
357.20869
357.20869
357.20922
357.22582
357.22793
357.2288
357.22784
357.24422
357.19077
357.12336
357.02367
358.39556
358.61793
358.74214
358.81543
358.80193
358.81238
358.80909
358.81011
358.77643
358.77646
358.77646
358.77643
358.81011
358.80909
358.81238
358.80194
358.81545
358.74215
358.61795
358.39557
359.24514
359.68491
359.89005
360.00208
360.00762
360.02075
360.00581
360.01333
359.96807
359.96996
359.96996
359.96807
360.01333
360.00581
360.02076
360.00763
360.00209
359.89006
359.68492
359.24516
359.21499
359.95821
360.27852
360.45691
360.50847
360.51787
360.49351
360.51195
360.44634
360.45225
360.45225
360.44634
360.51195
360.49351
360.51788
360.50847
360.45692
360.27853
359.95822
359.215
357.76656
358.92964
359.42069
359.6987
359.79541
359.81752
359.80417
359.83862
359.75518
359.7678
359.7678
359.75518
359.83862
359.80417
359.81753
359.79542
359.69871
359.4207
358.92966
357.76658
354.10342
355.85843
356.61507
357.04826
357.15081
357.22368
357.25058
357.30636
357.24055
357.26274
357.26274
357.24055
357.30636
357.25058
357.22369
357.15082
357.04827
356.61508
355.85845
354.10345
347.19127
349.76727
350.92567
351.43896
351.64295
351.85759
351.95826
352.04169
352.03807
352.07222
352.07222
352.03807
352.04169
351.95827
351.8576
351.64296
351.43897
350.92569
349.7673
347.19133
336.74408
339.56077
341.11255
341.91799
342.31511
342.50941
342.81199
342.93731
343.00824
343.05397
343.05397
343.00824
342.93732
342.812
342.50943
342.31513
341.91801
341.11257
339.56082
336.74413
329.8341
330.23932
330.68109
330.94151
331.16306
331.84171
331.93595
332.02635
332.08993
332.12104
332.12104
332.08993
332.02635
331.93595
331.84171
331.16306
330.9415
330.68109
330.23932
329.8341
325.63511
325.71231
325.87971
326.05314
326.24094
326.68317
326.85318
326.93337
326.98346
327.00765
327.00765
326.98346
326.93337
326.85318
326.68316
326.24093
326.05313
325.87971
325.71231
325.6351
323.02866
323.11046
323.24377
323.38771
323.51693
323.56084
323.6482
323.71539
323.75973
323.78177
323.78177
323.75973
323.71538
323.6482
323.56083
323.51693
323.38771
323.24377
323.11045
323.02866
320.58812
320.69161
320.82446
320.96084
321.08382
321.17731
321.26165
321.32676
321.37033
321.39208
321.39208
321.37033
321.32676
321.26165
321.1773
321.08382
320.96084
320.82446
320.69161
320.58812
318.31802
318.45256
318.60673
318.75342
318.88163
318.98647
319.07121
319.13474
319.17687
319.19784
319.19784
319.17687
319.13474
319.07121
318.98647
318.88163
318.75342
318.60673
318.45256
318.31801
316.23739
316.39623
316.57675
316.74223
316.8819
316.99422
317.08134
317.14491
317.18641
317.20689
317.20689
317.18641
317.14491
317.08134
316.99422
316.88189
316.74222
316.57675
316.39622
316.23738
314.35466
314.52627
314.72846
314.9131
315.06661
315.18782
315.27955
315.3451
315.38724
315.40784
315.40784
315.38724
315.3451
315.27955
315.18782
315.06661
314.9131
314.72846
314.52627
314.35466
312.66872
312.84287
313.05659
313.25528
313.42112
313.55145
313.64909
313.71806
313.76195
313.78328
313.78328
313.76195
313.71806
313.64909
313.55146
313.42112
313.25528
313.05659
312.84287
312.66872
311.16943
311.33848
311.55422
311.75989
311.93403
312.07178
312.17509
312.24791
312.29412
312.3165
312.3165
312.29412
312.24791
312.17509
312.07178
311.93403
311.75989
311.55422
311.33848
311.16943
309.84346
310.0029
310.2132
310.41884
310.59623
310.73838
310.84585
310.92197
310.97038
310.99387
310.99387
310.97038
310.92198
310.84585
310.73838
310.59624
310.41884
310.2132
310.0029
309.84346
308.67797
308.82533
309.02488
309.2246
309.40025
309.54321
309.6526
309.73075
309.78074
309.80507
309.80508
309.78075
309.73075
309.6526
309.54321
309.40026
309.2246
309.02489
308.82534
308.67797
307.66199
307.79597
307.98124
308.1705
308.34009
308.48037
308.58917
308.66775
308.71839
308.74315
308.74315
308.71839
308.66775
308.58918
308.48037
308.34009
308.1705
307.98124
307.79597
307.66199
306.78719
306.90712
307.07589
307.25147
307.4116
307.54621
307.65209
307.72943
307.7797
307.8044
307.8044
307.7797
307.72943
307.65209
307.54621
307.4116
307.25147
307.07589
306.90712
306.78719
306.04847
306.15406
306.30505
306.46488
306.61316
306.73982
306.84087
306.91555
306.96452
306.98871
306.98871
306.96452
306.91556
306.84087
306.73982
306.61316
306.46488
306.30505
306.15406
306.04847
305.44442
305.53563
305.66836
305.81144
305.94655
306.06388
306.15884
306.22986
306.27684
306.30018
306.30018
306.27684
306.22986
306.15884
306.06388
305.94656
305.81144
305.66837
305.53563
305.44442
304.97764
305.05485
305.16978
305.29633
305.4182
305.52587
305.61432
305.68127
305.72594
305.74825
305.74825
305.72594
305.68127
305.61432
305.52587
305.4182
305.29633
305.16978
305.05485
304.97764
304.65494
304.71945
304.81855
304.93055
305.04075
305.13986
305.22245
305.28566
305.32818
305.34952
305.34952
305.32818
305.28566
305.22245
305.13986
305.04075
304.93055
304.81855
304.71946
304.65494
304.48706
304.5424
304.63063
304.73292
304.83545
304.92897
305.00774
305.06852
305.10963
305.13032
305.13032
305.10963
305.06852
305.00775
304.92897
304.83546
304.73292
304.63063
304.54241
304.48707
)
;

boundaryField
{
    Wall
    {
        type            zeroGradient;
    }
    frontAndBack
    {
        type            empty;
    }
    atmosphere
    {
        type            zeroGradient;
    }
}


// ************************************************************************* //
