/*--------------------------------*- C++ -*----------------------------------*\
| =========                 |                                                 |
| \\      /  F ield         | OpenFOAM: The Open Source CFD Toolbox           |
|  \\    /   O peration     | Version:  3.0.1                                 |
|   \\  /    A nd           | Web:      www.OpenFOAM.org                      |
|    \\/     M anipulation  |                                                 |
\*---------------------------------------------------------------------------*/
FoamFile
{
    version     2.0;
    format      ascii;
    class       volVectorField;
    location    "29";
    object      U;
}
// * * * * * * * * * * * * * * * * * * * * * * * * * * * * * * * * * * * * * //

dimensions      [0 1 -1 0 0 0 0];

internalField   nonuniform List<vector> 
800
(
(8.0581691e-06 0.00024918864 0)
(1.0590803e-05 0.0002523907 0)
(1.2421712e-05 0.00025415558 0)
(1.1829622e-05 0.00025506391 0)
(1.0286365e-05 0.00025546387 0)
(8.4663525e-06 0.00025560205 0)
(6.5649924e-06 0.00025562239 0)
(4.6605792e-06 0.0002556031 0)
(2.7802006e-06 0.00025558052 0)
(9.216119e-07 0.00025556765 0)
(-9.2905735e-07 0.00025556772 0)
(-2.7874974e-06 0.00025558074 0)
(-4.6675875e-06 0.00025560347 0)
(-6.5715913e-06 0.00025562293 0)
(-8.4724387e-06 0.00025560274 0)
(-1.0291835e-05 0.00025546471 0)
(-1.1834366e-05 0.00025506489 0)
(-1.2425751e-05 0.00025415675 0)
(-1.0593937e-05 0.00025239189 0)
(-8.0605449e-06 0.00024918801 0)
(5.1130871e-06 0.00043062857 0)
(7.3986714e-06 0.0004377122 0)
(1.0705631e-05 0.00044149274 0)
(1.0844623e-05 0.00044341242 0)
(9.7523419e-06 0.00044430035 0)
(8.2031352e-06 0.00044465426 0)
(6.4496367e-06 0.00044475719 0)
(4.6185898e-06 0.00044476194 0)
(2.7696669e-06 0.00044474171 0)
(9.2095552e-07 0.00044472641 0)
(-9.267263e-07 0.0004447263 0)
(-2.7753199e-06 0.00044474138 0)
(-4.624025e-06 0.0004447614 0)
(-6.454755e-06 0.00044475646 0)
(-8.2078502e-06 0.00044465337 0)
(-9.7565652e-06 0.00044429932 0)
(-1.0848214e-05 0.00044341124 0)
(-1.0708463e-05 0.00044149141 0)
(-7.4004665e-06 0.00043771051 0)
(-5.1141801e-06 0.00043062477 0)
(6.4927675e-06 0.00078511694 0)
(8.6053541e-06 0.00079685988 0)
(1.0720507e-05 0.00080350794 0)
(1.0578335e-05 0.00080702288 0)
(9.4790083e-06 0.00080873587 0)
(7.9890339e-06 0.00080947626 0)
(6.3008209e-06 0.00080973925 0)
(4.5248516e-06 0.00080979853 0)
(2.7188947e-06 0.00080979036 0)
(9.0534688e-07 0.00080977505 0)
(-9.095431e-07 0.00080977488 0)
(-2.7230081e-06 0.00080978986 0)
(-4.5288094e-06 0.00080979772 0)
(-6.3045484e-06 0.00080973815 0)
(-7.9924545e-06 0.0008094749 0)
(-9.48204e-06 0.00080873427 0)
(-1.0580826e-05 0.000807021 0)
(-1.0722279e-05 0.00080350571 0)
(-8.6062364e-06 0.00079685702 0)
(-6.4930243e-06 0.00078511259 0)
(6.8668639e-06 0.0011256383 0)
(8.8709852e-06 0.0011399645 0)
(1.0726433e-05 0.0011485269 0)
(1.0436104e-05 0.0011532005 0)
(9.290183e-06 0.0011555353 0)
(7.8079292e-06 0.0011565814 0)
(6.1533055e-06 0.0011569818 0)
(4.4199774e-06 0.0011570961 0)
(2.6573179e-06 0.0011571068 0)
(8.8543129e-07 0.0011570966 0)
(-8.8862141e-07 0.0011570964 0)
(-2.6604508e-06 0.0011571061 0)
(-4.4229876e-06 0.0011570951 0)
(-6.1561295e-06 0.0011569804 0)
(-7.8105045e-06 0.0011565797 0)
(-9.2924509e-06 0.0011555332 0)
(-1.0437916e-05 0.001153198 0)
(-1.0727644e-05 0.0011485239 0)
(-8.8716031e-06 0.0011399606 0)
(-6.8669283e-06 0.001125633 0)
(6.669882e-06 0.0014614742 0)
(8.6514248e-06 0.0014795312 0)
(1.0606057e-05 0.0014902175 0)
(1.0285611e-05 0.0014960278 0)
(9.1203481e-06 0.0014989298 0)
(7.6454505e-06 0.0015002415 0)
(6.0166715e-06 0.0015007575 0)
(4.3191918e-06 0.0015009172 0)
(2.596416e-06 0.0015009432 0)
(8.6537423e-07 0.0015009371 0)
(-8.6777591e-07 0.0015009369 0)
(-2.5987681e-06 0.0015009425 0)
(-4.321453e-06 0.0015009161 0)
(-6.0187786e-06 0.001500756 0)
(-7.6473606e-06 0.0015002397 0)
(-9.1220025e-06 0.0014989276 0)
(-1.0286868e-05 0.0014960252 0)
(-1.0606841e-05 0.0014902143 0)
(-8.6518714e-06 0.0014795272 0)
(-6.6698738e-06 0.001461469 0)
(6.6633528e-06 0.0018025978 0)
(8.6579576e-06 0.0018248009 0)
(1.0590768e-05 0.0018377677 0)
(1.0201227e-05 0.0018447505 0)
(8.9974909e-06 0.0018482106 0)
(7.5168907e-06 0.0018497689 0)
(5.9026768e-06 0.0018503845 0)
(4.2318199e-06 0.0018505795 0)
(2.5421821e-06 0.0018506153 0)
(8.4723449e-07 0.001850611 0)
(-8.4900058e-07 0.0018506107 0)
(-2.5439127e-06 0.0018506146 0)
(-4.2334727e-06 0.0018505783 0)
(-5.9042025e-06 0.0018503829 0)
(-7.5182516e-06 0.0018497669 0)
(-8.9986319e-06 0.0018482081 0)
(-1.0202028e-05 0.0018447475 0)
(-1.0591162e-05 0.0018377641 0)
(-8.6581574e-06 0.0018247966 0)
(-6.6632107e-06 0.0018025925 0)
(6.8249397e-06 0.002149061 0)
(8.8314591e-06 0.0021753127 0)
(1.0691386e-05 0.0021905367 0)
(1.0199235e-05 0.0021986695 0)
(8.9321196e-06 0.0022026585 0)
(7.4295987e-06 0.0022044367 0)
(5.8174088e-06 0.002205133 0)
(4.1628011e-06 0.002205351 0)
(2.4979542e-06 0.0022053899 0)
(8.3222968e-07 0.0022053842 0)
(-8.3343095e-07 0.002205384 0)
(-2.4991236e-06 0.0022053891 0)
(-4.1639034e-06 0.0022053499 0)
(-5.8184041e-06 0.0022051313 0)
(-7.4304504e-06 0.0022044347 0)
(-8.932782e-06 0.0022026559 0)
(-1.0199593e-05 0.0021986665 0)
(-1.0691379e-05 0.0021905331 0)
(-8.8313315e-06 0.0021753085 0)
(-6.8245632e-06 0.002149056 0)
(7.0726784e-06 0.0025001091 0)
(9.0866864e-06 0.0025304132 0)
(1.0874738e-05 0.0025478763 0)
(1.0260746e-05 0.002557124 0)
(8.9118348e-06 0.0025616048 0)
(7.3770882e-06 0.0025635706 0)
(5.7584063e-06 0.0025643254 0)
(4.1115088e-06 0.0025645527 0)
(2.4637547e-06 0.0025645864 0)
(8.2048481e-07 0.0025645756 0)
(-8.2102103e-07 0.0025645754 0)
(-2.464268e-06 0.0025645856 0)
(-4.111971e-06 0.0025645515 0)
(-5.7587847e-06 0.0025643236 0)
(-7.3773577e-06 0.0025635684 0)
(-8.9119562e-06 0.0025616021 0)
(-1.0260607e-05 0.0025571208 0)
(-1.0874257e-05 0.0025478725 0)
(-9.0861027e-06 0.0025304088 0)
(-7.0719535e-06 0.0025001043 0)
(7.4024627e-06 0.0028562768 0)
(9.4211819e-06 0.0028907272 0)
(1.1124225e-05 0.0029104257 0)
(1.036846e-05 0.0029207532 0)
(8.9219106e-06 0.0029256931 0)
(7.3471977e-06 0.0029278191 0)
(5.7181906e-06 0.002928612 0)
(4.0734595e-06 0.0029288347 0)
(2.4370703e-06 0.0029288544 0)
(8.1113455e-07 0.0029288343 0)
(-8.1105092e-07 0.002928834 0)
(-2.4369755e-06 0.0029288535 0)
(-4.0733345e-06 0.0029288332 0)
(-5.7180095e-06 0.0029286098 0)
(-7.3469409e-06 0.0029278164 0)
(-8.9215624e-06 0.0029256897 0)
(-1.0367934e-05 0.0029207493 0)
(-1.112348e-05 0.0029104211 0)
(-9.4204535e-06 0.0028907222 0)
(-7.4016349e-06 0.0028562726 0)
(7.8337645e-06 0.0032188524 0)
(9.8412736e-06 0.0032575739 0)
(1.141468e-05 0.0032794903 0)
(1.0502493e-05 0.003290853 0)
(8.9515983e-06 0.0032962208 0)
(7.3303392e-06 0.0032984879 0)
(5.6867866e-06 0.0032993003 0)
(4.040607e-06 0.0032995041 0)
(2.4127638e-06 0.0032994998 0)
(8.0241954e-07 0.0032994653 0)
(-8.017948e-07 0.0032994649 0)
(-2.4121333e-06 0.0032994987 0)
(-4.0399625e-06 0.0032995023 0)
(-5.6861188e-06 0.0032992977 0)
(-7.3296534e-06 0.0032984846 0)
(-8.9508954e-06 0.0032962168 0)
(-1.0501742e-05 0.0032908483 0)
(-1.1413894e-05 0.0032794849 0)
(-9.8408049e-06 0.0032575681 0)
(-7.8332734e-06 0.0032188477 0)
(8.3825069e-06 0.003589563 0)
(1.033852e-05 0.0036327001 0)
(1.1701171e-05 0.0036568087 0)
(1.0633997e-05 0.0036691407 0)
(8.9881825e-06 0.0036748918 0)
(7.3140218e-06 0.0036772729 0)
(5.647642e-06 0.0036780804 0)
(3.9981434e-06 0.003678248 0)
(2.3807354e-06 0.0036782068 0)
(7.908883e-07 0.0036781513 0)
(-7.8990768e-07 0.003678151 0)
(-2.3797456e-06 0.0036782059 0)
(-3.9971547e-06 0.0036782465 0)
(-5.6466672e-06 0.0036780782 0)
(-7.3130766e-06 0.0036772701 0)
(-8.987285e-06 0.0036748883 0)
(-1.0633167e-05 0.0036691366 0)
(-1.1700488e-05 0.0036568041 0)
(-1.0338324e-05 0.0036326953 0)
(-8.3822433e-06 0.0035895587 0)
(9.0353073e-06 0.0039705339 0)
(1.0886883e-05 0.0040182363 0)
(1.192179e-05 0.004044502 0)
(1.0704138e-05 0.0040576806 0)
(8.9887176e-06 0.004063727 0)
(7.2599267e-06 0.0040661643 0)
(5.5668564e-06 0.0040669302 0)
(3.9199467e-06 0.0040670444 0)
(2.3234978e-06 0.0040669654 0)
(7.7055616e-07 0.004066881 0)
(-7.6887827e-07 0.0040668808 0)
(-2.3218307e-06 0.0040669647 0)
(-3.9183103e-06 0.0040670432 0)
(-5.5652713e-06 0.0040669285 0)
(-7.2584287e-06 0.0040661621 0)
(-8.9873434e-06 0.0040637244 0)
(-1.0702927e-05 0.0040576775 0)
(-1.1920825e-05 0.0040444987 0)
(-1.0886439e-05 0.004018233 0)
(-9.0348771e-06 0.0039705312 0)
(9.7320391e-06 0.0043642362 0)
(1.1429813e-05 0.0044166278 0)
(1.1960684e-05 0.0044449522 0)
(1.057961e-05 0.0044587723 0)
(8.8513373e-06 0.0044649611 0)
(7.0918767e-06 0.0044673561 0)
(5.396261e-06 0.0044680316 0)
(3.7871516e-06 0.0044680703 0)
(2.2307705e-06 0.0044679647 0)
(7.3276347e-07 0.0044678344 0)
(-7.305685e-07 0.0044678342 0)
(-2.2286039e-06 0.0044679639 0)
(-3.7850472e-06 0.004468069 0)
(-5.3942416e-06 0.0044680297 0)
(-7.0899907e-06 0.0044673537 0)
(-8.8496376e-06 0.0044649583 0)
(-1.0578146e-05 0.004458769 0)
(-1.1959513e-05 0.0044449487 0)
(-1.1429132e-05 0.0044166244 0)
(-9.7314368e-06 0.0043642334 0)
(1.0311778e-05 0.0047748189 0)
(1.1807156e-05 0.0048319316 0)
(1.1610467e-05 0.0048620843 0)
(1.0050999e-05 0.0048762764 0)
(8.4117078e-06 0.0048823797 0)
(6.6970428e-06 0.0048845929 0)
(5.0655477e-06 0.0048851036 0)
(3.5658405e-06 0.0048850038 0)
(2.0774117e-06 0.0048848787 0)
(6.5797545e-07 0.0048847022 0)
(-6.5539381e-07 0.0048847019 0)
(-2.0748709e-06 0.004884878 0)
(-3.5634047e-06 0.0048850025 0)
(-5.0632179e-06 0.0048851018 0)
(-6.6948808e-06 0.0048845907 0)
(-8.4097551e-06 0.004882377 0)
(-1.0049315e-05 0.0048762733 0)
(-1.1609105e-05 0.0048620812 0)
(-1.1806266e-05 0.0048319285 0)
(-1.0311043e-05 0.0047748164 0)
(1.0508757e-05 0.0052119061 0)
(1.1723158e-05 0.0052738809 0)
(1.0587957e-05 0.0053055788 0)
(8.865495e-06 0.0053198697 0)
(7.4492705e-06 0.0053255747 0)
(5.9203522e-06 0.0053274081 0)
(4.444652e-06 0.0053276136 0)
(3.1742627e-06 0.005327294 0)
(1.8490064e-06 0.0053271553 0)
(5.470129e-07 0.0053269809 0)
(-5.4410529e-07 0.0053269807 0)
(-1.8461455e-06 0.0053271547 0)
(-3.1715746e-06 0.0053272929 0)
(-4.4420711e-06 0.005327612 0)
(-5.917968e-06 0.0053274061 0)
(-7.4470869e-06 0.0053255723 0)
(-8.8635688e-06 0.0053198671 0)
(-1.0586608e-05 0.0053055758 0)
(-1.1722336e-05 0.0052738784 0)
(-1.0507974e-05 0.0052119045 0)
(1.0277456e-05 0.0056828195 0)
(1.1136201e-05 0.0057499318 0)
(8.6957297e-06 0.0057827947 0)
(6.7692064e-06 0.0057968812 0)
(5.6677272e-06 0.0058018725 0)
(4.5266484e-06 0.0058030748 0)
(3.3701772e-06 0.0058027818 0)
(2.5417522e-06 0.0058021826 0)
(1.5585428e-06 0.0058020154 0)
(4.2849667e-07 0.0058018986 0)
(-4.2535372e-07 0.0058018984 0)
(-1.5554661e-06 0.0058020148 0)
(-2.5388733e-06 0.0058021817 0)
(-3.3674177e-06 0.0058027804 0)
(-4.5240827e-06 0.0058030731 0)
(-5.6653333e-06 0.0058018705 0)
(-6.7673948e-06 0.0057968789 0)
(-8.6942248e-06 0.0057827924 0)
(-1.1135174e-05 0.0057499294 0)
(-1.0276993e-05 0.0056828182 0)
(9.4303438e-06 0.0061871014 0)
(9.8070956e-06 0.0062593246 0)
(5.5529815e-06 0.006292674 0)
(3.472137e-06 0.0063060564 0)
(2.7673702e-06 0.0063101044 0)
(2.2447292e-06 0.0063104202 0)
(1.6867373e-06 0.0063094763 0)
(1.5896554e-06 0.0063085507 0)
(1.1675246e-06 0.0063082589 0)
(3.0541791e-07 0.006308203 0)
(-3.0215074e-07 0.0063082028 0)
(-1.1642825e-06 0.0063082584 0)
(-1.5867109e-06 0.0063085499 0)
(-1.6839233e-06 0.006309475 0)
(-2.2420033e-06 0.0063104188 0)
(-2.7648695e-06 0.0063101026 0)
(-3.4700003e-06 0.0063060546 0)
(-5.551897e-06 0.006292672 0)
(-9.8068119e-06 0.0062593231 0)
(-9.4299238e-06 0.0061871006 0)
(7.3851811e-06 0.0067244093 0)
(7.0863876e-06 0.0068013651 0)
(5.2279748e-07 0.0068343584 0)
(-1.3519446e-06 0.0068462182 0)
(-1.4291636e-06 0.006849157 0)
(-1.0725994e-06 0.0068484285 0)
(-6.6531018e-07 0.0068467831 0)
(1.9976228e-07 0.0068455131 0)
(5.4538663e-07 0.0068449927 0)
(1.4165501e-07 0.0068449907 0)
(-1.3838939e-07 0.0068449906 0)
(-5.4211183e-07 0.0068449922 0)
(-1.9685774e-07 0.0068455122 0)
(6.6831393e-07 0.0068467822 0)
(1.0753837e-06 0.0068484272 0)
(1.4317204e-06 0.0068491557 0)
(1.3538748e-06 0.0068462172 0)
(-5.2130144e-07 0.0068343571 0)
(-7.0853773e-06 0.0068013651 0)
(-7.3848591e-06 0.0067244097 0)
(3.5254719e-06 0.0072975115 0)
(2.3741424e-06 0.0073784268 0)
(-7.0849234e-06 0.0074102995 0)
(-8.1420263e-06 0.007419902 0)
(-6.9573592e-06 0.0074216656 0)
(-5.3709766e-06 0.0074199747 0)
(-3.6077783e-06 0.0074176955 0)
(-1.6214388e-06 0.0074161276 0)
(-3.3887816e-07 0.0074154163 0)
(-7.0169945e-08 0.0074154769 0)
(7.3344307e-08 0.0074154768 0)
(3.419733e-07 0.0074154158 0)
(1.6244395e-06 0.0074161269 0)
(3.6105891e-06 0.0074176945 0)
(5.3738249e-06 0.0074199741 0)
(6.9605207e-06 0.0074216645 0)
(8.1441102e-06 0.0074199013 0)
(7.0864815e-06 0.0074102992 0)
(-2.3729638e-06 0.0073784279 0)
(-3.52504e-06 0.0072975125 0)
(-2.9746343e-06 0.00790554 0)
(-5.1771854e-06 0.0079898584 0)
(-1.7571333e-05 0.0080205899 0)
(-1.69102e-05 0.0080277787 0)
(-1.3561872e-05 0.0080285085 0)
(-1.0332485e-05 0.0080262056 0)
(-6.9143094e-06 0.0080232881 0)
(-3.6701671e-06 0.0080216521 0)
(-1.3735481e-06 0.0080211783 0)
(-3.3288026e-07 0.0080214252 0)
(3.3581059e-07 0.0080214251 0)
(1.3764297e-06 0.008021178 0)
(3.6728454e-06 0.0080216517 0)
(6.9177571e-06 0.0080232876 0)
(1.0335251e-05 0.0080262054 0)
(1.3564313e-05 0.008028508 0)
(1.6912702e-05 0.0080277788 0)
(1.7573799e-05 0.0080205908 0)
(5.1790393e-06 0.0079898597 0)
(2.9752892e-06 0.0079055415 0)
(-1.2544662e-05 0.0085394378 0)
(-1.599128e-05 0.0086290317 0)
(-3.0302949e-05 0.0086590695 0)
(-2.7017802e-05 0.0086642285 0)
(-2.0727331e-05 0.008664591 0)
(-1.5720921e-05 0.0086632417 0)
(-1.0406799e-05 0.0086599978 0)
(-5.392335e-06 0.0086585834 0)
(-2.1089364e-06 0.0086586125 0)
(-5.4486253e-07 0.0086591214 0)
(5.4769695e-07 0.0086591213 0)
(2.1117387e-06 0.0086586123 0)
(5.395021e-06 0.008658583 0)
(1.0409843e-05 0.0086599973 0)
(1.5723804e-05 0.0086632406 0)
(2.0730533e-05 0.0086645907 0)
(2.7020614e-05 0.0086642286 0)
(3.0304866e-05 0.0086590707 0)
(1.599359e-05 0.0086290362 0)
(1.2546672e-05 0.0085394435 0)
(-2.4465676e-05 0.0091889203 0)
(-3.0647959e-05 0.0092796716 0)
(-4.4767515e-05 0.0093090513 0)
(-3.7195095e-05 0.0093176083 0)
(-2.6669843e-05 0.0093186058 0)
(-2.0194657e-05 0.0093183633 0)
(-1.3877645e-05 0.0093193814 0)
(-6.8790276e-06 0.0093188351 0)
(-2.7553735e-06 0.0093191868 0)
(-7.8713331e-07 0.0093198184 0)
(7.8964199e-07 0.0093198183 0)
(2.7579223e-06 0.0093191865 0)
(6.8814437e-06 0.0093188345 0)
(1.3880268e-05 0.0093193811 0)
(2.0197371e-05 0.0093183627 0)
(2.6673068e-05 0.0093186054 0)
(3.719841e-05 0.0093176076 0)
(4.4772923e-05 0.009309052 0)
(3.0653464e-05 0.0092796733 0)
(2.4467967e-05 0.0091889226 0)
(-4.902281e-05 0.0097925328 0)
(-6.1694256e-05 0.0099297112 0)
(-5.762793e-05 0.0099718525 0)
(-4.232136e-05 0.009985166 0)
(-3.1253957e-05 0.0099884942 0)
(-2.0431925e-05 0.009989959 0)
(-1.3028076e-05 0.0099910645 0)
(-7.9862154e-06 0.0099907373 0)
(-3.8285264e-06 0.0099913153 0)
(-1.2160177e-06 0.00999204 0)
(1.2184566e-06 0.0099920398 0)
(3.8309333e-06 0.009991315 0)
(7.9891487e-06 0.0099907367 0)
(1.3031321e-05 0.009991064 0)
(2.0434788e-05 0.0099899582 0)
(3.1256967e-05 0.0099884932 0)
(4.2324567e-05 0.0099851656 0)
(5.7630794e-05 0.0099718526 0)
(6.1696089e-05 0.0099297121 0)
(4.9023981e-05 0.0097925364 0)
(2.8239992e-05 0.010407379 0)
(5.5350129e-06 0.010519156 0)
(-3.296054e-05 0.010540365 0)
(-3.111958e-05 0.010543547 0)
(-2.6073971e-05 0.010544453 0)
(-1.744144e-05 0.010540402 0)
(-1.1795811e-05 0.010534126 0)
(-7.5402013e-06 0.0105323 0)
(-4.2620762e-06 0.010532727 0)
(-1.4491165e-06 0.010533475 0)
(1.4518597e-06 0.010533474 0)
(4.2649066e-06 0.010532726 0)
(7.5431343e-06 0.010532299 0)
(1.1799032e-05 0.010534124 0)
(1.744416e-05 0.010540399 0)
(2.607846e-05 0.01054445 0)
(3.1124073e-05 0.010543543 0)
(3.2966112e-05 0.010540362 0)
(-5.5285467e-06 0.010519155 0)
(-2.823665e-05 0.010407384 0)
(0.00059997239 0.01021176 0)
(0.00057778334 0.010831672 0)
(0.0003202448 0.01091338 0)
(0.00018053071 0.010916679 0)
(0.0001069763 0.010924355 0)
(6.0643333e-05 0.010913263 0)
(3.5735355e-05 0.010909437 0)
(2.2604462e-05 0.010910665 0)
(1.2112103e-05 0.010914284 0)
(3.7831879e-06 0.010916829 0)
(-3.7814916e-06 0.010916829 0)
(-1.2110365e-05 0.010914283 0)
(-2.2602595e-05 0.010910663 0)
(-3.5733245e-05 0.010909435 0)
(-6.0642989e-05 0.010913259 0)
(-0.00010697661 0.010924352 0)
(-0.00018052958 0.010916673 0)
(-0.00032024322 0.010913377 0)
(-0.00057778087 0.010831674 0)
(-0.00059996515 0.010211787 0)
(0.001161565 0.0083156478 0)
(0.0019174046 0.010462506 0)
(0.0016502796 0.010806184 0)
(0.0012288691 0.010815743 0)
(0.00091453338 0.010755809 0)
(0.00065386383 0.010706242 0)
(0.00044955296 0.010690779 0)
(0.00029170835 0.010681006 0)
(0.00016306276 0.010678416 0)
(5.2899948e-05 0.010677416 0)
(-5.2902225e-05 0.010677416 0)
(-0.00016306522 0.010678416 0)
(-0.00029171069 0.010681005 0)
(-0.00044955504 0.010690778 0)
(-0.00065386682 0.010706242 0)
(-0.00091453779 0.010755819 0)
(-0.0012288704 0.010815756 0)
(-0.0016502753 0.010806193 0)
(-0.0019174026 0.010462537 0)
(-0.0011615663 0.0083157085 0)
(0.00095302965 0.0065429816 0)
(0.0019749675 0.0099018744 0)
(0.0020926522 0.010792721 0)
(0.0018393787 0.011008371 0)
(0.0015063374 0.010971409 0)
(0.0011569412 0.010872526 0)
(0.00083895719 0.010784724 0)
(0.00056315455 0.01071684 0)
(0.00032237765 0.010674468 0)
(0.0001061941 0.010653333 0)
(-0.00010619865 0.010653333 0)
(-0.00032238232 0.010674468 0)
(-0.00056315897 0.010716841 0)
(-0.00083896134 0.010784725 0)
(-0.0011569453 0.010872528 0)
(-0.0015063422 0.010971416 0)
(-0.0018393791 0.01100838 0)
(-0.0020926377 0.010792723 0)
(-0.0019749598 0.00990188 0)
(-0.00095303292 0.0065430194 0)
(0.00060092008 0.0051448183 0)
(0.0015435158 0.0091889969 0)
(0.0019062211 0.01069488 0)
(0.0018793476 0.011207292 0)
(0.0016482725 0.01128553 0)
(0.0013349303 0.011204609 0)
(0.0010077541 0.011089368 0)
(0.00069599002 0.010986239 0)
(0.00040631368 0.010914598 0)
(0.00013543794 0.010877524 0)
(-0.00013544337 0.010877524 0)
(-0.000406319 0.010914598 0)
(-0.00069599496 0.010986239 0)
(-0.0010077588 0.011089369 0)
(-0.0013349342 0.011204611 0)
(-0.0016482767 0.011285533 0)
(-0.0018793501 0.011207296 0)
(-0.0019062132 0.01069488 0)
(-0.0015435048 0.0091889966 0)
(-0.0006009203 0.0051448493 0)
(0.00034063326 0.0041790618 0)
(0.0010933988 0.0085092748 0)
(0.001537227 0.010484584 0)
(0.0016411561 0.011285765 0)
(0.001525581 0.011520497 0)
(0.0012942139 0.011506302 0)
(0.0010131567 0.011405338 0)
(0.00071871376 0.011294963 0)
(0.00042722461 0.011210336 0)
(0.00014385363 0.011164885 0)
(-0.00014385929 0.011164885 0)
(-0.00042723006 0.011210336 0)
(-0.00071871882 0.011294963 0)
(-0.0010131615 0.011405339 0)
(-0.0012942177 0.011506303 0)
(-0.0015255848 0.011520498 0)
(-0.00164116 0.011285767 0)
(-0.0015372284 0.010484588 0)
(-0.001093403 0.0085092814 0)
(-0.00034063977 0.0041790875 0)
(0.00019126401 0.0036282554 0)
(0.00072862982 0.0079854253 0)
(0.0011458777 0.01022679 0)
(0.0013119501 0.0112601 0)
(0.0012856611 0.011651222 0)
(0.0011376161 0.01172639 0)
(0.00092049541 0.011667598 0)
(0.00066929234 0.011572542 0)
(0.00040445646 0.011490579 0)
(0.00013733077 0.011444534 0)
(-0.0001373362 0.011444534 0)
(-0.00040446176 0.011490579 0)
(-0.00066929714 0.011572542 0)
(-0.00092049972 0.011667599 0)
(-0.0011376199 0.01172639 0)
(-0.0012856648 0.011651223 0)
(-0.0013119542 0.011260102 0)
(-0.001145882 0.010226796 0)
(-0.00072863639 0.0079854382 0)
(-0.00019126893 0.003628281 0)
(0.00010704475 0.0033112354 0)
(0.00046420043 0.0075922647 0)
(0.00080934024 0.0099785162 0)
(0.00098898728 0.011180459 0)
(0.001018085 0.011706703 0)
(0.00093650824 0.011873816 0)
(0.00078110081 0.011870606 0)
(0.00058100548 0.011805453 0)
(0.0003564463 0.011737729 0)
(0.0001218104 0.011697318 0)
(-0.00012181535 0.011697319 0)
(-0.00035645116 0.011737729 0)
(-0.00058100988 0.011805452 0)
(-0.0007811048 0.011870606 0)
(-0.00093651186 0.011873816 0)
(-0.0010180886 0.011706703 0)
(-0.00098899133 0.011180461 0)
(-0.00080934511 0.009978522 0)
(-0.00046420651 0.0075922766 0)
(-0.00010704793 0.0033112518 0)
(6.0610446e-05 0.0031210298 0)
(0.00028807526 0.0073124094 0)
(0.00055012915 0.0097683023 0)
(0.00071418291 0.011083081 0)
(0.00076995508 0.011715393 0)
(0.00073443959 0.011965534 0)
(0.00063006536 0.012020372 0)
(0.00047857269 0.011992025 0)
(0.00029769444 0.011945118 0)
(0.00010228288 0.011914227 0)
(-0.00010228734 0.011914227 0)
(-0.00029769867 0.011945117 0)
(-0.00047857657 0.011992024 0)
(-0.00063006919 0.012020371 0)
(-0.00073444313 0.011965534 0)
(-0.00076995867 0.011715394 0)
(-0.00071418697 0.011083083 0)
(-0.00055013373 0.0097683079 0)
(-0.00028808013 0.0073124197 0)
(-6.0612593e-05 0.0031210411 0)
(3.4711591e-05 0.0030066046 0)
(0.0001758335 0.0071218607 0)
(0.0003628782 0.0096040824 0)
(0.00049829352 0.010988461 0)
(0.00056124947 0.01169839 0)
(0.00055410155 0.012017384 0)
(0.00048814063 0.012125867 0)
(0.00037807203 0.012135128 0)
(0.0002381787 0.012111496 0)
(8.2201342e-05 0.012091777 0)
(-8.2205207e-05 0.012091777 0)
(-0.00023818231 0.012111496 0)
(-0.00037807521 0.012135127 0)
(-0.00048814375 0.012125867 0)
(-0.00055410475 0.012017383 0)
(-0.00056125296 0.011698391 0)
(-0.0004982975 0.010988463 0)
(-0.00036288252 0.0096040878 0)
(-0.00017583761 0.0071218692 0)
(-3.4713303e-05 0.0030066132 0)
(1.9950898e-05 0.0029380337 0)
(0.00010584739 0.0069965965 0)
(0.00023325597 0.009483142 0)
(0.00033757416 0.010907001 0)
(0.00039650496 0.011670347 0)
(0.00040458764 0.012042834 0)
(0.00036553908 0.012197031 0)
(0.00028836502 0.012240847 0)
(0.00018383812 0.012239901 0)
(6.3699387e-05 0.012231404 0)
(-6.3702714e-05 0.012231404 0)
(-0.00018384116 0.0122399 0)
(-0.0002883677 0.012240847 0)
(-0.00036554193 0.01219703 0)
(-0.00040459068 0.012042834 0)
(-0.00039650819 0.011670347 0)
(-0.00033757782 0.010907004 0)
(-0.00023326003 0.009483147 0)
(-0.000105851 0.0069966036 0)
(-1.9952142e-05 0.0029380397 0)
(1.1367141e-05 0.0028974084 0)
(6.2710002e-05 0.0069168159 0)
(0.00014626783 0.0093982783 0)
(0.00022245761 0.010842293 0)
(0.0002721674 0.011640366 0)
(0.00028681151 0.012052269 0)
(0.00026558437 0.012243132 0)
(0.00021326742 0.012316464 0)
(0.0001375049 0.012335762 0)
(4.7818781e-05 0.0123375 0)
(-4.7821481e-05 0.0123375 0)
(-0.00013750746 0.012335761 0)
(-0.0002132699 0.012316464 0)
(-0.00026558696 0.012243131 0)
(-0.00028681436 0.012052269 0)
(-0.00027217036 0.011640367 0)
(-0.00022246093 0.010842296 0)
(-0.00014627161 0.0093982828 0)
(-6.2713228e-05 0.0069168217 0)
(-1.1368308e-05 0.0028974122 0)
(6.3141039e-06 0.0028737122 0)
(3.6307595e-05 0.0068673917 0)
(8.9305716e-05 0.0093409066 0)
(0.00014259335 0.01079366 0)
(0.00018169651 0.011613137 0)
(0.00019772334 0.012052852 0)
(0.0001875999 0.01227179 0)
(0.00015328778 0.012368976 0)
(9.9929395e-05 0.012405244 0)
(3.48814e-05 0.012415712 0)
(-3.4883949e-05 0.012415712 0)
(-9.9931702e-05 0.012405243 0)
(-0.0001532899 0.012368975 0)
(-0.00018760222 0.01227179 0)
(-0.00019772579 0.012052852 0)
(-0.00018169914 0.011613138 0)
(-0.00014259644 0.010793663 0)
(-8.9309036e-05 0.0093409111 0)
(-3.6310261e-05 0.0068673963 0)
(-6.315057e-06 0.0028737143 0)
(3.3630649e-06 0.0028602704 0)
(2.03585e-05 0.0068376646 0)
(5.2901302e-05 0.0093034299 0)
(8.879271e-05 0.010758713 0)
(0.00011796904 0.0115906 0)
(0.00013264928 0.012049152 0)
(0.00012898554 0.012288733 0)
(0.00010723791 0.01240439 0)
(7.0675159e-05 0.012454232 0)
(2.4763804e-05 0.012471775 0)
(-2.4766314e-05 0.012471775 0)
(-7.0677486e-05 0.012454231 0)
(-0.00010723995 0.012404389 0)
(-0.00012898767 0.012288733 0)
(-0.00013265146 0.012049152 0)
(-0.00011797147 0.011590602 0)
(-8.8795501e-05 0.010758716 0)
(-5.2904137e-05 0.0093034345 0)
(-2.0360629e-05 0.0068376681 0)
(-3.3637214e-06 0.0028602709 0)
(1.703719e-06 0.0028528931 0)
(1.0985208e-05 0.0068203368 0)
(3.0326464e-05 0.0092797253 0)
(5.3681887e-05 0.01073455 0)
(7.4514503e-05 0.011573121 0)
(8.6669189e-05 0.012043936 0)
(8.6407683e-05 0.012298146 0)
(7.3101394e-05 0.012427555 0)
(4.8702266e-05 0.012487804 0)
(1.7131937e-05 0.012510848 0)
(-1.7134279e-05 0.012510848 0)
(-4.8704582e-05 0.012487804 0)
(-7.3103431e-05 0.012427555 0)
(-8.6409647e-05 0.012298146 0)
(-8.6671157e-05 0.012043938 0)
(-7.4516469e-05 0.011573124 0)
(-5.3684044e-05 0.010734553 0)
(-3.0328887e-05 0.0092797297 0)
(-1.0987332e-05 0.0068203395 0)
(-1.7045149e-06 0.0028528922 0)
(8.7433429e-07 0.0028485528 0)
(5.8133728e-06 0.0068101067 0)
(1.698993e-05 0.0092647706 0)
(3.1727075e-05 0.01071803 0)
(4.602303e-05 0.011559915 0)
(5.5360709e-05 0.012038486 0)
(5.6565772e-05 0.012302801 0)
(4.8668881e-05 0.012442185 0)
(3.275969e-05 0.012510193 0)
(1.1567473e-05 0.01253739 0)
(-1.1569679e-05 0.01253739 0)
(-3.2762006e-05 0.012510193 0)
(-4.867107e-05 0.012442185 0)
(-5.6567648e-05 0.012302801 0)
(-5.5362514e-05 0.012038487 0)
(-4.6024758e-05 0.011559918 0)
(-3.1728722e-05 0.010718034 0)
(-1.6991822e-05 0.0092647749 0)
(-5.8151759e-06 0.0068101086 0)
(-8.7499866e-07 0.0028485507 0)
(5.960918e-07 0.0028465933 0)
(3.4040723e-06 0.0068042047 0)
(9.9884461e-06 0.0092551619 0)
(1.9329385e-05 0.010706537 0)
(2.9009452e-05 0.011550011 0)
(3.5852721e-05 0.012033758 0)
(3.7378878e-05 0.012305467 0)
(3.2602147e-05 0.012452528 0)
(2.2117311e-05 0.012526724 0)
(7.8299485e-06 0.012557319 0)
(-7.8321301e-06 0.012557319 0)
(-2.2119578e-05 0.012526724 0)
(-3.2604386e-05 0.012452529 0)
(-3.7380806e-05 0.012305468 0)
(-3.5854261e-05 0.012033759 0)
(-2.9010973e-05 0.011550014 0)
(-1.9330772e-05 0.010706541 0)
(-9.9899885e-06 0.0092551658 0)
(-3.4057118e-06 0.0068042054 0)
(-5.9663733e-07 0.00284659 0)
)
;

boundaryField
{
    Wall
    {
        type            fixedValue;
        value           uniform (0 0 0);
    }
    frontAndBack
    {
        type            empty;
    }
    atmosphere
    {
        type            pressureInletOutletVelocity;
        value           nonuniform List<vector> 
20
(
(5.960918e-07 0.0028465933 0)
(3.4040723e-06 0.0068042047 0)
(9.9884461e-06 0.0092551619 0)
(1.9329385e-05 0.010706537 0)
(2.9009452e-05 0.011550011 0)
(3.5852721e-05 0.012033758 0)
(3.7378878e-05 0.012305467 0)
(3.2602147e-05 0.012452528 0)
(2.2117311e-05 0.012526724 0)
(7.8299485e-06 0.012557319 0)
(-7.8321301e-06 0.012557319 0)
(-2.2119578e-05 0.012526724 0)
(-3.2604386e-05 0.012452529 0)
(-3.7380806e-05 0.012305468 0)
(-3.5854261e-05 0.012033759 0)
(-2.9010973e-05 0.011550014 0)
(-1.9330772e-05 0.010706541 0)
(-9.9899885e-06 0.0092551658 0)
(-3.4057118e-06 0.0068042054 0)
(-5.9663733e-07 0.00284659 0)
)
;
    }
}


// ************************************************************************* //
