/*--------------------------------*- C++ -*----------------------------------*\
| =========                 |                                                 |
| \\      /  F ield         | OpenFOAM: The Open Source CFD Toolbox           |
|  \\    /   O peration     | Version:  3.0.1                                 |
|   \\  /    A nd           | Web:      www.OpenFOAM.org                      |
|    \\/     M anipulation  |                                                 |
\*---------------------------------------------------------------------------*/
FoamFile
{
    version     2.0;
    format      ascii;
    class       volScalarField;
    location    "29";
    object      wBA_l_0;
}
// * * * * * * * * * * * * * * * * * * * * * * * * * * * * * * * * * * * * * //

dimensions      [0 0 0 0 0 0 0];

internalField   nonuniform List<scalar> 
800
(
0.0461902
0.046187959
0.046187586
0.046187546
0.046187544
0.046187541
0.046187535
0.046187528
0.046187523
0.04618752
0.04618752
0.046187523
0.046187528
0.046187535
0.046187541
0.046187544
0.046187546
0.046187586
0.046187959
0.0461902
0.046859348
0.046831579
0.04682519
0.046823711
0.046823494
0.046823539
0.046823592
0.046823611
0.04682361
0.046823605
0.046823605
0.04682361
0.046823611
0.046823592
0.046823539
0.046823495
0.046823711
0.04682519
0.04683158
0.046859351
0.047154741
0.047120202
0.04711119
0.047109125
0.047108714
0.047108645
0.047108601
0.047108541
0.047108484
0.04710845
0.04710845
0.047108484
0.047108541
0.047108601
0.047108645
0.047108715
0.047109125
0.04711119
0.047120203
0.047154743
0.047100488
0.0470711
0.04706302
0.047061401
0.04706104
0.047060851
0.047060647
0.04706045
0.047060297
0.047060216
0.047060216
0.047060297
0.04706045
0.047060647
0.047060851
0.04706104
0.047061401
0.04706302
0.0470711
0.047100488
0.046725909
0.046712876
0.046708353
0.046707842
0.04670769
0.046707371
0.046706962
0.046706588
0.046706311
0.046706169
0.046706169
0.046706311
0.046706587
0.046706961
0.04670737
0.046707689
0.04670784
0.046708352
0.046712874
0.046725907
0.046067776
0.046080582
0.046081586
0.046082625
0.046082746
0.046082266
0.046081609
0.046081025
0.046080604
0.046080391
0.046080391
0.046080603
0.046081024
0.046081607
0.046082264
0.046082744
0.046082622
0.046081583
0.046080579
0.046067771
0.045168133
0.045214263
0.045222428
0.045225292
0.045225645
0.045224942
0.045223992
0.045223172
0.045222591
0.045222302
0.045222302
0.04522259
0.04522317
0.04522399
0.045224939
0.045225642
0.045225288
0.045222424
0.045214258
0.045168126
0.044070776
0.044155945
0.044172821
0.044177649
0.044178152
0.044177132
0.044175844
0.044174766
0.044174016
0.044173646
0.044173646
0.044174014
0.044174764
0.044175841
0.044177128
0.044178148
0.044177644
0.044172815
0.044155939
0.044070769
0.042819293
0.042947496
0.042974605
0.042981458
0.042981972
0.042980584
0.042978917
0.042977569
0.042976642
0.042976191
0.04297619
0.042976641
0.042977566
0.042978914
0.042980579
0.042981967
0.042981452
0.042974599
0.042947489
0.042819285
0.041454663
0.041628594
0.041667543
0.041676482
0.041676913
0.041675118
0.041673054
0.041671433
0.041670323
0.041669786
0.041669786
0.041670321
0.04167143
0.04167305
0.041675113
0.041676907
0.041676476
0.041667536
0.041628587
0.041454655
0.040012492
0.040234144
0.040286694
0.040297887
0.040298249
0.040296014
0.040293553
0.040291663
0.040290355
0.040289727
0.040289726
0.040290353
0.04029166
0.040293549
0.04029601
0.040298243
0.040297881
0.040286688
0.040234137
0.040012485
0.038521349
0.038792867
0.038860901
0.038874758
0.038875262
0.038872583
0.038869724
0.03886757
0.038866106
0.038865374
0.038865373
0.038866104
0.038867567
0.03886972
0.038872579
0.038875256
0.038874752
0.038860895
0.03879286
0.038521342
0.037001543
0.037326119
0.037411772
0.03742938
0.037430456
0.03742737
0.037424092
0.037421677
0.03742006
0.037419199
0.037419198
0.037420058
0.037421674
0.037424089
0.037427365
0.037430451
0.037429374
0.037411766
0.037326112
0.037001537
0.03546727
0.0358496
0.035956036
0.035979309
0.035981569
0.035978148
0.035974366
0.035971627
0.035969916
0.035969008
0.035969007
0.035969914
0.035971624
0.035974363
0.035978144
0.035981564
0.035979304
0.03595603
0.035849594
0.035467264
0.033918784
0.034365317
0.034497518
0.034529043
0.034533337
0.034529691
0.034525294
0.034522353
0.034520711
0.03451976
0.034519759
0.034520709
0.03452235
0.03452529
0.034529687
0.034533332
0.034529038
0.034497512
0.034365311
0.033918779
0.032336964
0.03285454
0.03301939
0.033062689
0.033070397
0.033066803
0.033061873
0.03305859
0.033057139
0.033056087
0.033056086
0.033057137
0.033058587
0.03306187
0.033066799
0.033070392
0.033062684
0.033019385
0.032854535
0.03233696
0.030728393
0.031326401
0.031534377
0.031595015
0.031608296
0.031605353
0.031599863
0.031595897
0.031594653
0.031593442
0.031593442
0.031594652
0.031595894
0.03159986
0.03160535
0.031608292
0.031595011
0.031534372
0.031326397
0.03072839
0.029071788
0.02976279
0.03002855
0.030114979
0.030137428
0.03013603
0.030129778
0.030124697
0.030123504
0.030122072
0.030122071
0.030123502
0.030124694
0.030129775
0.030136026
0.030137425
0.030114976
0.030028546
0.029762786
0.029071786
0.027334598
0.028135036
0.028479029
0.028604124
0.028641629
0.028643284
0.028635993
0.028629212
0.028627501
0.028625689
0.028625688
0.0286275
0.028629209
0.02863599
0.028643281
0.028641626
0.028604121
0.028479026
0.028135034
0.027334598
0.02546864
0.026401212
0.026852481
0.027035797
0.027097269
0.027104723
0.027096261
0.027086955
0.027083808
0.02708126
0.027081259
0.027083807
0.027086952
0.027096258
0.02710472
0.027097266
0.027035795
0.026852479
0.026401211
0.025468644
0.02339768
0.024498054
0.025099167
0.025368973
0.025469831
0.025488945
0.025479553
0.025466564
0.025460854
0.025456942
0.025456941
0.025460853
0.025466561
0.025479551
0.025488943
0.025469829
0.025368971
0.025099166
0.024498056
0.023397688
0.020970575
0.022305124
0.023123352
0.023526677
0.023695253
0.023735509
0.023726319
0.023708279
0.023698584
0.023692301
0.0236923
0.023698582
0.023708276
0.023726317
0.023735508
0.023695252
0.023526678
0.023123354
0.022305131
0.020970592
0.017997905
0.019590374
0.020706072
0.021317834
0.021596457
0.021680962
0.021682464
0.021658248
0.021642085
0.021631704
0.021631703
0.021642084
0.021658246
0.021682464
0.021680963
0.021596458
0.021317835
0.020706074
0.019590384
0.017997927
0.014557702
0.016486048
0.018011104
0.018932569
0.019380253
0.019533119
0.019543189
0.01950585
0.019474049
0.01945424
0.019454239
0.019474048
0.019505848
0.019543188
0.019533119
0.019380253
0.018932569
0.018011108
0.016486064
0.014557735
0.010232486
0.012692135
0.014718171
0.016078683
0.016835013
0.017129983
0.017168285
0.017114214
0.017058333
0.017023135
0.017023134
0.017058332
0.017114214
0.017168287
0.017129987
0.016835015
0.016078688
0.014718182
0.012692158
0.010232529
0.0057011712
0.0088992947
0.011311351
0.013014036
0.014060726
0.014530197
0.014626394
0.014557673
0.014468824
0.014410916
0.014410915
0.014468822
0.014557671
0.014626394
0.014530198
0.014060728
0.013014039
0.011311358
0.0088993163
0.0057012114
0.0023093605
0.0057807762
0.0083750367
0.010280965
0.011509283
0.012096783
0.012225848
0.012133171
0.012002906
0.011916768
0.011916766
0.012002903
0.012133169
0.012225849
0.012096785
0.011509286
0.01028097
0.0083750442
0.0057807928
0.0023093854
0.00066872541
0.0035288272
0.0060400404
0.0079819963
0.0092673962
0.0099036645
0.010046889
0.0099348652
0.0097730811
0.009664505
0.0096645032
0.0097730783
0.0099348627
0.010046889
0.009903665
0.0092673973
0.0079819993
0.0060400456
0.0035288384
0.00066873611
0.00014342914
0.0020190362
0.0042618859
0.0061080188
0.007359314
0.00798902
0.0081312701
0.0080115577
0.0078359065
0.0077167027
0.0077167006
0.0078359029
0.008011554
0.0081312683
0.007989019
0.0073593131
0.0061080192
0.0042618877
0.0020190417
0.00014343231
2.4605006e-05
0.0010831261
0.00293281
0.0045928956
0.0057478122
0.0063363452
0.0064705812
0.0063560982
0.0061848906
0.0060678038
0.0060678014
0.0061848864
0.0063560936
0.0064705781
0.006336343
0.00574781
0.0045928944
0.0029328106
0.0010831292
2.4605667e-05
3.641388e-06
0.00054324629
0.0019582438
0.0033780767
0.0043991036
0.004926648
0.0050507297
0.0049514829
0.0047989154
0.0046936612
0.0046936589
0.0047989109
0.0049514776
0.0050507258
0.0049266449
0.0043991008
0.0033780748
0.0019582439
0.00054324814
3.6414976e-06
4.9287765e-07
0.00025606909
0.0012628923
0.0024201093
0.0032881604
0.003745261
0.0038588383
0.0037806246
0.0036544548
0.0035666085
0.0035666062
0.0036544502
0.0037806192
0.0038588339
0.0037452576
0.0032881575
0.0024201074
0.0012628923
0.00025607013
4.9289337e-07
6.3600015e-08
0.00011436198
0.00078441679
0.0016833849
0.0023939335
0.0027779532
0.0028806944
0.0028248308
0.0027271775
0.002658327
0.0026583249
0.0027271732
0.0028248255
0.0028806901
0.0027779498
0.0023939309
0.0016833834
0.00078441682
0.00011436251
6.3602098e-08
8.0223787e-09
4.8771689e-05
0.00046877899
0.0011345442
0.001694571
0.0020074563
0.0020985701
0.0020628586
0.0019917346
0.0019406898
0.0019406879
0.0019917308
0.0020628539
0.0020985662
0.0020074533
0.0016945689
0.0011345431
0.00046877907
4.8771939e-05
8.0226406e-09
1.0026837e-09
1.9986301e-05
0.00026968015
0.00074020667
0.0011651014
0.001412064
0.0014905714
0.0014708808
0.0014219891
0.0013860046
0.001386003
0.0014219859
0.0014708768
0.001490568
0.0014120615
0.0011650998
0.00074020604
0.00026968026
1.9986414e-05
1.0027155e-09
1.2501542e-10
7.9057539e-06
0.00014954105
0.00046745025
0.00077778209
0.00096640296
0.0010317159
0.001023347
0.00099159435
0.0009673937
0.00096739246
0.00099159172
0.0010233437
0.0010317131
0.00096640099
0.00077778097
0.00046744993
0.00014954117
7.9058026e-06
1.2501919e-10
1.5725013e-11
3.0280331e-06
8.005932e-05
0.00028586479
0.00050415619
0.00064344212
0.00069571978
0.0006944135
0.00067496056
0.00065939936
0.00065939841
0.00067495852
0.00069441092
0.00069571766
0.00064344066
0.00050415544
0.00028586467
8.0059428e-05
3.0280534e-06
1.5725476e-11
2.2613928e-12
1.1253873e-06
4.144939e-05
0.00016941597
0.00031741907
0.00041683406
0.0004570401
0.00045947642
0.00044828645
0.00043871049
0.0004387098
0.00044828493
0.00045947448
0.00045703852
0.00041683302
0.0003174186
0.00016941595
4.144947e-05
1.1253955e-06
2.2608629e-12
6.6091976e-13
4.064293e-07
2.0784165e-05
9.7386824e-05
0.00019421484
0.00026281091
0.0002925274
0.0002964361
0.00029045186
0.00028481291
0.00028481241
0.00029045077
0.00029643469
0.00029252625
0.00026281018
0.00019421454
9.7386845e-05
2.0784218e-05
4.0643254e-07
6.6033735e-13
3.5053784e-13
1.4277232e-07
1.0107031e-05
5.4348529e-05
0.00011554826
0.00016132879
0.00018245895
0.00018648984
0.00018357629
0.00018040348
0.00018040313
0.00018357553
0.00018648885
0.00018245815
0.0001613283
0.00011554807
5.4348558e-05
1.0107063e-05
1.4277357e-07
3.5026581e-13
)
;

boundaryField
{
    Wall
    {
        type            zeroGradient;
    }
    frontAndBack
    {
        type            empty;
    }
    atmosphere
    {
        type            zeroGradient;
    }
}


// ************************************************************************* //
