/*--------------------------------*- C++ -*----------------------------------*\
| =========                 |                                                 |
| \\      /  F ield         | OpenFOAM: The Open Source CFD Toolbox           |
|  \\    /   O peration     | Version:  3.0.1                                 |
|   \\  /    A nd           | Web:      www.OpenFOAM.org                      |
|    \\/     M anipulation  |                                                 |
\*---------------------------------------------------------------------------*/
FoamFile
{
    version     2.0;
    format      ascii;
    class       volScalarField;
    location    "29";
    object      wBA_l;
}
// * * * * * * * * * * * * * * * * * * * * * * * * * * * * * * * * * * * * * //

dimensions      [0 0 0 0 0 0 0];

internalField   nonuniform List<scalar> 
800
(
0.046131055
0.04612881
0.046128436
0.046128396
0.046128394
0.046128391
0.046128385
0.046128378
0.046128373
0.04612837
0.04612837
0.046128373
0.046128378
0.046128385
0.046128391
0.046128394
0.046128396
0.046128436
0.04612881
0.046131055
0.04679815
0.0467704
0.046764007
0.046762523
0.046762303
0.046762347
0.0467624
0.046762419
0.046762418
0.046762413
0.046762413
0.046762418
0.046762419
0.0467624
0.046762347
0.046762304
0.046762523
0.046764008
0.046770402
0.046798153
0.047094711
0.047060132
0.047051093
0.047049016
0.047048602
0.047048532
0.047048489
0.04704843
0.047048374
0.04704834
0.04704834
0.047048374
0.047048431
0.047048489
0.047048532
0.047048602
0.047049017
0.047051094
0.047060132
0.047094713
0.047044486
0.047014931
0.047006793
0.047005157
0.047004793
0.047004606
0.047004405
0.047004211
0.047004059
0.047003979
0.047003979
0.047004059
0.04700421
0.047004405
0.047004606
0.047004793
0.047005156
0.047006792
0.047014931
0.047044486
0.046676304
0.046662923
0.04665831
0.04665778
0.046657631
0.046657319
0.046656916
0.046656546
0.046656272
0.046656132
0.046656131
0.046656272
0.046656546
0.046656915
0.046657318
0.04665763
0.046657779
0.046658309
0.046662921
0.046676302
0.04602636
0.046038612
0.046039498
0.046040522
0.046040653
0.046040187
0.04603954
0.046038963
0.046038546
0.046038335
0.046038335
0.046038545
0.046038962
0.046039538
0.046040185
0.046040651
0.046040519
0.046039495
0.046038609
0.046026356
0.045136116
0.045181475
0.045189496
0.045192354
0.045192729
0.045192047
0.045191112
0.045190301
0.045189726
0.045189439
0.045189439
0.045189725
0.045190299
0.04519111
0.045192044
0.045192725
0.04519235
0.045189492
0.04518147
0.04513611
0.044048862
0.044133045
0.044149751
0.044154585
0.044155124
0.044154134
0.044152866
0.0441518
0.044151056
0.04415069
0.04415069
0.044151055
0.044151798
0.044152863
0.04415413
0.044155119
0.04415458
0.044149746
0.044133039
0.044048854
0.042807738
0.042934746
0.042961656
0.04296853
0.042969094
0.042967745
0.042966104
0.042964769
0.042963851
0.042963403
0.042963402
0.042963849
0.042964767
0.0429661
0.042967741
0.042969089
0.042968524
0.04296165
0.04293474
0.04280773
0.041453414
0.041625944
0.04166465
0.041673622
0.041674119
0.041672371
0.041670336
0.041668731
0.04166763
0.041667097
0.041667096
0.041667628
0.041668728
0.041670332
0.041672366
0.041674114
0.041673616
0.041664643
0.041625937
0.041453406
0.040021309
0.040241346
0.040293591
0.040304822
0.040305261
0.04030308
0.04030065
0.040298777
0.040297479
0.040296855
0.040296854
0.040297477
0.040298774
0.040300646
0.040303075
0.040305255
0.040304816
0.040293584
0.040241339
0.040021301
0.03853994
0.038809593
0.038877235
0.038891121
0.038891703
0.038889083
0.038886257
0.038884119
0.038882665
0.038881938
0.038881937
0.038882663
0.038884116
0.038886253
0.038889079
0.038891698
0.038891115
0.038877228
0.038809586
0.038539933
0.037029705
0.037352095
0.037437232
0.037454827
0.037455968
0.03745294
0.037449696
0.037447298
0.03744569
0.037444834
0.037444833
0.037445688
0.037447294
0.037449692
0.037452935
0.037455962
0.037454821
0.037437226
0.037352088
0.037029699
0.035504942
0.035884659
0.035990379
0.036013547
0.036015841
0.036012473
0.036008727
0.036006004
0.036004301
0.036003396
0.036003395
0.036004299
0.036006001
0.036008723
0.036012469
0.036015836
0.036013542
0.035990373
0.035884653
0.035504936
0.03396642
0.034409793
0.034540953
0.034572223
0.034576495
0.034572891
0.034568531
0.034565602
0.034563958
0.034563012
0.034563011
0.034563956
0.034565599
0.034568528
0.034572887
0.03457649
0.034572218
0.034540947
0.034409788
0.033966415
0.032395214
0.032908963
0.033072261
0.033115058
0.033122647
0.033119071
0.033114175
0.033110911
0.033109449
0.033108404
0.033108404
0.033109447
0.033110908
0.033114172
0.033119067
0.033122642
0.033115054
0.033072255
0.032908957
0.03239521
0.030798395
0.031391716
0.031597352
0.03165708
0.031670085
0.031667115
0.031661657
0.031657726
0.031656466
0.031655265
0.031655264
0.031656465
0.031657723
0.031661654
0.031667111
0.031670081
0.031657076
0.031597347
0.031391711
0.030798392
0.029155499
0.029840675
0.030102914
0.030187764
0.030209658
0.03020816
0.030201949
0.030196927
0.030195727
0.030194307
0.030194307
0.030195725
0.030196925
0.030201946
0.030208157
0.030209654
0.03018776
0.03010291
0.029840671
0.029155498
0.027435141
0.028228233
0.028566915
0.02868935
0.028725815
0.028727251
0.028720014
0.028713335
0.028711653
0.028709864
0.028709863
0.028711651
0.028713332
0.028720011
0.028727249
0.028725812
0.028689347
0.028566911
0.02822823
0.027435141
0.025591087
0.026514039
0.026957288
0.027136212
0.027195839
0.02720283
0.027194426
0.027185287
0.027182251
0.027179754
0.027179754
0.027182249
0.027185285
0.027194423
0.027202827
0.027195837
0.02713621
0.026957285
0.026514038
0.02559109
0.023551219
0.024638067
0.025226836
0.025489454
0.025586984
0.025605164
0.025595806
0.025583079
0.025577557
0.02557375
0.025573749
0.025577556
0.025583076
0.025595804
0.025605162
0.025586982
0.025489453
0.025226835
0.024638068
0.023551227
0.021176806
0.022489819
0.023287945
0.023679109
0.02384125
0.023879319
0.023870213
0.023852523
0.023843112
0.023837011
0.02383701
0.02384311
0.02385252
0.023870212
0.023879318
0.023841249
0.023679108
0.023287946
0.022489825
0.021176822
0.018259299
0.019835721
0.020931912
0.021526886
0.021796927
0.02187708
0.021877435
0.021853898
0.021838483
0.021828551
0.02182855
0.021838482
0.021853896
0.021877434
0.02187708
0.021796927
0.021526888
0.020931915
0.01983573
0.01825932
0.014894985
0.016785662
0.018266842
0.019155847
0.019585532
0.019730774
0.019739713
0.019703518
0.019673217
0.019654329
0.019654328
0.019673216
0.019703516
0.019739713
0.019730775
0.019585533
0.019155849
0.018266846
0.016785677
0.014895017
0.010649418
0.013054899
0.01503717
0.016359967
0.01708869
0.017370631
0.017407947
0.017356173
0.017303133
0.017269684
0.017269683
0.017303132
0.017356173
0.017407949
0.017370634
0.017088691
0.016359971
0.01503718
0.013054921
0.010649461
0.0060956316
0.0092326358
0.011612664
0.013295972
0.014322598
0.014780348
0.014873092
0.014806406
0.014720811
0.014665055
0.014665053
0.014720809
0.014806404
0.014873092
0.014780349
0.0143226
0.013295975
0.011612671
0.0092326579
0.0060956735
0.0025493975
0.0060412242
0.0086276802
0.010532813
0.011756469
0.012342017
0.012472401
0.012382919
0.012256149
0.012172203
0.012172201
0.012256147
0.012382917
0.012472402
0.012342018
0.011756472
0.010532818
0.0086276885
0.0060412412
0.0025494244
0.00076027113
0.0037030674
0.0062383445
0.0081910541
0.0094842732
0.010126162
0.010273321
0.010164064
0.010004281
0.0098968572
0.0098968554
0.010004278
0.010164062
0.010273321
0.010126163
0.0094842745
0.0081910574
0.0062383504
0.0037030795
0.0007602833
0.00016642135
0.0021326739
0.0044125613
0.0062804623
0.0075474887
0.0081875531
0.008334882
0.008216596
0.0080409396
0.0079214833
0.0079214812
0.0080409361
0.0082165925
0.0083348804
0.0081875523
0.007547488
0.006280463
0.0044125635
0.0021326798
0.00016642501
2.8986702e-05
0.0011517914
0.0030468336
0.0047357306
0.0059110609
0.0065121918
0.0066515714
0.0065370888
0.0063640946
0.0062455099
0.0062455076
0.0063640905
0.0065370843
0.0066515686
0.0065121897
0.0059110588
0.0047357296
0.0030468344
0.0011517948
2.8987482e-05
4.3312381e-06
0.00058172568
0.0020430764
0.0034954315
0.0045391213
0.0050799808
0.0052087186
0.0051083696
0.0049527806
0.0048452285
0.0048452262
0.0049527761
0.0051083644
0.0052087147
0.0050799778
0.0045391185
0.0034954297
0.0020430766
0.00058172765
4.3313694e-06
5.889982e-07
0.00027598384
0.0013240516
0.0025144843
0.003405735
0.0038759322
0.0039935594
0.0039136002
0.0037838754
0.0036933971
0.0036933948
0.0037838708
0.0039135948
0.0039935551
0.0038759288
0.0034057321
0.0025144824
0.0013240516
0.00027598495
5.8901719e-07
7.6093855e-08
0.00012396978
0.00082672293
0.00175698
0.0024898938
0.0028862406
0.0029925264
0.0029347598
0.0028335827
0.0027621648
0.0027621626
0.0028335784
0.0029347545
0.002992522
0.0028862372
0.0024898911
0.0017569784
0.00082672296
0.00012397035
7.6096376e-08
9.5924524e-09
5.3145067e-05
0.00049672941
0.0011898607
0.0017703232
0.0020944253
0.002188717
0.0021513184
0.0020770839
0.0020237841
0.0020237822
0.00207708
0.0021513136
0.002188713
0.0020944222
0.0017703211
0.0011898596
0.00049672948
5.3145339e-05
9.5927696e-09
1.197415e-09
2.188363e-05
0.0002873015
0.00078015839
0.0012227918
0.0014796337
0.0015610401
0.0015400721
0.0014886716
0.0014508607
0.0014508591
0.0014886683
0.001540068
0.0015610367
0.0014796311
0.0012227901
0.00078015771
0.00028730161
2.1883753e-05
1.1974535e-09
1.4909911e-10
8.6960292e-06
0.00016016042
0.00049516113
0.00082013442
0.0010171539
0.0010850976
0.001075907
0.0010422814
0.0010166964
0.0010166951
0.0010422787
0.0010759036
0.0010850948
0.0010171519
0.00082013325
0.00049516078
0.00016016054
8.6960824e-06
1.4910367e-10
1.8705088e-11
3.3456125e-06
8.6192675e-05
0.00030433749
0.00053413696
0.00068029715
0.0007349042
0.00073317344
0.00071241642
0.00069586571
0.00069586473
0.00071241431
0.00073317078
0.000734902
0.00068029563
0.00053413617
0.00030433734
8.6192785e-05
3.3456349e-06
1.8705644e-11
2.62721e-12
1.2489111e-06
4.4853692e-05
0.00018126819
0.00033790119
0.000442725
0.00048491863
0.00048722283
0.0004751842
0.00046493749
0.00046493676
0.00047518262
0.00048722081
0.00048491698
0.00044272391
0.00033790068
0.00018126816
4.4853775e-05
1.2489202e-06
2.626707e-12
7.0432215e-13
4.5302706e-07
2.2604623e-05
0.00010471833
0.00020773468
0.00028042011
0.00031176136
0.0003157203
0.00030922096
0.00030314963
0.00030314911
0.00030921982
0.00031571883
0.00031176016
0.00028041935
0.00020773436
0.00010471835
2.2604678e-05
4.5303063e-07
7.0374113e-13
3.5894608e-13
1.5984346e-07
1.1046931e-05
5.8728088e-05
0.00012418114
0.00017293407
0.00019533485
0.00019950737
0.0001963047
0.00019286664
0.00019286627
0.0001963039
0.00019950634
0.00019533401
0.00017293355
0.00012418095
5.8728117e-05
1.1046965e-05
1.5984485e-07
3.5866563e-13
)
;

boundaryField
{
    Wall
    {
        type            zeroGradient;
    }
    frontAndBack
    {
        type            empty;
    }
    atmosphere
    {
        type            zeroGradient;
    }
}


// ************************************************************************* //
