/*--------------------------------*- C++ -*----------------------------------*\
| =========                 |                                                 |
| \\      /  F ield         | OpenFOAM: The Open Source CFD Toolbox           |
|  \\    /   O peration     | Version:  3.0.1                                 |
|   \\  /    A nd           | Web:      www.OpenFOAM.org                      |
|    \\/     M anipulation  |                                                 |
\*---------------------------------------------------------------------------*/
FoamFile
{
    version     2.0;
    format      ascii;
    class       volScalarField;
    location    "29";
    object      wBA_g;
}
// * * * * * * * * * * * * * * * * * * * * * * * * * * * * * * * * * * * * * //

dimensions      [0 0 0 0 0 0 0];

internalField   nonuniform List<scalar> 
800
(
0.049039029
0.0490404
0.049040793
0.04904092
0.049040995
0.049041052
0.049041096
0.049041128
0.049041149
0.04904116
0.04904116
0.049041149
0.049041128
0.049041096
0.049041052
0.049040995
0.04904092
0.049040793
0.0490404
0.049039029
0.052364399
0.052302816
0.052286619
0.052282068
0.052280827
0.052280593
0.052280603
0.052280635
0.052280646
0.052280648
0.052280648
0.052280646
0.052280635
0.052280604
0.052280593
0.052280828
0.05228207
0.052286621
0.052302819
0.052364405
0.054627883
0.054544685
0.05453159
0.054524136
0.054521703
0.054520948
0.054520696
0.054520589
0.054520523
0.054520488
0.054520488
0.054520523
0.054520589
0.054520696
0.054520949
0.054521703
0.054524137
0.054531592
0.054544687
0.054627888
0.055910731
0.055824367
0.055822846
0.055815087
0.055812485
0.055811571
0.055811148
0.055810942
0.055810808
0.055810745
0.055810745
0.055810807
0.055810941
0.055811146
0.055811569
0.055812483
0.055815085
0.055822845
0.055824366
0.05591073
0.056314724
0.056246131
0.056254399
0.056253718
0.0562515
0.05625068
0.056250193
0.056249967
0.056249799
0.056249731
0.05624973
0.056249797
0.056249964
0.056250189
0.056250676
0.056251495
0.056253712
0.056254392
0.056246124
0.056314716
0.055977595
0.055947004
0.055957541
0.055969848
0.055967856
0.055967103
0.055966552
0.055966342
0.055966161
0.055966107
0.055966106
0.055966158
0.055966338
0.055966546
0.055967095
0.055967847
0.055969837
0.05595753
0.055946992
0.055977579
0.055065653
0.0550879
0.055092665
0.055118818
0.055116131
0.055115076
0.055114307
0.055114064
0.05511385
0.055113812
0.055113811
0.055113846
0.055114058
0.055114298
0.055115065
0.055116118
0.055118803
0.055092649
0.055087882
0.055065631
0.053764578
0.053841308
0.053838079
0.05387371
0.053868732
0.053866648
0.053865323
0.05386489
0.053864563
0.053864517
0.053864515
0.053864559
0.053864883
0.053865313
0.053866634
0.053868716
0.053873691
0.053838059
0.053841287
0.053764551
0.052262784
0.05238254
0.052373027
0.052409998
0.052404579
0.052400485
0.052398076
0.052397167
0.052396573
0.052396453
0.052396451
0.052396568
0.052397158
0.052398063
0.052400469
0.05240456
0.052409976
0.052373004
0.052382515
0.052262755
0.050728104
0.050878281
0.050861591
0.050889619
0.05088922
0.050886112
0.050881874
0.050880041
0.050878928
0.050878619
0.050878618
0.050878923
0.050880031
0.05088186
0.050886095
0.0508892
0.050889595
0.050861566
0.050878253
0.050728073
0.049293928
0.049468588
0.049441517
0.049449236
0.049462948
0.049468139
0.049460959
0.049457507
0.049455474
0.049454791
0.049454789
0.049455469
0.049457498
0.049460945
0.049468121
0.049462926
0.049449211
0.049441491
0.049468559
0.049293896
0.048058459
0.04826098
0.04822041
0.048194991
0.04824088
0.048261589
0.048249811
0.048243687
0.048240084
0.048238728
0.048238726
0.048240079
0.048243678
0.048249798
0.048261572
0.048240858
0.048194966
0.048220384
0.048260952
0.048058428
0.047089943
0.047333838
0.047277427
0.047208795
0.047308924
0.047347459
0.047328736
0.04731813
0.047316959
0.047314167
0.047314165
0.047316955
0.047318122
0.047328723
0.047347442
0.047308903
0.047208771
0.047277401
0.047333811
0.047089914
0.046430379
0.046734771
0.046666544
0.046557186
0.046723501
0.046775211
0.046746296
0.046728611
0.046744095
0.046738909
0.046738907
0.046744091
0.046728604
0.046746285
0.046775196
0.046723481
0.046557163
0.046666519
0.046734744
0.046430352
0.046095202
0.046479076
0.046413808
0.04627539
0.046499582
0.046553139
0.046505762
0.046477691
0.046526975
0.046530389
0.046530388
0.046526971
0.046477685
0.046505752
0.046553125
0.046499564
0.046275369
0.046413785
0.046479051
0.046095175
0.046065859
0.046549707
0.046512152
0.046369449
0.046623358
0.046656705
0.046584797
0.04654239
0.046632569
0.046666594
0.046666593
0.046632566
0.046542384
0.046584788
0.046656692
0.046623341
0.046369428
0.04651213
0.046549683
0.046065833
0.046316629
0.046912273
0.046929261
0.046804332
0.047074664
0.047070788
0.046972345
0.046910849
0.047021233
0.047102568
0.047102567
0.04702123
0.046910844
0.046972336
0.047070775
0.047074648
0.046804313
0.04692924
0.046912249
0.046316601
0.046801984
0.047548566
0.047642185
0.047532423
0.047833175
0.0477812
0.047653463
0.047568816
0.047676799
0.047806053
0.047806052
0.047676796
0.04756881
0.047653454
0.047781187
0.047833159
0.047532404
0.047642164
0.047548541
0.046801954
0.047437125
0.048409057
0.048600413
0.048476665
0.048856141
0.048745199
0.048582731
0.048472821
0.048561579
0.048724504
0.048724503
0.048561575
0.048472815
0.048582722
0.048745186
0.048856125
0.048476646
0.048600392
0.048409031
0.047437092
0.047996332
0.049332626
0.049656215
0.049519444
0.050010174
0.04988977
0.049688135
0.049553195
0.049608272
0.049783631
0.04978363
0.049608268
0.049553189
0.049688126
0.049889758
0.050010159
0.049519426
0.049656194
0.0493326
0.0479963
0.047617627
0.049685515
0.050385301
0.050414024
0.05095414
0.050797811
0.050557854
0.050402664
0.050514346
0.050682851
0.05068285
0.050514343
0.05040266
0.050557848
0.050797802
0.050954129
0.05041401
0.050385285
0.049685496
0.047617613
0.042671977
0.047001573
0.048663024
0.049136165
0.049923589
0.049858241
0.049568947
0.049415973
0.049589316
0.049745547
0.049745547
0.049589316
0.049415974
0.049568947
0.04985824
0.049923588
0.049136165
0.048663025
0.047001586
0.042672019
0.029306228
0.034812532
0.037841428
0.039087865
0.040424771
0.04089787
0.040744708
0.040632322
0.040835535
0.040984651
0.040984652
0.040835538
0.040632327
0.040744714
0.040897878
0.040424777
0.039087872
0.037841439
0.034812552
0.029306266
0.018436295
0.022225573
0.02457512
0.025654394
0.026727338
0.026881657
0.026821934
0.026762617
0.026939902
0.027068603
0.027068604
0.026939904
0.02676262
0.026821938
0.026881662
0.026727342
0.025654399
0.02457513
0.022225596
0.018436337
0.010641332
0.013442518
0.01523509
0.016077091
0.016808511
0.016946938
0.016926451
0.016893149
0.017014924
0.017114179
0.01711418
0.017014927
0.016893154
0.016926457
0.016946946
0.016808517
0.016077098
0.015235103
0.013442542
0.010641376
0.0051848355
0.0076799109
0.0091608429
0.0098502561
0.010322554
0.010440852
0.010426037
0.010393603
0.010454596
0.010519169
0.01051917
0.010454597
0.010393605
0.01042604
0.010440856
0.010322559
0.0098502605
0.0091608496
0.0076799293
0.0051848702
0.0019555376
0.0041057495
0.0053824843
0.0060109395
0.0063554403
0.0064405822
0.0064084896
0.0063590561
0.0063689084
0.006399656
0.0063996565
0.0063689098
0.0063590585
0.0064084932
0.0064405864
0.0063554451
0.0060109441
0.0053824896
0.0041057614
0.0019555573
0.00055603939
0.0020447719
0.0030766823
0.0036326847
0.0039107936
0.0039781376
0.0039424723
0.0038868359
0.0038688747
0.0038763507
0.0038763511
0.0038688758
0.0038868378
0.0039424751
0.0039781407
0.0039107966
0.0036326876
0.0030766856
0.0020447791
0.00055604785
0.00012113565
0.00095095805
0.0017127031
0.0021714232
0.0024018239
0.0024620954
0.0024341553
0.0023842993
0.0023572858
0.0023527184
0.0023527186
0.0023572865
0.0023843005
0.0024341571
0.0024620973
0.0024018254
0.0021714245
0.0017127046
0.00095096127
0.0001211382
2.156265e-05
0.00041641015
0.00092927253
0.0012811085
0.0014668194
0.0015220669
0.0015054269
0.0014672027
0.0014416298
0.001432896
0.0014328961
0.0014416302
0.0014672034
0.0015054279
0.0015220679
0.0014668199
0.001281109
0.00092927326
0.00041641172
2.1563212e-05
3.3389149e-06
0.00017262072
0.00049196851
0.00074506158
0.00088826029
0.00093681326
0.00092980995
0.00090356305
0.00088344472
0.00087470379
0.00087470384
0.00088344487
0.0009035633
0.00092981038
0.00093681365
0.00088826041
0.00074506169
0.00049196892
0.00017262149
3.3390142e-06
4.7218231e-07
6.835394e-05
0.00025463216
0.00042711667
0.00053263906
0.00057286355
0.00057216783
0.00055564424
0.00054141329
0.00053431684
0.00053431685
0.00054141331
0.00055564428
0.00057216795
0.00057286365
0.00053263899
0.00042711664
0.00025463239
6.8354293e-05
4.7219745e-07
6.3251411e-08
2.6109233e-05
0.00012914554
0.00024148195
0.00031609953
0.00034760274
0.00035018969
0.00034055741
0.00033119453
0.00032604409
0.00032604407
0.00033119448
0.00034055735
0.00035018967
0.00034760271
0.00031609942
0.00024148189
0.00012914566
2.6109384e-05
6.3253528e-08
8.2259522e-09
9.7026221e-06
6.4326542e-05
0.00013473861
0.0001856275
0.00020912644
0.00021290527
0.00020770824
0.00020187871
0.00019840505
0.00019840503
0.00020187864
0.00020770815
0.00021290519
0.00020912636
0.0001856274
0.00013473856
6.4326606e-05
9.7026827e-06
8.2262318e-09
1.0542589e-09
3.5299148e-06
3.1522621e-05
7.4233835e-05
0.00010785933
0.00012467626
0.00012845214
0.00012589415
0.0001224273
0.00012020742
0.00012020739
0.00012242723
0.00012589405
0.00012845205
0.00012467618
0.00010785926
7.4233805e-05
3.1522655e-05
3.5299381e-06
1.0542945e-09
1.342456e-10
1.2623352e-06
1.5216667e-05
4.0396122e-05
6.2001755e-05
7.361832e-05
7.6841746e-05
7.5741762e-05
7.3763648e-05
7.2404867e-05
7.2404844e-05
7.3763589e-05
7.5741684e-05
7.6841673e-05
7.3618259e-05
6.2001709e-05
4.0396107e-05
1.5216687e-05
1.262344e-06
1.3425e-10
1.7058315e-11
4.4476228e-07
7.2408249e-06
2.1712237e-05
3.524898e-05
4.3030408e-05
4.554094e-05
4.5183e-05
4.4099282e-05
4.3297623e-05
4.3297605e-05
4.4099236e-05
4.5182941e-05
4.5540885e-05
4.3030366e-05
3.5248954e-05
2.1712233e-05
7.2408369e-06
4.447655e-07
1.705885e-11
2.1805498e-12
1.5456031e-07
3.3972433e-06
1.1523367e-05
1.9809727e-05
2.4881634e-05
2.6717859e-05
2.6698077e-05
2.6129565e-05
2.5672053e-05
2.567204e-05
2.6129532e-05
2.6698034e-05
2.6717821e-05
2.4881607e-05
1.9809714e-05
1.1523369e-05
3.3972505e-06
1.5456149e-07
2.1805671e-12
2.9876345e-13
5.2990854e-08
1.5713473e-06
6.0360835e-06
1.09985e-05
1.4223004e-05
1.5503758e-05
1.5610752e-05
1.5327209e-05
1.5074213e-05
1.5074203e-05
1.5327186e-05
1.5610723e-05
1.5503733e-05
1.4222987e-05
1.0998495e-05
6.0360863e-06
1.5713514e-06
5.2991282e-08
2.9872244e-13
5.4508765e-14
1.7919594e-08
7.1621767e-07
3.1185706e-06
6.0283692e-06
8.0312665e-06
8.8909675e-06
9.0240898e-06
8.8916161e-06
8.7560582e-06
8.756052e-06
8.8916009e-06
9.0240704e-06
8.890951e-06
8.0312567e-06
6.0283671e-06
3.1185734e-06
7.1622001e-07
1.7919749e-08
5.4483152e-14
)
;

boundaryField
{
    Wall
    {
        type            zeroGradient;
    }
    frontAndBack
    {
        type            empty;
    }
    atmosphere
    {
        type            zeroGradient;
    }
}


// ************************************************************************* //
