/*--------------------------------*- C++ -*----------------------------------*\
| =========                 |                                                 |
| \\      /  F ield         | OpenFOAM: The Open Source CFD Toolbox           |
|  \\    /   O peration     | Version:  3.0.1                                 |
|   \\  /    A nd           | Web:      www.OpenFOAM.org                      |
|    \\/     M anipulation  |                                                 |
\*---------------------------------------------------------------------------*/
FoamFile
{
    version     2.0;
    format      ascii;
    class       volScalarField;
    location    "29";
    object      wCO2_g;
}
// * * * * * * * * * * * * * * * * * * * * * * * * * * * * * * * * * * * * * //

dimensions      [0 0 0 0 0 0 0];

internalField   nonuniform List<scalar> 
800
(
0.015209824
0.015210609
0.015210758
0.015210796
0.015210818
0.015210834
0.015210848
0.015210858
0.015210865
0.015210868
0.015210868
0.015210865
0.015210858
0.015210848
0.015210834
0.015210818
0.015210796
0.015210758
0.015210609
0.015209824
0.015357982
0.015360816
0.015361393
0.015361407
0.015361304
0.015361213
0.015361154
0.015361121
0.015361103
0.015361096
0.015361096
0.015361103
0.015361121
0.015361154
0.015361213
0.015361304
0.015361407
0.015361393
0.015360815
0.015357982
0.015511676
0.015514879
0.015516344
0.015516331
0.015516146
0.015515998
0.015515909
0.015515865
0.015515844
0.015515836
0.015515836
0.015515844
0.015515864
0.015515909
0.015515998
0.015516146
0.015516331
0.015516344
0.015514879
0.015511676
0.015683202
0.015684677
0.015686975
0.015686935
0.015686683
0.015686508
0.015686416
0.01568638
0.01568637
0.015686368
0.015686368
0.01568637
0.01568638
0.015686416
0.015686508
0.015686683
0.015686934
0.015686975
0.015684677
0.015683202
0.015879614
0.015877562
0.015880284
0.015880397
0.015880051
0.015879847
0.015879758
0.015879741
0.015879746
0.015879754
0.015879754
0.015879746
0.015879741
0.015879758
0.015879847
0.015880051
0.015880397
0.015880284
0.015877562
0.015879614
0.016102851
0.016096219
0.016098848
0.016099326
0.016098825
0.016098565
0.016098468
0.016098463
0.016098481
0.016098498
0.016098498
0.016098481
0.016098463
0.016098468
0.016098565
0.016098825
0.016099327
0.016098848
0.01609622
0.016102851
0.016349487
0.016338461
0.016340329
0.016341305
0.016340571
0.016340208
0.016340074
0.016340065
0.016340087
0.016340109
0.016340109
0.016340087
0.016340065
0.016340074
0.016340208
0.016340571
0.016341305
0.016340329
0.016338461
0.016349488
0.016611908
0.01659804
0.016598411
0.016599894
0.016598873
0.016598344
0.016598131
0.016598089
0.016598098
0.016598117
0.016598117
0.016598098
0.01659809
0.016598131
0.016598345
0.016598873
0.016599894
0.016598412
0.016598041
0.016611908
0.016878417
0.016865049
0.016863299
0.016865185
0.016864068
0.016863328
0.016862978
0.016862864
0.016862837
0.016862842
0.016862842
0.016862837
0.016862864
0.016862978
0.016863328
0.016864068
0.016865185
0.016863299
0.016865049
0.016878417
0.017133414
0.017126185
0.017121935
0.017124039
0.017123376
0.017122652
0.017122092
0.017121857
0.017121766
0.017121743
0.017121743
0.017121766
0.017121857
0.017122092
0.017122652
0.017123376
0.017124039
0.017121935
0.017126185
0.017133413
0.017357888
0.017365051
0.017358656
0.017360745
0.01736154
0.017361445
0.017360582
0.017360168
0.017359978
0.017359912
0.017359912
0.017359978
0.017360167
0.017360582
0.017361445
0.01736154
0.017360745
0.017358656
0.017365051
0.017357887
0.017529386
0.017561429
0.017554977
0.017556731
0.017560466
0.017561803
0.017560528
0.017559861
0.01755956
0.017559428
0.017559428
0.01755956
0.017559861
0.017560527
0.017561803
0.017560466
0.017556731
0.017554976
0.017561428
0.017529385
0.017621727
0.017690677
0.017688806
0.017689689
0.017698141
0.01770154
0.017699729
0.01769871
0.017698642
0.017698393
0.017698393
0.017698642
0.017698709
0.017699728
0.01770154
0.017698141
0.017689689
0.017688805
0.017690677
0.017621726
0.017605353
0.017724803
0.017734441
0.017734583
0.017749383
0.017755023
0.017752535
0.017751031
0.017751851
0.017751469
0.017751469
0.01775185
0.017751031
0.017752534
0.017755022
0.017749381
0.017734582
0.01773444
0.017724802
0.017605351
0.017456594
0.017641104
0.017670463
0.017672026
0.01769411
0.017701582
0.017697991
0.017695463
0.017697933
0.017698282
0.017698282
0.017697933
0.017695462
0.01769799
0.01770158
0.017694108
0.017672024
0.017670461
0.017641102
0.017456591
0.017204666
0.01746949
0.017528231
0.017536322
0.01756583
0.017573805
0.017567709
0.01756384
0.017568528
0.017571449
0.017571448
0.017568527
0.017563838
0.017567708
0.017573803
0.017565828
0.01753632
0.017528229
0.017469488
0.017204662
0.016768583
0.017130501
0.017228555
0.017249266
0.017287252
0.017293624
0.01728407
0.017278971
0.017285809
0.017293032
0.017293032
0.017285808
0.017278969
0.017284068
0.017293622
0.01728725
0.017249264
0.017228552
0.017130497
0.016768579
0.016105715
0.016580172
0.016728285
0.016767089
0.016816891
0.016820568
0.016808092
0.016801963
0.016809741
0.016821835
0.016821835
0.01680974
0.016801961
0.01680809
0.016820565
0.016816888
0.016767086
0.016728282
0.016580168
0.016105711
0.015165769
0.015767675
0.015977947
0.016038947
0.016104928
0.01610725
0.016093846
0.016086907
0.016095611
0.0161118
0.0161118
0.01609561
0.016086905
0.016093843
0.016107248
0.016104925
0.016038944
0.015977943
0.015767671
0.015165766
0.013888299
0.014629591
0.014915527
0.015004532
0.01509081
0.015097539
0.015085683
0.015078254
0.015089611
0.015108243
0.015108242
0.01508961
0.015078252
0.015085681
0.015097537
0.015090807
0.015004528
0.014915524
0.014629588
0.013888298
0.012205509
0.013087625
0.013465968
0.013592707
0.013703743
0.01371949
0.013711208
0.013703838
0.013722919
0.013742131
0.013742131
0.013722919
0.013703836
0.013711206
0.013719488
0.01370374
0.013592704
0.013465965
0.013087624
0.012205511
0.010069105
0.011074006
0.011547321
0.011720368
0.011859483
0.011893609
0.011890761
0.011884352
0.011910569
0.011928758
0.011928757
0.011910569
0.011884351
0.011890759
0.011893607
0.011859481
0.011720365
0.011547319
0.011074007
0.010069111
0.0075609589
0.0086015265
0.0091383688
0.0093672502
0.0095208972
0.0095713696
0.009597728
0.0095931338
0.009620819
0.0096365228
0.0096365226
0.0096208186
0.0095931331
0.0095977273
0.0095713687
0.0095208961
0.009367249
0.0091383686
0.008601529
0.0075609664
0.0052031404
0.0060650367
0.0065593822
0.0067789114
0.0069100223
0.0070148719
0.0070423115
0.0070388355
0.0070610299
0.0070725534
0.0070725533
0.0070610298
0.0070388352
0.0070423114
0.0070148717
0.0069100219
0.006778911
0.006559383
0.0060650412
0.0052031507
0.0032593619
0.0040263952
0.0045109795
0.0047427503
0.0048702958
0.0049233473
0.0049409104
0.0049364232
0.0049509291
0.0049578324
0.0049578325
0.0049509294
0.0049364238
0.0049409115
0.0049233486
0.0048702965
0.0047427512
0.0045109821
0.0040264014
0.0032593744
0.0017151255
0.0025094388
0.0029943086
0.0032396773
0.003364103
0.0034071506
0.0034147158
0.0034057711
0.0034102738
0.0034118214
0.0034118215
0.003410274
0.0034057714
0.0034147164
0.0034071513
0.003364104
0.0032396781
0.0029943103
0.0025094443
0.0017151364
0.0006967504
0.0014639091
0.0019372705
0.0021958934
0.0023218226
0.0023609797
0.0023583618
0.0023413627
0.0023346671
0.0023303225
0.0023303226
0.0023346674
0.0023413632
0.0023583627
0.0023609807
0.0023218237
0.0021958945
0.0019372722
0.0014639131
0.00069675721
0.00021272643
0.00079912084
0.0012210094
0.0014719181
0.0015960966
0.0016340558
0.0016275188
0.0016060668
0.0015919941
0.0015835611
0.0015835612
0.0015919944
0.0016060673
0.0016275195
0.0016340566
0.0015960974
0.0014719189
0.0012210106
0.00079912353
0.0002127296
4.9650197e-05
0.00040931718
0.00075116632
0.00097532576
0.0010915981
0.0011290432
0.0011231437
0.0011018086
0.0010850335
0.0010749585
0.0010749585
0.0010850337
0.0011018089
0.0011231441
0.0011290437
0.0010915984
0.00097532614
0.00075116686
0.00040931847
4.9651225e-05
9.449697e-06
0.00019774317
0.0004509713
0.00063727993
0.00073991143
0.00077571879
0.00077249889
0.00075433243
0.00073835786
0.00072862398
0.00072862399
0.00073835791
0.00075433254
0.00077249912
0.00077571901
0.0007399115
0.00063728003
0.00045097158
0.00019774385
9.4499393e-06
1.5620369e-06
9.029071e-05
0.00026390413
0.00040948706
0.00049523493
0.00052776561
0.00052738867
0.00051353031
0.00050019815
0.00049191808
0.00049191807
0.00050019813
0.0005135303
0.00052738872
0.00052776565
0.00049523486
0.00040948703
0.0002639043
9.0291076e-05
1.5620827e-06
2.3545051e-07
3.9195886e-05
0.00015040635
0.00025822289
0.00032641602
0.00035443948
0.00035618645
0.00034651001
0.00033634992
0.00032990801
0.00032990798
0.00033634985
0.00034650992
0.0003561864
0.00035443942
0.00032641591
0.00025822282
0.00015040645
3.9196072e-05
2.3545795e-07
3.3542107e-08
1.6297382e-05
8.3459279e-05
0.00015956689
0.00021144452
0.00023442259
0.00023736914
0.0002311338
0.00022391449
0.00021923126
0.00021923122
0.0002239144
0.00023113368
0.00023736904
0.00023442249
0.0002114444
0.00015956683
8.3459338e-05
1.629747e-05
3.3543214e-08
4.623336e-09
6.5352935e-06
4.5095537e-05
9.6521043e-05
0.00013442082
0.00015243572
0.00015579002
0.00015208632
0.00014724738
0.00014402478
0.00014402474
0.00014724729
0.00015208621
0.00015578992
0.00015243562
0.00013442073
9.6520995e-05
4.5095573e-05
6.5353321e-06
4.6234912e-09
6.2507725e-10
2.5408831e-06
2.3738503e-05
5.7114342e-05
8.3784156e-05
9.7340777e-05
0.000100557
9.8556025e-05
9.5476347e-05
9.3360126e-05
9.3360093e-05
9.5476271e-05
9.8555925e-05
0.00010055691
9.7340699e-05
8.3784093e-05
5.7114316e-05
2.3738526e-05
2.5408992e-06
6.2509807e-10
8.348036e-11
9.6133178e-07
1.2182089e-05
3.3049756e-05
5.1170228e-05
6.0993163e-05
6.3768808e-05
6.282114e-05
6.0953907e-05
5.962077e-05
5.9620744e-05
6.0953845e-05
6.2821059e-05
6.3768735e-05
6.0993104e-05
5.117019e-05
3.3049745e-05
1.2182104e-05
9.6133826e-07
8.3483068e-11
1.1052471e-11
3.5479678e-07
6.0988156e-06
1.8700517e-05
3.0611509e-05
3.7482455e-05
3.9703468e-05
3.9351882e-05
3.8272629e-05
3.7464231e-05
3.7464212e-05
3.8272582e-05
3.9351821e-05
3.9703414e-05
3.7482415e-05
3.0611488e-05
1.8700515e-05
6.0988259e-06
3.5479933e-07
1.1052814e-11
1.4638451e-12
1.2792862e-07
2.9806758e-06
1.0347522e-05
1.7934991e-05
2.2584459e-05
2.4259165e-05
2.4209449e-05
2.3615927e-05
2.3143109e-05
2.3143095e-05
2.3615893e-05
2.4209406e-05
2.4259128e-05
2.2584433e-05
1.7934981e-05
1.0347525e-05
2.9806823e-06
1.279296e-07
1.4638456e-12
2.0930149e-13
4.5107274e-08
1.4229366e-06
5.6000946e-06
1.0291124e-05
1.3340357e-05
1.4542261e-05
1.462106e-05
1.4312158e-05
1.4045173e-05
1.4045163e-05
1.4312134e-05
1.462103e-05
1.4542236e-05
1.3340342e-05
1.029112e-05
5.6000983e-06
1.4229406e-06
4.5107644e-08
2.0926293e-13
4.1038588e-14
1.5561952e-08
6.6385192e-07
2.9649997e-06
5.7835821e-06
7.7247694e-06
8.5513904e-06
8.6663763e-06
8.5159308e-06
8.3704163e-06
8.3704098e-06
8.5159151e-06
8.6663565e-06
8.5513741e-06
7.7247603e-06
5.7835811e-06
2.965003e-06
6.6385424e-07
1.5562089e-08
4.1014998e-14
)
;

boundaryField
{
    Wall
    {
        type            zeroGradient;
    }
    frontAndBack
    {
        type            empty;
    }
    atmosphere
    {
        type            zeroGradient;
    }
}


// ************************************************************************* //
