/*--------------------------------*- C++ -*----------------------------------*\
| =========                 |                                                 |
| \\      /  F ield         | OpenFOAM: The Open Source CFD Toolbox           |
|  \\    /   O peration     | Version:  3.0.1                                 |
|   \\  /    A nd           | Web:      www.OpenFOAM.org                      |
|    \\/     M anipulation  |                                                 |
\*---------------------------------------------------------------------------*/
FoamFile
{
    version     2.0;
    format      ascii;
    class       volScalarField;
    location    "29";
    object      wCO2_l;
}
// * * * * * * * * * * * * * * * * * * * * * * * * * * * * * * * * * * * * * //

dimensions      [0 0 0 0 0 0 0];

internalField   nonuniform List<scalar> 
800
(
0.0036774111
0.0036776766
0.0036777354
0.003677744
0.0036777451
0.0036777458
0.0036777468
0.0036777479
0.0036777487
0.0036777491
0.0036777491
0.0036777487
0.0036777479
0.0036777468
0.0036777458
0.0036777451
0.003677744
0.0036777354
0.0036776766
0.0036774111
0.0036556257
0.0036574712
0.003658321
0.0036586198
0.003658693
0.0036586803
0.0036586445
0.0036586109
0.0036585877
0.003658576
0.003658576
0.0036585876
0.0036586109
0.0036586444
0.0036586802
0.0036586929
0.0036586196
0.0036583208
0.0036574709
0.0036556251
0.0037095358
0.0037104613
0.0037108472
0.0037112175
0.0037113333
0.0037113364
0.0037113027
0.0037112656
0.0037112381
0.0037112238
0.0037112238
0.0037112381
0.0037112656
0.0037113026
0.0037113364
0.0037113332
0.0037112174
0.003710847
0.003710461
0.0037095352
0.0038385381
0.003836034
0.0038353038
0.0038355919
0.0038357031
0.0038357269
0.0038357129
0.0038356888
0.0038356688
0.0038356575
0.0038356575
0.0038356688
0.0038356889
0.003835713
0.003835727
0.0038357032
0.003835592
0.0038353038
0.003836034
0.0038385379
0.0040478944
0.0040387801
0.004036513
0.0040362448
0.0040363078
0.0040363535
0.0040363701
0.0040363694
0.0040363646
0.0040363601
0.0040363602
0.0040363647
0.0040363696
0.0040363704
0.0040363538
0.0040363081
0.0040362452
0.0040365133
0.0040387804
0.0040478947
0.0043472132
0.0043273414
0.0043231845
0.0043218056
0.0043217876
0.0043218582
0.004321916
0.0043219469
0.0043219629
0.0043219678
0.0043219679
0.0043219632
0.0043219473
0.0043219165
0.0043218588
0.0043217883
0.0043218064
0.0043231853
0.0043273422
0.0043472142
0.0047498237
0.0047138442
0.0047072468
0.0047043338
0.0047042334
0.0047043435
0.004704457
0.0047045281
0.0047045701
0.0047045859
0.0047045861
0.0047045705
0.0047045287
0.0047044579
0.0047043445
0.0047042346
0.0047043351
0.0047072482
0.0047138456
0.0047498253
0.005270612
0.0052126359
0.0052022568
0.0051976197
0.0051975152
0.0051977047
0.0051978965
0.0051980171
0.0051980906
0.0051981188
0.005198119
0.0051980911
0.005198018
0.0051978977
0.0051977062
0.0051975169
0.0051976216
0.0052022588
0.005212638
0.0052706144
0.005925032
0.0058390889
0.0058226085
0.0058163262
0.0058160538
0.0058164154
0.0058167136
0.0058168928
0.0058170045
0.0058170463
0.0058170465
0.0058170053
0.005816894
0.0058167153
0.0058164174
0.0058160562
0.0058163288
0.0058226112
0.0058390917
0.0059250351
0.0067287293
0.006608717
0.0065832751
0.0065757277
0.0065748127
0.0065751112
0.0065755358
0.00657578
0.0065759404
0.0065759976
0.0065759979
0.0065759413
0.0065757815
0.0065755379
0.0065751138
0.0065748157
0.0065757309
0.0065832785
0.0066087206
0.0067287331
0.0076961597
0.0075360837
0.0074985708
0.0074904742
0.0074879936
0.0074874906
0.0074880534
0.0074883688
0.0074886015
0.0074886799
0.0074886803
0.0074886026
0.0074883706
0.007488056
0.0074874937
0.0074879972
0.0074904782
0.007498575
0.007536088
0.0076961643
0.0088387813
0.008632887
0.0085808487
0.0085733433
0.0085667738
0.0085645043
0.0085652295
0.008565624
0.0085660237
0.008566135
0.0085661354
0.008566025
0.0085656261
0.0085652324
0.008564508
0.008566778
0.008573348
0.0085808536
0.0086328922
0.008838787
0.010162784
0.0099055315
0.0098388785
0.0098326358
0.009817898
0.0098131635
0.0098141252
0.0098146077
0.0098147011
0.009814867
0.0098148675
0.0098147024
0.00981461
0.0098141284
0.0098131675
0.0098179027
0.0098326412
0.0098388843
0.0099055377
0.010162791
0.011667467
0.011355949
0.011276878
0.011271106
0.011244646
0.011237418
0.011238759
0.011239353
0.011236167
0.011236544
0.011236544
0.011236168
0.011239355
0.011238763
0.011237422
0.011244651
0.011271111
0.011276885
0.011355956
0.011667475
0.01331938
0.012959805
0.012870572
0.012863723
0.012825146
0.012816277
0.0128185
0.012819913
0.012808642
0.012808357
0.012808358
0.012808644
0.012819916
0.012818503
0.012816281
0.012825151
0.012863729
0.012870579
0.012959813
0.013319388
0.015010943
0.014621747
0.014522091
0.014513102
0.014466329
0.014457887
0.014458471
0.014461292
0.01443896
0.01443604
0.01443604
0.014438961
0.014461294
0.014458473
0.014457891
0.014466334
0.014513108
0.014522098
0.014621754
0.01501095
0.016723349
0.016334561
0.016224205
0.016214962
0.016165408
0.016154147
0.016149009
0.016153718
0.016122503
0.016115216
0.016115216
0.016122504
0.01615372
0.016149012
0.016154151
0.016165412
0.016214967
0.016224211
0.016334567
0.016723355
0.018380272
0.018021196
0.01790421
0.017900241
0.017852037
0.017834686
0.017824597
0.017831927
0.017788908
0.017777043
0.017777044
0.017788908
0.017831928
0.017824599
0.017834689
0.01785204
0.017900245
0.017904215
0.018021201
0.018380276
0.019849033
0.019569338
0.01945919
0.019468736
0.019407796
0.019389769
0.019382341
0.019393174
0.019341696
0.019326769
0.019326769
0.019341696
0.019393174
0.019382342
0.019389771
0.019407798
0.019468739
0.019459193
0.019569341
0.019849037
0.020923516
0.020806671
0.020732919
0.020762835
0.02066683
0.020658345
0.020663587
0.020678491
0.020636366
0.020620871
0.020620871
0.020636366
0.020678491
0.020663587
0.020658346
0.020666831
0.020762836
0.020732921
0.020806673
0.020923519
0.021337274
0.021490346
0.021501549
0.021513654
0.02143059
0.021442922
0.021466752
0.021485272
0.021469343
0.021455623
0.021455623
0.021469343
0.021485272
0.021466752
0.021442923
0.02143059
0.021513655
0.02150155
0.021490348
0.021337279
0.020670045
0.021193907
0.021382855
0.021445669
0.021434726
0.021416687
0.02145682
0.021476787
0.021492987
0.021482208
0.021482208
0.021492987
0.021476787
0.02145682
0.021416686
0.021434726
0.021445669
0.021382855
0.021193911
0.020670055
0.017839086
0.019187413
0.019737274
0.019914385
0.019989221
0.020059165
0.02009354
0.020111702
0.020149917
0.020141909
0.020141909
0.020149917
0.020111702
0.02009354
0.020059164
0.019989221
0.019914384
0.019737276
0.019187418
0.0178391
0.012867522
0.014480781
0.015342035
0.015726622
0.015876872
0.016242233
0.016336977
0.01634444
0.016380463
0.016372343
0.016372343
0.016380463
0.01634444
0.016336977
0.016242234
0.015876872
0.015726622
0.015342038
0.014480791
0.012867546
0.0084168107
0.010175788
0.01128454
0.011851797
0.012108195
0.012256279
0.012324017
0.012317629
0.012339807
0.012329535
0.012329535
0.012339808
0.012317631
0.01232402
0.012256282
0.012108197
0.0118518
0.011284547
0.010175804
0.0084168419
0.0046128196
0.0066771881
0.0079620313
0.0086650967
0.009006988
0.0091434143
0.0091825468
0.0091591431
0.0091588527
0.0091424245
0.0091424247
0.0091588534
0.0091591442
0.0091825487
0.0091434163
0.0090069906
0.0086650992
0.0079620364
0.0066772029
0.0046128485
0.0019470564
0.0040996121
0.0054614013
0.0062612925
0.0066658152
0.0068138336
0.0068269849
0.0067801819
0.0067517199
0.0067248025
0.0067248027
0.0067517207
0.0067801833
0.0068269872
0.0068138363
0.0066658181
0.0062612959
0.0054614064
0.0040996233
0.0019470752
0.0006164333
0.002363276
0.0036514382
0.0044668606
0.0048971565
0.0050538703
0.0050563175
0.0049949693
0.0049458818
0.0049104179
0.0049104181
0.0049458824
0.0049949704
0.0050563193
0.0050538724
0.0048971585
0.0044668631
0.0036514419
0.0023632839
0.00061644242
0.00014909188
0.0012839652
0.0023872629
0.0031487936
0.003570567
0.0037296587
0.0037319265
0.0036680705
0.0036099823
0.0035709496
0.0035709496
0.0036099825
0.003668071
0.0037319276
0.0037296598
0.0035705678
0.0031487947
0.0023872646
0.0012839691
0.00014909495
2.9419612e-05
0.00066011386
0.0015259663
0.0021887893
0.0025756935
0.0027294067
0.0027365229
0.0026793626
0.0026223559
0.0025847889
0.0025847888
0.0026223558
0.0026793626
0.0027365233
0.002729407
0.0025756935
0.0021887895
0.0015259671
0.00066011599
2.942036e-05
5.0508345e-06
0.00032144549
0.00095201236
0.0014961579
0.0018323463
0.0019736751
0.0019864831
0.0019405846
0.0018909517
0.0018582028
0.0018582026
0.0018909513
0.0019405842
0.0019864829
0.0019736749
0.0018323459
0.0014961576
0.00095201286
0.00032144669
5.050981e-06
7.9308016e-07
0.00014900178
0.00057877947
0.0010034052
0.001282282
0.0014064151
0.0014235396
0.0013898556
0.0013502098
0.0013237806
0.0013237804
0.0013502093
0.001389855
0.0014235391
0.0014064146
0.0012822814
0.0010034049
0.00057877975
0.00014900244
7.9310489e-07
1.1814234e-07
6.6203301e-05
0.0003425844
0.00065911311
0.0008810896
0.00098567957
0.0010049686
0.00098224667
0.0009526669
0.00093262161
0.00093262136
0.00095266634
0.00098224596
0.001004968
0.00098567903
0.00088108905
0.00065911278
0.00034258457
6.6203629e-05
1.1814617e-07
1.7102015e-08
2.8383683e-05
0.00019738911
0.0004235739
0.00059369662
0.00067851299
0.00069789546
0.00068387055
0.00066304303
0.00064861145
0.0006486112
0.00066304249
0.00068386986
0.00069789484
0.00067851247
0.00059369618
0.00042357366
0.00019738923
2.8383837e-05
1.7102576e-08
2.4396644e-09
1.1804459e-05
0.00011075254
0.00026614477
0.00039199376
0.00045835526
0.00047625147
0.00046848937
0.00045456849
0.00044463826
0.00044463805
0.00045456802
0.00046848876
0.00047625093
0.00045835483
0.00039199343
0.00026614463
0.00011075263
1.1804528e-05
2.4397433e-09
3.454884e-10
4.7800664e-06
6.0559598e-05
0.00016347223
0.00025350845
0.00030370192
0.00031915416
0.00031551417
0.00030665597
0.00030009582
0.00030009565
0.00030665557
0.00031551367
0.00031915372
0.00030370158
0.00025350824
0.00016347217
6.0559664e-05
4.7800964e-06
3.4549921e-10
4.8794057e-11
1.8893865e-06
3.2299269e-05
9.8164452e-05
0.00016056632
0.00019732796
0.00020994654
0.00020877233
0.00020340444
0.00019923082
0.00019923069
0.00020340413
0.00020877193
0.0002099462
0.00019732772
0.0001605662
9.8164439e-05
3.2299319e-05
1.8893993e-06
4.8795515e-11
7.0181211e-12
7.301468e-07
1.6817536e-05
5.7646892e-05
9.9608875e-05
0.000125719
0.00013554132
0.00013567437
0.00013258435
0.00013002247
0.00013002237
0.00013258412
0.00013567408
0.00013554107
0.00012571884
9.9608809e-05
5.7646905e-05
1.6817571e-05
7.3015212e-07
7.0179641e-12
1.1961253e-12
2.7615012e-07
8.5553358e-06
3.3119025e-05
6.0535164e-05
7.8544324e-05
8.5874174e-05
8.6577143e-05
8.4898115e-05
8.3379633e-05
8.3379559e-05
8.4897946e-05
8.6576928e-05
8.5873997e-05
7.8544216e-05
6.0535132e-05
3.3119045e-05
8.5553588e-06
2.761523e-07
1.1957889e-12
3.2539747e-13
1.0228274e-07
4.2551121e-06
1.8622361e-05
3.6048632e-05
4.8127239e-05
5.3394732e-05
5.4244833e-05
5.3395222e-05
5.2526449e-05
5.2526397e-05
5.3395103e-05
5.4244682e-05
5.3394609e-05
4.8127169e-05
3.6048618e-05
1.8622381e-05
4.2551263e-06
1.0228362e-07
3.2521577e-13
)
;

boundaryField
{
    Wall
    {
        type            zeroGradient;
    }
    frontAndBack
    {
        type            empty;
    }
    atmosphere
    {
        type            zeroGradient;
    }
}


// ************************************************************************* //
