/*--------------------------------*- C++ -*----------------------------------*\
| =========                 |                                                 |
| \\      /  F ield         | OpenFOAM: The Open Source CFD Toolbox           |
|  \\    /   O peration     | Version:  3.0.1                                 |
|   \\  /    A nd           | Web:      www.OpenFOAM.org                      |
|    \\/     M anipulation  |                                                 |
\*---------------------------------------------------------------------------*/
FoamFile
{
    version     2.0;
    format      ascii;
    class       volScalarField;
    location    "29";
    object      weight0;
}
// * * * * * * * * * * * * * * * * * * * * * * * * * * * * * * * * * * * * * //

dimensions      [0 0 0 0 0 0 0];

internalField   nonuniform List<scalar> 
800
(
9.6248594e+09
9.6253355e+09
9.6254783e+09
9.6255137e+09
9.6255287e+09
9.62554e+09
9.6255496e+09
9.6255571e+09
9.6255623e+09
9.6255649e+09
9.6255649e+09
9.6255623e+09
9.6255571e+09
9.6255495e+09
9.62554e+09
9.6255287e+09
9.6255137e+09
9.6254783e+09
9.6253356e+09
9.6248594e+09
7.9357686e+09
8.0836917e+09
8.1081585e+09
8.1120787e+09
8.1122439e+09
8.1122698e+09
8.1126025e+09
8.1130778e+09
8.113491e+09
8.1137232e+09
8.113723e+09
8.1134909e+09
8.1130775e+09
8.1126019e+09
8.112269e+09
8.112243e+09
8.1120777e+09
8.1081572e+09
8.0836902e+09
7.9357653e+09
7.4668462e+09
7.6259266e+09
7.6732074e+09
7.6806959e+09
7.6827996e+09
7.6840998e+09
7.6853275e+09
7.6864159e+09
7.687214e+09
7.6876336e+09
7.6876334e+09
7.6872137e+09
7.6864156e+09
7.6853269e+09
7.6840989e+09
7.6827988e+09
7.6806951e+09
7.6732065e+09
7.6259254e+09
7.4668434e+09
7.2542314e+09
7.4118156e+09
7.4687323e+09
7.4784372e+09
7.4820786e+09
7.4842228e+09
7.4858472e+09
7.4871004e+09
7.4879593e+09
7.4883977e+09
7.4883974e+09
7.4879588e+09
7.4870996e+09
7.4858461e+09
7.4842212e+09
7.4820769e+09
7.4784354e+09
7.4687302e+09
7.411813e+09
7.2542268e+09
6.188333e+09
6.4107012e+09
6.4779374e+09
6.4894332e+09
6.4950275e+09
6.4976314e+09
6.4990786e+09
6.4999932e+09
6.5005643e+09
6.5008459e+09
6.5008453e+09
6.5005629e+09
6.4999909e+09
6.4990754e+09
6.4976272e+09
6.4950225e+09
6.4894274e+09
6.4779308e+09
6.4106935e+09
6.1883215e+09
3.1728068e+09
3.6126247e+09
3.7092581e+09
3.7189269e+09
3.7286795e+09
3.7323295e+09
3.7335808e+09
3.7340247e+09
3.7341957e+09
3.7342618e+09
3.7342606e+09
3.7341925e+09
3.7340192e+09
3.7335731e+09
3.7323196e+09
3.7286679e+09
3.7189135e+09
3.7092432e+09
3.612608e+09
3.1727834e+09
19568577
8071828.3
6501097.1
6489878.4
6329272.6
6269625.9
6252033.8
6247772.8
6247453.7
6247610.3
6247628.8
6247509.8
6247864.7
6252161
6269787.3
6329461.9
6490093.9
6501327.2
8072112.4
19569233
1.1838223e+09
9.0658747e+08
8.5279291e+08
8.569832e+08
8.511697e+08
8.4858815e+08
8.4760386e+08
8.472027e+08
8.4705559e+08
8.4699061e+08
8.4699123e+08
8.4705749e+08
8.4720583e+08
8.4760814e+08
8.4859345e+08
8.5117574e+08
8.5698984e+08
8.5279965e+08
9.0659458e+08
1.1838324e+09
7.5339681e+09
6.5423031e+09
6.2819582e+09
6.3154375e+09
6.3110324e+09
6.2959497e+09
6.2876685e+09
6.2830438e+09
6.2807286e+09
6.2795811e+09
6.2795834e+09
6.2807356e+09
6.2830553e+09
6.2876838e+09
6.2959685e+09
6.3110524e+09
6.3154593e+09
6.2819789e+09
6.5423232e+09
7.5339931e+09
2.2341646e+10
2.0824513e+10
2.0162399e+10
2.0261966e+10
2.0353767e+10
2.0353233e+10
2.0319149e+10
2.0298161e+10
2.0286956e+10
2.0281266e+10
2.0281269e+10
2.0286967e+10
2.029818e+10
2.0319174e+10
2.0353263e+10
2.0353796e+10
2.0261998e+10
2.0162427e+10
2.0824539e+10
2.2341678e+10
4.4283949e+10
4.3290512e+10
4.2229747e+10
4.2424628e+10
4.2805434e+10
4.2929206e+10
4.2838878e+10
4.278169e+10
4.2751026e+10
4.2735164e+10
4.2735167e+10
4.2751038e+10
4.2781711e+10
4.2838905e+10
4.2929237e+10
4.2805465e+10
4.2424664e+10
4.2229775e+10
4.3290539e+10
4.4283994e+10
7.0457683e+10
7.0887509e+10
6.9888266e+10
7.0226529e+10
7.104569e+10
7.1354893e+10
7.1172503e+10
7.1055084e+10
7.0993525e+10
7.0960609e+10
7.0960612e+10
7.0993538e+10
7.1055105e+10
7.1172536e+10
7.135493e+10
7.1045731e+10
7.0226584e+10
6.9888308e+10
7.0887559e+10
7.0457775e+10
1.0050531e+11
1.024735e+11
1.0235674e+11
1.0291044e+11
1.0411324e+11
1.0450933e+11
1.0419565e+11
1.0398573e+11
1.0395733e+11
1.038956e+11
1.038956e+11
1.0395735e+11
1.0398575e+11
1.041957e+11
1.045094e+11
1.0411332e+11
1.0291055e+11
1.0235683e+11
1.0247361e+11
1.0050549e+11
1.3686413e+11
1.4007609e+11
1.4164687e+11
1.4273091e+11
1.4408006e+11
1.4437499e+11
1.4388324e+11
1.4353929e+11
1.4352092e+11
1.4341794e+11
1.4341794e+11
1.4352095e+11
1.4353933e+11
1.4388333e+11
1.4437511e+11
1.4408021e+11
1.4273111e+11
1.4164705e+11
1.4007629e+11
1.3686443e+11
1.7713936e+11
1.8169246e+11
1.8540992e+11
1.8732056e+11
1.8860647e+11
1.886748e+11
1.8795619e+11
1.8758676e+11
1.8744047e+11
1.8735281e+11
1.8735281e+11
1.8744051e+11
1.8758681e+11
1.8795632e+11
1.8867497e+11
1.8860669e+11
1.8732086e+11
1.8541018e+11
1.8169278e+11
1.771398e+11
2.1112647e+11
2.1740396e+11
2.2331013e+11
2.263558e+11
2.2758694e+11
2.2744553e+11
2.2645262e+11
2.2602638e+11
2.2564926e+11
2.2555946e+11
2.2555946e+11
2.256493e+11
2.2602643e+11
2.2645277e+11
2.2744574e+11
2.2758721e+11
2.2635616e+11
2.2331045e+11
2.1740435e+11
2.1112699e+11
2.5556251e+11
2.6259474e+11
2.7101246e+11
2.7605775e+11
2.7738835e+11
2.7700358e+11
2.7560495e+11
2.7475161e+11
2.7390181e+11
2.7360983e+11
2.7360983e+11
2.7390185e+11
2.7475166e+11
2.7560513e+11
2.7700383e+11
2.7738867e+11
2.7605819e+11
2.7101286e+11
2.6259522e+11
2.5556315e+11
3.2960619e+11
3.3555271e+11
3.4757002e+11
3.5616408e+11
3.578262e+11
3.5720145e+11
3.5513534e+11
3.5347651e+11
3.5162026e+11
3.5078051e+11
3.507805e+11
3.516203e+11
3.5347656e+11
3.5513554e+11
3.5720177e+11
3.5782662e+11
3.5616465e+11
3.4757054e+11
3.3555333e+11
3.2960697e+11
4.5677206e+11
4.6055739e+11
4.7889668e+11
4.9397872e+11
4.9607058e+11
4.9519486e+11
4.9196274e+11
4.892488e+11
4.8556712e+11
4.8389678e+11
4.8389676e+11
4.8556714e+11
4.8924882e+11
4.9196298e+11
4.9519526e+11
4.9607112e+11
4.9397943e+11
4.7889736e+11
4.6055818e+11
4.5677299e+11
6.4645691e+11
6.5212207e+11
6.8142061e+11
7.0635166e+11
7.0933384e+11
7.0799107e+11
7.0320515e+11
6.99491e+11
6.9333441e+11
6.9085212e+11
6.9085207e+11
6.933344e+11
6.9949098e+11
7.0320541e+11
7.0799153e+11
7.0933448e+11
7.0635249e+11
6.814214e+11
6.5212301e+11
6.4645797e+11
8.6344596e+11
8.832615e+11
9.2838644e+11
9.6469691e+11
9.7018489e+11
9.6876581e+11
9.6274404e+11
9.5835741e+11
9.4980376e+11
9.4677387e+11
9.467738e+11
9.4980372e+11
9.5835733e+11
9.6274426e+11
9.6876626e+11
9.7018553e+11
9.6469776e+11
9.2838725e+11
8.8326251e+11
8.6344716e+11
1.0416838e+12
1.091856e+12
1.1602501e+12
1.211115e+12
1.2222483e+12
1.221834e+12
1.2152653e+12
1.2102009e+12
1.2001918e+12
1.1968211e+12
1.196821e+12
1.2001917e+12
1.2102008e+12
1.2152655e+12
1.2218344e+12
1.2222488e+12
1.2111157e+12
1.1602509e+12
1.0918571e+12
1.0416853e+12
1.1284778e+12
1.22711e+12
1.3329819e+12
1.408008e+12
1.433619e+12
1.4364295e+12
1.4291403e+12
1.422852e+12
1.4119741e+12
1.4082282e+12
1.408228e+12
1.411974e+12
1.4228518e+12
1.4291403e+12
1.4364298e+12
1.4336194e+12
1.4080086e+12
1.3329826e+12
1.2271113e+12
1.1284798e+12
0
0
0
0
0
1.5943694e+12
1.5882831e+12
1.5800177e+12
1.5680417e+12
1.5633963e+12
1.5633961e+12
1.5680415e+12
1.5800174e+12
1.588283e+12
1.5943695e+12
0
0
0
0
0
0
0
0
0
0
0
0
0
0
0
0
0
0
0
0
0
0
0
0
0
0
0
0
0
0
0
0
0
0
0
0
0
0
0
0
0
0
0
0
0
0
0
0
0
0
0
0
0
0
0
0
0
0
0
0
0
0
0
0
0
0
0
0
0
0
0
0
0
0
0
0
0
0
0
0
0
0
0
0
0
0
0
0
0
0
0
0
0
0
0
0
0
0
0
0
0
0
0
0
0
0
0
0
0
0
0
0
0
0
0
0
0
0
0
0
0
0
0
0
0
0
0
0
0
0
0
0
0
0
0
0
0
0
0
0
0
0
0
0
0
0
0
0
0
0
0
0
0
0
0
0
0
0
0
0
0
0
0
0
0
0
0
0
0
0
0
0
0
0
0
0
0
0
0
0
0
0
0
0
0
0
0
0
0
0
0
0
0
0
0
0
0
0
0
0
0
0
0
0
0
0
0
0
0
0
0
0
0
0
0
0
0
0
0
0
0
0
0
0
0
0
0
0
0
0
0
0
0
0
0
0
0
0
0
0
0
0
0
0
0
0
0
0
0
0
0
0
0
0
0
0
0
0
0
0
0
0
0
0
0
0
0
0
0
0
0
0
0
0
0
0
0
0
0
0
0
0
0
0
0
0
0
0
0
0
0
0
0
0
0
0
0
0
0
0
0
0
0
0
0
0
0
0
0
0
0
0
0
0
0
0
0
0
0
0
0
0
0
0
0
)
;

boundaryField
{
    Wall
    {
        type            zeroGradient;
    }
    frontAndBack
    {
        type            empty;
    }
    atmosphere
    {
        type            zeroGradient;
    }
}


// ************************************************************************* //
