/*--------------------------------*- C++ -*----------------------------------*\
| =========                 |                                                 |
| \\      /  F ield         | OpenFOAM: The Open Source CFD Toolbox           |
|  \\    /   O peration     | Version:  3.0.1                                 |
|   \\  /    A nd           | Web:      www.OpenFOAM.org                      |
|    \\/     M anipulation  |                                                 |
\*---------------------------------------------------------------------------*/
FoamFile
{
    version     2.0;
    format      ascii;
    class       volScalarField;
    location    "29";
    object      weight1;
}
// * * * * * * * * * * * * * * * * * * * * * * * * * * * * * * * * * * * * * //

dimensions      [0 0 0 0 0 0 0];

internalField   nonuniform List<scalar> 
800
(
9.9903751e+12
9.9903747e+12
9.9903745e+12
9.9903745e+12
9.9903745e+12
9.9903745e+12
9.9903745e+12
9.9903744e+12
9.9903744e+12
9.9903744e+12
9.9903744e+12
9.9903744e+12
9.9903744e+12
9.9903745e+12
9.9903745e+12
9.9903745e+12
9.9903745e+12
9.9903745e+12
9.9903747e+12
9.9903751e+12
9.9920642e+12
9.9919163e+12
9.9918918e+12
9.9918879e+12
9.9918878e+12
9.9918877e+12
9.9918874e+12
9.9918869e+12
9.9918865e+12
9.9918863e+12
9.9918863e+12
9.9918865e+12
9.9918869e+12
9.9918874e+12
9.9918877e+12
9.9918878e+12
9.9918879e+12
9.9918918e+12
9.9919163e+12
9.9920642e+12
9.911705e+12
9.9136783e+12
9.9145041e+12
9.9147621e+12
9.9148124e+12
9.9147984e+12
9.9147712e+12
9.914748e+12
9.9147327e+12
9.9147255e+12
9.9147254e+12
9.9147327e+12
9.914748e+12
9.9147712e+12
9.9147983e+12
9.9148122e+12
9.9147619e+12
9.9145039e+12
9.9136781e+12
9.9117046e+12
9.7647226e+12
9.7706342e+12
9.7727707e+12
9.7734063e+12
9.7735332e+12
9.7734968e+12
9.7734275e+12
9.7733682e+12
9.7733286e+12
9.7733097e+12
9.7733096e+12
9.7733286e+12
9.773368e+12
9.7734273e+12
9.7734965e+12
9.7735328e+12
9.7734059e+12
9.7727702e+12
9.7706336e+12
9.7647218e+12
9.5649559e+12
9.5761646e+12
9.5798684e+12
9.5809306e+12
9.5811313e+12
9.5810575e+12
9.5809327e+12
9.580827e+12
9.5807563e+12
9.5807223e+12
9.5807222e+12
9.5807562e+12
9.5808267e+12
9.5809324e+12
9.581057e+12
9.5811307e+12
9.5809299e+12
9.5798675e+12
9.5761636e+12
9.5649545e+12
9.3247526e+12
9.342114e+12
9.3475329e+12
9.3490476e+12
9.3493037e+12
9.3491743e+12
9.3489813e+12
9.3488207e+12
9.3487139e+12
9.3486624e+12
9.3486623e+12
9.3487137e+12
9.3488203e+12
9.3489808e+12
9.3491736e+12
9.3493029e+12
9.3490467e+12
9.3475318e+12
9.3421127e+12
9.324751e+12
9.0520305e+12
9.0770224e+12
9.0843778e+12
9.0863526e+12
9.0866494e+12
9.0864496e+12
9.0861785e+12
9.0859563e+12
9.0858098e+12
9.0857392e+12
9.0857391e+12
9.0858096e+12
9.0859559e+12
9.0861778e+12
9.0864488e+12
9.0866484e+12
9.0863514e+12
9.0843765e+12
9.077021e+12
9.0520287e+12
8.7506661e+12
8.7837964e+12
8.7931249e+12
8.7955352e+12
8.7958283e+12
8.7955363e+12
8.795178e+12
8.7948906e+12
8.7947026e+12
8.7946121e+12
8.794612e+12
8.7947023e+12
8.7948901e+12
8.7951772e+12
8.7955353e+12
8.7958272e+12
8.7955339e+12
8.7931234e+12
8.7837949e+12
8.7506643e+12
8.4267877e+12
8.4691108e+12
8.4806851e+12
8.4835058e+12
8.4837585e+12
8.4833635e+12
8.4829203e+12
8.4825714e+12
8.4823438e+12
8.4822344e+12
8.4822343e+12
8.4823434e+12
8.4825708e+12
8.4829194e+12
8.4833624e+12
8.4837573e+12
8.4835045e+12
8.4806836e+12
8.4691092e+12
8.4267859e+12
8.0827914e+12
8.1346908e+12
8.1488883e+12
8.1521115e+12
8.1522189e+12
8.1516897e+12
8.1511842e+12
8.1507905e+12
8.1505309e+12
8.1504066e+12
8.1504065e+12
8.1505305e+12
8.1507898e+12
8.1511833e+12
8.1516886e+12
8.1522177e+12
8.1521102e+12
8.1488869e+12
8.1346893e+12
8.0827899e+12
7.7243599e+12
7.7853705e+12
7.8024746e+12
7.8061495e+12
7.8059365e+12
7.8051828e+12
7.8046568e+12
7.8042458e+12
7.8039651e+12
7.8038316e+12
7.8038315e+12
7.8039647e+12
7.8042451e+12
7.8046559e+12
7.8051818e+12
7.8059353e+12
7.8061482e+12
7.8024732e+12
7.7853692e+12
7.7243585e+12
7.3575314e+12
7.4273728e+12
7.447365e+12
7.4515941e+12
7.4509708e+12
7.4499666e+12
7.4494689e+12
7.4490742e+12
7.4487767e+12
7.4486403e+12
7.4486402e+12
7.4487762e+12
7.4490735e+12
7.449468e+12
7.4499656e+12
7.4509696e+12
7.4515929e+12
7.4473638e+12
7.4273716e+12
7.3575301e+12
6.9846726e+12
7.0639177e+12
7.0866201e+12
7.091568e+12
7.0906957e+12
7.0895798e+12
7.0891584e+12
7.0888226e+12
7.0884445e+12
7.0883154e+12
7.0883152e+12
7.0884441e+12
7.088822e+12
7.0891575e+12
7.0895788e+12
7.0906946e+12
7.0915668e+12
7.0866188e+12
7.0639165e+12
6.9846713e+12
6.6042067e+12
6.693987e+12
6.7194759e+12
6.7252074e+12
6.7244856e+12
6.7234871e+12
6.7231907e+12
6.7229638e+12
6.72254e+12
6.7224174e+12
6.7224173e+12
6.7225396e+12
6.7229632e+12
6.7231899e+12
6.7234861e+12
6.7244845e+12
6.7252062e+12
6.7194747e+12
6.6939858e+12
6.6042053e+12
6.2191037e+12
6.3202958e+12
6.349297e+12
6.3561074e+12
6.3559792e+12
6.3552697e+12
6.355132e+12
6.3548887e+12
6.3545747e+12
6.3544001e+12
6.3543999e+12
6.3545743e+12
6.354888e+12
6.3551312e+12
6.3552687e+12
6.3559781e+12
6.3561063e+12
6.3492957e+12
6.3202945e+12
6.2191023e+12
5.8396061e+12
5.9530261e+12
5.9870972e+12
5.9955637e+12
5.9963499e+12
5.9959672e+12
5.9960065e+12
5.9957496e+12
5.9956642e+12
5.9954651e+12
5.995465e+12
5.9956638e+12
5.9957489e+12
5.9960057e+12
5.9959663e+12
5.9963489e+12
5.9955626e+12
5.9870959e+12
5.9530248e+12
5.8396047e+12
5.4474198e+12
5.5755605e+12
5.6165353e+12
5.6270781e+12
5.6291424e+12
5.6292238e+12
5.6295413e+12
5.6295842e+12
5.6299548e+12
5.6299333e+12
5.6299332e+12
5.6299544e+12
5.6295836e+12
5.6295404e+12
5.6292229e+12
5.6291413e+12
5.6270769e+12
5.616534e+12
5.5755592e+12
5.4474185e+12
5.0198627e+12
5.1666029e+12
5.2162894e+12
5.2291885e+12
5.2330998e+12
5.2338502e+12
5.2346797e+12
5.2353065e+12
5.2366321e+12
5.2371159e+12
5.2371157e+12
5.2366317e+12
5.2353058e+12
5.2346789e+12
5.2338493e+12
5.2330987e+12
5.2291873e+12
5.2162881e+12
5.1666016e+12
5.0198615e+12
4.5281014e+12
4.6972288e+12
4.7568247e+12
4.7717492e+12
4.7786795e+12
4.7804677e+12
4.7822783e+12
4.7835988e+12
4.7866288e+12
4.7878539e+12
4.7878538e+12
4.7866285e+12
4.7835982e+12
4.7822775e+12
4.7804667e+12
4.7786784e+12
4.7717479e+12
4.7568233e+12
4.6972276e+12
4.5281005e+12
3.9550413e+12
4.1461373e+12
4.2163931e+12
4.2336944e+12
4.2452375e+12
4.2489021e+12
4.2520709e+12
4.2538337e+12
4.2590401e+12
4.2608973e+12
4.2608971e+12
4.2590398e+12
4.2538331e+12
4.2520702e+12
4.2489011e+12
4.2452364e+12
4.2336931e+12
4.2163919e+12
4.1461363e+12
3.9550409e+12
3.3247541e+12
3.5306444e+12
3.6140923e+12
3.6378154e+12
3.6554325e+12
3.6615819e+12
3.6658497e+12
3.6674606e+12
3.6744802e+12
3.67655e+12
3.6765499e+12
3.6744799e+12
3.6674601e+12
3.665849e+12
3.6615811e+12
3.6554315e+12
3.6378142e+12
3.6140912e+12
3.5306437e+12
3.3247543e+12
2.6873957e+12
2.8993875e+12
2.9988194e+12
3.0337148e+12
3.0589239e+12
3.0686219e+12
3.0735215e+12
3.074642e+12
3.0820921e+12
3.0839123e+12
3.0839123e+12
3.0820919e+12
3.0746416e+12
3.073521e+12
3.0686213e+12
3.0589231e+12
3.0337139e+12
2.9988186e+12
2.8993872e+12
2.6873966e+12
2.0718632e+12
2.2833188e+12
2.3989474e+12
2.4476507e+12
2.4789816e+12
2.4933153e+12
2.4999842e+12
2.5007682e+12
2.5074304e+12
2.5086404e+12
2.5086404e+12
2.5074302e+12
2.5007679e+12
2.4999838e+12
2.4933148e+12
2.4789811e+12
2.4476501e+12
2.3989471e+12
2.2833192e+12
2.0718652e+12
0
0
0
0
0
1.9393315e+12
1.9477013e+12
1.9484724e+12
1.9536942e+12
1.9542166e+12
1.9542166e+12
1.9536942e+12
1.9484723e+12
1.9477013e+12
1.9393315e+12
0
0
0
0
0
0
0
0
0
0
0
0
0
0
0
0
0
0
0
0
0
0
0
0
0
0
0
0
0
0
0
0
0
0
0
0
0
0
0
0
0
0
0
0
0
0
0
0
0
0
0
0
0
0
0
0
0
0
0
0
0
0
0
0
0
0
0
0
0
0
0
0
0
0
0
0
0
0
0
0
0
0
0
0
0
0
0
0
0
0
0
0
0
0
0
0
0
0
0
0
0
0
0
0
0
0
0
0
0
0
0
0
0
0
0
0
0
0
0
0
0
0
0
0
0
0
0
0
0
0
0
0
0
0
0
0
0
0
0
0
0
0
0
0
0
0
0
0
0
0
0
0
0
0
0
0
0
0
0
0
0
0
0
0
0
0
0
0
0
0
0
0
0
0
0
0
0
0
0
0
0
0
0
0
0
0
0
0
0
0
0
0
0
0
0
0
0
0
0
0
0
0
0
0
0
0
0
0
0
0
0
0
0
0
0
0
0
0
0
0
0
0
0
0
0
0
0
0
0
0
0
0
0
0
0
0
0
0
0
0
0
0
0
0
0
0
0
0
0
0
0
0
0
0
0
0
0
0
0
0
0
0
0
0
0
0
0
0
0
0
0
0
0
0
0
0
0
0
0
0
0
0
0
0
0
0
0
0
0
0
0
0
0
0
0
0
0
0
0
0
0
0
0
0
0
0
0
0
0
0
0
0
0
0
0
0
0
0
0
0
0
0
0
0
0
)
;

boundaryField
{
    Wall
    {
        type            zeroGradient;
    }
    frontAndBack
    {
        type            empty;
    }
    atmosphere
    {
        type            zeroGradient;
    }
}


// ************************************************************************* //
