/*--------------------------------*- C++ -*----------------------------------*\
| =========                 |                                                 |
| \\      /  F ield         | OpenFOAM: The Open Source CFD Toolbox           |
|  \\    /   O peration     | Version:  3.0.1                                 |
|   \\  /    A nd           | Web:      www.OpenFOAM.org                      |
|    \\/     M anipulation  |                                                 |
\*---------------------------------------------------------------------------*/
FoamFile
{
    version     2.0;
    format      ascii;
    class       volScalarField;
    location    "29";
    object      XOH;
}
// * * * * * * * * * * * * * * * * * * * * * * * * * * * * * * * * * * * * * //

dimensions      [0 0 0 0 0 0 0];

internalField   nonuniform List<scalar> 
800
(
0.18223368
0.18225132
0.18225444
0.18225486
0.18225495
0.18225501
0.18225509
0.18225517
0.18225522
0.18225525
0.18225525
0.18225522
0.18225517
0.18225509
0.18225501
0.18225495
0.18225486
0.18225444
0.18225133
0.18223368
0.17655854
0.17678239
0.17683376
0.1768454
0.17684682
0.17684614
0.17684543
0.17684506
0.17684492
0.17684489
0.17684489
0.17684492
0.17684505
0.17684543
0.17684614
0.17684682
0.1768454
0.17683375
0.17678238
0.17655852
0.17144888
0.17180097
0.17190097
0.17192556
0.17193005
0.17192974
0.17192886
0.17192833
0.17192813
0.17192808
0.17192808
0.17192813
0.17192833
0.17192886
0.17192973
0.17193004
0.17192555
0.17190096
0.17180095
0.17144886
0.16689373
0.1673562
0.16749536
0.16752997
0.16753674
0.16753664
0.16753562
0.16753496
0.1675347
0.16753463
0.16753463
0.1675347
0.16753496
0.16753562
0.16753663
0.16753673
0.16752996
0.16749535
0.16735618
0.1668937
0.16287391
0.16343081
0.16360389
0.16364645
0.16365457
0.16365427
0.16365295
0.16365207
0.1636517
0.1636516
0.1636516
0.1636517
0.16365206
0.16365294
0.16365426
0.16365456
0.16364644
0.16360387
0.16343079
0.16287388
0.15934805
0.15998518
0.16019044
0.16024004
0.16024887
0.16024796
0.16024613
0.16024491
0.16024438
0.1602442
0.1602442
0.16024438
0.1602449
0.16024613
0.16024795
0.16024886
0.16024003
0.16019042
0.15998517
0.15934803
0.15625481
0.15696465
0.15720145
0.15725801
0.15726717
0.15726533
0.1572628
0.15726111
0.15726034
0.15726006
0.15726006
0.15726034
0.1572611
0.1572628
0.15726533
0.15726716
0.157258
0.15720144
0.15696463
0.15625479
0.15351536
0.15429916
0.15456692
0.15463117
0.15464056
0.15463759
0.15463421
0.15463193
0.15463088
0.15463045
0.15463045
0.15463087
0.15463193
0.15463421
0.15463758
0.15464055
0.15463116
0.15456691
0.15429915
0.15351534
0.1510328
0.15190196
0.15220022
0.1522739
0.15228384
0.15227964
0.15227536
0.15227243
0.15227105
0.15227046
0.15227046
0.15227105
0.15227243
0.15227535
0.15227963
0.15228383
0.1522739
0.15220022
0.15190196
0.15103279
0.14869058
0.14966793
0.14999739
0.15008344
0.15009485
0.15008961
0.15008452
0.15008099
0.15007928
0.15007852
0.15007852
0.15007928
0.15008099
0.15008451
0.1500896
0.15009485
0.15008344
0.14999739
0.14966793
0.14869058
0.14634831
0.14746945
0.14783357
0.14793651
0.14795134
0.14794583
0.14794032
0.14793639
0.14793442
0.14793353
0.14793353
0.14793442
0.14793639
0.14794032
0.14794583
0.14795134
0.14793651
0.14783357
0.14746945
0.14634831
0.14383463
0.14514709
0.14555619
0.14568274
0.1457025
0.14569828
0.14569319
0.14568936
0.14568732
0.1456864
0.1456864
0.14568732
0.14568936
0.14569319
0.14569828
0.1457025
0.14568275
0.14555619
0.1451471
0.14383464
0.14093687
0.14249771
0.14297431
0.14313106
0.1431562
0.14315578
0.14315262
0.14315
0.14314912
0.14314851
0.1431485
0.14314912
0.14315
0.14315262
0.14315578
0.1431562
0.14313107
0.14297432
0.14249772
0.14093688
0.1373829
0.13926144
0.13983998
0.14003254
0.1400649
0.14007197
0.14007333
0.14007389
0.14007407
0.14007411
0.14007411
0.14007407
0.14007389
0.14007332
0.14007197
0.1400649
0.14003255
0.13983999
0.13926145
0.13738291
0.13284449
0.13512529
0.13584631
0.13608175
0.13612783
0.13614777
0.13615904
0.13616558
0.13616556
0.1361669
0.1361669
0.13616556
0.13616558
0.13615904
0.13614777
0.13612783
0.13608175
0.13584632
0.1351253
0.1328445
0.12694452
0.12972562
0.13063107
0.13092046
0.13099226
0.1310343
0.13106032
0.13107655
0.13107881
0.13108277
0.13108277
0.1310788
0.13107654
0.13106032
0.1310343
0.13099226
0.13092047
0.13063108
0.12972562
0.12694452
0.11925077
0.1226357
0.12376973
0.12412715
0.12424027
0.1243133
0.12436009
0.12439041
0.12440831
0.12441751
0.12441751
0.1244083
0.1243904
0.12436009
0.1243133
0.12424027
0.12412715
0.12376973
0.1226357
0.11925077
0.10928659
0.11336364
0.11477346
0.1152097
0.11538582
0.11550286
0.11558154
0.11562943
0.11568446
0.11570182
0.11570182
0.11568445
0.11562942
0.11558153
0.11550285
0.11538581
0.11520969
0.11477345
0.11336364
0.10928659
0.09659781
0.10140496
0.1031368
0.10364941
0.1039322
0.10410835
0.10423004
0.10429604
0.10441478
0.10444186
0.10444186
0.10441478
0.10429603
0.10423003
0.10410834
0.10393219
0.10364941
0.1031368
0.10140496
0.096597825
0.080903501
0.08635454
0.088436973
0.089013582
0.089492073
0.08972712
0.089889861
0.089969625
0.090161731
0.090197275
0.090197274
0.090161728
0.08996962
0.089889855
0.089727115
0.089492068
0.089013578
0.088436971
0.086354547
0.080903527
0.062244201
0.068093756
0.07050303
0.07125163
0.071907013
0.072190842
0.072372785
0.072456162
0.072691505
0.072730735
0.072730734
0.072691503
0.072456158
0.07237278
0.072190837
0.071907008
0.071251625
0.070503029
0.068093767
0.062244231
0.04078831
0.047244322
0.049834349
0.050589814
0.051208298
0.051923008
0.052107839
0.052181064
0.052393718
0.052428036
0.052428036
0.052393716
0.05218106
0.052107835
0.051923001
0.051208292
0.050589808
0.049834346
0.047244328
0.040788329
0.014986795
0.023065698
0.025891095
0.027597397
0.027940396
0.028470869
0.029749994
0.029796999
0.029923165
0.029943704
0.029943703
0.029923162
0.029796994
0.029749988
0.028470861
0.027940388
0.027597387
0.025891089
0.023065698
0.014986802
1e-150
1e-150
1e-150
1e-150
1e-150
0.0030335612
0.0031494126
0.0031539732
0.0031661042
0.0031683689
0.0031683687
0.0031661038
0.0031539725
0.0031494118
0.0030335601
1e-150
1e-150
1e-150
1e-150
1e-150
1e-150
1e-150
1e-150
1e-150
1e-150
1e-150
1e-150
1e-150
1e-150
1e-150
1e-150
1e-150
1e-150
1e-150
1e-150
1e-150
1e-150
1e-150
1e-150
1e-150
1e-150
1e-150
1e-150
1e-150
1e-150
1e-150
1e-150
1e-150
1e-150
1e-150
1e-150
1e-150
1e-150
1e-150
1e-150
1e-150
1e-150
1e-150
1e-150
1e-150
1e-150
1e-150
1e-150
1e-150
1e-150
1e-150
1e-150
1e-150
1e-150
1e-150
1e-150
1e-150
1e-150
1e-150
1e-150
1e-150
1e-150
1e-150
1e-150
1e-150
1e-150
1e-150
1e-150
1e-150
1e-150
1e-150
1e-150
1e-150
1e-150
1e-150
1e-150
1e-150
1e-150
1e-150
1e-150
1e-150
1e-150
1e-150
1e-150
1e-150
1e-150
1e-150
1e-150
1e-150
1e-150
1e-150
1e-150
1e-150
1e-150
1e-150
1e-150
1e-150
1e-150
1e-150
1e-150
1e-150
1e-150
1e-150
1e-150
1e-150
1e-150
1e-150
1e-150
1e-150
1e-150
1e-150
1e-150
1e-150
1e-150
1e-150
1e-150
1e-150
1e-150
1e-150
1e-150
1e-150
1e-150
1e-150
1e-150
1e-150
1e-150
1e-150
1e-150
1e-150
1e-150
1e-150
1e-150
1e-150
1e-150
1e-150
1e-150
1e-150
1e-150
1e-150
1e-150
1e-150
1e-150
1e-150
1e-150
1e-150
1e-150
1e-150
1e-150
1e-150
1e-150
1e-150
1e-150
1e-150
1e-150
1e-150
1e-150
1e-150
1e-150
1e-150
1e-150
1e-150
1e-150
1e-150
1e-150
1e-150
1e-150
1e-150
1e-150
1e-150
1e-150
1e-150
1e-150
1e-150
1e-150
1e-150
1e-150
1e-150
1e-150
1e-150
1e-150
1e-150
1e-150
1e-150
1e-150
1e-150
1e-150
1e-150
1e-150
1e-150
1e-150
1e-150
1e-150
1e-150
1e-150
1e-150
1e-150
1e-150
1e-150
1e-150
1e-150
1e-150
1e-150
1e-150
1e-150
1e-150
1e-150
1e-150
1e-150
1e-150
1e-150
1e-150
1e-150
1e-150
1e-150
1e-150
1e-150
1e-150
1e-150
1e-150
1e-150
1e-150
1e-150
1e-150
1e-150
1e-150
1e-150
1e-150
1e-150
1e-150
1e-150
1e-150
1e-150
1e-150
1e-150
1e-150
1e-150
1e-150
1e-150
1e-150
1e-150
1e-150
1e-150
1e-150
1e-150
1e-150
1e-150
1e-150
1e-150
1e-150
1e-150
1e-150
1e-150
1e-150
1e-150
1e-150
1e-150
1e-150
1e-150
1e-150
1e-150
1e-150
1e-150
1e-150
1e-150
1e-150
1e-150
1e-150
1e-150
1e-150
1e-150
1e-150
1e-150
1e-150
1e-150
1e-150
1e-150
1e-150
1e-150
1e-150
1e-150
1e-150
1e-150
1e-150
1e-150
1e-150
1e-150
1e-150
1e-150
1e-150
1e-150
1e-150
1e-150
1e-150
1e-150
1e-150
1e-150
1e-150
1e-150
1e-150
1e-150
1e-150
1e-150
1e-150
1e-150
1e-150
1e-150
1e-150
1e-150
1e-150
1e-150
1e-150
1e-150
1e-150
1e-150
1e-150
1e-150
1e-150
1e-150
1e-150
1e-150
1e-150
1e-150
1e-150
1e-150
1e-150
)
;

boundaryField
{
    Wall
    {
        type            zeroGradient;
    }
    frontAndBack
    {
        type            empty;
    }
    atmosphere
    {
        type            zeroGradient;
    }
}


// ************************************************************************* //
