/*--------------------------------*- C++ -*----------------------------------*\
| =========                 |                                                 |
| \\      /  F ield         | OpenFOAM: The Open Source CFD Toolbox           |
|  \\    /   O peration     | Version:  3.0.1                                 |
|   \\  /    A nd           | Web:      www.OpenFOAM.org                      |
|    \\/     M anipulation  |                                                 |
\*---------------------------------------------------------------------------*/
FoamFile
{
    version     2.0;
    format      ascii;
    class       volScalarField;
    location    "29";
    object      XW;
}
// * * * * * * * * * * * * * * * * * * * * * * * * * * * * * * * * * * * * * //

dimensions      [0 0 0 0 0 0 0];

internalField   nonuniform List<scalar> 
800
(
0.70813602
0.7081703
0.70817624
0.70817705
0.70817721
0.70817734
0.70817749
0.70817763
0.70817773
0.70817778
0.70817778
0.70817773
0.70817763
0.70817749
0.70817734
0.70817721
0.70817705
0.70817625
0.7081703
0.70813602
0.69569794
0.69618273
0.69629256
0.69631771
0.69632108
0.69631992
0.69631864
0.69631802
0.69631784
0.69631783
0.69631783
0.69631784
0.69631801
0.69631863
0.69631991
0.69632107
0.6963177
0.69629254
0.69618272
0.6956979
0.6839333
0.68472739
0.68494991
0.68500528
0.68501596
0.68501581
0.68501424
0.68501332
0.68501301
0.68501297
0.68501297
0.685013
0.68501331
0.68501423
0.6850158
0.68501594
0.68500526
0.68494988
0.68472736
0.68393324
0.67283624
0.67392687
0.67424744
0.67432812
0.67434475
0.67434522
0.6743433
0.67434202
0.67434154
0.67434144
0.67434144
0.67434154
0.67434201
0.67434329
0.67434521
0.67434473
0.6743281
0.67424741
0.67392683
0.67283617
0.66237804
0.66375637
0.66416875
0.66427163
0.66429245
0.66429257
0.66428984
0.66428793
0.66428713
0.6642869
0.66428689
0.66428712
0.66428792
0.66428982
0.66429255
0.66429242
0.6642716
0.66416871
0.66375632
0.66237797
0.6524694
0.65413058
0.65463603
0.65476052
0.65478435
0.65478319
0.65477913
0.65477624
0.65477494
0.65477448
0.65477448
0.65477493
0.65477623
0.65477911
0.65478317
0.65478432
0.65476048
0.65463599
0.65413053
0.65246933
0.64296109
0.64491689
0.6455203
0.6456676
0.64569377
0.64569056
0.64568467
0.64568047
0.64567848
0.64567771
0.64567771
0.64567848
0.64568045
0.64568465
0.64569054
0.64569374
0.64566757
0.64552026
0.64491684
0.64296103
0.63364862
0.63593267
0.63664216
0.63681525
0.63684345
0.63683762
0.6368295
0.63682371
0.6368209
0.63681973
0.63681973
0.63682089
0.63682369
0.63682948
0.6368376
0.63684342
0.63681522
0.63664213
0.63593263
0.63364857
0.62427008
0.6269411
0.62776946
0.62797345
0.62800426
0.62799536
0.62798483
0.62797734
0.62797361
0.627972
0.627972
0.6279736
0.62797732
0.62798481
0.62799534
0.62800423
0.62797342
0.62776943
0.62694107
0.62427004
0.61449895
0.61764489
0.61861198
0.6188546
0.61888995
0.61887828
0.61886562
0.61885656
0.61885193
0.61884989
0.61884989
0.61885192
0.61885655
0.6188656
0.61887826
0.61888992
0.61885458
0.61861196
0.61764487
0.61449892
0.60393179
0.6076743
0.60881027
0.60910266
0.60914694
0.60913445
0.60912075
0.60911072
0.60910533
0.60910295
0.60910295
0.60910531
0.60911071
0.60912073
0.60913442
0.60914691
0.60910265
0.60881026
0.60767428
0.60393177
0.59207095
0.5965679
0.59791847
0.59827665
0.5983369
0.59832775
0.59831529
0.59830568
0.59829976
0.5982973
0.59829729
0.59829974
0.59830567
0.59831527
0.59832773
0.59833687
0.59827663
0.59791846
0.59656789
0.59207093
0.57829858
0.58374632
0.58537818
0.5858215
0.58590806
0.58590889
0.5859016
0.58589548
0.58589206
0.58589035
0.58589035
0.58589204
0.58589546
0.58590157
0.58590887
0.58590804
0.58582148
0.58537816
0.58374632
0.57829856
0.56182408
0.56846583
0.57046707
0.57101851
0.57114744
0.57116764
0.57117216
0.57117502
0.5711815
0.57118116
0.57118116
0.57118149
0.57117499
0.57117213
0.57116761
0.57114741
0.57101849
0.57046705
0.56846581
0.56182406
0.54170441
0.54982847
0.55230734
0.55299486
0.5531895
0.55324247
0.55327224
0.55329134
0.55332182
0.55332458
0.55332457
0.5533218
0.55329131
0.55327221
0.55324244
0.55318947
0.55299484
0.55230731
0.54982845
0.54170437
0.51682994
0.52676247
0.52985187
0.5307084
0.53099699
0.53110541
0.53118918
0.53123436
0.53131275
0.53132278
0.53132278
0.53131273
0.53123433
0.53118914
0.53110538
0.53099696
0.53070837
0.52985184
0.52676244
0.5168299
0.48582807
0.49792374
0.50179327
0.50285202
0.50326514
0.50347928
0.50366314
0.50374611
0.50391304
0.50393817
0.50393816
0.50391302
0.50374608
0.50366311
0.50347924
0.5032651
0.50285199
0.50179323
0.4979237
0.48582804
0.44694529
0.46162295
0.46648386
0.46776596
0.46834825
0.46874391
0.46907693
0.46920764
0.46956062
0.46960977
0.46960977
0.46956061
0.46920761
0.46907689
0.46874387
0.46834821
0.46776592
0.46648381
0.4616229
0.44694527
0.39823626
0.41583437
0.42193359
0.42342966
0.42438239
0.42501695
0.42552201
0.42570362
0.42635096
0.42642965
0.42642964
0.42635094
0.42570359
0.42552198
0.42501691
0.42438235
0.42342962
0.42193355
0.41583434
0.39823628
0.33792246
0.35840937
0.3659839
0.36766872
0.36947592
0.37032977
0.37097461
0.37119799
0.3721419
0.37224806
0.37224805
0.37214189
0.37119796
0.37097458
0.37032973
0.36947588
0.36766868
0.36598387
0.35840936
0.33792252
0.26459798
0.2874417
0.29661898
0.29917593
0.30177222
0.30277714
0.30346874
0.30370859
0.30478821
0.30490947
0.30490946
0.3047882
0.30370857
0.30346871
0.30277711
0.30177218
0.29917589
0.29661895
0.28744171
0.26459806
0.17648796
0.20330517
0.21377495
0.21655016
0.21904188
0.22204677
0.22271647
0.22293532
0.22387724
0.22398786
0.22398785
0.22387723
0.2229353
0.22271645
0.22204674
0.21904185
0.21655011
0.21377492
0.20330517
0.17648802
0.065502366
0.10060058
0.11268068
0.11998379
0.1213716
0.12362645
0.12923451
0.12938113
0.12993264
0.13000077
0.13000076
0.12993263
0.12938111
0.12923448
0.12362642
0.12137156
0.11998374
0.11268065
0.10060057
0.065502387
1e-150
1e-150
1e-150
1e-150
1e-150
0.013299377
0.013800809
0.013814448
0.013866769
0.013874357
0.013874356
0.013866767
0.013814445
0.013800805
0.013299372
1e-150
1e-150
1e-150
1e-150
1e-150
1e-150
1e-150
1e-150
1e-150
1e-150
1e-150
1e-150
1e-150
1e-150
1e-150
1e-150
1e-150
1e-150
1e-150
1e-150
1e-150
1e-150
1e-150
1e-150
1e-150
1e-150
1e-150
1e-150
1e-150
1e-150
1e-150
1e-150
1e-150
1e-150
1e-150
1e-150
1e-150
1e-150
1e-150
1e-150
1e-150
1e-150
1e-150
1e-150
1e-150
1e-150
1e-150
1e-150
1e-150
1e-150
1e-150
1e-150
1e-150
1e-150
1e-150
1e-150
1e-150
1e-150
1e-150
1e-150
1e-150
1e-150
1e-150
1e-150
1e-150
1e-150
1e-150
1e-150
1e-150
1e-150
1e-150
1e-150
1e-150
1e-150
1e-150
1e-150
1e-150
1e-150
1e-150
1e-150
1e-150
1e-150
1e-150
1e-150
1e-150
1e-150
1e-150
1e-150
1e-150
1e-150
1e-150
1e-150
1e-150
1e-150
1e-150
1e-150
1e-150
1e-150
1e-150
1e-150
1e-150
1e-150
1e-150
1e-150
1e-150
1e-150
1e-150
1e-150
1e-150
1e-150
1e-150
1e-150
1e-150
1e-150
1e-150
1e-150
1e-150
1e-150
1e-150
1e-150
1e-150
1e-150
1e-150
1e-150
1e-150
1e-150
1e-150
1e-150
1e-150
1e-150
1e-150
1e-150
1e-150
1e-150
1e-150
1e-150
1e-150
1e-150
1e-150
1e-150
1e-150
1e-150
1e-150
1e-150
1e-150
1e-150
1e-150
1e-150
1e-150
1e-150
1e-150
1e-150
1e-150
1e-150
1e-150
1e-150
1e-150
1e-150
1e-150
1e-150
1e-150
1e-150
1e-150
1e-150
1e-150
1e-150
1e-150
1e-150
1e-150
1e-150
1e-150
1e-150
1e-150
1e-150
1e-150
1e-150
1e-150
1e-150
1e-150
1e-150
1e-150
1e-150
1e-150
1e-150
1e-150
1e-150
1e-150
1e-150
1e-150
1e-150
1e-150
1e-150
1e-150
1e-150
1e-150
1e-150
1e-150
1e-150
1e-150
1e-150
1e-150
1e-150
1e-150
1e-150
1e-150
1e-150
1e-150
1e-150
1e-150
1e-150
1e-150
1e-150
1e-150
1e-150
1e-150
1e-150
1e-150
1e-150
1e-150
1e-150
1e-150
1e-150
1e-150
1e-150
1e-150
1e-150
1e-150
1e-150
1e-150
1e-150
1e-150
1e-150
1e-150
1e-150
1e-150
1e-150
1e-150
1e-150
1e-150
1e-150
1e-150
1e-150
1e-150
1e-150
1e-150
1e-150
1e-150
1e-150
1e-150
1e-150
1e-150
1e-150
1e-150
1e-150
1e-150
1e-150
1e-150
1e-150
1e-150
1e-150
1e-150
1e-150
1e-150
1e-150
1e-150
1e-150
1e-150
1e-150
1e-150
1e-150
1e-150
1e-150
1e-150
1e-150
1e-150
1e-150
1e-150
1e-150
1e-150
1e-150
1e-150
1e-150
1e-150
1e-150
1e-150
1e-150
1e-150
1e-150
1e-150
1e-150
1e-150
1e-150
1e-150
1e-150
1e-150
1e-150
1e-150
1e-150
1e-150
1e-150
1e-150
1e-150
1e-150
1e-150
1e-150
1e-150
1e-150
1e-150
1e-150
1e-150
1e-150
1e-150
1e-150
1e-150
1e-150
1e-150
1e-150
1e-150
1e-150
1e-150
1e-150
1e-150
1e-150
1e-150
1e-150
)
;

boundaryField
{
    Wall
    {
        type            zeroGradient;
    }
    frontAndBack
    {
        type            empty;
    }
    atmosphere
    {
        type            zeroGradient;
    }
}


// ************************************************************************* //
