/*--------------------------------*- C++ -*----------------------------------*\
| =========                 |                                                 |
| \\      /  F ield         | OpenFOAM: The Open Source CFD Toolbox           |
|  \\    /   O peration     | Version:  3.0.1                                 |
|   \\  /    A nd           | Web:      www.OpenFOAM.org                      |
|    \\/     M anipulation  |                                                 |
\*---------------------------------------------------------------------------*/
FoamFile
{
    version     2.0;
    format      ascii;
    class       volScalarField;
    location    "23";
    object      alpha.gas;
}
// * * * * * * * * * * * * * * * * * * * * * * * * * * * * * * * * * * * * * //

dimensions      [0 0 0 0 0 0 0];

internalField   nonuniform List<scalar> 
800
(
2.6118322e-28
2.3025126e-25
4.4291707e-22
8.650525e-22
7.1241002e-24
1.0692759e-21
9.3234866e-22
5.6528438e-23
1.4159544e-25
1.4544194e-28
3.052054e-23
2.9723407e-23
2.6699092e-25
6.9157183e-23
6.8054516e-23
1.6017261e-27
3.1764734e-32
1.1411782e-35
2.249673e-39
4.1791357e-43
2.5549277e-12
5.8166591e-13
4.1899823e-11
1.5071257e-11
6.236399e-13
1.982702e-11
1.5622383e-11
1.8799797e-11
3.8214231e-11
9.5962526e-11
4.8219662e-11
4.8004424e-11
2.5967454e-11
1.5393634e-11
1.4525845e-11
2.8285022e-12
3.6201287e-16
7.2090353e-14
8.089517e-12
1.1135695e-14
1.0724696e-06
9.921381e-07
9.7619115e-07
9.757192e-07
9.7724516e-07
9.7886112e-07
9.7990456e-07
9.805127e-07
9.80829e-07
9.8098858e-07
9.8095728e-07
9.8083576e-07
9.8051789e-07
9.7990494e-07
9.7885865e-07
9.7724753e-07
9.7571004e-07
9.7616451e-07
9.9214403e-07
1.0724699e-06
4.8997003e-06
4.512678e-06
4.4414364e-06
4.4417862e-06
4.4496027e-06
4.4569608e-06
4.4616185e-06
4.4641758e-06
4.4654683e-06
4.4660048e-06
4.4659776e-06
4.4654756e-06
4.4641823e-06
4.4616214e-06
4.4569606e-06
4.4496072e-06
4.44178e-06
4.4414154e-06
4.5126857e-06
4.8997055e-06
1.3323207e-05
1.2217588e-05
1.2021878e-05
1.2027835e-05
1.2051637e-05
1.2071666e-05
1.2083934e-05
1.2090291e-05
1.2093384e-05
1.209455e-05
1.2094525e-05
1.2093393e-05
1.20903e-05
1.2083941e-05
1.2071668e-05
1.2051644e-05
1.202783e-05
1.2021859e-05
1.2217598e-05
1.3323218e-05
2.8264591e-05
2.5789317e-05
2.5362962e-05
2.538247e-05
2.5437758e-05
2.5480039e-05
2.5504574e-05
2.5516478e-05
2.5521808e-05
2.5523571e-05
2.5523546e-05
2.5521819e-05
2.5516488e-05
2.5504582e-05
2.5480041e-05
2.5437764e-05
2.5382462e-05
2.5362943e-05
2.5789326e-05
2.8264605e-05
5.2182716e-05
4.729585e-05
4.6469295e-05
4.650462e-05
4.6614766e-05
4.668983e-05
4.6729961e-05
4.6747588e-05
4.6754235e-05
4.6755896e-05
4.6755873e-05
4.6754244e-05
4.6747596e-05
4.6729965e-05
4.6689827e-05
4.6614765e-05
4.6504601e-05
4.6469268e-05
4.7295851e-05
5.2182726e-05
9.0144966e-05
8.0723626e-05
7.9229312e-05
7.9244282e-05
7.9412973e-05
7.9529189e-05
7.9581151e-05
7.9600085e-05
7.9603794e-05
7.9603247e-05
7.9603223e-05
7.96038e-05
7.9600087e-05
7.9581145e-05
7.952917e-05
7.9412952e-05
7.9244238e-05
7.9229263e-05
8.0723606e-05
9.0144952e-05
0.00015928549
0.00013903933
0.00013590099
0.00013567035
0.00013584053
0.00013597114
0.00013600396
0.00013600624
0.00013599508
0.00013598744
0.00013598741
0.00013599508
0.00013600624
0.00013600393
0.00013597108
0.00013584047
0.00013567025
0.00013590088
0.00013903925
0.0001592854
0.00034439616
0.00028476541
0.00027389291
0.00027186532
0.0002714556
0.00027127349
0.00027110316
0.00027099703
0.00027092146
0.00027088848
0.00027088845
0.00027092146
0.000270997
0.00027110308
0.00027127333
0.0002714554
0.00027186505
0.00027389263
0.00028476512
0.00034439582
0.0013058524
0.00098065156
0.00090843
0.00088881996
0.00087966549
0.0008751848
0.00087290539
0.00087178999
0.00087122767
0.00087102305
0.000871023
0.00087122762
0.00087178983
0.00087290497
0.00087518401
0.00087966442
0.00088881861
0.00090842854
0.00098064969
0.0013058501
0.014954076
0.0094307572
0.0082033119
0.0078182733
0.0076257642
0.0075344421
0.0074893092
0.0074680176
0.0074583142
0.0074550393
0.0074550388
0.0074583127
0.0074680142
0.007489302
0.0075344303
0.0076257479
0.0078182532
0.0082032873
0.0094307241
0.014954019
0.31579184
0.22910735
0.20467843
0.19569812
0.19114585
0.18896313
0.18787246
0.18736404
0.18713856
0.187067
0.18706698
0.18713851
0.18736395
0.18787227
0.18896283
0.19114545
0.19569764
0.20467788
0.22910668
0.31579106
0.87792766
0.82842304
0.81170659
0.80511233
0.80171875
0.80007193
0.7992411
0.7988539
0.79868362
0.79863135
0.79863134
0.79868358
0.79885382
0.79924095
0.8000717
0.80171844
0.80511197
0.81170619
0.82842259
0.87792728
0.99633128
0.99283444
0.9913448
0.99077992
0.99049859
0.99036524
0.99029838
0.99026828
0.99025579
0.99025263
0.99025263
0.99025578
0.99026828
0.99029836
0.99036522
0.99049857
0.99077989
0.99134477
0.9928344
0.99633126
0.99998943
0.99996226
0.99994646
0.9999411
0.99993883
0.99993795
0.99993758
0.99993747
0.99993746
0.99993748
0.99993748
0.99993746
0.99993747
0.99993758
0.99993795
0.99993883
0.9999411
0.99994646
0.99996226
0.99998943
1
0.99999998
0.99999997
0.99999997
0.99999996
0.99999996
0.99999996
0.99999996
0.99999996
0.99999997
0.99999997
0.99999996
0.99999996
0.99999996
0.99999996
0.99999996
0.99999997
0.99999997
0.99999998
1
1
1
1
1
1
1
1
1
1
1
1
1
1
1
1
1
1
1
1
1
1
1
1
1
1
1
1
1
1
1
1
1
1
1
1
1
1
1
1
1
1
1
1
1
1
1
1
1
1
1
1
1
1
1
1
1
1
1
1
1
1
1
1
1
1
1
1
1
1
1
1
1
1
1
1
1
1
1
1
1
1
1
1
1
1
1
1
1
1
1
1
1
1
1
1
1
1
1
1
1
1
1
1
1
1
1
1
1
1
1
1
1
1
1
1
1
1
1
1
1
1
1
1
1
1
1
1
1
1
1
1
1
1
1
1
1
1
1
1
1
1
1
1
1
1
1
1
1
1
1
1
1
1
1
1
1
1
1
1
1
1
1
1
1
1
1
1
1
1
1
1
1
1
1
1
1
1
1
1
1
1
1
1
1
1
1
1
1
1
1
1
1
1
1
1
1
1
1
1
1
1
1
1
1
1
1
1
1
1
1
1
1
1
1
1
1
1
1
1
1
1
1
1
1
1
1
1
1
1
1
1
1
1
1
1
1
1
1
1
1
1
1
1
1
1
1
1
1
1
1
1
1
1
1
1
1
1
1
1
1
1
1
1
1
1
1
1
1
1
1
1
1
1
1
1
1
1
1
1
1
1
1
1
1
1
1
1
1
1
1
1
1
1
1
1
1
1
1
1
1
1
1
1
1
1
1
1
1
1
1
1
1
1
1
1
1
1
1
1
1
1
1
1
1
1
1
1
1
1
1
1
1
1
1
1
1
1
1
1
1
1
1
1
1
1
1
1
1
1
1
1
1
1
1
1
1
1
1
1
1
1
1
1
1
1
1
1
1
1
1
1
1
1
1
1
1
1
1
1
1
1
1
1
1
1
1
1
1
1
1
1
1
1
1
1
1
1
1
1
1
1
1
1
1
1
1
1
1
1
1
1
1
1
1
1
1
1
1
1
1
1
1
1
1
1
1
1
1
1
1
1
1
1
1
1
1
1
1
1
1
1
1
1
1
1
1
1
1
1
1
1
1
1
1
1
1
1
1
1
1
)
;

boundaryField
{
    Wall
    {
        type            zeroGradient;
    }
    frontAndBack
    {
        type            empty;
    }
    atmosphere
    {
        type            zeroGradient;
    }
}


// ************************************************************************* //
