/*--------------------------------*- C++ -*----------------------------------*\
| =========                 |                                                 |
| \\      /  F ield         | OpenFOAM: The Open Source CFD Toolbox           |
|  \\    /   O peration     | Version:  3.0.1                                 |
|   \\  /    A nd           | Web:      www.OpenFOAM.org                      |
|    \\/     M anipulation  |                                                 |
\*---------------------------------------------------------------------------*/
FoamFile
{
    version     2.0;
    format      ascii;
    class       volScalarField;
    location    "23";
    object      g1_BA;
}
// * * * * * * * * * * * * * * * * * * * * * * * * * * * * * * * * * * * * * //

dimensions      [0 0 0 0 0 0 0];

internalField   nonuniform List<scalar> 
800
(
0.33979766
0.33990505
0.33992217
0.33992435
0.33992496
0.33992557
0.33992625
0.33992684
0.33992726
0.33992747
0.33992747
0.33992726
0.33992684
0.33992625
0.33992557
0.33992496
0.33992436
0.33992218
0.33990505
0.33979766
0.29649922
0.29794298
0.29822541
0.29825562
0.29824338
0.29823271
0.29822895
0.29822951
0.29823139
0.29823272
0.29823272
0.29823139
0.29822951
0.29822895
0.29823271
0.29824338
0.29825562
0.29822541
0.29794298
0.2964992
0.25081227
0.25307603
0.25365513
0.2537395
0.25372999
0.25371484
0.25370887
0.25370953
0.25371245
0.25371461
0.25371461
0.25371244
0.25370953
0.25370886
0.25371484
0.25372998
0.2537395
0.25365512
0.25307602
0.25081224
0.20964095
0.21245937
0.21324258
0.21335566
0.21334371
0.21332142
0.2133111
0.21330955
0.21331177
0.21331378
0.21331378
0.21331177
0.21330955
0.2133111
0.21332141
0.21334371
0.21335566
0.21324258
0.21245937
0.20964093
0.17496248
0.17808914
0.17903711
0.17917473
0.17915753
0.17912612
0.17910993
0.1791045
0.17910476
0.17910586
0.17910586
0.17910475
0.1791045
0.17910992
0.17912613
0.17915754
0.17917474
0.17903712
0.17808916
0.17496248
0.14594369
0.14929543
0.15042344
0.15059517
0.15057603
0.15053697
0.15051526
0.15050567
0.15050374
0.15050371
0.15050371
0.15050374
0.15050567
0.15051527
0.15053699
0.15057605
0.1505952
0.15042347
0.14929547
0.14594372
0.12035695
0.12406619
0.12528211
0.12550718
0.12549655
0.12545601
0.12543247
0.12542092
0.12541812
0.12541746
0.12541746
0.12541812
0.12542093
0.12543248
0.12545603
0.12549658
0.12550723
0.12528216
0.12406624
0.120357
0.09531667
0.099619445
0.10084148
0.10115043
0.10116346
0.10113408
0.10111694
0.10110909
0.10110867
0.10110887
0.10110887
0.10110867
0.1011091
0.10111695
0.10113411
0.1011635
0.10115048
0.10084153
0.099619503
0.095316722
0.068001265
0.072991182
0.074255235
0.07468449
0.074759569
0.074756793
0.07475996
0.074765202
0.074772461
0.074775998
0.074775999
0.074772461
0.074765205
0.074759973
0.074756818
0.074759605
0.074684539
0.074255286
0.072991236
0.068001311
0.037351881
0.042623648
0.044004082
0.044558066
0.044735295
0.044793059
0.044832028
0.044859516
0.044879068
0.044888097
0.044888096
0.044879065
0.044859514
0.044832034
0.044793074
0.044735319
0.0445581
0.044004116
0.042623684
0.037351907
0.0068356703
0.0111356
0.012431383
0.013020207
0.013338153
0.01346404
0.01353824
0.013584632
0.013613205
0.013626109
0.013626108
0.013613201
0.013584625
0.013538238
0.013464043
0.013338161
0.01302022
0.012431395
0.011135614
0.0068356776
0
0
0
0
0
0
0
0
0
0
0
0
0
0
0
0
0
0
0
0
0
0
0
0
0
0
0
0
0
0
0
0
0
0
0
0
0
0
0
0
0
0
0
0
0
0
0
0
0
0
0
0
0
0
0
0
0
0
0
0
0
0
0
0
0
0
0
0
0
0
0
0
0
0
0
0
0
0
0
0
0
0
0
0
0
0
0
0
0
0
0
0
0
0
0
0
0
0
0
0
0
0
0
0
0
0
0
0
0
0
0
0
0
0
0
0
0
0
0
0
0
0
0
0
0
0
0
0
0
0
0
0
0
0
0
0
0
0
0
0
0
0
0
0
0
0
0
0
0
0
0
0
0
0
0
0
0
0
0
0
0
0
0
0
0
0
0
0
0
0
0
0
0
0
0
0
0
0
0
0
0
0
0
0
0
0
0
0
0
0
0
0
0
0
0
0
0
0
0
0
0
0
0
0
0
0
0
0
0
0
0
0
0
0
0
0
0
0
0
0
0
0
0
0
0
0
0
0
0
0
0
0
0
0
0
0
0
0
0
0
0
0
0
0
0
0
0
0
0
0
0
0
0
0
0
0
0
0
0
0
0
0
0
0
0
0
0
0
0
0
0
0
0
0
0
0
0
0
0
0
0
0
0
0
0
0
0
0
0
0
0
0
0
0
0
0
0
0
0
0
0
0
0
0
0
0
0
0
0
0
0
0
0
0
0
0
0
0
0
0
0
0
0
0
0
0
0
0
0
0
0
0
0
0
0
0
0
0
0
0
0
0
0
0
0
0
0
0
0
0
0
0
0
0
0
0
0
0
0
0
0
0
0
0
0
0
0
0
0
0
0
0
0
0
0
0
0
0
0
0
0
0
0
0
0
0
0
0
0
0
0
0
0
0
0
0
0
0
0
0
0
0
0
0
0
0
0
0
0
0
0
0
0
0
0
0
0
0
0
0
0
0
0
0
0
0
0
0
0
0
0
0
0
0
0
0
0
0
0
0
0
0
0
0
0
0
0
0
0
0
0
0
0
0
0
0
0
0
0
0
0
0
0
0
0
0
0
0
0
0
0
0
0
0
0
0
0
0
0
0
0
0
0
0
0
0
0
0
0
0
0
0
0
0
0
0
0
0
0
0
0
0
0
0
0
0
0
0
0
0
0
0
0
0
0
0
0
0
0
0
0
0
0
0
0
0
0
0
0
0
0
0
0
0
0
0
0
0
0
0
0
0
0
0
0
0
0
0
0
0
0
0
0
0
0
0
0
0
0
0
0
0
0
0
0
0
0
0
0
0
0
0
0
0
0
0
0
0
0
0
)
;

boundaryField
{
    Wall
    {
        type            zeroGradient;
    }
    frontAndBack
    {
        type            empty;
    }
    atmosphere
    {
        type            zeroGradient;
    }
}


// ************************************************************************* //
