/*--------------------------------*- C++ -*----------------------------------*\
| =========                 |                                                 |
| \\      /  F ield         | OpenFOAM: The Open Source CFD Toolbox           |
|  \\    /   O peration     | Version:  3.0.1                                 |
|   \\  /    A nd           | Web:      www.OpenFOAM.org                      |
|    \\/     M anipulation  |                                                 |
\*---------------------------------------------------------------------------*/
FoamFile
{
    version     2.0;
    format      ascii;
    class       volScalarField;
    location    "23";
    object      g1_CO2;
}
// * * * * * * * * * * * * * * * * * * * * * * * * * * * * * * * * * * * * * //

dimensions      [0 0 0 0 0 0 0];

internalField   nonuniform List<scalar> 
800
(
0.48045698
0.48049063
0.48049677
0.48049763
0.48049789
0.48049814
0.48049841
0.48049864
0.4804988
0.48049888
0.48049888
0.4804988
0.48049864
0.48049841
0.48049815
0.4804979
0.48049764
0.48049677
0.48049063
0.48045698
0.50007902
0.50000131
0.50004403
0.50004567
0.50003036
0.50001239
0.49999758
0.49998721
0.49998085
0.49997784
0.49997784
0.49998084
0.4999872
0.49999758
0.50001238
0.50003035
0.50004566
0.50004401
0.50000129
0.50007899
0.52538599
0.52505479
0.52503833
0.52504283
0.52502351
0.52499866
0.52497754
0.5249625
0.52495318
0.52494873
0.52494873
0.52495318
0.5249625
0.52497753
0.52499864
0.52502349
0.52504281
0.5250383
0.52505476
0.52538596
0.5628268
0.56173265
0.56159264
0.56160157
0.56157898
0.56155066
0.56152549
0.56150739
0.56149594
0.56149045
0.56149045
0.56149593
0.56150739
0.56152548
0.56155064
0.56157895
0.56160154
0.56159261
0.56173262
0.56282677
0.61743257
0.61492484
0.61462394
0.61452022
0.61448471
0.61444793
0.61441562
0.61439255
0.61437774
0.61437073
0.61437073
0.61437774
0.61439254
0.61441561
0.61444791
0.61448469
0.61452021
0.61462393
0.61492482
0.61743257
0.6915283
0.68701629
0.68650677
0.68627793
0.68620637
0.68614399
0.68609417
0.68605983
0.68603797
0.68602777
0.68602778
0.68603797
0.68605983
0.68609417
0.68614399
0.68620636
0.68627793
0.68650677
0.6870163
0.69152831
0.78453031
0.77810599
0.77696833
0.77663104
0.77647903
0.77636043
0.77627424
0.776217
0.7761817
0.77616544
0.77616544
0.7761817
0.776217
0.77627425
0.77636043
0.77647903
0.77663104
0.77696833
0.778106
0.78453032
0.89228065
0.8849005
0.88296432
0.88245345
0.88214677
0.88192414
0.88177313
0.88167659
0.88161937
0.88159328
0.88159329
0.88161937
0.88167659
0.88177313
0.88192415
0.88214677
0.88245345
0.88296432
0.88490051
0.89228065
0.99965006
0.99582554
0.9926416
0.9918192
0.99309964
0.99268976
0.99244011
0.99228854
0.99220235
0.99216362
0.99216362
0.99220234
0.99228853
0.9924401
0.99268975
0.99309962
0.99181919
0.99264158
0.99582552
0.99965001
1.0481864
1.0686192
1.0642431
1.0631492
1.0654722
1.0705428
1.0702005
1.070007
1.0699041
1.0698595
1.0698595
1.0699041
1.070007
1.0702005
1.0705427
1.0654721
1.0631491
1.064243
1.0686191
1.0481863
0.84584401
0.92255505
0.94070055
0.9407097
0.96071972
0.96684664
0.96666403
0.96660033
0.96658481
0.96658321
0.96658319
0.96658476
0.96660024
0.96666392
0.96684651
0.96071957
0.94070954
0.94070036
0.92255482
0.84584369
0.52864607
0.57748027
0.59199117
0.59403011
0.60238919
0.60701575
0.60735671
0.60761512
0.60778378
0.60786771
0.60786768
0.60778369
0.60761497
0.60735651
0.60701552
0.60238892
0.59402981
0.59199085
0.57747992
0.52864565
0.28398402
0.3241538
0.33513334
0.33994235
0.34461991
0.34685408
0.34725838
0.34752929
0.34769205
0.34776918
0.34776915
0.34769198
0.34752917
0.34725821
0.34685388
0.34461967
0.33994209
0.33513307
0.32415352
0.28398374
0
0
0
0
0
0
0
0
0
0
0
0
0
0
0
0
0
0
0
0
0
0
0
0
0
0
0
0
0
0
0
0
0
0
0
0
0
0
0
0
0
0
0
0
0
0
0
0
0
0
0
0
0
0
0
0
0
0
0
0
0
0
0
0
0
0
0
0
0
0
0
0
0
0
0
0
0
0
0
0
0
0
0
0
0
0
0
0
0
0
0
0
0
0
0
0
0
0
0
0
0
0
0
0
0
0
0
0
0
0
0
0
0
0
0
0
0
0
0
0
0
0
0
0
0
0
0
0
0
0
0
0
0
0
0
0
0
0
0
0
0
0
0
0
0
0
0
0
0
0
0
0
0
0
0
0
0
0
0
0
0
0
0
0
0
0
0
0
0
0
0
0
0
0
0
0
0
0
0
0
0
0
0
0
0
0
0
0
0
0
0
0
0
0
0
0
0
0
0
0
0
0
0
0
0
0
0
0
0
0
0
0
0
0
0
0
0
0
0
0
0
0
0
0
0
0
0
0
0
0
0
0
0
0
0
0
0
0
0
0
0
0
0
0
0
0
0
0
0
0
0
0
0
0
0
0
0
0
0
0
0
0
0
0
0
0
0
0
0
0
0
0
0
0
0
0
0
0
0
0
0
0
0
0
0
0
0
0
0
0
0
0
0
0
0
0
0
0
0
0
0
0
0
0
0
0
0
0
0
0
0
0
0
0
0
0
0
0
0
0
0
0
0
0
0
0
0
0
0
0
0
0
0
0
0
0
0
0
0
0
0
0
0
0
0
0
0
0
0
0
0
0
0
0
0
0
0
0
0
0
0
0
0
0
0
0
0
0
0
0
0
0
0
0
0
0
0
0
0
0
0
0
0
0
0
0
0
0
0
0
0
0
0
0
0
0
0
0
0
0
0
0
0
0
0
0
0
0
0
0
0
0
0
0
0
0
0
0
0
0
0
0
0
0
0
0
0
0
0
0
0
0
0
0
0
0
0
0
0
0
0
0
0
0
0
0
0
0
0
0
0
0
0
0
0
0
0
0
0
0
0
0
0
0
0
0
0
0
0
0
0
0
0
0
0
0
0
0
0
0
0
0
0
0
0
0
0
0
0
0
0
0
0
0
0
0
0
0
0
0
0
0
0
0
0
0
0
0
0
0
0
0
0
0
0
0
0
0
0
0
0
0
0
0
0
0
0
0
0
0
0
0
0
0
0
0
0
0
0
0
)
;

boundaryField
{
    Wall
    {
        type            zeroGradient;
    }
    frontAndBack
    {
        type            empty;
    }
    atmosphere
    {
        type            zeroGradient;
    }
}


// ************************************************************************* //
