/*--------------------------------*- C++ -*----------------------------------*\
| =========                 |                                                 |
| \\      /  F ield         | OpenFOAM: The Open Source CFD Toolbox           |
|  \\    /   O peration     | Version:  3.0.1                                 |
|   \\  /    A nd           | Web:      www.OpenFOAM.org                      |
|    \\/     M anipulation  |                                                 |
\*---------------------------------------------------------------------------*/
FoamFile
{
    version     2.0;
    format      ascii;
    class       volScalarField;
    location    "23";
    object      mOne;
}
// * * * * * * * * * * * * * * * * * * * * * * * * * * * * * * * * * * * * * //

dimensions      [0 0 0 0 0 0 0];

internalField   nonuniform List<scalar> 
800
(
9.188774
9.18938
9.1894355
9.1894261
9.1894151
9.1894068
9.1894016
9.1893983
9.1893962
9.1893951
9.1893952
9.1893962
9.1893983
9.1894017
9.1894069
9.1894151
9.1894263
9.1894356
9.18938
9.1887741
8.8478551
8.8616021
8.8637843
8.8639733
8.8638609
8.8637945
8.8637941
8.863826
8.8638606
8.8638812
8.8638812
8.8638606
8.863826
8.8637941
8.8637946
8.8638609
8.8639734
8.8637844
8.8616022
8.847855
8.5415359
8.5606006
8.5660634
8.5666394
8.5665738
8.5665202
8.5665505
8.5666221
8.5666906
8.5667306
8.5667307
8.5666906
8.566622
8.5665505
8.5665202
8.5665737
8.5666395
8.5660634
8.5606007
8.5415357
8.2839342
8.3067791
8.3146848
8.3154005
8.3153251
8.3152578
8.3153011
8.3153973
8.3154886
8.3155421
8.3155422
8.3154886
8.3153972
8.315301
8.3152578
8.315325
8.3154005
8.3146849
8.3067791
8.283934
8.0572604
8.0835304
8.0931712
8.0955391
8.0953807
8.0952553
8.0952846
8.0953878
8.0954907
8.0955523
8.0955523
8.0954907
8.0953877
8.0952845
8.0952553
8.0953807
8.0955392
8.0931714
8.0835304
8.0572602
7.8210814
7.8551695
7.8661485
7.8705174
7.8702025
7.8699778
7.8699703
7.8700665
7.8701744
7.8702413
7.8702413
7.8701744
7.8700663
7.8699702
7.8699777
7.8702025
7.8705175
7.8661486
7.8551696
7.8210812
7.5228605
7.5737327
7.5846059
7.5903728
7.5898609
7.589524
7.5894804
7.5895738
7.5896929
7.5897682
7.5897682
7.5896928
7.5895736
7.5894802
7.5895239
7.5898608
7.5903728
7.584606
7.5737326
7.5228601
7.1045724
7.1789155
7.1932514
7.1996883
7.1989487
7.198554
7.1985264
7.1986626
7.1988236
7.1989219
7.1989219
7.1988234
7.1986624
7.1985261
7.1985538
7.1989484
7.1996881
7.1932512
7.1789153
7.1045719
6.4981224
6.607187
6.6258221
6.6327201
6.638307
6.6379743
6.6381108
6.6383995
6.6386699
6.6388234
6.6388233
6.6386696
6.6383991
6.6381104
6.6379738
6.6383065
6.6327196
6.6258216
6.6071863
6.4981214
5.635643
5.7945544
5.8190109
5.8269004
5.8365875
5.844707
5.8453133
5.8459457
5.846431
5.8466878
5.8466877
5.8464306
5.8459452
5.8453126
5.8447062
5.8365867
5.8268996
5.81901
5.7945533
5.6356415
4.5366047
4.7177084
4.757552
4.7674996
4.7837759
4.7935829
4.7950303
4.7961927
4.7969823
4.7973799
4.7973797
4.7969819
4.7961921
4.7950294
4.7935819
4.7837749
4.7674984
4.7575507
4.7177069
4.5366028
3.410576
3.5795023
3.6245951
3.6368243
3.6519657
3.6598025
3.6619898
3.6635474
3.664527
3.6650045
3.6650043
3.6645266
3.6635467
3.6619889
3.6598014
3.6519645
3.636823
3.6245937
3.5795008
3.4105741
2.3382717
2.5000774
2.5458811
2.567181
2.5805028
2.5859615
2.5881719
2.5896442
2.5905232
2.5909381
2.590938
2.5905229
2.5896436
2.5881712
2.5859605
2.5805018
2.5671798
2.5458799
2.5000762
2.3382703
1.456251
1.5861256
1.6363648
1.6571609
1.6674113
1.6707947
1.6722359
1.6730806
1.673542
1.6737381
1.673738
1.6735418
1.6730802
1.6722353
1.6707941
1.6674106
1.6571601
1.636364
1.5861248
1.4562502
0.81397048
0.94475567
1.004611
1.0275076
1.0352827
1.0364033
1.0360539
1.0355792
1.0352149
1.0349973
1.0349973
1.0352147
1.0355789
1.0360535
1.0364029
1.0352822
1.0275071
1.0046104
0.94475514
0.81397014
0.36927475
0.52797288
0.5977808
0.624061
0.63053228
0.62920379
0.62633302
0.62389648
0.62227656
0.6214379
0.62143783
0.62227639
0.62389622
0.62633272
0.62920345
0.63053191
0.62406059
0.59778038
0.52797252
0.36927467
0.12600432
0.27291653
0.34430495
0.37329817
0.38043346
0.37833546
0.37397287
0.37009283
0.36744237
0.36607654
0.36607647
0.36744222
0.3700926
0.37397262
0.37833518
0.38043318
0.37329788
0.34430466
0.2729163
0.12600433
0.032472715
0.12994119
0.19023746
0.21806156
0.22618738
0.22495514
0.22081225
0.21677407
0.21388937
0.2123784
0.21237834
0.21388923
0.21677388
0.22081205
0.22495493
0.22618717
0.21806137
0.19023728
0.12994106
0.032472723
0.0066276698
0.056956412
0.10034057
0.12351641
0.13159864
0.13158131
0.12855803
0.12525135
0.12277193
0.12144641
0.12144636
0.12277182
0.12525119
0.12855787
0.13158116
0.13159851
0.12351629
0.10034047
0.056956357
0.0066276717
0.0011376911
0.023025252
0.050419755
0.067554633
0.074535007
0.075335948
0.073513733
0.07120424
0.069381767
0.06838663
0.068386592
0.069381679
0.071204118
0.073513615
0.075335842
0.074534918
0.067554566
0.050419707
0.023025232
0.0011376913
0.00017306963
0.008637393
0.024136171
0.035604414
0.040964503
0.04206474
0.041144454
0.039711667
0.038516162
0.037849084
0.037849056
0.038516099
0.039711579
0.041144371
0.042064669
0.040964449
0.035604378
0.02413615
0.0086373869
0.00017306961
2.4218559e-05
0.0030335552
0.011024807
0.01807573
0.021812334
0.022852066
0.02247934
0.021672667
0.020955234
0.020545673
0.020545653
0.020955192
0.021672607
0.022479286
0.022852022
0.021812304
0.018075714
0.011024799
0.0030335538
2.4218543e-05
3.1932049e-06
0.0010066358
0.0048176188
0.008845081
0.011246874
0.01206342
0.011967862
0.011551295
0.01115138
0.010917326
0.010917314
0.011151352
0.011551256
0.011967828
0.012063394
0.011246858
0.008845075
0.0048176165
0.0010066357
3.193201e-06
4.0260084e-07
0.00031807313
0.0020199397
0.0041767507
0.0056167854
0.0061848477
0.0062022948
0.0060044014
0.0057953125
0.0056694718
0.0056694642
0.0057952957
0.0060043778
0.0062022741
0.0061848329
0.0056167777
0.0041767492
0.0020199395
0.00031807327
4.0260027e-07
4.897704e-08
9.6284066e-05
0.00081498288
0.0019060402
0.0027185559
0.0030796293
0.003127308
0.0030412413
0.0029380625
0.0028739325
0.002873928
0.0029380526
0.0030412276
0.0031272962
0.0030796214
0.0027185525
0.0019060404
0.00081498329
9.6284184e-05
4.8976997e-08
5.7803299e-09
2.80498e-05
0.00031724846
0.00084184664
0.0012762785
0.0014897701
0.0015339995
0.0015003073
0.0014520652
0.0014209247
0.0014209222
0.0014520597
0.0015002996
0.001533993
0.001489766
0.0012762771
0.00084184718
0.00031724885
2.8049864e-05
5.7803329e-09
6.6406376e-10
7.8907119e-06
0.00011941958
0.00036038828
0.00058171997
0.00070052052
0.00073213994
0.00072079045
0.00069937754
0.00068491441
0.00068491309
0.00069937456
0.00072078631
0.00073213654
0.00070051854
0.00058171938
0.00036038875
0.00011941984
7.8907401e-06
6.6406563e-10
7.4416386e-11
2.1488679e-06
4.3552713e-05
0.00014973823
0.00025766781
0.00032039455
0.00034012711
0.00033728637
0.0003282631
0.00032182083
0.00032182014
0.00032826155
0.00033728424
0.00034012537
0.00032039359
0.00025766759
0.00014973852
4.3552849e-05
2.1488788e-06
7.4416836e-11
8.1452363e-12
5.6761449e-07
1.5414683e-05
6.0458824e-05
0.00011101857
0.00014263371
0.00015388206
0.00015377707
0.00015017515
0.00014741822
0.00014741787
0.00015017438
0.000153776
0.00015388119
0.00014263326
0.00011101848
6.0458981e-05
1.5414748e-05
5.6761827e-07
8.1453166e-12
8.7155281e-13
1.4565324e-07
5.3021636e-06
2.3749125e-05
4.6571352e-05
6.185218e-05
6.7840974e-05
6.8341728e-05
6.6987179e-05
6.5852602e-05
6.5852437e-05
6.6986805e-05
6.8341208e-05
6.7840557e-05
6.1851967e-05
4.6571317e-05
2.3749201e-05
5.3021918e-06
1.4565444e-07
8.7156496e-13
9.1919814e-14
3.6355417e-08
1.774665e-06
9.0855874e-06
1.9037592e-05
2.6146259e-05
2.9163021e-05
2.9622241e-05
2.9147734e-05
2.869868e-05
2.8698603e-05
2.9147557e-05
2.9621995e-05
2.9162824e-05
2.6146161e-05
1.9037576e-05
9.0856212e-06
1.7746764e-06
3.6355774e-08
9.1907581e-14
2.1868385e-14
8.8365883e-09
5.7864811e-07
3.3884326e-06
7.5899678e-06
1.078223e-05
1.2232035e-05
1.2529866e-05
1.2378616e-05
1.2207841e-05
1.2207807e-05
1.2378535e-05
1.2529753e-05
1.2231944e-05
1.0782185e-05
7.5899601e-06
3.3884465e-06
5.7865241e-07
8.8366878e-09
2.1668179e-14
1.5199787e-14
2.0938376e-09
1.8399049e-07
1.233047e-06
2.9535906e-06
4.3407811e-06
5.0093673e-06
5.1753844e-06
5.1339055e-06
5.0716397e-06
5.0716245e-06
5.1338691e-06
5.1753331e-06
5.0093263e-06
4.3407604e-06
2.9535865e-06
1.2330524e-06
1.8399202e-07
2.0938606e-09
1.5114824e-14
5.2039429e-15
4.8455798e-10
5.7105154e-08
4.3819261e-07
1.1227273e-06
1.7072376e-06
2.004356e-06
2.0887271e-06
2.0806355e-06
2.0589594e-06
2.0589528e-06
2.0806196e-06
2.0887046e-06
2.0043379e-06
1.7072284e-06
1.1227253e-06
4.3819458e-07
5.7105663e-08
4.8456116e-10
5.1792615e-15
1.2753609e-15
1.0959308e-10
1.7317098e-08
1.521956e-07
4.1718346e-07
6.5642139e-07
7.8407665e-07
8.2420951e-07
8.2448514e-07
8.1733288e-07
8.1733008e-07
8.2447837e-07
8.2419992e-07
7.840688e-07
6.5641731e-07
4.1718245e-07
1.5219627e-07
1.7317252e-08
1.0959291e-10
1.2703743e-15
2.5517355e-16
2.4233038e-11
5.1350844e-09
5.1704538e-08
1.5163789e-07
2.4689846e-07
3.0006092e-07
3.1818456e-07
3.1964803e-07
3.1744072e-07
3.1743956e-07
3.1964519e-07
3.1818056e-07
3.000576e-07
2.468967e-07
1.516374e-07
5.1704736e-08
5.1351273e-09
2.4232775e-11
2.5429744e-16
4.2592129e-17
5.2399354e-12
1.4901348e-09
1.7193077e-08
5.3951698e-08
9.0901932e-08
1.1240699e-07
1.2024502e-07
1.2131684e-07
1.2069639e-07
1.2069592e-07
1.2131569e-07
1.2024338e-07
1.1240562e-07
9.0901189e-08
5.395147e-08
1.7193129e-08
1.4901461e-09
5.2398161e-12
4.2480855e-17
5.250203e-18
1.1079166e-12
4.2347616e-10
5.5997684e-09
1.8801426e-08
3.2779976e-08
4.1244426e-08
4.4509538e-08
4.5100275e-08
4.4951229e-08
4.4951045e-08
4.5099813e-08
4.4508886e-08
4.124387e-08
3.2779667e-08
1.8801324e-08
5.5997795e-09
4.234788e-10
1.1078773e-12
5.2406417e-18
4.6858891e-19
2.2917685e-13
1.1794177e-10
1.7875455e-09
6.4212999e-09
1.1584405e-08
1.4830971e-08
1.6146496e-08
1.6431817e-08
1.6407512e-08
1.640744e-08
1.6431637e-08
1.6146241e-08
1.483075e-08
1.1584279e-08
6.4212556e-09
1.7875465e-09
1.1794232e-10
2.2916606e-13
4.666673e-19
4.0351395e-20
4.6476535e-14
3.22163e-11
5.5960677e-10
2.1505371e-09
4.0142575e-09
5.2292444e-09
5.7434515e-09
5.8704174e-09
5.8725328e-09
5.8725059e-09
5.8703487e-09
5.7433541e-09
5.2291587e-09
4.014207e-09
2.1505188e-09
5.5960631e-10
3.2216426e-11
4.6473911e-14
4.0115973e-20
)
;

boundaryField
{
    Wall
    {
        type            zeroGradient;
    }
    frontAndBack
    {
        type            empty;
    }
    atmosphere
    {
        type            zeroGradient;
    }
}


// ************************************************************************* //
