/*--------------------------------*- C++ -*----------------------------------*\
| =========                 |                                                 |
| \\      /  F ield         | OpenFOAM: The Open Source CFD Toolbox           |
|  \\    /   O peration     | Version:  3.0.1                                 |
|   \\  /    A nd           | Web:      www.OpenFOAM.org                      |
|    \\/     M anipulation  |                                                 |
\*---------------------------------------------------------------------------*/
FoamFile
{
    version     2.0;
    format      ascii;
    class       volScalarField;
    location    "23";
    object      mThree;
}
// * * * * * * * * * * * * * * * * * * * * * * * * * * * * * * * * * * * * * //

dimensions      [0 0 0 0 0 0 0];

internalField   nonuniform List<scalar> 
800
(
7.5461405e-24
7.5477092e-24
7.5478616e-24
7.547844e-24
7.5478206e-24
7.5478035e-24
7.5477933e-24
7.5477869e-24
7.547783e-24
7.547781e-24
7.5477812e-24
7.547783e-24
7.5477869e-24
7.5477934e-24
7.5478038e-24
7.5478207e-24
7.5478443e-24
7.5478619e-24
7.5477094e-24
7.5461407e-24
6.7525186e-24
6.7832307e-24
6.7881811e-24
6.7885943e-24
6.7883197e-24
6.7881524e-24
6.7881386e-24
6.7882024e-24
6.7882754e-24
6.7883196e-24
6.7883197e-24
6.7882753e-24
6.7882023e-24
6.7881386e-24
6.7881525e-24
6.7883197e-24
6.7885945e-24
6.7881813e-24
6.7832308e-24
6.7525184e-24
6.3281004e-24
6.3650958e-24
6.3757389e-24
6.3767589e-24
6.3766279e-24
6.3765559e-24
6.3766535e-24
6.3768243e-24
6.3769787e-24
6.3770667e-24
6.3770668e-24
6.3769787e-24
6.3768242e-24
6.3766535e-24
6.3765559e-24
6.3766279e-24
6.3767591e-24
6.3757392e-24
6.3650961e-24
6.3281002e-24
6.2038251e-24
6.2416492e-24
6.2562668e-24
6.2575114e-24
6.2574618e-24
6.2574826e-24
6.2576904e-24
6.2579609e-24
6.2581875e-24
6.2583134e-24
6.2583135e-24
6.2581876e-24
6.2579609e-24
6.2576906e-24
6.2574828e-24
6.2574621e-24
6.2575119e-24
6.2562673e-24
6.2416496e-24
6.2038252e-24
6.2946154e-24
6.330641e-24
6.3481843e-24
6.3533379e-24
6.3532607e-24
6.3533047e-24
6.3535819e-24
6.3539267e-24
6.3542104e-24
6.3543673e-24
6.3543674e-24
6.3542105e-24
6.3539268e-24
6.3535822e-24
6.3533051e-24
6.3532611e-24
6.3533386e-24
6.348185e-24
6.3306417e-24
6.2946158e-24
6.4856731e-24
6.5280196e-24
6.5478674e-24
6.5582938e-24
6.5580195e-24
6.5579685e-24
6.5582492e-24
6.5586313e-24
6.5589541e-24
6.5591344e-24
6.5591345e-24
6.5589542e-24
6.5586315e-24
6.5582495e-24
6.557969e-24
6.55802e-24
6.5582946e-24
6.5478682e-24
6.5280204e-24
6.4856735e-24
6.6313706e-24
6.7002048e-24
6.718102e-24
6.7325833e-24
6.7318934e-24
6.7316178e-24
6.7318342e-24
6.7322215e-24
6.7325721e-24
6.7327724e-24
6.7327724e-24
6.7325721e-24
6.7322215e-24
6.7318343e-24
6.7316181e-24
6.7318938e-24
6.732584e-24
6.7181027e-24
6.7002054e-24
6.6313707e-24
6.5610858e-24
6.6719812e-24
6.6953616e-24
6.7116075e-24
6.710219e-24
6.7096539e-24
6.7097968e-24
6.7102082e-24
6.7106082e-24
6.7108414e-24
6.7108414e-24
6.7106081e-24
6.710208e-24
6.7097966e-24
6.7096538e-24
6.7102189e-24
6.7116077e-24
6.6953618e-24
6.6719812e-24
6.5610852e-24
6.0752307e-24
6.2550605e-24
6.2831854e-24
6.2994017e-24
6.3146778e-24
6.3138855e-24
6.3141219e-24
6.3146956e-24
6.3152368e-24
6.3155486e-24
6.3155485e-24
6.3152365e-24
6.314695e-24
6.3141212e-24
6.3138848e-24
6.3146771e-24
6.2994011e-24
6.2831847e-24
6.2550595e-24
6.0752291e-24
5.012151e-24
5.2887191e-24
5.3209806e-24
5.3367456e-24
5.3610592e-24
5.3814788e-24
5.3823094e-24
5.3833554e-24
5.384206e-24
5.3846721e-24
5.384672e-24
5.3842055e-24
5.3833545e-24
5.3823083e-24
5.3814776e-24
5.3610578e-24
5.3367442e-24
5.3209791e-24
5.2887172e-24
5.0121484e-24
3.5281608e-24
3.809743e-24
3.862654e-24
3.8783826e-24
3.9140566e-24
3.9354054e-24
3.9374046e-24
3.9391635e-24
3.9404145e-24
3.9410636e-24
3.9410634e-24
3.9404139e-24
3.9391625e-24
3.9374032e-24
3.9354039e-24
3.9140548e-24
3.8783807e-24
3.8626519e-24
3.8097406e-24
3.5281577e-24
2.2035798e-24
2.4091536e-24
2.4561497e-24
2.470587e-24
2.4943118e-24
2.507756e-24
2.5104922e-24
2.5125629e-24
2.5139185e-24
2.5145981e-24
2.5145979e-24
2.5139179e-24
2.512562e-24
2.510491e-24
2.5077546e-24
2.4943102e-24
2.4705852e-24
2.4561478e-24
2.4091515e-24
2.2035772e-24
1.173321e-24
1.3226614e-24
1.355734e-24
1.3757583e-24
1.3908261e-24
1.3977413e-24
1.4001309e-24
1.4018282e-24
1.4028894e-24
1.4034094e-24
1.4034093e-24
1.402889e-24
1.4018275e-24
1.4001301e-24
1.3977403e-24
1.390825e-24
1.375757e-24
1.3557327e-24
1.3226599e-24
1.1733195e-24
5.3931789e-25
6.1314208e-25
6.3437384e-25
6.462062e-25
6.5407548e-25
6.5725783e-25
6.5879305e-25
6.5982851e-25
6.6045235e-25
6.6074887e-25
6.6074881e-25
6.6045217e-25
6.598282e-25
6.5879263e-25
6.5725733e-25
6.5407489e-25
6.4620555e-25
6.3437317e-25
6.1314139e-25
5.393172e-25
2.2718882e-25
2.6882239e-25
2.8355102e-25
2.8970101e-25
2.9317293e-25
2.9439822e-25
2.950452e-25
2.9547158e-25
2.9572129e-25
2.9583311e-25
2.9583308e-25
2.957212e-25
2.9547143e-25
2.9504499e-25
2.9439796e-25
2.9317264e-25
2.8970068e-25
2.8355068e-25
2.6882205e-25
2.2718854e-25
7.8775369e-26
1.1271005e-25
1.2463269e-25
1.2826001e-25
1.2931862e-25
1.2925969e-25
1.2907853e-25
1.2894293e-25
1.28854e-25
1.2880376e-25
1.2880374e-25
1.2885396e-25
1.2894286e-25
1.2907842e-25
1.2925956e-25
1.2931846e-25
1.2825984e-25
1.2463251e-25
1.1270988e-25
7.8775284e-26
2.0543891e-26
4.392379e-26
5.3638626e-26
5.6675491e-26
5.7126733e-26
5.6680099e-26
5.6149078e-26
5.5734715e-26
5.5462999e-26
5.532443e-26
5.5324419e-26
5.5462973e-26
5.5734672e-26
5.6149019e-26
5.6680026e-26
5.7126649e-26
5.6675399e-26
5.3638534e-26
4.3923712e-26
2.0543872e-26
4.0248368e-27
1.5682426e-26
2.2216323e-26
2.4667725e-26
2.5117654e-26
2.4803e-26
2.434454e-26
2.3954225e-26
2.3687179e-26
2.3549837e-26
2.3549831e-26
2.3687163e-26
2.3954201e-26
2.4344507e-26
2.480296e-26
2.511761e-26
2.4667679e-26
2.221628e-26
1.5682394e-26
4.0248335e-27
6.1883721e-28
5.1136028e-27
8.7697769e-27
1.044852e-26
1.087913e-26
1.0756202e-26
1.0480829e-26
1.0221474e-26
1.0035743e-26
9.938554e-27
9.9385504e-27
1.0035734e-26
1.022146e-26
1.0480811e-26
1.0756181e-26
1.0879108e-26
1.0448498e-26
8.7697587e-27
5.1135919e-27
6.1883669e-28
7.9139142e-29
1.5267235e-27
3.2855395e-27
4.2740267e-27
4.6019719e-27
4.5875388e-27
4.4545079e-27
4.3127471e-27
4.2061976e-27
4.1493569e-27
4.149355e-27
4.2061926e-27
4.3127395e-27
4.4544987e-27
4.5875284e-27
4.6019614e-27
4.2740172e-27
3.2855326e-27
1.5267202e-27
7.9139073e-29
8.8678651e-30
4.2042773e-28
1.1672674e-27
1.6813805e-27
1.8899555e-27
1.9121875e-27
1.8583592e-27
1.7907051e-27
1.7370556e-27
1.7078355e-27
1.7078345e-27
1.7370531e-27
1.7907012e-27
1.8583546e-27
1.9121826e-27
1.8899508e-27
1.6813766e-27
1.167265e-27
4.2042688e-28
8.8678563e-30
9.0465956e-31
1.0783164e-28
3.9378925e-28
6.3501596e-28
7.5083965e-28
7.7541815e-28
7.574099e-28
7.2842612e-28
7.0396375e-28
6.9033302e-28
6.9033251e-28
7.0396251e-28
7.2842424e-28
7.5740778e-28
7.7541595e-28
7.508377e-28
6.3501451e-28
3.9378845e-28
1.0783144e-28
9.0465832e-31
8.6185735e-32
2.6006004e-29
1.2646866e-28
2.3019552e-28
2.8799898e-28
3.0499232e-28
3.005095e-28
2.8922018e-28
2.7894175e-28
2.7306515e-28
2.7306491e-28
2.7894118e-28
2.8921932e-28
3.0050856e-28
3.049914e-28
2.8799823e-28
2.3019502e-28
1.2646843e-28
2.6005965e-29
8.618557e-32
7.7930123e-33
5.9448599e-30
3.8778114e-29
8.0143813e-29
1.0656687e-28
1.1614154e-28
1.1577655e-28
1.1176561e-28
1.0774474e-28
1.053765e-28
1.0537639e-28
1.0774448e-28
1.1176524e-28
1.1577615e-28
1.1614117e-28
1.065666e-28
8.014366e-29
3.8778057e-29
5.9448537e-30
7.792993e-33
6.7561557e-34
1.2960013e-30
1.1383624e-29
2.6825e-29
3.8034154e-29
4.2774618e-29
4.3240526e-29
4.1948127e-29
4.0474654e-29
3.9575919e-29
3.9575874e-29
4.0474547e-29
4.1947974e-29
4.3240369e-29
4.2774482e-29
3.8034068e-29
2.682496e-29
1.1383613e-29
1.2960008e-30
6.7561384e-34
5.6512693e-35
2.7064848e-31
3.2071211e-30
8.6415911e-30
1.309625e-29
1.5229285e-29
1.5639322e-29
1.5268986e-29
1.4761454e-29
1.4438661e-29
1.4438643e-29
1.4761411e-29
1.5268926e-29
1.5639262e-29
1.5229238e-29
1.3096225e-29
8.6415835e-30
3.2071205e-30
2.7064866e-31
5.6512581e-35
4.5783913e-36
5.4316497e-32
8.6888613e-31
2.6823153e-30
4.3524428e-30
5.2410863e-30
5.4746062e-30
5.3851035e-30
5.2205877e-30
5.110481e-30
5.1104743e-30
5.2205712e-30
5.3850811e-30
5.4745845e-30
5.2410707e-30
4.3524362e-30
2.682315e-30
8.6888677e-31
5.4316604e-32
4.578389e-36
3.6008399e-37
1.0499719e-32
2.2674142e-31
8.0302577e-31
1.3969037e-30
1.7436836e-30
1.8543588e-30
1.8392111e-30
1.7890749e-30
1.7533204e-30
1.753318e-30
1.7890688e-30
1.8392031e-30
1.8543513e-30
1.7436787e-30
1.3969023e-30
8.0302634e-31
2.2674184e-31
1.0499757e-32
3.6008473e-37
2.7530201e-38
1.958235e-33
5.7068135e-32
2.3208696e-31
4.3321021e-31
5.6097038e-31
6.0777439e-31
6.0816621e-31
5.9385531e-31
5.8278595e-31
5.8278507e-31
5.9385318e-31
6.0816347e-31
6.0777187e-31
5.609689e-31
4.3321001e-31
2.3208734e-31
5.7068314e-32
1.9582457e-33
2.7530355e-38
2.0477153e-39
3.5280303e-34
1.3868326e-32
6.4808391e-32
1.2989275e-31
1.7458222e-31
1.9278495e-31
1.9469884e-31
1.9090377e-31
1.8763418e-31
1.8763389e-31
1.9090305e-31
1.9469793e-31
1.9278414e-31
1.7458178e-31
1.2989276e-31
6.4808558e-32
1.3868388e-32
3.5280566e-34
2.0477352e-39
1.4840186e-40
6.1461073e-35
3.2570205e-33
1.7498258e-32
3.7677126e-32
5.258171e-32
5.9198421e-32
6.0356286e-32
5.9436637e-32
5.851537e-32
5.8515276e-32
5.9436401e-32
6.0355992e-32
5.9198166e-32
5.2581584e-32
3.7677146e-32
1.7498319e-32
3.2570398e-33
6.1461657e-35
1.4840078e-40
1.8185869e-41
1.0361226e-35
7.3982476e-34
4.5712866e-33
1.0578512e-32
1.5333648e-32
1.7603983e-32
1.812246e-32
1.7926094e-32
1.7678741e-32
1.7678712e-32
1.7926018e-32
1.8122367e-32
1.7603905e-32
1.5333611e-32
1.0578522e-32
4.5713067e-33
7.3983011e-34
1.0361344e-35
1.8094344e-41
8.042114e-42
1.6915433e-36
1.6265129e-34
1.1562149e-33
2.8765167e-33
4.3315349e-33
5.0717152e-33
5.2722833e-33
5.2388756e-33
5.1757457e-33
5.175737e-33
5.2388524e-33
5.2722546e-33
5.0716914e-33
4.3315244e-33
2.8765203e-33
1.1562209e-33
1.6265267e-34
1.6915644e-36
8.0103617e-42
1.8875232e-42
2.6778138e-37
3.463288e-35
2.8330573e-34
7.5794946e-34
1.1858696e-33
1.4162325e-33
1.4867608e-33
1.4841242e-33
1.4688752e-33
1.4688726e-33
1.4841172e-33
1.4867522e-33
1.4162255e-33
1.1858666e-33
7.5795058e-34
2.833074e-34
3.463321e-35
2.6778427e-37
1.8812199e-42
3.1403991e-43
4.1123461e-38
7.1467499e-36
6.7287649e-35
1.9363072e-34
3.1480748e-34
3.8348681e-34
4.0656704e-34
4.0771803e-34
4.0425866e-34
4.0425792e-34
4.07716e-34
4.0656454e-34
3.8348476e-34
3.1480661e-34
1.9363103e-34
6.7288081e-35
7.1468221e-36
4.1123719e-38
3.1317323e-43
4.2280028e-44
6.127422e-39
1.4300638e-36
1.5499677e-35
4.7983524e-35
8.1073533e-35
1.0074104e-34
1.0786184e-34
1.0866672e-34
1.0793988e-34
1.0793967e-34
1.0866615e-34
1.0786113e-34
1.0074046e-34
8.1073284e-35
4.7983598e-35
1.549978e-35
1.4300785e-36
6.1274279e-39
4.2167161e-44
4.7195293e-45
8.8589903e-40
2.776218e-37
3.4645286e-36
1.1540246e-35
2.0265136e-35
2.5686638e-35
2.7774596e-35
2.8110968e-35
2.7973448e-35
2.7973392e-35
2.8110808e-35
2.77744e-35
2.5686476e-35
2.0265066e-35
1.1540261e-35
3.4645517e-36
2.7762463e-37
8.858932e-40
4.7119963e-45
3.9152151e-46
1.2426852e-40
5.2314395e-38
7.5182964e-37
2.6949845e-36
4.9188626e-36
6.359989e-36
6.9450021e-36
7.061478e-36
7.0396028e-36
7.0395879e-36
7.0614353e-36
6.9449494e-36
6.3599451e-36
4.9188433e-36
2.6949872e-36
7.5183449e-37
5.2314902e-38
1.2426691e-40
3.9141968e-46
2.3360626e-47
1.6916398e-41
9.5735132e-39
1.5847555e-37
6.1139764e-37
1.159921e-36
1.5298715e-36
1.6871002e-36
1.7232719e-36
1.7210181e-36
1.7210142e-36
1.7232608e-36
1.6870864e-36
1.52986e-36
1.1599157e-36
6.1139789e-37
1.584765e-37
9.5735978e-39
1.6916072e-41
2.330532e-47
1.3076128e-48
2.2378684e-42
1.7023074e-39
3.2462554e-38
1.3480943e-37
2.65852e-37
3.5768486e-37
3.9833614e-37
4.0873901e-37
4.0893395e-37
4.0893297e-37
4.0873622e-37
3.9833262e-37
3.5768188e-37
2.6585058e-37
1.348094e-37
3.2462733e-38
1.7023222e-39
2.2378129e-42
1.3019464e-48
)
;

boundaryField
{
    Wall
    {
        type            zeroGradient;
    }
    frontAndBack
    {
        type            empty;
    }
    atmosphere
    {
        type            zeroGradient;
    }
}


// ************************************************************************* //
