/*--------------------------------*- C++ -*----------------------------------*\
| =========                 |                                                 |
| \\      /  F ield         | OpenFOAM: The Open Source CFD Toolbox           |
|  \\    /   O peration     | Version:  3.0.1                                 |
|   \\  /    A nd           | Web:      www.OpenFOAM.org                      |
|    \\/     M anipulation  |                                                 |
\*---------------------------------------------------------------------------*/
FoamFile
{
    version     2.0;
    format      ascii;
    class       volScalarField;
    location    "23";
    object      mTwo;
}
// * * * * * * * * * * * * * * * * * * * * * * * * * * * * * * * * * * * * * //

dimensions      [0 0 0 0 0 0 0];

internalField   nonuniform List<scalar> 
800
(
8.433437e-12
8.4345485e-12
8.4346503e-12
8.4346331e-12
8.4346127e-12
8.4345976e-12
8.434588e-12
8.4345819e-12
8.4345781e-12
8.4345761e-12
8.4345762e-12
8.4345781e-12
8.4345819e-12
8.4345881e-12
8.4345978e-12
8.4346129e-12
8.4346333e-12
8.4346505e-12
8.4345486e-12
8.4334372e-12
7.8273127e-12
7.8510277e-12
7.8548192e-12
7.8551378e-12
7.8549301e-12
7.8548046e-12
7.8547963e-12
7.8548469e-12
7.8549039e-12
7.8549384e-12
7.8549385e-12
7.8549039e-12
7.8548469e-12
7.8547963e-12
7.8548047e-12
7.8549302e-12
7.855138e-12
7.8548193e-12
7.8510278e-12
7.8273125e-12
7.4394407e-12
7.4694318e-12
7.4779695e-12
7.478818e-12
7.4787153e-12
7.4786511e-12
7.4787218e-12
7.4788529e-12
7.4789729e-12
7.4790417e-12
7.4790418e-12
7.4789729e-12
7.4788528e-12
7.4787218e-12
7.4786512e-12
7.4787153e-12
7.4788182e-12
7.4779697e-12
7.469432e-12
7.4394405e-12
7.2452058e-12
7.2773522e-12
7.2892107e-12
7.2902432e-12
7.2901844e-12
7.2901682e-12
7.2903082e-12
7.2905074e-12
7.2906789e-12
7.2907754e-12
7.2907755e-12
7.2906789e-12
7.2905074e-12
7.2903083e-12
7.2901683e-12
7.2901845e-12
7.2902435e-12
7.2892111e-12
7.2773525e-12
7.2452058e-12
7.1872954e-12
7.2197116e-12
7.2338848e-12
7.2378162e-12
7.2377051e-12
7.2376762e-12
7.2378479e-12
7.2380904e-12
7.2382978e-12
7.2384145e-12
7.2384145e-12
7.2382978e-12
7.2380904e-12
7.237848e-12
7.2376765e-12
7.2377054e-12
7.2378166e-12
7.2338853e-12
7.219712e-12
7.1872955e-12
7.1793566e-12
7.2184031e-12
7.2343e-12
7.2419302e-12
7.2416401e-12
7.2415132e-12
7.241667e-12
7.2419232e-12
7.2421513e-12
7.2422817e-12
7.2422817e-12
7.2421513e-12
7.2419232e-12
7.2416671e-12
7.2415134e-12
7.2416403e-12
7.2419307e-12
7.2343005e-12
7.2184036e-12
7.1793567e-12
7.115691e-12
7.1761842e-12
7.1908592e-12
7.2011757e-12
7.2005763e-12
7.2002774e-12
7.2003766e-12
7.2006297e-12
7.200874e-12
7.2010168e-12
7.2010168e-12
7.200874e-12
7.2006296e-12
7.2003766e-12
7.2002776e-12
7.2005764e-12
7.201176e-12
7.1908595e-12
7.1761845e-12
7.1156909e-12
6.8797644e-12
6.9728557e-12
6.9919628e-12
7.0034287e-12
7.0023566e-12
7.0018829e-12
7.0019497e-12
7.0022321e-12
7.0025188e-12
7.0026877e-12
7.0026877e-12
7.0025186e-12
7.0022319e-12
7.0019495e-12
7.0018828e-12
7.0023565e-12
7.0034288e-12
6.9919628e-12
6.9728556e-12
6.8797638e-12
6.3380616e-12
6.4834039e-12
6.5070298e-12
6.5187089e-12
6.5292539e-12
6.5286942e-12
6.5288902e-12
6.5293296e-12
6.5297411e-12
6.5299765e-12
6.5299764e-12
6.5297408e-12
6.5293291e-12
6.5288896e-12
6.5286937e-12
6.5292533e-12
6.5187084e-12
6.5070293e-12
6.4834032e-12
6.3380604e-12
5.3710094e-12
5.592741e-12
5.6215721e-12
5.6336361e-12
5.6509745e-12
5.6656117e-12
5.6663513e-12
5.66721e-12
5.6678918e-12
5.6682605e-12
5.6682603e-12
5.6678914e-12
5.6672093e-12
5.6663504e-12
5.6656107e-12
5.6509734e-12
5.6336349e-12
5.6215708e-12
5.5927395e-12
5.3710073e-12
4.0507568e-12
4.2908797e-12
4.3389233e-12
4.3522219e-12
4.3794469e-12
4.3957872e-12
4.3975867e-12
4.3991114e-12
4.4001759e-12
4.4007223e-12
4.4007221e-12
4.4001754e-12
4.3991105e-12
4.3975855e-12
4.3957859e-12
4.3794454e-12
4.3522203e-12
4.3389216e-12
4.2908778e-12
4.0507542e-12
2.7808253e-12
2.9774483e-12
3.0251402e-12
3.0389668e-12
3.0599055e-12
3.0713451e-12
3.0739726e-12
3.0759153e-12
3.077168e-12
3.0777901e-12
3.0777899e-12
3.0771675e-12
3.0759144e-12
3.0739714e-12
3.0713438e-12
3.059904e-12
3.0389651e-12
3.0251384e-12
2.9774463e-12
2.7808229e-12
1.6826007e-12
1.845766e-12
1.8850294e-12
1.9068026e-12
1.9222439e-12
1.9290229e-12
1.9315556e-12
1.9333166e-12
1.934401e-12
1.9349267e-12
1.9349266e-12
1.9344006e-12
1.933316e-12
1.9315547e-12
1.9290219e-12
1.9222427e-12
1.9068013e-12
1.885028e-12
1.8457646e-12
1.6825991e-12
9.0769192e-13
1.0066498e-12
1.0386857e-12
1.0542198e-12
1.0637504e-12
1.0674206e-12
1.0692081e-12
1.0703805e-12
1.0710729e-12
1.0713956e-12
1.0713955e-12
1.0710727e-12
1.0703801e-12
1.0692076e-12
1.06742e-12
1.0637497e-12
1.054219e-12
1.0386849e-12
1.006649e-12
9.0769107e-13
4.4828452e-13
5.2253012e-13
5.5196906e-13
5.6330431e-13
5.6845896e-13
5.6992028e-13
5.7051333e-13
5.7085836e-13
5.7104248e-13
5.711128e-13
5.7111274e-13
5.7104235e-13
5.7085813e-13
5.7051302e-13
5.699199e-13
5.6845853e-13
5.6330382e-13
5.5196856e-13
5.2252963e-13
4.4828414e-13
1.8248716e-13
2.5859976e-13
2.8830692e-13
2.9816522e-13
3.0060308e-13
3.0014593e-13
2.9928109e-13
2.9859077e-13
2.9813751e-13
2.9789872e-13
2.9789868e-13
2.9813742e-13
2.9859062e-13
2.9928089e-13
3.0014569e-13
3.0060281e-13
2.9816491e-13
2.883066e-13
2.5859947e-13
1.8248704e-13
5.6466285e-14
1.1929946e-13
1.4730991e-13
1.5727702e-13
1.5920549e-13
1.5809929e-13
1.564722e-13
1.5512481e-13
1.5422421e-13
1.5376307e-13
1.5376304e-13
1.5422414e-13
1.5512471e-13
1.5647207e-13
1.5809913e-13
1.5920531e-13
1.5727683e-13
1.4730972e-13
1.192993e-13
5.6466258e-14
1.3311282e-14
5.0857804e-14
7.2654169e-14
8.1722176e-14
8.3890974e-14
8.31269e-14
8.1622626e-14
8.0259508e-14
7.9307154e-14
7.8812925e-14
7.8812905e-14
7.9307105e-14
8.0259435e-14
8.1622536e-14
8.3126794e-14
8.3890862e-14
8.1722063e-14
7.2654065e-14
5.0857727e-14
1.3311279e-14
2.501511e-15
2.0019341e-14
3.4357705e-14
4.144024e-14
4.3597995e-14
4.3354066e-14
4.2329087e-14
4.1291779e-14
4.0531185e-14
4.0128611e-14
4.0128597e-14
4.053115e-14
4.1291728e-14
4.2329027e-14
4.3354e-14
4.3597928e-14
4.1440177e-14
3.4357653e-14
2.001931e-14
2.5015103e-15
3.9724245e-16
7.297685e-15
1.5541036e-14
2.0396659e-14
2.2199341e-14
2.2290122e-14
2.1718405e-14
2.1053722e-14
2.0540725e-14
2.0263415e-14
2.0263406e-14
2.0540701e-14
2.1053687e-14
2.1718367e-14
2.2290083e-14
2.2199303e-14
2.0396627e-14
1.5541013e-14
7.2976739e-15
3.972423e-16
5.6100791e-17
2.4806988e-15
6.7251703e-15
9.7196645e-15
1.1029176e-14
1.1244894e-14
1.0976626e-14
1.0599574e-14
1.0291716e-14
1.0121584e-14
1.0121578e-14
1.0291701e-14
1.0599553e-14
1.0976603e-14
1.1244871e-14
1.1029156e-14
9.7196488e-15
6.7251606e-15
2.4806955e-15
5.6100756e-17
7.3087063e-18
7.9360448e-16
2.7892299e-15
4.4814454e-15
5.3348054e-15
5.5489084e-15
5.4460061e-15
5.2518608e-15
5.0827517e-15
4.9870646e-15
4.9870607e-15
5.0827426e-15
5.2518476e-15
5.4459925e-15
5.5488958e-15
5.3347953e-15
4.4814386e-15
2.7892262e-15
7.9360361e-16
7.3086978e-18
8.9935425e-19
2.4109548e-16
1.1116946e-15
2.0001376e-15
2.5099699e-15
2.673369e-15
2.6460896e-15
2.5542416e-15
2.4677811e-15
2.4175723e-15
2.41757e-15
2.4677759e-15
2.554234e-15
2.6460821e-15
2.6733625e-15
2.5099653e-15
2.000135e-15
1.1116934e-15
2.4109529e-16
8.9935268e-19
1.0606635e-19
7.0079393e-17
4.2702994e-16
8.6500251e-16
1.1485123e-15
1.2562649e-15
1.2570599e-15
1.216992e-15
1.1754202e-15
1.1505617e-15
1.1505604e-15
1.1754173e-15
1.2169879e-15
1.2570559e-15
1.2562616e-15
1.1485103e-15
8.6500165e-16
4.2702967e-16
7.0079379e-17
1.0606613e-19
1.2096033e-20
1.9601843e-17
1.5851513e-16
3.6292918e-16
5.1127556e-16
5.7557276e-16
5.8332946e-16
5.6728583e-16
5.4836461e-16
5.3666262e-16
5.3666194e-16
5.4836305e-16
5.6728366e-16
5.8332744e-16
5.7557125e-16
5.1127478e-16
3.62929e-16
1.5851512e-16
1.9601855e-17
1.2096011e-20
1.341163e-21
5.2981859e-18
5.6994306e-17
1.4791473e-16
2.2154449e-16
2.5710155e-16
2.6427751e-16
2.5848041e-16
2.5029586e-16
2.4503011e-16
2.4502976e-16
2.5029506e-16
2.5847931e-16
2.6427652e-16
2.5710088e-16
2.2154421e-16
1.4791475e-16
5.6994348e-17
5.2981947e-18
1.341162e-21
1.4505743e-22
1.3880004e-18
1.988739e-17
5.8625983e-17
9.3504301e-17
1.1199149e-16
1.1687446e-16
1.1506791e-16
1.1169656e-16
1.0942283e-16
1.0942266e-16
1.1169616e-16
1.1506738e-16
1.16874e-16
1.1199121e-16
9.3504216e-17
5.8626035e-17
1.9887424e-17
1.3880046e-18
1.4505763e-22
1.5336194e-23
3.5320801e-19
6.7451951e-18
2.2621131e-17
3.8464382e-17
4.758756e-17
5.0456523e-17
5.0037798e-17
4.8715139e-17
4.7770483e-17
4.7770401e-17
4.8714949e-17
5.0037545e-17
5.0456308e-17
4.7587439e-17
3.8464362e-17
2.2621169e-17
6.7452138e-18
3.5320964e-19
1.5336261e-23
1.5870221e-24
8.744793e-20
2.2266108e-18
8.5053565e-18
1.5432374e-17
1.973415e-17
2.1269025e-17
2.1255458e-17
2.0762206e-17
2.0383877e-17
2.0383839e-17
2.0762118e-17
2.1255341e-17
2.1268929e-17
1.97341e-17
1.5432372e-17
8.5053783e-18
2.2266197e-18
8.7448486e-20
1.587035e-24
1.6088131e-25
2.1090235e-20
7.1613962e-19
3.1188312e-18
6.0427653e-18
7.9904105e-18
8.7569251e-18
8.8216666e-18
8.6476838e-18
8.5014656e-18
8.5014485e-18
8.6476446e-18
8.8216141e-18
8.7568829e-18
7.9903902e-18
6.0427663e-18
3.1188419e-18
7.1614339e-19
2.1090408e-20
1.6088326e-25
1.6056444e-26
4.9596723e-21
2.2462499e-19
1.1162101e-18
2.3106805e-18
3.1605701e-18
3.5229109e-18
3.5782184e-18
3.5207553e-18
3.4662011e-18
3.4661937e-18
3.5207381e-18
3.5781953e-18
3.5228926e-18
3.1605619e-18
2.3106815e-18
1.1162149e-18
2.2462646e-19
4.9597215e-21
1.6055293e-26
3.0188361e-27
1.1382043e-21
6.8767152e-20
3.9017757e-19
8.6339112e-19
1.2218909e-18
1.3854461e-18
1.4189938e-18
1.4015811e-18
1.3819399e-18
1.3819368e-18
1.4015737e-18
1.4189838e-18
1.3854384e-18
1.2218875e-18
8.633916e-19
3.9017949e-19
6.8767685e-20
1.1382174e-21
2.9964268e-27
1.7753004e-27
2.5511011e-22
2.0563071e-20
1.3329946e-19
3.1542208e-19
4.6195158e-19
5.3286804e-19
5.5039557e-19
5.4577484e-19
5.3896039e-19
5.389591e-19
5.4577174e-19
5.5039135e-19
5.3286479e-19
4.6195018e-19
3.1542226e-19
1.333002e-19
2.0563254e-20
2.5511313e-22
1.7660529e-27
5.7017896e-28
5.5924202e-23
6.010032e-21
4.4536488e-20
1.1272983e-19
1.7087682e-19
2.0054066e-19
2.0890425e-19
2.0797335e-19
2.0570103e-19
2.057005e-19
2.0797208e-19
2.0890251e-19
2.0053932e-19
1.7087625e-19
1.1272989e-19
4.4536761e-20
6.0100905e-21
5.5924684e-23
5.6761259e-28
1.3250964e-28
1.1995528e-23
1.7181283e-21
1.4560733e-20
3.9435371e-20
6.1875117e-20
7.3884198e-20
7.7625151e-20
7.7588738e-20
7.6863808e-20
7.6863596e-20
7.758823e-20
7.7624449e-20
7.3883656e-20
6.1874882e-20
3.9435382e-20
1.4560827e-20
1.7181455e-21
1.1995555e-23
1.3201457e-28
2.5211287e-29
2.5179697e-24
4.8070352e-22
4.6610946e-21
1.3510266e-20
2.1943972e-20
2.6661281e-20
2.825199e-20
2.8352471e-20
2.8132937e-20
2.8132854e-20
2.8352271e-20
2.8251712e-20
2.6661065e-20
2.1943878e-20
1.3510264e-20
4.6611247e-21
4.8070831e-22
2.5179569e-24
2.5127555e-29
4.0084269e-30
5.1727543e-25
1.3169917e-22
1.4617352e-21
4.5352523e-21
7.6260042e-21
9.4276433e-21
1.0076189e-20
1.0152926e-20
1.0090706e-20
1.0090674e-20
1.015285e-20
1.0076081e-20
9.4275591e-21
7.6259667e-21
4.5352492e-21
1.4617444e-21
1.3170045e-22
5.1726792e-25
3.9985838e-30
4.7254263e-31
1.0398072e-25
3.5351599e-23
4.4932172e-22
1.4925137e-21
2.5982141e-21
3.2683431e-21
3.5233196e-21
3.5645637e-21
3.5485202e-21
3.5485082e-21
3.5645347e-21
3.5232788e-21
3.2683109e-21
2.5981993e-21
1.4925115e-21
4.4932432e-22
3.5351913e-23
1.0397821e-25
4.7178959e-31
4.0428703e-32
2.0458323e-26
9.3022715e-24
1.354504e-22
4.8175774e-22
8.6827439e-22
1.1113755e-21
1.2084295e-21
1.2275547e-21
1.2240428e-21
1.2240384e-21
1.227544e-21
1.2084144e-21
1.1113634e-21
8.6826861e-22
4.8175658e-22
1.3545108e-22
9.3023447e-24
2.045765e-26
4.0273819e-32
3.3313647e-33
3.9462599e-27
2.4009659e-24
4.0064623e-23
1.5259537e-22
2.8473854e-22
3.708552e-22
4.0672914e-22
4.1485441e-22
4.1435296e-22
4.1435138e-22
4.1485055e-22
4.0672363e-22
3.7085072e-22
2.8473631e-22
1.5259483e-22
4.0064795e-23
2.4009844e-24
3.9461028e-27
3.3127818e-33
)
;

boundaryField
{
    Wall
    {
        type            zeroGradient;
    }
    frontAndBack
    {
        type            empty;
    }
    atmosphere
    {
        type            zeroGradient;
    }
}


// ************************************************************************* //
