/*--------------------------------*- C++ -*----------------------------------*\
| =========                 |                                                 |
| \\      /  F ield         | OpenFOAM: The Open Source CFD Toolbox           |
|  \\    /   O peration     | Version:  3.0.1                                 |
|   \\  /    A nd           | Web:      www.OpenFOAM.org                      |
|    \\/     M anipulation  |                                                 |
\*---------------------------------------------------------------------------*/
FoamFile
{
    version     2.0;
    format      ascii;
    class       volScalarField;
    location    "23";
    object      mZero;
}
// * * * * * * * * * * * * * * * * * * * * * * * * * * * * * * * * * * * * * //

dimensions      [0 0 0 0 0 0 0];

internalField   nonuniform List<scalar> 
800
(
1e+13
1e+13
1e+13
1e+13
1e+13
1e+13
1e+13
1e+13
1e+13
1e+13
1e+13
1e+13
1e+13
1e+13
1e+13
1e+13
1e+13
1e+13
1e+13
1e+13
1e+13
1e+13
1e+13
1e+13
1e+13
1e+13
1e+13
1e+13
1e+13
1e+13
1e+13
1e+13
1e+13
1e+13
1e+13
1e+13
1e+13
1e+13
1e+13
1e+13
9.8117404e+12
9.8151581e+12
9.8161518e+12
9.8163151e+12
9.816277e+12
9.816221e+12
9.8161832e+12
9.816164e+12
9.816156e+12
9.8161536e+12
9.8161536e+12
9.8161559e+12
9.8161639e+12
9.8161832e+12
9.8162209e+12
9.8162769e+12
9.816315e+12
9.8161516e+12
9.815158e+12
9.8117402e+12
9.4817573e+12
9.4911022e+12
9.4933357e+12
9.4935757e+12
9.493455e+12
9.4933048e+12
9.4932074e+12
9.4931571e+12
9.4931353e+12
9.4931283e+12
9.4931282e+12
9.4931352e+12
9.493157e+12
9.4932073e+12
9.4933046e+12
9.4934548e+12
9.4935754e+12
9.4933354e+12
9.491102e+12
9.481757e+12
9.0502897e+12
9.0673645e+12
9.0708518e+12
9.0711314e+12
9.0708872e+12
9.070624e+12
9.0704607e+12
9.070378e+12
9.0703418e+12
9.0703301e+12
9.07033e+12
9.0703417e+12
9.0703778e+12
9.0704605e+12
9.0706237e+12
9.0708869e+12
9.0711311e+12
9.0708514e+12
9.0673642e+12
9.0502892e+12
8.5497199e+12
8.5760859e+12
8.5808936e+12
8.581225e+12
8.580841e+12
8.5804741e+12
8.5802559e+12
8.5801479e+12
8.5801036e+12
8.5800903e+12
8.5800903e+12
8.5801035e+12
8.5801477e+12
8.5802556e+12
8.5804737e+12
8.5808406e+12
8.5812246e+12
8.5808932e+12
8.5760855e+12
8.5497193e+12
8.003609e+12
8.0409964e+12
8.047462e+12
8.0479821e+12
8.0474963e+12
8.0470605e+12
8.0468168e+12
8.0467027e+12
8.0466631e+12
8.0466534e+12
8.0466534e+12
8.0466629e+12
8.0467024e+12
8.0468165e+12
8.0470602e+12
8.047496e+12
8.0479818e+12
8.0474616e+12
8.0409961e+12
8.0036085e+12
7.4268989e+12
7.477118e+12
7.486309e+12
7.487379e+12
7.4868746e+12
7.4864354e+12
7.4862092e+12
7.4861194e+12
7.4861011e+12
7.4861008e+12
7.4861007e+12
7.486101e+12
7.4861192e+12
7.4862089e+12
7.4864351e+12
7.4868744e+12
7.4873788e+12
7.4863087e+12
7.4771177e+12
7.4268984e+12
6.8262389e+12
6.8915046e+12
6.9052298e+12
6.907595e+12
6.907413e+12
6.9070422e+12
6.9068837e+12
6.9068487e+12
6.9068648e+12
6.9068762e+12
6.9068762e+12
6.9068646e+12
6.9068484e+12
6.9068834e+12
6.907042e+12
6.9074128e+12
6.9075949e+12
6.9052296e+12
6.8915044e+12
6.8262386e+12
6.200224e+12
6.2836863e+12
6.305062e+12
6.3100338e+12
6.3106367e+12
6.3104726e+12
6.3104181e+12
6.3104434e+12
6.3104846e+12
6.3104984e+12
6.3104983e+12
6.3104845e+12
6.3104431e+12
6.3104179e+12
6.3104724e+12
6.3106366e+12
6.3100337e+12
6.3050618e+12
6.2836862e+12
6.2002238e+12
5.5390225e+12
5.6460194e+12
5.680388e+12
5.6903255e+12
5.6923922e+12
5.6926753e+12
5.6926546e+12
5.6926538e+12
5.6926523e+12
5.6926299e+12
5.6926298e+12
5.6926521e+12
5.6926535e+12
5.6926544e+12
5.6926751e+12
5.692392e+12
5.6903255e+12
5.6803879e+12
5.6460194e+12
5.5390225e+12
4.8220062e+12
4.961976e+12
5.018458e+12
5.0376797e+12
5.0430699e+12
5.0439131e+12
5.0436207e+12
5.0433131e+12
5.0430743e+12
5.0429159e+12
5.0429157e+12
5.0430741e+12
5.0433126e+12
5.0436204e+12
5.0439128e+12
5.0430698e+12
5.0376797e+12
5.0184579e+12
4.9619761e+12
4.8220064e+12
4.0272705e+12
4.2161618e+12
4.3100133e+12
4.346348e+12
4.3570108e+12
4.3582242e+12
4.3569307e+12
4.3556637e+12
4.3547593e+12
4.3542487e+12
4.3542485e+12
4.354759e+12
4.3556631e+12
4.3569303e+12
4.358224e+12
4.3570107e+12
4.3463481e+12
4.3100131e+12
4.2161619e+12
4.0272709e+12
3.0938426e+12
3.3641617e+12
3.5217402e+12
3.5901496e+12
3.6111952e+12
3.6130579e+12
3.6095874e+12
3.6061113e+12
3.6036907e+12
3.6023911e+12
3.6023908e+12
3.6036903e+12
3.6061106e+12
3.6095869e+12
3.6130576e+12
3.611195e+12
3.5901496e+12
3.5217401e+12
3.364162e+12
3.0938433e+12
2.057262e+12
2.4413845e+12
2.679093e+12
2.7949313e+12
2.834088e+12
2.8377834e+12
2.8303982e+12
2.8225908e+12
2.8171276e+12
2.8142514e+12
2.8142511e+12
2.817127e+12
2.8225898e+12
2.8303975e+12
2.8377829e+12
2.8340876e+12
2.7949311e+12
2.6790928e+12
2.4413847e+12
2.0572628e+12
1.0828352e+12
1.6190425e+12
1.9223822e+12
2.0782705e+12
2.1361125e+12
2.1421478e+12
2.1295833e+12
2.1154672e+12
2.105346e+12
2.1000292e+12
2.1000287e+12
2.1053452e+12
2.115466e+12
2.1295823e+12
2.1421471e+12
2.1361119e+12
2.0782701e+12
1.9223817e+12
1.6190424e+12
1.0828359e+12
4.2160811e+11
9.8417939e+11
1.3146355e+12
1.4913779e+12
1.5613941e+12
1.5700353e+12
1.55385e+12
1.5342863e+12
1.5197138e+12
1.5119706e+12
1.5119701e+12
1.5197128e+12
1.5342848e+12
1.5538489e+12
1.5700344e+12
1.5613934e+12
1.4913773e+12
1.314635e+12
9.8417917e+11
4.2160851e+11
1.2236781e+11
5.4955014e+11
8.5594238e+11
1.0318804e+12
1.1066505e+12
1.1187187e+12
1.1028091e+12
1.0815194e+12
1.0649422e+12
1.0559675e+12
1.055967e+12
1.0649411e+12
1.0815179e+12
1.1028079e+12
1.1187176e+12
1.1066497e+12
1.0318798e+12
8.5594186e+11
5.4954989e+11
1.2236795e+11
2.786228e+10
2.8142973e+11
5.2929236e+11
6.8640262e+11
7.5854296e+11
7.7361169e+11
7.6105115e+11
7.4176186e+11
7.2602745e+11
7.1733637e+11
7.1733584e+11
7.2602636e+11
7.4176035e+11
7.6104991e+11
7.7361067e+11
7.5854215e+11
6.8640206e+11
5.2929192e+11
2.8142957e+11
2.7862314e+10
5.3001477e+09
1.3208257e+11
3.1023771e+11
4.3790642e+11
5.0158922e+11
5.1804076e+11
5.0992723e+11
4.9474202e+11
4.8172978e+11
4.7439863e+11
4.7439816e+11
4.817288e+11
4.9474066e+11
5.0992608e+11
5.1803983e+11
5.0158849e+11
4.3790596e+11
3.102374e+11
1.3208248e+11
5.3001533e+09
8.8909385e+08
5.7082819e+10
1.7226798e+11
2.6758763e+11
3.1946727e+11
3.3536564e+11
3.3123867e+11
3.2057673e+11
3.1092445e+11
3.0537704e+11
3.0537665e+11
3.1092364e+11
3.2057559e+11
3.3123769e+11
3.3536484e+11
3.1946666e+11
2.6758727e+11
1.7226777e+11
5.708277e+10
8.8909449e+08
1.3664862e+08
2.2918963e+10
9.0731134e+10
1.5659923e+11
1.9586009e+11
2.0969234e+11
2.083774e+11
2.0160158e+11
1.9505617e+11
1.9121455e+11
1.9121425e+11
1.9505555e+11
2.0160068e+11
2.0837662e+11
2.0969171e+11
1.9585961e+11
1.5659899e+11
9.0731002e+10
2.291894e+10
1.3664865e+08
19719310
8.6325293e+09
4.5444036e+10
8.7848148e+10
1.1560645e+11
1.2660174e+11
1.2687887e+11
1.2295587e+11
1.1884727e+11
1.1637905e+11
1.1637883e+11
1.1884681e+11
1.2295521e+11
1.2687829e+11
1.2660127e+11
1.1560612e+11
8.7847988e+10
4.5443962e+10
8.63252e+09
19719305
2712263.1
3.0767338e+09
2.1716745e+10
4.7309249e+10
6.5743145e+10
7.382327e+10
7.4765137e+10
7.2698189e+10
7.0291278e+10
6.8805905e+10
6.8805759e+10
7.0290956e+10
7.2697729e+10
7.4764726e+10
7.3822948e+10
6.5742917e+10
4.7309153e+10
2.1716708e+10
3.0767306e+09
2712262.5
358827.05
1.0449169e+09
9.9356498e+09
2.4502912e+10
3.6059032e+10
4.1600514e+10
4.2645325e+10
4.1665454e+10
4.0342685e+10
3.9499765e+10
3.949967e+10
4.0342472e+10
4.166515e+10
4.2645052e+10
4.1600303e+10
3.6058888e+10
2.4502858e+10
9.9356336e+09
1.0449161e+09
358827.26
45916.281
3.3998944e+08
4.3659609e+09
1.222856e+10
1.9099052e+10
2.2672917e+10
2.355629e+10
2.315152e+10
2.2467659e+10
2.201444e+10
2.2014381e+10
2.2467524e+10
2.3151329e+10
2.3556117e+10
2.2672786e+10
1.9098965e+10
1.2228531e+10
4.3659545e+09
3.3998929e+08
45916.384
5702.6119
1.0642725e+08
1.8479566e+09
5.8915091e+09
9.7815856e+09
1.1962591e+10
1.260902e+10
1.2476593e+10
1.2143845e+10
1.1912198e+10
1.1912164e+10
1.2143764e+10
1.2476478e+10
1.2608915e+10
1.1962513e+10
9.781535e+09
5.8914942e+09
1.8479543e+09
1.0642726e+08
5702.6392
688.90901
32155684
7.5529065e+08
2.7449048e+09
4.8502855e+09
6.116215e+09
6.5451285e+09
6.5246023e+09
6.3725722e+09
6.2597918e+09
6.2597721e+09
6.3725254e+09
6.5245361e+09
6.5450676e+09
6.1161702e+09
4.8502575e+09
2.7448972e+09
7.5528993e+08
32155708
688.91459
81.071524
9401788.8
2.9872932e+08
1.238708e+09
2.3314406e+09
3.0332965e+09
3.2973684e+09
3.3130475e+09
3.2482372e+09
3.195888e+09
3.1958772e+09
3.2482112e+09
3.3130108e+09
3.2973343e+09
3.0332717e+09
2.3314256e+09
1.2387043e+09
2.9872915e+08
9401801.7
81.072485
9.3036137
2665886.2
1.1454727e+08
5.4222187e+08
1.0876457e+09
1.460658e+09
1.6135792e+09
1.6346286e+09
1.6092033e+09
1.5860462e+09
1.5860405e+09
1.6091893e+09
1.6346089e+09
1.6135608e+09
1.4606447e+09
1.087638e+09
5.4222004e+08
1.1454723e+08
2665891.5
9.3037598
1.0650244
734412.56
42651028
2.3052337e+08
4.9297988e+08
6.8358898e+08
7.6762258e+08
7.8423291e+08
7.7532884e+08
7.6558629e+08
7.6558341e+08
7.7532156e+08
7.842227e+08
7.6761293e+08
6.8358204e+08
4.9297595e+08
2.3052248e+08
42651025
734414.33
1.0645922
0.44636863
196875.73
15442564
95299461
2.1731396e+08
3.1120459e+08
3.552988e+08
3.6612271e+08
3.6355318e+08
3.5967204e+08
3.5967062e+08
3.635495e+08
3.6611757e+08
3.5529391e+08
3.1120106e+08
2.1731204e+08
95299033
15442564
196876.26
0.44070541
0.40753777
51435.998
5443638.7
38349716
93254165
1.3793411e+08
1.6012914e+08
1.664493e+08
1.6601839e+08
1.6456666e+08
1.6456598e+08
1.6601659e+08
1.6644679e+08
1.6012673e+08
1.3793237e+08
93253240
38349515
5443638.8
51436.022
0.40499519
0.15588632
13129.408
1870319.6
15036456
38989379
59569101
70324284
73743089
73883498
73381854
73381534
73882641
73741899
70323131
59568266
38988948
15036364
1870318.7
13129.311
0.15508284
0.042171839
3277.119
626987.17
5749331.1
15895329
25085470
30116935
31859893
32065027
31910350
31910203
32064631
31859344
30116399
25085080
15895134
5749289.5
626986.17
3277.053
0.041994448
0.0092951187
800.14176
205248.45
2145521.3
6323534.9
10308219
12585870
13431927
13579666
13540883
13540817
13579487
13431680
12585627
10308042
6323448.4
2145502.5
205247.78
800.11433
0.0092613554
0.0017064892
191.13397
65660.433
781999.19
2456531.5
4136140.7
5135750.3
5529399.1
5615513.1
5610501.2
5610472.6
5615434.4
5529290.9
5135642.8
4136062.1
2456494
781991
65660.092
191.12407
0.001701499
0.00022967752
44.655192
20541.26
278566.12
932477.3
1621557.2
2047573.5
2223949.8
2268771.8
2271181.2
2271169
2268738.1
2223903.6
2047527.1
1621523.2
932461.39
278562.64
20541.101
44.652019
0.00022915624
2.2298518e-05
10.208956
6288.1932
97044.186
346076.5
621517.67
798074.91
874438.19
896066.14
898758.02
898752.96
896052.05
874418.87
798055.41
621503.27
346069.9
97042.755
6288.1273
10.208058
2.2195505e-05
2.0969759e-06
2.2895903
1884.9265
33081.591
125653.04
233025.77
304268.7
336301.22
346157.07
347864.07
347862.02
346151.32
336293.32
304260.68
233019.82
125650.38
33081.032
1884.9035
2.2893594
2.0837354e-06
)
;

boundaryField
{
    Wall
    {
        type            zeroGradient;
    }
    frontAndBack
    {
        type            empty;
    }
    atmosphere
    {
        type            zeroGradient;
    }
}


// ************************************************************************* //
