/*--------------------------------*- C++ -*----------------------------------*\
| =========                 |                                                 |
| \\      /  F ield         | OpenFOAM: The Open Source CFD Toolbox           |
|  \\    /   O peration     | Version:  3.0.1                                 |
|   \\  /    A nd           | Web:      www.OpenFOAM.org                      |
|    \\/     M anipulation  |                                                 |
\*---------------------------------------------------------------------------*/
FoamFile
{
    version     2.0;
    format      ascii;
    class       volScalarField;
    location    "23";
    object      node1;
}
// * * * * * * * * * * * * * * * * * * * * * * * * * * * * * * * * * * * * * //

dimensions      [0 0 0 0 0 0 0];

internalField   nonuniform List<scalar> 
800
(
9.1606004e-13
9.1612013e-13
9.161256e-13
9.1612465e-13
9.1612354e-13
9.1612271e-13
9.1612219e-13
9.1612185e-13
9.1612165e-13
9.1612154e-13
9.1612154e-13
9.1612165e-13
9.1612185e-13
9.161222e-13
9.1612273e-13
9.1612355e-13
9.1612466e-13
9.1612561e-13
9.1612014e-13
9.1606004e-13
8.809981e-13
8.8244105e-13
8.8266663e-13
8.8268717e-13
8.8267702e-13
8.8267151e-13
8.8267248e-13
8.826765e-13
8.826805e-13
8.8268284e-13
8.8268284e-13
8.826805e-13
8.8267649e-13
8.8267249e-13
8.8267151e-13
8.8267702e-13
8.8268718e-13
8.8266663e-13
8.8244105e-13
8.8099809e-13
8.6669234e-13
8.6832174e-13
8.6878798e-13
8.6883167e-13
8.6882849e-13
8.6882824e-13
8.6883487e-13
8.68844e-13
8.6885177e-13
8.6885609e-13
8.6885609e-13
8.6885177e-13
8.68844e-13
8.6883488e-13
8.6882824e-13
8.6882849e-13
8.6883169e-13
8.68788e-13
8.6832175e-13
8.6669234e-13
8.6988846e-13
8.7142198e-13
8.7204556e-13
8.7209804e-13
8.7210122e-13
8.7210811e-13
8.7212174e-13
8.7213655e-13
8.7214821e-13
8.721545e-13
8.721545e-13
8.7214821e-13
8.7213656e-13
8.7212175e-13
8.7210812e-13
8.7210124e-13
8.7209807e-13
8.720456e-13
8.7142201e-13
8.6988848e-13
8.8655529e-13
8.8775745e-13
8.8847259e-13
8.8870759e-13
8.887138e-13
8.8872571e-13
8.8874487e-13
8.8876429e-13
8.887791e-13
8.88787e-13
8.88787e-13
8.8877911e-13
8.887643e-13
8.8874489e-13
8.8872573e-13
8.8871383e-13
8.8870764e-13
8.8847264e-13
8.8775749e-13
8.8655532e-13
9.1119542e-13
9.1232496e-13
9.1308479e-13
9.1356028e-13
9.135632e-13
9.135753e-13
9.135971e-13
9.1361939e-13
9.136364e-13
9.1364547e-13
9.1364547e-13
9.1363641e-13
9.136194e-13
9.1359712e-13
9.1357533e-13
9.1356324e-13
9.1356033e-13
9.1308484e-13
9.12325e-13
9.1119545e-13
9.3699896e-13
9.3886584e-13
9.3945347e-13
9.4010926e-13
9.4009804e-13
9.4010379e-13
9.4012456e-13
9.401479e-13
9.4016631e-13
9.4017628e-13
9.4017629e-13
9.4016632e-13
9.4014791e-13
9.4012457e-13
9.4010382e-13
9.4009807e-13
9.401093e-13
9.3945351e-13
9.3886588e-13
9.3699898e-13
9.5612072e-13
9.5939402e-13
9.6013876e-13
9.6087176e-13
9.6082691e-13
9.6081916e-13
9.6083612e-13
9.6086e-13
9.6088014e-13
9.6089142e-13
9.6089143e-13
9.6088014e-13
9.6086e-13
9.6083612e-13
9.6081917e-13
9.6082692e-13
9.6087177e-13
9.6013878e-13
9.5939403e-13
9.5612071e-13
9.5823515e-13
9.6459014e-13
9.654291e-13
9.6616718e-13
9.6696764e-13
9.6694006e-13
9.6695594e-13
9.6698446e-13
9.6700985e-13
9.6702443e-13
9.6702442e-13
9.6700983e-13
9.6698444e-13
9.6695592e-13
9.6694005e-13
9.6696761e-13
9.6616716e-13
9.6542908e-13
9.645901e-13
9.5823509e-13
9.2963208e-13
9.422385e-13
9.4317268e-13
9.4392657e-13
9.4532706e-13
9.4651651e-13
9.465525e-13
9.4660197e-13
9.4664307e-13
9.4666612e-13
9.4666612e-13
9.4664304e-13
9.4660193e-13
9.4655245e-13
9.4651645e-13
9.4532699e-13
9.439265e-13
9.4317261e-13
9.422384e-13
9.2963195e-13
8.6447002e-13
8.8099483e-13
8.8336154e-13
8.8423725e-13
8.8674451e-13
8.882615e-13
8.8836926e-13
8.8847128e-13
8.8854627e-13
8.885862e-13
8.8858619e-13
8.8854624e-13
8.8847122e-13
8.8836919e-13
8.8826141e-13
8.867444e-13
8.8423713e-13
8.8336141e-13
8.8099468e-13
8.6446982e-13
7.846359e-13
8.0087525e-13
8.0355795e-13
8.0456834e-13
8.0667486e-13
8.0795525e-13
8.0816837e-13
8.0833908e-13
8.0845474e-13
8.0851416e-13
8.0851414e-13
8.084547e-13
8.0833901e-13
8.0816827e-13
8.0795513e-13
8.0667472e-13
8.0456818e-13
8.0355779e-13
8.0087505e-13
7.8463565e-13
6.8714664e-13
7.0627366e-13
7.0865613e-13
7.1103726e-13
7.1303133e-13
7.1401317e-13
7.1432074e-13
7.1455191e-13
7.1470191e-13
7.1477749e-13
7.1477748e-13
7.1470187e-13
7.1455183e-13
7.1432064e-13
7.1401304e-13
7.1303117e-13
7.1103709e-13
7.0865595e-13
7.0627345e-13
6.8714639e-13
0
0
0
0
0
0
0
0
0
0
0
0
0
0
0
0
0
0
0
0
0
0
0
0
0
0
0
0
0
0
0
0
0
0
0
0
0
0
0
0
0
0
0
0
0
0
0
0
0
0
0
0
0
0
0
0
0
0
0
0
0
0
0
0
0
0
0
0
0
0
0
0
0
0
0
0
0
0
0
0
0
0
0
0
0
0
0
0
0
0
0
0
0
0
0
0
0
0
0
0
0
0
0
0
0
0
0
0
0
0
0
0
0
0
0
0
0
0
0
0
0
0
0
0
0
0
0
0
0
0
0
0
0
0
0
0
0
0
0
0
0
0
0
0
0
0
0
0
0
0
0
0
0
0
0
0
0
0
0
0
0
0
0
0
0
0
0
0
0
0
0
0
0
0
0
0
0
0
0
0
0
0
0
0
0
0
0
0
0
0
0
0
0
0
0
0
0
0
0
0
0
0
0
0
0
0
0
0
0
0
0
0
0
0
0
0
0
0
0
0
0
0
0
0
0
0
0
0
0
0
0
0
0
0
0
0
0
0
0
0
0
0
0
0
0
0
0
0
0
0
0
0
0
0
0
0
0
0
0
0
0
0
0
0
0
0
0
0
0
0
0
0
0
0
0
0
0
0
0
0
0
0
0
0
0
0
0
0
0
0
0
0
0
0
0
0
0
0
0
0
0
0
0
0
0
0
0
0
0
0
0
0
0
0
0
0
0
0
0
0
0
0
0
0
0
0
0
0
0
0
0
0
0
0
0
0
0
0
0
0
0
0
0
0
0
0
0
0
0
0
0
0
0
0
0
0
0
0
0
0
0
0
0
0
0
0
0
0
0
0
0
0
0
0
0
0
0
0
0
0
0
0
0
0
0
0
0
0
0
0
0
0
0
0
0
0
0
0
0
0
0
0
0
0
0
0
0
0
0
0
0
0
0
0
0
0
0
0
0
0
0
0
0
0
0
0
0
0
0
0
0
0
0
0
0
0
0
0
0
0
0
0
0
0
0
0
0
0
0
0
0
0
0
0
0
0
0
0
0
0
0
0
0
0
0
0
0
0
0
0
0
0
0
0
0
0
0
0
0
0
0
0
0
0
0
0
0
0
0
0
0
0
0
0
0
0
0
0
0
0
0
0
0
0
0
0
0
0
0
0
0
0
0
0
0
0
0
0
0
0
0
0
0
0
0
0
0
0
0
0
0
0
0
0
0
0
0
0
0
0
)
;

boundaryField
{
    Wall
    {
        type            zeroGradient;
    }
    frontAndBack
    {
        type            empty;
    }
    atmosphere
    {
        type            zeroGradient;
    }
}


// ************************************************************************* //
