/*--------------------------------*- C++ -*----------------------------------*\
| =========                 |                                                 |
| \\      /  F ield         | OpenFOAM: The Open Source CFD Toolbox           |
|  \\    /   O peration     | Version:  3.0.1                                 |
|   \\  /    A nd           | Web:      www.OpenFOAM.org                      |
|    \\/     M anipulation  |                                                 |
\*---------------------------------------------------------------------------*/
FoamFile
{
    version     2.0;
    format      ascii;
    class       surfaceScalarField;
    location    "23";
    object      phi;
}
// * * * * * * * * * * * * * * * * * * * * * * * * * * * * * * * * * * * * * //

dimensions      [0 3 -1 0 0 0 0];

internalField   nonuniform List<scalar> 
1540
(
3.116586e-10
1.9113332e-08
3.4810951e-10
1.9398988e-08
2.9977747e-10
1.9484944e-08
2.2967268e-10
1.9506648e-08
1.6474764e-10
1.9501487e-08
1.1271668e-10
1.9488772e-08
7.3363499e-11
1.9476328e-08
4.3700175e-11
1.9466848e-08
2.0318971e-11
1.9460716e-08
1.66983e-15
1.9457727e-08
-2.0316478e-11
1.9457725e-08
-4.3703588e-11
1.9460711e-08
-7.3377221e-11
1.9466839e-08
-1.127456e-10
1.9476315e-08
-1.6479291e-10
1.9488752e-08
-2.297358e-10
1.9501463e-08
-2.9985316e-10
1.950662e-08
-3.481943e-10
1.9484913e-08
-3.1173951e-10
1.9398963e-08
1.9113302e-08
1.5974615e-10
3.8536059e-08
2.5588326e-10
3.888824e-08
2.4685846e-10
3.9086037e-08
2.0043955e-10
3.9145546e-08
1.4846342e-10
3.9145534e-08
1.0318872e-10
3.9125657e-08
6.7530968e-11
3.9103279e-08
4.0195176e-11
3.9085293e-08
1.8637444e-11
3.9073289e-08
-1.6231762e-14
3.9067358e-08
-1.8670629e-11
3.9067353e-08
-4.0232221e-11
3.9073279e-08
-6.7574462e-11
3.9085275e-08
-1.0324239e-10
3.9103254e-08
-1.4852612e-10
3.9125621e-08
-2.0051197e-10
3.9145496e-08
-2.4693694e-10
3.9145507e-08
-2.5596246e-10
3.9086003e-08
-1.5980713e-10
3.8888219e-08
3.8536039e-08
2.419018e-10
5.8110869e-08
2.6169726e-10
5.8692798e-08
2.231871e-10
5.8952228e-08
1.692241e-10
5.9027739e-08
1.192835e-10
5.9022922e-08
7.9300011e-11
5.8992095e-08
4.9944361e-11
5.8958317e-08
2.8723619e-11
5.8931679e-08
1.2994897e-11
5.891388e-08
-2.9330949e-14
5.8905104e-08
-1.30558e-11
5.8905099e-08
-2.878705e-11
5.8913866e-08
-5.0011411e-11
5.8931656e-08
-7.9374023e-11
5.895829e-08
-1.1935813e-10
5.8992052e-08
-1.6930035e-10
5.9022884e-08
-2.2325845e-10
5.9027705e-08
-2.6175585e-10
5.8952208e-08
-2.4193093e-10
5.8692799e-08
5.8110878e-08
2.3676368e-10
7.8185075e-08
2.4103583e-10
7.8994464e-08
1.8447717e-10
7.9313285e-08
1.2441257e-10
7.9400708e-08
7.7195274e-11
7.9381972e-08
4.4752287e-11
7.9334981e-08
2.374538e-11
7.9288615e-08
1.1477318e-11
7.9252446e-08
4.4830304e-12
7.922889e-08
-3.7775052e-14
7.9217413e-08
-4.5616248e-12
7.921741e-08
-1.1556474e-11
7.9228875e-08
-2.3825278e-11
7.9252423e-08
-4.4823874e-11
7.9288583e-08
-7.7272681e-11
7.9334955e-08
-1.2448621e-10
7.9381952e-08
-1.8453072e-10
7.9400686e-08
-2.4106486e-10
7.9313289e-08
-2.3675815e-10
7.8994492e-08
7.8185107e-08
2.1041929e-10
9.9195669e-08
1.9949778e-10
1.0020595e-07
1.3183288e-10
1.00575e-07
6.5597235e-11
1.0065993e-07
2.1538296e-11
1.0061756e-07
-1.5383102e-12
1.0054787e-07
-1.0201058e-11
1.0048565e-07
-1.0477529e-11
1.0044004e-07
-6.2089241e-12
1.0041129e-07
-4.8304763e-14
1.0039761e-07
6.1140298e-12
1.0039761e-07
1.0382954e-11
1.0041128e-07
1.0107569e-11
1.0044002e-07
1.4499209e-12
1.0048563e-07
-2.1610353e-11
1.0054785e-07
-6.563804e-11
1.0061754e-07
-1.318593e-10
1.0065994e-07
-1.9949523e-10
1.0057503e-07
-2.1038457e-10
1.0020599e-07
9.9195699e-08
2.0207627e-10
1.216586e-07
1.476792e-10
1.2287183e-07
6.2435375e-11
1.2325014e-07
-1.3570949e-11
1.2331085e-07
-5.0213484e-11
1.232274e-07
-5.7796554e-11
1.2312668e-07
-5.0078676e-11
1.2304744e-07
-3.5426116e-11
1.2299361e-07
-1.8110536e-11
1.2296138e-07
-5.4959303e-14
1.2294656e-07
1.8000614e-11
1.2294656e-07
3.5321919e-11
1.2296137e-07
4.9979271e-11
1.229936e-07
5.7709135e-11
1.2304743e-07
5.0145198e-11
1.2312667e-07
1.3524994e-11
1.232274e-07
-6.2447108e-11
1.2331087e-07
-1.4765429e-10
1.2325017e-07
-2.0203162e-10
1.2287186e-07
1.2165859e-07
1.800403e-10
1.4618193e-07
7.1571196e-11
1.4753243e-07
-4.1467696e-11
1.4791658e-07
-1.2351305e-10
1.4792199e-07
-1.4160431e-10
1.4777239e-07
-1.2361675e-10
1.476335e-07
-9.3099762e-11
1.4753972e-07
-6.0607675e-11
1.4748234e-07
-2.9596083e-11
1.4745055e-07
-5.8427398e-14
1.4743667e-07
2.9481896e-11
1.4743667e-07
6.0491125e-11
1.4745055e-07
9.2998429e-11
1.4748233e-07
1.2353267e-10
1.4753971e-07
1.4154478e-10
1.476335e-07
1.2348075e-10
1.477724e-07
4.1466732e-11
1.4792201e-07
-7.154364e-11
1.4791659e-07
-1.8000778e-10
1.4753243e-07
1.4618187e-07
7.4970971e-11
1.7332288e-07
-6.7903902e-11
1.7472079e-07
-1.9798146e-10
1.7503683e-07
-2.7791354e-10
1.74965e-07
-2.5713108e-10
1.7478989e-07
-1.940991e-10
1.7460623e-07
-1.3305412e-10
1.7451185e-07
-8.1149827e-11
1.7446151e-07
-3.799764e-11
1.7443703e-07
-5.9134227e-14
1.7442762e-07
3.7881578e-11
1.7442762e-07
8.1043216e-11
1.7443703e-07
1.3295953e-10
1.744615e-07
1.9402246e-10
1.7451185e-07
2.5707846e-10
1.7460624e-07
2.7788845e-10
1.747899e-07
1.9798613e-10
1.74965e-07
6.7917121e-11
1.7503682e-07
-7.496606e-11
1.7472075e-07
1.7332278e-07
-1.5524401e-10
2.0336006e-07
-3.1857781e-10
2.0472467e-07
-4.1329951e-10
2.0487905e-07
-4.4165175e-10
2.0471608e-07
-3.8867804e-10
2.0447196e-07
-2.5385493e-10
2.0433188e-07
-1.5774095e-10
2.0427204e-07
-8.849698e-11
2.0424544e-07
-3.9114838e-11
2.0423852e-07
-5.6448806e-14
2.0423823e-07
3.9003729e-11
2.0423824e-07
8.8393436e-11
2.0423852e-07
1.5765401e-10
2.0424544e-07
2.5378602e-10
2.0427204e-07
3.8862979e-10
2.0433188e-07
4.4162412e-10
2.0447196e-07
4.1328553e-10
2.0471607e-07
3.1856494e-10
2.0487902e-07
1.5521127e-10
2.0472461e-07
2.0335995e-07
-5.7348198e-10
2.3649193e-07
-7.5014706e-10
2.3729883e-07
-7.0192728e-10
2.3726621e-07
-6.4945131e-10
2.3707655e-07
-4.5787351e-10
2.368158e-07
-2.7232138e-10
2.3672142e-07
-1.4810968e-10
2.367163e-07
-7.1995949e-11
2.3673171e-07
-2.8285312e-11
2.3675283e-07
-5.0372504e-14
2.3676582e-07
2.8186918e-11
2.3676582e-07
7.1901755e-11
2.3675283e-07
1.4802815e-10
2.3673171e-07
2.7225798e-10
2.367163e-07
4.5782659e-10
2.3672142e-07
6.4941635e-10
2.3681579e-07
7.0189694e-10
2.3707653e-07
7.5010704e-10
2.3726617e-07
5.7341988e-10
2.3729877e-07
2.3649185e-07
-1.4581775e-09
2.6956419e-07
-1.3438717e-09
2.706019e-07
-9.9753372e-10
2.7080145e-07
-8.4007182e-10
2.7077904e-07
-4.9618318e-10
2.7095624e-07
-2.3354603e-10
2.7104202e-07
-9.1672465e-11
2.7113731e-07
-2.6140427e-11
2.7121496e-07
-3.1565576e-12
2.7126994e-07
-4.1414828e-14
2.7129857e-07
3.078737e-12
2.7129858e-07
2.6077365e-11
2.7126994e-07
9.1608907e-11
2.7121497e-07
2.3349048e-10
2.7113731e-07
4.9613668e-10
2.7104202e-07
8.4003147e-10
2.7095623e-07
9.9749415e-10
2.7077902e-07
1.3438222e-09
2.7080143e-07
1.4581127e-09
2.7060187e-07
2.6956418e-07
-1.9023546e-09
3.0132477e-07
-1.5800174e-09
3.0074283e-07
-1.0449835e-09
3.0073348e-07
-7.0288459e-10
3.0112025e-07
-3.5660594e-10
3.0151352e-07
-1.0346284e-10
3.018141e-07
1.4952386e-11
3.0199782e-07
4.6996832e-11
3.0213485e-07
3.3575031e-11
3.0222115e-07
-3.2782421e-14
3.022639e-07
-3.3640495e-11
3.022639e-07
-4.7062397e-11
3.0222116e-07
-1.5010227e-11
3.0213486e-07
1.0341175e-10
3.0199783e-07
3.5656084e-10
3.018141e-07
7.0284738e-10
3.0151352e-07
1.0449477e-09
3.0112024e-07
1.5799816e-09
3.0073347e-07
1.9023178e-09
3.0074283e-07
3.0132482e-07
-2.1837181e-09
3.2713987e-07
-1.5065625e-09
3.2829763e-07
-6.5310721e-10
3.2974448e-07
-3.2864141e-10
3.307809e-07
-8.849228e-11
3.3158644e-07
8.0312533e-11
3.3217371e-07
1.3781402e-10
3.3250087e-07
1.230768e-10
3.3272083e-07
7.0059712e-11
3.328488e-07
-2.5522434e-14
3.3290844e-07
-7.0110618e-11
3.3290845e-07
-1.2312898e-10
3.3284881e-07
-1.3786594e-10
3.3272086e-07
-8.0361739e-11
3.325009e-07
8.8449904e-11
3.3217373e-07
3.2860574e-10
3.3158646e-07
6.5308303e-10
3.3078092e-07
1.5065475e-09
3.2974451e-07
2.1837144e-09
3.2829769e-07
3.2714002e-07
2.9037597e-09
3.1583121e-07
1.6874614e-09
3.2225751e-07
1.139325e-09
3.2360636e-07
7.9633624e-10
3.2465948e-07
6.3258978e-10
3.2536904e-07
5.2992329e-10
3.2592253e-07
4.2021671e-10
3.2626071e-07
2.8875578e-10
3.2649865e-07
1.4589879e-10
3.2663369e-07
-2.6463307e-14
3.2669334e-07
-1.4595103e-10
3.2669334e-07
-2.8880993e-10
3.2663371e-07
-4.2027075e-10
3.2649868e-07
-5.2997554e-10
3.2626074e-07
-6.3263668e-10
3.2592255e-07
-7.9637355e-10
3.2536906e-07
-1.1393507e-09
3.2465951e-07
-1.6874729e-09
3.236064e-07
-2.9037541e-09
3.2225759e-07
3.1583143e-07
3.1464276e-08
2.8202451e-07
2.3659397e-08
3.2696171e-07
1.5448246e-08
3.2855578e-07
1.0136093e-08
3.2663831e-07
6.7967593e-09
3.2531632e-07
4.6236388e-09
3.2466422e-07
3.0806412e-09
3.24347e-07
1.8940119e-09
3.2421309e-07
8.9923747e-10
3.2414771e-07
-6.9597764e-14
3.2410812e-07
-8.993759e-10
3.2410813e-07
-1.8941471e-09
3.2414772e-07
-3.0807644e-09
3.242131e-07
-4.6237501e-09
3.2434702e-07
-6.7968578e-09
3.2466422e-07
-1.0136173e-08
3.2531633e-07
-1.5448301e-08
3.2663831e-07
-2.3659418e-08
3.2855578e-07
-3.1464261e-08
3.2696177e-07
2.8202479e-07
5.6138387e-08
2.2582438e-07
6.4168583e-08
3.1880946e-07
5.5003692e-08
3.3758059e-07
4.2670066e-08
3.3882655e-07
3.1593383e-08
3.3624392e-07
2.2606599e-08
3.3349926e-07
1.5436496e-08
3.3136344e-07
9.596252e-09
3.2989844e-07
4.5962322e-09
3.2899216e-07
-1.4159989e-13
3.2854861e-07
-4.5965056e-09
3.2854861e-07
-9.5965253e-09
3.2899215e-07
-1.5436729e-08
3.2989843e-07
-2.2606794e-08
3.3136344e-07
-3.1593542e-08
3.3349924e-07
-4.2670202e-08
3.3624389e-07
-5.5003793e-08
3.3882652e-07
-6.4168628e-08
3.3758057e-07
-5.6138394e-08
3.1880949e-07
2.2582456e-07
4.4932572e-08
1.8089196e-07
6.3535869e-08
3.0020597e-07
6.3157545e-08
3.3795849e-07
5.4555356e-08
3.4742826e-07
4.3613012e-08
3.4718571e-07
3.2918785e-08
3.4419292e-07
2.3307352e-08
3.409743e-07
1.4827676e-08
3.3837753e-07
7.1936665e-09
3.3662557e-07
-8.7377472e-14
3.3574174e-07
-7.1938275e-09
3.3574174e-07
-1.4827801e-08
3.3662554e-07
-2.3307468e-08
3.383775e-07
-3.2918888e-08
3.4097427e-07
-4.361307e-08
3.4419285e-07
-5.4555374e-08
3.4718566e-07
-6.3157558e-08
3.4742819e-07
-6.3535852e-08
3.3795844e-07
-4.4932529e-08
3.0020593e-07
1.8089204e-07
3.0130369e-08
1.507618e-07
5.0047768e-08
2.8028875e-07
5.5670158e-08
3.3233624e-07
5.2327325e-08
3.5077123e-07
4.4605159e-08
3.5490803e-07
3.5318659e-08
3.5347953e-07
2.5886637e-08
3.5040645e-07
1.685709e-08
3.4740723e-07
8.2897854e-09
3.45193e-07
-3.6371656e-14
3.4403171e-07
-8.2898756e-09
3.4403169e-07
-1.6857151e-08
3.4519298e-07
-2.5886698e-08
3.474072e-07
-3.5318693e-08
3.5040642e-07
-4.4605149e-08
3.534795e-07
-5.2327307e-08
3.5490797e-07
-5.5670113e-08
3.5077116e-07
-5.0047705e-08
3.3233619e-07
-3.0130317e-08
2.802887e-07
1.5076178e-07
1.8606453e-08
1.3215544e-07
3.5632545e-08
2.6326275e-07
4.365047e-08
3.2431835e-07
4.4107989e-08
3.5031377e-07
3.976028e-08
3.5925581e-07
3.2862555e-08
3.6037727e-07
2.4866779e-08
3.5840228e-07
1.6554368e-08
3.5571969e-07
8.2484086e-09
3.5349901e-07
-3.0930717e-14
3.5228016e-07
-8.2484247e-09
3.5228016e-07
-1.6554382e-08
3.5349898e-07
-2.4866799e-08
3.5571964e-07
-3.2862552e-08
3.5840223e-07
-3.9760243e-08
3.6037725e-07
-4.4107945e-08
3.5925575e-07
-4.3650426e-08
3.5031371e-07
-3.5632467e-08
3.2431831e-07
-1.8606406e-08
2.6326268e-07
1.3215539e-07
1.1007824e-08
1.2114762e-07
2.3963253e-08
2.5030731e-07
3.1991892e-08
3.1628967e-07
3.4468166e-08
3.4783746e-07
3.2652793e-08
3.6107118e-07
2.804705e-08
3.64983e-07
2.1845366e-08
3.6460391e-07
1.4839705e-08
3.6272531e-07
7.483131e-09
3.6085558e-07
1.6109532e-14
3.5976323e-07
-7.4830899e-09
3.5976322e-07
-1.4839673e-08
3.6085555e-07
-2.1845363e-08
3.6272526e-07
-2.804701e-08
3.6460387e-07
-3.2652743e-08
3.6498296e-07
-3.4468122e-08
3.6107114e-07
-3.1991833e-08
3.4783743e-07
-2.3963182e-08
3.1628967e-07
-1.1007779e-08
2.5030729e-07
1.2114759e-07
6.4263603e-09
1.147212e-07
1.5603805e-08
2.4112981e-07
2.2458432e-08
3.0943497e-07
2.5610333e-08
3.4468551e-07
2.5360381e-08
3.6132106e-07
2.2548229e-08
3.6779511e-07
1.802614e-08
3.6912596e-07
1.2471094e-08
3.6828031e-07
6.3569459e-09
3.669697e-07
3.7203218e-14
3.6612009e-07
-6.3568502e-09
3.6612007e-07
-1.2471035e-08
3.6696963e-07
-1.8026052e-08
3.6828021e-07
-2.2548166e-08
3.6912588e-07
-2.5360338e-08
3.6779506e-07
-2.5610291e-08
3.6132105e-07
-2.2458403e-08
3.4468551e-07
-1.560377e-08
3.0943498e-07
-6.4263443e-09
2.4112985e-07
1.1472121e-07
3.7667473e-09
1.1095437e-07
9.9784364e-09
2.3491805e-07
1.5306096e-08
3.0410722e-07
1.834476e-08
3.4164681e-07
1.8897335e-08
3.6076841e-07
1.7330848e-08
3.6936154e-07
1.4184624e-08
3.7227215e-07
9.9768547e-09
3.7248805e-07
5.135281e-09
3.718112e-07
7.2771063e-14
3.7125527e-07
-5.1351562e-09
3.7125523e-07
-9.9767154e-09
3.7181114e-07
-1.4184509e-08
3.7248795e-07
-1.7330766e-08
3.7227207e-07
-1.8897267e-08
3.6936152e-07
-1.834471e-08
3.6076843e-07
-1.5306058e-08
3.4164684e-07
-9.9784241e-09
3.0410728e-07
-3.7667592e-09
2.3491814e-07
1.1095444e-07
2.2257977e-09
1.0872851e-07
6.3048965e-09
2.3083888e-07
1.0198238e-08
3.0021387e-07
1.2766437e-08
3.3907857e-07
1.3623494e-08
3.5991133e-07
1.2848782e-08
3.7013626e-07
1.0742757e-08
3.7437814e-07
7.670143e-09
3.7556066e-07
3.9829687e-09
3.7549834e-07
8.1036124e-14
3.7523811e-07
-3.9828112e-09
3.7523809e-07
-7.6699903e-09
3.7549826e-07
-1.0742617e-08
3.7556056e-07
-1.2848675e-08
3.7437805e-07
-1.3623421e-08
3.701362e-07
-1.2766368e-08
3.5991133e-07
-1.0198201e-08
3.3907863e-07
-6.3048942e-09
3.0021395e-07
-2.2258024e-09
2.3083902e-07
1.0872863e-07
1.3219946e-09
1.0740651e-07
3.9422852e-09
2.282186e-07
6.6652423e-09
2.9749093e-07
8.668719e-09
3.3707513e-07
9.5493764e-09
3.5903068e-07
9.2387645e-09
3.7044688e-07
7.8765684e-09
3.7574038e-07
5.7015035e-09
3.7773573e-07
2.9847068e-09
3.7821518e-07
8.9139742e-14
3.7822277e-07
-2.9845388e-09
3.7822271e-07
-5.7013518e-09
3.7821507e-07
-7.8764229e-09
3.7773563e-07
-9.2386616e-09
3.7574028e-07
-9.5492793e-09
3.704468e-07
-8.6686392e-09
3.5903069e-07
-6.6651957e-09
3.370752e-07
-3.9422603e-09
2.9749106e-07
-1.3219754e-09
2.2821876e-07
1.0740664e-07
7.8433971e-10
1.0662221e-07
2.4367749e-09
2.2656621e-07
4.277962e-09
2.9564981e-07
5.7561301e-09
3.3559701e-07
6.5270473e-09
3.5825981e-07
6.4647787e-09
3.7050915e-07
5.6120261e-09
3.7659319e-07
4.1143886e-09
3.7923343e-07
2.1700464e-09
3.8015956e-07
6.1635738e-14
3.8039277e-07
-2.1699128e-09
3.8039274e-07
-4.1142272e-09
3.8015946e-07
-5.6118942e-09
3.7923331e-07
-6.4646721e-09
3.7659309e-07
-6.5269641e-09
3.7050909e-07
-5.7560336e-09
3.5825981e-07
-4.2778811e-09
3.3559708e-07
-2.4367447e-09
2.9564993e-07
-7.8430912e-10
2.2656637e-07
1.0662237e-07
4.6101667e-10
1.0616127e-07
1.4844359e-09
2.2554283e-07
2.6948704e-09
2.9443945e-07
3.7402872e-09
3.3455169e-07
4.3566982e-09
3.5764343e-07
4.41114e-09
3.7045479e-07
3.8948847e-09
3.7710952e-07
2.8899719e-09
3.8023842e-07
1.5350702e-09
3.8151451e-07
5.6501359e-14
3.8192783e-07
-1.5349401e-09
3.8192781e-07
-2.8898233e-09
3.8151444e-07
-3.8947695e-09
3.8023832e-07
-4.4110376e-09
3.7710943e-07
-4.356607e-09
3.7045475e-07
-3.7401939e-09
3.5764346e-07
-2.694816e-09
3.3455177e-07
-1.4843894e-09
2.9443957e-07
-4.6097139e-10
2.2554302e-07
1.0616143e-07
2.6566994e-10
1.0589566e-07
8.8687931e-10
2.2492174e-07
1.6626365e-09
2.9366371e-07
2.3769077e-09
3.3383748e-07
2.8407554e-09
3.5717967e-07
2.9376357e-09
3.7035794e-07
2.6365237e-09
3.7741067e-07
1.9789852e-09
3.8089601e-07
1.0583455e-09
3.824352e-07
5.1405923e-14
3.829862e-07
-1.0582424e-09
3.8298618e-07
-1.978863e-09
3.8243514e-07
-2.6364288e-09
3.8089594e-07
-2.9375653e-09
3.774106e-07
-2.8406626e-09
3.7035795e-07
-2.3768212e-09
3.571797e-07
-1.662562e-09
3.3383756e-07
-8.8679462e-10
2.9366387e-07
-2.6562418e-10
2.249219e-07
1.0589581e-07
1.480817e-10
1.0574761e-07
5.1589368e-10
2.2455398e-07
1.0007078e-09
2.9317892e-07
1.4742805e-09
3.3336393e-07
1.8079142e-09
3.5684608e-07
1.9092066e-09
3.7025668e-07
1.7414167e-09
3.7757849e-07
1.3220581e-09
3.8131542e-07
7.1181097e-10
3.8304551e-07
4.6372599e-14
3.83698e-07
-7.1170361e-10
3.8369797e-07
-1.3219844e-09
3.8304546e-07
-1.7413474e-09
3.8131536e-07
-1.9091368e-09
3.7757845e-07
-1.8078362e-09
3.7025669e-07
-1.4742227e-09
3.5684613e-07
-1.000635e-09
3.3336403e-07
-5.1583105e-10
2.9317908e-07
-1.4805347e-10
2.2455414e-07
1.0574776e-07
7.8146285e-11
1.0566952e-07
2.8891483e-10
2.2434323e-07
5.8376405e-10
2.9288414e-07
8.8910452e-10
3.3305858e-07
1.1205469e-09
3.5661468e-07
1.2094665e-09
3.701678e-07
1.1216278e-09
3.7766635e-07
8.6147487e-10
3.815756e-07
4.6698592e-10
3.8344e-07
3.4256314e-14
3.8416496e-07
-4.6692814e-10
3.8416493e-07
-8.6142781e-10
3.8343995e-07
-1.1215789e-09
3.8157556e-07
-1.2094129e-09
3.7766633e-07
-1.1205003e-09
3.7016779e-07
-8.890414e-10
3.5661472e-07
-5.8368975e-10
3.3305869e-07
-2.8886287e-10
2.9288429e-07
-7.8107055e-11
2.243434e-07
1.0566966e-07
3.7379216e-11
1.0563213e-07
1.5271599e-10
2.242279e-07
3.2639304e-10
2.9271049e-07
5.1789067e-10
3.3286707e-07
6.7356111e-10
3.5645898e-07
7.448157e-10
3.7009657e-07
7.0322539e-10
3.7770795e-07
5.4683581e-10
3.8173201e-07
2.9856801e-10
3.8368829e-07
6.2877054e-15
3.844635e-07
-2.9853745e-10
3.844635e-07
-5.468194e-10
3.8368822e-07
-7.032106e-10
3.8173196e-07
-7.4478322e-10
3.7770792e-07
-6.7355446e-10
3.7009657e-07
-5.1783348e-10
3.5645903e-07
-3.2635626e-10
3.3286719e-07
-1.5269639e-10
2.9271065e-07
-3.7358899e-11
2.242281e-07
1.0563231e-07
1.4352561e-11
1.0561774e-07
7.317124e-11
2.2416911e-07
1.7137188e-10
2.9261229e-07
2.8796397e-10
3.3275047e-07
3.8983529e-10
3.5635706e-07
4.4372791e-10
3.7004266e-07
4.2770486e-10
3.7772394e-07
3.3725225e-10
3.8182246e-07
1.8560034e-10
3.8383989e-07
-1.4792848e-14
3.8464909e-07
-1.8561504e-10
3.846491e-07
-3.3724438e-10
3.8383988e-07
-4.2771538e-10
3.8182243e-07
-4.4374042e-10
3.7772393e-07
-3.8983623e-10
3.7004267e-07
-2.8795197e-10
3.5635713e-07
-1.7136218e-10
3.327506e-07
-7.3163441e-11
2.9261246e-07
-1.4365968e-11
2.2416932e-07
1.0561791e-07
1.9657813e-12
1.0561575e-07
2.8390881e-11
2.2414267e-07
8.0882833e-11
2.9255973e-07
1.4950121e-10
3.3268184e-07
2.1443159e-10
3.5629212e-07
2.5358515e-10
3.7000348e-07
2.5083933e-10
3.7772667e-07
2.0111777e-10
3.8187213e-07
1.1172644e-10
3.8392925e-07
-2.3927165e-14
3.8476083e-07
-1.1176159e-10
3.8476083e-07
-2.0115153e-10
3.8392922e-07
-2.5085357e-10
3.8187211e-07
-2.5361886e-10
3.7772666e-07
-2.144457e-10
3.700035e-07
-1.4950868e-10
3.5629219e-07
-8.0913494e-11
3.3268198e-07
-2.8413483e-11
2.9255992e-07
-1.9671127e-12
2.2414287e-07
1.0561594e-07
-3.8799098e-12
1.0561962e-07
4.5069476e-12
2.2413423e-07
3.0357127e-11
2.9253387e-07
6.9068594e-11
3.326431e-07
1.0936075e-10
3.5625182e-07
1.3692177e-10
3.6997587e-07
1.4036415e-10
3.7772323e-07
1.1504821e-10
3.8189741e-07
6.4695429e-11
3.839796e-07
-3.3950636e-14
3.8482553e-07
-6.4742742e-11
3.8482553e-07
-1.1508651e-10
3.8397958e-07
-1.4040791e-10
3.8189739e-07
-1.3697669e-10
3.777232e-07
-1.0939447e-10
3.6997589e-07
-6.9126441e-11
3.5625188e-07
-3.0381011e-11
3.3264325e-07
-4.5318495e-12
2.9253406e-07
3.8644514e-12
2.2413447e-07
1.0561983e-07
-5.868739e-12
1.0562545e-07
-6.6930871e-12
2.2413505e-07
3.9569305e-12
2.9252322e-07
2.4652914e-11
3.326224e-07
4.8934219e-11
3.5622755e-07
6.786029e-11
3.6995693e-07
7.3558395e-11
3.7771752e-07
6.2248043e-11
3.8190871e-07
3.5600712e-11
3.8400624e-07
-2.9705537e-14
3.8486116e-07
-3.5665799e-11
3.8486114e-07
-6.2333233e-11
3.8400622e-07
-7.3623748e-11
3.8190867e-07
-6.7909028e-11
3.7771749e-07
-4.8969978e-11
3.6995693e-07
-2.4708339e-11
3.5622759e-07
-4.0049578e-12
3.3262251e-07
6.6743349e-12
2.9252339e-07
5.8483687e-12
2.2413527e-07
1.0562565e-07
-5.8516686e-12
1.0563129e-07
-1.0534076e-11
2.2413972e-07
-8.0818318e-12
2.9252077e-07
2.0799229e-12
3.3261224e-07
1.6210521e-11
3.562134e-07
2.8891738e-11
3.6994426e-07
3.4809893e-11
3.7771158e-07
3.1083402e-11
3.8191239e-07
1.8226511e-11
3.8401908e-07
-5.7642216e-14
3.8487944e-07
-1.8343214e-11
3.8487942e-07
-3.1189773e-11
3.8401904e-07
-3.4895861e-11
3.8191236e-07
-2.8961903e-11
3.7771153e-07
-1.6269668e-11
3.6994424e-07
-2.1502699e-12
3.5621341e-07
8.0410976e-12
3.3261233e-07
1.0498047e-11
2.9252091e-07
5.8525345e-12
2.2413988e-07
1.0563148e-07
-4.8507756e-12
1.0563613e-07
-1.024413e-11
2.2414507e-07
-1.1595813e-11
2.9252215e-07
-7.5602576e-12
3.3260819e-07
3.5545095e-13
3.562055e-07
8.5362985e-12
3.6993609e-07
1.3649007e-11
3.7770645e-07
1.3627614e-11
3.8191243e-07
8.3633756e-12
3.8402431e-07
-6.160782e-14
3.8488785e-07
-8.4866467e-12
3.8488784e-07
-1.3754412e-11
3.8402428e-07
-1.3787698e-11
3.8191238e-07
-8.6403907e-12
3.7770638e-07
-4.4901342e-13
3.6993606e-07
7.4831837e-12
3.5620549e-07
1.1551005e-11
3.3260822e-07
1.0204805e-11
2.9252225e-07
4.8377567e-12
2.2414523e-07
1.0563631e-07
-3.3013779e-12
1.0563943e-07
-7.6421219e-12
2.2414942e-07
-1.0241639e-11
2.9252477e-07
-9.463155e-12
3.3260743e-07
-5.6592205e-12
3.5620167e-07
-6.2079939e-13
3.6993106e-07
3.2951268e-12
3.777025e-07
4.6511124e-12
3.8191108e-07
3.1781585e-12
3.840258e-07
-8.3019829e-14
3.8489109e-07
-3.3508295e-12
3.8489108e-07
-4.8157901e-12
3.8402574e-07
-3.4578823e-12
3.81911e-07
4.9458696e-13
3.7770243e-07
5.5254242e-12
3.6993099e-07
9.3923952e-12
3.5620162e-07
1.0195749e-11
3.326074e-07
7.6173687e-12
2.9252481e-07
3.2919362e-12
2.2414952e-07
1.056396e-07
-1.2362887e-12
1.056407e-07
-3.5664188e-12
2.2415173e-07
-6.0771528e-12
2.9252729e-07
-6.9844995e-12
3.326083e-07
-5.747676e-12
3.5620043e-07
-3.157498e-12
3.6992849e-07
-6.3069118e-13
3.7769998e-07
8.063809e-13
3.8190966e-07
8.3247723e-13
3.8402577e-07
-9.6998428e-14
3.8489203e-07
-1.0312182e-12
3.8489201e-07
-1.0135233e-12
3.840257e-07
4.2550595e-13
3.8190956e-07
2.9914947e-12
3.7769984e-07
5.5898916e-12
3.6992838e-07
6.8859948e-12
3.5620034e-07
6.037333e-12
3.3260824e-07
3.5517738e-12
2.9252727e-07
1.2575991e-12
2.2415179e-07
1.0564085e-07
1.6047811e-12
1.0563908e-07
1.3495325e-12
2.2415197e-07
-6.5858779e-13
2.9252931e-07
-2.3440056e-12
3.3261002e-07
-2.7613206e-12
3.5620083e-07
-2.0149517e-12
3.6992777e-07
-9.0805975e-13
3.7769884e-07
-7.5639133e-14
3.8190884e-07
1.1827107e-13
3.8402558e-07
-1.1468252e-13
3.8489228e-07
-3.665121e-13
3.8489225e-07
-1.4642947e-13
3.8402549e-07
6.9269965e-13
3.8190871e-07
1.8297925e-12
3.7769869e-07
2.5986914e-12
3.6992759e-07
2.23165e-12
3.5620069e-07
5.8019256e-13
3.3260989e-07
-1.3849944e-12
2.9252921e-07
-1.6117461e-12
2.24152e-07
1.0563924e-07
3.5382355e-12
4.6610002e-12
3.4272196e-12
1.7518487e-12
6.0701033e-13
2.2170926e-13
2.8153419e-13
3.3717911e-13
2.0130816e-13
-1.3947378e-13
-4.6118591e-13
-5.9220395e-13
-5.3779221e-13
-4.3520049e-13
-7.8300542e-13
-1.8516596e-12
-3.5188087e-12
-4.682012e-12
-3.5214659e-12
)
;

boundaryField
{
    Wall
    {
        type            calculated;
        value           uniform 0;
    }
    frontAndBack
    {
        type            empty;
        value           nonuniform 0();
    }
    atmosphere
    {
        type            calculated;
        value           nonuniform List<scalar> 
20
(
1.0563555e-07
2.2415088e-07
2.9253046e-07
3.3261172e-07
3.5620195e-07
3.6992814e-07
3.7769878e-07
3.8190877e-07
3.8402571e-07
3.8489261e-07
3.8489261e-07
3.8402568e-07
3.8190866e-07
3.776986e-07
3.6992793e-07
3.5620179e-07
3.3261156e-07
2.9253042e-07
2.2415088e-07
1.0563569e-07
)
;
    }
}


// ************************************************************************* //
