/*--------------------------------*- C++ -*----------------------------------*\
| =========                 |                                                 |
| \\      /  F ield         | OpenFOAM: The Open Source CFD Toolbox           |
|  \\    /   O peration     | Version:  3.0.1                                 |
|   \\  /    A nd           | Web:      www.OpenFOAM.org                      |
|    \\/     M anipulation  |                                                 |
\*---------------------------------------------------------------------------*/
FoamFile
{
    version     2.0;
    format      ascii;
    class       volScalarField;
    location    "23";
    object      Psi2;
}
// * * * * * * * * * * * * * * * * * * * * * * * * * * * * * * * * * * * * * //

dimensions      [0 -2 2 0 0 0 0];

internalField   nonuniform List<scalar> 
800
(
0.0011016779
0.001101614
0.0011016082
0.0011016092
0.0011016104
0.0011016113
0.0011016118
0.0011016122
0.0011016124
0.0011016125
0.0011016125
0.0011016124
0.0011016122
0.0011016118
0.0011016113
0.0011016104
0.0011016092
0.0011016082
0.001101614
0.0011016779
0.0011393902
0.0011378276
0.0011375807
0.0011375594
0.001137572
0.0011375793
0.0011375791
0.0011375753
0.0011375713
0.0011375689
0.0011375689
0.0011375713
0.0011375753
0.0011375791
0.0011375793
0.001137572
0.0011375593
0.0011375807
0.0011378276
0.0011393902
0.0011754864
0.0011731824
0.0011725241
0.0011724549
0.0011724626
0.0011724687
0.0011724646
0.0011724557
0.0011724473
0.0011724424
0.0011724424
0.0011724473
0.0011724558
0.0011724646
0.0011724687
0.0011724626
0.0011724549
0.0011725241
0.0011731824
0.0011754864
0.0012076763
0.0012047595
0.0012037539
0.0012036634
0.0012036727
0.0012036808
0.0012036748
0.0012036622
0.0012036504
0.0012036435
0.0012036435
0.0012036504
0.0012036622
0.0012036748
0.0012036808
0.0012036727
0.0012036634
0.0012037539
0.0012047595
0.0012076763
0.001237611
0.0012340802
0.0012327918
0.0012324734
0.0012324941
0.0012325103
0.0012325058
0.0012324916
0.0012324776
0.0012324693
0.0012324693
0.0012324776
0.0012324916
0.0012325058
0.0012325103
0.0012324941
0.0012324733
0.0012327918
0.0012340802
0.0012376111
0.0012706551
0.0012658044
0.0012642577
0.0012636394
0.0012636829
0.0012637136
0.0012637139
0.0012636998
0.0012636843
0.0012636747
0.0012636747
0.0012636843
0.0012636998
0.0012637139
0.0012637136
0.0012636829
0.0012636393
0.0012642577
0.0012658044
0.0012706552
0.0013152917
0.0013075124
0.001305875
0.0013050046
0.0013050796
0.0013051284
0.0013051336
0.0013051187
0.0013051002
0.0013050886
0.0013050887
0.0013051002
0.0013051187
0.0013051336
0.0013051284
0.0013050796
0.0013050045
0.001305875
0.0013075124
0.0013152918
0.0013837631
0.001371189
0.0013687927
0.0013677234
0.0013678409
0.0013679022
0.001367904
0.0013678797
0.001367852
0.0013678353
0.0013678353
0.001367852
0.0013678797
0.001367904
0.0013679022
0.001367841
0.0013677234
0.0013687928
0.0013711891
0.0013837632
0.0014970207
0.0014755076
0.0014718817
0.0014705487
0.0014694529
0.0014695071
0.0014694752
0.0014694165
0.0014693628
0.0014693326
0.0014693326
0.0014693628
0.0014694166
0.0014694753
0.0014695072
0.001469453
0.0014705488
0.0014718818
0.0014755077
0.0014970209
0.0016941875
0.0016545153
0.0016484937
0.0016465629
0.0016442205
0.0016422602
0.0016421039
0.0016419459
0.0016418263
0.0016417634
0.0016417634
0.0016418264
0.0016419461
0.0016421041
0.0016422603
0.0016442206
0.0016465631
0.0016484939
0.0016545156
0.0016941879
0.0020325004
0.0019689961
0.0019554058
0.0019519727
0.0019467077
0.0019434809
0.0019429771
0.0019425778
0.0019423088
0.0019421739
0.0019421739
0.001942309
0.0019425781
0.0019429774
0.0019434813
0.001946708
0.0019519731
0.0019554062
0.0019689966
0.0020325011
0.0025511777
0.002458029
0.0024341015
0.0024275978
0.0024199333
0.0024160276
0.002414883
0.0024140737
0.0024135674
0.0024133213
0.0024133214
0.0024135676
0.0024140741
0.0024148834
0.0024160281
0.0024199339
0.0024275985
0.0024341023
0.0024580298
0.0025511788
0.0033755277
0.0032191292
0.0031773377
0.0031578924
0.0031463579
0.003141788
0.0031398744
0.0031386092
0.0031378576
0.0031375042
0.0031375043
0.0031378579
0.0031386097
0.0031398751
0.0031417888
0.0031463588
0.0031578934
0.0031773387
0.0032191304
0.0033755291
0.0045785357
0.0043485024
0.0042643517
0.0042308102
0.0042148446
0.0042098091
0.0042076745
0.0042064498
0.0042057909
0.0042055165
0.0042055167
0.0042057913
0.0042064505
0.0042076753
0.0042098101
0.0042148457
0.0042308114
0.004264353
0.0043485037
0.0045785372
0.0061845474
0.0057618019
0.0055873912
0.005523935
0.0055033209
0.005500857
0.0055022362
0.0055038419
0.005505027
0.0055057144
0.0055057147
0.0055050275
0.0055038427
0.0055022373
0.0055008582
0.0055033223
0.0055239365
0.0055873928
0.0057618035
0.0061845486
0.0081527065
0.0072984654
0.0069773432
0.0068639951
0.0068372365
0.0068435267
0.0068563013
0.0068671457
0.0068743679
0.0068781037
0.006878104
0.0068743686
0.0068671468
0.0068563026
0.0068435281
0.006837238
0.0068639968
0.006977345
0.0072984672
0.008152707
0.0098292083
0.0087148677
0.0082560094
0.0080826392
0.0080411337
0.0080535203
0.0080793067
0.0081024298
0.0081183256
0.0081265426
0.008126543
0.0081183265
0.0081024312
0.0080793082
0.0080535219
0.0080411353
0.0080826409
0.0082560111
0.0087148693
0.0098292083
0.010652735
0.0097711957
0.0092878085
0.0090793331
0.0090198892
0.0090286285
0.0090587652
0.0090884435
0.0091098053
0.0091210421
0.0091210425
0.0091098063
0.0090884449
0.0090587667
0.00902863
0.0090198907
0.0090793344
0.0092878098
0.0097711967
0.010652735
0.010900128
0.0104109
0.010015224
0.0098144935
0.0097459394
0.0097457625
0.0097710051
0.0097989032
0.00981997
0.0098312786
0.009831279
0.009819971
0.0097989045
0.0097710065
0.0097457638
0.0097459406
0.0098144945
0.010015225
0.0104109
0.010900128
0.01095332
0.0107352
0.010468321
0.01030667
0.01024183
0.010234172
0.010250733
0.010271951
0.010288794
0.010298021
0.010298021
0.010288794
0.010271952
0.010250734
0.010234173
0.010241831
0.01030667
0.010468322
0.010735201
0.01095332
0.010962609
0.010877782
0.010722366
0.010609115
0.010556672
0.010545784
0.010554549
0.010568377
0.010579972
0.010586459
0.010586459
0.010579973
0.010568378
0.01055455
0.010545785
0.010556672
0.010609115
0.010722366
0.010877782
0.010962609
0.010964031
0.010933928
0.010853017
0.010781879
0.010744322
0.0107338
0.010737414
0.010745406
0.010752546
0.010756629
0.01075663
0.010752546
0.010745406
0.010737414
0.010733801
0.010744322
0.010781879
0.010853017
0.010933928
0.010964031
0.010964231
0.010954238
0.010915629
0.010874675
0.010850245
0.010841895
0.010842799
0.010846975
0.010851003
0.010853365
0.010853365
0.010851004
0.010846976
0.010842799
0.010841896
0.010850245
0.010874675
0.010915629
0.010954238
0.010964231
0.010964257
0.01096111
0.010943925
0.010921978
0.01090728
0.010901454
0.010901241
0.010903232
0.010905346
0.010906621
0.010906621
0.010905346
0.010903232
0.010901241
0.010901454
0.01090728
0.010921978
0.010943925
0.01096111
0.010964257
0.010964261
0.010963312
0.01095609
0.010945018
0.010936734
0.010933036
0.010932532
0.010933396
0.010934439
0.010935088
0.010935088
0.010934439
0.010933396
0.010932532
0.010933036
0.010936734
0.010945018
0.01095609
0.010963312
0.010964261
0.010964261
0.010963986
0.010961095
0.010955794
0.01095138
0.010949201
0.010948743
0.010949079
0.010949565
0.01094988
0.01094988
0.010949565
0.010949079
0.010948743
0.010949201
0.01095138
0.010955794
0.010961095
0.010963986
0.010964261
0.010964261
0.010964184
0.010963075
0.010960652
0.010958413
0.010957207
0.010956882
0.010956994
0.010957209
0.010957355
0.010957355
0.010957209
0.010956994
0.010956882
0.010957207
0.010958413
0.010960652
0.010963075
0.010964184
0.010964261
0.010964261
0.01096424
0.010963831
0.010962768
0.010961682
0.010961048
0.010960847
0.010960875
0.010960965
0.010961029
0.010961029
0.010960965
0.010960875
0.010960847
0.010961048
0.010961682
0.010962768
0.010963831
0.01096424
0.010964261
0.010964261
0.010964256
0.010964109
0.010963661
0.010963155
0.010962837
0.010962723
0.010962724
0.01096276
0.010962787
0.010962787
0.01096276
0.010962724
0.010962723
0.010962837
0.010963155
0.010963661
0.010964109
0.010964256
0.010964261
0.010964261
0.01096426
0.010964209
0.010964027
0.010963799
0.010963646
0.010963586
0.010963581
0.010963594
0.010963606
0.010963606
0.010963594
0.010963581
0.010963586
0.010963646
0.010963799
0.010964027
0.010964209
0.01096426
0.010964261
0.010964261
0.010964261
0.010964244
0.010964172
0.010964073
0.010964002
0.010963972
0.010963968
0.010963972
0.010963977
0.010963977
0.010963972
0.010963968
0.010963972
0.010964002
0.010964073
0.010964172
0.010964244
0.010964261
0.010964261
0.010964261
0.010964261
0.010964255
0.010964228
0.010964186
0.010964155
0.01096414
0.010964137
0.010964139
0.010964141
0.010964141
0.010964139
0.010964137
0.01096414
0.010964155
0.010964186
0.010964228
0.010964255
0.010964261
0.010964261
0.010964261
0.010964261
0.010964259
0.010964249
0.010964232
0.010964218
0.010964212
0.01096421
0.010964211
0.010964211
0.010964211
0.010964211
0.01096421
0.010964212
0.010964218
0.010964232
0.010964249
0.010964259
0.010964261
0.010964261
0.010964261
0.010964261
0.01096426
0.010964257
0.01096425
0.010964244
0.010964241
0.010964241
0.010964241
0.010964241
0.010964241
0.010964241
0.010964241
0.010964241
0.010964244
0.01096425
0.010964257
0.01096426
0.010964261
0.010964261
0.010964261
0.010964261
0.010964261
0.01096426
0.010964257
0.010964255
0.010964253
0.010964253
0.010964253
0.010964253
0.010964253
0.010964253
0.010964253
0.010964253
0.010964255
0.010964257
0.01096426
0.010964261
0.010964261
0.010964261
0.010964261
0.010964261
0.010964261
0.010964261
0.01096426
0.010964259
0.010964258
0.010964258
0.010964258
0.010964258
0.010964258
0.010964258
0.010964258
0.010964258
0.010964259
0.01096426
0.010964261
0.010964261
0.010964261
0.010964261
0.010964261
0.010964261
0.010964261
0.010964261
0.01096426
0.01096426
0.01096426
0.01096426
0.01096426
0.01096426
0.01096426
0.01096426
0.01096426
0.01096426
0.01096426
0.01096426
0.010964261
0.010964261
0.010964261
0.010964261
0.010964261
0.010964261
0.010964261
0.010964261
0.010964261
0.010964261
0.010964261
0.010964261
0.010964261
0.010964261
0.010964261
0.010964261
0.010964261
0.010964261
0.010964261
0.010964261
0.010964261
0.010964261
0.010964261
0.010964261
0.010964261
0.010964261
0.010964261
0.010964261
0.010964261
0.010964261
0.010964261
0.010964261
0.010964261
0.010964261
0.010964261
0.010964261
0.010964261
0.010964261
0.010964261
0.010964261
0.010964261
0.010964261
0.010964261
0.010964261
0.010964261
0.010964261
0.010964261
0.010964261
0.010964261
0.010964261
0.010964261
0.010964261
0.010964261
0.010964261
0.010964261
0.010964261
0.010964261
0.010964261
0.010964261
0.010964261
0.010964261
0.010964261
0.010964261
0.010964261
)
;

boundaryField
{
    Wall
    {
        type            calculated;
        value           nonuniform List<scalar> 
100
(
9.9999996e-21
9.9999996e-21
9.9999996e-21
9.9999996e-21
9.9999996e-21
9.9999996e-21
9.9999996e-21
9.9999996e-21
9.9999996e-21
9.9999997e-21
9.9999997e-21
9.9999998e-21
9.9999999e-21
1e-20
1e-20
1e-20
1e-20
1e-20
1e-20
1e-20
1e-20
1e-20
1e-20
1e-20
1e-20
1e-20
1e-20
1e-20
1e-20
1e-20
1e-20
1e-20
1e-20
1e-20
1e-20
1e-20
1e-20
1e-20
1e-20
1e-20
9.9999996e-21
9.9999996e-21
9.9999996e-21
9.9999996e-21
9.9999996e-21
9.9999996e-21
9.9999996e-21
9.9999996e-21
9.9999996e-21
9.9999997e-21
9.9999997e-21
9.9999998e-21
9.9999999e-21
1e-20
1e-20
1e-20
1e-20
1e-20
1e-20
1e-20
1e-20
1e-20
1e-20
1e-20
1e-20
1e-20
1e-20
1e-20
1e-20
1e-20
1e-20
1e-20
1e-20
1e-20
1e-20
1e-20
1e-20
1e-20
1e-20
1e-20
9.9999996e-21
9.9999996e-21
9.9999996e-21
9.9999996e-21
9.9999996e-21
9.9999996e-21
9.9999996e-21
9.9999996e-21
9.9999996e-21
9.9999996e-21
9.9999996e-21
9.9999996e-21
9.9999996e-21
9.9999996e-21
9.9999996e-21
9.9999996e-21
9.9999996e-21
9.9999996e-21
9.9999996e-21
9.9999996e-21
)
;
    }
    frontAndBack
    {
        type            empty;
    }
    atmosphere
    {
        type            calculated;
        value           uniform 1e-20;
    }
}


// ************************************************************************* //
