/*--------------------------------*- C++ -*----------------------------------*\
| =========                 |                                                 |
| \\      /  F ield         | OpenFOAM: The Open Source CFD Toolbox           |
|  \\    /   O peration     | Version:  3.0.1                                 |
|   \\  /    A nd           | Web:      www.OpenFOAM.org                      |
|    \\/     M anipulation  |                                                 |
\*---------------------------------------------------------------------------*/
FoamFile
{
    version     2.0;
    format      ascii;
    class       volScalarField;
    location    "23";
    object      rho;
}
// * * * * * * * * * * * * * * * * * * * * * * * * * * * * * * * * * * * * * //

dimensions      [1 -3 0 0 0 0 0];

internalField   nonuniform List<scalar> 
800
(
110.1678
110.16141
110.16082
110.16093
110.16104
110.16113
110.16119
110.16122
110.16124
110.16126
110.16126
110.16124
110.16122
110.16119
110.16113
110.16104
110.16092
110.16082
110.16141
110.1678
113.93902
113.78277
113.75807
113.75594
113.7572
113.75793
113.75792
113.75754
113.75714
113.7569
113.7569
113.75714
113.75754
113.75792
113.75793
113.7572
113.75594
113.75807
113.78277
113.93902
117.54852
117.31813
117.2523
117.24538
117.24615
117.24676
117.24635
117.24546
117.24462
117.24413
117.24413
117.24462
117.24547
117.24636
117.24676
117.24615
117.24538
117.2523
117.31813
117.54852
120.76704
120.47541
120.37486
120.36582
120.36675
120.36755
120.36695
120.3657
120.36451
120.36382
120.36382
120.36451
120.3657
120.36695
120.36755
120.36675
120.36582
120.37486
120.47541
120.76705
123.75948
123.40653
123.27772
123.24587
123.24795
123.24956
123.24911
123.24769
123.24629
123.24546
123.24546
123.24629
123.24769
123.24911
123.24956
123.24795
123.24587
123.27772
123.40653
123.75948
127.06196
126.57721
126.4226
126.36076
126.36511
126.36817
126.3682
126.36679
126.36524
126.36428
126.36428
126.36524
126.36679
126.3682
126.36817
126.36511
126.36076
126.4226
126.57721
127.06196
131.52238
130.74511
130.58149
130.49445
130.50193
130.50681
130.50732
130.50583
130.50398
130.50282
130.50282
130.50398
130.50583
130.50732
130.50681
130.50194
130.49445
130.58149
130.74512
131.52238
138.36395
137.10794
136.86853
136.7616
136.77333
136.77944
136.77961
136.77718
136.77441
136.77274
136.77274
136.77442
136.77718
136.77962
136.77944
136.77334
136.76161
136.86853
137.10794
138.36396
149.67842
147.53041
147.16833
147.03509
146.92549
146.93089
146.9277
146.92183
146.91646
146.91344
146.91344
146.91647
146.92184
146.92771
146.9309
146.9255
147.03509
147.16834
147.53043
149.67844
169.36082
165.40476
164.80455
164.61186
164.37774
164.1818
164.1662
164.15043
164.13848
164.1322
164.1322
164.13849
164.15044
164.16622
164.18181
164.37776
164.61188
164.80457
165.40479
169.36086
202.9862
196.7077
195.36404
195.02485
194.50058
194.17906
194.12916
194.08948
194.06271
194.04927
194.04927
194.06273
194.08951
194.12919
194.17909
194.50062
195.02489
195.36408
196.70775
202.98627
251.32067
243.49611
241.42323
240.8712
240.1571
239.79146
239.68871
239.6135
239.56558
239.54194
239.54195
239.5656
239.61354
239.68876
239.79152
240.15717
240.87128
241.42331
243.4962
251.32079
231.33531
248.43524
252.94614
254.22472
254.72384
255.03735
255.2233
255.27951
255.28892
255.28255
255.28257
255.28896
255.27958
255.22342
255.03751
254.72404
254.22496
252.94639
248.43554
231.33567
56.944769
75.604392
81.268981
83.419407
84.534528
85.125988
85.4319
85.569722
85.627879
85.644275
85.644283
85.627904
85.569768
85.43198
85.126104
84.53468
83.419585
81.269173
75.604607
56.944963
3.4645329
5.3200562
6.0256105
6.2820492
6.4175266
6.4883831
6.5264213
6.5445055
6.5525236
6.5549262
6.5549269
6.5525261
6.5445103
6.5264298
6.4883958
6.4175432
6.2820684
6.0256306
5.3200772
3.4645467
1.2086038
1.2274959
1.2372914
1.2403584
1.2417504
1.2423894
1.2427251
1.242868
1.2429204
1.2429256
1.2429256
1.2429205
1.242868
1.2427253
1.2423896
1.2417506
1.2403586
1.2372917
1.2274961
1.2086039
1.2000017
1.2000138
1.2000246
1.2000278
1.2000286
1.2000287
1.2000286
1.2000285
1.2000284
1.2000283
1.2000283
1.2000284
1.2000285
1.2000286
1.2000287
1.2000286
1.2000278
1.2000246
1.2000138
1.2000017
1.2000003
1.2000006
1.2000005
1.2000006
1.2000006
1.2000006
1.2000006
1.2000006
1.2000006
1.2000006
1.2000006
1.2000006
1.2000006
1.2000006
1.2000006
1.2000006
1.2000006
1.2000005
1.2000006
1.2000003
1.2000001
1.2000004
1.2000005
1.2000006
1.2000007
1.2000007
1.2000007
1.2000007
1.2000007
1.2000007
1.2000007
1.2000007
1.2000007
1.2000007
1.2000007
1.2000007
1.2000006
1.2000005
1.2000004
1.2000001
1.2
1.2000002
1.2000004
1.2000005
1.2000006
1.2000006
1.2000006
1.2000006
1.2000006
1.2000006
1.2000006
1.2000006
1.2000006
1.2000006
1.2000006
1.2000006
1.2000005
1.2000004
1.2000002
1.2
1.2
1.2000001
1.2000003
1.2000004
1.2000005
1.2000005
1.2000006
1.2000006
1.2000005
1.2000005
1.2000005
1.2000005
1.2000006
1.2000006
1.2000005
1.2000005
1.2000004
1.2000003
1.2000001
1.2
1.2
1.2000001
1.2000002
1.2000003
1.2000004
1.2000004
1.2000004
1.2000004
1.2000004
1.2000004
1.2000004
1.2000004
1.2000004
1.2000004
1.2000004
1.2000004
1.2000003
1.2000002
1.2000001
1.2
1.2
1.2
1.2000001
1.2000002
1.2000003
1.2000003
1.2000003
1.2000003
1.2000003
1.2000003
1.2000003
1.2000003
1.2000003
1.2000003
1.2000003
1.2000003
1.2000002
1.2000001
1.2
1.2
1.2
1.2
1.2000001
1.2000001
1.2000002
1.2000002
1.2000002
1.2000002
1.2000002
1.2000002
1.2000002
1.2000002
1.2000002
1.2000002
1.2000002
1.2000002
1.2000001
1.2000001
1.2
1.2
1.2
1.2
1.2
1.2000001
1.2000001
1.2000001
1.2000002
1.2000002
1.2000001
1.2000001
1.2000001
1.2000001
1.2000002
1.2000002
1.2000001
1.2000001
1.2000001
1.2
1.2
1.2
1.2
1.2
1.2
1.2
1.2000001
1.2000001
1.2000001
1.2000001
1.2000001
1.2000001
1.2000001
1.2000001
1.2000001
1.2000001
1.2000001
1.2000001
1.2
1.2
1.2
1.2
1.2
1.2
1.2
1.2
1.2
1.2000001
1.2000001
1.2000001
1.2000001
1.2000001
1.2000001
1.2000001
1.2000001
1.2000001
1.2000001
1.2
1.2
1.2
1.2
1.2
1.2
1.2
1.2
1.2
1.2
1.2
1.2
1.2
1.2
1.2
1.2
1.2
1.2
1.2
1.2
1.2
1.2
1.2
1.2
1.2
1.2
1.2
1.2
1.2
1.2
1.2
1.2
1.2
1.2
1.2
1.2
1.2
1.2
1.2
1.2
1.2
1.2
1.2
1.2
1.2
1.2
1.2
1.2
1.2
1.2
1.2
1.2
1.2
1.2
1.2
1.2
1.2
1.2
1.2
1.2
1.2
1.2
1.2
1.2
1.2
1.2
1.2
1.2
1.2
1.2
1.2
1.2
1.2
1.2
1.2
1.2
1.2
1.2
1.2
1.2
1.2
1.2
1.2
1.2
1.2
1.2
1.2
1.2
1.2
1.2
1.2
1.2
1.2
1.2
1.2
1.2
1.2
1.2
1.2
1.2
1.2
1.2
1.2
1.2
1.2
1.2
1.2
1.2
1.2
1.2
1.2
1.2
1.2
1.2
1.2
1.2
1.2
1.2
1.2
1.2
1.2
1.2
1.2
1.2
1.2
1.2
1.2
1.2
1.2
1.2
1.2
1.2
1.2
1.2
1.2
1.2
1.2
1.2
1.2
1.2
1.2
1.2
1.2
1.2
1.2
1.2
1.2
1.2
1.2
1.2
1.2
1.2
1.2
1.2
1.2
1.2
1.2
1.2
1.2
1.2
1.2
1.2
1.2
1.2
1.2
1.2
1.2
1.2
1.2
1.2
1.2
1.2
1.2
1.2
1.2
1.2
1.2
1.2
1.2
1.2
1.2
1.2
1.2
1.2
1.2
1.2
1.2
1.2
1.2
1.2
1.2
1.2
1.2
1.2
1.2
1.2
1.2
1.2
1.2
1.2
1.2
1.2
1.2
1.2
1.2
1.2
1.2
1.2
1.2
1.2
1.2
1.2
1.2
1.2
1.2
1.2
1.2
1.2
1.2
1.2
1.2
1.2
1.2
1.2
1.2
1.2
1.2
1.2
1.2
1.2
1.2
1.2
1.2
1.2
1.2
1.2
1.2
1.2
1.2
1.2
1.2
1.2
1.2
1.2
1.2
1.2
1.2
1.2
1.2
1.2
1.2
1.2
1.2
1.2
1.2
1.2
1.2
1.2
1.2
1.2
1.2
1.2
1.2
1.2
1.2
)
;

boundaryField
{
    Wall
    {
        type            calculated;
        value           nonuniform List<scalar> 
100
(
1e-15
3.0669132e-12
1.2869635e-06
5.8796403e-06
1.5987848e-05
3.3917509e-05
6.261926e-05
0.00010817396
0.00019114258
0.00041327539
0.0015670228
0.017944892
0.37895021
1.0535132
1.1955975
1.1999873
1.2
1.2
1.2
1.2
1.2
1.2
1.2
1.2
1.2
1.2
1.2
1.2
1.2
1.2
1.2
1.2
1.2
1.2
1.2
1.2
1.2
1.2
1.2
1.2
1e-15
1.4362834e-14
1.2869638e-06
5.8796466e-06
1.5987861e-05
3.3917526e-05
6.2619271e-05
0.00010817394
0.00019114248
0.00041327498
0.0015670201
0.017944823
0.37894927
1.0535127
1.1955975
1.1999873
1.2
1.2
1.2
1.2
1.2
1.2
1.2
1.2
1.2
1.2
1.2
1.2
1.2
1.2
1.2
1.2
1.2
1.2
1.2
1.2
1.2
1.2
1.2
1.2
1e-15
1e-15
1.0000005e-15
1.000001e-15
1e-15
1.0000013e-15
1.0000011e-15
1.0000001e-15
1e-15
1e-15
1e-15
1e-15
1e-15
1.0000001e-15
1.0000001e-15
1e-15
1e-15
1e-15
1e-15
1e-15
)
;
    }
    frontAndBack
    {
        type            empty;
    }
    atmosphere
    {
        type            calculated;
        value           nonuniform List<scalar> 
20
(
1.2
1.2
1.2
1.2
1.2
1.2
1.2
1.2
1.2
1.2
1.2
1.2
1.2
1.2
1.2
1.2
1.2
1.2
1.2
1.2
)
;
    }
}


// ************************************************************************* //
