/*--------------------------------*- C++ -*----------------------------------*\
| =========                 |                                                 |
| \\      /  F ield         | OpenFOAM: The Open Source CFD Toolbox           |
|  \\    /   O peration     | Version:  3.0.1                                 |
|   \\  /    A nd           | Web:      www.OpenFOAM.org                      |
|    \\/     M anipulation  |                                                 |
\*---------------------------------------------------------------------------*/
FoamFile
{
    version     2.0;
    format      ascii;
    class       volScalarField;
    location    "23";
    object      rho_foam;
}
// * * * * * * * * * * * * * * * * * * * * * * * * * * * * * * * * * * * * * //

dimensions      [1 -3 0 0 0 0 0];

internalField   nonuniform List<scalar> 
800
(
110.1678
110.16141
110.16082
110.16093
110.16104
110.16113
110.16119
110.16122
110.16124
110.16126
110.16126
110.16124
110.16122
110.16119
110.16113
110.16104
110.16092
110.16082
110.16141
110.1678
113.93902
113.78277
113.75807
113.75594
113.7572
113.75793
113.75792
113.75754
113.75714
113.7569
113.7569
113.75714
113.75754
113.75792
113.75793
113.7572
113.75594
113.75807
113.78277
113.93902
117.54864
117.31824
117.25241
117.2455
117.24626
117.24687
117.24647
117.24558
117.24473
117.24424
117.24424
117.24474
117.24558
117.24647
117.24687
117.24626
117.2455
117.25241
117.31824
117.54865
120.76763
120.47595
120.37539
120.36635
120.36728
120.36808
120.36749
120.36623
120.36504
120.36435
120.36435
120.36504
120.36623
120.36749
120.36808
120.36728
120.36635
120.37539
120.47595
120.76763
123.76111
123.40803
123.27919
123.24734
123.24942
123.25103
123.25058
123.24917
123.24777
123.24693
123.24693
123.24777
123.24917
123.25059
123.25103
123.24942
123.24734
123.27918
123.40802
123.76111
127.06552
126.58045
126.42578
126.36394
126.36829
126.37136
126.37139
126.36999
126.36843
126.36748
126.36748
126.36843
126.36999
126.37139
126.37136
126.36829
126.36394
126.42578
126.58045
127.06552
131.52918
130.75124
130.58751
130.50046
130.50796
130.51284
130.51336
130.51187
130.51003
130.50887
130.50887
130.51003
130.51187
130.51337
130.51285
130.50796
130.50046
130.58751
130.75124
131.52918
138.37632
137.11891
136.87928
136.77235
136.7841
136.79022
136.7904
136.78797
136.78521
136.78353
136.78354
136.78521
136.78798
136.79041
136.79023
136.7841
136.77235
136.87928
137.11891
138.37633
149.70207
147.55076
147.18817
147.05487
146.94529
146.95071
146.94753
146.94165
146.93628
146.93326
146.93326
146.93629
146.94166
146.94753
146.95072
146.9453
147.05488
147.18818
147.55077
149.70209
169.41876
165.45154
164.84937
164.65629
164.42205
164.22602
164.2104
164.1946
164.18264
164.17634
164.17635
164.18265
164.19461
164.21041
164.22604
164.42207
164.65631
164.8494
165.45156
169.41879
203.25005
196.89961
195.54059
195.19728
194.67077
194.3481
194.29772
194.25779
194.23089
194.21739
194.2174
194.2309
194.25781
194.29775
194.34813
194.67081
195.19732
195.54063
196.89966
203.25011
255.11778
245.8029
243.41016
242.75979
241.99334
241.60276
241.4883
241.40737
241.35674
241.33214
241.33214
241.35676
241.40741
241.48835
241.60282
241.9934
242.75985
243.41023
245.80298
255.11788
337.55278
321.91293
317.73377
315.78925
314.6358
314.17881
313.98745
313.86092
313.78577
313.75042
313.75043
313.7858
313.86098
313.98752
314.17889
314.63589
315.78935
317.73388
321.91304
337.55292
457.85357
434.85024
426.43517
423.08102
421.48446
420.98091
420.76745
420.64498
420.57909
420.55165
420.55167
420.57913
420.64505
420.76754
420.98101
421.48457
423.08114
426.4353
434.85037
457.85372
618.45474
576.18019
558.73912
552.3935
550.33209
550.0857
550.22363
550.38419
550.5027
550.57145
550.57147
550.50275
550.38427
550.22373
550.08582
550.33223
552.39365
558.73928
576.18035
618.45486
815.27065
729.84654
697.73432
686.39951
683.72365
684.35267
685.63013
686.71458
687.43679
687.81037
687.8104
687.43686
686.71468
685.63026
684.35281
683.7238
686.39968
697.7345
729.84672
815.2707
982.92084
871.48677
825.60094
808.26392
804.11337
805.35203
807.93068
810.24298
811.83256
812.65426
812.6543
811.83265
810.24312
807.93082
805.35219
804.11353
808.26409
825.60112
871.48693
982.92083
1065.2735
977.11957
928.78085
907.93331
901.98892
902.86285
905.87653
908.84435
910.98053
912.10421
912.10426
910.98063
908.84449
905.87667
902.863
901.98907
907.93345
928.78098
977.11967
1065.2735
1090.0128
1041.09
1001.5224
981.44935
974.59394
974.57625
977.10051
979.89032
981.997
983.12786
983.1279
981.9971
979.89046
977.10065
974.57638
974.59406
981.44945
1001.5225
1041.09
1090.0128
1095.332
1073.52
1046.8321
1030.667
1024.183
1023.4172
1025.0733
1027.1951
1028.8794
1029.8021
1029.8021
1028.8794
1027.1952
1025.0734
1023.4173
1024.1831
1030.667
1046.8322
1073.5201
1095.332
1096.2609
1087.7782
1072.2366
1060.9115
1055.6672
1054.5784
1055.4549
1056.8377
1057.9972
1058.6459
1058.6459
1057.9973
1056.8378
1055.455
1054.5785
1055.6672
1060.9115
1072.2366
1087.7783
1096.2609
1096.4031
1093.3928
1085.3017
1078.1879
1074.4322
1073.38
1073.7414
1074.5406
1075.2546
1075.6629
1075.663
1075.2546
1074.5406
1073.7414
1073.3801
1074.4322
1078.1879
1085.3017
1093.3928
1096.4031
1096.4231
1095.4238
1091.5629
1087.4675
1085.0245
1084.1895
1084.2799
1084.6975
1085.1003
1085.3365
1085.3365
1085.1004
1084.6976
1084.2799
1084.1896
1085.0245
1087.4675
1091.5629
1095.4238
1096.4231
1096.4257
1096.111
1094.3925
1092.1978
1090.728
1090.1454
1090.1241
1090.3232
1090.5346
1090.6621
1090.6621
1090.5346
1090.3232
1090.1241
1090.1454
1090.728
1092.1978
1094.3925
1096.111
1096.4257
1096.4261
1096.3312
1095.609
1094.5018
1093.6734
1093.3036
1093.2532
1093.3396
1093.4439
1093.5088
1093.5088
1093.4439
1093.3396
1093.2532
1093.3036
1093.6734
1094.5018
1095.609
1096.3312
1096.4261
1096.4261
1096.3986
1096.1095
1095.5794
1095.138
1094.9201
1094.8743
1094.9079
1094.9565
1094.988
1094.988
1094.9565
1094.9079
1094.8743
1094.9201
1095.138
1095.5794
1096.1095
1096.3986
1096.4261
1096.4261
1096.4184
1096.3075
1096.0652
1095.8413
1095.7207
1095.6882
1095.6994
1095.7209
1095.7355
1095.7355
1095.7209
1095.6994
1095.6882
1095.7207
1095.8413
1096.0652
1096.3075
1096.4184
1096.4261
1096.4261
1096.424
1096.3831
1096.2768
1096.1682
1096.1048
1096.0847
1096.0875
1096.0965
1096.1029
1096.1029
1096.0965
1096.0875
1096.0847
1096.1048
1096.1682
1096.2768
1096.3831
1096.424
1096.4261
1096.4261
1096.4256
1096.4109
1096.3661
1096.3155
1096.2837
1096.2723
1096.2724
1096.276
1096.2787
1096.2787
1096.276
1096.2724
1096.2723
1096.2837
1096.3155
1096.3661
1096.4109
1096.4256
1096.4261
1096.4261
1096.426
1096.4209
1096.4027
1096.3799
1096.3646
1096.3586
1096.3581
1096.3594
1096.3606
1096.3606
1096.3594
1096.3581
1096.3586
1096.3646
1096.3799
1096.4027
1096.4209
1096.426
1096.4261
1096.4261
1096.4261
1096.4244
1096.4172
1096.4073
1096.4002
1096.3972
1096.3968
1096.3972
1096.3977
1096.3977
1096.3972
1096.3968
1096.3972
1096.4002
1096.4073
1096.4172
1096.4244
1096.4261
1096.4261
1096.4261
1096.4261
1096.4255
1096.4228
1096.4186
1096.4155
1096.414
1096.4137
1096.4139
1096.4141
1096.4141
1096.4139
1096.4137
1096.414
1096.4155
1096.4186
1096.4228
1096.4255
1096.4261
1096.4261
1096.4261
1096.4261
1096.4259
1096.4249
1096.4232
1096.4218
1096.4212
1096.421
1096.4211
1096.4211
1096.4211
1096.4211
1096.421
1096.4212
1096.4218
1096.4232
1096.4249
1096.4259
1096.4261
1096.4261
1096.4261
1096.4261
1096.426
1096.4257
1096.425
1096.4244
1096.4241
1096.4241
1096.4241
1096.4241
1096.4241
1096.4241
1096.4241
1096.4241
1096.4244
1096.425
1096.4257
1096.426
1096.4261
1096.4261
1096.4261
1096.4261
1096.4261
1096.426
1096.4257
1096.4255
1096.4253
1096.4253
1096.4253
1096.4253
1096.4253
1096.4253
1096.4253
1096.4253
1096.4255
1096.4257
1096.426
1096.4261
1096.4261
1096.4261
1096.4261
1096.4261
1096.4261
1096.4261
1096.426
1096.4259
1096.4258
1096.4258
1096.4258
1096.4258
1096.4258
1096.4258
1096.4258
1096.4258
1096.4259
1096.426
1096.4261
1096.4261
1096.4261
1096.4261
1096.4261
1096.4261
1096.4261
1096.4261
1096.426
1096.426
1096.426
1096.426
1096.426
1096.426
1096.426
1096.426
1096.426
1096.426
1096.426
1096.426
1096.4261
1096.4261
1096.4261
1096.4261
1096.4261
1096.4261
1096.4261
1096.4261
1096.4261
1096.4261
1096.4261
1096.4261
1096.4261
1096.4261
1096.4261
1096.4261
1096.4261
1096.4261
1096.4261
1096.4261
1096.4261
1096.4261
1096.4261
1096.4261
1096.4261
1096.4261
1096.4261
1096.4261
1096.4261
1096.4261
1096.4261
1096.4261
1096.4261
1096.4261
1096.4261
1096.4261
1096.4261
1096.4261
1096.4261
1096.4261
1096.4261
1096.4261
1096.4261
1096.4261
1096.4261
1096.4261
1096.4261
1096.4261
1096.4261
1096.4261
1096.4261
1096.4261
1096.4261
1096.4261
1096.4261
1096.4261
1096.4261
1096.4261
1096.4261
1096.4261
1096.4261
1096.4261
1096.4261
1096.4261
)
;

boundaryField
{
    Wall
    {
        type            zeroGradient;
    }
    frontAndBack
    {
        type            empty;
    }
    atmosphere
    {
        type            zeroGradient;
    }
}


// ************************************************************************* //
