/*--------------------------------*- C++ -*----------------------------------*\
| =========                 |                                                 |
| \\      /  F ield         | OpenFOAM: The Open Source CFD Toolbox           |
|  \\    /   O peration     | Version:  3.0.1                                 |
|   \\  /    A nd           | Web:      www.OpenFOAM.org                      |
|    \\/     M anipulation  |                                                 |
\*---------------------------------------------------------------------------*/
FoamFile
{
    version     2.0;
    format      ascii;
    class       volScalarField;
    location    "23";
    object      thermalDiffusivity;
}
// * * * * * * * * * * * * * * * * * * * * * * * * * * * * * * * * * * * * * //

dimensions      [0 2 -1 0 0 0 0];

internalField   nonuniform List<scalar> 
800
(
1.1066366e-07
1.1066671e-07
1.1066698e-07
1.1066693e-07
1.1066688e-07
1.1066683e-07
1.1066681e-07
1.1066679e-07
1.1066678e-07
1.1066677e-07
1.1066677e-07
1.1066678e-07
1.1066679e-07
1.1066681e-07
1.1066683e-07
1.1066688e-07
1.1066693e-07
1.1066698e-07
1.1066671e-07
1.1066366e-07
1.0891043e-07
1.0898033e-07
1.0899137e-07
1.0899231e-07
1.0899174e-07
1.0899143e-07
1.0899144e-07
1.0899162e-07
1.0899181e-07
1.0899194e-07
1.0899192e-07
1.0899181e-07
1.0899162e-07
1.0899144e-07
1.0899143e-07
1.0899174e-07
1.089923e-07
1.0899136e-07
1.0898033e-07
1.0891043e-07
1.0764919e-07
1.0772296e-07
1.077461e-07
1.0774886e-07
1.0774897e-07
1.0774918e-07
1.0774966e-07
1.0775021e-07
1.0775066e-07
1.0775092e-07
1.0775091e-07
1.0775067e-07
1.0775022e-07
1.0774966e-07
1.0774918e-07
1.0774897e-07
1.0774885e-07
1.0774609e-07
1.0772296e-07
1.0764919e-07
1.0740384e-07
1.0741186e-07
1.0743201e-07
1.0743569e-07
1.0743751e-07
1.0743925e-07
1.074408e-07
1.0744202e-07
1.0744286e-07
1.0744329e-07
1.0744328e-07
1.0744286e-07
1.0744202e-07
1.074408e-07
1.0743925e-07
1.0743751e-07
1.0743569e-07
1.0743201e-07
1.0741186e-07
1.0740384e-07
1.085751e-07
1.0840376e-07
1.0839869e-07
1.0841254e-07
1.0841836e-07
1.084233e-07
1.0842688e-07
1.0842919e-07
1.0843058e-07
1.0843123e-07
1.0843122e-07
1.0843059e-07
1.0842919e-07
1.0842688e-07
1.084233e-07
1.0841836e-07
1.0841254e-07
1.0839868e-07
1.0840376e-07
1.0857511e-07
1.1147778e-07
1.1097266e-07
1.1091209e-07
1.1094003e-07
1.1095378e-07
1.1096434e-07
1.1097111e-07
1.1097491e-07
1.1097695e-07
1.1097778e-07
1.1097777e-07
1.1097695e-07
1.1097491e-07
1.1097111e-07
1.1096434e-07
1.1095378e-07
1.1094003e-07
1.1091209e-07
1.1097266e-07
1.1147778e-07
1.1652218e-07
1.15445e-07
1.1527623e-07
1.1531599e-07
1.1534401e-07
1.1536304e-07
1.1537391e-07
1.1537926e-07
1.1538172e-07
1.1538257e-07
1.1538256e-07
1.1538172e-07
1.1537927e-07
1.1537391e-07
1.1536304e-07
1.1534401e-07
1.1531598e-07
1.1527623e-07
1.15445e-07
1.1652218e-07
1.2479871e-07
1.2260695e-07
1.2227675e-07
1.2231566e-07
1.2235914e-07
1.2238931e-07
1.2240356e-07
1.2240951e-07
1.2241138e-07
1.2241174e-07
1.2241174e-07
1.2241138e-07
1.2240951e-07
1.2240356e-07
1.2238931e-07
1.2235913e-07
1.2231565e-07
1.2227673e-07
1.2260695e-07
1.2479871e-07
1.4057486e-07
1.356362e-07
1.3488668e-07
1.3486532e-07
1.3494196e-07
1.3497693e-07
1.3498705e-07
1.3498937e-07
1.3498785e-07
1.349866e-07
1.3498659e-07
1.3498785e-07
1.3498937e-07
1.3498704e-07
1.3497691e-07
1.3494194e-07
1.3486529e-07
1.3488665e-07
1.3563618e-07
1.4057483e-07
1.8606719e-07
1.7088832e-07
1.6811065e-07
1.6762543e-07
1.6756901e-07
1.675605e-07
1.6751978e-07
1.6749565e-07
1.6747854e-07
1.6747131e-07
1.674713e-07
1.6747854e-07
1.6749564e-07
1.6751976e-07
1.6756045e-07
1.6756896e-07
1.6762535e-07
1.6811057e-07
1.7088824e-07
1.8606709e-07
4.331877e-07
3.4920455e-07
3.3050427e-07
3.2549394e-07
3.2322053e-07
3.2210676e-07
3.2153041e-07
3.2125323e-07
3.211159e-07
3.2106722e-07
3.210672e-07
3.2111588e-07
3.2125319e-07
3.2153029e-07
3.2210655e-07
3.2322024e-07
3.2549358e-07
3.3050389e-07
3.4920406e-07
4.3318709e-07
3.8964032e-06
2.4992494e-06
2.1882781e-06
2.0920243e-06
2.0431204e-06
2.0201426e-06
2.0088591e-06
2.0035937e-06
2.0012279e-06
2.0004468e-06
2.0004467e-06
2.0012274e-06
2.0035928e-06
2.0088573e-06
2.0201395e-06
2.0431162e-06
2.0920191e-06
2.1882717e-06
2.4992409e-06
3.8963885e-06
7.9192621e-05
5.7515649e-05
5.1427426e-05
4.9193984e-05
4.8066744e-05
4.75289e-05
4.7262068e-05
4.7139294e-05
4.7085824e-05
4.7069406e-05
4.7069402e-05
4.7085811e-05
4.7139269e-05
4.726202e-05
4.7528825e-05
4.8066642e-05
4.9193862e-05
5.1427287e-05
5.7515479e-05
7.9192422e-05
0.00024741886
0.00024744929
0.00024751821
0.00024758594
0.00024764518
0.00024769168
0.00024772657
0.00024775162
0.00024776791
0.00024777596
0.00024777596
0.00024776791
0.00024775161
0.00024772656
0.00024769168
0.00024764517
0.00024758593
0.0002475182
0.00024744928
0.00024741885
0.00024538292
0.00024541958
0.00024547659
0.00024553616
0.00024558975
0.0002456337
0.00024566762
0.00024569228
0.00024570836
0.00024571631
0.00024571631
0.00024570836
0.00024569228
0.00024566762
0.0002456337
0.00024558975
0.00024553615
0.00024547659
0.00024541958
0.00024538291
0.00024353159
0.00024358091
0.00024363966
0.00024369727
0.00024374849
0.00024379093
0.00024382409
0.00024384835
0.0002438642
0.00024387204
0.00024387204
0.0002438642
0.00024384835
0.00024382409
0.00024379093
0.00024374849
0.00024369726
0.00024363965
0.00024358091
0.00024353159
0.00024184536
0.0002419099
0.00024198015
0.00024204368
0.00024209741
0.0002421408
0.00024217426
0.00024219854
0.00024221431
0.00024222207
0.00024222207
0.00024221431
0.00024219853
0.00024217426
0.00024214079
0.0002420974
0.00024204368
0.00024198015
0.0002419099
0.00024184536
0.000240319
0.0002403939
0.00024047675
0.0002405499
0.00024060977
0.00024065671
0.0002406921
0.00024071731
0.00024073348
0.00024074138
0.00024074138
0.00024073348
0.00024071731
0.00024069209
0.00024065671
0.00024060976
0.0002405499
0.00024047675
0.00024039389
0.000240319
0.00023894484
0.00023902411
0.00023911595
0.00023919816
0.00023926517
0.00023931707
0.00023935559
0.00023938265
0.0002393998
0.00023940811
0.00023940811
0.0002393998
0.00023938265
0.00023935559
0.00023931707
0.00023926517
0.00023919816
0.00023911594
0.00023902411
0.00023894484
0.00023771215
0.00023779123
0.00023788733
0.00023797579
0.00023804887
0.00023810567
0.00023814773
0.00023817711
0.00023819563
0.00023820457
0.00023820457
0.00023819563
0.00023817711
0.00023814773
0.00023810567
0.00023804886
0.00023797579
0.00023788732
0.00023779123
0.00023771215
0.00023660867
0.00023668477
0.00023678104
0.00023687237
0.00023694938
0.00023701001
0.00023705522
0.00023708689
0.00023710687
0.00023711651
0.00023711651
0.00023710687
0.00023708689
0.00023705522
0.00023701001
0.00023694938
0.00023687237
0.00023678104
0.00023668477
0.00023660867
0.00023562189
0.00023569353
0.00023578708
0.00023587827
0.00023595685
0.00023601975
0.0002360672
0.00023610071
0.00023612195
0.00023613223
0.00023613223
0.00023612195
0.00023610071
0.0002360672
0.00023601975
0.00023595685
0.00023587827
0.00023578708
0.00023569353
0.00023562189
0.00023473987
0.00023480642
0.00023489542
0.00023498418
0.00023506221
0.00023512572
0.00023517429
0.00023520894
0.00023523107
0.00023524181
0.00023524181
0.00023523107
0.00023520894
0.00023517429
0.00023512572
0.00023506221
0.00023498418
0.00023489542
0.00023480642
0.00023473987
0.00023395162
0.00023401291
0.00023409634
0.00023418108
0.00023425689
0.00023431956
0.00023436812
0.00023440314
0.00023442567
0.00023443666
0.00023443666
0.00023442567
0.00023440314
0.00023436812
0.00023431956
0.00023425689
0.00023418108
0.00023409634
0.00023401291
0.00023395162
0.00023324724
0.00023330334
0.00023338073
0.00023346048
0.00023353286
0.00023359351
0.00023364108
0.00023367573
0.00023369819
0.0002337092
0.0002337092
0.00023369819
0.00023367573
0.00023364109
0.00023359351
0.00023353286
0.00023346048
0.00023338073
0.00023330334
0.00023324724
0.00023261795
0.00023266907
0.00023274029
0.00023281451
0.00023288267
0.00023294045
0.00023298624
0.00023301989
0.00023304185
0.00023305266
0.00023305266
0.00023304185
0.00023301989
0.00023298624
0.00023294045
0.00023288267
0.00023281451
0.00023274029
0.00023266907
0.00023261795
0.00023205602
0.00023210242
0.00023216755
0.00023223602
0.00023229951
0.00023235384
0.00023239728
0.00023242944
0.00023245055
0.00023246099
0.00023246099
0.00023245055
0.00023242944
0.00023239728
0.00023235384
0.00023229951
0.00023223603
0.00023216755
0.00023210242
0.00023205603
0.0002315547
0.00023159666
0.00023165591
0.00023171863
0.00023177722
0.00023182775
0.00023186845
0.00023189878
0.00023191879
0.00023192871
0.00023192871
0.00023191879
0.00023189878
0.00023186845
0.00023182775
0.00023177722
0.00023171863
0.00023165591
0.00023159667
0.0002315547
0.00023110809
0.00023114591
0.00023119955
0.00023125664
0.0002313103
0.00023135687
0.0002313946
0.00023142287
0.0002314416
0.00023145091
0.00023145091
0.0002314416
0.00023142287
0.0002313946
0.00023135687
0.0002313103
0.00023125664
0.00023119955
0.00023114591
0.00023110809
0.0002307111
0.00023074506
0.00023079339
0.00023084506
0.00023089387
0.00023093645
0.00023097112
0.00023099721
0.00023101455
0.00023102319
0.00023102319
0.00023101455
0.00023099721
0.00023097112
0.00023093645
0.00023089387
0.00023084507
0.00023079339
0.00023074506
0.0002307111
0.00023035936
0.00023038972
0.00023043306
0.00023047957
0.00023052369
0.00023056233
0.00023059393
0.00023061779
0.0002306337
0.00023064164
0.00023064164
0.0002306337
0.00023061779
0.00023059393
0.00023056233
0.00023052369
0.00023047957
0.00023043306
0.00023038972
0.00023035936
0.00023004918
0.00023007618
0.00023011483
0.00023015645
0.00023019607
0.00023023091
0.00023025949
0.00023028116
0.00023029563
0.00023030287
0.00023030287
0.00023029563
0.00023028116
0.0002302595
0.00023023091
0.00023019607
0.00023015646
0.00023011484
0.00023007618
0.00023004918
0.00022977747
0.00022980133
0.00022983559
0.0002298726
0.00022990795
0.00022993915
0.00022996483
0.00022998435
0.00022999742
0.00023000397
0.00023000397
0.00022999742
0.00022998435
0.00022996483
0.00022993915
0.00022990795
0.0002298726
0.0002298356
0.00022980133
0.00022977747
0.00022954179
0.0002295627
0.00022959284
0.00022962551
0.00022965684
0.00022968458
0.00022970751
0.00022972498
0.00022973671
0.00022974259
0.00022974259
0.00022973671
0.00022972498
0.00022970751
0.00022968459
0.00022965684
0.00022962552
0.00022959284
0.00022956271
0.00022954179
0.00022934026
0.00022935841
0.00022938468
0.0002294133
0.00022944086
0.00022946537
0.00022948571
0.00022950125
0.00022951172
0.00022951697
0.00022951697
0.00022951172
0.00022950125
0.00022948571
0.00022946537
0.00022944086
0.0002294133
0.00022938468
0.00022935841
0.00022934027
0.00022917166
0.00022918721
0.00022920986
0.0002292347
0.00022925877
0.00022928031
0.00022929826
0.00022931204
0.00022932134
0.00022932602
0.00022932602
0.00022932135
0.00022931204
0.00022929826
0.00022928031
0.00022925878
0.0002292347
0.00022920986
0.00022918721
0.00022917167
0.00022903538
0.00022904849
0.00022906779
0.00022908918
0.0002291101
0.00022912896
0.00022914478
0.00022915699
0.00022916526
0.00022916943
0.00022916943
0.00022916526
0.00022915699
0.00022914478
0.00022912896
0.00022911011
0.00022908919
0.0002290678
0.00022904849
0.00022903538
0.00022893148
0.00022894234
0.00022895865
0.00022897701
0.0002289952
0.00022901176
0.00022902577
0.00022903665
0.00022904406
0.0002290478
0.0002290478
0.00022904406
0.00022903665
0.00022902577
0.00022901176
0.0002289952
0.00022897701
0.00022895866
0.00022894235
0.00022893148
0.00022886068
0.00022886963
0.00022888346
0.00022889938
0.00022891541
0.0002289302
0.00022894284
0.00022895271
0.00022895946
0.00022896289
0.00022896289
0.00022895946
0.00022895271
0.00022894284
0.0002289302
0.00022891541
0.00022889938
0.00022888346
0.00022886963
0.00022886068
0.00022882437
0.00022883199
0.00022884422
0.00022885863
0.00022887338
0.00022888713
0.00022889897
0.00022890827
0.00022891466
0.0002289179
0.0002289179
0.00022891466
0.00022890827
0.00022889897
0.00022888713
0.00022887338
0.00022885864
0.00022884423
0.00022883199
0.00022882437
)
;

boundaryField
{
    Wall
    {
        type            calculated;
        value           uniform 4e-05;
    }
    frontAndBack
    {
        type            empty;
    }
    atmosphere
    {
        type            calculated;
        value           uniform 4e-05;
    }
}


// ************************************************************************* //
