/*--------------------------------*- C++ -*----------------------------------*\
| =========                 |                                                 |
| \\      /  F ield         | OpenFOAM: The Open Source CFD Toolbox           |
|  \\    /   O peration     | Version:  3.0.1                                 |
|   \\  /    A nd           | Web:      www.OpenFOAM.org                      |
|    \\/     M anipulation  |                                                 |
\*---------------------------------------------------------------------------*/
FoamFile
{
    version     2.0;
    format      ascii;
    class       volScalarField;
    location    "23";
    object      thermalDiff_foam;
}
// * * * * * * * * * * * * * * * * * * * * * * * * * * * * * * * * * * * * * //

dimensions      [0 2 -1 0 0 0 0];

internalField   nonuniform List<scalar> 
800
(
1.1066366e-07
1.1066671e-07
1.1066698e-07
1.1066693e-07
1.1066688e-07
1.1066683e-07
1.1066681e-07
1.1066679e-07
1.1066678e-07
1.1066677e-07
1.1066677e-07
1.1066678e-07
1.1066679e-07
1.1066681e-07
1.1066683e-07
1.1066688e-07
1.1066693e-07
1.1066698e-07
1.1066671e-07
1.1066366e-07
1.0891043e-07
1.0898033e-07
1.0899135e-07
1.089923e-07
1.0899174e-07
1.0899142e-07
1.0899144e-07
1.0899162e-07
1.089918e-07
1.0899191e-07
1.0899191e-07
1.089918e-07
1.0899162e-07
1.0899144e-07
1.0899142e-07
1.0899174e-07
1.089923e-07
1.0899136e-07
1.0898033e-07
1.0891043e-07
1.0734908e-07
1.0744517e-07
1.0747273e-07
1.0747561e-07
1.074753e-07
1.0747506e-07
1.0747525e-07
1.0747563e-07
1.0747599e-07
1.074762e-07
1.074762e-07
1.0747599e-07
1.0747563e-07
1.0747525e-07
1.0747506e-07
1.074753e-07
1.0747561e-07
1.0747273e-07
1.0744517e-07
1.0734907e-07
1.0604226e-07
1.0615692e-07
1.0619663e-07
1.0620017e-07
1.0619982e-07
1.0619952e-07
1.0619977e-07
1.0620028e-07
1.0620076e-07
1.0620104e-07
1.0620104e-07
1.0620076e-07
1.0620028e-07
1.0619977e-07
1.0619952e-07
1.0619981e-07
1.0620017e-07
1.0619663e-07
1.0615692e-07
1.0604226e-07
1.0488977e-07
1.050215e-07
1.0506971e-07
1.0508177e-07
1.05081e-07
1.0508042e-07
1.0508061e-07
1.0508116e-07
1.0508169e-07
1.0508201e-07
1.0508201e-07
1.0508169e-07
1.0508116e-07
1.0508061e-07
1.0508042e-07
1.05081e-07
1.0508177e-07
1.0506971e-07
1.050215e-07
1.0488977e-07
1.0368024e-07
1.0385176e-07
1.0390641e-07
1.0392853e-07
1.03927e-07
1.0392594e-07
1.0392596e-07
1.0392648e-07
1.0392704e-07
1.0392739e-07
1.0392739e-07
1.0392704e-07
1.0392648e-07
1.0392596e-07
1.0392594e-07
1.03927e-07
1.0392853e-07
1.0390641e-07
1.0385176e-07
1.0368024e-07
1.0214845e-07
1.0240424e-07
1.0245792e-07
1.0248676e-07
1.0248433e-07
1.0248278e-07
1.0248265e-07
1.0248318e-07
1.0248381e-07
1.024842e-07
1.024842e-07
1.0248381e-07
1.0248318e-07
1.0248265e-07
1.0248278e-07
1.0248433e-07
1.0248676e-07
1.0245792e-07
1.0240424e-07
1.0214845e-07
1.0001594e-07
1.0038484e-07
1.0045591e-07
1.0048763e-07
1.0048427e-07
1.0048257e-07
1.004826e-07
1.0048337e-07
1.0048422e-07
1.0048473e-07
1.0048472e-07
1.0048422e-07
1.0048337e-07
1.0048259e-07
1.0048257e-07
1.0048427e-07
1.0048763e-07
1.0045591e-07
1.0038484e-07
1.0001593e-07
9.6989627e-08
9.7515892e-08
9.7606644e-08
9.7640001e-08
9.7668091e-08
9.766696e-08
9.766789e-08
9.766944e-08
9.7670828e-08
9.7671603e-08
9.7671603e-08
9.7670827e-08
9.7669438e-08
9.7667888e-08
9.7666958e-08
9.7668089e-08
9.7639999e-08
9.7606641e-08
9.7515889e-08
9.6989622e-08
9.2888578e-08
9.3606041e-08
9.372014e-08
9.3756861e-08
9.3801364e-08
9.383887e-08
9.3842023e-08
9.3845131e-08
9.3847457e-08
9.3848676e-08
9.3848675e-08
9.3847456e-08
9.3845129e-08
9.384202e-08
9.3838867e-08
9.380136e-08
9.3756857e-08
9.3720136e-08
9.3606036e-08
9.2888572e-08
8.8224532e-08
8.8917258e-08
8.9075698e-08
8.9116933e-08
8.9177104e-08
8.9215056e-08
8.9221305e-08
8.9226205e-08
8.9229485e-08
8.9231126e-08
8.9231126e-08
8.9229483e-08
8.9226202e-08
8.9221301e-08
8.9215052e-08
8.91771e-08
8.9116929e-08
8.9075693e-08
8.8917253e-08
8.8224525e-08
8.4397424e-08
8.4878344e-08
8.5014574e-08
8.5052893e-08
8.5097037e-08
8.5119398e-08
8.5126274e-08
8.5131116e-08
8.5134134e-08
8.5135599e-08
8.5135598e-08
8.5134133e-08
8.5131114e-08
8.5126271e-08
8.5119395e-08
8.5097033e-08
8.5052889e-08
8.501457e-08
8.487834e-08
8.4397419e-08
8.239511e-08
8.2530363e-08
8.2582051e-08
8.2608988e-08
8.2625064e-08
8.2631387e-08
8.2634141e-08
8.2635959e-08
8.2637037e-08
8.2637542e-08
8.2637542e-08
8.2637036e-08
8.2635958e-08
8.263414e-08
8.2631386e-08
8.2625063e-08
8.2608986e-08
8.258205e-08
8.2530362e-08
8.2395109e-08
0.00024741886
0.00024744929
0.00024751821
0.00024758594
0.00024764518
0.00024769168
0.00024772657
0.00024775162
0.00024776791
0.00024777596
0.00024777596
0.00024776791
0.00024775161
0.00024772656
0.00024769168
0.00024764517
0.00024758593
0.0002475182
0.00024744928
0.00024741885
0.00024538292
0.00024541958
0.00024547659
0.00024553616
0.00024558975
0.0002456337
0.00024566762
0.00024569228
0.00024570836
0.00024571631
0.00024571631
0.00024570836
0.00024569228
0.00024566762
0.0002456337
0.00024558975
0.00024553615
0.00024547659
0.00024541958
0.00024538291
0.00024353159
0.00024358091
0.00024363966
0.00024369727
0.00024374849
0.00024379093
0.00024382409
0.00024384835
0.0002438642
0.00024387204
0.00024387204
0.0002438642
0.00024384835
0.00024382409
0.00024379093
0.00024374849
0.00024369726
0.00024363965
0.00024358091
0.00024353159
0.00024184536
0.0002419099
0.00024198015
0.00024204368
0.00024209741
0.0002421408
0.00024217426
0.00024219854
0.00024221431
0.00024222207
0.00024222207
0.00024221431
0.00024219853
0.00024217426
0.00024214079
0.0002420974
0.00024204368
0.00024198015
0.0002419099
0.00024184536
0.000240319
0.0002403939
0.00024047675
0.0002405499
0.00024060977
0.00024065671
0.0002406921
0.00024071731
0.00024073348
0.00024074138
0.00024074138
0.00024073348
0.00024071731
0.00024069209
0.00024065671
0.00024060976
0.0002405499
0.00024047675
0.00024039389
0.000240319
0.00023894484
0.00023902411
0.00023911595
0.00023919816
0.00023926517
0.00023931707
0.00023935559
0.00023938265
0.0002393998
0.00023940811
0.00023940811
0.0002393998
0.00023938265
0.00023935559
0.00023931707
0.00023926517
0.00023919816
0.00023911594
0.00023902411
0.00023894484
0.00023771215
0.00023779123
0.00023788733
0.00023797579
0.00023804887
0.00023810567
0.00023814773
0.00023817711
0.00023819563
0.00023820457
0.00023820457
0.00023819563
0.00023817711
0.00023814773
0.00023810567
0.00023804886
0.00023797579
0.00023788732
0.00023779123
0.00023771215
0.00023660867
0.00023668477
0.00023678104
0.00023687237
0.00023694938
0.00023701001
0.00023705522
0.00023708689
0.00023710687
0.00023711651
0.00023711651
0.00023710687
0.00023708689
0.00023705522
0.00023701001
0.00023694938
0.00023687237
0.00023678104
0.00023668477
0.00023660867
0.00023562189
0.00023569353
0.00023578708
0.00023587827
0.00023595685
0.00023601975
0.0002360672
0.00023610071
0.00023612195
0.00023613223
0.00023613223
0.00023612195
0.00023610071
0.0002360672
0.00023601975
0.00023595685
0.00023587827
0.00023578708
0.00023569353
0.00023562189
0.00023473987
0.00023480642
0.00023489542
0.00023498418
0.00023506221
0.00023512572
0.00023517429
0.00023520894
0.00023523107
0.00023524181
0.00023524181
0.00023523107
0.00023520894
0.00023517429
0.00023512572
0.00023506221
0.00023498418
0.00023489542
0.00023480642
0.00023473987
0.00023395162
0.00023401291
0.00023409634
0.00023418108
0.00023425689
0.00023431956
0.00023436812
0.00023440314
0.00023442567
0.00023443666
0.00023443666
0.00023442567
0.00023440314
0.00023436812
0.00023431956
0.00023425689
0.00023418108
0.00023409634
0.00023401291
0.00023395162
0.00023324724
0.00023330334
0.00023338073
0.00023346048
0.00023353286
0.00023359351
0.00023364108
0.00023367573
0.00023369819
0.0002337092
0.0002337092
0.00023369819
0.00023367573
0.00023364109
0.00023359351
0.00023353286
0.00023346048
0.00023338073
0.00023330334
0.00023324724
0.00023261795
0.00023266907
0.00023274029
0.00023281451
0.00023288267
0.00023294045
0.00023298624
0.00023301989
0.00023304185
0.00023305266
0.00023305266
0.00023304185
0.00023301989
0.00023298624
0.00023294045
0.00023288267
0.00023281451
0.00023274029
0.00023266907
0.00023261795
0.00023205602
0.00023210242
0.00023216755
0.00023223602
0.00023229951
0.00023235384
0.00023239728
0.00023242944
0.00023245055
0.00023246099
0.00023246099
0.00023245055
0.00023242944
0.00023239728
0.00023235384
0.00023229951
0.00023223603
0.00023216755
0.00023210242
0.00023205603
0.0002315547
0.00023159666
0.00023165591
0.00023171863
0.00023177722
0.00023182775
0.00023186845
0.00023189878
0.00023191879
0.00023192871
0.00023192871
0.00023191879
0.00023189878
0.00023186845
0.00023182775
0.00023177722
0.00023171863
0.00023165591
0.00023159667
0.0002315547
0.00023110809
0.00023114591
0.00023119955
0.00023125664
0.0002313103
0.00023135687
0.0002313946
0.00023142287
0.0002314416
0.00023145091
0.00023145091
0.0002314416
0.00023142287
0.0002313946
0.00023135687
0.0002313103
0.00023125664
0.00023119955
0.00023114591
0.00023110809
0.0002307111
0.00023074506
0.00023079339
0.00023084506
0.00023089387
0.00023093645
0.00023097112
0.00023099721
0.00023101455
0.00023102319
0.00023102319
0.00023101455
0.00023099721
0.00023097112
0.00023093645
0.00023089387
0.00023084507
0.00023079339
0.00023074506
0.0002307111
0.00023035936
0.00023038972
0.00023043306
0.00023047957
0.00023052369
0.00023056233
0.00023059393
0.00023061779
0.0002306337
0.00023064164
0.00023064164
0.0002306337
0.00023061779
0.00023059393
0.00023056233
0.00023052369
0.00023047957
0.00023043306
0.00023038972
0.00023035936
0.00023004918
0.00023007618
0.00023011483
0.00023015645
0.00023019607
0.00023023091
0.00023025949
0.00023028116
0.00023029563
0.00023030287
0.00023030287
0.00023029563
0.00023028116
0.0002302595
0.00023023091
0.00023019607
0.00023015646
0.00023011484
0.00023007618
0.00023004918
0.00022977747
0.00022980133
0.00022983559
0.0002298726
0.00022990795
0.00022993915
0.00022996483
0.00022998435
0.00022999742
0.00023000397
0.00023000397
0.00022999742
0.00022998435
0.00022996483
0.00022993915
0.00022990795
0.0002298726
0.0002298356
0.00022980133
0.00022977747
0.00022954179
0.0002295627
0.00022959284
0.00022962551
0.00022965684
0.00022968458
0.00022970751
0.00022972498
0.00022973671
0.00022974259
0.00022974259
0.00022973671
0.00022972498
0.00022970751
0.00022968459
0.00022965684
0.00022962552
0.00022959284
0.00022956271
0.00022954179
0.00022934026
0.00022935841
0.00022938468
0.0002294133
0.00022944086
0.00022946537
0.00022948571
0.00022950125
0.00022951172
0.00022951697
0.00022951697
0.00022951172
0.00022950125
0.00022948571
0.00022946537
0.00022944086
0.0002294133
0.00022938468
0.00022935841
0.00022934027
0.00022917166
0.00022918721
0.00022920986
0.0002292347
0.00022925877
0.00022928031
0.00022929826
0.00022931204
0.00022932134
0.00022932602
0.00022932602
0.00022932135
0.00022931204
0.00022929826
0.00022928031
0.00022925878
0.0002292347
0.00022920986
0.00022918721
0.00022917167
0.00022903538
0.00022904849
0.00022906779
0.00022908918
0.0002291101
0.00022912896
0.00022914478
0.00022915699
0.00022916526
0.00022916943
0.00022916943
0.00022916526
0.00022915699
0.00022914478
0.00022912896
0.00022911011
0.00022908919
0.0002290678
0.00022904849
0.00022903538
0.00022893148
0.00022894234
0.00022895865
0.00022897701
0.0002289952
0.00022901176
0.00022902577
0.00022903665
0.00022904406
0.0002290478
0.0002290478
0.00022904406
0.00022903665
0.00022902577
0.00022901176
0.0002289952
0.00022897701
0.00022895866
0.00022894235
0.00022893148
0.00022886068
0.00022886963
0.00022888346
0.00022889938
0.00022891541
0.0002289302
0.00022894284
0.00022895271
0.00022895946
0.00022896289
0.00022896289
0.00022895946
0.00022895271
0.00022894284
0.0002289302
0.00022891541
0.00022889938
0.00022888346
0.00022886963
0.00022886068
0.00022882437
0.00022883199
0.00022884422
0.00022885863
0.00022887338
0.00022888713
0.00022889897
0.00022890827
0.00022891466
0.0002289179
0.0002289179
0.00022891466
0.00022890827
0.00022889897
0.00022888713
0.00022887338
0.00022885864
0.00022884423
0.00022883199
0.00022882437
)
;

boundaryField
{
    Wall
    {
        type            calculated;
        value           uniform 4e-05;
    }
    frontAndBack
    {
        type            empty;
    }
    atmosphere
    {
        type            calculated;
        value           uniform 4e-05;
    }
}


// ************************************************************************* //
