/*--------------------------------*- C++ -*----------------------------------*\
| =========                 |                                                 |
| \\      /  F ield         | OpenFOAM: The Open Source CFD Toolbox           |
|  \\    /   O peration     | Version:  3.0.1                                 |
|   \\  /    A nd           | Web:      www.OpenFOAM.org                      |
|    \\/     M anipulation  |                                                 |
\*---------------------------------------------------------------------------*/
FoamFile
{
    version     2.0;
    format      ascii;
    class       volScalarField;
    location    "23";
    object      thermalConductivity;
}
// * * * * * * * * * * * * * * * * * * * * * * * * * * * * * * * * * * * * * //

dimensions      [0 2 -1 0 0 0 0];

internalField   nonuniform List<scalar> 
800
(
0.022027392
0.02202673
0.022026671
0.022026681
0.022026694
0.022026703
0.022026709
0.022026713
0.022026715
0.022026716
0.022026716
0.022026715
0.022026713
0.022026709
0.022026703
0.022026694
0.022026681
0.02202667
0.02202673
0.022027392
0.022423724
0.022407297
0.02240471
0.022404488
0.022404619
0.022404694
0.02240469
0.022404649
0.022404605
0.02240458
0.02240458
0.022404605
0.022404649
0.02240469
0.022404694
0.022404619
0.022404488
0.02240471
0.022407297
0.022423724
0.022805466
0.022781122
0.02277416
0.022773433
0.022773512
0.022773572
0.022773525
0.022773428
0.022773337
0.022773284
0.022773284
0.022773337
0.022773429
0.022773525
0.022773572
0.022773512
0.022773433
0.02277416
0.022781122
0.022805466
0.023148486
0.023117466
0.023106766
0.023105812
0.023105909
0.023105989
0.023105921
0.023105783
0.023105655
0.02310558
0.02310558
0.023105655
0.023105783
0.023105921
0.023105989
0.023105909
0.023105812
0.023106766
0.023117466
0.023148486
0.023470844
0.023432992
0.023419207
0.023415764
0.023415983
0.02341615
0.023416096
0.023415939
0.023415786
0.023415696
0.023415696
0.023415787
0.023415939
0.023416096
0.02341615
0.023415983
0.023415764
0.023419206
0.023432992
0.023470844
0.023831383
0.023778778
0.023762125
0.023755398
0.023755862
0.023756183
0.023756177
0.02375602
0.023755848
0.023755743
0.023755743
0.023755848
0.02375602
0.023756178
0.023756183
0.023755862
0.023755398
0.023762124
0.023778778
0.023831383
0.024324736
0.024239267
0.024221496
0.024211968
0.02421277
0.024213283
0.024213324
0.024213151
0.024212944
0.024212815
0.024212815
0.024212944
0.024213152
0.024213325
0.024213283
0.02421277
0.024211968
0.024221496
0.024239267
0.024324737
0.025091666
0.024951556
0.024924942
0.024913102
0.024914357
0.024914991
0.024914981
0.024914693
0.024914376
0.024914186
0.024914187
0.024914377
0.024914693
0.024914981
0.024914991
0.024914357
0.024913102
0.024924943
0.024951556
0.025091667
0.026383232
0.026138311
0.026097025
0.026081919
0.026069225
0.026069736
0.026069316
0.026068617
0.02606799
0.02606764
0.026067641
0.026067991
0.026068617
0.026069317
0.026069737
0.026069227
0.02608192
0.026097027
0.026138312
0.026383234
0.028693525
0.028227571
0.028156298
0.028133518
0.028106011
0.028082915
0.028080978
0.028079068
0.028077639
0.02807689
0.02807689
0.02807764
0.028079069
0.028080979
0.028082917
0.028106014
0.02813352
0.028156301
0.028227574
0.028693529
0.032802431
0.032029258
0.031862926
0.031820229
0.031758355
0.031719587
0.031713224
0.031708237
0.0317049
0.031703232
0.031703232
0.031704902
0.031708239
0.031713227
0.031719591
0.031758359
0.031820234
0.031862931
0.032029264
0.03280244
0.039490062
0.038264417
0.037949674
0.037863379
0.03776513
0.037715827
0.037700729
0.037690115
0.037683505
0.0376803
0.037680301
0.037683508
0.03769012
0.037700735
0.037715834
0.037765138
0.037863388
0.037949684
0.038264427
0.039490077
0.051211139
0.048894263
0.048281691
0.047992545
0.047828022
0.047764818
0.047737541
0.047719622
0.047709028
0.047704063
0.047704065
0.047709033
0.04771963
0.047737551
0.047764829
0.047828035
0.04799256
0.048281707
0.048894279
0.051211159
0.024
0.024
0.024
0.024
0.024
0.024
0.024
0.024
0.024
0.024
0.024
0.024
0.024
0.024
0.024
0.024
0.024
0.024
0.024
0.024
0.024
0.024
0.024
0.024
0.024
0.024
0.024
0.024
0.024
0.024
0.024
0.024
0.024
0.024
0.024
0.024
0.024
0.024
0.024
0.024
0.024
0.024
0.024
0.024
0.024
0.024
0.024
0.024
0.024
0.024
0.024
0.024
0.024
0.024
0.024
0.024
0.024
0.024
0.024
0.024
0.024
0.024
0.024
0.024
0.024
0.024
0.024
0.024
0.024
0.024
0.024
0.024
0.024
0.024
0.024
0.024
0.024
0.024
0.024
0.024
0.024
0.024
0.024
0.024
0.024
0.024
0.024
0.024
0.024
0.024
0.024
0.024
0.024
0.024
0.024
0.024
0.024
0.024
0.024
0.024
0.024
0.024
0.024
0.024
0.024
0.024
0.024
0.024
0.024
0.024
0.024
0.024
0.024
0.024
0.024
0.024
0.024
0.024
0.024
0.024
0.024
0.024
0.024
0.024
0.024
0.024
0.024
0.024
0.024
0.024
0.024
0.024
0.024
0.024
0.024
0.024
0.024
0.024
0.024
0.024
0.024
0.024
0.024
0.024
0.024
0.024
0.024
0.024
0.024
0.024
0.024
0.024
0.024
0.024
0.024
0.024
0.024
0.024
0.024
0.024
0.024
0.024
0.024
0.024
0.024
0.024
0.024
0.024
0.024
0.024
0.024
0.024
0.024
0.024
0.024
0.024
0.024
0.024
0.024
0.024
0.024
0.024
0.024
0.024
0.024
0.024
0.024
0.024
0.024
0.024
0.024
0.024
0.024
0.024
0.024
0.024
0.024
0.024
0.024
0.024
0.024
0.024
0.024
0.024
0.024
0.024
0.024
0.024
0.024
0.024
0.024
0.024
0.024
0.024
0.024
0.024
0.024
0.024
0.024
0.024
0.024
0.024
0.024
0.024
0.024
0.024
0.024
0.024
0.024
0.024
0.024
0.024
0.024
0.024
0.024
0.024
0.024
0.024
0.024
0.024
0.024
0.024
0.024
0.024
0.024
0.024
0.024
0.024
0.024
0.024
0.024
0.024
0.024
0.024
0.024
0.024
0.024
0.024
0.024
0.024
0.024
0.024
0.024
0.024
0.024
0.024
0.024
0.024
0.024
0.024
0.024
0.024
0.024
0.024
0.024
0.024
0.024
0.024
0.024
0.024
0.024
0.024
0.024
0.024
0.024
0.024
0.024
0.024
0.024
0.024
0.024
0.024
0.024
0.024
0.024
0.024
0.024
0.024
0.024
0.024
0.024
0.024
0.024
0.024
0.024
0.024
0.024
0.024
0.024
0.024
0.024
0.024
0.024
0.024
0.024
0.024
0.024
0.024
0.024
0.024
0.024
0.024
0.024
0.024
0.024
0.024
0.024
0.024
0.024
0.024
0.024
0.024
0.024
0.024
0.024
0.024
0.024
0.024
0.024
0.024
0.024
0.024
0.024
0.024
0.024
0.024
0.024
0.024
0.024
0.024
0.024
0.024
0.024
0.024
0.024
0.024
0.024
0.024
0.024
0.024
0.024
0.024
0.024
0.024
0.024
0.024
0.024
0.024
0.024
0.024
0.024
0.024
0.024
0.024
0.024
0.024
0.024
0.024
0.024
0.024
0.024
0.024
0.024
0.024
0.024
0.024
0.024
0.024
0.024
0.024
0.024
0.024
0.024
0.024
0.024
0.024
0.024
0.024
0.024
0.024
0.024
0.024
0.024
0.024
0.024
0.024
0.024
0.024
0.024
0.024
0.024
0.024
0.024
0.024
0.024
0.024
0.024
0.024
0.024
0.024
0.024
0.024
0.024
0.024
0.024
0.024
0.024
0.024
0.024
0.024
0.024
0.024
0.024
0.024
0.024
0.024
0.024
0.024
0.024
0.024
0.024
0.024
0.024
0.024
0.024
0.024
0.024
0.024
0.024
0.024
0.024
0.024
0.024
0.024
0.024
0.024
0.024
0.024
0.024
0.024
0.024
0.024
0.024
0.024
0.024
0.024
0.024
0.024
0.024
0.024
0.024
0.024
0.024
0.024
0.024
0.024
0.024
0.024
0.024
0.024
0.024
0.024
0.024
0.024
0.024
0.024
0.024
0.024
0.024
0.024
0.024
0.024
0.024
0.024
0.024
0.024
0.024
0.024
0.024
0.024
0.024
0.024
0.024
0.024
0.024
0.024
0.024
0.024
0.024
0.024
0.024
0.024
0.024
0.024
0.024
0.024
0.024
0.024
0.024
0.024
0.024
0.024
0.024
0.024
0.024
0.024
0.024
0.024
0.024
0.024
0.024
0.024
0.024
0.024
0.024
0.024
0.024
0.024
0.024
0.024
)
;

boundaryField
{
    Wall
    {
        type            calculated;
        value           uniform 0.024;
    }
    frontAndBack
    {
        type            empty;
    }
    atmosphere
    {
        type            calculated;
        value           uniform 0.024;
    }
}


// ************************************************************************* //
