/*--------------------------------*- C++ -*----------------------------------*\
| =========                 |                                                 |
| \\      /  F ield         | OpenFOAM: The Open Source CFD Toolbox           |
|  \\    /   O peration     | Version:  3.0.1                                 |
|   \\  /    A nd           | Web:      www.OpenFOAM.org                      |
|    \\/     M anipulation  |                                                 |
\*---------------------------------------------------------------------------*/
FoamFile
{
    version     2.0;
    format      ascii;
    class       volScalarField;
    location    "23";
    object      thermalDiff_gas;
}
// * * * * * * * * * * * * * * * * * * * * * * * * * * * * * * * * * * * * * //

dimensions      [0 2 -1 0 0 0 0];

internalField   nonuniform List<scalar> 
800
(
0.00028574568
0.00028575304
0.00028575418
0.00028575432
0.00028575436
0.0002857544
0.00028575444
0.00028575448
0.00028575451
0.00028575452
0.00028575452
0.00028575451
0.00028575448
0.00028575444
0.0002857544
0.00028575436
0.00028575432
0.00028575418
0.00028575304
0.00028574568
0.0002825552
0.00028266186
0.0002826824
0.00028268473
0.00028268401
0.00028268338
0.00028268323
0.00028268335
0.00028268354
0.00028268367
0.00028268367
0.00028268354
0.00028268335
0.00028268323
0.00028268338
0.00028268401
0.00028268473
0.0002826824
0.00028266186
0.0002825552
0.00027994139
0.00028010252
0.00028014286
0.00028014881
0.00028014843
0.00028014768
0.00028014752
0.00028014776
0.00028014808
0.00028014829
0.00028014829
0.00028014808
0.00028014776
0.00028014752
0.00028014768
0.00028014843
0.00028014881
0.00028014286
0.00028010252
0.00027994139
0.00027799693
0.00027819826
0.00027825527
0.00027826397
0.0002782637
0.00027826266
0.00027826236
0.00027826256
0.00027826291
0.00027826315
0.00027826315
0.00027826291
0.00027826256
0.00027826236
0.00027826266
0.0002782637
0.00027826397
0.00027825527
0.00027819826
0.00027799694
0.00027671501
0.00027693968
0.00027701463
0.00027702666
0.00027702636
0.00027702475
0.0002770241
0.00027702406
0.00027702432
0.00027702452
0.00027702452
0.00027702432
0.00027702406
0.0002770241
0.00027702475
0.00027702636
0.00027702667
0.00027701463
0.00027693968
0.00027671501
0.00027598017
0.000276222
0.00027632119
0.00027633823
0.00027633821
0.00027633593
0.00027633477
0.00027633436
0.00027633443
0.00027633452
0.00027633452
0.00027633443
0.00027633436
0.00027633477
0.00027633593
0.00027633821
0.00027633823
0.00027632119
0.00027622201
0.00027598018
0.0002755521
0.00027582976
0.00027594731
0.00027597238
0.00027597371
0.00027597109
0.00027596956
0.00027596882
0.00027596874
0.00027596874
0.00027596874
0.00027596874
0.00027596882
0.00027596957
0.00027597109
0.00027597371
0.00027597238
0.00027594732
0.00027582977
0.00027555211
0.00027502138
0.00027538675
0.00027551413
0.00027555287
0.00027555765
0.00027555591
0.00027555477
0.00027555419
0.00027555427
0.00027555432
0.00027555432
0.00027555427
0.00027555419
0.00027555477
0.00027555592
0.00027555765
0.00027555288
0.00027551414
0.00027538676
0.00027502139
0.00027372664
0.00027426675
0.0002744152
0.00027447828
0.00027449199
0.00027449389
0.00027449527
0.00027449633
0.00027449747
0.00027449799
0.00027449799
0.00027449747
0.00027449633
0.00027449528
0.0002744939
0.000274492
0.00027447829
0.00027441521
0.00027426676
0.00027372665
0.00027064937
0.00027148288
0.00027169808
0.00027180391
0.00027184229
0.0002718551
0.00027186404
0.00027186996
0.00027187404
0.00027187592
0.00027187592
0.00027187404
0.00027186996
0.00027186404
0.00027185511
0.0002718423
0.00027180392
0.00027169809
0.00027148289
0.00027064938
0.00026425527
0.00026551173
0.00026585372
0.00026603387
0.00026614875
0.00026619496
0.00026622242
0.00026623936
0.00026624975
0.00026625451
0.00026625451
0.00026624975
0.00026623936
0.00026622242
0.00026619496
0.00026614875
0.00026603388
0.00026585373
0.00026551173
0.00026425528
0.00025499855
0.00025609519
0.00025647701
0.00025678769
0.00025684931
0.0002569088
0.00025694899
0.00025697561
0.00025699221
0.00025700011
0.00025700011
0.00025699221
0.0002569756
0.00025694899
0.0002569088
0.00025684931
0.00025678769
0.00025647701
0.00025609519
0.00025499855
0.00025059623
0.00025076466
0.00025093874
0.00025103737
0.00025111668
0.00025117008
0.00025120744
0.00025123359
0.00025125047
0.00025125879
0.00025125879
0.00025125047
0.00025123359
0.00025120743
0.00025117007
0.00025111667
0.00025103737
0.00025093873
0.00025076466
0.00025059622
0.00024741886
0.00024744929
0.00024751821
0.00024758594
0.00024764518
0.00024769168
0.00024772657
0.00024775162
0.00024776791
0.00024777596
0.00024777596
0.00024776791
0.00024775161
0.00024772656
0.00024769168
0.00024764517
0.00024758593
0.0002475182
0.00024744928
0.00024741885
0.00024538292
0.00024541958
0.00024547659
0.00024553616
0.00024558975
0.0002456337
0.00024566762
0.00024569228
0.00024570836
0.00024571631
0.00024571631
0.00024570836
0.00024569228
0.00024566762
0.0002456337
0.00024558975
0.00024553615
0.00024547659
0.00024541958
0.00024538291
0.00024353159
0.00024358091
0.00024363966
0.00024369727
0.00024374849
0.00024379093
0.00024382409
0.00024384835
0.0002438642
0.00024387204
0.00024387204
0.0002438642
0.00024384835
0.00024382409
0.00024379093
0.00024374849
0.00024369726
0.00024363965
0.00024358091
0.00024353159
0.00024184536
0.0002419099
0.00024198015
0.00024204368
0.00024209741
0.0002421408
0.00024217426
0.00024219854
0.00024221431
0.00024222207
0.00024222207
0.00024221431
0.00024219853
0.00024217426
0.00024214079
0.0002420974
0.00024204368
0.00024198015
0.0002419099
0.00024184536
0.000240319
0.0002403939
0.00024047675
0.0002405499
0.00024060977
0.00024065671
0.0002406921
0.00024071731
0.00024073348
0.00024074138
0.00024074138
0.00024073348
0.00024071731
0.00024069209
0.00024065671
0.00024060976
0.0002405499
0.00024047675
0.00024039389
0.000240319
0.00023894484
0.00023902411
0.00023911595
0.00023919816
0.00023926517
0.00023931707
0.00023935559
0.00023938265
0.0002393998
0.00023940811
0.00023940811
0.0002393998
0.00023938265
0.00023935559
0.00023931707
0.00023926517
0.00023919816
0.00023911594
0.00023902411
0.00023894484
0.00023771215
0.00023779123
0.00023788733
0.00023797579
0.00023804887
0.00023810567
0.00023814773
0.00023817711
0.00023819563
0.00023820457
0.00023820457
0.00023819563
0.00023817711
0.00023814773
0.00023810567
0.00023804886
0.00023797579
0.00023788732
0.00023779123
0.00023771215
0.00023660867
0.00023668477
0.00023678104
0.00023687237
0.00023694938
0.00023701001
0.00023705522
0.00023708689
0.00023710687
0.00023711651
0.00023711651
0.00023710687
0.00023708689
0.00023705522
0.00023701001
0.00023694938
0.00023687237
0.00023678104
0.00023668477
0.00023660867
0.00023562189
0.00023569353
0.00023578708
0.00023587827
0.00023595685
0.00023601975
0.0002360672
0.00023610071
0.00023612195
0.00023613223
0.00023613223
0.00023612195
0.00023610071
0.0002360672
0.00023601975
0.00023595685
0.00023587827
0.00023578708
0.00023569353
0.00023562189
0.00023473987
0.00023480642
0.00023489542
0.00023498418
0.00023506221
0.00023512572
0.00023517429
0.00023520894
0.00023523107
0.00023524181
0.00023524181
0.00023523107
0.00023520894
0.00023517429
0.00023512572
0.00023506221
0.00023498418
0.00023489542
0.00023480642
0.00023473987
0.00023395162
0.00023401291
0.00023409634
0.00023418108
0.00023425689
0.00023431956
0.00023436812
0.00023440314
0.00023442567
0.00023443666
0.00023443666
0.00023442567
0.00023440314
0.00023436812
0.00023431956
0.00023425689
0.00023418108
0.00023409634
0.00023401291
0.00023395162
0.00023324724
0.00023330334
0.00023338073
0.00023346048
0.00023353286
0.00023359351
0.00023364108
0.00023367573
0.00023369819
0.0002337092
0.0002337092
0.00023369819
0.00023367573
0.00023364109
0.00023359351
0.00023353286
0.00023346048
0.00023338073
0.00023330334
0.00023324724
0.00023261795
0.00023266907
0.00023274029
0.00023281451
0.00023288267
0.00023294045
0.00023298624
0.00023301989
0.00023304185
0.00023305266
0.00023305266
0.00023304185
0.00023301989
0.00023298624
0.00023294045
0.00023288267
0.00023281451
0.00023274029
0.00023266907
0.00023261795
0.00023205602
0.00023210242
0.00023216755
0.00023223602
0.00023229951
0.00023235384
0.00023239728
0.00023242944
0.00023245055
0.00023246099
0.00023246099
0.00023245055
0.00023242944
0.00023239728
0.00023235384
0.00023229951
0.00023223603
0.00023216755
0.00023210242
0.00023205603
0.0002315547
0.00023159666
0.00023165591
0.00023171863
0.00023177722
0.00023182775
0.00023186845
0.00023189878
0.00023191879
0.00023192871
0.00023192871
0.00023191879
0.00023189878
0.00023186845
0.00023182775
0.00023177722
0.00023171863
0.00023165591
0.00023159667
0.0002315547
0.00023110809
0.00023114591
0.00023119955
0.00023125664
0.0002313103
0.00023135687
0.0002313946
0.00023142287
0.0002314416
0.00023145091
0.00023145091
0.0002314416
0.00023142287
0.0002313946
0.00023135687
0.0002313103
0.00023125664
0.00023119955
0.00023114591
0.00023110809
0.0002307111
0.00023074506
0.00023079339
0.00023084506
0.00023089387
0.00023093645
0.00023097112
0.00023099721
0.00023101455
0.00023102319
0.00023102319
0.00023101455
0.00023099721
0.00023097112
0.00023093645
0.00023089387
0.00023084507
0.00023079339
0.00023074506
0.0002307111
0.00023035936
0.00023038972
0.00023043306
0.00023047957
0.00023052369
0.00023056233
0.00023059393
0.00023061779
0.0002306337
0.00023064164
0.00023064164
0.0002306337
0.00023061779
0.00023059393
0.00023056233
0.00023052369
0.00023047957
0.00023043306
0.00023038972
0.00023035936
0.00023004918
0.00023007618
0.00023011483
0.00023015645
0.00023019607
0.00023023091
0.00023025949
0.00023028116
0.00023029563
0.00023030287
0.00023030287
0.00023029563
0.00023028116
0.0002302595
0.00023023091
0.00023019607
0.00023015646
0.00023011484
0.00023007618
0.00023004918
0.00022977747
0.00022980133
0.00022983559
0.0002298726
0.00022990795
0.00022993915
0.00022996483
0.00022998435
0.00022999742
0.00023000397
0.00023000397
0.00022999742
0.00022998435
0.00022996483
0.00022993915
0.00022990795
0.0002298726
0.0002298356
0.00022980133
0.00022977747
0.00022954179
0.0002295627
0.00022959284
0.00022962551
0.00022965684
0.00022968458
0.00022970751
0.00022972498
0.00022973671
0.00022974259
0.00022974259
0.00022973671
0.00022972498
0.00022970751
0.00022968459
0.00022965684
0.00022962552
0.00022959284
0.00022956271
0.00022954179
0.00022934026
0.00022935841
0.00022938468
0.0002294133
0.00022944086
0.00022946537
0.00022948571
0.00022950125
0.00022951172
0.00022951697
0.00022951697
0.00022951172
0.00022950125
0.00022948571
0.00022946537
0.00022944086
0.0002294133
0.00022938468
0.00022935841
0.00022934027
0.00022917166
0.00022918721
0.00022920986
0.0002292347
0.00022925877
0.00022928031
0.00022929826
0.00022931204
0.00022932134
0.00022932602
0.00022932602
0.00022932135
0.00022931204
0.00022929826
0.00022928031
0.00022925878
0.0002292347
0.00022920986
0.00022918721
0.00022917167
0.00022903538
0.00022904849
0.00022906779
0.00022908918
0.0002291101
0.00022912896
0.00022914478
0.00022915699
0.00022916526
0.00022916943
0.00022916943
0.00022916526
0.00022915699
0.00022914478
0.00022912896
0.00022911011
0.00022908919
0.0002290678
0.00022904849
0.00022903538
0.00022893148
0.00022894234
0.00022895865
0.00022897701
0.0002289952
0.00022901176
0.00022902577
0.00022903665
0.00022904406
0.0002290478
0.0002290478
0.00022904406
0.00022903665
0.00022902577
0.00022901176
0.0002289952
0.00022897701
0.00022895866
0.00022894235
0.00022893148
0.00022886068
0.00022886963
0.00022888346
0.00022889938
0.00022891541
0.0002289302
0.00022894284
0.00022895271
0.00022895946
0.00022896289
0.00022896289
0.00022895946
0.00022895271
0.00022894284
0.0002289302
0.00022891541
0.00022889938
0.00022888346
0.00022886963
0.00022886068
0.00022882437
0.00022883199
0.00022884422
0.00022885863
0.00022887338
0.00022888713
0.00022889897
0.00022890827
0.00022891466
0.0002289179
0.0002289179
0.00022891466
0.00022890827
0.00022889897
0.00022888713
0.00022887338
0.00022885864
0.00022884423
0.00022883199
0.00022882437
)
;

boundaryField
{
    Wall
    {
        type            calculated;
        value           uniform 0.1;
    }
    frontAndBack
    {
        type            empty;
    }
    atmosphere
    {
        type            calculated;
        value           uniform 0.1;
    }
}


// ************************************************************************* //
