/*--------------------------------*- C++ -*----------------------------------*\
| =========                 |                                                 |
| \\      /  F ield         | OpenFOAM: The Open Source CFD Toolbox           |
|  \\    /   O peration     | Version:  3.0.1                                 |
|   \\  /    A nd           | Web:      www.OpenFOAM.org                      |
|    \\/     M anipulation  |                                                 |
\*---------------------------------------------------------------------------*/
FoamFile
{
    version     2.0;
    format      ascii;
    class       volScalarField;
    location    "23";
    object      TS;
}
// * * * * * * * * * * * * * * * * * * * * * * * * * * * * * * * * * * * * * //

dimensions      [0 0 0 1 0 0 0];

internalField   nonuniform List<scalar> 
800
(
336.13511
336.13983
336.14057
336.14066
336.14068
336.14071
336.14074
336.14076
336.14078
336.14079
336.14079
336.14078
336.14076
336.14074
336.14071
336.14068
336.14066
336.14057
336.13983
336.13511
334.106
334.17417
334.18735
334.18885
334.18838
334.18797
334.18786
334.18794
334.18805
334.18813
334.18813
334.18805
334.18793
334.18786
334.18797
334.18838
334.18885
334.18735
334.17417
334.106
332.43931
332.5425
332.5684
332.57223
332.57198
332.57149
332.57137
332.57151
332.5717
332.57183
332.57183
332.5717
332.57151
332.57137
332.57149
332.57198
332.57223
332.5684
332.5425
332.4393
331.19694
331.32602
331.36264
331.36825
331.36808
331.36739
331.36718
331.36729
331.36751
331.36766
331.36766
331.36751
331.36729
331.36718
331.36739
331.36808
331.36825
331.36265
331.32602
331.19694
330.37749
330.52162
330.56974
330.57748
330.57727
330.57622
330.57578
330.57575
330.5759
330.57602
330.57602
330.5759
330.57575
330.57578
330.57622
330.57727
330.57748
330.56974
330.52162
330.37749
329.9104
330.06536
330.12894
330.13986
330.13982
330.13833
330.13757
330.13728
330.13732
330.13737
330.13737
330.13732
330.13729
330.13757
330.13833
330.13982
330.13986
330.12894
330.06536
329.91041
329.64579
329.82308
329.89841
329.91442
329.91521
329.91348
329.91247
329.91196
329.9119
329.91189
329.91189
329.9119
329.91196
329.91247
329.91349
329.91521
329.91442
329.89841
329.82308
329.6458
329.32725
329.55948
329.64101
329.66566
329.66858
329.66736
329.66656
329.66614
329.66617
329.66618
329.66618
329.66617
329.66614
329.66656
329.66737
329.66858
329.66566
329.64102
329.55949
329.32726
328.5403
328.88266
328.97704
329.01705
329.02554
329.02653
329.02727
329.02785
329.02853
329.02884
329.02884
329.02853
329.02785
329.02727
329.02654
329.02555
329.01705
328.97705
328.88267
328.54031
326.64482
327.17352
327.30914
327.3762
327.40008
327.40789
327.41334
327.41697
327.41949
327.42066
327.42066
327.41949
327.41697
327.41335
327.40789
327.40008
327.37621
327.30915
327.17353
326.64482
322.65439
323.45928
323.67617
323.79126
323.86306
323.89191
323.90916
323.91982
323.92638
323.92939
323.92939
323.92638
323.91982
323.90916
323.89192
323.86306
323.79126
323.67618
323.45929
322.65439
316.65233
317.37633
317.64038
317.83951
317.88059
317.92055
317.94731
317.96489
317.9758
317.98097
317.98097
317.9758
317.96489
317.94731
317.92055
317.88059
317.83951
317.64038
317.37633
316.65233
313.5753
313.66749
313.77306
313.83152
313.88125
313.91591
313.94049
313.95775
313.96888
313.97436
313.97436
313.96888
313.95775
313.94049
313.9159
313.88125
313.83151
313.77305
313.66748
313.57529
311.42157
311.43537
311.47616
311.51793
311.55575
311.58615
311.60923
311.62587
311.63669
311.64203
311.64203
311.63669
311.62587
311.60923
311.58615
311.55575
311.51792
311.47615
311.43536
311.42157
310.06664
310.08869
310.12464
310.16298
310.19805
310.22714
310.24972
310.26616
310.27687
310.28216
310.28216
310.27687
310.26615
310.24972
310.22713
310.19805
310.16298
310.12464
310.08869
310.06663
308.83372
308.86538
308.9036
308.9415
308.97546
309.00374
309.02588
309.04208
309.05266
309.05788
309.05788
309.05266
309.04208
309.02588
309.00373
308.97545
308.94149
308.9036
308.86537
308.83372
307.71061
307.75295
307.79915
307.84112
307.87676
307.90564
307.92794
307.94412
307.95463
307.9598
307.9598
307.95463
307.94412
307.92794
307.90564
307.87676
307.84111
307.79914
307.75295
307.71061
306.69381
306.74339
306.79813
306.8465
306.88614
306.91728
306.94077
306.95752
306.96826
306.97351
306.97351
306.96826
306.95752
306.94077
306.91728
306.88614
306.84649
306.79813
306.74338
306.69381
305.77803
305.83075
305.89164
305.94609
305.99046
306.02484
306.05036
306.06829
306.07966
306.08517
306.08517
306.07966
306.06829
306.05036
306.02484
305.99046
305.94609
305.89164
305.83074
305.77803
304.95603
305.00878
305.07269
305.13142
305.17988
305.21753
305.2454
305.26486
305.27713
305.28305
305.28305
305.27713
305.26486
305.2454
305.21753
305.17988
305.13142
305.07269
305.00878
304.95603
304.21966
304.27052
304.33472
304.39551
304.44669
304.48695
304.51695
304.53796
304.5512
304.55759
304.55759
304.5512
304.53796
304.51695
304.48695
304.44669
304.39551
304.33472
304.27052
304.21966
303.56069
303.60866
303.67117
303.732
303.78435
303.8262
303.85775
303.88002
303.89413
303.90095
303.90095
303.89413
303.88002
303.85775
303.8262
303.78435
303.732
303.67117
303.60866
303.56069
302.97129
303.01591
303.07548
303.1348
303.18689
303.22924
303.2616
303.28467
303.2994
303.30655
303.30655
303.2994
303.28467
303.2616
303.22924
303.18689
303.1348
303.07548
303.01591
302.97129
302.44425
302.48538
302.54129
302.59802
302.64871
302.69058
302.723
302.74636
302.76138
302.76871
302.76871
302.76138
302.74636
302.723
302.69058
302.64871
302.59802
302.54129
302.48538
302.44425
301.97305
302.01072
302.06265
302.1161
302.16457
302.20515
302.23696
302.26012
302.27512
302.28247
302.28247
302.27512
302.26012
302.23696
302.20516
302.16457
302.1161
302.06265
302.01073
301.97305
301.5519
301.58625
301.63407
301.68387
301.72957
301.76828
301.79895
301.82147
301.83616
301.84339
301.84339
301.83616
301.82147
301.79895
301.76828
301.72957
301.68387
301.63407
301.58625
301.5519
301.17568
301.20688
301.25064
301.29662
301.33923
301.37567
301.40479
301.42634
301.44049
301.44748
301.44748
301.44049
301.42635
301.40479
301.37567
301.33923
301.29662
301.25064
301.20688
301.17568
300.83992
300.86815
300.90798
300.95013
300.98949
301.02341
301.05072
301.07107
301.08449
301.09114
301.09114
301.08449
301.07107
301.05072
301.02341
300.98949
300.95013
300.90798
300.86815
300.83992
300.5407
300.56616
300.60224
300.64063
300.6767
300.70799
300.73333
300.75232
300.76489
300.77114
300.77114
300.76489
300.75232
300.73333
300.70799
300.6767
300.64063
300.60224
300.56616
300.54071
300.27465
300.29752
300.33005
300.36481
300.39764
300.42626
300.44957
300.4671
300.47875
300.48456
300.48456
300.47875
300.4671
300.44957
300.42626
300.39764
300.36481
300.33005
300.29752
300.27465
300.03886
300.05931
300.08849
300.1198
300.14948
300.17547
300.19673
300.21278
300.22348
300.22882
300.22882
300.22348
300.21278
300.19673
300.17548
300.14948
300.1198
300.08849
300.05931
300.03886
299.83087
299.84906
299.87509
299.90312
299.92979
299.95324
299.97248
299.98705
299.99679
300.00166
300.00166
299.99679
299.98705
299.97248
299.95324
299.92979
299.90312
299.8751
299.84906
299.83087
299.64862
299.66471
299.68779
299.71272
299.73653
299.75753
299.77483
299.78797
299.79677
299.80117
299.80117
299.79677
299.78797
299.77483
299.75753
299.73653
299.71272
299.68779
299.66471
299.64863
299.4905
299.5046
299.52491
299.54693
299.56804
299.58673
299.60217
299.61393
299.62183
299.62579
299.62579
299.62183
299.61393
299.60217
299.58673
299.56804
299.54693
299.52491
299.5046
299.4905
299.35526
299.3675
299.38521
299.4045
299.42307
299.43959
299.45329
299.46377
299.47082
299.47436
299.47436
299.47082
299.46377
299.45329
299.43959
299.42307
299.4045
299.38521
299.3675
299.35526
299.24209
299.25257
299.26785
299.28459
299.30083
299.31534
299.32744
299.33673
299.343
299.34616
299.34616
299.343
299.33673
299.32744
299.31534
299.30083
299.28459
299.26785
299.25257
299.24209
299.15058
299.15942
299.17245
299.18687
299.20098
299.2137
299.22436
299.23259
299.23817
299.24098
299.24098
299.23817
299.23259
299.22436
299.2137
299.20098
299.18687
299.17245
299.15942
299.15058
299.0808
299.08813
299.09914
299.11152
299.12379
299.13496
299.14441
299.15174
299.15674
299.15926
299.15926
299.15674
299.15174
299.14441
299.13496
299.12379
299.11152
299.09914
299.08813
299.0808
299.03324
299.03928
299.04861
299.05935
299.07017
299.08015
299.08867
299.09533
299.09988
299.10219
299.10219
299.09988
299.09533
299.08867
299.08015
299.07017
299.05935
299.04861
299.03928
299.03325
299.00885
299.01399
299.02224
299.03197
299.04191
299.05119
299.05917
299.06545
299.06976
299.07194
299.07194
299.06976
299.06545
299.05917
299.05119
299.04191
299.03197
299.02224
299.01399
299.00885
)
;

boundaryField
{
    Wall
    {
        type            zeroGradient;
    }
    frontAndBack
    {
        type            empty;
    }
    atmosphere
    {
        type            zeroGradient;
    }
}


// ************************************************************************* //
