/*--------------------------------*- C++ -*----------------------------------*\
| =========                 |                                                 |
| \\      /  F ield         | OpenFOAM: The Open Source CFD Toolbox           |
|  \\    /   O peration     | Version:  3.0.1                                 |
|   \\  /    A nd           | Web:      www.OpenFOAM.org                      |
|    \\/     M anipulation  |                                                 |
\*---------------------------------------------------------------------------*/
FoamFile
{
    version     2.0;
    format      ascii;
    class       volVectorField;
    location    "23";
    object      U;
}
// * * * * * * * * * * * * * * * * * * * * * * * * * * * * * * * * * * * * * //

dimensions      [0 1 -1 0 0 0 0];

internalField   nonuniform List<vector> 
800
(
(5.4973623e-06 0.00029927522 0)
(6.7103731e-06 0.00030151535 0)
(6.7812111e-06 0.00030262438 0)
(5.3774813e-06 0.0003028686 0)
(3.90507e-06 0.00030274083 0)
(2.7187531e-06 0.00030252298 0)
(1.8139731e-06 0.0003023263 0)
(1.1372886e-06 0.00030218292 0)
(6.2072035e-07 0.00030209312 0)
(1.9685823e-07 0.0003020504 0)
(-1.9677738e-07 0.00030205039 0)
(-6.2068754e-07 0.0003020931 0)
(-1.1374277e-06 0.00030218287 0)
(-1.8143842e-06 0.00030232621 0)
(-2.7194873e-06 0.0003025228 0)
(-3.9061342e-06 0.0003027406 0)
(-5.378815e-06 0.00030286831 0)
(-6.7828287e-06 0.00030262405 0)
(-6.7120617e-06 0.00030151517 0)
(-5.4983785e-06 0.00029927493 0)
(3.1095892e-06 0.00053250616 0)
(4.1414172e-06 0.00053870856 0)
(5.3720525e-06 0.00054142585 0)
(4.5719448e-06 0.00054219966 0)
(3.4618752e-06 0.00054215031 0)
(2.4696524e-06 0.00054184001 0)
(1.6645111e-06 0.00054150818 0)
(1.0453295e-06 0.00054124613 0)
(5.6915794e-07 0.00054107277 0)
(1.7985728e-07 0.00054098736 0)
(-1.805011e-07 0.00054098729 0)
(-5.6982024e-07 0.00054107262 0)
(-1.0461077e-06 0.00054124587 0)
(-1.6654851e-06 0.00054150782 0)
(-2.470826e-06 0.00054183947 0)
(-3.4632184e-06 0.0005421497 0)
(-4.5734234e-06 0.00054219899 0)
(-5.3736006e-06 0.00054142519 0)
(-4.1429005e-06 0.00053870808 0)
(-3.1103498e-06 0.0005325056 0)
(4.3464416e-06 0.00095817811 0)
(5.1426972e-06 0.00096953565 0)
(5.095474e-06 0.00097428199 0)
(3.9600203e-06 0.00097571582 0)
(2.8420818e-06 0.00097571237 0)
(1.9364106e-06 0.00097522931 0)
(1.2494424e-06 0.00097467823 0)
(7.5551342e-07 0.0009742351 0)
(3.984244e-07 0.00097393731 0)
(1.2327206e-07 0.00097378972 0)
(-1.2446725e-07 0.00097378963 0)
(-3.9958241e-07 0.00097393708 0)
(-7.5675933e-07 0.00097423471 0)
(-1.2508693e-06 0.00097467771 0)
(-1.9379215e-06 0.00097522855 0)
(-2.8435669e-06 0.00097571161 0)
(-3.9614819e-06 0.00097571508 0)
(-5.0967492e-06 0.00097428145 0)
(-5.1435841e-06 0.00096953545 0)
(-4.3466798e-06 0.00095817806 0)
(4.4770166e-06 0.0013622877 0)
(4.9745693e-06 0.0013763548 0)
(4.4205073e-06 0.0013822009 0)
(3.0649023e-06 0.0013838955 0)
(1.9404163e-06 0.0013837026 0)
(1.1461711e-06 0.0013829455 0)
(6.2607775e-07 0.0013821499 0)
(3.1989927e-07 0.0013815202 0)
(1.4175757e-07 0.0013811031 0)
(3.8658944e-08 0.0013808982 0)
(-4.0244779e-08 0.0013808981 0)
(-1.4329216e-07 0.0013811028 0)
(-3.2146822e-07 0.0013815197 0)
(-6.2781934e-07 0.0013821493 0)
(-1.1478674e-06 0.0013829449 0)
(-1.9418848e-06 0.001383702 0)
(-3.0661589e-06 0.0013838949 0)
(-4.4213103e-06 0.0013822008 0)
(-4.9748005e-06 0.0013763551 0)
(-4.4768266e-06 0.0013622881 0)
(4.1383661e-06 0.0017688634 0)
(4.3462311e-06 0.0017866987 0)
(3.4212719e-06 0.0017936284 0)
(1.8769757e-06 0.0017954227 0)
(7.3061077e-07 0.0017948663 0)
(1.1920084e-07 0.0017937249 0)
(-1.6804814e-07 0.0017926419 0)
(-2.3174729e-07 0.0017918185 0)
(-1.7828468e-07 0.0017912885 0)
(-6.6047439e-08 0.0017910326 0)
(6.4126392e-08 0.0017910326 0)
(1.7641807e-07 0.0017912882 0)
(2.2992677e-07 0.0017918181 0)
(1.6616742e-07 0.0017926414 0)
(-1.2086558e-07 0.0017937244 0)
(-7.3201061e-07 0.001794866 0)
(-1.8779669e-06 0.0017954226 0)
(-3.4214792e-06 0.0017936287 0)
(-4.3458455e-06 0.0017866994 0)
(-4.1378379e-06 0.001768864 0)
(3.9598213e-06 0.0022004344 0)
(3.8155447e-06 0.002222351 0)
(2.1272899e-06 0.0022299723 0)
(3.376326e-07 0.0022315082 0)
(-8.3466862e-07 0.0022302879 0)
(-1.1676035e-06 0.0022286074 0)
(-1.1197127e-06 0.0022271859 0)
(-8.6706056e-07 0.0022261755 0)
(-5.3690003e-07 0.0022255517 0)
(-1.8134013e-07 0.002225259 0)
(1.7915625e-07 0.0022252589 0)
(5.3479779e-07 0.0022255514 0)
(8.6506777e-07 0.0022261752 0)
(1.1178005e-06 0.0022271856 0)
(1.1660089e-06 0.0022286072 0)
(8.3351184e-07 0.0022302878 0)
(-3.3820354e-07 0.0022315085 0)
(-2.1270931e-06 0.0022299729 0)
(-3.814829e-06 0.0022223517 0)
(-3.9591595e-06 0.0022004347 0)
(3.5752862e-06 0.0026689839 0)
(2.8901262e-06 0.0026940892 0)
(9.3869566e-08 0.0027019153 0)
(-1.8481076e-06 0.002702631 0)
(-2.921138e-06 0.0027003124 0)
(-2.7311915e-06 0.0026978777 0)
(-2.1796192e-06 0.0026961126 0)
(-1.5253093e-06 0.0026949652 0)
(-8.8849383e-07 0.0026943004 0)
(-2.9074535e-07 0.0026940013 0)
(2.8839532e-07 0.0026940013 0)
(8.8629429e-07 0.0026943003 0)
(1.5232922e-06 0.0026949651 0)
(2.1777433e-06 0.0026961125 0)
(2.7297392e-06 0.0026978777 0)
(2.9202224e-06 0.0027003126 0)
(1.8478009e-06 0.0027026314 0)
(-9.3495623e-08 0.0027019157 0)
(-2.8894912e-06 0.0026940895 0)
(-3.5747964e-06 0.0026689832 0)
(1.7254224e-06 0.0031861128 0)
(6.9281923e-07 0.0032127377 0)
(-2.9189061e-06 0.0032198486 0)
(-5.0150362e-06 0.0032191858 0)
(-5.7146284e-06 0.0032158698 0)
(-4.5640418e-06 0.0032125393 0)
(-3.220474e-06 0.0032105654 0)
(-2.0839682e-06 0.0032094263 0)
(-1.1515632e-06 0.0032088282 0)
(-3.66303e-07 0.0032085794 0)
(3.6396347e-07 0.0032085794 0)
(1.1493497e-06 0.0032088282 0)
(2.0819689e-06 0.0032094262 0)
(3.2187261e-06 0.0032105655 0)
(4.5627593e-06 0.0032125394 0)
(5.7138767e-06 0.00321587 0)
(5.0147368e-06 0.003219186 0)
(2.9191149e-06 0.0032198486 0)
(-6.9267618e-07 0.0032127373 0)
(-1.7253627e-06 0.0031861112 0)
(-2.9887205e-06 0.0037625102 0)
(-4.3727114e-06 0.003788977 0)
(-7.5194094e-06 0.0037936033 0)
(-8.8390325e-06 0.0037910659 0)
(-8.7556939e-06 0.0037865133 0)
(-6.4518265e-06 0.0037830875 0)
(-3.9572436e-06 0.0037814031 0)
(-2.3355364e-06 0.003780557 0)
(-1.2028374e-06 0.0037802048 0)
(-3.6675438e-07 0.0037800919 0)
(3.6452648e-07 0.0037800919 0)
(1.200719e-06 0.0037802048 0)
(2.3336526e-06 0.0037805569 0)
(3.9556526e-06 0.0037814032 0)
(6.4506603e-06 0.0037830875 0)
(8.754958e-06 0.0037865133 0)
(8.8386013e-06 0.0037910658 0)
(7.5192177e-06 0.0037936029 0)
(4.372124e-06 0.003788976 0)
(2.9883117e-06 0.0037625081 0)
(-1.11395e-05 0.0044036821 0)
(-1.3779216e-05 0.0044256054 0)
(-1.4490636e-05 0.004426418 0)
(-1.367699e-05 0.0044223323 0)
(-1.1581864e-05 0.004416779 0)
(-7.2328177e-06 0.0044139998 0)
(-3.8531081e-06 0.0044131903 0)
(-2.003678e-06 0.0044130136 0)
(-8.9380482e-07 0.0044131294 0)
(-2.4614357e-07 0.0044132472 0)
(2.4414299e-07 0.0044132473 0)
(8.918436e-07 0.0044131294 0)
(2.0019693e-06 0.0044130136 0)
(3.8517006e-06 0.0044131903 0)
(7.2317065e-06 0.0044139998 0)
(1.1581057e-05 0.0044167789 0)
(1.3676332e-05 0.004422332 0)
(1.4489986e-05 0.0044264174 0)
(1.3778067e-05 0.0044256042 0)
(1.1138808e-05 0.0044036803 0)
(-2.5099022e-05 0.0050656409 0)
(-3.0370228e-05 0.0050902121 0)
(-2.282176e-05 0.0050923234 0)
(-1.8400742e-05 0.0050898876 0)
(-1.3865806e-05 0.0050888756 0)
(-6.9027757e-06 0.0050886954 0)
(-2.6731199e-06 0.0050895655 0)
(-9.1076514e-07 0.0050904895 0)
(-1.434735e-07 0.0050912512 0)
(1.5534121e-08 0.0050916674 0)
(-1.7174878e-08 0.0050916674 0)
(1.4174242e-07 0.0050912513 0)
(9.0921977e-07 0.0050904896 0)
(2.6718828e-06 0.0050895656 0)
(6.9017263e-06 0.0050886954 0)
(1.3864952e-05 0.0050888755 0)
(1.839995e-05 0.0050898873 0)
(2.2820891e-05 0.005092323 0)
(3.036902e-05 0.0050902113 0)
(2.5098382e-05 0.0050656402 0)
(-3.330363e-05 0.0056439156 0)
(-3.8659308e-05 0.0056712214 0)
(-2.5055415e-05 0.0056766244 0)
(-1.6946055e-05 0.0056814618 0)
(-1.055723e-05 0.0056878156 0)
(-4.1196228e-06 0.0056920732 0)
(-2.2089394e-07 0.0056950495 0)
(8.7992688e-07 0.0056972677 0)
(9.4230693e-07 0.0056987059 0)
(3.7900096e-07 0.0056994181 0)
(-3.802995e-07 0.0056994182 0)
(-9.4363057e-07 0.005698706 0)
(-8.8117364e-07 0.0056972679 0)
(2.1977768e-07 0.0056950495 0)
(4.1186506e-06 0.0056920731 0)
(1.0556394e-05 0.0056878154 0)
(1.6945315e-05 0.0056814614 0)
(2.5054707e-05 0.0056766241 0)
(3.865856e-05 0.0056712211 0)
(3.3303323e-05 0.0056439158 0)
(-3.7929736e-05 0.0060858722 0)
(-4.0658556e-05 0.0061101894 0)
(-1.916342e-05 0.0061197932 0)
(-8.772095e-06 0.006130983 0)
(-3.9352235e-06 0.0061418496 0)
(3.5966426e-07 0.0061499441 0)
(2.7653607e-06 0.0061547501 0)
(2.9031477e-06 0.0061580799 0)
(2.0917972e-06 0.0061600878 0)
(7.5319805e-07 0.0061610456 0)
(-7.542118e-07 0.0061610457 0)
(-2.092838e-06 0.0061600878 0)
(-2.904206e-06 0.00615808 0)
(-2.7664003e-06 0.0061547501 0)
(-3.6062578e-07 0.0061499439 0)
(3.9344031e-06 0.0061418492 0)
(8.7714795e-06 0.0061309825 0)
(1.9162983e-05 0.0061197928 0)
(4.0658407e-05 0.0061101892 0)
(3.7929825e-05 0.0060858726 0)
(3.6454552e-05 0.0065723473 0)
(4.9968916e-05 0.0065954025 0)
(3.1320235e-05 0.0066070736 0)
(2.0585327e-05 0.0066183953 0)
(1.5354175e-05 0.0066311437 0)
(1.2633335e-05 0.0066418466 0)
(1.0405092e-05 0.0066480677 0)
(7.6111574e-06 0.0066524193 0)
(4.6329529e-06 0.0066550036 0)
(1.5561511e-06 0.0066562471 0)
(-1.557205e-06 0.0066562472 0)
(-4.6340369e-06 0.0066550038 0)
(-7.6122749e-06 0.0066524195 0)
(-1.0406207e-05 0.0066480677 0)
(-1.2634386e-05 0.0066418464 0)
(-1.5355086e-05 0.0066311434 0)
(-2.0585993e-05 0.0066183948 0)
(-3.1320658e-05 0.0066070733 0)
(-4.9968948e-05 0.0065954026 0)
(-3.6454357e-05 0.0065723487 0)
(0.0004357874 0.0064080153 0)
(0.00056740964 0.006791212 0)
(0.00040077251 0.0068014689 0)
(0.00025992121 0.0068030568 0)
(0.00017121202 0.0068087109 0)
(0.00011523783 0.0068171308 0)
(7.7612144e-05 0.0068235527 0)
(4.9981784e-05 0.0068287746 0)
(2.803019e-05 0.0068320792 0)
(9.071788e-06 0.0068337593 0)
(-9.0745319e-06 0.0068337595 0)
(-2.8032894e-05 0.0068320796 0)
(-4.9984379e-05 0.0068287752 0)
(-7.761454e-05 0.0068235534 0)
(-0.00011524002 0.0068171314 0)
(-0.00017121386 0.0068087114 0)
(-0.00025992254 0.0068030573 0)
(-0.00040077325 0.0068014697 0)
(-0.00056740949 0.0067912138 0)
(-0.00043578701 0.0064080217 0)
(0.00072561172 0.0050909446 0)
(0.0013112685 0.0065406585 0)
(0.0012308355 0.0067137147 0)
(0.00098344702 0.0066815272 0)
(0.00073863627 0.0066315004 0)
(0.00053588942 0.0065959872 0)
(0.00037506909 0.0065737841 0)
(0.000246458 0.0065608946 0)
(0.00013962627 0.0065536802 0)
(4.549738e-05 0.0065502908 0)
(-4.5502989e-05 0.0065502911 0)
(-0.00013963173 0.0065536805 0)
(-0.00024646307 0.0065608951 0)
(-0.00037507343 0.0065737849 0)
(-0.00053589293 0.0065959878 0)
(-0.00073863928 0.006631501 0)
(-0.00098344932 0.0066815279 0)
(-0.0012308366 0.0067137155 0)
(-0.001311269 0.006540661 0)
(-0.00072561211 0.005090951 0)
(0.00053681908 0.0040067093 0)
(0.0011924901 0.0061827939 0)
(0.0013233627 0.006749709 0)
(0.0011987294 0.0068443935 0)
(0.0009856676 0.006804223 0)
(0.00076222091 0.006738774 0)
(0.00055740396 0.0066808274 0)
(0.00037703855 0.0066381097 0)
(0.00021737513 0.0066106309 0)
(7.1537067e-05 0.0065969737 0)
(-7.1540451e-05 0.0065969738 0)
(-0.00021737798 0.0066106304 0)
(-0.00037704097 0.0066381094 0)
(-0.00055740619 0.0066808271 0)
(-0.00076222261 0.0067387732 0)
(-0.00098566818 0.0068042222 0)
(-0.0011987295 0.0068443927 0)
(-0.0013233625 0.0067497081 0)
(-0.0011924895 0.0061827937 0)
(-0.00053681873 0.0040067121 0)
(0.00032085554 0.0032688504 0)
(0.00087166215 0.0058000287 0)
(0.0011118739 0.0067172435 0)
(0.0011102045 0.0069979105 0)
(0.00098190449 0.0070317005 0)
(0.00080228953 0.0069812496 0)
(0.000610956 0.0069132888 0)
(0.00042514512 0.0068538945 0)
(0.00024955052 0.0068121882 0)
(8.2923852e-05 0.0067907509 0)
(-8.2925608e-05 0.0067907506 0)
(-0.00024955202 0.0068121876 0)
(-0.00042514634 0.006853894 0)
(-0.00061095708 0.0069132881 0)
(-0.00080228967 0.0069812486 0)
(-0.00098190399 0.0070316994 0)
(-0.0011102038 0.0069979091 0)
(-0.0011118727 0.0067172424 0)
(-0.00087166094 0.005800028 0)
(-0.00032085508 0.0032688509 0)
(0.00017539404 0.0027967334 0)
(0.00057574301 0.0054242646 0)
(0.00083584191 0.0065749862 0)
(0.00090795674 0.0070269888 0)
(0.00085542771 0.0071581501 0)
(0.00073397864 0.0071524235 0)
(0.00057997684 0.0070986642 0)
(0.0004144733 0.0070390625 0)
(0.00024753082 0.0069928177 0)
(8.2976223e-05 0.0069680698 0)
(-8.2977023e-05 0.0069680695 0)
(-0.00024753109 0.0069928172 0)
(-0.00041447359 0.0070390617 0)
(-0.00057997706 0.0070986634 0)
(-0.00073397834 0.007152423 0)
(-0.00085542666 0.0071581487 0)
(-0.00090795563 0.0070269874 0)
(-0.00083584055 0.0065749853 0)
(-0.00057574169 0.0054242636 0)
(-0.00017539364 0.0027967327 0)
(9.2148564e-05 0.0025126661 0)
(0.00035901822 0.0051200825 0)
(0.00058897627 0.0064042022 0)
(0.00069027282 0.0069880837 0)
(0.00068821636 0.0072130253 0)
(0.00061699533 0.007263386 0)
(0.00050411601 0.007238466 0)
(0.00036914835 0.0071911982 0)
(0.00022400595 0.0071489698 0)
(7.5653539e-05 0.0071251439 0)
(-7.5652849e-05 0.0071251438 0)
(-0.00022400525 0.007148969 0)
(-0.00036914798 0.0071911971 0)
(-0.00050411551 0.0072384651 0)
(-0.00061699446 0.0072633854 0)
(-0.00068821546 0.0072130244 0)
(-0.0006902715 0.0069880827 0)
(-0.00058897467 0.0064042018 0)
(-0.00035901711 0.0051200814 0)
(-9.21481e-05 0.0025126652 0)
(4.8401202e-05 0.0023466376 0)
(0.00021782057 0.0049004237 0)
(0.00039858065 0.0062513647 0)
(0.00050008257 0.0069264543 0)
(0.00052465642 0.0072291962 0)
(0.00048928779 0.0073345791 0)
(0.00041202673 0.0073441228 0)
(0.00030845968 0.0073162674 0)
(0.00018990917 0.007283787 0)
(6.4543197e-05 0.0072639579 0)
(-6.4541534e-05 0.0072639576 0)
(-0.00018990762 0.0072837859 0)
(-0.00030845818 0.0073162659 0)
(-0.00041202518 0.0073441216 0)
(-0.00048928667 0.0073345781 0)
(-0.00052465556 0.0072291956 0)
(-0.00050008172 0.0069264541 0)
(-0.00039857977 0.0062513647 0)
(-0.00021782003 0.0049004237 0)
(-4.8400988e-05 0.0023466373 0)
(2.6032862e-05 0.0022497112 0)
(0.00013104606 0.0047499764 0)
(0.00026270337 0.0061290734 0)
(0.00034999715 0.0068621939 0)
(0.00038436664 0.0072235842 0)
(0.00037143059 0.0073763768 0)
(0.00032144186 0.0074196524 0)
(0.00024551692 0.0074134943 0)
(0.00015315588 0.0073934772 0)
(5.2333687e-05 0.0073792873 0)
(-5.2330944e-05 0.0073792867 0)
(-0.00015315324 0.0073934759 0)
(-0.00024551438 0.0074134924 0)
(-0.00032143984 0.0074196507 0)
(-0.00037142902 0.0073763761 0)
(-0.00038436543 0.0072235841 0)
(-0.00034999622 0.0068621944 0)
(-0.00026270268 0.0061290742 0)
(-0.000131046 0.0047499779 0)
(-2.6032948e-05 0.002249712 0)
(1.4392205e-05 0.0021926684 0)
(7.8760386e-05 0.0046501699 0)
(0.00016985338 0.0060376049 0)
(0.000238439 0.0068050992 0)
(0.00027280821 0.0072077493 0)
(0.00027225824 0.0073980694 0)
(0.00024154765 0.0074708164 0)
(0.00018789438 0.0074853747 0)
(0.00011862171 0.0074781929 0)
(4.0725869e-05 0.0074700888 0)
(-4.0722634e-05 0.0074700882 0)
(-0.00011861859 0.0074781916 0)
(-0.00018789142 0.0074853726 0)
(-0.00024154513 0.0074708146 0)
(-0.00027225639 0.0073980686 0)
(-0.00027280677 0.0072077494 0)
(-0.0002384379 0.0068051002 0)
(-0.0001698528 0.0060376063 0)
(-7.8760322e-05 0.0046501722 0)
(-1.4392177e-05 0.0021926703 0)
(8.1136361e-06 0.0021588534 0)
(4.7296967e-05 0.0045855479 0)
(0.00010807777 0.0059725842 0)
(0.00015877005 0.0067591766 0)
(0.00018848123 0.0071893576 0)
(0.00019371529 0.0074076244 0)
(0.00017583273 0.0075042424 0)
(0.00013909255 0.007536775 0)
(8.8783854e-05 0.0075413403 0)
(3.0613256e-05 0.0075389793 0)
(-3.0609774e-05 0.0075389786 0)
(-8.8780641e-05 0.0075413384 0)
(-0.00013908955 0.007536773 0)
(-0.00017583023 0.0075042403 0)
(-0.00019371324 0.0074076231 0)
(-0.00018847942 0.0071893578 0)
(-0.00015876875 0.0067591779 0)
(-0.00010807687 0.0059725863 0)
(-4.7296421e-05 0.0045855509 0)
(-8.1133703e-06 0.002158856 0)
(4.6042263e-06 0.0021387724 0)
(2.8274465e-05 0.0045445232 0)
(6.7723773e-05 0.0059280974 0)
(0.00010353625 0.0067246126 0)
(0.00012709842 0.0071723872 0)
(0.00013422156 0.0074105115 0)
(0.00012444297 0.0075254186 0)
(9.999136e-05 0.0075725404 0)
(6.4482547e-05 0.0075870506 0)
(2.23236e-05 0.0075896679 0)
(-2.2321026e-05 0.007589667 0)
(-6.4479538e-05 0.0075870486 0)
(-9.9988378e-05 0.0075725382 0)
(-0.00012444056 0.0075254165 0)
(-0.00013421963 0.0074105103 0)
(-0.0001270966 0.0071723873 0)
(-0.00010353443 0.006724614 0)
(-6.7722488e-05 0.0059280998 0)
(-2.8273749e-05 0.0045445264 0)
(-4.6038662e-06 0.0021387753 0)
(2.5879901e-06 0.0021269111 0)
(1.6721256e-05 0.0045189344 0)
(4.1732426e-05 0.0058985531 0)
(6.6142897e-05 0.006699793 0)
(8.3753834e-05 0.0071583872 0)
(9.0728875e-05 0.0074100866 0)
(8.5819801e-05 0.0075384024 0)
(6.9983254e-05 0.0075967791 0)
(4.5570398e-05 0.0076192391 0)
(1.5838065e-05 0.0076259155 0)
(-1.5835708e-05 0.0076259149 0)
(-4.5567569e-05 0.0076192374 0)
(-6.9980568e-05 0.007596777 0)
(-8.5817598e-05 0.0075384005 0)
(-9.0726925e-05 0.0074100857 0)
(-8.3751981e-05 0.0071583875 0)
(-6.6141359e-05 0.0066997945 0)
(-4.1731242e-05 0.0058985555 0)
(-1.6720242e-05 0.0045189379 0)
(-2.5874793e-06 0.0021269143 0)
(1.4120296e-06 0.0021200065 0)
(9.698936e-06 0.0045032695 0)
(2.5204811e-05 0.005879433 0)
(4.1345554e-05 0.0066826165 0)
(5.393289e-05 0.0071476199 0)
(5.987366e-05 0.007408291 0)
(5.7737597e-05 0.0075460815 0)
(4.77584e-05 0.0076127897 0)
(3.1390266e-05 0.0076413233 0)
(1.0952285e-05 0.0076511558 0)
(-1.0950208e-05 0.0076511554 0)
(-3.1387957e-05 0.007641322 0)
(-4.7756196e-05 0.007612788 0)
(-5.7735932e-05 0.0075460799 0)
(-5.9872005e-05 0.0074082908 0)
(-5.3931071e-05 0.0071476205 0)
(-4.1343926e-05 0.0066826181 0)
(-2.5203056e-05 0.0058794358 0)
(-9.6975093e-06 0.004503273 0)
(-1.4115153e-06 0.0021200095 0)
(7.2646841e-07 0.0021160924 0)
(5.4527263e-06 0.004493892 0)
(1.4836158e-05 0.005867363 0)
(2.521731e-05 0.0066710976 0)
(3.3894082e-05 0.0071397469 0)
(3.8559507e-05 0.0074061645 0)
(3.7903731e-05 0.0075504367 0)
(3.1797487e-05 0.0076231002 0)
(2.1093415e-05 0.0076561022 0)
(7.3891667e-06 0.0076682943 0)
(-7.3872109e-06 0.0076682939 0)
(-2.1091558e-05 0.0076561011 0)
(-3.1796004e-05 0.0076230989 0)
(-3.7902354e-05 0.0075504355 0)
(-3.8558026e-05 0.0074061648 0)
(-3.3892694e-05 0.0071397477 0)
(-2.5215963e-05 0.0066710995 0)
(-1.4834622e-05 0.0058673662 0)
(-5.4517568e-06 0.0044938952 0)
(-7.2618782e-07 0.0021160953 0)
(3.3288869e-07 0.0021139685 0)
(2.9167414e-06 0.0044884373 0)
(8.434147e-06 0.0058599401 0)
(1.4931216e-05 0.00666359 0)
(2.0728584e-05 0.0071342123 0)
(2.4196118e-05 0.0074041989 0)
(2.4261134e-05 0.0075527756 0)
(2.0648661e-05 0.0076295657 0)
(1.3826866e-05 0.007665749 0)
(4.8637639e-06 0.0076796472 0)
(-4.8626778e-06 0.0076796466 0)
(-1.3825787e-05 0.0076657481 0)
(-2.0647667e-05 0.0076295647 0)
(-2.4260116e-05 0.007552775 0)
(-2.4195121e-05 0.007404199 0)
(-2.0727454e-05 0.0071342133 0)
(-1.4929785e-05 0.0066635921 0)
(-8.432714e-06 0.0058599432 0)
(-2.9157891e-06 0.0044884406 0)
(-3.3251208e-07 0.0021139714 0)
(1.1328877e-07 0.0021128982 0)
(1.4321571e-06 0.0044853875 0)
(4.5578824e-06 0.005855508 0)
(8.507513e-06 0.0066588296 0)
(1.2272172e-05 0.0071304464 0)
(1.4745592e-05 0.0074025776 0)
(1.5108984e-05 0.0075539327 0)
(1.3059691e-05 0.0076335013 0)
(8.8325319e-06 0.0076718846 0)
(3.1209528e-06 0.0076869795 0)
(-3.1204289e-06 0.0076869792 0)
(-8.8320531e-06 0.0076718835 0)
(-1.3059355e-05 0.0076335004 0)
(-1.51085e-05 0.0075539321 0)
(-1.4745206e-05 0.0074025776 0)
(-1.2271514e-05 0.0071304473 0)
(-8.5065129e-06 0.0066588319 0)
(-4.5571562e-06 0.0058555112 0)
(-1.4317365e-06 0.0044853913 0)
(-1.1312657e-07 0.0021129014 0)
(-3.5040062e-09 0.002112431 0)
(5.8948838e-07 0.00448378 0)
(2.2704482e-06 0.0058529563 0)
(4.5916468e-06 0.0066558961 0)
(6.969681e-06 0.0071279557 0)
(8.6772505e-06 0.0074013273 0)
(9.1191135e-06 0.0075544241 0)
(8.0219474e-06 0.0076358137 0)
(5.4857493e-06 0.007675677 0)
(1.9480986e-06 0.0076915888 0)
(-1.9483064e-06 0.0076915889 0)
(-5.4858297e-06 0.0076756762 0)
(-8.0219489e-06 0.0076358128 0)
(-9.1193319e-06 0.0075544237 0)
(-8.6773936e-06 0.0074013274 0)
(-6.9695522e-06 0.0071279568 0)
(-4.5913693e-06 0.0066558986 0)
(-2.2701421e-06 0.0058529596 0)
(-5.8956905e-07 0.0044837841 0)
(3.2734696e-09 0.0021124345 0)
(-5.9005219e-08 0.0021122975 0)
(1.3409717e-07 0.0044830105 0)
(9.6643388e-07 0.0058515571 0)
(2.2742322e-06 0.0066541451 0)
(3.7339209e-06 0.0071263519 0)
(4.8807002e-06 0.007400406 0)
(5.2978341e-06 0.007554561 0)
(4.7612756e-06 0.0076371114 0)
(3.2988683e-06 0.0076779445 0)
(1.1784088e-06 0.0076943999 0)
(-1.1792089e-06 0.0076944001 0)
(-3.2995875e-06 0.0076779441 0)
(-4.7617675e-06 0.0076371109 0)
(-5.2983026e-06 0.0075545608 0)
(-4.8811495e-06 0.0074004064 0)
(-3.7341227e-06 0.0071263533 0)
(-2.274599e-06 0.0066541478 0)
(-9.668206e-07 0.0058515607 0)
(-1.3433838e-07 0.0044830146 0)
(5.8922725e-08 0.0021123011 0)
(-7.7081069e-08 0.0021123389 0)
(-9.0887986e-08 0.0044827055 0)
(2.5998807e-07 0.0058508426 0)
(9.564948e-07 0.0066531394 0)
(1.8243252e-06 0.0071253464 0)
(2.5754333e-06 0.0073997499 0)
(2.927013e-06 0.0075545249 0)
(2.7069738e-06 0.0076377941 0)
(1.9075837e-06 0.0076792462 0)
(6.8659573e-07 0.0076960539 0)
(-6.8763787e-07 0.007696054 0)
(-1.9084144e-06 0.0076792458 0)
(-2.70781e-06 0.0076377937 0)
(-2.9280026e-06 0.0075545246 0)
(-2.5763106e-06 0.0073997503 0)
(-1.8252225e-06 0.0071253478 0)
(-9.5730345e-07 0.0066531423 0)
(-2.6042075e-07 0.0058508465 0)
(9.0475128e-08 0.0044827099 0)
(7.692369e-08 0.0021123429 0)
(-7.31622e-08 0.0021124465 0)
(-1.7965791e-07 0.0044826633 0)
(-9.0212565e-08 0.0058505144 0)
(2.4929834e-07 0.0066525897 0)
(7.4681749e-07 0.0071247338 0)
(1.2274192e-06 0.0073992953 0)
(1.5046714e-06 0.0075544173 0)
(1.4520213e-06 0.0076381176 0)
(1.0478689e-06 0.0076799537 0)
(3.8108722e-07 0.0076969839 0)
(-3.8233547e-07 0.0076969837 0)
(-1.0493496e-06 0.0076799532 0)
(-1.4535639e-06 0.0076381171 0)
(-1.5058106e-06 0.0075544167 0)
(-1.22825e-06 0.0073992954 0)
(-7.4773602e-07 0.0071247348 0)
(-2.5031454e-07 0.0066525923 0)
(8.9638183e-08 0.005850518 0)
(1.7930187e-07 0.0044826679 0)
(7.2961551e-08 0.0021124507 0)
(-6.0234573e-08 0.0021125682 0)
(-1.9108855e-07 0.0044827371 0)
(-2.2901146e-07 0.0058504109 0)
(-9.1730616e-08 0.0066523055 0)
(1.7919786e-07 0.0071243716 0)
(4.7934932e-07 0.0073989879 0)
(6.8783828e-07 0.007554292 0)
(7.1486058e-07 0.007638241 0)
(5.3558617e-07 0.0076803082 0)
(1.974226e-07 0.0076974751 0)
(-1.9972177e-07 0.0076974747 0)
(-5.3780511e-07 0.0076803075 0)
(-7.1683345e-07 0.0076382404 0)
(-6.8940622e-07 0.0075542912 0)
(-4.8062218e-07 0.0073989878 0)
(-1.8048102e-07 0.0071243721 0)
(9.0637214e-08 0.0066523075 0)
(2.2833308e-07 0.005850414 0)
(1.9082883e-07 0.004482741 0)
(6.0306826e-08 0.0021125721 0)
(-4.4490844e-08 0.0021126788 0)
(-1.623503e-07 0.0044828478 0)
(-2.4628178e-07 0.0058504171 0)
(-2.1625626e-07 0.0066521818 0)
(-8.2044145e-08 0.0071241642 0)
(9.861585e-08 0.0073987864 0)
(2.4842124e-07 0.0075541773 0)
(3.0474893e-07 0.0076382628 0)
(2.4508477e-07 0.0076804639 0)
(9.2469703e-08 0.0076977119 0)
(-9.4918143e-08 0.0076977117 0)
(-2.4762741e-07 0.0076804632 0)
(-3.0746264e-07 0.0076382619 0)
(-2.5084739e-07 0.0075541762 0)
(-1.0046383e-07 0.007398786 0)
(8.0433942e-08 0.0071241641 0)
(2.1501686e-07 0.0066521831 0)
(2.4550753e-07 0.0058504195 0)
(1.619491e-07 0.0044828511 0)
(4.4446071e-08 0.0021126826 0)
(-2.6767994e-08 0.0021127725 0)
(-1.1162976e-07 0.0044829626 0)
(-1.9496944e-07 0.005850477 0)
(-2.1496608e-07 0.0066521547 0)
(-1.6095604e-07 0.0071240662 0)
(-6.0643284e-08 0.0073986683 0)
(3.9082056e-08 0.0075540942 0)
(9.6550322e-08 0.0076382502 0)
(9.2589942e-08 0.0076805255 0)
(3.6405213e-08 0.0076978193 0)
(-3.9790049e-08 0.0076978192 0)
(-9.5991017e-08 0.0076805246 0)
(-9.9889858e-08 0.0076382488 0)
(-4.1946174e-08 0.0075540928 0)
(5.810965e-08 0.0073986674 0)
(1.5888289e-07 0.0071240656 0)
(2.1376494e-07 0.0066521548 0)
(1.9434708e-07 0.0058504784 0)
(1.1146487e-07 0.0044829653 0)
(2.6798588e-08 0.0021127761 0)
(-4.3062784e-09 0.0021128006 0)
(-4.3695163e-08 0.0044830186 0)
(-1.0273149e-07 0.005850521 0)
(-1.4217448e-07 0.0066521497 0)
(-1.36028e-07 0.0071240093 0)
(-9.0728972e-08 0.0073985841 0)
(-3.2971281e-08 0.0075540173 0)
(1.0090986e-08 0.0076382059 0)
(2.3786328e-08 0.0076805197 0)
(1.021137e-08 0.0076978385 0)
(-1.4255399e-08 0.0076978382 0)
(-2.804981e-08 0.0076805183 0)
(-1.4253208e-08 0.007638204 0)
(2.9320648e-08 0.0075540153 0)
(8.750673e-08 0.0073985823 0)
(1.3340249e-07 0.007124008 0)
(1.4076185e-07 0.0066521489 0)
(1.0228704e-07 0.0058505213 0)
(4.3949778e-08 0.0044830203 0)
(4.6537112e-09 0.0021128038 0)
(2.6886893e-08 0.0021125202 0)
(3.9500373e-08 0.0044827476 0)
(9.140602e-09 0.0058502855 0)
(-3.5961612e-08 0.0066519059 0)
(-5.7900319e-08 0.0071237355 0)
(-5.1048513e-08 0.0073982863 0)
(-2.8292414e-08 0.0075537142 0)
(-6.4565463e-09 0.0076379143 0)
(3.8607881e-09 0.0076802461 0)
(1.5002309e-09 0.0076975777 0)
(-6.3385457e-09 0.0076975772 0)
(-8.7379056e-09 0.0076802445 0)
(1.9000855e-09 0.0076379121 0)
(2.4182302e-08 0.0075537113 0)
(4.7543668e-08 0.0073982834 0)
(5.5113808e-08 0.0071237331 0)
(3.4015118e-08 0.0066519039 0)
(-1.0220432e-08 0.0058502843 0)
(-3.9752087e-08 0.0044827484 0)
(-2.6890352e-08 0.0021125231 0)
(4.6219941e-08 0.0021127503 0)
(9.6223806e-08 0.0044830566 0)
(8.7733813e-08 0.005850649 0)
(4.9530262e-08 0.0066522747 0)
(1.8734005e-08 0.007124081 0)
(5.029966e-09 0.0073986063 0)
(4.4847705e-09 0.0075540201 0)
(7.5487627e-09 0.0076382204 0)
(7.1315259e-09 0.0076805594 0)
(1.3893814e-09 0.0076978976 0)
(-6.8035454e-09 0.0076978971 0)
(-1.2328384e-08 0.0076805582 0)
(-1.2768272e-08 0.0076382181 0)
(-9.3072222e-09 0.0075540164 0)
(-8.9438019e-09 0.007398602 0)
(-2.1507249e-08 0.0071240773 0)
(-5.144315e-08 0.0066522714 0)
(-8.8792395e-08 0.0058506473 0)
(-9.6150989e-08 0.0044830564 0)
(-4.5993602e-08 0.0021127532 0)
)
;

boundaryField
{
    Wall
    {
        type            fixedValue;
        value           uniform (0 0 0);
    }
    frontAndBack
    {
        type            empty;
    }
    atmosphere
    {
        type            pressureInletOutletVelocity;
        value           nonuniform List<vector> 
20
(
(4.6219941e-08 0.0021127503 0)
(9.6223806e-08 0.0044830566 0)
(8.7733813e-08 0.005850649 0)
(4.9530262e-08 0.0066522747 0)
(1.8734005e-08 0.007124081 0)
(5.029966e-09 0.0073986063 0)
(4.4847705e-09 0.0075540201 0)
(7.5487627e-09 0.0076382204 0)
(7.1315259e-09 0.0076805594 0)
(1.3893814e-09 0.0076978976 0)
(-6.8035454e-09 0.0076978971 0)
(-1.2328384e-08 0.0076805582 0)
(-1.2768272e-08 0.0076382181 0)
(-9.3072222e-09 0.0075540164 0)
(-8.9438019e-09 0.007398602 0)
(-2.1507249e-08 0.0071240773 0)
(-5.144315e-08 0.0066522714 0)
(-8.8792395e-08 0.0058506473 0)
(-9.6150989e-08 0.0044830564 0)
(-4.5993602e-08 0.0021127532 0)
)
;
    }
}


// ************************************************************************* //
