/*--------------------------------*- C++ -*----------------------------------*\
| =========                 |                                                 |
| \\      /  F ield         | OpenFOAM: The Open Source CFD Toolbox           |
|  \\    /   O peration     | Version:  3.0.1                                 |
|   \\  /    A nd           | Web:      www.OpenFOAM.org                      |
|    \\/     M anipulation  |                                                 |
\*---------------------------------------------------------------------------*/
FoamFile
{
    version     2.0;
    format      ascii;
    class       volScalarField;
    location    "23";
    object      wBA_l_0;
}
// * * * * * * * * * * * * * * * * * * * * * * * * * * * * * * * * * * * * * //

dimensions      [0 0 0 0 0 0 0];

internalField   nonuniform List<scalar> 
800
(
0.052612326
0.052611287
0.052611168
0.052611164
0.052611167
0.052611166
0.052611163
0.05261116
0.052611158
0.052611157
0.052611156
0.052611158
0.05261116
0.052611163
0.052611166
0.052611167
0.052611164
0.052611168
0.052611287
0.052612325
0.053302637
0.053282876
0.053279248
0.053278609
0.053278502
0.053278415
0.053278294
0.053278169
0.053278071
0.053278018
0.053278018
0.053278071
0.053278169
0.053278294
0.053278415
0.053278502
0.05327861
0.053279248
0.053282876
0.053302637
0.052914108
0.052905062
0.052903675
0.052903221
0.052902747
0.052902304
0.052901932
0.052901655
0.052901476
0.052901389
0.052901389
0.052901476
0.052901655
0.052901931
0.052902303
0.052902746
0.05290322
0.052903674
0.052905061
0.052914107
0.051645963
0.051666417
0.051670364
0.05167019
0.051669223
0.051668281
0.051667591
0.051667148
0.05166689
0.051666775
0.051666775
0.05166689
0.051667147
0.05166759
0.05166828
0.051669221
0.051670188
0.051670363
0.051666416
0.051645961
0.049702287
0.049766854
0.049777356
0.0497773
0.049775671
0.049774148
0.049773125
0.049772527
0.049772204
0.04977207
0.04977207
0.049772203
0.049772526
0.049773123
0.049774146
0.049775669
0.049777298
0.049777354
0.049766852
0.049702284
0.047267408
0.047387201
0.047405274
0.047405592
0.047403204
0.047401128
0.047399824
0.047399113
0.047398764
0.047398632
0.047398632
0.047398763
0.047399112
0.047399822
0.047401126
0.047403202
0.04740559
0.047405272
0.047387199
0.047267406
0.044487044
0.044672097
0.044700498
0.044701951
0.04469895
0.044696471
0.044695024
0.044694296
0.044693986
0.044693884
0.044693884
0.044693985
0.044694295
0.044695022
0.044696469
0.044698948
0.044701949
0.044700496
0.044672095
0.044487041
0.041460265
0.041720271
0.041765117
0.041769493
0.041766199
0.041763636
0.041762267
0.041761679
0.041761498
0.041761458
0.041761458
0.041761497
0.041761678
0.041762265
0.041763635
0.041766197
0.041769491
0.041765115
0.04172027
0.041460262
0.038235027
0.038581503
0.038652208
0.038663347
0.038662094
0.038659372
0.038658379
0.038658111
0.038658143
0.038658185
0.038658185
0.038658142
0.03865811
0.038658378
0.038659371
0.038662093
0.038663346
0.038652206
0.038581502
0.038235025
0.03479993
0.035253731
0.035365232
0.035390148
0.035392606
0.035392158
0.035391863
0.035392027
0.035392272
0.035392369
0.035392368
0.035392271
0.035392026
0.035391862
0.035392157
0.035392605
0.035390148
0.035365231
0.03525373
0.034799928
0.03111362
0.031687948
0.03186573
0.031917228
0.031925888
0.031927477
0.031927828
0.031928161
0.031928366
0.031928359
0.031928358
0.031928365
0.031928159
0.031927827
0.031927476
0.031925887
0.031917228
0.031865729
0.031687948
0.031113619
0.027038587
0.027803199
0.028102821
0.028203461
0.028230184
0.028234828
0.028234599
0.028233836
0.02823308
0.028232482
0.028232482
0.028233078
0.028233834
0.028234598
0.028234827
0.028230183
0.028203461
0.02810282
0.027803199
0.027038588
0.022449381
0.023461077
0.023954764
0.024147435
0.024203149
0.024209845
0.024204567
0.024199027
0.024194949
0.024192589
0.024192588
0.024194948
0.024199023
0.024204565
0.024209844
0.024203148
0.024147435
0.023954763
0.023461078
0.022449383
0.017254211
0.018695915
0.01954222
0.019906421
0.020017469
0.020027399
0.02001
0.019992558
0.019980396
0.019973835
0.019973834
0.019980393
0.019992554
0.020009997
0.020027397
0.020017467
0.019906421
0.01954222
0.018695917
0.017254215
0.011351537
0.013440041
0.014744034
0.015375696
0.01558612
0.015604536
0.015564402
0.015522687
0.015493683
0.015478424
0.015478422
0.01549368
0.015522681
0.015564398
0.015604533
0.015586118
0.015375695
0.014744033
0.013440042
0.011351542
0.0057911135
0.0087443212
0.010414379
0.011267603
0.011578693
0.011606388
0.01153474
0.011456509
0.011400975
0.011371903
0.0113719
0.01140097
0.011456501
0.011534735
0.011606384
0.01157869
0.011267601
0.010414377
0.008744321
0.0057911179
0.0021207363
0.0051768974
0.006979065
0.0079385152
0.0083114348
0.0083497398
0.0082555702
0.0081458069
0.0080649755
0.0080222229
0.0080222199
0.00806497
0.0081457988
0.0082555639
0.0083497348
0.0083114309
0.0079385121
0.0069790621
0.0051768963
0.0021207385
0.00056214488
0.0027922779
0.0044300651
0.0053707225
0.0057638389
0.0058191329
0.0057263718
0.0056076028
0.0055162659
0.0054670728
0.0054670697
0.0055162599
0.0056075944
0.0057263652
0.0058191274
0.0057638346
0.0053707193
0.0044300624
0.0027922767
0.00056214562
0.00011421435
0.0013668068
0.0026540425
0.0034760383
0.0038489767
0.003920218
0.003847458
0.0037416796
0.0036565565
0.0036098061
0.0036098032
0.0036565507
0.0037416716
0.0038474513
0.0039202126
0.0038489725
0.0034760354
0.0026540403
0.001366806
0.00011421451
1.9080142e-05
0.00060594603
0.0014961937
0.0021453293
0.0024672912
0.0025459593
0.0024993562
0.0024181844
0.002349644
0.0023112703
0.0023112678
0.0023496389
0.0024181773
0.0024993502
0.0025459544
0.0024672875
0.0021453269
0.0014961922
0.00060594558
1.9080164e-05
2.7825366e-06
0.00024456464
0.00079276579
0.0012602297
0.0015150795
0.0015906138
0.0015668786
0.0015117174
0.0014625629
0.0014345042
0.0014345022
0.0014625588
0.0015117116
0.0015668736
0.0015906098
0.0015150764
0.0012602279
0.00079276476
0.00024456442
2.7825388e-06
3.6943035e-07
9.0780528e-05
0.00039522525
0.00070434451
0.00089040245
0.0009547841
0.00094666182
0.00091295925
0.00088094135
0.00086228402
0.00086228255
0.00088093825
0.0009129548
0.00094665794
0.00095478101
0.00089040015
0.00070434333
0.00039522462
9.0780432e-05
3.6943043e-07
4.5850089e-08
3.1336296e-05
0.00018591371
0.00037484776
0.00050081764
0.00055038146
0.00055074754
0.00053211351
0.00051293043
0.00050149085
0.00050148982
0.00051292825
0.00053211035
0.00055074476
0.00055037926
0.00050081604
0.00037484703
0.00018591338
3.1336259e-05
4.5850081e-08
5.4043151e-09
1.0157685e-05
8.2824363e-05
0.00019026097
0.00026978035
0.00030471167
0.00030844214
0.0002991327
0.00028847495
0.00028194542
0.00028194476
0.0002884735
0.00029913059
0.00030844026
0.00030471021
0.00026977931
0.00019026055
8.2824206e-05
1.0157673e-05
5.4043149e-09
6.1060761e-10
3.1161289e-06
3.5081574e-05
9.2285314e-05
0.00013933235
0.00016210967
0.00016630195
0.00016215092
0.00015663288
0.00015314041
0.00015314
0.00015663196
0.00016214959
0.00016630076
0.00016210876
0.00013933172
9.2285086e-05
3.5081507e-05
3.1161258e-06
6.1060829e-10
6.6487989e-11
9.1013761e-07
1.4179695e-05
4.2866717e-05
6.9083044e-05
8.2940356e-05
8.6355708e-05
8.4760237e-05
8.2091438e-05
8.0332919e-05
8.0332679e-05
8.2090891e-05
8.4759449e-05
8.6354993e-05
8.2939818e-05
6.908268e-05
4.2866601e-05
1.417967e-05
9.1013702e-07
6.6488204e-11
6.9990684e-12
2.5424665e-07
5.4869835e-06
1.9107688e-05
3.2928342e-05
4.084779e-05
4.3212701e-05
4.2737436e-05
4.1531852e-05
4.0695799e-05
4.0695666e-05
4.1531542e-05
4.273699e-05
4.3212294e-05
4.0847489e-05
3.2928143e-05
1.910763e-05
5.4869746e-06
2.5424661e-07
6.9991126e-12
7.1359115e-13
6.8171484e-08
2.0384321e-06
8.1890019e-06
1.5109299e-05
1.9384574e-05
2.0853179e-05
2.0795664e-05
2.0288695e-05
1.9912749e-05
1.9912679e-05
2.0288527e-05
2.0795425e-05
2.0852958e-05
1.9384412e-05
1.5109196e-05
8.1889743e-06
2.0384293e-06
6.817151e-08
7.1359838e-13
7.0543326e-14
1.7594756e-08
7.2877386e-07
3.3802314e-06
6.6829184e-06
8.8730968e-06
9.7122504e-06
9.771105e-06
9.5743008e-06
9.414353e-06
9.4143172e-06
9.574214e-06
9.7709817e-06
9.7121351e-06
8.8730132e-06
6.6828669e-06
3.3802185e-06
7.2877307e-07
1.7594772e-08
7.0544334e-14
6.7668574e-15
4.3814423e-09
2.5125175e-07
1.3459624e-06
2.852791e-06
3.9215988e-06
4.3693248e-06
4.4362219e-06
4.3669624e-06
4.3026536e-06
4.3026364e-06
4.3669193e-06
4.436161e-06
4.3692672e-06
3.9215572e-06
2.8527663e-06
1.3459564e-06
2.5125153e-07
4.3814482e-09
6.7669812e-15
6.5402644e-16
1.0548146e-09
8.3676794e-08
5.1771906e-07
1.1766555e-06
1.6750975e-06
1.9002754e-06
1.9475613e-06
1.9263752e-06
1.9020222e-06
1.9020143e-06
1.9263546e-06
1.9475323e-06
1.9002477e-06
1.6750777e-06
1.176644e-06
5.1771639e-07
8.3676729e-08
1.0548162e-09
6.5356991e-16
3.9979888e-16
2.4593779e-10
2.6961075e-08
1.9260461e-07
4.6941497e-07
6.9215509e-07
7.9961201e-07
8.2735541e-07
8.2238767e-07
8.1375999e-07
8.137564e-07
8.2237818e-07
8.2734211e-07
7.9959921e-07
6.9214586e-07
4.6940986e-07
1.9260344e-07
2.6961052e-08
2.4593818e-10
3.9411781e-16
3.6665152e-16
5.5631576e-11
8.4154314e-09
6.9379005e-08
1.8130371e-07
2.7690177e-07
3.2579304e-07
3.4035153e-07
3.3999807e-07
3.3717555e-07
3.3717399e-07
3.3999385e-07
3.4034564e-07
3.2578732e-07
2.7689764e-07
1.813015e-07
6.9378506e-08
8.4154223e-09
5.56315e-11
3.6433021e-16
1.2128642e-16
1.2245349e-11
2.5475548e-09
2.4221665e-08
6.785421e-08
1.0733831e-07
1.2862536e-07
1.3567517e-07
1.3621575e-07
1.3538567e-07
1.3538501e-07
1.3621393e-07
1.3567266e-07
1.2862289e-07
1.0733653e-07
6.7853287e-08
2.4221461e-08
2.5475502e-09
1.2245204e-11
1.206593e-16
2.7899905e-17
2.6253427e-12
7.4877983e-10
8.2030322e-09
2.4627087e-08
4.0347279e-08
4.9242305e-08
5.2444545e-08
5.2918559e-08
5.2713111e-08
5.2712838e-08
5.2917807e-08
5.2443509e-08
4.9241276e-08
4.0346529e-08
2.4626715e-08
8.2029509e-09
7.4877735e-10
2.6252665e-12
2.7781206e-17
5.1957115e-18
5.4837103e-13
2.1386088e-10
2.6970641e-09
8.6742445e-09
1.471652e-08
1.8292113e-08
1.9669972e-08
1.9947413e-08
1.991394e-08
1.9913832e-08
1.9947109e-08
1.9669557e-08
1.8291697e-08
1.4716217e-08
8.6740989e-09
2.6970321e-09
2.1385972e-10
5.4834479e-13
5.1765761e-18
8.007347e-19
1.1158882e-13
5.9397923e-11
8.6150917e-10
2.9670725e-09
5.2120389e-09
6.5973963e-09
7.1626298e-09
7.299931e-09
7.3036638e-09
7.303622e-09
7.299813e-09
7.1624687e-09
6.5972337e-09
5.2119196e-09
2.9670171e-09
8.6149711e-10
5.9397458e-11
1.1158088e-13
7.9845491e-19
8.907735e-20
2.2106191e-14
1.6052999e-11
2.675212e-10
9.8621609e-10
1.7934322e-09
2.3116281e-09
2.5336954e-09
2.595063e-09
2.6020179e-09
2.6020022e-09
2.5950185e-09
2.5336347e-09
2.3115664e-09
1.7933867e-09
9.8619557e-10
2.675168e-10
1.6052824e-11
2.2104069e-14
8.8873677e-20
6.8370729e-21
4.2645055e-15
4.2241688e-12
8.0805555e-11
3.1872348e-10
5.9990509e-10
7.8729827e-10
8.7113228e-10
8.9661349e-10
9.0093856e-10
9.0093283e-10
8.9659721e-10
8.7111012e-10
7.8727557e-10
5.9988826e-10
3.1871609e-10
8.0804005e-11
4.2241085e-12
4.26399e-15
6.8011563e-21
5.0118187e-22
8.0369528e-16
1.0829299e-12
2.3754584e-11
1.0020473e-10
1.9517807e-10
2.6077281e-10
2.9126223e-10
3.0123871e-10
3.0332908e-10
3.0332705e-10
3.0123292e-10
2.9125434e-10
2.6076469e-10
1.9517202e-10
1.0020215e-10
2.3754065e-11
1.0829122e-12
8.0358372e-16
4.9757164e-22
)
;

boundaryField
{
    Wall
    {
        type            zeroGradient;
    }
    frontAndBack
    {
        type            empty;
    }
    atmosphere
    {
        type            zeroGradient;
    }
}


// ************************************************************************* //
