/*--------------------------------*- C++ -*----------------------------------*\
| =========                 |                                                 |
| \\      /  F ield         | OpenFOAM: The Open Source CFD Toolbox           |
|  \\    /   O peration     | Version:  3.0.1                                 |
|   \\  /    A nd           | Web:      www.OpenFOAM.org                      |
|    \\/     M anipulation  |                                                 |
\*---------------------------------------------------------------------------*/
FoamFile
{
    version     2.0;
    format      ascii;
    class       volScalarField;
    location    "23";
    object      wBA_l;
}
// * * * * * * * * * * * * * * * * * * * * * * * * * * * * * * * * * * * * * //

dimensions      [0 0 0 0 0 0 0];

internalField   nonuniform List<scalar> 
800
(
0.05257449
0.05257344
0.052573319
0.052573316
0.052573318
0.052573318
0.052573315
0.052573312
0.05257331
0.052573308
0.052573308
0.05257331
0.052573312
0.052573315
0.052573318
0.052573318
0.052573316
0.052573319
0.05257344
0.052574489
0.053266906
0.053247022
0.053243365
0.053242724
0.053242618
0.053242535
0.053242417
0.053242294
0.053242198
0.053242146
0.053242146
0.053242198
0.053242294
0.053242418
0.053242536
0.053242619
0.053242724
0.053243365
0.053247021
0.053266906
0.052888765
0.052879419
0.052877966
0.052877506
0.052877037
0.052876597
0.052876227
0.052875951
0.052875771
0.052875684
0.052875684
0.052875771
0.052875951
0.052876227
0.052876597
0.052877036
0.052877505
0.052877965
0.052879418
0.052888764
0.051636467
0.051656418
0.05166028
0.05166011
0.05165915
0.05165821
0.051657518
0.051657071
0.05165681
0.051656694
0.051656694
0.05165681
0.051657071
0.051657517
0.051658209
0.051659149
0.051660109
0.051660278
0.051656416
0.051636465
0.049711751
0.049775601
0.049786016
0.049785975
0.049784353
0.049782827
0.049781795
0.049781188
0.049780858
0.049780721
0.04978072
0.049780857
0.049781187
0.049781793
0.049782825
0.049784351
0.049785973
0.049786014
0.049775599
0.049711749
0.047297424
0.047416249
0.047434222
0.047434553
0.047432164
0.047430074
0.047428752
0.047428025
0.047427663
0.047427526
0.047427525
0.047427663
0.047428023
0.04742875
0.047430072
0.047432162
0.04743455
0.047434219
0.047416247
0.047297422
0.044538612
0.044722346
0.044750584
0.044752021
0.044748997
0.044746483
0.044745004
0.044744252
0.044743925
0.044743816
0.044743816
0.044743924
0.04474425
0.044745002
0.044746481
0.044748995
0.044752019
0.044750582
0.044722344
0.044538609
0.041534655
0.041792873
0.041837351
0.041841624
0.04183828
0.041835652
0.041834233
0.041833612
0.04183341
0.041833361
0.041833361
0.04183341
0.041833611
0.041834231
0.04183565
0.041838279
0.041841622
0.041837349
0.041792871
0.041534653
0.038334628
0.038678618
0.038748553
0.038759399
0.03875798
0.038755182
0.038754122
0.038753815
0.038753825
0.038753859
0.038753858
0.038753824
0.038753814
0.038754121
0.03875518
0.038757979
0.038759398
0.038748552
0.038678617
0.038334626
0.03492955
0.035379666
0.035489516
0.035513752
0.035515853
0.035515273
0.035514908
0.035515034
0.035515263
0.035515356
0.035515356
0.035515263
0.035515033
0.035514906
0.035515272
0.035515852
0.035513751
0.035489515
0.035379665
0.034929548
0.0312727
0.031844567
0.032019822
0.032069914
0.03207876
0.032080282
0.032080583
0.03208091
0.032081126
0.03208113
0.03208113
0.032081125
0.032080908
0.032080582
0.03208028
0.032078759
0.032069914
0.032019821
0.031844566
0.031272699
0.027248699
0.028003658
0.028296931
0.028395074
0.028420838
0.028425423
0.028425285
0.028424628
0.028423956
0.028423409
0.028423408
0.028423955
0.028424625
0.028425283
0.028425421
0.028420837
0.028395074
0.02829693
0.028003658
0.027248699
0.022704968
0.023702539
0.024185152
0.024372913
0.024427224
0.024434022
0.024429192
0.024424037
0.024420218
0.024417992
0.024417991
0.024420216
0.024424034
0.02442919
0.024434021
0.024427223
0.024372913
0.024185151
0.02370254
0.02270497
0.017577827
0.018991683
0.019817209
0.020171452
0.020279603
0.020289754
0.020273362
0.020256839
0.020245286
0.020239038
0.020239037
0.020245284
0.020256835
0.020273359
0.020289752
0.020279602
0.020171452
0.019817209
0.018991685
0.017577831
0.011707528
0.013751296
0.015035177
0.015655335
0.015861693
0.015880443
0.01584207
0.015802057
0.015774203
0.015759528
0.015759526
0.015774199
0.015802051
0.015842067
0.01588044
0.015861691
0.015655334
0.015035175
0.013751297
0.011707533
0.0060899651
0.009005349
0.010665101
0.011514438
0.011824669
0.011853657
0.011784191
0.011708034
0.01165396
0.011625634
0.011625632
0.011653956
0.011708027
0.011784186
0.011853653
0.011824666
0.011514436
0.010665099
0.0090053489
0.0060899698
0.0022786849
0.00536746
0.0071782383
0.008141918
0.0085169079
0.0085563882
0.0084632244
0.0083544247
0.0082743485
0.0082320006
0.0082319976
0.0082743429
0.0083544168
0.0084632183
0.0085563834
0.008516904
0.0081419149
0.0071782355
0.005367459
0.0022786874
0.00061587103
0.0029158914
0.0045786053
0.0055307475
0.005928468
0.0059846449
0.0058913345
0.005771856
0.0056800533
0.0056306272
0.0056306242
0.0056800472
0.0057718477
0.0058913277
0.0059846393
0.0059284638
0.0055307443
0.0045786025
0.0029158903
0.00061587184
0.0001270831
0.001438503
0.0027577781
0.0035958479
0.0039753473
0.004047588
0.0039733759
0.0038657093
0.0037791574
0.0037316402
0.0037316373
0.0037791515
0.0038657012
0.0039733692
0.0040475826
0.0039753431
0.003595845
0.0027577758
0.0014385022
0.00012708327
2.1475971e-05
0.00064288556
0.0015636863
0.0022302049
0.0025597669
0.0026398455
0.0025916773
0.0025082372
0.0024378756
0.0023984969
0.0023984944
0.0024378704
0.00250823
0.0025916713
0.0026398406
0.0025597631
0.0022302025
0.0015636847
0.0006428851
2.1475997e-05
3.1587834e-06
0.00026150602
0.00083353309
0.0013168972
0.0015793537
0.0016566945
0.0016317684
0.0015745631
0.0015236799
0.0014946465
0.0014946445
0.0015236757
0.0015745572
0.0016317634
0.0016566904
0.0015793506
0.0013168954
0.00083353203
0.00026150579
3.1587861e-06
4.2218422e-07
9.7782005e-05
0.00041808783
0.00073995545
0.00093276339
0.00099911593
0.00099031533
0.00095507113
0.0009216751
0.00090222507
0.00090222356
0.00092167192
0.00095506658
0.00099031138
0.00099911277
0.00093276103
0.00073995424
0.00041808718
9.7781905e-05
4.2218435e-07
5.2691736e-08
3.3984119e-05
0.00019785781
0.00039593234
0.00052729452
0.00057871704
0.00057883303
0.00055918475
0.00053903306
0.0005270245
0.00052702344
0.0005390308
0.00055918149
0.00057883017
0.00057871478
0.00052729288
0.00039593159
0.00019785746
3.398408e-05
5.2691734e-08
6.2423282e-09
1.1086751e-05
8.866742e-05
0.00020205162
0.00028549471
0.00032197607
0.0003257221
0.00031582047
0.00030454753
0.0002976479
0.00029764721
0.00030454602
0.00031581828
0.00032572015
0.00032197456
0.00028549363
0.00020205118
8.8667254e-05
1.1086739e-05
6.2423288e-09
7.0872282e-10
3.4218976e-06
3.7773278e-05
9.853199e-05
0.00014820564
0.00017214801
0.00017647424
0.00017201554
0.00016613947
0.00016242541
0.00016242498
0.00016613851
0.00017201416
0.000176473
0.00017214705
0.00014820498
9.8531753e-05
3.7773208e-05
3.4218943e-06
7.0872361e-10
7.7543435e-11
1.0053007e-06
1.535354e-05
4.601239e-05
7.3860305e-05
8.851857e-05
9.20901e-05
9.0354223e-05
8.749296e-05
8.5611106e-05
8.5610854e-05
8.7492383e-05
9.0353395e-05
9.2089349e-05
8.8518006e-05
7.3859923e-05
4.6012268e-05
1.5353513e-05
1.0053e-06
7.7543677e-11
8.2025416e-12
2.8242377e-07
5.9738359e-06
2.061807e-05
3.538613e-05
4.3814997e-05
4.6311737e-05
4.578259e-05
4.4481063e-05
4.358078e-05
4.3580639e-05
4.4480734e-05
4.5782119e-05
4.6311307e-05
4.3814678e-05
3.5385921e-05
2.061801e-05
5.9738264e-06
2.8242373e-07
8.202591e-12
8.4042953e-13
7.614499e-08
2.2312223e-06
8.8824369e-06
1.63202e-05
2.0897885e-05
2.2460737e-05
2.2388304e-05
2.1836966e-05
2.1429594e-05
2.1429519e-05
2.1836788e-05
2.2388049e-05
2.2460502e-05
2.0897713e-05
1.632009e-05
8.8824076e-06
2.2312193e-06
7.6145019e-08
8.4043767e-13
8.3501627e-14
1.9758735e-08
8.0190333e-07
3.6854194e-06
7.2553609e-06
9.6142823e-06
1.0513666e-05
1.057218e-05
1.0356415e-05
1.0181988e-05
1.018195e-05
1.0356322e-05
1.0572048e-05
1.0513543e-05
9.6141932e-06
7.255306e-06
3.6854056e-06
8.0190248e-07
1.9758753e-08
8.3502778e-14
8.0510922e-15
4.9462947e-09
2.7789618e-07
1.4750053e-06
3.1129258e-06
4.2707381e-06
4.7537836e-06
4.8241307e-06
4.7474632e-06
4.6768689e-06
4.6768502e-06
4.7474169e-06
4.8240652e-06
4.7537219e-06
4.2706937e-06
3.1128993e-06
1.4749989e-06
2.7789594e-07
4.9463014e-09
8.0512356e-15
7.7707389e-16
1.1969555e-09
9.3022843e-08
5.7024161e-07
1.2904745e-06
1.8334973e-06
2.0779697e-06
2.1285907e-06
2.1048227e-06
2.0779025e-06
2.0778938e-06
2.1048004e-06
2.1285594e-06
2.0779399e-06
1.8334759e-06
1.2904622e-06
5.7023875e-07
9.3022775e-08
1.1969575e-09
7.7662926e-16
4.0491562e-16
2.8049123e-10
3.0123429e-08
2.1321734e-07
5.1743422e-07
7.6145889e-07
8.78832e-07
9.0886083e-07
9.0313898e-07
8.9352887e-07
8.9352496e-07
9.0312867e-07
9.0884637e-07
8.7881812e-07
7.6144892e-07
5.1742869e-07
2.1321607e-07
3.0123405e-08
2.804917e-10
3.9933971e-16
4.0845014e-16
6.3760101e-11
9.4493531e-09
7.7190688e-08
2.0086367e-07
3.0617857e-07
3.5989726e-07
3.757904e-07
3.7529065e-07
3.7211897e-07
3.7211726e-07
3.7528604e-07
3.7578397e-07
3.5989103e-07
3.0617408e-07
2.0086126e-07
7.719015e-08
9.4493439e-09
6.3760052e-11
4.0589727e-16
1.3991937e-16
1.4101663e-11
2.8746629e-09
2.7084119e-08
7.5555834e-08
1.1929268e-07
1.4281709e-07
1.5057035e-07
1.5112681e-07
1.5018349e-07
1.5018277e-07
1.5112482e-07
1.5056759e-07
1.4281438e-07
1.1929073e-07
7.5554825e-08
2.7083898e-08
2.8746583e-09
1.4101514e-11
1.3921047e-16
3.2707087e-17
3.0377246e-12
8.490614e-10
9.2183714e-09
2.7561472e-08
4.5070058e-08
5.495611e-08
5.8501795e-08
5.9013966e-08
5.8776281e-08
5.877598e-08
5.9013135e-08
5.850065e-08
5.4954977e-08
4.5069235e-08
2.7561063e-08
9.2182826e-09
8.490588e-10
3.0376408e-12
3.2578507e-17
6.1596215e-18
6.3749971e-13
2.4368439e-10
3.0460572e-09
9.75713e-09
1.6523411e-08
2.0519813e-08
2.2055225e-08
2.236021e-08
2.2319531e-08
2.2319411e-08
2.2359874e-08
2.2054765e-08
2.0519353e-08
1.6523076e-08
9.7569691e-09
3.0460221e-09
2.4368315e-10
6.374698e-13
6.1370982e-18
9.5940778e-19
1.3033158e-13
6.8009769e-11
9.7785443e-10
3.3544716e-09
5.8820615e-09
7.439137e-09
8.0728844e-09
8.2254747e-09
8.2285601e-09
8.2285135e-09
8.2253431e-09
8.0727048e-09
7.438956e-09
5.8819292e-09
3.3544099e-09
9.778411e-10
6.8009262e-11
1.303226e-13
9.5658309e-19
1.086115e-19
2.5939261e-14
1.8469503e-11
3.0517033e-10
1.1206739e-09
2.0344253e-09
2.620098e-09
2.8705772e-09
2.939367e-09
2.9468614e-09
2.9468438e-09
2.9393171e-09
2.8705091e-09
2.620029e-09
2.0343746e-09
1.120651e-09
3.0516542e-10
1.846931e-11
2.5936847e-14
1.0845532e-19
8.4926525e-21
5.0266047e-15
4.8835674e-12
9.264011e-11
3.6403165e-10
6.8404163e-10
8.9701181e-10
9.9212884e-10
1.0209067e-09
1.025705e-09
1.0256985e-09
1.0208883e-09
9.9210384e-10
8.9698626e-10
6.8402276e-10
3.6402335e-10
9.2638371e-11
4.8834995e-12
5.0260207e-15
8.4533611e-21
6.2872778e-22
9.5152201e-16
1.2580364e-12
2.7370604e-11
1.1503732e-10
2.2370882e-10
2.9866932e-10
3.3346341e-10
3.4480843e-10
3.4716104e-10
3.4715874e-10
3.4480186e-10
3.3345447e-10
2.9866013e-10
2.2370199e-10
1.1503441e-10
2.7370018e-11
1.2580162e-12
9.5139321e-16
6.2446741e-22
)
;

boundaryField
{
    Wall
    {
        type            zeroGradient;
    }
    frontAndBack
    {
        type            empty;
    }
    atmosphere
    {
        type            zeroGradient;
    }
}


// ************************************************************************* //
