/*--------------------------------*- C++ -*----------------------------------*\
| =========                 |                                                 |
| \\      /  F ield         | OpenFOAM: The Open Source CFD Toolbox           |
|  \\    /   O peration     | Version:  3.0.1                                 |
|   \\  /    A nd           | Web:      www.OpenFOAM.org                      |
|    \\/     M anipulation  |                                                 |
\*---------------------------------------------------------------------------*/
FoamFile
{
    version     2.0;
    format      ascii;
    class       volScalarField;
    location    "23";
    object      wBA_g;
}
// * * * * * * * * * * * * * * * * * * * * * * * * * * * * * * * * * * * * * //

dimensions      [0 0 0 0 0 0 0];

internalField   nonuniform List<scalar> 
800
(
0.044134701
0.044138316
0.044138992
0.044139146
0.044139231
0.044139299
0.044139357
0.0441394
0.04413943
0.044139444
0.044139444
0.04413943
0.044139401
0.044139357
0.0441393
0.044139231
0.044139147
0.044138993
0.044138316
0.0441347
0.047594611
0.047587307
0.047583889
0.047582715
0.047581803
0.04758113
0.047580636
0.047580291
0.047580073
0.047579967
0.047579967
0.047580073
0.04758029
0.047580635
0.047581129
0.047581802
0.047582715
0.047583888
0.047587306
0.047594609
0.048711328
0.048721802
0.04875541
0.048754389
0.048752752
0.048751558
0.04875084
0.048750471
0.048750292
0.048750224
0.048750224
0.048750291
0.04875047
0.048750838
0.048751556
0.048752749
0.048754385
0.048755406
0.048721798
0.048711322
0.047926768
0.047982964
0.048042176
0.048040576
0.048038272
0.048036823
0.048036166
0.0480361
0.048036185
0.048036282
0.048036282
0.048036183
0.048036097
0.048036162
0.048036817
0.048038266
0.048040569
0.048042169
0.047982957
0.047926758
0.04581735
0.045938896
0.045997051
0.046030225
0.046026254
0.046024292
0.046023692
0.046024046
0.04602448
0.046024809
0.046024808
0.046024477
0.046024041
0.046023685
0.046024284
0.046026245
0.046030215
0.045997041
0.045938885
0.045817336
0.042976286
0.043198148
0.04322727
0.04328905
0.043280949
0.043277386
0.043276308
0.043276802
0.043277444
0.043277958
0.043277957
0.04327744
0.043276796
0.0432763
0.043277376
0.043280937
0.043289038
0.043227258
0.043198134
0.04297627
0.039879201
0.04023108
0.040223159
0.040285123
0.040269439
0.040262398
0.040259765
0.040259711
0.040260171
0.040260687
0.040260686
0.040260167
0.040259704
0.040259756
0.040262387
0.040269426
0.040285109
0.040223145
0.040231064
0.039879182
0.03679911
0.037212811
0.037256589
0.037292329
0.037264721
0.037251765
0.037246107
0.037244567
0.037244306
0.037244559
0.037244557
0.037244303
0.03724456
0.037246098
0.037251753
0.037264707
0.037292314
0.037256573
0.037212793
0.036799089
0.033446303
0.034048483
0.034090352
0.03408588
0.034203771
0.034181655
0.034171478
0.034167481
0.034165951
0.034165663
0.034165662
0.034165947
0.034167475
0.034171468
0.034181643
0.034203757
0.034085864
0.034090335
0.034048464
0.033446281
0.028284727
0.029730121
0.029699572
0.029659485
0.029823973
0.030081858
0.030067613
0.030061296
0.030058579
0.030057759
0.030057758
0.030058576
0.03006129
0.030067605
0.030081848
0.02982396
0.02965947
0.029699556
0.029730103
0.028284706
0.017828704
0.020359915
0.020930723
0.020904036
0.021585317
0.021829929
0.021819046
0.021814942
0.021813622
0.0218134
0.021813399
0.02181362
0.021814938
0.02181904
0.021829921
0.021585308
0.020904026
0.020930712
0.020359901
0.017828689
0.0081149689
0.009285586
0.009543345
0.009557072
0.009842084
0.0099850938
0.009987777
0.0099910457
0.0099936026
0.0099950294
0.0099950289
0.0099936008
0.0099910427
0.0099877726
0.0099850883
0.0098420773
0.0095570643
0.0095433368
0.0092855767
0.0081149588
0.0041498712
0.0046328758
0.0047354787
0.0047600853
0.0048568015
0.0049181181
0.0049229719
0.004926806
0.0049293315
0.0049306186
0.0049306182
0.0049293303
0.004926804
0.0049229692
0.0049181146
0.0048567973
0.0047600805
0.0047354737
0.0046328704
0.0041498654
0.0022066044
0.0024513023
0.002522176
0.0025502619
0.0025860727
0.0026088623
0.0026125286
0.0026150724
0.0026166325
0.0026173823
0.002617382
0.0026166318
0.0026150712
0.002612527
0.0026088603
0.0025860703
0.0025502593
0.0025221733
0.0024512994
0.0022066016
0.0010919193
0.0012714003
0.001342652
0.0013716163
0.0013870868
0.0013937823
0.0013946022
0.0013949753
0.0013951446
0.0013951862
0.001395186
0.0013951443
0.0013949746
0.0013946013
0.0013937812
0.0013870856
0.0013716149
0.0013426505
0.0012713988
0.0010919181
0.00044913081
0.00063914043
0.00071732098
0.00074714805
0.00075559298
0.000755253
0.00075249426
0.0007501552
0.00074860614
0.00074779903
0.00074779892
0.00074860588
0.00075015477
0.00075249371
0.00075525236
0.00075559225
0.00074714724
0.00071732014
0.00063913967
0.0004491305
0.00013922372
0.00030321682
0.0003807549
0.00041215103
0.00041979721
0.0004174848
0.00041272888
0.00040856149
0.00040573497
0.00040428177
0.00040428168
0.00040573476
0.00040856117
0.00041272851
0.00041748439
0.00041979676
0.00041215056
0.00038075443
0.00030321645
0.00013922367
3.2255223e-05
0.00013385545
0.00019693175
0.00022608139
0.00023440178
0.00023288713
0.00022838088
0.00022406103
0.00022099793
0.00021939918
0.00021939911
0.00022099776
0.00022406079
0.00022838062
0.00023288685
0.0002344015
0.00022608112
0.0001969315
0.00013385527
3.2255221e-05
5.8297542e-06
5.4590296e-05
9.8013762e-05
0.00012144892
0.00012951972
0.00012933078
0.00012611815
0.00012267075
0.00012010628
0.00011874088
0.00011874082
0.00012010615
0.00012267057
0.00012611797
0.0001293306
0.00012951955
0.00012144877
9.8013638e-05
5.4590227e-05
5.8297538e-06
8.7351031e-07
2.0504864e-05
4.6594439e-05
6.3251454e-05
7.0019174e-05
7.0702665e-05
6.8819357e-05
6.6488685e-05
6.4665612e-05
6.3674754e-05
6.3674714e-05
6.4665518e-05
6.6488554e-05
6.881923e-05
7.0702549e-05
7.0019075e-05
6.3251376e-05
4.6594384e-05
2.050484e-05
8.7351017e-07
1.1470739e-07
7.115318e-06
2.1076758e-05
3.1746932e-05
3.6763136e-05
3.7749085e-05
3.6823712e-05
3.5429794e-05
3.4278181e-05
3.3638945e-05
3.3638916e-05
3.4278117e-05
3.5429703e-05
3.6823628e-05
3.7749013e-05
3.676308e-05
3.1746894e-05
2.1076736e-05
7.1153112e-06
1.1470734e-07
1.3752681e-08
2.2981786e-06
9.063532e-06
1.5310055e-05
1.8666271e-05
1.9583648e-05
1.9216551e-05
1.8463086e-05
1.7800414e-05
1.7424311e-05
1.7424292e-05
1.7800372e-05
1.8463026e-05
1.9216497e-05
1.9583605e-05
1.8666241e-05
1.531004e-05
9.0635237e-06
2.298177e-06
1.3752671e-08
1.5462214e-09
6.9694328e-07
3.7093655e-06
7.0868874e-06
9.1452799e-06
9.8417336e-06
9.7452807e-06
9.3734835e-06
9.0209832e-06
8.8159886e-06
8.8159768e-06
9.0209575e-06
9.3734466e-06
9.7452482e-06
9.8417091e-06
9.1452648e-06
7.0868817e-06
3.7093631e-06
6.969431e-07
1.5462197e-09
1.6572218e-10
1.9999842e-07
1.4480274e-06
3.1494842e-06
4.319826e-06
4.7833234e-06
4.7919822e-06
4.624123e-06
4.449201e-06
4.3446353e-06
4.3446285e-06
4.449186e-06
4.6241014e-06
4.7919635e-06
4.78331e-06
4.3198188e-06
3.1494828e-06
1.4480271e-06
1.9999849e-07
1.65722e-10
1.7097844e-11
5.4648615e-08
5.4058898e-07
1.3450382e-06
1.9672847e-06
2.2468098e-06
2.281878e-06
2.2129235e-06
2.1314844e-06
2.0812199e-06
2.081216e-06
2.1314759e-06
2.2129115e-06
2.2818677e-06
2.2468029e-06
1.9672815e-06
1.3450382e-06
5.4058917e-07
5.4648679e-08
1.7097835e-11
1.7076097e-12
1.4285678e-08
1.9350596e-07
5.5270689e-07
8.6420817e-07
1.0198715e-06
1.0516671e-06
1.0263533e-06
9.9065969e-07
9.6777843e-07
9.6777641e-07
9.906552e-07
1.0263469e-06
1.0516618e-06
1.0198681e-06
8.6420674e-07
5.5270718e-07
1.9350617e-07
1.428571e-08
1.7076114e-12
1.6560938e-13
3.5851625e-09
6.6570347e-08
2.188394e-07
3.6648617e-07
4.4750719e-07
4.6906349e-07
4.611419e-07
4.4639366e-07
4.3649559e-07
4.3649458e-07
4.4639138e-07
4.6113868e-07
4.6906081e-07
4.4750558e-07
3.6648557e-07
2.1883964e-07
6.6570476e-08
3.5851754e-09
1.6560996e-13
1.5622992e-14
8.6603756e-10
2.2055895e-08
8.360469e-08
1.5016951e-07
1.8991812e-07
2.0251246e-07
2.0070615e-07
1.9496442e-07
1.9088584e-07
1.9088535e-07
1.9496332e-07
2.0070459e-07
2.0251117e-07
1.8991738e-07
1.5016926e-07
8.3604833e-08
2.205596e-08
8.6604192e-10
1.5623097e-14
1.4348268e-15
2.0176901e-10
7.0503022e-09
3.0859437e-08
5.9512823e-08
7.8008431e-08
8.4670365e-08
8.4640026e-08
8.2540399e-08
8.0937207e-08
8.093698e-08
8.2539888e-08
8.4639297e-08
8.4669767e-08
7.8008101e-08
5.951272e-08
3.0859508e-08
7.0503308e-09
2.0177034e-10
1.4348421e-15
1.2834068e-16
4.541065e-11
2.1777866e-09
1.1018942e-08
2.2833148e-08
3.1035222e-08
3.4302292e-08
3.4598965e-08
3.388294e-08
3.3281473e-08
3.3281372e-08
3.3882711e-08
3.4598637e-08
3.4302024e-08
3.1035077e-08
2.2833104e-08
1.1018973e-08
2.1777978e-09
4.5411022e-11
1.2834259e-16
1.128556e-17
9.886224e-12
6.5096495e-10
3.8105907e-09
8.4890775e-09
1.1968785e-08
1.3474575e-08
1.371704e-08
1.3492649e-08
1.3277387e-08
1.3277344e-08
1.349255e-08
1.3716897e-08
1.3474459e-08
1.1968723e-08
8.4890584e-09
3.8106028e-09
6.50969e-10
9.8863202e-12
1.1283712e-17
2.8225237e-18
2.0844311e-12
1.8853333e-10
1.2776664e-09
3.0612114e-09
4.4778934e-09
5.1358741e-09
5.2776302e-09
5.2150477e-09
5.1416882e-09
5.1416706e-09
5.2150061e-09
5.2775703e-09
5.135825e-09
4.4778672e-09
3.0612032e-09
1.2776707e-09
1.8853468e-10
2.0844542e-12
2.7941201e-18
2.3772863e-18
4.2612998e-13
5.2968509e-11
4.1577424e-10
1.0716332e-09
1.6265526e-09
1.9007952e-09
1.971915e-09
1.9576466e-09
1.9339303e-09
1.9339233e-09
1.9576297e-09
1.9718906e-09
1.9007751e-09
1.6265418e-09
1.0716296e-09
4.1577565e-10
5.2968936e-11
4.2613459e-13
2.3644716e-18
7.4393465e-19
8.4656427e-14
1.4451922e-11
1.314401e-10
3.6448791e-10
5.740721e-10
6.8358345e-10
7.1598586e-10
7.1418143e-10
7.0695784e-10
7.0695513e-10
7.1417475e-10
7.1597624e-10
6.8357543e-10
5.7406777e-10
3.6448642e-10
1.3144052e-10
1.4452046e-11
8.4656889e-14
7.4065028e-19
1.5829133e-19
1.6358741e-14
3.83353e-12
4.0403405e-11
1.2054531e-10
1.9701098e-10
2.3905083e-10
2.5280358e-10
2.5337732e-10
2.5133059e-10
2.5132956e-10
2.5337476e-10
2.5279991e-10
2.3904773e-10
1.9700927e-10
1.205447e-10
4.0403518e-11
3.8335622e-12
1.6358653e-14
1.5776801e-19
2.7024545e-20
3.0759884e-15
9.8959012e-13
1.2086644e-11
3.8794911e-11
6.5788238e-11
8.1344645e-11
8.6858777e-11
8.7477241e-11
8.6951273e-11
8.6950893e-11
8.7476288e-11
8.6857417e-11
8.1343477e-11
6.5787586e-11
3.8794672e-11
1.2086667e-11
9.8959771e-13
3.0759313e-15
2.6936581e-20
3.8171799e-21
5.6295094e-16
2.4882176e-13
3.5215734e-12
1.2158237e-11
2.1391116e-11
2.6952117e-11
2.9058634e-11
2.940801e-11
2.9292586e-11
2.9292451e-11
2.9407665e-11
2.9058144e-11
2.695169e-11
2.1390874e-11
1.2158146e-11
3.5215758e-12
2.488234e-13
5.629317e-16
3.8075391e-21
3.9798335e-22
1.0026097e-16
6.0992619e-14
1.0000848e-12
3.7130552e-12
6.7768265e-12
8.7006906e-12
9.4718488e-12
9.6325944e-12
9.6150697e-12
9.6150228e-12
9.6324729e-12
9.471677e-12
8.7005388e-12
6.7767381e-12
3.7130212e-12
1.0000839e-12
6.0992917e-14
1.0025589e-16
3.9777353e-22
2.9410651e-23
1.738449e-17
1.4587771e-14
2.7702178e-13
1.1056914e-12
2.0931074e-12
2.738226e-12
3.0098577e-12
3.0759462e-12
3.0768698e-12
3.0768539e-12
3.0759046e-12
3.0097992e-12
2.7381734e-12
2.093076e-12
1.1056792e-12
2.7702097e-13
1.4587809e-14
1.7383335e-17
2.932258e-23
2.040871e-24
2.9432687e-18
3.4073368e-15
7.4896409e-14
3.2124678e-13
6.3063528e-13
8.4058678e-13
9.3292819e-13
9.5809545e-13
9.6042347e-13
9.6041823e-13
9.5808156e-13
9.3290872e-13
8.4056899e-13
6.306244e-13
3.2124258e-13
7.4896037e-14
3.4073413e-15
2.9430282e-18
2.0303478e-24
)
;

boundaryField
{
    Wall
    {
        type            zeroGradient;
    }
    frontAndBack
    {
        type            empty;
    }
    atmosphere
    {
        type            zeroGradient;
    }
}


// ************************************************************************* //
