/*--------------------------------*- C++ -*----------------------------------*\
| =========                 |                                                 |
| \\      /  F ield         | OpenFOAM: The Open Source CFD Toolbox           |
|  \\    /   O peration     | Version:  3.0.1                                 |
|   \\  /    A nd           | Web:      www.OpenFOAM.org                      |
|    \\/     M anipulation  |                                                 |
\*---------------------------------------------------------------------------*/
FoamFile
{
    version     2.0;
    format      ascii;
    class       volScalarField;
    location    "23";
    object      wCO2_g;
}
// * * * * * * * * * * * * * * * * * * * * * * * * * * * * * * * * * * * * * //

dimensions      [0 0 0 0 0 0 0];

internalField   nonuniform List<scalar> 
800
(
0.011171248
0.011171773
0.01117186
0.011171888
0.011171907
0.011171922
0.011171933
0.011171941
0.011171946
0.011171948
0.011171948
0.011171946
0.011171941
0.011171933
0.011171922
0.011171907
0.011171889
0.01117186
0.011171773
0.011171248
0.011185507
0.011192483
0.011193445
0.011193482
0.011193395
0.011193352
0.01119335
0.011193368
0.011193386
0.011193398
0.011193398
0.011193386
0.011193368
0.01119335
0.011193352
0.011193395
0.011193482
0.011193445
0.011192483
0.011185507
0.011199043
0.011207837
0.011211588
0.01121178
0.011211712
0.011211695
0.011211738
0.011211802
0.011211857
0.011211887
0.011211887
0.011211857
0.011211802
0.011211738
0.011211695
0.011211711
0.01121178
0.011211588
0.011207837
0.011199042
0.011210257
0.011221056
0.011227286
0.011227556
0.011227474
0.011227473
0.011227555
0.011227666
0.011227757
0.011227808
0.011227808
0.011227757
0.011227666
0.011227555
0.011227473
0.011227474
0.011227556
0.011227286
0.011221056
0.011210256
0.011190233
0.011204935
0.011213032
0.011215698
0.011215508
0.011215458
0.011215544
0.011215684
0.011215802
0.011215869
0.011215869
0.011215801
0.011215684
0.011215544
0.011215458
0.011215508
0.011215698
0.011213032
0.011204935
0.011190233
0.011087543
0.011114327
0.011123836
0.011129479
0.011129041
0.011128854
0.011128897
0.011129038
0.011129171
0.011129251
0.011129251
0.011129171
0.011129038
0.011128896
0.011128854
0.01112904
0.011129479
0.011123836
0.011114327
0.011087543
0.01083679
0.010889892
0.010899238
0.010906887
0.010906078
0.010905689
0.01090566
0.010905794
0.010905941
0.010906035
0.010906035
0.010905941
0.010905793
0.01090566
0.010905689
0.010906077
0.010906887
0.010899237
0.010889891
0.01083679
0.010363739
0.010453943
0.010468958
0.010477391
0.010476132
0.010475565
0.010475507
0.010475677
0.010475874
0.010475997
0.010475997
0.010475873
0.010475677
0.010475506
0.010475564
0.010476131
0.010477391
0.010468958
0.010453943
0.010363738
0.009574443
0.0097197386
0.0097421774
0.0097510208
0.0097591761
0.0097584986
0.0097586019
0.0097589532
0.0097592905
0.0097594877
0.0097594876
0.0097592901
0.0097589526
0.0097586011
0.0097584977
0.0097591751
0.0097510198
0.0097421764
0.0097197374
0.0095744411
0.008364475
0.008591111
0.0086232967
0.0086335151
0.0086477074
0.0086599846
0.0086607115
0.0086615349
0.0086621761
0.0086625212
0.008662521
0.0086621755
0.008661534
0.0086607104
0.0086599834
0.008647706
0.0086335136
0.0086232951
0.0085911092
0.0083644724
0.0067538968
0.0070199796
0.0070770419
0.0070907387
0.0071147784
0.0071294355
0.0071314327
0.0071330675
0.0071341826
0.0071347473
0.0071347471
0.0071341819
0.0071330664
0.0071314313
0.0071294339
0.0071147767
0.0070907368
0.0070770399
0.0070199774
0.0067538938
0.0050586229
0.0053129273
0.0053804855
0.0053982473
0.0054200828
0.0054315057
0.0054347809
0.0054371052
0.0054385614
0.0054392705
0.0054392703
0.0054385608
0.0054371041
0.0054347795
0.0054315041
0.005420081
0.0053982453
0.0053804834
0.005312925
0.00505862
0.0034035412
0.0036480607
0.0037159755
0.0037482651
0.0037680502
0.0037758806
0.0037792809
0.003781539
0.003782881
0.0037835138
0.0037835136
0.0037828804
0.0037815381
0.0037792797
0.0037758792
0.0037680487
0.0037482634
0.0037159738
0.0036480589
0.0034035391
0.0020782754
0.0022640039
0.002335591
0.0023652726
0.0023802325
0.0023851303
0.0023874315
0.0023888068
0.0023895641
0.0023898915
0.0023898914
0.0023895637
0.0023888061
0.0023874307
0.0023851294
0.0023802314
0.0023652714
0.0023355898
0.0022640028
0.0020782742
0.0011331843
0.0013125951
0.0013961186
0.0014275631
0.0014384074
0.0014400988
0.0014398515
0.0014393757
0.0014389829
0.001438735
0.0014387349
0.0014389827
0.0014393752
0.0014398509
0.0014400982
0.0014384067
0.0014275624
0.0013961178
0.0013125944
0.0011331838
0.00049452024
0.00070876158
0.00080378555
0.0008391087
0.0008475181
0.00084556798
0.00084169489
0.00083845748
0.000836319
0.00083521156
0.00083521146
0.00083631878
0.00083845713
0.00084169447
0.00084556752
0.00084751761
0.00083910815
0.00080378498
0.0007087611
0.0004945202
0.00015758684
0.00035168283
0.00044663122
0.00048481034
0.00049369412
0.00049045925
0.00048441699
0.00047915102
0.00047558699
0.00047375707
0.00047375698
0.00047558679
0.00047915073
0.00048441666
0.0004904589
0.00049369375
0.00048480996
0.00044663085
0.00035168255
0.00015758687
3.6734392e-05
0.00015930417
0.0002369902
0.0002727438
0.000282763
0.00028070217
0.00027501944
0.00026961008
0.00026578502
0.00026379103
0.00026379095
0.00026578484
0.00026960983
0.00027501918
0.0002807019
0.00028276275
0.00027274356
0.00023698998
0.00015930402
3.6734407e-05
6.6002399e-06
6.5708514e-05
0.00011930617
0.00014813432
0.00015794246
0.0001575781
0.00015352656
0.00014922061
0.00014602779
0.00014433017
0.0001443301
0.00014602765
0.00014922042
0.00015352637
0.00015757792
0.0001579423
0.00014813418
0.00011930605
6.5708454e-05
6.6002427e-06
9.7796332e-07
2.4698508e-05
5.6803702e-05
7.7259482e-05
8.5497347e-05
8.6256333e-05
8.388696e-05
8.099108e-05
7.8733861e-05
7.7508872e-05
7.7508826e-05
7.8733754e-05
8.0990933e-05
8.388682e-05
8.625621e-05
8.5497246e-05
7.7259407e-05
5.6803651e-05
2.4698488e-05
9.7796362e-07
1.267942e-07
8.5158283e-06
2.5562235e-05
3.8589205e-05
4.467554e-05
4.5836521e-05
4.4678418e-05
4.2961362e-05
4.1547901e-05
4.0764524e-05
4.0764491e-05
4.1547827e-05
4.2961259e-05
4.4678324e-05
4.5836443e-05
4.4675481e-05
3.8589169e-05
2.5562214e-05
8.5158229e-06
1.267942e-07
1.5005426e-08
2.7210637e-06
1.0888156e-05
1.8444361e-05
2.2488476e-05
2.3578659e-05
2.3121961e-05
2.2204257e-05
2.1399939e-05
2.0944115e-05
2.0944094e-05
2.1399891e-05
2.2204189e-05
2.3121901e-05
2.3578612e-05
2.2488444e-05
1.8444346e-05
1.0888149e-05
2.7210627e-06
1.5005418e-08
1.6651595e-09
8.1430231e-07
4.4020735e-06
8.440552e-06
1.0897033e-05
1.1722423e-05
1.16022e-05
1.1155284e-05
1.073287e-05
1.0487537e-05
1.0487523e-05
1.0732841e-05
1.1155242e-05
1.1602163e-05
1.1722396e-05
1.0897017e-05
8.4405471e-06
4.4020717e-06
8.1430232e-07
1.6651577e-09
1.7610261e-10
2.3027831e-07
1.6949878e-06
3.7028314e-06
5.0835619e-06
5.6285866e-06
5.6373087e-06
5.4384354e-06
5.2316896e-06
5.1082267e-06
5.1082189e-06
5.2316726e-06
5.4384111e-06
5.6372879e-06
5.6285721e-06
5.0835546e-06
3.7028305e-06
1.6949878e-06
2.3027845e-07
1.761024e-10
1.7918978e-11
6.1963188e-08
6.2364321e-07
1.5597331e-06
2.2846156e-06
2.6098906e-06
2.6504848e-06
2.5700487e-06
2.4751656e-06
2.4166419e-06
2.4166375e-06
2.4751561e-06
2.5700353e-06
2.6504735e-06
2.6098832e-06
2.2846124e-06
1.5597334e-06
6.2364359e-07
6.1963278e-08
1.791897e-11
1.7639424e-12
1.5945315e-08
2.1993001e-07
6.3191839e-07
9.9000508e-07
1.1690069e-06
1.205631e-06
1.1765921e-06
1.1356118e-06
1.1093465e-06
1.1093443e-06
1.1356068e-06
1.1765851e-06
1.2056251e-06
1.1690033e-06
9.9000372e-07
6.3191888e-07
2.1993031e-07
1.5945356e-08
1.7639447e-12
1.6851212e-13
3.938742e-09
7.4533558e-08
2.4665558e-07
4.14088e-07
5.0608661e-07
5.3064335e-07
5.2172877e-07
5.0504536e-07
4.938441e-07
4.9384298e-07
5.0504286e-07
5.2172524e-07
5.3064044e-07
5.0608492e-07
4.1408745e-07
2.4665593e-07
7.4533727e-08
3.9387578e-09
1.6851281e-13
1.5649435e-14
9.3646667e-10
2.4328116e-08
9.2901195e-08
1.6735955e-07
2.1191122e-07
2.2607883e-07
2.2410354e-07
2.1770477e-07
2.1315423e-07
2.131537e-07
2.1770357e-07
2.2410184e-07
2.2607745e-07
2.1191045e-07
1.6735933e-07
9.2901385e-08
2.4328197e-08
9.3647183e-10
1.5649556e-14
1.4141015e-15
2.1475375e-10
7.6627258e-09
3.3812844e-08
6.5430719e-08
8.5891671e-08
9.3288467e-08
9.3279855e-08
9.0975111e-08
8.9211444e-08
8.9211198e-08
9.0974559e-08
9.3279074e-08
9.328783e-08
8.589133e-08
6.5430628e-08
3.3812934e-08
7.6627598e-09
2.1475529e-10
1.4141184e-15
1.2438633e-16
4.7580018e-11
2.3329035e-09
1.1908374e-08
2.4771107e-08
3.3727345e-08
3.7307508e-08
3.7642901e-08
3.6869072e-08
3.6216612e-08
3.6216504e-08
3.6868827e-08
3.7642553e-08
3.7307225e-08
3.3727196e-08
2.4771068e-08
1.1908411e-08
2.3329165e-09
4.7580435e-11
1.2438836e-16
1.0772243e-17
1.0198903e-11
6.8752768e-10
4.0632229e-09
9.090429e-09
1.284163e-08
1.4470473e-08
1.4736789e-08
1.449829e-08
1.4268027e-08
1.4267982e-08
1.4498184e-08
1.4736639e-08
1.447035e-08
1.2841566e-08
9.0904115e-09
4.0632372e-09
6.8753224e-10
1.0199008e-11
1.077008e-17
2.945731e-18
2.117735e-12
1.9640314e-10
1.3447356e-09
3.2368541e-09
4.7450056e-09
5.4477876e-09
5.600737e-09
5.5355047e-09
5.4581369e-09
5.4581184e-09
5.5354609e-09
5.6006742e-09
5.4477362e-09
4.7449786e-09
3.2368463e-09
1.3447405e-09
1.9640463e-10
2.1177595e-12
2.9136665e-18
2.3945488e-18
4.2651296e-13
5.4452312e-11
4.3213663e-10
1.119354e-09
1.7029299e-09
1.9922606e-09
2.0678712e-09
2.0534235e-09
2.0287738e-09
2.0287665e-09
2.0534058e-09
2.0678458e-09
1.9922396e-09
1.7029187e-09
1.1193505e-09
4.3213819e-10
5.4452766e-11
4.265177e-13
2.380746e-18
7.256474e-19
8.3513622e-14
1.4669337e-11
1.3497897e-10
3.7627401e-10
5.9409346e-10
7.0826462e-10
7.4226014e-10
7.4060497e-10
7.3321323e-10
7.3321043e-10
7.4059804e-10
7.422502e-10
7.082563e-10
5.9408896e-10
3.7627252e-10
1.3497943e-10
1.4669466e-11
8.351405e-14
7.2220473e-19
1.5038663e-19
1.5914502e-14
3.8446677e-12
4.1019401e-11
1.2305553e-10
2.0162857e-10
2.4496002e-10
2.5921405e-10
2.5988941e-10
2.5783183e-10
2.5783077e-10
2.5988677e-10
2.5921028e-10
2.4495681e-10
2.016268e-10
1.2305491e-10
4.1019515e-11
3.8447e-12
1.5914396e-14
1.4983328e-19
2.5113522e-20
2.9529354e-15
9.8134165e-13
1.2139351e-11
3.9183689e-11
6.6621536e-11
8.2482146e-11
8.8132746e-11
8.8794341e-11
8.8277436e-11
8.8277048e-11
8.8793364e-11
8.8131356e-11
8.2480945e-11
6.6620859e-11
3.9183442e-11
1.2139371e-11
9.8134896e-13
2.9528745e-15
2.5025251e-20
3.4724625e-21
5.3372905e-16
2.4419133e-13
3.5015054e-12
1.2157626e-11
2.1446254e-11
2.7057627e-11
2.9193504e-11
2.9557399e-11
2.9448054e-11
2.9447916e-11
2.9557047e-11
2.9193005e-11
2.705719e-11
2.1446002e-11
1.215753e-11
3.5015063e-12
2.4419282e-13
5.3370928e-16
3.4629751e-21
3.5110072e-22
9.3970263e-17
5.9293943e-14
9.851787e-13
3.6782363e-12
6.7306236e-12
8.6530178e-12
9.4272126e-12
9.5919266e-12
9.5769979e-12
9.5769505e-12
9.5918035e-12
9.4270387e-12
8.6528628e-12
6.7305318e-12
3.6782009e-12
9.8517715e-13
5.9294188e-14
9.3965091e-17
3.5073844e-22
2.4636483e-23
1.6127068e-17
1.4062602e-14
2.7058386e-13
1.0858396e-12
2.0606271e-12
2.699349e-12
2.9695392e-12
3.0364166e-12
3.0382473e-12
3.0382313e-12
3.0363746e-12
2.9694802e-12
2.6992954e-12
2.0605945e-12
1.0858269e-12
2.7058283e-13
1.4062624e-14
1.6125888e-17
2.4533023e-23
1.6322198e-24
2.7067379e-18
3.2607764e-15
7.2597384e-14
3.1296378e-13
6.1579723e-13
8.2188372e-13
9.1294672e-13
9.3814786e-13
9.4074986e-13
9.407446e-13
9.3813392e-13
9.1292718e-13
8.2186568e-13
6.1578594e-13
3.1295941e-13
7.2596938e-14
3.2607764e-15
2.7064947e-18
1.6217104e-24
)
;

boundaryField
{
    Wall
    {
        type            zeroGradient;
    }
    frontAndBack
    {
        type            empty;
    }
    atmosphere
    {
        type            zeroGradient;
    }
}


// ************************************************************************* //
