/*--------------------------------*- C++ -*----------------------------------*\
| =========                 |                                                 |
| \\      /  F ield         | OpenFOAM: The Open Source CFD Toolbox           |
|  \\    /   O peration     | Version:  3.0.1                                 |
|   \\  /    A nd           | Web:      www.OpenFOAM.org                      |
|    \\/     M anipulation  |                                                 |
\*---------------------------------------------------------------------------*/
FoamFile
{
    version     2.0;
    format      ascii;
    class       volScalarField;
    location    "23";
    object      wCO2_l;
}
// * * * * * * * * * * * * * * * * * * * * * * * * * * * * * * * * * * * * * //

dimensions      [0 0 0 0 0 0 0];

internalField   nonuniform List<scalar> 
800
(
0.0033066709
0.0033067417
0.0033067532
0.0033067552
0.003306756
0.0033067566
0.0033067572
0.0033067576
0.0033067579
0.0033067581
0.0033067581
0.0033067579
0.0033067576
0.0033067572
0.0033067566
0.003306756
0.0033067552
0.0033067533
0.0033067417
0.0033066709
0.0032546814
0.0032557579
0.0032562812
0.0032563507
0.003256302
0.003256235
0.0032561822
0.0032561479
0.0032561285
0.0032561197
0.0032561198
0.0032561285
0.0032561479
0.0032561822
0.003256235
0.003256302
0.0032563507
0.0032562812
0.0032557578
0.0032546813
0.003404737
0.0034024879
0.0034010147
0.0034010553
0.0034010317
0.0034009734
0.0034009155
0.0034008702
0.0034008406
0.0034008259
0.003400826
0.0034008407
0.0034008702
0.0034009156
0.0034009735
0.0034010317
0.0034010553
0.0034010147
0.003402488
0.0034047371
0.0037726164
0.0037614496
0.0037577123
0.0037577889
0.0037578137
0.0037577904
0.0037577375
0.0037576796
0.003757636
0.0037576121
0.0037576121
0.0037576361
0.0037576798
0.0037577378
0.0037577906
0.003757814
0.0037577892
0.0037577126
0.0037614499
0.0037726169
0.0043951864
0.0043667862
0.0043612602
0.004358912
0.0043590157
0.0043590295
0.0043589668
0.004358873
0.0043587974
0.0043587537
0.0043587538
0.0043587976
0.0043588734
0.0043589673
0.00435903
0.0043590162
0.0043589127
0.0043612609
0.004366787
0.0043951874
0.005312029
0.0052546082
0.0052483945
0.0052430979
0.0052433742
0.0052434145
0.0052433108
0.0052431439
0.0052430073
0.0052429267
0.0052429268
0.0052430077
0.0052431445
0.0052433116
0.0052434154
0.0052433752
0.005243099
0.0052483957
0.0052546094
0.0053120307
0.0065506625
0.006453679
0.0064440413
0.0064371002
0.0064377202
0.006437799
0.0064376239
0.0064373424
0.0064371135
0.0064369778
0.006436978
0.006437114
0.0064373431
0.006437625
0.0064378003
0.0064377217
0.0064371019
0.006444043
0.0064536809
0.0065506648
0.008108671
0.0079760612
0.0079506589
0.0079440879
0.0079453769
0.0079455592
0.0079453129
0.0079448965
0.0079445614
0.0079443624
0.0079443626
0.007944562
0.0079448975
0.0079453142
0.0079455608
0.0079453788
0.00794409
0.0079506612
0.0079760638
0.0081086741
0.0099425023
0.0097834585
0.0097408074
0.0097365612
0.0097295078
0.009729883
0.0097296569
0.0097291798
0.0097287889
0.0097285531
0.0097285533
0.0097287895
0.0097291808
0.0097296583
0.0097298848
0.00972951
0.0097365637
0.0097408102
0.0097834616
0.0099425056
0.011923689
0.011754622
0.011705719
0.011705818
0.011694719
0.011684087
0.011684168
0.011683903
0.011683652
0.011683482
0.011683483
0.011683652
0.011683904
0.011684169
0.011684088
0.011694721
0.011705821
0.011705721
0.011754625
0.011923692
0.01361256
0.013529087
0.013494631
0.013501817
0.013484965
0.013474747
0.013475953
0.013476566
0.01347689
0.01347701
0.01347701
0.01347689
0.013476566
0.013475954
0.013474747
0.013484966
0.013501819
0.013494633
0.013529088
0.013612561
0.013972429
0.014117757
0.014200452
0.014221611
0.014198148
0.014196725
0.014200741
0.014203345
0.014204911
0.014205639
0.014205639
0.01420491
0.014203345
0.01420074
0.014196724
0.014198147
0.01422161
0.014200451
0.014117756
0.013972427
0.01151318
0.012241185
0.01242358
0.012526505
0.012575098
0.012583342
0.012590057
0.012594375
0.012596918
0.012598099
0.012598099
0.012596917
0.012594374
0.012590055
0.01258334
0.012575095
0.012526502
0.012423577
0.012241182
0.011513176
0.0074916367
0.008187865
0.0084487122
0.0085749607
0.0086309405
0.0086407107
0.008644571
0.0086463717
0.0086471934
0.0086474558
0.0086474554
0.0086471925
0.0086463702
0.0086445691
0.0086407085
0.0086309381
0.008574958
0.0084487094
0.0081878625
0.0074916345
0.0043867237
0.0051042611
0.0054529042
0.0055961474
0.0056483787
0.0056527504
0.0056482441
0.0056434025
0.0056399521
0.0056380458
0.0056380453
0.0056399513
0.0056434011
0.0056482424
0.0056527485
0.0056483766
0.0055961451
0.0054529018
0.0051042591
0.0043867229
0.0020850431
0.0029694648
0.003388338
0.0035587173
0.0036090219
0.0036043479
0.0035871396
0.0035716904
0.0035612698
0.0035558677
0.0035558672
0.003561269
0.003571689
0.0035871381
0.0036043462
0.0036090201
0.0035587154
0.003388336
0.0029694632
0.0020850432
0.0007406941
0.0015949283
0.0020317553
0.0022217493
0.002277109
0.0022694026
0.0022438091
0.0022197434
0.002203042
0.0021943875
0.002194387
0.0022030411
0.002219742
0.0022438077
0.0022694011
0.0022771075
0.0022217478
0.0020317538
0.0015949272
0.00074069434
0.00019660471
0.00078818141
0.0011673359
0.001352217
0.0014128764
0.0014098783
0.0013849584
0.0013592499
0.0013405906
0.0013307565
0.0013307561
0.0013405897
0.0013592486
0.0013849571
0.001409877
0.0014128753
0.0013522159
0.0011673349
0.00078818077
0.00019660481
4.083916e-05
0.00035805524
0.000639877
0.00079730735
0.00085677847
0.00086034456
0.00084156535
0.00081973048
0.00080309373
0.00079414274
0.00079414234
0.00080309289
0.00081972933
0.00084156428
0.00086034358
0.00085677762
0.00079730664
0.00063987641
0.00035805494
4.0839182e-05
7.0568732e-06
0.00014962739
0.00033390944
0.00045362484
0.00050531307
0.00051329473
0.00050162224
0.0004857619
0.00047304383
0.00046605558
0.00046605527
0.00047304314
0.00048576096
0.00050162137
0.00051329399
0.00050531248
0.0004536244
0.00033390913
0.00014962726
7.056876e-06
1.0709057e-06
5.7814048e-05
0.00016579508
0.00024849966
0.0002889326
0.00029832997
0.00029229676
0.0002820609
0.00027338318
0.00026851228
0.00026851203
0.00027338267
0.00028206017
0.00029229612
0.00029832943
0.0002889322
0.00024849941
0.00016579493
5.7814007e-05
1.0709058e-06
1.4843039e-07
2.0830408e-05
7.8410457e-05
0.00013097808
0.00015988601
0.00016850393
0.00016606067
0.00016007136
0.00015465983
0.00015155381
0.00015155363
0.00015465945
0.00016007083
0.00016606021
0.00016850356
0.00015988576
0.00013097795
7.8410389e-05
2.0830396e-05
1.4843034e-07
1.9274696e-08
7.0624159e-06
3.5397566e-05
6.6441594e-05
8.5563484e-05
9.2360109e-05
9.1809556e-05
8.8601182e-05
8.5471576e-05
8.3631231e-05
8.3631112e-05
8.5471324e-05
8.8600821e-05
9.1809242e-05
9.2359871e-05
8.556333e-05
6.6441534e-05
3.5397539e-05
7.0624138e-06
1.9274682e-08
2.3824049e-09
2.2712411e-06
1.5294935e-05
3.2467324e-05
4.4281361e-05
4.9092895e-05
4.9336564e-05
4.7760135e-05
4.6066234e-05
4.5042579e-05
4.5042504e-05
4.6066072e-05
4.7759903e-05
4.9336363e-05
4.9092747e-05
4.4281273e-05
3.2467299e-05
1.5294928e-05
2.2712414e-06
2.3824029e-09
2.8302371e-10
6.9723814e-07
6.3433108e-06
1.5302371e-05
2.2171267e-05
2.5300924e-05
2.5752989e-05
2.5047081e-05
2.4184134e-05
2.3645864e-05
2.3645818e-05
2.4184033e-05
2.5046938e-05
2.5752866e-05
2.5300837e-05
2.2171218e-05
1.5302363e-05
6.34331e-06
6.9723863e-07
2.8302363e-10
3.2508903e-11
2.0530745e-07
2.531762e-06
6.9658707e-06
1.0747131e-05
1.2644857e-05
1.3054498e-05
1.2772187e-05
1.2357072e-05
1.2088206e-05
1.208818e-05
1.2357013e-05
1.2772104e-05
1.3054426e-05
1.2644808e-05
1.0747105e-05
6.9658684e-06
2.5317629e-06
2.0530776e-07
3.250894e-11
3.6237763e-12
5.8199329e-08
9.7474131e-07
3.0668999e-06
5.047568e-06
6.1309416e-06
6.4267717e-06
6.3312536e-06
6.1424906e-06
6.014495e-06
6.0144803e-06
6.1424574e-06
6.3312066e-06
6.4267313e-06
6.1309149e-06
5.0475545e-06
3.0668997e-06
9.7474219e-07
5.8199475e-08
3.6237888e-12
3.9292128e-13
1.5926975e-08
3.6274908e-07
1.3077057e-06
2.2990051e-06
2.8854521e-06
3.0735768e-06
3.0510138e-06
2.9699676e-06
2.9117705e-06
2.9117627e-06
2.9699497e-06
3.0509885e-06
3.073555e-06
2.8854381e-06
2.2989982e-06
1.3077059e-06
3.6274964e-07
1.5927033e-08
3.9292391e-13
4.1502214e-14
4.2170188e-09
1.3072167e-07
5.4068953e-07
1.016367e-06
1.3190075e-06
1.4285466e-06
1.4296394e-06
1.3969174e-06
1.3716171e-06
1.3716131e-06
1.3969081e-06
1.4296263e-06
1.4285353e-06
1.3190003e-06
1.0163636e-06
5.406897e-07
1.3072197e-07
4.2170388e-09
4.1502653e-14
4.2743545e-15
1.0822195e-09
4.5686659e-08
2.1702691e-07
4.3650656e-07
5.8602754e-07
6.4560118e-07
6.5161852e-07
6.3930527e-07
6.2878836e-07
6.2878636e-07
6.3930061e-07
6.5161192e-07
6.4559545e-07
5.8602393e-07
4.3650489e-07
2.1702698e-07
4.5686794e-08
1.0822259e-09
4.2744176e-15
4.3401176e-16
2.6960447e-10
1.5507038e-08
8.4657721e-08
1.8227308e-07
2.5323398e-07
2.8385528e-07
2.8902829e-07
2.8478822e-07
2.8061298e-07
2.8061204e-07
2.8478595e-07
2.8902509e-07
2.8385248e-07
2.5323221e-07
1.8227227e-07
8.4657744e-08
1.5507093e-08
2.6960634e-10
4.3393049e-16
1.204318e-16
6.5287055e-11
5.1179875e-09
3.2123944e-08
7.4060982e-08
1.0650061e-07
1.214916e-07
1.248205e-07
1.2353856e-07
1.219599e-07
1.2195947e-07
1.2353749e-07
1.2481899e-07
1.2149027e-07
1.0649977e-07
7.40606e-08
3.2123944e-08
5.1180082e-09
6.5287564e-11
1.1917418e-16
1.0425627e-16
1.5388372e-11
1.6443004e-09
1.186828e-08
2.9303234e-08
4.3620772e-08
5.0648665e-08
5.2512184e-08
5.2210681e-08
5.1645209e-08
5.1645014e-08
5.221019e-08
5.2511492e-08
5.0648049e-08
4.362038e-08
2.9303057e-08
1.1868274e-08
1.6443076e-09
1.5388476e-11
1.0366023e-16
3.7122055e-17
3.5385284e-12
5.1476811e-10
4.2726624e-09
1.1298082e-08
1.7410831e-08
2.057852e-08
2.1532572e-08
2.1508528e-08
2.1318474e-08
2.1318389e-08
2.150831e-08
2.1532265e-08
2.0578243e-08
1.7410654e-08
1.1298002e-08
4.272658e-09
5.1477036e-10
3.5385305e-12
3.6945706e-17
9.1553819e-18
7.9455984e-13
1.5718925e-10
1.4999814e-09
4.2475734e-09
6.7762821e-09
8.1532148e-09
8.6104083e-09
8.6412382e-09
8.5823915e-09
8.5823549e-09
8.6411437e-09
8.6102757e-09
8.1530938e-09
6.7762037e-09
4.2475385e-09
1.4999785e-09
1.5718982e-10
7.9455117e-13
9.1218433e-18
1.8265529e-18
1.7429234e-13
4.6855606e-11
5.1387602e-10
1.5580731e-09
2.5730973e-09
3.1517117e-09
3.3594443e-09
3.3874352e-09
3.3713016e-09
3.3712863e-09
3.3873952e-09
3.3593886e-09
3.1516602e-09
2.5730636e-09
1.5580583e-09
5.1387434e-10
4.6855714e-11
1.7428805e-13
1.820245e-18
3.0302894e-19
3.7357031e-14
1.3643877e-11
1.7190477e-10
5.579511e-10
9.5377616e-10
1.1892959e-09
1.2795057e-09
1.2962976e-09
1.2927939e-09
1.2927877e-09
1.2962813e-09
1.2794829e-09
1.1892746e-09
9.5376207e-10
5.579449e-10
1.7190394e-10
1.3643885e-11
3.7355511e-14
3.021838e-19
3.7176474e-20
7.8218287e-15
3.883614e-12
5.6185491e-11
1.9516229e-10
3.4528935e-10
4.3829919e-10
4.7594133e-10
4.8448213e-10
4.841735e-10
4.8417106e-10
4.8447556e-10
4.7593224e-10
4.3829059e-10
3.4528359e-10
1.9515978e-10
5.6185109e-11
3.8836077e-12
7.8213728e-15
3.7133822e-20
3.2716439e-21
1.6004899e-15
1.0812317e-12
1.7951368e-11
6.6711675e-11
1.2214438e-10
1.5782988e-10
1.7298018e-10
1.7692181e-10
1.7717472e-10
1.7717378e-10
1.7691925e-10
1.7297665e-10
1.5782649e-10
1.2214209e-10
6.6710685e-11
1.7951206e-11
1.0812271e-12
1.600371e-15
3.2596218e-21
2.7471323e-22
3.2087164e-16
2.9462187e-13
5.6094984e-12
2.2295372e-11
4.2238863e-11
5.5556505e-11
6.1454866e-11
6.3153512e-11
6.3374055e-11
6.3373698e-11
6.3152539e-11
6.1453523e-11
5.5555204e-11
4.2237968e-11
2.2294993e-11
5.6094353e-12
2.946201e-13
3.2084312e-16
2.7314102e-22
)
;

boundaryField
{
    Wall
    {
        type            zeroGradient;
    }
    frontAndBack
    {
        type            empty;
    }
    atmosphere
    {
        type            zeroGradient;
    }
}


// ************************************************************************* //
