/*--------------------------------*- C++ -*----------------------------------*\
| =========                 |                                                 |
| \\      /  F ield         | OpenFOAM: The Open Source CFD Toolbox           |
|  \\    /   O peration     | Version:  3.0.1                                 |
|   \\  /    A nd           | Web:      www.OpenFOAM.org                      |
|    \\/     M anipulation  |                                                 |
\*---------------------------------------------------------------------------*/
FoamFile
{
    version     2.0;
    format      ascii;
    class       volScalarField;
    location    "23";
    object      weight0;
}
// * * * * * * * * * * * * * * * * * * * * * * * * * * * * * * * * * * * * * //

dimensions      [0 0 0 0 0 0 0];

internalField   nonuniform List<scalar> 
800
(
1.1698834e+10
1.169979e+10
1.1699992e+10
1.1700046e+10
1.1700079e+10
1.1700105e+10
1.1700127e+10
1.1700144e+10
1.1700155e+10
1.170016e+10
1.170016e+10
1.1700155e+10
1.1700144e+10
1.1700127e+10
1.1700105e+10
1.1700079e+10
1.1700046e+10
1.1699992e+10
1.169979e+10
1.1698834e+10
1.3106275e+09
2.1202969e+09
2.2178154e+09
2.2388333e+09
2.2497631e+09
2.2601776e+09
2.2698403e+09
2.277672e+09
2.2830411e+09
2.2857529e+09
2.2857523e+09
2.2830403e+09
2.277671e+09
2.2698391e+09
2.2601769e+09
2.2497635e+09
2.2388353e+09
2.2178184e+09
2.1203005e+09
1.3106238e+09
2356097.4
1360353.8
1079886.8
1044668
1026545.8
1012556
1001070
992281.38
986396.67
983448.73
983449.65
986397.89
992283.11
1001072.3
1012558.4
1026547.4
1044668.6
1079886.5
1360353.6
2356107.6
25945409
19898820
17784584
17509232
17367163
17267960
17190550
17132289
17093246
17073627
17073636
17093264
17132316
17190585
17268007
17367207
17509277
17784625
19898868
25945511
1.7641877e+08
1.4675227e+08
1.3902853e+08
1.3690526e+08
1.36221e+08
1.3577946e+08
1.3545236e+08
1.35212e+08
1.3505172e+08
1.3497123e+08
1.3497128e+08
1.3505185e+08
1.3521222e+08
1.3545265e+08
1.3577978e+08
1.3622136e+08
1.3690565e+08
1.390289e+08
1.4675268e+08
1.7641938e+08
9.7725747e+08
8.4256939e+08
8.2366711e+08
8.1483541e+08
8.1145295e+08
8.0918307e+08
8.075806e+08
8.0643854e+08
8.056947e+08
8.0532379e+08
8.0532409e+08
8.0569547e+08
8.0643981e+08
8.0758228e+08
8.0918496e+08
8.11455e+08
8.1483767e+08
8.2366928e+08
8.4257163e+08
9.7726059e+08
4.6372997e+09
4.1084453e+09
4.0819532e+09
4.0637794e+09
4.047689e+09
4.0351177e+09
4.0262034e+09
4.0198994e+09
4.0158826e+09
4.0138649e+09
4.0138663e+09
4.0158865e+09
4.0199057e+09
4.0262118e+09
4.0351272e+09
4.0476992e+09
4.0637909e+09
4.0819639e+09
4.1084559e+09
4.6373148e+09
1.8479945e+10
1.6971616e+10
1.6941202e+10
1.6972874e+10
1.692067e+10
1.686287e+10
1.6819782e+10
1.6789382e+10
1.6770124e+10
1.6760242e+10
1.6760247e+10
1.6770138e+10
1.6789405e+10
1.6819815e+10
1.6862907e+10
1.692071e+10
1.6972922e+10
1.6941244e+10
1.6971659e+10
1.8480007e+10
5.778842e+10
5.4876727e+10
5.5039199e+10
5.538277e+10
5.5053626e+10
5.486781e+10
5.471258e+10
5.4604045e+10
5.4535282e+10
5.4499416e+10
5.4499429e+10
5.4535318e+10
5.4604103e+10
5.4712668e+10
5.4867912e+10
5.5053741e+10
5.5382912e+10
5.5039323e+10
5.4876858e+10
5.778861e+10
1.4238336e+11
1.3835827e+11
1.3943031e+11
1.4073504e+11
1.402656e+11
1.3927798e+11
1.3884551e+11
1.3854652e+11
1.3835816e+11
1.3825959e+11
1.3825962e+11
1.3835823e+11
1.3854662e+11
1.3884568e+11
1.3927819e+11
1.4026585e+11
1.4073536e+11
1.3943058e+11
1.3835858e+11
1.4238381e+11
2.8461483e+11
2.8723263e+11
2.9062234e+11
2.9437111e+11
2.9403334e+11
2.9274971e+11
2.9174807e+11
2.9106046e+11
2.9063072e+11
2.9040729e+11
2.9040731e+11
2.9063081e+11
2.9106058e+11
2.9174834e+11
2.9275006e+11
2.9403377e+11
2.9437168e+11
2.9062283e+11
2.872332e+11
2.8461564e+11
4.5506178e+11
4.7493059e+11
4.9039895e+11
5.0012398e+11
4.9889152e+11
4.9762911e+11
4.9577378e+11
4.9446792e+11
4.9365272e+11
4.9323154e+11
4.9323153e+11
4.9365279e+11
4.9446799e+11
4.9577407e+11
4.9762955e+11
4.9889209e+11
5.0012475e+11
4.9039962e+11
4.7493141e+11
4.5506291e+11
6.0260132e+11
6.5732025e+11
7.0069804e+11
7.1877725e+11
7.2100639e+11
7.1984131e+11
7.1684779e+11
7.145776e+11
7.1313626e+11
7.1239505e+11
7.1239498e+11
7.1313623e+11
7.145775e+11
7.1684798e+11
7.1984171e+11
7.2100695e+11
7.1877805e+11
7.0069872e+11
6.5732117e+11
6.0260256e+11
0
0
0
0
0
0
0
0
0
0
0
0
0
0
0
0
0
0
0
0
0
0
0
0
0
0
0
0
0
0
0
0
0
0
0
0
0
0
0
0
0
0
0
0
0
0
0
0
0
0
0
0
0
0
0
0
0
0
0
0
0
0
0
0
0
0
0
0
0
0
0
0
0
0
0
0
0
0
0
0
0
0
0
0
0
0
0
0
0
0
0
0
0
0
0
0
0
0
0
0
0
0
0
0
0
0
0
0
0
0
0
0
0
0
0
0
0
0
0
0
0
0
0
0
0
0
0
0
0
0
0
0
0
0
0
0
0
0
0
0
0
0
0
0
0
0
0
0
0
0
0
0
0
0
0
0
0
0
0
0
0
0
0
0
0
0
0
0
0
0
0
0
0
0
0
0
0
0
0
0
0
0
0
0
0
0
0
0
0
0
0
0
0
0
0
0
0
0
0
0
0
0
0
0
0
0
0
0
0
0
0
0
0
0
0
0
0
0
0
0
0
0
0
0
0
0
0
0
0
0
0
0
0
0
0
0
0
0
0
0
0
0
0
0
0
0
0
0
0
0
0
0
0
0
0
0
0
0
0
0
0
0
0
0
0
0
0
0
0
0
0
0
0
0
0
0
0
0
0
0
0
0
0
0
0
0
0
0
0
0
0
0
0
0
0
0
0
0
0
0
0
0
0
0
0
0
0
0
0
0
0
0
0
0
0
0
0
0
0
0
0
0
0
0
0
0
0
0
0
0
0
0
0
0
0
0
0
0
0
0
0
0
0
0
0
0
0
0
0
0
0
0
0
0
0
0
0
0
0
0
0
0
0
0
0
0
0
0
0
0
0
0
0
0
0
0
0
0
0
0
0
0
0
0
0
0
0
0
0
0
0
0
0
0
0
0
0
0
0
0
0
0
0
0
0
0
0
0
0
0
0
0
0
0
0
0
0
0
0
0
0
0
0
0
0
0
0
0
0
0
0
0
0
0
0
0
0
0
0
0
0
0
0
0
0
0
0
0
0
0
0
0
0
0
0
0
0
0
0
0
0
0
0
0
0
0
0
0
0
0
0
0
0
0
0
0
0
0
0
0
0
0
0
0
0
0
0
0
0
0
0
0
0
0
0
0
0
0
0
0
0
0
0
0
0
0
0
0
0
0
0
0
0
0
0
0
0
0
0
0
0
0
0
0
0
0
0
0
0
0
0
0
0
0
0
0
0
0
0
0
)
;

boundaryField
{
    Wall
    {
        type            zeroGradient;
    }
    frontAndBack
    {
        type            empty;
    }
    atmosphere
    {
        type            zeroGradient;
    }
}


// ************************************************************************* //
