/*--------------------------------*- C++ -*----------------------------------*\
| =========                 |                                                 |
| \\      /  F ield         | OpenFOAM: The Open Source CFD Toolbox           |
|  \\    /   O peration     | Version:  3.0.1                                 |
|   \\  /    A nd           | Web:      www.OpenFOAM.org                      |
|    \\/     M anipulation  |                                                 |
\*---------------------------------------------------------------------------*/
FoamFile
{
    version     2.0;
    format      ascii;
    class       volScalarField;
    location    "23";
    object      weight1;
}
// * * * * * * * * * * * * * * * * * * * * * * * * * * * * * * * * * * * * * //

dimensions      [0 0 0 0 0 0 0];

internalField   nonuniform List<scalar> 
800
(
9.9883012e+12
9.9883002e+12
9.9883e+12
9.9883e+12
9.9882999e+12
9.9882999e+12
9.9882999e+12
9.9882999e+12
9.9882998e+12
9.9882998e+12
9.9882998e+12
9.9882998e+12
9.9882999e+12
9.9882999e+12
9.9882999e+12
9.9882999e+12
9.9883e+12
9.9883e+12
9.9883002e+12
9.9883012e+12
9.9986894e+12
9.9978797e+12
9.9977822e+12
9.9977612e+12
9.9977502e+12
9.9977398e+12
9.9977302e+12
9.9977223e+12
9.997717e+12
9.9977142e+12
9.9977142e+12
9.997717e+12
9.9977223e+12
9.9977302e+12
9.9977398e+12
9.9977502e+12
9.9977612e+12
9.9977822e+12
9.9978797e+12
9.9986894e+12
9.8103601e+12
9.8137916e+12
9.8147859e+12
9.8149485e+12
9.8149103e+12
9.8148546e+12
9.8148174e+12
9.8147987e+12
9.814791e+12
9.8147889e+12
9.8147889e+12
9.814791e+12
9.8147986e+12
9.8148173e+12
9.8148545e+12
9.8149102e+12
9.8149484e+12
9.8147858e+12
9.8137915e+12
9.8103599e+12
9.4780894e+12
9.4874704e+12
9.4897039e+12
9.4899405e+12
9.4898196e+12
9.4896705e+12
9.4895748e+12
9.4895259e+12
9.4895052e+12
9.4894987e+12
9.4894986e+12
9.4895051e+12
9.4895258e+12
9.4895746e+12
9.4896703e+12
9.4898194e+12
9.4899402e+12
9.4897036e+12
9.4874702e+12
9.478089e+12
9.0437063e+12
9.0608613e+12
9.0643494e+12
9.0646252e+12
9.0643817e+12
9.0641214e+12
9.0639615e+12
9.0638816e+12
9.0638474e+12
9.0638366e+12
9.0638366e+12
9.0638472e+12
9.0638814e+12
9.0639612e+12
9.0641211e+12
9.0643814e+12
9.0646248e+12
9.0643491e+12
9.060861e+12
9.0437058e+12
8.539312e+12
8.5658949e+12
8.5707123e+12
8.5710462e+12
8.5706676e+12
8.570308e+12
8.5700966e+12
8.5699938e+12
8.569953e+12
8.5699414e+12
8.5699413e+12
8.5699529e+12
8.5699936e+12
8.5700963e+12
8.5703077e+12
8.5706673e+12
8.5710459e+12
8.5707119e+12
8.5658945e+12
8.5393115e+12
7.9863532e+12
8.0244025e+12
8.0308953e+12
8.0314331e+12
8.0309705e+12
8.0305567e+12
8.0303298e+12
8.0302276e+12
8.0301956e+12
8.0301896e+12
8.0301896e+12
8.0301955e+12
8.0302274e+12
8.0303295e+12
8.0305564e+12
8.0309702e+12
8.0314328e+12
8.030895e+12
8.0244022e+12
7.9863526e+12
7.3924071e+12
7.4443477e+12
7.4536064e+12
7.4546616e+12
7.4542265e+12
7.4538607e+12
7.4536886e+12
7.4536363e+12
7.4536414e+12
7.4536527e+12
7.4536527e+12
7.4536413e+12
7.4536361e+12
7.4536883e+12
7.4538604e+12
7.4542262e+12
7.4546613e+12
7.4536061e+12
7.4443474e+12
7.3924066e+12
6.7486743e+12
6.8171969e+12
6.8308792e+12
6.8329545e+12
6.8331333e+12
6.8329723e+12
6.832982e+12
6.8330631e+12
6.8331518e+12
6.8332006e+12
6.8332005e+12
6.8331516e+12
6.8330628e+12
6.8329817e+12
6.832972e+12
6.833133e+12
6.8329542e+12
6.8308789e+12
6.8171966e+12
6.7486738e+12
6.0336516e+12
6.1216992e+12
6.1422904e+12
6.1460807e+12
6.1472134e+12
6.1480619e+12
6.1484508e+12
6.1487802e+12
6.1490114e+12
6.1491237e+12
6.1491236e+12
6.1490112e+12
6.1487799e+12
6.1484504e+12
6.1480615e+12
6.147213e+12
6.1460803e+12
6.14229e+12
6.1216988e+12
6.033651e+12
5.2246498e+12
5.330044e+12
5.36163e+12
5.3680678e+12
5.3705754e+12
5.3721741e+12
5.3731564e+12
5.3738396e+12
5.3742629e+12
5.3744606e+12
5.3744605e+12
5.3742627e+12
5.3738391e+12
5.3731559e+12
5.3721736e+12
5.3705748e+12
5.3680672e+12
5.3616293e+12
5.3300434e+12
5.2246489e+12
4.3302829e+12
4.4519603e+12
4.4940863e+12
4.5040614e+12
4.5108273e+12
4.5129486e+12
4.5144838e+12
4.5154553e+12
4.516012e+12
4.516264e+12
4.5162638e+12
4.5160117e+12
4.5154548e+12
4.5144832e+12
4.512948e+12
4.5108266e+12
4.5040606e+12
4.4940855e+12
4.4519595e+12
4.3302819e+12
3.3791445e+12
3.5162937e+12
3.5689262e+12
3.5881036e+12
3.5967849e+12
3.599143e+12
3.6007599e+12
3.6016891e+12
3.6021761e+12
3.6023806e+12
3.6023805e+12
3.6021758e+12
3.6016886e+12
3.6007593e+12
3.5991423e+12
3.5967842e+12
3.5881029e+12
3.5689254e+12
3.5162929e+12
3.3791437e+12
0
0
0
0
0
0
0
0
0
0
0
0
0
0
0
0
0
0
0
0
0
0
0
0
0
0
0
0
0
0
0
0
0
0
0
0
0
0
0
0
0
0
0
0
0
0
0
0
0
0
0
0
0
0
0
0
0
0
0
0
0
0
0
0
0
0
0
0
0
0
0
0
0
0
0
0
0
0
0
0
0
0
0
0
0
0
0
0
0
0
0
0
0
0
0
0
0
0
0
0
0
0
0
0
0
0
0
0
0
0
0
0
0
0
0
0
0
0
0
0
0
0
0
0
0
0
0
0
0
0
0
0
0
0
0
0
0
0
0
0
0
0
0
0
0
0
0
0
0
0
0
0
0
0
0
0
0
0
0
0
0
0
0
0
0
0
0
0
0
0
0
0
0
0
0
0
0
0
0
0
0
0
0
0
0
0
0
0
0
0
0
0
0
0
0
0
0
0
0
0
0
0
0
0
0
0
0
0
0
0
0
0
0
0
0
0
0
0
0
0
0
0
0
0
0
0
0
0
0
0
0
0
0
0
0
0
0
0
0
0
0
0
0
0
0
0
0
0
0
0
0
0
0
0
0
0
0
0
0
0
0
0
0
0
0
0
0
0
0
0
0
0
0
0
0
0
0
0
0
0
0
0
0
0
0
0
0
0
0
0
0
0
0
0
0
0
0
0
0
0
0
0
0
0
0
0
0
0
0
0
0
0
0
0
0
0
0
0
0
0
0
0
0
0
0
0
0
0
0
0
0
0
0
0
0
0
0
0
0
0
0
0
0
0
0
0
0
0
0
0
0
0
0
0
0
0
0
0
0
0
0
0
0
0
0
0
0
0
0
0
0
0
0
0
0
0
0
0
0
0
0
0
0
0
0
0
0
0
0
0
0
0
0
0
0
0
0
0
0
0
0
0
0
0
0
0
0
0
0
0
0
0
0
0
0
0
0
0
0
0
0
0
0
0
0
0
0
0
0
0
0
0
0
0
0
0
0
0
0
0
0
0
0
0
0
0
0
0
0
0
0
0
0
0
0
0
0
0
0
0
0
0
0
0
0
0
0
0
0
0
0
0
0
0
0
0
0
0
0
0
0
0
0
0
0
0
0
0
0
0
0
0
0
0
0
0
0
0
0
0
0
0
0
0
0
0
0
0
0
0
0
0
0
0
0
0
0
0
0
0
0
0
0
0
0
0
0
0
0
0
0
0
0
0
0
0
0
0
0
0
)
;

boundaryField
{
    Wall
    {
        type            zeroGradient;
    }
    frontAndBack
    {
        type            empty;
    }
    atmosphere
    {
        type            zeroGradient;
    }
}


// ************************************************************************* //
