/*--------------------------------*- C++ -*----------------------------------*\
| =========                 |                                                 |
| \\      /  F ield         | OpenFOAM: The Open Source CFD Toolbox           |
|  \\    /   O peration     | Version:  3.0.1                                 |
|   \\  /    A nd           | Web:      www.OpenFOAM.org                      |
|    \\/     M anipulation  |                                                 |
\*---------------------------------------------------------------------------*/
FoamFile
{
    version     2.0;
    format      ascii;
    class       volScalarField;
    location    "23";
    object      XOH;
}
// * * * * * * * * * * * * * * * * * * * * * * * * * * * * * * * * * * * * * //

dimensions      [0 0 0 0 0 0 0];

internalField   nonuniform List<scalar> 
800
(
0.12207522
0.12208201
0.12208284
0.12208294
0.12208298
0.12208301
0.12208305
0.12208308
0.12208309
0.1220831
0.1220831
0.12208309
0.12208307
0.12208305
0.12208301
0.12208298
0.12208294
0.12208284
0.12208201
0.12207522
0.1152868
0.11546375
0.11549392
0.11549811
0.11549808
0.11549816
0.11549875
0.11549953
0.11550018
0.11550055
0.11550055
0.11550018
0.11549953
0.11549875
0.11549816
0.11549808
0.11549811
0.11549392
0.11546375
0.1152868
0.10927601
0.10955459
0.10961455
0.10962472
0.1096258
0.1096262
0.10962715
0.10962834
0.10962936
0.10962992
0.10962992
0.10962936
0.10962834
0.10962715
0.1096262
0.1096258
0.10962472
0.10961455
0.10955459
0.10927601
0.10380436
0.10418182
0.10426584
0.10427972
0.10428129
0.10428155
0.10428255
0.10428387
0.10428505
0.10428572
0.10428572
0.10428505
0.10428387
0.10428255
0.10428155
0.10428129
0.10427972
0.10426584
0.10418182
0.10380436
0.098581564
0.099065479
0.099174026
0.099192162
0.099194065
0.099194012
0.099194956
0.099196317
0.099197601
0.099198332
0.099198332
0.0991976
0.099196315
0.099194955
0.099194012
0.099194065
0.099192163
0.099174027
0.099065479
0.098581563
0.093247804
0.093862442
0.09400018
0.094024234
0.094026961
0.094026955
0.094028086
0.094029641
0.094031148
0.094031991
0.094031991
0.094031147
0.09402964
0.094028085
0.094026955
0.094026961
0.094024235
0.094000182
0.093862443
0.093247804
0.087376005
0.088164181
0.088340099
0.088372393
0.088377063
0.088378036
0.088380072
0.088382363
0.088384447
0.088385577
0.088385577
0.088384446
0.088382362
0.08838007
0.088378036
0.088377063
0.088372394
0.0883401
0.088164182
0.087376004
0.080469868
0.08148356
0.081721373
0.081764759
0.081772472
0.081776025
0.081780266
0.081784315
0.081787624
0.081789361
0.081789361
0.081787623
0.081784313
0.081780264
0.081776024
0.081772471
0.081764759
0.081721373
0.081483559
0.080469865
0.071961088
0.073248328
0.073588424
0.07364607
0.073660413
0.073668414
0.073676913
0.073684246
0.073689732
0.07369255
0.07369255
0.07368973
0.073684243
0.073676909
0.073668411
0.07366041
0.073646068
0.073588422
0.073248325
0.071961082
0.061215591
0.062807185
0.063304059
0.063376639
0.063402082
0.063417828
0.06343339
0.063445847
0.063454557
0.063458958
0.063458957
0.063454553
0.063445842
0.063433384
0.063417822
0.063402076
0.063376632
0.063304052
0.062807176
0.061215578
0.047592941
0.049507765
0.050215531
0.050296668
0.050342695
0.050372727
0.050397532
0.050416043
0.050428376
0.050434525
0.050434524
0.050428372
0.050416037
0.050397524
0.050372718
0.050342684
0.050296657
0.050215518
0.04950775
0.047592922
0.030284981
0.032968442
0.033573811
0.03365368
0.034080379
0.034120989
0.034151156
0.034172765
0.034186675
0.034193556
0.034193555
0.034186671
0.034172759
0.034151147
0.034120979
0.034080366
0.033653666
0.033573796
0.032968426
0.030284961
0.0079487765
0.012141441
0.01235189
0.013389429
0.013600575
0.013628126
0.013646807
0.013660191
0.013668675
0.013672857
0.013672857
0.013668674
0.013660189
0.013646804
0.013628122
0.013600569
0.013389423
0.012351884
0.012141434
0.0079487723
1e-150
1e-150
1e-150
1e-150
1e-150
1e-150
1e-150
1e-150
1e-150
1e-150
1e-150
1e-150
1e-150
1e-150
1e-150
1e-150
1e-150
1e-150
1e-150
1e-150
1e-150
1e-150
1e-150
1e-150
1e-150
1e-150
1e-150
1e-150
1e-150
1e-150
1e-150
1e-150
1e-150
1e-150
1e-150
1e-150
1e-150
1e-150
1e-150
1e-150
1e-150
1e-150
1e-150
1e-150
1e-150
1e-150
1e-150
1e-150
1e-150
1e-150
1e-150
1e-150
1e-150
1e-150
1e-150
1e-150
1e-150
1e-150
1e-150
1e-150
1e-150
1e-150
1e-150
1e-150
1e-150
1e-150
1e-150
1e-150
1e-150
1e-150
1e-150
1e-150
1e-150
1e-150
1e-150
1e-150
1e-150
1e-150
1e-150
1e-150
1e-150
1e-150
1e-150
1e-150
1e-150
1e-150
1e-150
1e-150
1e-150
1e-150
1e-150
1e-150
1e-150
1e-150
1e-150
1e-150
1e-150
1e-150
1e-150
1e-150
1e-150
1e-150
1e-150
1e-150
1e-150
1e-150
1e-150
1e-150
1e-150
1e-150
1e-150
1e-150
1e-150
1e-150
1e-150
1e-150
1e-150
1e-150
1e-150
1e-150
1e-150
1e-150
1e-150
1e-150
1e-150
1e-150
1e-150
1e-150
1e-150
1e-150
1e-150
1e-150
1e-150
1e-150
1e-150
1e-150
1e-150
1e-150
1e-150
1e-150
1e-150
1e-150
1e-150
1e-150
1e-150
1e-150
1e-150
1e-150
1e-150
1e-150
1e-150
1e-150
1e-150
1e-150
1e-150
1e-150
1e-150
1e-150
1e-150
1e-150
1e-150
1e-150
1e-150
1e-150
1e-150
1e-150
1e-150
1e-150
1e-150
1e-150
1e-150
1e-150
1e-150
1e-150
1e-150
1e-150
1e-150
1e-150
1e-150
1e-150
1e-150
1e-150
1e-150
1e-150
1e-150
1e-150
1e-150
1e-150
1e-150
1e-150
1e-150
1e-150
1e-150
1e-150
1e-150
1e-150
1e-150
1e-150
1e-150
1e-150
1e-150
1e-150
1e-150
1e-150
1e-150
1e-150
1e-150
1e-150
1e-150
1e-150
1e-150
1e-150
1e-150
1e-150
1e-150
1e-150
1e-150
1e-150
1e-150
1e-150
1e-150
1e-150
1e-150
1e-150
1e-150
1e-150
1e-150
1e-150
1e-150
1e-150
1e-150
1e-150
1e-150
1e-150
1e-150
1e-150
1e-150
1e-150
1e-150
1e-150
1e-150
1e-150
1e-150
1e-150
1e-150
1e-150
1e-150
1e-150
1e-150
1e-150
1e-150
1e-150
1e-150
1e-150
1e-150
1e-150
1e-150
1e-150
1e-150
1e-150
1e-150
1e-150
1e-150
1e-150
1e-150
1e-150
1e-150
1e-150
1e-150
1e-150
1e-150
1e-150
1e-150
1e-150
1e-150
1e-150
1e-150
1e-150
1e-150
1e-150
1e-150
1e-150
1e-150
1e-150
1e-150
1e-150
1e-150
1e-150
1e-150
1e-150
1e-150
1e-150
1e-150
1e-150
1e-150
1e-150
1e-150
1e-150
1e-150
1e-150
1e-150
1e-150
1e-150
1e-150
1e-150
1e-150
1e-150
1e-150
1e-150
1e-150
1e-150
1e-150
1e-150
1e-150
1e-150
1e-150
1e-150
1e-150
1e-150
1e-150
1e-150
1e-150
1e-150
1e-150
1e-150
1e-150
1e-150
1e-150
1e-150
1e-150
1e-150
1e-150
1e-150
1e-150
1e-150
1e-150
1e-150
1e-150
1e-150
1e-150
1e-150
1e-150
1e-150
1e-150
1e-150
1e-150
1e-150
1e-150
1e-150
1e-150
1e-150
1e-150
1e-150
1e-150
1e-150
1e-150
1e-150
1e-150
1e-150
1e-150
1e-150
1e-150
1e-150
1e-150
1e-150
1e-150
1e-150
1e-150
1e-150
1e-150
1e-150
1e-150
1e-150
1e-150
1e-150
1e-150
1e-150
1e-150
1e-150
1e-150
1e-150
1e-150
1e-150
1e-150
1e-150
1e-150
1e-150
1e-150
1e-150
1e-150
1e-150
1e-150
1e-150
1e-150
1e-150
1e-150
1e-150
1e-150
1e-150
1e-150
1e-150
1e-150
1e-150
1e-150
1e-150
1e-150
1e-150
1e-150
1e-150
1e-150
1e-150
1e-150
1e-150
1e-150
1e-150
1e-150
1e-150
1e-150
1e-150
1e-150
1e-150
1e-150
1e-150
1e-150
1e-150
1e-150
1e-150
1e-150
1e-150
1e-150
1e-150
1e-150
1e-150
1e-150
1e-150
1e-150
1e-150
1e-150
1e-150
1e-150
1e-150
1e-150
1e-150
1e-150
1e-150
1e-150
1e-150
1e-150
1e-150
1e-150
1e-150
1e-150
1e-150
1e-150
1e-150
1e-150
1e-150
1e-150
1e-150
1e-150
1e-150
1e-150
1e-150
1e-150
1e-150
1e-150
1e-150
1e-150
1e-150
1e-150
1e-150
1e-150
1e-150
1e-150
1e-150
1e-150
1e-150
1e-150
1e-150
1e-150
1e-150
1e-150
1e-150
1e-150
1e-150
1e-150
1e-150
1e-150
1e-150
1e-150
1e-150
1e-150
1e-150
1e-150
1e-150
1e-150
1e-150
1e-150
1e-150
1e-150
1e-150
1e-150
1e-150
1e-150
1e-150
1e-150
1e-150
1e-150
1e-150
1e-150
1e-150
1e-150
1e-150
1e-150
1e-150
1e-150
1e-150
1e-150
1e-150
1e-150
1e-150
1e-150
1e-150
1e-150
1e-150
1e-150
1e-150
1e-150
1e-150
1e-150
1e-150
1e-150
1e-150
1e-150
1e-150
1e-150
1e-150
1e-150
1e-150
1e-150
)
;

boundaryField
{
    Wall
    {
        type            zeroGradient;
    }
    frontAndBack
    {
        type            empty;
    }
    atmosphere
    {
        type            zeroGradient;
    }
}


// ************************************************************************* //
