/*--------------------------------*- C++ -*----------------------------------*\
| =========                 |                                                 |
| \\      /  F ield         | OpenFOAM: The Open Source CFD Toolbox           |
|  \\    /   O peration     | Version:  3.0.1                                 |
|   \\  /    A nd           | Web:      www.OpenFOAM.org                      |
|    \\/     M anipulation  |                                                 |
\*---------------------------------------------------------------------------*/
FoamFile
{
    version     2.0;
    format      ascii;
    class       volScalarField;
    location    "23";
    object      XW;
}
// * * * * * * * * * * * * * * * * * * * * * * * * * * * * * * * * * * * * * //

dimensions      [0 0 0 0 0 0 0];

internalField   nonuniform List<scalar> 
800
(
0.54278819
0.54280564
0.54280774
0.54280798
0.54280807
0.54280815
0.54280822
0.54280829
0.54280833
0.54280835
0.54280835
0.54280833
0.54280829
0.54280823
0.54280815
0.54280807
0.54280798
0.54280774
0.54280564
0.54278819
0.52343822
0.52394428
0.52403013
0.52404247
0.52404282
0.52404341
0.52404534
0.52404773
0.52404971
0.52405079
0.5240508
0.52404971
0.52404773
0.52404534
0.52404341
0.52404282
0.52404247
0.52403013
0.52394428
0.52343822
0.50495012
0.50580204
0.50598185
0.50601295
0.50601667
0.50601815
0.50602118
0.50602485
0.50602795
0.50602968
0.50602968
0.50602795
0.50602485
0.50602118
0.50601815
0.50601667
0.50601295
0.50598185
0.50580204
0.50495011
0.48662384
0.487862
0.48812537
0.48816896
0.48817419
0.48817511
0.48817826
0.48818242
0.48818612
0.48818822
0.48818822
0.48818612
0.48818242
0.48817826
0.4881751
0.48817418
0.48816896
0.48812537
0.487862
0.48662383
0.46751089
0.46922061
0.46957418
0.46963305
0.46963942
0.46963931
0.46964243
0.46964694
0.46965119
0.46965361
0.46965361
0.46965118
0.46964694
0.46964242
0.4696393
0.46963941
0.46963305
0.46957418
0.46922061
0.46751088
0.44635287
0.4486834
0.44914619
0.44922664
0.44923586
0.44923622
0.44924046
0.44924618
0.4492516
0.44925465
0.44925464
0.4492516
0.44924617
0.44924045
0.44923621
0.44923585
0.44922664
0.44914619
0.4486834
0.44635286
0.42154218
0.42471259
0.42534287
0.42545351
0.42546945
0.42547392
0.42548229
0.42549157
0.42549975
0.42550421
0.42550421
0.42549975
0.42549156
0.42548228
0.42547391
0.42546944
0.42545351
0.42534286
0.42471259
0.42154216
0.39106005
0.39532784
0.3962675
0.39641914
0.39644493
0.39645978
0.39647764
0.39649481
0.39650853
0.39651579
0.39651579
0.39650852
0.39649479
0.39647763
0.39645976
0.39644492
0.39641913
0.39626749
0.39532782
0.39106003
0.35236084
0.35799031
0.35946328
0.35966906
0.35971833
0.35975066
0.35978654
0.359818
0.35984133
0.35985343
0.35985342
0.35984132
0.35981798
0.35978651
0.35975063
0.3597183
0.35966903
0.35946326
0.35799028
0.3523608
0.30210869
0.3093589
0.31166823
0.31193365
0.31202495
0.31208714
0.31215314
0.31220687
0.31224438
0.31226349
0.31226349
0.31224437
0.31220684
0.31215311
0.31208711
0.31202491
0.31193361
0.31166818
0.30935885
0.30210862
0.23660179
0.24569251
0.24914316
0.24945004
0.24962016
0.24974306
0.24984971
0.24993039
0.24998424
0.25001127
0.25001126
0.24998423
0.24993036
0.24984967
0.24974301
0.24962011
0.24944997
0.24914309
0.24569243
0.23660169
0.15137598
0.16470639
0.16765251
0.16796744
0.17014909
0.17032592
0.17045963
0.17055599
0.17061803
0.17064882
0.17064881
0.17061801
0.17055596
0.17045959
0.17032586
0.17014902
0.16796737
0.16765244
0.1647063
0.15137588
0.040055826
0.061175512
0.062193503
0.067398064
0.068476985
0.06860265
0.068688079
0.068749488
0.068788355
0.068807544
0.068807542
0.06878835
0.068749478
0.068688063
0.068602629
0.068476958
0.067398033
0.062193474
0.061175481
0.040055806
1e-150
1e-150
1e-150
1e-150
1e-150
1e-150
1e-150
1e-150
1e-150
1e-150
1e-150
1e-150
1e-150
1e-150
1e-150
1e-150
1e-150
1e-150
1e-150
1e-150
1e-150
1e-150
1e-150
1e-150
1e-150
1e-150
1e-150
1e-150
1e-150
1e-150
1e-150
1e-150
1e-150
1e-150
1e-150
1e-150
1e-150
1e-150
1e-150
1e-150
1e-150
1e-150
1e-150
1e-150
1e-150
1e-150
1e-150
1e-150
1e-150
1e-150
1e-150
1e-150
1e-150
1e-150
1e-150
1e-150
1e-150
1e-150
1e-150
1e-150
1e-150
1e-150
1e-150
1e-150
1e-150
1e-150
1e-150
1e-150
1e-150
1e-150
1e-150
1e-150
1e-150
1e-150
1e-150
1e-150
1e-150
1e-150
1e-150
1e-150
1e-150
1e-150
1e-150
1e-150
1e-150
1e-150
1e-150
1e-150
1e-150
1e-150
1e-150
1e-150
1e-150
1e-150
1e-150
1e-150
1e-150
1e-150
1e-150
1e-150
1e-150
1e-150
1e-150
1e-150
1e-150
1e-150
1e-150
1e-150
1e-150
1e-150
1e-150
1e-150
1e-150
1e-150
1e-150
1e-150
1e-150
1e-150
1e-150
1e-150
1e-150
1e-150
1e-150
1e-150
1e-150
1e-150
1e-150
1e-150
1e-150
1e-150
1e-150
1e-150
1e-150
1e-150
1e-150
1e-150
1e-150
1e-150
1e-150
1e-150
1e-150
1e-150
1e-150
1e-150
1e-150
1e-150
1e-150
1e-150
1e-150
1e-150
1e-150
1e-150
1e-150
1e-150
1e-150
1e-150
1e-150
1e-150
1e-150
1e-150
1e-150
1e-150
1e-150
1e-150
1e-150
1e-150
1e-150
1e-150
1e-150
1e-150
1e-150
1e-150
1e-150
1e-150
1e-150
1e-150
1e-150
1e-150
1e-150
1e-150
1e-150
1e-150
1e-150
1e-150
1e-150
1e-150
1e-150
1e-150
1e-150
1e-150
1e-150
1e-150
1e-150
1e-150
1e-150
1e-150
1e-150
1e-150
1e-150
1e-150
1e-150
1e-150
1e-150
1e-150
1e-150
1e-150
1e-150
1e-150
1e-150
1e-150
1e-150
1e-150
1e-150
1e-150
1e-150
1e-150
1e-150
1e-150
1e-150
1e-150
1e-150
1e-150
1e-150
1e-150
1e-150
1e-150
1e-150
1e-150
1e-150
1e-150
1e-150
1e-150
1e-150
1e-150
1e-150
1e-150
1e-150
1e-150
1e-150
1e-150
1e-150
1e-150
1e-150
1e-150
1e-150
1e-150
1e-150
1e-150
1e-150
1e-150
1e-150
1e-150
1e-150
1e-150
1e-150
1e-150
1e-150
1e-150
1e-150
1e-150
1e-150
1e-150
1e-150
1e-150
1e-150
1e-150
1e-150
1e-150
1e-150
1e-150
1e-150
1e-150
1e-150
1e-150
1e-150
1e-150
1e-150
1e-150
1e-150
1e-150
1e-150
1e-150
1e-150
1e-150
1e-150
1e-150
1e-150
1e-150
1e-150
1e-150
1e-150
1e-150
1e-150
1e-150
1e-150
1e-150
1e-150
1e-150
1e-150
1e-150
1e-150
1e-150
1e-150
1e-150
1e-150
1e-150
1e-150
1e-150
1e-150
1e-150
1e-150
1e-150
1e-150
1e-150
1e-150
1e-150
1e-150
1e-150
1e-150
1e-150
1e-150
1e-150
1e-150
1e-150
1e-150
1e-150
1e-150
1e-150
1e-150
1e-150
1e-150
1e-150
1e-150
1e-150
1e-150
1e-150
1e-150
1e-150
1e-150
1e-150
1e-150
1e-150
1e-150
1e-150
1e-150
1e-150
1e-150
1e-150
1e-150
1e-150
1e-150
1e-150
1e-150
1e-150
1e-150
1e-150
1e-150
1e-150
1e-150
1e-150
1e-150
1e-150
1e-150
1e-150
1e-150
1e-150
1e-150
1e-150
1e-150
1e-150
1e-150
1e-150
1e-150
1e-150
1e-150
1e-150
1e-150
1e-150
1e-150
1e-150
1e-150
1e-150
1e-150
1e-150
1e-150
1e-150
1e-150
1e-150
1e-150
1e-150
1e-150
1e-150
1e-150
1e-150
1e-150
1e-150
1e-150
1e-150
1e-150
1e-150
1e-150
1e-150
1e-150
1e-150
1e-150
1e-150
1e-150
1e-150
1e-150
1e-150
1e-150
1e-150
1e-150
1e-150
1e-150
1e-150
1e-150
1e-150
1e-150
1e-150
1e-150
1e-150
1e-150
1e-150
1e-150
1e-150
1e-150
1e-150
1e-150
1e-150
1e-150
1e-150
1e-150
1e-150
1e-150
1e-150
1e-150
1e-150
1e-150
1e-150
1e-150
1e-150
1e-150
1e-150
1e-150
1e-150
1e-150
1e-150
1e-150
1e-150
1e-150
1e-150
1e-150
1e-150
1e-150
1e-150
1e-150
1e-150
1e-150
1e-150
1e-150
1e-150
1e-150
1e-150
1e-150
1e-150
1e-150
1e-150
1e-150
1e-150
1e-150
1e-150
1e-150
1e-150
1e-150
1e-150
1e-150
1e-150
1e-150
1e-150
1e-150
1e-150
1e-150
1e-150
1e-150
1e-150
1e-150
1e-150
1e-150
1e-150
1e-150
1e-150
1e-150
1e-150
1e-150
1e-150
1e-150
1e-150
1e-150
1e-150
1e-150
1e-150
1e-150
1e-150
1e-150
1e-150
1e-150
1e-150
1e-150
1e-150
1e-150
1e-150
1e-150
1e-150
1e-150
1e-150
1e-150
1e-150
1e-150
1e-150
1e-150
1e-150
1e-150
1e-150
1e-150
1e-150
1e-150
1e-150
1e-150
1e-150
1e-150
1e-150
1e-150
1e-150
1e-150
1e-150
1e-150
1e-150
1e-150
1e-150
)
;

boundaryField
{
    Wall
    {
        type            zeroGradient;
    }
    frontAndBack
    {
        type            empty;
    }
    atmosphere
    {
        type            zeroGradient;
    }
}


// ************************************************************************* //
