/*--------------------------------*- C++ -*----------------------------------*\
| =========                 |                                                 |
| \\      /  F ield         | OpenFOAM: The Open Source CFD Toolbox           |
|  \\    /   O peration     | Version:  3.0.1                                 |
|   \\  /    A nd           | Web:      www.OpenFOAM.org                      |
|    \\/     M anipulation  |                                                 |
\*---------------------------------------------------------------------------*/
FoamFile
{
    version     2.0;
    format      ascii;
    class       volScalarField;
    location    "30";
    object      alpha.gas;
}
// * * * * * * * * * * * * * * * * * * * * * * * * * * * * * * * * * * * * * //

dimensions      [0 0 0 0 0 0 0];

internalField   nonuniform List<scalar> 
800
(
2.0281849e-28
2.2639417e-25
4.3432209e-22
8.5438708e-22
1.7083025e-23
1.0529067e-21
9.2794982e-22
6.1032994e-23
3.528625e-25
9.1488107e-28
3.0342466e-23
2.9445826e-23
6.4579849e-25
6.8746502e-23
6.7004809e-23
1.5581353e-27
4.2311318e-32
1.8323841e-35
3.6110363e-39
6.7247892e-43
1.5669673e-12
3.6147711e-13
2.5121661e-11
9.3151508e-12
4.7423561e-13
1.1889347e-11
9.4720012e-12
1.1367191e-11
2.308698e-11
5.8021777e-11
2.9186127e-11
2.9006695e-11
1.5680497e-11
9.311059e-12
8.7233607e-12
1.6927783e-12
1.0602763e-15
9.7367348e-14
4.8869169e-12
6.8296729e-15
2.8134667e-08
2.5141369e-08
2.4150113e-08
2.3855715e-08
2.3783296e-08
2.3803755e-08
2.3832705e-08
2.3862281e-08
2.3889479e-08
2.3922357e-08
2.3903127e-08
2.3893463e-08
2.3865217e-08
2.3832677e-08
2.3801761e-08
2.3784251e-08
2.3849666e-08
2.4133639e-08
2.51447e-08
2.8134091e-08
1.249142e-07
1.1128291e-07
1.0668428e-07
1.0548222e-07
1.0521142e-07
1.0528179e-07
1.0541565e-07
1.0553968e-07
1.0563075e-07
1.0569244e-07
1.0567592e-07
1.056343e-07
1.0554242e-07
1.0541591e-07
1.0528047e-07
1.0521274e-07
1.0547758e-07
1.0667075e-07
1.1128685e-07
1.2491512e-07
3.3341137e-07
2.9666493e-07
2.837739e-07
2.8068836e-07
2.8005123e-07
2.802531e-07
2.80618e-07
2.8094414e-07
2.811732e-07
2.8130209e-07
2.8128631e-07
2.8117685e-07
2.8094719e-07
2.8061883e-07
2.8025263e-07
2.8005347e-07
2.8068501e-07
2.8376224e-07
2.9667068e-07
3.3341473e-07
6.9605344e-07
6.1939191e-07
5.9065601e-07
5.8433236e-07
5.8317131e-07
5.8365303e-07
5.8443823e-07
5.851193e-07
5.855891e-07
5.8583553e-07
5.8582008e-07
5.855931e-07
5.8512302e-07
5.8444001e-07
5.8365381e-07
5.8317504e-07
5.8433077e-07
5.9064656e-07
6.1940044e-07
6.9606022e-07
1.2529261e-06
1.1161751e-06
1.0601013e-06
1.048684e-06
1.0469276e-06
1.0479318e-06
1.0494022e-06
1.0506412e-06
1.0514853e-06
1.0519134e-06
1.0518982e-06
1.0514899e-06
1.0506459e-06
1.0494053e-06
1.0479343e-06
1.0469334e-06
1.0486847e-06
1.0600946e-06
1.1161872e-06
1.2529369e-06
2.0400152e-06
1.8213208e-06
1.7211636e-06
1.7019232e-06
1.6996686e-06
1.701571e-06
1.7040784e-06
1.7061317e-06
1.7075155e-06
1.7082032e-06
1.7081884e-06
1.7075209e-06
1.7061376e-06
1.7040833e-06
1.7015756e-06
1.699677e-06
1.7019267e-06
1.7211604e-06
1.8213368e-06
2.0400298e-06
3.0871766e-06
2.7654548e-06
2.5981242e-06
2.5665784e-06
2.5641522e-06
2.5674915e-06
2.5714771e-06
2.5746522e-06
2.5767726e-06
2.5778109e-06
2.5777965e-06
2.5767789e-06
2.5746596e-06
2.5714841e-06
2.5674986e-06
2.5641635e-06
2.5665849e-06
2.5981245e-06
2.7654746e-06
3.0871942e-06
4.4160307e-06
3.9740372e-06
3.7103308e-06
3.6582081e-06
3.6561533e-06
3.6616333e-06
3.6676156e-06
3.6722614e-06
3.6753361e-06
3.6768262e-06
3.6768123e-06
3.6753434e-06
3.6722705e-06
3.6676249e-06
3.661643e-06
3.6561676e-06
3.6582175e-06
3.7103346e-06
3.9740603e-06
4.4160501e-06
6.0391919e-06
5.4767676e-06
5.0750716e-06
4.98454e-06
4.9835414e-06
4.9920109e-06
5.0005636e-06
5.0070565e-06
5.0113293e-06
5.0133839e-06
5.0133705e-06
5.0113376e-06
5.0070672e-06
5.0005751e-06
4.992023e-06
4.9835584e-06
4.9845518e-06
5.0750784e-06
5.4767932e-06
6.039212e-06
7.9706465e-06
7.3066013e-06
6.667232e-06
6.5409223e-06
6.5448882e-06
6.5580562e-06
6.5698092e-06
6.578538e-06
6.5842571e-06
6.5869826e-06
6.5869698e-06
6.5842665e-06
6.5785502e-06
6.5698227e-06
6.5580702e-06
6.5449072e-06
6.5409357e-06
6.66724e-06
7.3066295e-06
7.9706662e-06
1.0152271e-05
9.052874e-06
8.3860191e-06
8.3048333e-06
8.3545887e-06
8.3515351e-06
8.3671167e-06
8.3784305e-06
8.3858135e-06
8.38934e-06
8.3893277e-06
8.3858236e-06
8.3784439e-06
8.3671317e-06
8.3515506e-06
8.3546083e-06
8.3048464e-06
8.3860262e-06
9.0528966e-06
1.015229e-05
1.3325749e-05
1.1124397e-05
1.1256583e-05
1.1630177e-05
1.0501278e-05
1.0357149e-05
1.0377954e-05
1.0392238e-05
1.0401442e-05
1.0405912e-05
1.04059e-05
1.0401452e-05
1.0392252e-05
1.037797e-05
1.0357165e-05
1.0501311e-05
1.1630156e-05
1.1256583e-05
1.1124396e-05
1.3325771e-05
1.8297156e-05
2.8593105e-05
1.9942139e-05
1.6218101e-05
1.2437928e-05
1.2540648e-05
1.2567347e-05
1.2584899e-05
1.2595971e-05
1.2601443e-05
1.2601431e-05
1.2595982e-05
1.2584913e-05
1.2567364e-05
1.2540664e-05
1.2437956e-05
1.6218254e-05
1.9941997e-05
2.8593015e-05
1.8297178e-05
1.8470419e-05
3.1193021e-05
2.7590055e-05
1.5484299e-05
1.4818196e-05
1.48689e-05
1.4899868e-05
1.4921045e-05
1.4933899e-05
1.4940273e-05
1.4940262e-05
1.4933911e-05
1.4921059e-05
1.4899884e-05
1.4868915e-05
1.4818199e-05
1.5484525e-05
2.7590337e-05
3.1193605e-05
1.8470442e-05
3.116415e-05
3.1194204e-05
2.2278087e-05
1.550191e-05
1.7261882e-05
1.7318212e-05
1.7354223e-05
1.7379091e-05
1.7393787e-05
1.7400891e-05
1.740088e-05
1.7393798e-05
1.7379106e-05
1.7354238e-05
1.7318226e-05
1.7261929e-05
1.5502088e-05
2.2278467e-05
3.1194784e-05
3.1164707e-05
3.307151e-05
2.6759776e-05
2.0674521e-05
1.8034142e-05
1.9761373e-05
1.9867334e-05
1.991252e-05
1.9941206e-05
1.9958028e-05
1.9965665e-05
1.9965654e-05
1.9958039e-05
1.994122e-05
1.9912534e-05
1.9867347e-05
1.9761354e-05
1.8033542e-05
2.0674803e-05
2.6758853e-05
3.3071683e-05
2.2668479e-05
2.121069e-05
2.1019777e-05
2.4653634e-05
2.2412563e-05
2.2515094e-05
2.2569275e-05
2.2601965e-05
2.2620922e-05
2.2628936e-05
2.2628926e-05
2.2620932e-05
2.2601978e-05
2.2569288e-05
2.2515104e-05
2.2412581e-05
2.4653596e-05
2.1019988e-05
2.1210948e-05
2.2668153e-05
2.4157286e-05
2.1211521e-05
2.1210648e-05
2.4646291e-05
2.5307435e-05
2.5328972e-05
2.5388993e-05
2.5424463e-05
2.5442824e-05
2.5450164e-05
2.5450154e-05
2.5442833e-05
2.5424475e-05
2.5389005e-05
2.532898e-05
2.5307442e-05
2.4646573e-05
2.1210906e-05
2.1211779e-05
2.415718e-05
3.2358948e-05
2.1212927e-05
2.1211528e-05
2.6113438e-05
2.8734838e-05
2.8866528e-05
2.8916872e-05
2.8945174e-05
2.8950665e-05
2.8951864e-05
2.8951854e-05
2.8950673e-05
2.8945184e-05
2.8916881e-05
2.8866533e-05
2.8734848e-05
2.6113464e-05
2.1211786e-05
2.1213185e-05
3.2358765e-05
5.9662456e-05
2.6997269e-05
2.6754249e-05
3.5770913e-05
3.6834658e-05
3.6727084e-05
3.6657941e-05
3.6615751e-05
3.654182e-05
3.6504921e-05
3.6504909e-05
3.6541818e-05
3.6615747e-05
3.6657929e-05
3.6727063e-05
3.683463e-05
3.5770761e-05
2.6753557e-05
2.6996867e-05
5.9661662e-05
0.00028010013
0.00012565473
9.2642812e-05
8.6879628e-05
8.2048591e-05
7.9719089e-05
7.8404199e-05
7.7676041e-05
7.6915576e-05
7.65464e-05
7.6546362e-05
7.6915483e-05
7.7675893e-05
7.8403978e-05
7.9718801e-05
8.2048199e-05
8.6879042e-05
9.2641015e-05
0.00012565177
0.00028009104
0.0042775977
0.0014778286
0.00084107774
0.00068675173
0.00060785809
0.00057221656
0.00055298363
0.00054233989
0.00053192074
0.00052690526
0.0005269048
0.00053191926
0.00054233751
0.00055297999
0.00057221199
0.00060785213
0.0006867432
0.00084106335
0.0014777813
0.0042773657
0.1656481
0.050704457
0.025920593
0.019514367
0.016459653
0.015020067
0.014262492
0.013834964
0.013433727
0.013241537
0.013241517
0.013433664
0.01383486
0.014262338
0.015019875
0.016459403
0.019513996
0.02591998
0.050702551
0.16564021
0.79210458
0.59379787
0.47880819
0.43112512
0.40166742
0.38608965
0.37742775
0.37240734
0.36762843
0.36530876
0.36530851
0.36762765
0.37240608
0.37742594
0.38608745
0.40166474
0.43112196
0.47880396
0.59379149
0.79209814
0.99123424
0.96791648
0.94412828
0.93106478
0.92161258
0.91625915
0.91317218
0.91135149
0.90958562
0.90871946
0.90871937
0.90958532
0.91135102
0.91317153
0.91625837
0.92161168
0.93106384
0.9441272
0.96791546
0.9912337
0.99996758
0.99968296
0.99919941
0.99885579
0.99856414
0.99838891
0.99828648
0.99822591
0.99816525
0.99813523
0.99813523
0.99816524
0.9982259
0.99828645
0.99838889
0.99856411
0.99885576
0.99919939
0.99968295
0.99996757
1
0.99999977
0.99999903
0.99999833
0.99999769
0.99999727
0.99999703
0.9999969
0.99999675
0.99999668
0.99999668
0.99999675
0.9999969
0.99999703
0.99999727
0.99999769
0.99999833
0.99999903
0.99999977
1
1
1
1
1
1
1
1
1
1
1
1
1
1
1
1
1
1
1
1
1
1
1
1
1
1
1
1
1
1
1
1
1
1
1
1
1
1
1
1
1
1
1
1
1
1
1
1
1
1
1
1
1
1
1
1
1
1
1
1
1
1
1
1
1
1
1
1
1
1
1
1
1
1
1
1
1
1
1
1
1
1
1
1
1
1
1
1
1
1
1
1
1
1
1
1
1
1
1
1
1
1
1
1
1
1
1
1
1
1
1
1
1
1
1
1
1
1
1
1
1
1
1
1
1
1
1
1
1
1
1
1
1
1
1
1
1
1
1
1
1
1
1
1
1
1
1
1
1
1
1
1
1
1
1
1
1
1
1
1
1
1
1
1
1
1
1
1
1
1
1
1
1
1
1
1
1
1
1
1
1
1
1
1
1
1
1
1
1
1
1
1
1
1
1
1
1
1
1
1
1
1
1
1
1
1
1
1
1
1
1
1
1
1
1
1
1
1
1
1
1
)
;

boundaryField
{
    Wall
    {
        type            zeroGradient;
    }
    frontAndBack
    {
        type            empty;
    }
    atmosphere
    {
        type            zeroGradient;
    }
}


// ************************************************************************* //
