/*--------------------------------*- C++ -*----------------------------------*\
| =========                 |                                                 |
| \\      /  F ield         | OpenFOAM: The Open Source CFD Toolbox           |
|  \\    /   O peration     | Version:  3.0.1                                 |
|   \\  /    A nd           | Web:      www.OpenFOAM.org                      |
|    \\/     M anipulation  |                                                 |
\*---------------------------------------------------------------------------*/
FoamFile
{
    version     2.0;
    format      ascii;
    class       volScalarField;
    location    "30";
    object      g1_BA;
}
// * * * * * * * * * * * * * * * * * * * * * * * * * * * * * * * * * * * * * //

dimensions      [0 0 0 0 0 0 0];

internalField   nonuniform List<scalar> 
800
(
0.56212645
0.56215239
0.56216036
0.56216191
0.56216216
0.56216222
0.56216229
0.56216237
0.56216245
0.56216249
0.56216249
0.56216245
0.56216237
0.56216229
0.56216222
0.56216216
0.56216191
0.56216036
0.56215239
0.56212645
0.56547637
0.56549174
0.56552206
0.56553112
0.56553215
0.56553047
0.56552829
0.56552644
0.56552519
0.56552457
0.56552457
0.56552519
0.56552644
0.56552829
0.56553047
0.56553214
0.56553112
0.56552206
0.56549173
0.56547635
0.56001822
0.56034089
0.56050798
0.56056098
0.56057168
0.5605687
0.56056263
0.56055726
0.56055362
0.56055183
0.56055183
0.56055361
0.56055725
0.56056262
0.56056868
0.56057166
0.56056095
0.56050794
0.56034084
0.56001814
0.54765773
0.54848867
0.54885517
0.54897133
0.54899716
0.54899365
0.54898321
0.54897368
0.54896713
0.54896391
0.54896391
0.54896712
0.54897366
0.54898318
0.54899361
0.54899711
0.54897127
0.5488551
0.54848857
0.54765757
0.5302548
0.53170539
0.53229412
0.5324771
0.53251802
0.53251309
0.53249754
0.53248331
0.53247352
0.53246871
0.53246871
0.5324735
0.53248328
0.5324975
0.53251303
0.53251794
0.532477
0.53229401
0.53170524
0.53025459
0.50954459
0.51163057
0.51243826
0.51268345
0.51273608
0.51272772
0.51270603
0.51268654
0.51267321
0.51266669
0.51266668
0.51267319
0.5126865
0.51270596
0.51272763
0.51273598
0.51268333
0.51243811
0.5116304
0.50954434
0.48698837
0.48967525
0.49067784
0.490976
0.49103485
0.49102036
0.49099136
0.49096604
0.4909489
0.49094054
0.49094054
0.49094887
0.49096599
0.49099128
0.49102026
0.49103473
0.49097586
0.49067768
0.48967505
0.48698811
0.46320738
0.46650194
0.46768068
0.46802151
0.46808309
0.46806059
0.46802348
0.46799191
0.46797076
0.46796046
0.46796045
0.46797072
0.46799185
0.4680234
0.46806049
0.46808296
0.46802136
0.46768051
0.46650174
0.46320713
0.43887904
0.4427628
0.44408494
0.44445896
0.44451854
0.4444869
0.44444135
0.4444035
0.44437836
0.44436612
0.44436611
0.44437832
0.44440344
0.44444126
0.44448679
0.44451841
0.44445881
0.44408477
0.44276261
0.43887881
0.41403167
0.41853096
0.41998758
0.42038926
0.42044179
0.4204003
0.4203473
0.42030399
0.42027525
0.42026125
0.42026123
0.4202752
0.42030393
0.42034721
0.42040019
0.42044166
0.42038912
0.41998742
0.41853079
0.41403147
0.38869339
0.39381521
0.3954125
0.39584246
0.39587953
0.3958245
0.39576644
0.39571939
0.39568781
0.39567242
0.39567241
0.39568777
0.39571932
0.39576635
0.39582439
0.39587941
0.39584232
0.39541235
0.39381506
0.38869323
0.36296738
0.36872037
0.37047256
0.37093766
0.37095059
0.37087907
0.3708192
0.37077067
0.37073759
0.37072126
0.37072125
0.37073755
0.37077061
0.37081912
0.37087897
0.37095047
0.37093754
0.37047243
0.36872024
0.36296724
0.33690099
0.3433201
0.34524839
0.3457597
0.3457486
0.34566506
0.34560667
0.34555927
0.34552302
0.34550628
0.34550627
0.34552298
0.3455592
0.34560659
0.34566496
0.3457485
0.34575958
0.34524826
0.34331998
0.33690087
0.31050342
0.31763425
0.31976941
0.32033623
0.32031634
0.32023174
0.32017743
0.32013334
0.32009067
0.32007446
0.32007445
0.32009063
0.32013328
0.32017735
0.32023165
0.32031624
0.32033612
0.31976929
0.31763413
0.31050331
0.28393485
0.29179945
0.29418298
0.29481851
0.29481574
0.29474088
0.29469214
0.29465111
0.29460287
0.294585
0.29458498
0.29460283
0.29465104
0.29469206
0.29474079
0.29481564
0.29481841
0.29418287
0.29179934
0.28393474
0.26570918
0.27471977
0.27763355
0.27845628
0.27857593
0.27852556
0.27844311
0.27838364
0.27833023
0.27830846
0.27830844
0.2783302
0.27838359
0.27844304
0.27852548
0.27857584
0.27845619
0.27763345
0.27471967
0.26570909
0.24059998
0.25041128
0.25379104
0.25479408
0.25497934
0.25493624
0.25484508
0.2547821
0.25472922
0.25470655
0.25470654
0.25472919
0.25478204
0.25484501
0.25493617
0.25497926
0.254794
0.25379094
0.25041119
0.24059991
0.21601043
0.22659823
0.23052731
0.23177677
0.23205694
0.23202595
0.23192529
0.23185454
0.23180307
0.23177915
0.23177914
0.23180304
0.23185448
0.23192523
0.23202589
0.23205687
0.2317767
0.23052723
0.22659816
0.21601038
0.19198376
0.20333952
0.20792752
0.20951012
0.20992266
0.20991614
0.20980657
0.20972295
0.20967027
0.20964425
0.20964423
0.20967024
0.2097229
0.20980652
0.20991608
0.2099226
0.20951006
0.20792745
0.20333947
0.19198373
0.16840924
0.18055198
0.18593924
0.18797086
0.18856864
0.18860657
0.18848925
0.18838722
0.18832895
0.188299
0.18829899
0.18832892
0.18838717
0.18848921
0.18860653
0.18856859
0.18797082
0.18593918
0.18055195
0.16840925
0.14498153
0.15798843
0.16435816
0.16698732
0.16785322
0.1679715
0.16785073
0.16772533
0.16765372
0.1676172
0.16761718
0.16765369
0.16772529
0.16785069
0.16797146
0.16785318
0.16698729
0.16435812
0.15798843
0.14498159
0.12086244
0.13503
0.14267556
0.14613183
0.14739897
0.14764152
0.14754222
0.14739357
0.14730018
0.14725457
0.14725456
0.14730015
0.14739353
0.14754219
0.14764149
0.14739895
0.14613182
0.14267555
0.13503004
0.12086255
0.092433465
0.10933231
0.11905828
0.12377581
0.12573371
0.12626454
0.12620497
0.12606557
0.12595938
0.12591218
0.12591217
0.12595936
0.12606554
0.12620495
0.12626452
0.1257337
0.12377582
0.11905831
0.10933242
0.092433737
0.046405321
0.068517316
0.08322054
0.090203332
0.094067856
0.095244197
0.095541489
0.095634763
0.095678212
0.095709458
0.095709453
0.095678214
0.095634763
0.095541515
0.09524424
0.094067917
0.090203426
0.0832207
0.068517654
0.046405791
0.0092560977
0.016301
0.025143808
0.030349461
0.035278143
0.036909668
0.037605893
0.037910527
0.038111522
0.03820122
0.038201218
0.038111524
0.03791053
0.037605913
0.036909697
0.035278185
0.030349503
0.025143886
0.016301094
0.0092562015
0
0
0.0012296834
0.0042239276
0.006557118
0.007719158
0.0081745838
0.0083232375
0.0083854416
0.0084014356
0.0084014312
0.0083854331
0.0083232246
0.0081745731
0.0077191471
0.0065571092
0.0042239252
0.0012296941
0
0
0
0
0
0
0
0
0
0
0
0
0
0
0
0
0
0
0
0
0
0
0
0
0
0
0
0
0
0
0
0
0
0
0
0
0
0
0
0
0
0
0
0
0
0
0
0
0
0
0
0
0
0
0
0
0
0
0
0
0
0
0
0
0
0
0
0
0
0
0
0
0
0
0
0
0
0
0
0
0
0
0
0
0
0
0
0
0
0
0
0
0
0
0
0
0
0
0
0
0
0
0
0
0
0
0
0
0
0
0
0
0
0
0
0
0
0
0
0
0
0
0
0
0
0
0
0
0
0
0
0
0
0
0
0
0
0
0
0
0
0
0
0
0
0
0
0
0
0
0
0
0
0
0
0
0
0
0
0
0
0
0
0
0
0
0
0
0
0
0
0
0
0
0
0
0
0
0
0
0
0
0
0
0
0
0
0
0
0
0
0
0
0
0
0
0
0
0
0
0
0
0
0
0
0
0
0
0
0
0
0
0
0
0
0
0
0
0
0
0
0
0
0
0
0
0
0
0
0
0
0
0
0
0
0
0
0
0
0
0
0
0
0
0
0
0
0
0
0
0
0
0
0
0
0
0
0
0
0
0
0
0
0
0
0
0
0
0
0
0
0
0
0
0
0
0
0
0
0
0
0
)
;

boundaryField
{
    Wall
    {
        type            zeroGradient;
    }
    frontAndBack
    {
        type            empty;
    }
    atmosphere
    {
        type            zeroGradient;
    }
}


// ************************************************************************* //
