/*--------------------------------*- C++ -*----------------------------------*\
| =========                 |                                                 |
| \\      /  F ield         | OpenFOAM: The Open Source CFD Toolbox           |
|  \\    /   O peration     | Version:  3.0.1                                 |
|   \\  /    A nd           | Web:      www.OpenFOAM.org                      |
|    \\/     M anipulation  |                                                 |
\*---------------------------------------------------------------------------*/
FoamFile
{
    version     2.0;
    format      ascii;
    class       volScalarField;
    location    "30";
    object      g1_CO2;
}
// * * * * * * * * * * * * * * * * * * * * * * * * * * * * * * * * * * * * * //

dimensions      [0 0 0 0 0 0 0];

internalField   nonuniform List<scalar> 
800
(
0.48277954
0.48282691
0.48283945
0.48284156
0.48284186
0.48284199
0.48284217
0.48284237
0.48284252
0.4828426
0.48284261
0.48284252
0.48284237
0.48284217
0.48284199
0.48284186
0.48284156
0.48283945
0.48282691
0.48277954
0.49980208
0.4996152
0.4996325
0.49965124
0.49965835
0.49965787
0.49965431
0.49965037
0.49964736
0.49964578
0.49964578
0.49964736
0.49965036
0.4996543
0.49965787
0.49965834
0.49965122
0.49963248
0.49961518
0.49980204
0.51618067
0.51582971
0.51583716
0.51586665
0.51587892
0.51587885
0.51587341
0.51586716
0.51586231
0.51585972
0.51585972
0.5158623
0.51586715
0.5158734
0.51587883
0.5158789
0.51586663
0.51583713
0.51582966
0.51618058
0.53284256
0.53222868
0.53221528
0.53225582
0.53227385
0.53227605
0.53227058
0.53226361
0.53225795
0.53225489
0.53225489
0.53225795
0.5322636
0.53227056
0.53227603
0.53227382
0.53225579
0.53221523
0.53222862
0.53284246
0.55081324
0.54979193
0.54972371
0.54976011
0.54978154
0.54978658
0.54978211
0.5497755
0.54976978
0.54976665
0.54976665
0.54976978
0.54977549
0.5497821
0.54978656
0.54978152
0.54976008
0.54972366
0.54979186
0.55081313
0.57128891
0.56964487
0.56947128
0.56947758
0.56949729
0.56950415
0.56950085
0.56949507
0.56948966
0.56948667
0.56948667
0.56948966
0.56949507
0.56950085
0.56950413
0.56949727
0.56947755
0.56947123
0.5696448
0.5712888
0.59564164
0.59306955
0.5927218
0.59267022
0.59268123
0.59268755
0.59268474
0.59267963
0.59267449
0.59267166
0.59267166
0.5926745
0.59267963
0.59268474
0.59268755
0.59268121
0.5926702
0.59272176
0.59306949
0.59564155
0.62470448
0.6209325
0.62033264
0.62020011
0.6201992
0.62020283
0.6201992
0.62019386
0.6201885
0.62018558
0.62018558
0.62018851
0.62019388
0.62019922
0.62020284
0.6201992
0.6202001
0.62033262
0.62093246
0.6247044
0.65965384
0.65435586
0.65337092
0.65313839
0.65311359
0.65311248
0.65310535
0.65309786
0.65309131
0.6530878
0.6530878
0.65309133
0.65309789
0.65310538
0.6531125
0.65311361
0.6531384
0.65337092
0.65435584
0.65965379
0.70112654
0.69403596
0.69252433
0.69217699
0.69210699
0.69209072
0.69207539
0.69206267
0.69205353
0.69204867
0.69204868
0.69205356
0.6920627
0.69207543
0.69209076
0.69210703
0.69217702
0.69252436
0.69403597
0.70112654
0.74983399
0.74068556
0.73849319
0.7380193
0.73786701
0.73780856
0.7377773
0.73775475
0.73774142
0.73773424
0.73773425
0.73774146
0.7377548
0.73777737
0.73780863
0.73786707
0.73801937
0.73849325
0.74068562
0.74983403
0.80663075
0.79521435
0.79219054
0.79157819
0.79127691
0.79114305
0.79108438
0.79104478
0.79102694
0.79101593
0.79101595
0.79102698
0.79104484
0.79108446
0.79114314
0.791277
0.79157829
0.79219064
0.79521445
0.80663086
0.8721828
0.85844369
0.85450283
0.85372033
0.85319106
0.85296293
0.85286108
0.85279184
0.85275393
0.85273552
0.85273554
0.85275398
0.85279191
0.85286117
0.85296304
0.85319118
0.85372047
0.85450297
0.85844385
0.87218298
0.94671499
0.9308643
0.92605613
0.9250374
0.92423568
0.92391597
0.92374884
0.92362974
0.92350724
0.92348014
0.92348015
0.92350729
0.92362982
0.92374894
0.92391609
0.92423582
0.92503757
0.92605631
0.93086451
0.94671522
1.0293118
1.0120122
1.0065466
1.0052244
1.0041792
1.0037787
1.0035066
1.0033286
1.0030158
1.0029815
1.0029816
1.0030158
1.0033286
1.0035067
1.0037788
1.0041794
1.0052246
1.0065468
1.0120125
1.0293121
1.1482187
1.130846
1.1254122
1.1240418
1.123101
1.1226285
1.1219657
1.1216415
1.1210208
1.1210144
1.1210144
1.1210208
1.1216416
1.1219658
1.1226286
1.1231012
1.124042
1.1254125
1.1308462
1.148219
1.2456802
1.2301953
1.2252301
1.2240356
1.2231551
1.222334
1.2211007
1.2206512
1.2196571
1.2197663
1.2197663
1.2196571
1.2206513
1.2211008
1.2223341
1.2231553
1.2240358
1.2252303
1.2301956
1.2456804
1.3453604
1.3341318
1.330423
1.3299646
1.3294989
1.3279775
1.3259509
1.3253255
1.3237036
1.3240138
1.3240138
1.3237036
1.3253255
1.3259509
1.3279776
1.329499
1.3299647
1.3304231
1.334132
1.3453605
1.443147
1.4394256
1.4382433
1.4392515
1.4393409
1.4369282
1.4341177
1.4332725
1.4307402
1.431305
1.431305
1.4307401
1.4332724
1.4341177
1.4369282
1.439341
1.4392516
1.4382433
1.4394257
1.4431469
1.5317586
1.5405154
1.5439465
1.5473891
1.5476293
1.5447117
1.5413915
1.5402939
1.5369719
1.5377842
1.5377842
1.5369718
1.5402938
1.5413914
1.5447117
1.5476292
1.5473891
1.5439465
1.5405154
1.5317585
1.5999582
1.6279905
1.6397358
1.6461471
1.6470791
1.6443503
1.6409296
1.6395427
1.6363819
1.6373606
1.6373605
1.6363818
1.6395426
1.6409294
1.6443502
1.647079
1.6461471
1.6397357
1.6279905
1.5999583
1.6329831
1.6863848
1.711976
1.7239984
1.7285322
1.7246995
1.7211949
1.7194063
1.717569
1.7185547
1.7185547
1.7175689
1.7194062
1.7211948
1.7246994
1.7285322
1.7239984
1.711976
1.6863849
1.6329835
1.6051308
1.6949878
1.7438083
1.763486
1.7763
1.7727607
1.7657374
1.7632905
1.7631564
1.7639048
1.7639048
1.7631563
1.7632904
1.7657373
1.7727607
1.7763
1.7634861
1.7438085
1.6949884
1.6051323
1.4319377
1.6000065
1.692512
1.7299445
1.753442
1.7523709
1.746184
1.7429734
1.7439971
1.7443021
1.7443021
1.7439971
1.7429734
1.7461842
1.7523711
1.7534422
1.7299448
1.6925127
1.6000082
1.4319411
1.0313004
1.2600123
1.4080069
1.4943714
1.5350459
1.5566398
1.5554229
1.5520251
1.5534845
1.5534542
1.5534541
1.5534846
1.5520252
1.5554232
1.5566402
1.5350464
1.494372
1.408008
1.2600145
1.0313041
0
0
0.9045762
1.0061276
1.0882013
1.1203833
1.1223817
1.1189567
1.1195909
1.1191426
1.1191426
1.1195909
1.1189568
1.122382
1.1203836
1.0882017
1.0061282
0.90457739
0
0
0
0
0
0
0
0
0
0
0
0
0
0
0
0
0
0
0
0
0
0
0
0
0
0
0
0
0
0
0
0
0
0
0
0
0
0
0
0
0
0
0
0
0
0
0
0
0
0
0
0
0
0
0
0
0
0
0
0
0
0
0
0
0
0
0
0
0
0
0
0
0
0
0
0
0
0
0
0
0
0
0
0
0
0
0
0
0
0
0
0
0
0
0
0
0
0
0
0
0
0
0
0
0
0
0
0
0
0
0
0
0
0
0
0
0
0
0
0
0
0
0
0
0
0
0
0
0
0
0
0
0
0
0
0
0
0
0
0
0
0
0
0
0
0
0
0
0
0
0
0
0
0
0
0
0
0
0
0
0
0
0
0
0
0
0
0
0
0
0
0
0
0
0
0
0
0
0
0
0
0
0
0
0
0
0
0
0
0
0
0
0
0
0
0
0
0
0
0
0
0
0
0
0
0
0
0
0
0
0
0
0
0
0
0
0
0
0
0
0
0
0
0
0
0
0
0
0
0
0
0
0
0
0
0
0
0
0
0
0
0
0
0
0
0
0
0
0
0
0
0
0
0
0
0
0
0
0
0
0
0
0
0
0
0
0
0
0
0
0
0
0
0
0
0
0
0
0
0
0
0
)
;

boundaryField
{
    Wall
    {
        type            zeroGradient;
    }
    frontAndBack
    {
        type            empty;
    }
    atmosphere
    {
        type            zeroGradient;
    }
}


// ************************************************************************* //
