/*--------------------------------*- C++ -*----------------------------------*\
| =========                 |                                                 |
| \\      /  F ield         | OpenFOAM: The Open Source CFD Toolbox           |
|  \\    /   O peration     | Version:  3.0.1                                 |
|   \\  /    A nd           | Web:      www.OpenFOAM.org                      |
|    \\/     M anipulation  |                                                 |
\*---------------------------------------------------------------------------*/
FoamFile
{
    version     2.0;
    format      ascii;
    class       volScalarField;
    location    "30";
    object      M0;
}
// * * * * * * * * * * * * * * * * * * * * * * * * * * * * * * * * * * * * * //

dimensions      [0 0 0 0 0 0 0];

internalField   nonuniform List<scalar> 
800
(
5.9027268e+11
5.9022018e+11
5.9021137e+11
5.9021065e+11
5.9021084e+11
5.9021099e+11
5.9021101e+11
5.9021097e+11
5.9021092e+11
5.902109e+11
5.902109e+11
5.9021092e+11
5.9021097e+11
5.9021101e+11
5.9021099e+11
5.9021084e+11
5.9021064e+11
5.9021136e+11
5.9022018e+11
5.9027268e+11
5.974749e+11
5.9695324e+11
5.9683149e+11
5.9680652e+11
5.9680663e+11
5.9681124e+11
5.9681517e+11
5.9681759e+11
5.9681886e+11
5.9681939e+11
5.9681939e+11
5.9681886e+11
5.968176e+11
5.9681517e+11
5.9681125e+11
5.9680664e+11
5.9680653e+11
5.968315e+11
5.9695326e+11
5.9747494e+11
6.0132747e+11
6.0058721e+11
6.0036701e+11
6.0032252e+11
6.0032017e+11
6.003258e+11
6.0033075e+11
6.0033367e+11
6.003351e+11
6.0033565e+11
6.0033565e+11
6.003351e+11
6.0033368e+11
6.0033076e+11
6.0032581e+11
6.0032018e+11
6.0032253e+11
6.0036704e+11
6.0058724e+11
6.0132753e+11
6.0143796e+11
6.0065494e+11
6.003791e+11
6.0032793e+11
6.0032617e+11
6.0033233e+11
6.0033703e+11
6.0033932e+11
6.0034014e+11
6.0034033e+11
6.0034033e+11
6.0034014e+11
6.0033932e+11
6.0033704e+11
6.0033233e+11
6.0032618e+11
6.0032794e+11
6.0037911e+11
6.0065497e+11
6.01438e+11
5.9756295e+11
5.9692208e+11
5.9663704e+11
5.9658805e+11
5.9659092e+11
5.9659809e+11
5.9660205e+11
5.9660305e+11
5.9660279e+11
5.9660238e+11
5.9660238e+11
5.9660279e+11
5.9660305e+11
5.9660205e+11
5.9659809e+11
5.9659092e+11
5.9658805e+11
5.9663704e+11
5.9692209e+11
5.9756297e+11
5.8970385e+11
5.8937684e+11
5.8912832e+11
5.8908818e+11
5.8909959e+11
5.8910863e+11
5.8911172e+11
5.8911116e+11
5.8910957e+11
5.8910844e+11
5.8910843e+11
5.8910956e+11
5.8911115e+11
5.8911171e+11
5.8910862e+11
5.8909957e+11
5.8908816e+11
5.891283e+11
5.8937682e+11
5.8970384e+11
5.7813375e+11
5.7825167e+11
5.7808591e+11
5.7806045e+11
5.7808328e+11
5.7809495e+11
5.7809729e+11
5.7809515e+11
5.780922e+11
5.7809032e+11
5.7809031e+11
5.7809219e+11
5.7809513e+11
5.7809727e+11
5.7809493e+11
5.7808324e+11
5.7806041e+11
5.7808587e+11
5.7825163e+11
5.7813371e+11
5.6336983e+11
5.6401339e+11
5.6397759e+11
5.6397219e+11
5.6400751e+11
5.6402222e+11
5.6402401e+11
5.6402049e+11
5.6401631e+11
5.6401376e+11
5.6401375e+11
5.6401629e+11
5.6402046e+11
5.6402398e+11
5.6402217e+11
5.6400746e+11
5.6397214e+11
5.6397752e+11
5.6401332e+11
5.6336977e+11
5.4608155e+11
5.4726865e+11
5.4740689e+11
5.4742663e+11
5.4747098e+11
5.4748844e+11
5.4749002e+11
5.474855e+11
5.4748032e+11
5.4747724e+11
5.4747723e+11
5.474803e+11
5.4748547e+11
5.4748998e+11
5.4748839e+11
5.4747092e+11
5.4742656e+11
5.4740681e+11
5.4726857e+11
5.4608146e+11
5.270474e+11
5.2873407e+11
5.2908244e+11
5.2913209e+11
5.2917653e+11
5.291931e+11
5.29195e+11
5.2919e+11
5.2918409e+11
5.2918062e+11
5.2918061e+11
5.2918407e+11
5.2918997e+11
5.2919495e+11
5.2919304e+11
5.2917646e+11
5.29132e+11
5.2908235e+11
5.2873397e+11
5.2704731e+11
5.0704707e+11
5.0913846e+11
5.0971913e+11
5.0980366e+11
5.0983374e+11
5.0984099e+11
5.0984403e+11
5.0983918e+11
5.0983278e+11
5.0982905e+11
5.0982904e+11
5.0983276e+11
5.0983914e+11
5.0984398e+11
5.0984093e+11
5.0983366e+11
5.0980357e+11
5.0971903e+11
5.0913836e+11
5.0704697e+11
4.8680103e+11
4.8917003e+11
4.8997995e+11
4.9010626e+11
4.9010428e+11
4.9009077e+11
4.9009592e+11
4.9009197e+11
4.9008512e+11
4.9008125e+11
4.9008124e+11
4.9008509e+11
4.9009193e+11
4.9009587e+11
4.9009071e+11
4.9010421e+11
4.9010617e+11
4.8997985e+11
4.8916993e+11
4.8680094e+11
4.6695155e+11
4.694603e+11
4.7046176e+11
4.70644e+11
4.7059158e+11
4.7054672e+11
4.7055493e+11
4.705529e+11
4.7054248e+11
4.7053881e+11
4.705388e+11
4.7054246e+11
4.7055287e+11
4.7055488e+11
4.7054666e+11
4.7059152e+11
4.7064393e+11
4.7046168e+11
4.6946021e+11
4.6695147e+11
4.4806416e+11
4.5057347e+11
4.517006e+11
4.519565e+11
4.5183723e+11
4.517551e+11
4.5176713e+11
4.517682e+11
4.5174919e+11
4.51746e+11
4.5174599e+11
4.5174917e+11
4.5176817e+11
4.5176709e+11
4.5175505e+11
4.5183717e+11
4.5195643e+11
4.5170052e+11
4.505734e+11
4.4806409e+11
4.3056111e+11
4.3293286e+11
4.3411185e+11
4.3444874e+11
4.3425245e+11
4.3413437e+11
4.341528e+11
4.3416132e+11
4.3412883e+11
4.3411956e+11
4.3411955e+11
4.3412882e+11
4.3416129e+11
4.3415276e+11
4.3413432e+11
4.342524e+11
4.3444869e+11
4.3411178e+11
4.329328e+11
4.3056106e+11
4.1366198e+11
4.1575907e+11
4.1691273e+11
4.1730915e+11
4.1703363e+11
4.1689257e+11
4.1693443e+11
4.1695582e+11
4.1690654e+11
4.168731e+11
4.168731e+11
4.1690653e+11
4.169558e+11
4.169344e+11
4.1689253e+11
4.170336e+11
4.1730911e+11
4.1691268e+11
4.1575902e+11
4.1366194e+11
3.9870463e+11
4.0037647e+11
4.0145579e+11
4.0188106e+11
4.0153125e+11
4.0139678e+11
4.0148095e+11
4.0151436e+11
4.0144617e+11
4.0136434e+11
4.0136433e+11
4.0144617e+11
4.0151434e+11
4.0148094e+11
4.0139676e+11
4.0153123e+11
4.0188103e+11
4.0145576e+11
4.0037644e+11
3.9870462e+11
3.8601483e+11
3.8711895e+11
3.8810086e+11
3.8853612e+11
3.8810392e+11
3.8801125e+11
3.8814718e+11
3.8818829e+11
3.8811077e+11
3.8796085e+11
3.8796085e+11
3.8811077e+11
3.8818828e+11
3.8814717e+11
3.8801124e+11
3.881039e+11
3.8853611e+11
3.8810084e+11
3.8711893e+11
3.8601484e+11
3.7598663e+11
3.7637342e+11
3.7725491e+11
3.7771671e+11
3.7719366e+11
3.7716424e+11
3.7734147e+11
3.773837e+11
3.7730567e+11
3.7707874e+11
3.7707874e+11
3.7730567e+11
3.773837e+11
3.7734147e+11
3.7716424e+11
3.7719366e+11
3.7771671e+11
3.7725491e+11
3.7637343e+11
3.7598666e+11
3.6917297e+11
3.6865325e+11
3.6944504e+11
3.6998781e+11
3.693885e+11
3.6940624e+11
3.6959695e+11
3.696315e+11
3.6953868e+11
3.6923587e+11
3.6923586e+11
3.6953868e+11
3.696315e+11
3.6959695e+11
3.6940624e+11
3.6938851e+11
3.6998783e+11
3.6944505e+11
3.6865327e+11
3.6917301e+11
3.6640662e+11
3.6473906e+11
3.6543875e+11
3.6616632e+11
3.6550965e+11
3.6554111e+11
3.6571103e+11
3.6572568e+11
3.6555284e+11
3.651798e+11
3.651798e+11
3.6555284e+11
3.6572567e+11
3.6571104e+11
3.6554112e+11
3.6550966e+11
3.6616634e+11
3.6543877e+11
3.6473909e+11
3.6640667e+11
3.6897811e+11
3.6587386e+11
3.664987e+11
3.6753435e+11
3.6682087e+11
3.6686422e+11
3.66987e+11
3.6696359e+11
3.666199e+11
3.6617885e+11
3.6617885e+11
3.666199e+11
3.6696359e+11
3.66987e+11
3.6686424e+11
3.6682089e+11
3.6753438e+11
3.6649872e+11
3.6587389e+11
3.6897815e+11
3.7916835e+11
3.7413888e+11
3.7473458e+11
3.7626917e+11
3.7553756e+11
3.7557366e+11
3.756106e+11
3.7552165e+11
3.7492599e+11
3.7440648e+11
3.7440648e+11
3.7492598e+11
3.7552164e+11
3.756106e+11
3.7557367e+11
3.7553758e+11
3.762692e+11
3.747346e+11
3.741389e+11
3.7916836e+11
4.0066084e+11
3.9306883e+11
3.9390139e+11
3.9621829e+11
3.9581638e+11
3.9564208e+11
3.9547186e+11
3.9527157e+11
3.9434839e+11
3.9371419e+11
3.9371419e+11
3.9434838e+11
3.9527155e+11
3.9547186e+11
3.9564209e+11
3.958164e+11
3.9621832e+11
3.9390141e+11
3.9306884e+11
4.0066085e+11
4.3657368e+11
4.273862e+11
4.2932039e+11
4.3374632e+11
4.3416041e+11
4.338178e+11
4.3346143e+11
4.3308081e+11
4.3172717e+11
4.3089886e+11
4.3089885e+11
4.3172716e+11
4.3308079e+11
4.3346142e+11
4.3381781e+11
4.3416042e+11
4.3374634e+11
4.2932041e+11
4.2738624e+11
4.3657375e+11
4.7976934e+11
4.8118174e+11
4.8919619e+11
5.0099656e+11
5.0255789e+11
5.0375467e+11
5.035621e+11
5.0284473e+11
5.0080181e+11
4.9957835e+11
4.9957832e+11
5.0080177e+11
5.0284468e+11
5.0356208e+11
5.0375467e+11
5.0255789e+11
5.0099659e+11
4.8919623e+11
4.8118183e+11
4.7976956e+11
4.9091822e+11
5.1798152e+11
5.4642811e+11
5.7280775e+11
5.8681686e+11
5.9318008e+11
5.9434e+11
5.9324197e+11
5.9013789e+11
5.8820489e+11
5.8820484e+11
5.9013781e+11
5.9324187e+11
5.9433993e+11
5.9318004e+11
5.8681682e+11
5.7280776e+11
5.4642819e+11
5.1798177e+11
4.9091888e+11
4.4024246e+11
5.2317132e+11
5.7943672e+11
6.2601925e+11
6.5681181e+11
6.7325159e+11
6.7837274e+11
6.7753131e+11
6.7330194e+11
6.7040131e+11
6.7040124e+11
6.7330181e+11
6.7753115e+11
6.7837264e+11
6.7325152e+11
6.5681178e+11
6.2601929e+11
5.7943691e+11
5.2317183e+11
4.4024413e+11
3.0219145e+11
4.8972828e+11
5.8589329e+11
6.5636924e+11
7.0602218e+11
7.3486831e+11
7.4596898e+11
7.46094e+11
7.4076579e+11
7.3665756e+11
7.3665745e+11
7.4076559e+11
7.4609377e+11
7.4596882e+11
7.3486819e+11
7.0602212e+11
6.5636929e+11
5.8589358e+11
4.8972903e+11
3.0219429e+11
1.3479417e+11
4.1625199e+11
5.637319e+11
6.6233877e+11
7.3073609e+11
7.7185653e+11
7.8886276e+11
7.8986286e+11
7.8322582e+11
7.7766087e+11
7.7766072e+11
7.8322555e+11
7.8986255e+11
7.8886253e+11
7.7185634e+11
7.3073597e+11
6.6233879e+11
5.6373218e+11
4.1625271e+11
1.3479675e+11
3.8813284e+10
3.1483191e+11
5.130847e+11
6.4232323e+11
7.287515e+11
7.8012334e+11
8.0143749e+11
8.0237201e+11
7.9396479e+11
7.8672616e+11
7.8672598e+11
7.9396446e+11
8.0237163e+11
8.014372e+11
7.801231e+11
7.2875131e+11
6.4232319e+11
5.1308488e+11
3.1483257e+11
3.8814376e+10
8.3639561e+09
2.1041967e+11
4.3925503e+11
5.9656016e+11
6.9928372e+11
7.585577e+11
7.8221217e+11
7.820784e+11
7.7161169e+11
7.6270986e+11
7.6270964e+11
7.7161128e+11
7.8207795e+11
7.8221181e+11
7.585574e+11
6.9928346e+11
5.9656002e+11
4.3925512e+11
2.1042025e+11
8.364244e+09
1.5242187e+09
1.2569178e+11
3.5288203e+11
5.2882875e+11
6.4415095e+11
7.0887693e+11
7.3336902e+11
7.3177624e+11
7.1953169e+11
7.0936492e+11
7.0936466e+11
7.1953121e+11
7.3177571e+11
7.333686e+11
7.0887656e+11
6.4415062e+11
5.2882853e+11
3.5288206e+11
1.2569222e+11
1.5242773e+09
2.5274701e+08
6.8686133e+10
2.6654821e+11
4.4670174e+11
5.6863082e+11
6.3609083e+11
6.6051883e+11
6.5783175e+11
6.4469491e+11
6.3400766e+11
6.3400738e+11
6.4469438e+11
6.5783115e+11
6.6051833e+11
6.3609041e+11
5.6863044e+11
4.4670148e+11
2.6654821e+11
6.8686433e+10
2.5275726e+08
39792880
3.5153392e+10
1.9029693e+11
3.5977042e+11
4.8086515e+11
5.4803564e+11
5.7185354e+11
5.6889748e+11
5.5604717e+11
5.4570849e+11
5.457082e+11
5.5604661e+11
5.6889682e+11
5.71853e+11
5.4803518e+11
4.8086475e+11
3.5977015e+11
1.9029693e+11
3.5153569e+10
39794523
6099400.2
1.7146317e+10
1.2926382e+11
2.769409e+11
3.8999911e+11
4.5383534e+11
4.7658999e+11
4.741848e+11
4.6268566e+11
4.5343443e+11
4.5343414e+11
4.6268509e+11
4.7418412e+11
4.7658942e+11
4.5383487e+11
3.8999873e+11
2.7694067e+11
1.2926383e+11
1.7146411e+10
6099648.7
926019.05
8.0644356e+09
8.4118434e+10
2.0452863e+11
3.0410291e+11
3.6198773e+11
3.8316811e+11
3.8181836e+11
3.7234386e+11
3.646306e+11
3.6463032e+11
3.723433e+11
3.8181769e+11
3.8316756e+11
3.6198729e+11
3.0410257e+11
2.0452846e+11
8.4118453e+10
8.0644828e+09
926055.34
140704.46
3.6824494e+09
5.2738828e+10
1.4549443e+11
2.2867025e+11
2.7883444e+11
2.9793879e+11
2.9775703e+11
2.9052289e+11
2.8448486e+11
2.8448461e+11
2.9052238e+11
2.9775641e+11
2.9793828e+11
2.7883404e+11
2.2866998e+11
1.4549431e+11
5.2738853e+10
3.6824721e+09
140709.42
21699.473
1.6386929e+09
3.1998928e+10
1.0006801e+11
1.6634808e+11
2.0801826e+11
2.246586e+11
2.2545874e+11
2.2031585e+11
2.1584662e+11
2.1584641e+11
2.203154e+11
2.2545819e+11
2.2465814e+11
2.0801793e+11
1.6634787e+11
1.0006795e+11
3.1998953e+10
1.6387033e+09
21699.822
3593.9742
7.1220007e+08
1.8851364e+10
6.6756604e+10
1.1741686e+11
1.507131e+11
1.6469746e+11
1.6614828e+11
1.6273722e+11
1.5959157e+11
1.595914e+11
1.6273685e+11
1.6614782e+11
1.6469708e+11
1.5071283e+11
1.1741672e+11
6.6756571e+10
1.8851386e+10
7.1220477e+08
3593.7846
)
;

boundaryField
{
    Wall
    {
        type            zeroGradient;
    }
    frontAndBack
    {
        type            empty;
    }
    atmosphere
    {
        type            zeroGradient;
    }
}


// ************************************************************************* //
