/*--------------------------------*- C++ -*----------------------------------*\
| =========                 |                                                 |
| \\      /  F ield         | OpenFOAM: The Open Source CFD Toolbox           |
|  \\    /   O peration     | Version:  3.0.1                                 |
|   \\  /    A nd           | Web:      www.OpenFOAM.org                      |
|    \\/     M anipulation  |                                                 |
\*---------------------------------------------------------------------------*/
FoamFile
{
    version     2.0;
    format      ascii;
    class       volScalarField;
    location    "30";
    object      M1;
}
// * * * * * * * * * * * * * * * * * * * * * * * * * * * * * * * * * * * * * //

dimensions      [0 0 0 0 0 0 0];

internalField   nonuniform List<scalar> 
800
(
0.94097273
0.94097798
0.94097886
0.94097893
0.94097892
0.9409789
0.9409789
0.9409789
0.94097891
0.94097891
0.94097891
0.94097891
0.9409789
0.9409789
0.9409789
0.94097892
0.94097894
0.94097886
0.94097798
0.94097273
0.94025251
0.94030468
0.94031685
0.94031935
0.94031934
0.94031888
0.94031848
0.94031824
0.94031811
0.94031806
0.94031806
0.94031811
0.94031824
0.94031848
0.94031888
0.94031934
0.94031935
0.94031685
0.94030467
0.94025251
0.93943637
0.93952303
0.93955037
0.93955652
0.93955716
0.93955658
0.93955597
0.93955556
0.93955534
0.93955524
0.93955524
0.93955534
0.93955556
0.93955597
0.93955658
0.93955716
0.93955652
0.93955036
0.93952303
0.93943637
0.93862157
0.93873683
0.9387784
0.9387879
0.93878916
0.9387885
0.93878771
0.93878717
0.93878688
0.93878675
0.93878675
0.93878687
0.93878717
0.9387877
0.9387885
0.93878915
0.9387879
0.9387784
0.93873683
0.93862156
0.93788793
0.93802334
0.93807691
0.93808945
0.938091
0.93809015
0.93808916
0.93808849
0.93808813
0.93808798
0.93808798
0.93808813
0.93808849
0.93808915
0.93809015
0.93809099
0.93808945
0.9380769
0.93802333
0.93788792
0.93729199
0.93743766
0.93750048
0.93751583
0.93751723
0.93751601
0.93751474
0.93751392
0.93751347
0.93751329
0.93751329
0.93751347
0.93751391
0.93751474
0.937516
0.93751723
0.93751582
0.93750048
0.93743765
0.93729198
0.9368629
0.93701115
0.9370797
0.9370975
0.93709831
0.93709649
0.93709485
0.93709381
0.93709326
0.93709303
0.93709303
0.93709326
0.93709381
0.93709484
0.93709649
0.9370983
0.93709749
0.9370797
0.93701114
0.93686289
0.93660267
0.93674963
0.9368197
0.93683948
0.93683933
0.9368367
0.93683456
0.93683324
0.93683254
0.93683225
0.93683225
0.93683254
0.93683324
0.93683456
0.93683669
0.93683932
0.93683948
0.9368197
0.93674963
0.93660267
0.93649207
0.93663971
0.93670702
0.9367283
0.93672728
0.93672367
0.93672093
0.93671925
0.93671836
0.93671798
0.93671798
0.93671836
0.93671925
0.93672093
0.93672367
0.93672728
0.9367283
0.93670702
0.9366397
0.93649207
0.93649087
0.93664811
0.93670909
0.93673147
0.93673044
0.93672612
0.93672266
0.93672055
0.93671941
0.93671893
0.93671893
0.93671941
0.93672054
0.93672266
0.93672612
0.93673044
0.93673147
0.93670909
0.93664811
0.93649087
0.93654616
0.93672908
0.93678196
0.9368052
0.93680593
0.93680194
0.93679764
0.93679501
0.93679359
0.93679297
0.93679297
0.93679359
0.93679501
0.93679764
0.93680194
0.93680593
0.9368052
0.93678196
0.93672908
0.93654615
0.93659702
0.93682813
0.93687502
0.93689897
0.9369041
0.93690208
0.93689681
0.93689358
0.93689181
0.93689103
0.93689103
0.93689181
0.93689357
0.93689681
0.93690207
0.9369041
0.93689897
0.93687502
0.93682813
0.93659702
0.93657544
0.9368824
0.93693158
0.93695565
0.93696846
0.9369702
0.93696381
0.93695984
0.93695811
0.93695709
0.93695709
0.93695811
0.93695984
0.93696381
0.9369702
0.93696846
0.93695565
0.93693158
0.9368824
0.93657544
0.9364044
0.93682054
0.93688701
0.93691081
0.9369351
0.93694196
0.93693426
0.93692938
0.9369284
0.93692704
0.93692704
0.9369284
0.93692938
0.93693426
0.93694196
0.93693509
0.93691081
0.93688701
0.93682054
0.9364044
0.93600916
0.93657481
0.93667894
0.93670481
0.93674434
0.93675683
0.93674724
0.93674068
0.93674132
0.93674047
0.93674047
0.93674132
0.93674067
0.93674724
0.93675682
0.93674433
0.9367048
0.93667893
0.93657481
0.93600915
0.93548751
0.93624901
0.93641673
0.93645336
0.93651173
0.93652866
0.93651422
0.93650482
0.93650784
0.93651033
0.93651033
0.93650784
0.93650481
0.93651421
0.93652866
0.93651172
0.93645335
0.93641672
0.93624901
0.93548751
0.93459979
0.93561986
0.93588134
0.93594299
0.93602418
0.93604169
0.93601859
0.93600586
0.93601185
0.93602188
0.93602188
0.93601185
0.93600586
0.93601858
0.93604169
0.93602418
0.93594298
0.93588134
0.93561985
0.93459978
0.93321353
0.93457242
0.93496481
0.93506985
0.9351824
0.93519559
0.935161
0.93514473
0.93515216
0.93517371
0.9351737
0.93515216
0.93514472
0.93516099
0.93519559
0.93518239
0.93506984
0.9349648
0.93457241
0.93321352
0.93113859
0.93294602
0.93351952
0.93368922
0.93384613
0.93385271
0.93380685
0.93378681
0.93379384
0.93382939
0.93382939
0.93379384
0.93378681
0.93380684
0.93385271
0.93384612
0.93368921
0.93351951
0.93294601
0.93113858
0.92808395
0.93050219
0.9313307
0.93159329
0.93181112
0.93181719
0.93176351
0.93173933
0.93174756
0.93179785
0.93179785
0.93174756
0.93173933
0.9317635
0.93181718
0.93181111
0.93159328
0.93133069
0.93050218
0.92808394
0.92358065
0.92685963
0.9280654
0.9284639
0.92877123
0.92879037
0.92873427
0.92870538
0.92872586
0.92879039
0.92879039
0.92872586
0.92870537
0.92873426
0.92879036
0.92877122
0.92846389
0.92806539
0.92685962
0.92358065
0.9168336
0.92137768
0.92316511
0.92378265
0.92423599
0.92428537
0.92423199
0.92419756
0.92424702
0.92432504
0.92432503
0.92424701
0.92419755
0.92423198
0.92428536
0.92423598
0.92378264
0.9231651
0.92137768
0.91683362
0.90634862
0.91290492
0.91564488
0.91664312
0.91734127
0.91745988
0.91742261
0.91738122
0.91747444
0.91756604
0.91756604
0.91747443
0.91738121
0.9174226
0.91745987
0.91734126
0.91664311
0.91564488
0.91290493
0.90634867
0.88922944
0.89924046
0.90362885
0.90535959
0.90643833
0.90675904
0.90677949
0.906728
0.90687514
0.90698246
0.90698246
0.90687514
0.90672799
0.90677948
0.90675903
0.90643832
0.90535959
0.90362885
0.8992405
0.88922955
0.86019517
0.87620661
0.88370545
0.88674831
0.88857526
0.88929244
0.88940428
0.88933341
0.88953889
0.88966555
0.88966555
0.88953889
0.8893334
0.88940427
0.88929244
0.88857525
0.88674831
0.88370547
0.8762067
0.86019539
0.80974615
0.83506673
0.84861226
0.85379817
0.85756569
0.85876445
0.85900259
0.85890783
0.8591837
0.85934213
0.85934213
0.8591837
0.85890783
0.8590026
0.85876446
0.8575657
0.85379819
0.84861233
0.83506695
0.80974669
0.72776128
0.77229229
0.79532645
0.80523123
0.81046404
0.81244133
0.81286787
0.81268774
0.81299047
0.8131615
0.8131615
0.81299049
0.81268776
0.8128679
0.81244136
0.81046409
0.8052313
0.79532661
0.77229276
0.72776247
0.58510677
0.68152324
0.72330159
0.74207458
0.7511716
0.75445493
0.75492562
0.75435237
0.75438159
0.75440335
0.75440335
0.75438162
0.75435241
0.75492567
0.75445498
0.75117166
0.74207472
0.72330187
0.68152397
0.58510917
0.36497394
0.55906311
0.63264276
0.66554703
0.68051294
0.68592804
0.68626575
0.68475513
0.68394558
0.68349223
0.68349224
0.68394564
0.68475521
0.68626583
0.68592812
0.68051303
0.66554724
0.63264318
0.55906409
0.36497749
0.14936915
0.41367579
0.52623499
0.57763072
0.60075983
0.60875681
0.60896234
0.60607463
0.60385323
0.6025501
0.60255012
0.6038533
0.60607474
0.60896245
0.60875692
0.60075994
0.57763094
0.52623543
0.41367667
0.14937207
0.039709493
0.27069845
0.41272173
0.48275551
0.51500953
0.52633641
0.52663175
0.52239732
0.51857991
0.51625428
0.5162543
0.51857998
0.52239744
0.52663185
0.52633652
0.51500962
0.48275569
0.41272209
0.27069921
0.039710626
0.0079298714
0.15616646
0.30382754
0.3869441
0.42720681
0.44199332
0.44284504
0.43777465
0.43267908
0.42947442
0.42947444
0.43267914
0.43777475
0.44284512
0.44199341
0.42720686
0.38694421
0.30382779
0.15616703
0.0079301488
0.0013406584
0.080690339
0.21005442
0.29679474
0.34193645
0.3595147
0.36131007
0.35612464
0.35041476
0.34672255
0.34672257
0.35041479
0.3561247
0.36131012
0.35951474
0.34193646
0.29679479
0.21005458
0.08069071
0.001340711
0.00020613547
0.038340959
0.1370825
0.21784676
0.26369435
0.28275028
0.28559528
0.28097146
0.27538194
0.27167288
0.27167288
0.27538194
0.28097147
0.28559529
0.28275028
0.26369431
0.21784676
0.13708261
0.038341169
0.00020614404
3.0056024e-05
0.017180337
0.085090224
0.15331707
0.1959392
0.21490845
0.21860714
0.21498708
0.21008869
0.20675177
0.20675176
0.21008867
0.21498706
0.21860712
0.21490842
0.19593914
0.15331704
0.08509029
0.017180443
3.0057303e-05
4.2602904e-06
0.0073919396
0.050634015
0.10379717
0.14047989
0.15797535
0.16214522
0.15965992
0.15575258
0.15301188
0.15301186
0.15575254
0.15965987
0.16214518
0.15797531
0.14047983
0.10379714
0.050634057
0.0073919887
4.2604705e-06
5.974313e-07
0.0030902588
0.029099097
0.067881655
0.097427152
0.11250952
0.11671227
0.11524986
0.11237877
0.11029352
0.11029351
0.11237872
0.1152498
0.11671221
0.11250947
0.097427098
0.06788163
0.029099124
0.0030902803
5.9745572e-07
8.372279e-08
0.0012634784
0.016238185
0.043049127
0.065547097
0.077812502
0.081690749
0.081010959
0.079051163
0.077564539
0.07756452
0.079051117
0.081010898
0.081690694
0.077812452
0.065547057
0.043049112
0.016238204
0.0012634875
8.3725996e-08
1.1797932e-08
0.00050685521
0.0088331397
0.026564451
0.042902704
0.05239028
0.055722369
0.055559807
0.054310766
0.053308605
0.053308587
0.054310724
0.055559753
0.055722319
0.05239024
0.042902677
0.026564444
0.008833152
0.0005068589
1.1798294e-08
1.6983363e-09
0.0001998147
0.0046962775
0.01599371
0.027390019
0.034420643
0.037120204
0.037248171
0.036503693
0.035860648
0.035860633
0.036503659
0.037248126
0.037120164
0.034420614
0.027390004
0.015993709
0.0046962857
0.00019981618
1.6983406e-09
)
;

boundaryField
{
    Wall
    {
        type            zeroGradient;
    }
    frontAndBack
    {
        type            empty;
    }
    atmosphere
    {
        type            zeroGradient;
    }
}


// ************************************************************************* //
