/*--------------------------------*- C++ -*----------------------------------*\
| =========                 |                                                 |
| \\      /  F ield         | OpenFOAM: The Open Source CFD Toolbox           |
|  \\    /   O peration     | Version:  3.0.1                                 |
|   \\  /    A nd           | Web:      www.OpenFOAM.org                      |
|    \\/     M anipulation  |                                                 |
\*---------------------------------------------------------------------------*/
FoamFile
{
    version     2.0;
    format      ascii;
    class       volScalarField;
    location    "30";
    object      mOne;
}
// * * * * * * * * * * * * * * * * * * * * * * * * * * * * * * * * * * * * * //

dimensions      [0 0 0 0 0 0 0];

internalField   nonuniform List<scalar> 
800
(
15.941323
15.94283
15.943083
15.943103
15.943098
15.943093
15.943093
15.943094
15.943095
15.943096
15.943096
15.943095
15.943094
15.943093
15.943094
15.943098
15.943103
15.943083
15.94283
15.941323
15.737105
15.751731
15.755148
15.755849
15.755846
15.755717
15.755606
15.755538
15.755503
15.755488
15.755488
15.755503
15.755538
15.755606
15.755716
15.755846
15.755849
15.755148
15.75173
15.737104
15.511561
15.53522
15.542697
15.544383
15.544558
15.544399
15.54423
15.544118
15.544058
15.544032
15.544032
15.544058
15.544118
15.54423
15.544399
15.544558
15.544382
15.542696
15.535219
15.511559
15.292368
15.323022
15.334105
15.33664
15.336974
15.336799
15.336587
15.336444
15.336366
15.336333
15.336333
15.336366
15.336444
15.336587
15.336798
15.336974
15.336639
15.334103
15.32302
15.292365
15.09993
15.135105
15.149064
15.152337
15.152739
15.152519
15.152259
15.152086
15.151991
15.151952
15.151952
15.151991
15.152086
15.152259
15.152518
15.152738
15.152336
15.149062
15.135104
15.099927
14.946926
14.984057
15.000123
15.004053
15.004412
15.004098
15.003774
15.003563
15.003449
15.003402
15.003402
15.003449
15.003563
15.003773
15.004098
15.004411
15.004052
15.000122
14.984055
14.946923
14.838548
14.875826
14.893123
14.897618
14.897824
14.897364
14.896949
14.896687
14.896547
14.89649
14.89649
14.896547
14.896687
14.896948
14.897363
14.897823
14.897617
14.893122
14.875824
14.838545
14.773536
14.810185
14.82772
14.832676
14.832637
14.831977
14.831443
14.831112
14.830936
14.830864
14.830864
14.830936
14.831112
14.831442
14.831977
14.832636
14.832675
14.827719
14.810183
14.773534
14.746065
14.782755
14.799541
14.804855
14.8046
14.803698
14.803013
14.802594
14.802371
14.802277
14.802277
14.802371
14.802594
14.803013
14.803697
14.804599
14.804855
14.79954
14.782755
14.746064
14.745767
14.784848
14.800058
14.805647
14.805389
14.804311
14.803446
14.802918
14.802635
14.802514
14.802514
14.802635
14.802917
14.803446
14.80431
14.805388
14.805646
14.800057
14.784848
14.745766
14.759487
14.80505
14.81827
14.824086
14.82427
14.823271
14.822195
14.821535
14.82118
14.821026
14.821026
14.82118
14.821535
14.822194
14.82327
14.82427
14.824086
14.81827
14.805049
14.759486
14.77213
14.829831
14.841589
14.847603
14.84889
14.848382
14.84706
14.846247
14.845805
14.845609
14.845609
14.845805
14.846247
14.84706
14.848381
14.848889
14.847603
14.841589
14.829831
14.77213
14.766764
14.843441
14.855796
14.861849
14.865074
14.865511
14.863904
14.862904
14.862468
14.862213
14.862213
14.862468
14.862904
14.863903
14.86551
14.865074
14.861849
14.855795
14.843441
14.766763
14.724359
14.82793
14.8446
14.850577
14.85668
14.858405
14.85647
14.855243
14.854998
14.854654
14.854654
14.854997
14.855242
14.85647
14.858405
14.85668
14.850576
14.844599
14.827929
14.724358
14.627236
14.766607
14.792533
14.798988
14.808861
14.811983
14.809588
14.807946
14.808107
14.807895
14.807895
14.808107
14.807946
14.809587
14.811982
14.808861
14.798988
14.792533
14.766606
14.627235
14.500875
14.686032
14.727407
14.736473
14.75094
14.755142
14.751559
14.749226
14.749977
14.750594
14.750594
14.749977
14.749225
14.751558
14.755141
14.750939
14.736472
14.727406
14.686031
14.500874
14.290471
14.53274
14.596085
14.611093
14.630906
14.635186
14.629539
14.626432
14.627893
14.630343
14.630343
14.627893
14.626431
14.629538
14.635185
14.630905
14.611092
14.596084
14.532739
14.290469
13.973094
14.284074
14.37629
14.401166
14.427909
14.431049
14.422816
14.418947
14.420715
14.425839
14.425839
14.420714
14.418946
14.422815
14.431048
14.427907
14.401164
14.376288
14.284072
13.973091
13.521923
13.913357
14.042009
14.080505
14.116274
14.117778
14.107303
14.102731
14.104335
14.112449
14.112449
14.104334
14.10273
14.107301
14.117776
14.116272
14.080503
14.042007
13.913355
13.52192
12.905102
13.388944
13.562548
13.61845
13.665149
13.666454
13.654915
13.649725
13.651492
13.662294
13.662293
13.651491
13.649723
13.654913
13.666452
13.665147
13.618448
13.562546
13.388941
12.9051
12.085692
12.672339
12.901516
12.978957
13.039271
13.043044
13.03199
13.026304
13.030335
13.043048
13.043048
13.030334
13.026302
13.031988
13.043042
13.039269
12.978955
12.901514
12.672338
12.085692
11.024087
11.719035
12.014921
12.120372
12.198879
12.207486
12.198181
12.192187
12.2008
12.21441
12.21441
12.2008
12.192185
12.19818
12.207485
12.198877
12.12037
12.014919
11.719034
11.024089
9.6778987
10.481705
10.854645
10.99661
11.097935
11.11532
11.109853
11.103786
11.117457
11.130923
11.130922
11.117457
11.103785
11.109851
11.115318
11.097934
10.996608
10.854645
10.481706
9.6779044
8.0276696
8.9246188
9.3765494
9.5663114
9.6881371
9.7249
9.7272526
9.7213312
9.7382713
9.7506605
9.7506602
9.7382709
9.7213304
9.7272518
9.7248991
9.6881362
9.5663107
9.3765498
8.9246225
8.0276785
6.1528286
7.0779758
7.5988549
7.8298901
7.9746674
8.0328071
8.041941
8.0361506
8.0529602
8.0633523
8.0633522
8.0529599
8.0361501
8.0419407
8.0328067
7.9746671
7.82989
7.5988564
7.0779815
6.1528402
4.2561355
5.0630582
5.6055549
5.8398596
6.0207801
6.0803705
6.0923289
6.0875654
6.1014504
6.1094494
6.1094493
6.1014504
6.0875653
6.0923293
6.0803708
6.0207806
5.8398604
5.6055578
5.0630664
4.2561504
2.6732467
3.3915948
3.8858291
4.1342934
4.2760436
4.331665
4.3438177
4.3386787
4.3473212
4.352216
4.3522161
4.3473215
4.3386793
4.3438185
4.331666
4.276045
4.1342953
3.8858331
3.3916039
2.6732628
1.4102586
2.1399465
2.6140432
2.8770898
3.0188338
3.0725721
3.0803939
3.0708718
3.0713561
3.0717167
3.0717168
3.0713565
3.0708725
3.0803947
3.072573
3.0188348
2.8770919
2.6140468
2.1399538
1.4102726
0.57473852
1.2678983
1.7221459
1.989957
2.1300172
2.1839837
2.187411
2.1721373
2.1640121
2.1594801
2.1594802
2.1640127
2.1721381
2.1874118
2.1839845
2.1300182
1.9899589
1.722149
1.2679033
0.57474732
0.17559808
0.70554102
1.1107511
1.3675964
1.504758
1.555955
1.5572985
1.5385519
1.5243169
1.5160404
1.5160405
1.5243174
1.5385526
1.5572991
1.5559558
1.5047587
1.3675977
1.110753
0.7055436
0.17560212
0.041351542
0.37117493
0.70277031
0.93332171
1.0618962
1.111203
1.1125202
1.0937906
1.0771879
1.0672018
1.0672019
1.0771882
1.0937911
1.1125207
1.1112035
1.0618966
0.93332238
0.70277135
0.37117635
0.041352771
0.0079932569
0.18506785
0.43642569
0.63117263
0.74583081
0.79209325
0.79483282
0.77864624
0.76267078
0.75276979
0.75276986
0.76267096
0.77864656
0.79483306
0.79209352
0.74583096
0.63117293
0.43642621
0.18506865
0.0079935388
0.0013424582
0.087772752
0.26590999
0.4220599
0.51961008
0.56131608
0.56570496
0.55309562
0.53944385
0.53074319
0.53074321
0.53944393
0.55309576
0.56570509
0.56131619
0.51961009
0.42205999
0.26591025
0.087773191
0.0013425109
0.00020617797
0.039869597
0.15885934
0.27852184
0.35813163
0.39421455
0.39976678
0.39076537
0.38003736
0.37300943
0.37300943
0.38003737
0.3907654
0.39976681
0.39421456
0.35813157
0.27852183
0.15885948
0.039869824
0.00020618655
3.0056927e-05
0.017480661
0.093003951
0.18107968
0.24368704
0.2737368
0.27976599
0.27386438
0.26596491
0.26063943
0.26063942
0.26596488
0.27386434
0.27976595
0.27373675
0.24368695
0.18107964
0.09300403
0.01748077
3.0058207e-05
4.2603086e-06
0.0074469873
0.053334558
0.11581884
0.16343992
0.18761369
0.19352425
0.18999442
0.18448689
0.1806541
0.18065408
0.18448684
0.18999435
0.19352419
0.18761363
0.16343983
0.1158188
0.053334605
0.0074470371
4.2604887e-06
5.9743165e-07
0.0030998381
0.029971233
0.072825147
0.10794381
0.12677266
0.13213392
0.13026261
0.12660667
0.12396619
0.12396617
0.12660661
0.13026253
0.13213385
0.12677259
0.10794374
0.072825118
0.029971262
0.0030998597
5.9745607e-07
8.3722797e-08
0.0012650768
0.016506216
0.044985723
0.070144891
0.084378179
0.088957776
0.088152258
0.08583665
0.084086684
0.084086662
0.085836595
0.088152186
0.088957711
0.084378121
0.070144845
0.044985706
0.016506235
0.0012650859
8.3726003e-08
1.1797932e-08
0.00050711225
0.0089118594
0.027289379
0.044825854
0.05528677
0.059010578
0.058828296
0.057429824
0.056310435
0.056310416
0.057429777
0.058828235
0.059010522
0.055286725
0.044825825
0.027289371
0.0089118719
0.00050711594
1.1798294e-08
1.6983364e-09
0.00019985463
0.0047184366
0.016253666
0.028161359
0.035647659
0.038551234
0.038689275
0.037886698
0.037194466
0.03719445
0.03788666
0.038689227
0.038551191
0.035647627
0.028161343
0.016253666
0.0047184449
0.00019985611
1.6983406e-09
)
;

boundaryField
{
    Wall
    {
        type            zeroGradient;
    }
    frontAndBack
    {
        type            empty;
    }
    atmosphere
    {
        type            zeroGradient;
    }
}


// ************************************************************************* //
