/*--------------------------------*- C++ -*----------------------------------*\
| =========                 |                                                 |
| \\      /  F ield         | OpenFOAM: The Open Source CFD Toolbox           |
|  \\    /   O peration     | Version:  3.0.1                                 |
|   \\  /    A nd           | Web:      www.OpenFOAM.org                      |
|    \\/     M anipulation  |                                                 |
\*---------------------------------------------------------------------------*/
FoamFile
{
    version     2.0;
    format      ascii;
    class       volScalarField;
    location    "30";
    object      mThree;
}
// * * * * * * * * * * * * * * * * * * * * * * * * * * * * * * * * * * * * * //

dimensions      [0 0 0 0 0 0 0];

internalField   nonuniform List<scalar> 
800
(
4.0244364e-23
4.0255872e-23
4.0257808e-23
4.0257972e-23
4.0257934e-23
4.0257906e-23
4.0257905e-23
4.0257916e-23
4.0257927e-23
4.0257932e-23
4.0257933e-23
4.0257927e-23
4.0257916e-23
4.0257906e-23
4.0257907e-23
4.0257935e-23
4.0257973e-23
4.025781e-23
4.0255873e-23
4.0244365e-23
3.8725633e-23
3.8833529e-23
3.8858788e-23
3.8863981e-23
3.886397e-23
3.886302e-23
3.886221e-23
3.8861709e-23
3.8861447e-23
3.8861337e-23
3.8861338e-23
3.8861447e-23
3.8861708e-23
3.8862208e-23
3.8863019e-23
3.8863968e-23
3.8863979e-23
3.8858786e-23
3.8833525e-23
3.8725624e-23
3.7621193e-23
3.7778498e-23
3.7826644e-23
3.7836854e-23
3.7837633e-23
3.7836493e-23
3.783541e-23
3.7834738e-23
3.7834394e-23
3.7834255e-23
3.7834255e-23
3.7834393e-23
3.7834736e-23
3.7835408e-23
3.7836491e-23
3.783763e-23
3.783685e-23
3.7826639e-23
3.7778491e-23
3.762118e-23
3.7015708e-23
3.7195918e-23
3.7260469e-23
3.7273744e-23
3.7274871e-23
3.7273625e-23
3.7272465e-23
3.7271792e-23
3.7271477e-23
3.7271363e-23
3.7271363e-23
3.7271476e-23
3.727179e-23
3.7272463e-23
3.7273623e-23
3.7274867e-23
3.727374e-23
3.7260464e-23
3.719591e-23
3.7015694e-23
3.6978354e-23
3.7154587e-23
3.7228827e-23
3.7243999e-23
3.7244737e-23
3.7243226e-23
3.7242018e-23
3.7241418e-23
3.7241192e-23
3.7241136e-23
3.7241136e-23
3.7241192e-23
3.7241416e-23
3.7242017e-23
3.7243224e-23
3.7244735e-23
3.7243996e-23
3.7228823e-23
3.7154581e-23
3.6978343e-23
3.7562383e-23
3.7707557e-23
3.7784941e-23
3.7801285e-23
3.7800796e-23
3.7798736e-23
3.7797423e-23
3.7796906e-23
3.7796795e-23
3.7796811e-23
3.7796811e-23
3.7796795e-23
3.7796906e-23
3.7797423e-23
3.7798735e-23
3.7800795e-23
3.7801284e-23
3.7784939e-23
3.7707554e-23
3.7562376e-23
3.8813376e-23
3.8901324e-23
3.897381e-23
3.8990611e-23
3.8988011e-23
3.8985041e-23
3.8983504e-23
3.8983034e-23
3.898303e-23
3.8983121e-23
3.8983122e-23
3.8983031e-23
3.8983035e-23
3.8983506e-23
3.8985043e-23
3.8988012e-23
3.8990613e-23
3.8973812e-23
3.8901325e-23
3.8813375e-23
4.0775218e-23
4.0783208e-23
4.0840223e-23
4.0856597e-23
4.0851066e-23
4.0846779e-23
4.0844836e-23
4.0844324e-23
4.0844393e-23
4.0844542e-23
4.0844543e-23
4.0844394e-23
4.0844326e-23
4.0844839e-23
4.0846783e-23
4.085107e-23
4.0856603e-23
4.0840229e-23
4.0783214e-23
4.0775222e-23
4.3472771e-23
4.338463e-23
4.3412612e-23
4.3427384e-23
4.3419252e-23
4.3413244e-23
4.3410621e-23
4.3409905e-23
4.3409972e-23
4.3410145e-23
4.3410147e-23
4.3409975e-23
4.3409909e-23
4.3410626e-23
4.3413251e-23
4.341926e-23
4.3427394e-23
4.3412623e-23
4.3384641e-23
4.347278e-23
4.6909712e-23
4.6721254e-23
4.6703525e-23
4.6715138e-23
4.6706892e-23
4.6699966e-23
4.6696213e-23
4.6695023e-23
4.6694968e-23
4.6695105e-23
4.6695107e-23
4.6694971e-23
4.6695029e-23
4.6696221e-23
4.6699976e-23
4.6706903e-23
4.6715152e-23
4.670354e-23
4.672127e-23
4.6909726e-23
5.1062036e-23
5.0787097e-23
5.0706243e-23
5.0712714e-23
5.0710174e-23
5.070557e-23
5.0699964e-23
5.0697871e-23
5.0697512e-23
5.0697522e-23
5.0697524e-23
5.0697516e-23
5.0697878e-23
5.0699974e-23
5.0705582e-23
5.0710188e-23
5.0712731e-23
5.0706262e-23
5.0787116e-23
5.1062053e-23
5.5873458e-23
5.554673e-23
5.5392174e-23
5.5390755e-23
5.5403432e-23
5.540673e-23
5.5398174e-23
5.5394504e-23
5.5393617e-23
5.5393354e-23
5.5393357e-23
5.5393622e-23
5.5394512e-23
5.5398185e-23
5.5406745e-23
5.5403449e-23
5.5390775e-23
5.5392195e-23
5.5546753e-23
5.5873479e-23
6.1247986e-23
6.0925109e-23
6.0704347e-23
6.0689201e-23
6.072981e-23
6.0747474e-23
6.0734397e-23
6.0728006e-23
6.0728097e-23
6.0727215e-23
6.0727217e-23
6.0728102e-23
6.0728014e-23
6.0734409e-23
6.074749e-23
6.0729828e-23
6.0689223e-23
6.0704371e-23
6.0925134e-23
6.1248009e-23
6.7035329e-23
6.6797776e-23
6.654378e-23
6.6508268e-23
6.6591692e-23
6.6629061e-23
6.660932e-23
6.6598444e-23
6.6602289e-23
6.6600241e-23
6.6600244e-23
6.6602294e-23
6.6598452e-23
6.6609331e-23
6.6629077e-23
6.659171e-23
6.650829e-23
6.6543804e-23
6.6797802e-23
6.7035353e-23
7.2964376e-23
7.2933365e-23
7.2702954e-23
7.2645174e-23
7.2786595e-23
7.2846107e-23
7.281593e-23
7.2799524e-23
7.2809841e-23
7.2810212e-23
7.2810214e-23
7.2809845e-23
7.2799531e-23
7.2815941e-23
7.2846121e-23
7.2786612e-23
7.2645195e-23
7.2702977e-23
7.2933389e-23
7.2964396e-23
7.8533426e-23
7.8880305e-23
7.8745574e-23
7.8679361e-23
7.8890697e-23
7.8969052e-23
7.891816e-23
7.8895262e-23
7.8915578e-23
7.8930617e-23
7.8930619e-23
7.8915581e-23
7.8895267e-23
7.8918167e-23
7.8969063e-23
7.8890711e-23
7.8679378e-23
7.8745593e-23
7.8880325e-23
7.8533439e-23
8.3267324e-23
8.4200807e-23
8.4240761e-23
8.4199723e-23
8.4495027e-23
8.4576171e-23
8.4487951e-23
8.4456731e-23
8.4489967e-23
8.4538519e-23
8.453852e-23
8.4489968e-23
8.4456733e-23
8.4487954e-23
8.4576177e-23
8.4495035e-23
8.4199733e-23
8.4240773e-23
8.4200818e-23
8.3267326e-23
8.6666701e-23
8.8405277e-23
8.8703203e-23
8.8730687e-23
8.9134545e-23
8.9193871e-23
8.9056188e-23
8.9014838e-23
8.905418e-23
8.9154094e-23
8.9154094e-23
8.9054179e-23
8.9014836e-23
8.9056186e-23
8.919387e-23
8.9134545e-23
8.8730689e-23
8.8703206e-23
8.8405277e-23
8.6666691e-23
8.8172674e-23
9.0933416e-23
9.1578027e-23
9.171057e-23
9.2248509e-23
9.2269533e-23
9.208612e-23
9.2034393e-23
9.2070327e-23
9.2230811e-23
9.223081e-23
9.2070323e-23
9.2034387e-23
9.2086112e-23
9.2269526e-23
9.2248501e-23
9.1710563e-23
9.1578019e-23
9.0933405e-23
8.8172655e-23
8.7150885e-23
9.1136952e-23
9.2223113e-23
9.2489421e-23
9.3167926e-23
9.3167061e-23
9.2959352e-23
9.2899592e-23
9.2937479e-23
9.3155469e-23
9.3155467e-23
9.2937473e-23
9.2899583e-23
9.295934e-23
9.3167048e-23
9.3167911e-23
9.2489406e-23
9.2223097e-23
9.1136933e-23
8.7150864e-23
8.2951767e-23
8.8295963e-23
8.9937091e-23
9.0354531e-23
9.1178614e-23
9.1193822e-23
9.0992572e-23
9.0929857e-23
9.1009154e-23
9.1270248e-23
9.1270247e-23
9.1009148e-23
9.0929847e-23
9.0992558e-23
9.1193806e-23
9.1178595e-23
9.0354511e-23
8.9937071e-23
8.8295944e-23
8.2951755e-23
7.5074862e-23
8.1734132e-23
8.4020934e-23
8.4635645e-23
8.5631239e-23
8.5681173e-23
8.551168e-23
8.5452944e-23
8.5615853e-23
8.5898009e-23
8.5898007e-23
8.5615848e-23
8.5452935e-23
8.5511666e-23
8.5681157e-23
8.563122e-23
8.4635626e-23
8.4020916e-23
8.1734122e-23
7.5074873e-23
6.3329646e-23
7.105125e-23
7.4015787e-23
7.4882101e-23
7.605925e-23
7.6186664e-23
7.6064979e-23
7.6016861e-23
7.6265871e-23
7.6543808e-23
7.6543807e-23
7.6265867e-23
7.6016854e-23
7.6064969e-23
7.618665e-23
7.6059234e-23
7.4882086e-23
7.4015777e-23
7.1051257e-23
6.3329686e-23
4.8336903e-23
5.6513284e-23
6.0009035e-23
6.1197087e-23
6.2445396e-23
6.2754232e-23
6.2733241e-23
6.2699971e-23
6.2991209e-23
6.3240308e-23
6.3240307e-23
6.2991207e-23
6.2699967e-23
6.2733234e-23
6.2754223e-23
6.2445385e-23
6.1197078e-23
6.0009035e-23
5.651331e-23
4.8336966e-23
3.2408131e-23
3.9843853e-23
4.3498486e-23
4.486621e-23
4.6108595e-23
4.6592846e-23
4.6651117e-23
4.6629252e-23
4.6893782e-23
4.7091369e-23
4.7091368e-23
4.6893781e-23
4.6629249e-23
4.6651114e-23
4.659284e-23
4.6108589e-23
4.4866205e-23
4.3498493e-23
3.9843886e-23
3.2408198e-23
1.8731805e-23
2.3779892e-23
2.6945319e-23
2.8036301e-23
2.9372977e-23
2.978133e-23
2.9859052e-23
2.9850148e-23
3.0037511e-23
3.0171807e-23
3.0171807e-23
3.0037511e-23
2.9850147e-23
2.9859053e-23
2.9781328e-23
2.9372977e-23
2.8036302e-23
2.6945332e-23
2.3779933e-23
1.8731876e-23
1.0016529e-23
1.3369588e-23
1.5448996e-23
1.6305588e-23
1.6998513e-23
1.7279349e-23
1.7350155e-23
1.7347549e-23
1.7462143e-23
1.7544389e-23
1.754439e-23
1.7462144e-23
1.7347552e-23
1.7350157e-23
1.7279352e-23
1.6998518e-23
1.6305594e-23
1.5449012e-23
1.3369626e-23
1.0016593e-23
4.5806588e-24
7.1677709e-24
8.7007866e-24
9.3941905e-24
9.8345457e-24
1.0011444e-23
1.0046364e-23
1.0030166e-23
1.0085916e-23
1.012941e-23
1.012941e-23
1.0085918e-23
1.0030169e-23
1.0046366e-23
1.0011446e-23
9.8345479e-24
9.3941972e-24
8.7007987e-24
7.1677958e-24
4.5807062e-24
1.6396075e-24
3.6267039e-24
4.8313612e-24
5.4195791e-24
5.7174405e-24
5.8311913e-24
5.8337066e-24
5.800049e-24
5.8131089e-24
5.8291246e-24
5.8291251e-24
5.8131109e-24
5.8000518e-24
5.8337088e-24
5.8311933e-24
5.717443e-24
5.4195847e-24
4.8313706e-24
3.6267187e-24
1.6396333e-24
4.4399806e-25
1.7150425e-24
2.6267611e-24
3.1167112e-24
3.3472833e-24
3.4178595e-24
3.4052169e-24
3.3642272e-24
3.3535604e-24
3.3531991e-24
3.3531996e-24
3.3535619e-24
3.3642294e-24
3.4052186e-24
3.4178615e-24
3.3472851e-24
3.1167147e-24
2.6267663e-24
1.7150491e-24
4.4400852e-25
9.3123791e-26
7.6119843e-25
1.3954057e-24
1.7798444e-24
1.9647466e-24
2.018334e-24
2.003675e-24
1.9664328e-24
1.9478352e-24
1.9405593e-24
1.9405596e-24
1.9478362e-24
1.9664344e-24
2.0036762e-24
2.0183354e-24
1.9647477e-24
1.7798463e-24
1.3954083e-24
7.6120171e-25
9.3126622e-26
1.6061997e-26
3.1800056e-25
7.2365481e-25
1.0052193e-24
1.1497138e-24
1.1943015e-24
1.1845517e-24
1.1563423e-24
1.1385761e-24
1.1300879e-24
1.1300881e-24
1.1385767e-24
1.1563432e-24
1.1845524e-24
1.1943024e-24
1.1497145e-24
1.0052202e-24
7.2365604e-25
3.1800217e-25
1.6062578e-26
2.4037788e-27
1.2577312e-25
3.6640211e-25
5.6002397e-25
6.6766212e-25
7.0445871e-25
7.0040212e-25
6.814709e-25
6.6779643e-25
6.6061736e-25
6.6061749e-25
6.6779673e-25
6.8147142e-25
7.0040257e-25
7.0445919e-25
6.6766245e-25
5.6002438e-25
3.664027e-25
1.2577387e-25
2.4038761e-27
3.2791146e-28
4.7524472e-26
1.8130829e-25
3.0734719e-25
3.8363941e-25
4.12612e-25
4.1252738e-25
4.0099166e-25
3.916905e-25
3.8647092e-25
3.8647099e-25
3.9169066e-25
4.0099192e-25
4.1252764e-25
4.1261225e-25
3.8363956e-25
3.0734737e-25
1.8130859e-25
4.7524797e-26
3.2792562e-28
4.2291655e-29
1.7321954e-26
8.7806785e-26
1.6605537e-25
2.1771693e-25
2.3935042e-25
2.4127898e-25
2.3485063e-25
2.2904562e-25
2.2559194e-25
2.2559198e-25
2.2904569e-25
2.3485075e-25
2.4127911e-25
2.3935054e-25
2.17717e-25
1.6605545e-25
8.7806934e-26
1.7322085e-26
4.2293541e-29
5.2810208e-30
6.1386518e-27
4.1670853e-26
8.8296124e-26
1.2189593e-25
1.3727757e-25
1.3983693e-25
1.3656497e-25
1.3318014e-25
1.3104466e-25
1.3104468e-25
1.3318017e-25
1.3656502e-25
1.39837e-25
1.3727762e-25
1.2189595e-25
8.8296156e-26
4.1670928e-26
6.1387019e-27
5.2812565e-30
6.4987541e-31
2.1295448e-27
1.941687e-26
4.6223896e-26
6.7306874e-26
7.7771955e-26
8.0185573e-26
7.8696144e-26
7.6836671e-26
7.5585205e-26
7.5585211e-26
7.683668e-26
7.869616e-26
8.0185597e-26
7.7771974e-26
6.7306876e-26
4.6223909e-26
1.9416907e-26
2.1295629e-27
6.499037e-31
7.963858e-32
7.2620344e-28
8.8922826e-27
2.3826034e-26
3.6639668e-26
4.3491108e-26
4.5444297e-26
4.4876772e-26
4.3912307e-26
4.3211613e-26
4.3211614e-26
4.3912307e-26
4.4876774e-26
4.5444303e-26
4.3491112e-26
3.6639666e-26
2.382604e-26
8.8923007e-27
7.2620975e-28
7.9641897e-32
9.7635657e-33
2.4398762e-28
4.0058333e-27
1.209358e-26
1.9660726e-26
2.3996668e-26
2.5436622e-26
2.5299004e-26
2.4828414e-26
2.4451836e-26
2.4451836e-26
2.4828412e-26
2.5299001e-26
2.5436621e-26
2.3996667e-26
1.9660723e-26
1.2093583e-26
4.0058421e-27
2.4398976e-28
9.7639433e-33
1.2013749e-33
8.0858473e-29
1.7760747e-27
6.0454199e-27
1.0398582e-26
1.3060746e-26
1.4055029e-26
1.4089045e-26
1.3875308e-26
1.3680709e-26
1.3680709e-26
1.3875305e-26
1.4089041e-26
1.4055026e-26
1.3060744e-26
1.0398581e-26
6.0454219e-27
1.776079e-27
8.0859181e-29
1.2014133e-33
)
;

boundaryField
{
    Wall
    {
        type            zeroGradient;
    }
    frontAndBack
    {
        type            empty;
    }
    atmosphere
    {
        type            zeroGradient;
    }
}


// ************************************************************************* //
