/*--------------------------------*- C++ -*----------------------------------*\
| =========                 |                                                 |
| \\      /  F ield         | OpenFOAM: The Open Source CFD Toolbox           |
|  \\    /   O peration     | Version:  3.0.1                                 |
|   \\  /    A nd           | Web:      www.OpenFOAM.org                      |
|    \\/     M anipulation  |                                                 |
\*---------------------------------------------------------------------------*/
FoamFile
{
    version     2.0;
    format      ascii;
    class       volScalarField;
    location    "30";
    object      mTwo;
}
// * * * * * * * * * * * * * * * * * * * * * * * * * * * * * * * * * * * * * //

dimensions      [0 0 0 0 0 0 0];

internalField   nonuniform List<scalar> 
800
(
2.5389013e-11
2.5393813e-11
2.5394618e-11
2.5394684e-11
2.5394666e-11
2.5394653e-11
2.5394651e-11
2.5394655e-11
2.5394659e-11
2.5394661e-11
2.5394661e-11
2.5394659e-11
2.5394655e-11
2.5394651e-11
2.5394653e-11
2.5394667e-11
2.5394685e-11
2.5394619e-11
2.5393813e-11
2.5389014e-11
2.4745776e-11
2.4791511e-11
2.4802219e-11
2.4804418e-11
2.4804409e-11
2.4804001e-11
2.4803653e-11
2.4803439e-11
2.4803326e-11
2.4803279e-11
2.4803279e-11
2.4803326e-11
2.4803438e-11
2.4803653e-11
2.4804e-11
2.4804408e-11
2.4804417e-11
2.4802218e-11
2.4791509e-11
2.4745773e-11
2.4214438e-11
2.4283208e-11
2.4304427e-11
2.430901e-11
2.4309393e-11
2.4308899e-11
2.4308416e-11
2.4308111e-11
2.4307951e-11
2.4307886e-11
2.4307886e-11
2.4307951e-11
2.430811e-11
2.4308415e-11
2.4308898e-11
2.4309391e-11
2.4309008e-11
2.4304425e-11
2.4283205e-11
2.4214431e-11
2.3847157e-11
2.3928775e-11
2.3958048e-11
2.3964278e-11
2.3964896e-11
2.3964356e-11
2.3963814e-11
2.3963484e-11
2.3963319e-11
2.3963256e-11
2.3963256e-11
2.3963319e-11
2.3963483e-11
2.3963813e-11
2.3964354e-11
2.3964894e-11
2.3964276e-11
2.3958045e-11
2.3928771e-11
2.384715e-11
2.3682642e-11
2.3766357e-11
2.3800887e-11
2.3808283e-11
2.3808831e-11
2.3808171e-11
2.3807578e-11
2.3807247e-11
2.3807098e-11
2.3807048e-11
2.3807048e-11
2.3807098e-11
2.3807246e-11
2.3807577e-11
2.380817e-11
2.3808829e-11
2.3808281e-11
2.3800885e-11
2.3766353e-11
2.3682636e-11
2.3745056e-11
2.3820186e-11
2.3857217e-11
2.3865464e-11
2.3865589e-11
2.3864686e-11
2.386401e-11
2.3863676e-11
2.3863548e-11
2.3863514e-11
2.3863514e-11
2.3863547e-11
2.3863675e-11
2.3864009e-11
2.3864685e-11
2.3865588e-11
2.3865462e-11
2.3857216e-11
2.3820184e-11
2.3745052e-11
2.4045983e-11
2.4103381e-11
2.4139714e-11
2.4148502e-11
2.4147858e-11
2.4146562e-11
2.4145745e-11
2.4145383e-11
2.4145266e-11
2.4145246e-11
2.4145246e-11
2.4145266e-11
2.4145383e-11
2.4145745e-11
2.4146561e-11
2.4147858e-11
2.4148501e-11
2.4139713e-11
2.4103381e-11
2.404598e-11
2.4586429e-11
2.461952e-11
2.4651271e-11
2.4660249e-11
2.4658544e-11
2.4656698e-11
2.4655662e-11
2.4655229e-11
2.46551e-11
2.4655083e-11
2.4655083e-11
2.46551e-11
2.4655229e-11
2.4655663e-11
2.4656699e-11
2.4658545e-11
2.466025e-11
2.4651272e-11
2.4619521e-11
2.4586429e-11
2.5355547e-11
2.5361714e-11
2.5384428e-11
2.5393192e-11
2.5390572e-11
2.5388038e-11
2.5386679e-11
2.5386107e-11
2.5385932e-11
2.53859e-11
2.5385901e-11
2.5385932e-11
2.5386107e-11
2.5386681e-11
2.5388039e-11
2.5390573e-11
2.5393194e-11
2.5384431e-11
2.5361717e-11
2.5355549e-11
2.6329963e-11
2.6312119e-11
2.6321043e-11
2.632915e-11
2.6326494e-11
2.6323554e-11
2.6321728e-11
2.6320922e-11
2.6320654e-11
2.6320584e-11
2.6320585e-11
2.6320655e-11
2.6320924e-11
2.632173e-11
2.6323557e-11
2.6326497e-11
2.6329153e-11
2.6321046e-11
2.6312123e-11
2.6329967e-11
2.7475367e-11
2.7443226e-11
2.7434286e-11
2.7441281e-11
2.7440478e-11
2.7438184e-11
2.7435684e-11
2.7434515e-11
2.7434092e-11
2.7433953e-11
2.7433954e-11
2.7434093e-11
2.7434517e-11
2.7435686e-11
2.7438187e-11
2.7440482e-11
2.7441285e-11
2.7434291e-11
2.7443231e-11
2.7475371e-11
2.8747418e-11
2.8717604e-11
2.8689819e-11
2.8695155e-11
2.8699089e-11
2.8699162e-11
2.8695703e-11
2.869399e-11
2.8693342e-11
2.8693089e-11
2.869309e-11
2.8693343e-11
2.8693991e-11
2.8695705e-11
2.8699165e-11
2.8699093e-11
2.869516e-11
2.8689825e-11
2.8717609e-11
2.8747423e-11
3.0090991e-11
3.0086212e-11
3.00448e-11
3.0047167e-11
3.00595e-11
3.0063833e-11
3.005904e-11
3.0056495e-11
3.0056056e-11
3.0055592e-11
3.0055593e-11
3.0056057e-11
3.0056497e-11
3.0059043e-11
3.0063837e-11
3.0059504e-11
3.0047173e-11
3.0044805e-11
3.0086218e-11
3.0090997e-11
3.1437623e-11
3.1487159e-11
3.1444964e-11
3.144304e-11
3.1467867e-11
3.1477905e-11
3.1471304e-11
3.1467518e-11
3.1468075e-11
3.1467252e-11
3.1467252e-11
3.1468076e-11
3.1467519e-11
3.1471306e-11
3.1477908e-11
3.1467871e-11
3.1443045e-11
3.1444969e-11
3.1487165e-11
3.1437628e-11
3.2692739e-11
3.2834932e-11
3.2811005e-11
3.2805147e-11
3.2846416e-11
3.2862653e-11
3.2853378e-11
3.2848155e-11
3.2850508e-11
3.2850332e-11
3.2850332e-11
3.2850508e-11
3.2848155e-11
3.285338e-11
3.2862656e-11
3.2846419e-11
3.2805151e-11
3.281101e-11
3.2834937e-11
3.2692742e-11
3.3723022e-11
3.4007458e-11
3.4024627e-11
3.4020287e-11
3.4081219e-11
3.4102582e-11
3.408787e-11
3.4080711e-11
3.4085888e-11
3.4089735e-11
3.4089735e-11
3.4085888e-11
3.4080711e-11
3.408787e-11
3.4102584e-11
3.408122e-11
3.402029e-11
3.402463e-11
3.4007461e-11
3.3723023e-11
3.4427137e-11
3.4907614e-11
3.4989324e-11
3.4997455e-11
3.5081256e-11
3.5103133e-11
3.5078737e-11
3.5069138e-11
3.5077873e-11
3.5090707e-11
3.5090706e-11
3.5077872e-11
3.5069137e-11
3.5078736e-11
3.5103133e-11
3.5081256e-11
3.4997455e-11
3.4989325e-11
3.4907615e-11
3.4427134e-11
3.4689364e-11
3.5420093e-11
3.5590481e-11
3.5624473e-11
3.5737394e-11
3.5753373e-11
3.5716483e-11
3.5704077e-11
3.571453e-11
3.5740789e-11
3.5740789e-11
3.5714529e-11
3.5704075e-11
3.571648e-11
3.575337e-11
3.5737391e-11
3.5624472e-11
3.5590479e-11
3.542009e-11
3.4689359e-11
3.4378761e-11
3.5412884e-11
3.5697498e-11
3.5768794e-11
3.591795e-11
3.5924298e-11
3.5876326e-11
3.586116e-11
3.5870965e-11
3.5912663e-11
3.5912662e-11
3.5870963e-11
3.5861157e-11
3.5876322e-11
3.5924294e-11
3.5917946e-11
3.576879e-11
3.5697493e-11
3.5412879e-11
3.4378754e-11
3.3343454e-11
3.4731645e-11
3.5158029e-11
3.5276174e-11
3.5464987e-11
3.5466837e-11
3.5413557e-11
3.5396246e-11
3.5406994e-11
3.5463013e-11
3.5463012e-11
3.5406992e-11
3.5396242e-11
3.5413552e-11
3.5466832e-11
3.5464982e-11
3.5276168e-11
3.5158023e-11
3.4731638e-11
3.3343448e-11
3.1420585e-11
3.3199105e-11
3.3800775e-11
3.3973262e-11
3.4206076e-11
3.4214122e-11
3.4163367e-11
3.4145114e-11
3.4167228e-11
3.4233808e-11
3.4233807e-11
3.4167226e-11
3.414511e-11
3.4163362e-11
3.4214116e-11
3.420607e-11
3.3973255e-11
3.3800768e-11
3.3199099e-11
3.1420583e-11
2.8467793e-11
3.0635471e-11
3.1442139e-11
3.168449e-11
3.1972038e-11
3.1992917e-11
3.1950964e-11
3.193342e-11
3.1978172e-11
3.2049998e-11
3.2049997e-11
3.197817e-11
3.1933416e-11
3.1950959e-11
3.1992912e-11
3.1972032e-11
3.1684484e-11
3.1442134e-11
3.0635468e-11
2.8467798e-11
2.439074e-11
2.6902865e-11
2.79322e-11
2.8263873e-11
2.8613694e-11
2.866042e-11
2.8633202e-11
2.8618056e-11
2.8686895e-11
2.8758183e-11
2.8758182e-11
2.8686893e-11
2.8618054e-11
2.8633198e-11
2.8660416e-11
2.8613689e-11
2.8263868e-11
2.7932197e-11
2.6902868e-11
2.4390755e-11
1.9277287e-11
2.1999466e-11
2.3223891e-11
2.3670952e-11
2.4057786e-11
2.416427e-11
2.4166942e-11
2.4155405e-11
2.4237983e-11
2.430325e-11
2.4303249e-11
2.4237982e-11
2.4155404e-11
2.416694e-11
2.4164267e-11
2.4057783e-11
2.3670949e-11
2.3223892e-11
2.1999475e-11
1.927731e-11
1.3689376e-11
1.6298368e-11
1.7630202e-11
1.8153453e-11
1.8564734e-11
1.8731381e-11
1.8757808e-11
1.8749227e-11
1.8827778e-11
1.8881654e-11
1.8881654e-11
1.8827777e-11
1.8749226e-11
1.8757807e-11
1.873138e-11
1.8564732e-11
1.8153452e-11
1.7630205e-11
1.6298381e-11
1.3689403e-11
8.5671593e-12
1.0525473e-11
1.1769021e-11
1.2228265e-11
1.2699576e-11
1.2850265e-11
1.2883045e-11
1.28787e-11
1.2938888e-11
1.2978216e-11
1.2978216e-11
1.2938888e-11
1.28787e-11
1.2883046e-11
1.2850265e-11
1.2699576e-11
1.2228266e-11
1.1769026e-11
1.052549e-11
8.5671904e-12
4.9265896e-12
6.3952729e-12
7.3328055e-12
7.7438402e-12
8.0256126e-12
8.1404715e-12
8.170431e-12
8.1673205e-12
8.2065538e-12
8.2321876e-12
8.2321878e-12
8.2065546e-12
8.1673218e-12
8.1704324e-12
8.1404731e-12
8.025615e-12
7.7438434e-12
7.332813e-12
6.3952905e-12
4.9266201e-12
2.4067743e-12
3.6908589e-12
4.4714032e-12
4.8502284e-12
5.0655397e-12
5.1487302e-12
5.163603e-12
5.1529457e-12
5.1707833e-12
5.1836628e-12
5.1836631e-12
5.170784e-12
5.1529469e-12
5.1636043e-12
5.1487316e-12
5.0655411e-12
4.8502319e-12
4.4714094e-12
3.6908716e-12
2.4067987e-12
9.1558135e-13
2.0065159e-12
2.6827246e-12
3.0361554e-12
3.2108096e-12
3.2748557e-12
3.2755986e-12
3.2551307e-12
3.2547475e-12
3.2568888e-12
3.2568891e-12
3.2547485e-12
3.2551322e-12
3.2755998e-12
3.2748569e-12
3.2108111e-12
3.0361585e-12
2.6827297e-12
2.0065239e-12
9.1559559e-13
2.6266617e-13
1.0218711e-12
1.5762422e-12
1.8930292e-12
2.0463578e-12
2.0951844e-12
2.0891633e-12
2.0637098e-12
2.0520393e-12
2.0470455e-12
2.0470457e-12
2.0520401e-12
2.063711e-12
2.0891644e-12
2.0951856e-12
2.0463589e-12
1.8930311e-12
1.5762452e-12
1.021875e-12
2.6267228e-13
5.8312303e-14
4.901806e-13
9.0679131e-13
1.1727265e-12
1.306663e-12
1.3492258e-12
1.3424845e-12
1.3181588e-12
1.3024925e-12
1.2944159e-12
1.2944161e-12
1.3024931e-12
1.3181598e-12
1.3424852e-12
1.3492266e-12
1.3066637e-12
1.1727276e-12
9.0679285e-13
4.9018262e-13
5.8314055e-14
1.0651925e-14
2.2218468e-13
5.1081254e-13
7.1965516e-13
8.3193673e-13
8.7016149e-13
8.6620373e-13
8.465723e-13
8.3164368e-13
8.2335007e-13
8.233502e-13
8.3164402e-13
8.4657288e-13
8.6620417e-13
8.70162e-13
8.3193709e-13
7.1965567e-13
5.108133e-13
2.2218573e-13
1.0652305e-14
1.6916049e-15
9.5669497e-14
2.8185111e-13
4.3655085e-13
5.2612321e-13
5.5944791e-13
5.5879266e-13
5.4466358e-13
5.3258683e-13
5.2552636e-13
5.2552644e-13
5.3258701e-13
5.4466389e-13
5.5879293e-13
5.5944818e-13
5.2612336e-13
4.3655107e-13
2.8185149e-13
9.5670029e-14
1.6916723e-15
2.4550991e-16
3.946413e-14
1.5243565e-13
2.6143686e-13
3.2963658e-13
3.5734893e-13
3.5909545e-13
3.4982209e-13
3.4100603e-13
3.3562268e-13
3.3562272e-13
3.4100612e-13
3.4982223e-13
3.5909559e-13
3.5734905e-13
3.2963662e-13
2.6143694e-13
1.5243584e-13
3.946438e-14
2.4552031e-16
3.378035e-17
1.5737023e-14
8.0879352e-14
1.5443976e-13
2.042599e-13
2.2624282e-13
2.2923304e-13
2.2365056e-13
2.1767537e-13
2.1387037e-13
2.1387039e-13
2.176754e-13
2.2365061e-13
2.292331e-13
2.2624287e-13
2.0425989e-13
1.5443978e-13
8.0879457e-14
1.5737133e-14
3.3781822e-17
4.5121979e-18
6.1119337e-15
4.2128887e-14
8.9937094e-14
1.2503413e-13
1.4174766e-13
1.4507798e-13
1.4200532e-13
1.3818963e-13
1.3565024e-13
1.3565024e-13
1.3818963e-13
1.4200533e-13
1.4507799e-13
1.4174766e-13
1.250341e-13
8.9937091e-14
4.2128943e-14
6.1119792e-15
4.512394e-18
5.9544449e-19
2.3264794e-15
2.1572221e-14
5.1630351e-14
7.5567524e-14
8.7799102e-14
9.0898908e-14
8.9389384e-14
8.7076349e-14
8.5458889e-14
8.5458887e-14
8.7076338e-14
8.9389369e-14
9.0898896e-14
8.7799085e-14
7.5567496e-14
5.1630344e-14
2.1572251e-14
2.3264973e-15
5.9546963e-19
7.8428383e-20
8.712556e-16
1.0865578e-14
2.9210976e-14
4.5068485e-14
5.3723805e-14
5.6324662e-14
5.5710403e-14
5.4375808e-14
5.3386153e-14
5.3386148e-14
5.4375793e-14
5.5710382e-14
5.6324644e-14
5.3723785e-14
4.5068465e-14
2.9210971e-14
1.0865594e-14
8.7126244e-16
7.8431528e-20
1.0362649e-20
3.2165423e-16
5.3862195e-15
1.6285652e-14
2.651533e-14
3.2458286e-14
3.4490813e-14
3.4342283e-14
3.3610299e-14
3.3026262e-14
3.3026257e-14
3.3610284e-14
3.4342264e-14
3.4490794e-14
3.2458269e-14
2.6515317e-14
1.628565e-14
5.3862285e-15
3.2165677e-16
1.0363018e-20
1.3830603e-21
1.1718296e-16
2.6286899e-15
8.9462282e-15
1.5385237e-14
1.9355952e-14
2.0861695e-14
2.0924085e-14
2.0544501e-14
2.021146e-14
2.0211456e-14
2.054449e-14
2.092407e-14
2.086168e-14
1.935594e-14
1.538523e-14
8.946228e-15
2.6286949e-15
1.1718389e-16
1.3830901e-21
)
;

boundaryField
{
    Wall
    {
        type            zeroGradient;
    }
    frontAndBack
    {
        type            empty;
    }
    atmosphere
    {
        type            zeroGradient;
    }
}


// ************************************************************************* //
