/*--------------------------------*- C++ -*----------------------------------*\
| =========                 |                                                 |
| \\      /  F ield         | OpenFOAM: The Open Source CFD Toolbox           |
|  \\    /   O peration     | Version:  3.0.1                                 |
|   \\  /    A nd           | Web:      www.OpenFOAM.org                      |
|    \\/     M anipulation  |                                                 |
\*---------------------------------------------------------------------------*/
FoamFile
{
    version     2.0;
    format      ascii;
    class       volScalarField;
    location    "30";
    object      muMixture;
}
// * * * * * * * * * * * * * * * * * * * * * * * * * * * * * * * * * * * * * //

dimensions      [1 -1 -1 0 0 0 0];

internalField   nonuniform List<scalar> 
800
(
0.001
0.001
0.001
0.001
0.001
0.001
0.001
0.001
0.001
0.001
0.001
0.001
0.001
0.001
0.001
0.001
0.001
0.001
0.001
0.001
0.001
0.001
0.001
0.001
0.001
0.001
0.001
0.001
0.001
0.001
0.001
0.001
0.001
0.001
0.001
0.001
0.001
0.001
0.001
0.001
0.00099999997
0.00099999998
0.00099999998
0.00099999998
0.00099999998
0.00099999998
0.00099999998
0.00099999998
0.00099999998
0.00099999998
0.00099999998
0.00099999998
0.00099999998
0.00099999998
0.00099999998
0.00099999998
0.00099999998
0.00099999998
0.00099999998
0.00099999997
0.00099999988
0.00099999989
0.00099999989
0.0009999999
0.0009999999
0.0009999999
0.0009999999
0.0009999999
0.0009999999
0.0009999999
0.0009999999
0.0009999999
0.0009999999
0.0009999999
0.0009999999
0.0009999999
0.0009999999
0.00099999989
0.00099999989
0.00099999988
0.00099999967
0.00099999971
0.00099999972
0.00099999972
0.00099999972
0.00099999972
0.00099999972
0.00099999972
0.00099999972
0.00099999972
0.00099999972
0.00099999972
0.00099999972
0.00099999972
0.00099999972
0.00099999972
0.00099999972
0.00099999972
0.00099999971
0.00099999967
0.00099999931
0.00099999939
0.00099999942
0.00099999942
0.00099999942
0.00099999942
0.00099999942
0.00099999942
0.00099999942
0.00099999942
0.00099999942
0.00099999942
0.00099999942
0.00099999942
0.00099999942
0.00099999942
0.00099999942
0.00099999942
0.00099999939
0.00099999931
0.00099999876
0.00099999889
0.00099999895
0.00099999896
0.00099999896
0.00099999896
0.00099999896
0.00099999896
0.00099999896
0.00099999896
0.00099999896
0.00099999896
0.00099999896
0.00099999896
0.00099999896
0.00099999896
0.00099999896
0.00099999895
0.00099999889
0.00099999876
0.00099999798
0.0009999982
0.0009999983
0.00099999832
0.00099999832
0.00099999832
0.00099999831
0.00099999831
0.00099999831
0.00099999831
0.00099999831
0.00099999831
0.00099999831
0.00099999831
0.00099999832
0.00099999832
0.00099999832
0.0009999983
0.0009999982
0.00099999798
0.00099999694
0.00099999726
0.00099999743
0.00099999746
0.00099999746
0.00099999746
0.00099999745
0.00099999745
0.00099999745
0.00099999745
0.00099999745
0.00099999745
0.00099999745
0.00099999745
0.00099999746
0.00099999746
0.00099999746
0.00099999743
0.00099999726
0.00099999694
0.00099999563
0.00099999607
0.00099999633
0.00099999638
0.00099999638
0.00099999637
0.00099999637
0.00099999636
0.00099999636
0.00099999636
0.00099999636
0.00099999636
0.00099999636
0.00099999637
0.00099999637
0.00099999638
0.00099999638
0.00099999633
0.00099999607
0.00099999563
0.00099999402
0.00099999458
0.00099999498
0.00099999507
0.00099999507
0.00099999506
0.00099999505
0.00099999504
0.00099999504
0.00099999504
0.00099999504
0.00099999504
0.00099999504
0.00099999505
0.00099999506
0.00099999507
0.00099999507
0.00099999498
0.00099999458
0.00099999402
0.00099999211
0.00099999277
0.0009999934
0.00099999352
0.00099999352
0.00099999351
0.0009999935
0.00099999349
0.00099999348
0.00099999348
0.00099999348
0.00099999348
0.00099999349
0.0009999935
0.00099999351
0.00099999352
0.00099999352
0.0009999934
0.00099999277
0.00099999211
0.00099998995
0.00099999104
0.0009999917
0.00099999178
0.00099999173
0.00099999173
0.00099999172
0.00099999171
0.0009999917
0.00099999169
0.00099999169
0.0009999917
0.00099999171
0.00099999172
0.00099999173
0.00099999173
0.00099999178
0.0009999917
0.00099999104
0.00099998995
0.00099998681
0.00099998899
0.00099998886
0.00099998849
0.0009999896
0.00099998975
0.00099998973
0.00099998971
0.0009999897
0.0009999897
0.0009999897
0.0009999897
0.00099998971
0.00099998973
0.00099998975
0.0009999896
0.00099998849
0.00099998886
0.00099998899
0.00099998681
0.00099998189
0.00099997169
0.00099998026
0.00099998394
0.00099998769
0.00099998758
0.00099998756
0.00099998754
0.00099998753
0.00099998752
0.00099998752
0.00099998753
0.00099998754
0.00099998756
0.00099998758
0.00099998769
0.00099998394
0.00099998026
0.00099997169
0.00099998189
0.00099998171
0.00099996912
0.00099997269
0.00099998467
0.00099998533
0.00099998528
0.00099998525
0.00099998523
0.00099998522
0.00099998521
0.00099998521
0.00099998522
0.00099998523
0.00099998525
0.00099998528
0.00099998533
0.00099998467
0.00099997269
0.00099996912
0.00099998171
0.00099996915
0.00099996912
0.00099997794
0.00099998465
0.00099998291
0.00099998285
0.00099998282
0.00099998279
0.00099998278
0.00099998277
0.00099998277
0.00099998278
0.00099998279
0.00099998282
0.00099998285
0.00099998291
0.00099998465
0.00099997794
0.00099996912
0.00099996915
0.00099996726
0.00099997351
0.00099997953
0.00099998215
0.00099998044
0.00099998033
0.00099998029
0.00099998026
0.00099998024
0.00099998023
0.00099998023
0.00099998024
0.00099998026
0.00099998029
0.00099998033
0.00099998044
0.00099998215
0.00099997953
0.00099997351
0.00099996726
0.00099997756
0.000999979
0.00099997919
0.00099997559
0.00099997781
0.00099997771
0.00099997766
0.00099997762
0.00099997761
0.0009999776
0.0009999776
0.00099997761
0.00099997762
0.00099997766
0.00099997771
0.00099997781
0.00099997559
0.00099997919
0.000999979
0.00099997756
0.00099997608
0.000999979
0.000999979
0.0009999756
0.00099997495
0.00099997492
0.00099997486
0.00099997483
0.00099997481
0.0009999748
0.0009999748
0.00099997481
0.00099997483
0.00099997486
0.00099997492
0.00099997495
0.0009999756
0.000999979
0.000999979
0.00099997608
0.00099996796
0.000999979
0.000999979
0.00099997415
0.00099997155
0.00099997142
0.00099997137
0.00099997134
0.00099997134
0.00099997134
0.00099997134
0.00099997134
0.00099997134
0.00099997137
0.00099997142
0.00099997155
0.00099997415
0.000999979
0.000999979
0.00099996796
0.00099994093
0.00099997327
0.00099997351
0.00099996459
0.00099996353
0.00099996364
0.00099996371
0.00099996375
0.00099996382
0.00099996386
0.00099996386
0.00099996382
0.00099996375
0.00099996371
0.00099996364
0.00099996353
0.00099996459
0.00099997351
0.00099997327
0.00099994093
0.0009997227
0.0009998756
0.00099990828
0.00099991399
0.00099991877
0.00099992108
0.00099992238
0.0009999231
0.00099992385
0.00099992422
0.00099992422
0.00099992385
0.0009999231
0.00099992238
0.00099992108
0.00099991877
0.00099991399
0.00099990829
0.0009998756
0.00099972271
0.00099576518
0.00099853695
0.00099916733
0.00099932012
0.00099939822
0.00099943351
0.00099945255
0.00099946308
0.0009994734
0.00099947836
0.00099947836
0.0009994734
0.00099946309
0.00099945255
0.00099943351
0.00099939823
0.00099932012
0.00099916735
0.000998537
0.00099576541
0.00083600838
0.00094980259
0.00097433861
0.00098068078
0.00098370494
0.00098513013
0.00098588013
0.00098630339
0.00098670061
0.00098689088
0.0009868909
0.00098670067
0.00098630349
0.00098588029
0.00098513032
0.00098370519
0.00098068114
0.00097433922
0.00094980447
0.00083601619
1e-05
1e-05
0.00052597989
0.00057318613
0.00060234925
0.00061777125
0.00062634653
0.00063131674
0.00063604785
0.00063834433
0.00063834458
0.00063604863
0.00063131798
0.00062634831
0.00061777342
0.00060235191
0.00057318926
0.00052598408
1e-05
1e-05
1e-05
1e-05
1e-05
1e-05
1e-05
1e-05
1e-05
1e-05
1e-05
1e-05
1e-05
1e-05
1e-05
1e-05
1e-05
1e-05
1e-05
1e-05
1e-05
1e-05
1e-05
1e-05
1e-05
1e-05
1e-05
1e-05
1e-05
1e-05
1e-05
1e-05
1e-05
1e-05
1e-05
1e-05
1e-05
1e-05
1e-05
1e-05
1e-05
1e-05
1e-05
1e-05
1e-05
1e-05
1e-05
1e-05
1e-05
1e-05
1e-05
1e-05
1e-05
1e-05
1e-05
1e-05
1e-05
1e-05
1e-05
1e-05
1e-05
1e-05
1e-05
1e-05
1e-05
1e-05
1e-05
1e-05
1e-05
1e-05
1e-05
1e-05
1e-05
1e-05
1e-05
1e-05
1e-05
1e-05
1e-05
1e-05
1e-05
1e-05
1e-05
1e-05
1e-05
1e-05
1e-05
1e-05
1e-05
1e-05
1e-05
1e-05
1e-05
1e-05
1e-05
1e-05
1e-05
1e-05
1e-05
1e-05
1e-05
1e-05
1e-05
1e-05
1e-05
1e-05
1e-05
1e-05
1e-05
1e-05
1e-05
1e-05
1e-05
1e-05
1e-05
1e-05
1e-05
1e-05
1e-05
1e-05
1e-05
1e-05
1e-05
1e-05
1e-05
1e-05
1e-05
1e-05
1e-05
1e-05
1e-05
1e-05
1e-05
1e-05
1e-05
1e-05
1e-05
1e-05
1e-05
1e-05
1e-05
1e-05
1e-05
1e-05
1e-05
1e-05
1e-05
1e-05
1e-05
1e-05
1e-05
1e-05
1e-05
1e-05
1e-05
1e-05
1e-05
1e-05
1e-05
1e-05
1e-05
1e-05
1e-05
1e-05
1e-05
1e-05
1e-05
1e-05
1e-05
1e-05
1e-05
1e-05
1e-05
1e-05
1e-05
1e-05
1e-05
1e-05
1e-05
1e-05
1e-05
1e-05
1e-05
1e-05
1e-05
1e-05
1e-05
1e-05
1e-05
1e-05
1e-05
1e-05
1e-05
1e-05
1e-05
1e-05
1e-05
1e-05
1e-05
1e-05
1e-05
1e-05
1e-05
1e-05
1e-05
1e-05
1e-05
1e-05
1e-05
1e-05
1e-05
1e-05
1e-05
1e-05
1e-05
1e-05
1e-05
1e-05
1e-05
1e-05
1e-05
1e-05
1e-05
1e-05
1e-05
1e-05
1e-05
1e-05
1e-05
1e-05
1e-05
1e-05
1e-05
1e-05
1e-05
1e-05
1e-05
1e-05
1e-05
1e-05
1e-05
1e-05
1e-05
1e-05
1e-05
1e-05
1e-05
1e-05
1e-05
1e-05
1e-05
1e-05
1e-05
1e-05
1e-05
1e-05
1e-05
1e-05
1e-05
1e-05
1e-05
1e-05
1e-05
1e-05
1e-05
1e-05
1e-05
1e-05
1e-05
1e-05
1e-05
1e-05
1e-05
1e-05
1e-05
1e-05
1e-05
1e-05
1e-05
1e-05
1e-05
1e-05
)
;

boundaryField
{
    Wall
    {
        type            zeroGradient;
    }
    frontAndBack
    {
        type            empty;
    }
    atmosphere
    {
        type            zeroGradient;
    }
}


// ************************************************************************* //
