/*--------------------------------*- C++ -*----------------------------------*\
| =========                 |                                                 |
| \\      /  F ield         | OpenFOAM: The Open Source CFD Toolbox           |
|  \\    /   O peration     | Version:  3.0.1                                 |
|   \\  /    A nd           | Web:      www.OpenFOAM.org                      |
|    \\/     M anipulation  |                                                 |
\*---------------------------------------------------------------------------*/
FoamFile
{
    version     2.0;
    format      ascii;
    class       volScalarField;
    location    "30";
    object      mZero;
}
// * * * * * * * * * * * * * * * * * * * * * * * * * * * * * * * * * * * * * //

dimensions      [0 0 0 0 0 0 0];

internalField   nonuniform List<scalar> 
800
(
1e+13
1e+13
1e+13
1e+13
1e+13
1e+13
1e+13
1e+13
1e+13
1e+13
1e+13
1e+13
1e+13
1e+13
1e+13
1e+13
1e+13
1e+13
1e+13
1e+13
1e+13
1e+13
1e+13
1e+13
1e+13
1e+13
1e+13
1e+13
1e+13
1e+13
1e+13
1e+13
1e+13
1e+13
1e+13
1e+13
1e+13
1e+13
1e+13
1e+13
9.9288551e+12
9.9308417e+12
9.9316897e+12
9.9319653e+12
9.9320319e+12
9.9320297e+12
9.93201e+12
9.9319913e+12
9.9319785e+12
9.9319723e+12
9.9319722e+12
9.9319784e+12
9.9319912e+12
9.93201e+12
9.9320296e+12
9.9320318e+12
9.9319652e+12
9.9316895e+12
9.9308414e+12
9.9288547e+12
9.7988485e+12
9.8045037e+12
9.806655e+12
9.8073412e+12
9.8075132e+12
9.8075084e+12
9.8074585e+12
9.8074099e+12
9.8073761e+12
9.8073595e+12
9.8073595e+12
9.807376e+12
9.8074098e+12
9.8074582e+12
9.8075081e+12
9.8075129e+12
9.8073407e+12
9.8066545e+12
9.8045031e+12
9.7988476e+12
9.6207216e+12
9.6314007e+12
9.6351296e+12
9.6362912e+12
9.6365777e+12
9.6365617e+12
9.6364711e+12
9.636384e+12
9.6363231e+12
9.636293e+12
9.636293e+12
9.6363229e+12
9.6363838e+12
9.6364707e+12
9.6365612e+12
9.6365771e+12
9.6362905e+12
9.6351287e+12
9.6313997e+12
9.6207202e+12
9.4039634e+12
9.4206329e+12
9.4261258e+12
9.4277983e+12
9.4281925e+12
9.4281525e+12
9.4280107e+12
9.4278777e+12
9.427785e+12
9.4277393e+12
9.4277392e+12
9.4277848e+12
9.4278773e+12
9.4280102e+12
9.4281518e+12
9.4281917e+12
9.4277973e+12
9.4261246e+12
9.4206316e+12
9.4039616e+12
9.156799e+12
9.1802228e+12
9.1875904e+12
9.1897843e+12
9.190266e+12
9.1901858e+12
9.1899829e+12
9.1897976e+12
9.1896697e+12
9.1896068e+12
9.1896067e+12
9.1896694e+12
9.1897971e+12
9.1899822e+12
9.1901849e+12
9.190265e+12
9.1897831e+12
9.187589e+12
9.1802211e+12
9.1567969e+12
8.8863342e+12
8.9171558e+12
8.9264791e+12
8.9291892e+12
8.9297259e+12
8.9295868e+12
8.9293137e+12
8.9290716e+12
8.9289062e+12
8.928825e+12
8.9288249e+12
8.9289059e+12
8.929071e+12
8.9293129e+12
8.9295858e+12
8.9297247e+12
8.9291878e+12
8.9264775e+12
8.9171541e+12
8.886332e+12
8.5986358e+12
8.6374073e+12
8.6487778e+12
8.6519988e+12
8.6525598e+12
8.6523418e+12
8.6519921e+12
8.6516911e+12
8.651487e+12
8.6513871e+12
8.6513869e+12
8.6514866e+12
8.6516904e+12
8.6519912e+12
8.6523407e+12
8.6525585e+12
8.6519973e+12
8.6487761e+12
8.6374055e+12
8.5986336e+12
8.2987657e+12
8.3459869e+12
8.3595332e+12
8.3632747e+12
8.3638407e+12
8.3635322e+12
8.3631049e+12
8.3627459e+12
8.362503e+12
8.3623842e+12
8.362384e+12
8.3625026e+12
8.3627452e+12
8.3631039e+12
8.363531e+12
8.3638393e+12
8.3632732e+12
8.3595315e+12
8.3459852e+12
8.2987638e+12
7.9908016e+12
8.0469586e+12
8.062875e+12
8.0671768e+12
8.0677467e+12
8.067352e+12
8.0668515e+12
8.0664386e+12
8.0661565e+12
8.0660187e+12
8.0660185e+12
8.066156e+12
8.0664378e+12
8.0668504e+12
8.0673507e+12
8.0677453e+12
8.0671753e+12
8.0628733e+12
8.046957e+12
7.9907998e+12
7.6778893e+12
7.7434789e+12
7.762061e+12
7.7670094e+12
7.7676088e+12
7.7671457e+12
7.7665795e+12
7.7661184e+12
7.7657931e+12
7.7656357e+12
7.7656356e+12
7.7657926e+12
7.7661177e+12
7.7665785e+12
7.7671445e+12
7.7676074e+12
7.7670079e+12
7.7620594e+12
7.7434773e+12
7.6778877e+12
7.3623146e+12
7.4378664e+12
7.4595456e+12
7.465284e+12
7.4659703e+12
7.4654639e+12
7.4648381e+12
7.4643357e+12
7.463965e+12
7.4637868e+12
7.4637867e+12
7.4639645e+12
7.464335e+12
7.4648371e+12
7.4654628e+12
7.465969e+12
7.4652827e+12
7.4595441e+12
7.437865e+12
7.3623132e+12
7.0455216e+12
7.1316453e+12
7.1570152e+12
7.1637712e+12
7.1646384e+12
7.1641155e+12
7.163432e+12
7.1628946e+12
7.1624824e+12
7.1622766e+12
7.1622764e+12
7.162482e+12
7.1628939e+12
7.1634311e+12
7.1641144e+12
7.1646372e+12
7.1637699e+12
7.1570138e+12
7.1316439e+12
7.0455202e+12
6.7284799e+12
6.8258823e+12
6.8557258e+12
6.8638505e+12
6.8650367e+12
6.8645252e+12
6.8637767e+12
6.8631988e+12
6.8627551e+12
6.8625163e+12
6.8625161e+12
6.8627547e+12
6.8631981e+12
6.8637758e+12
6.8645242e+12
6.8650356e+12
6.8638494e+12
6.8557245e+12
6.8258811e+12
6.7284786e+12
6.4121227e+12
6.52161e+12
6.5569561e+12
6.5669741e+12
6.5686719e+12
6.5682018e+12
6.5673671e+12
6.5667314e+12
6.5662685e+12
6.5659989e+12
6.5659988e+12
6.5662681e+12
6.5667307e+12
6.5673663e+12
6.5682008e+12
6.5686709e+12
6.566973e+12
6.5569549e+12
6.5216088e+12
6.4121216e+12
6.0963816e+12
6.2189438e+12
6.2611387e+12
6.2738025e+12
6.2762973e+12
6.2759133e+12
6.2749624e+12
6.2742368e+12
6.273758e+12
6.2734625e+12
6.2734623e+12
6.2737576e+12
6.2742361e+12
6.2749616e+12
6.2759124e+12
6.2762964e+12
6.2738016e+12
6.2611376e+12
6.2189427e+12
6.0963807e+12
5.7798363e+12
5.9167545e+12
5.9675514e+12
5.9839094e+12
5.9876318e+12
5.9874208e+12
5.9863227e+12
5.9854548e+12
5.9849456e+12
5.9846217e+12
5.9846216e+12
5.9849452e+12
5.9854541e+12
5.986322e+12
5.98742e+12
5.987631e+12
5.9839085e+12
5.9675504e+12
5.9167536e+12
5.7798355e+12
5.4600487e+12
5.6129912e+12
5.6746719e+12
5.6961586e+12
5.7017628e+12
5.7018853e+12
5.7006119e+12
5.6995247e+12
5.6989512e+12
5.6985833e+12
5.6985832e+12
5.6989508e+12
5.6995241e+12
5.7006112e+12
5.7018846e+12
5.7017621e+12
5.6961578e+12
5.674671e+12
5.6129905e+12
5.4600482e+12
5.1333878e+12
5.3045307e+12
5.3800613e+12
5.4086483e+12
5.4171373e+12
5.4178795e+12
5.4164119e+12
5.4149998e+12
5.4142929e+12
5.4138447e+12
5.4138446e+12
5.4142925e+12
5.4149992e+12
5.4164113e+12
5.4178789e+12
5.4171366e+12
5.4086477e+12
5.3800606e+12
5.3045303e+12
5.1333878e+12
4.7946841e+12
4.9868362e+12
5.0801525e+12
5.1186232e+12
5.131489e+12
5.13331e+12
5.1316534e+12
5.1297795e+12
5.1288288e+12
5.1282376e+12
5.1282374e+12
5.1288285e+12
5.1297789e+12
5.1316528e+12
5.1333094e+12
5.1314884e+12
5.1186227e+12
5.080152e+12
4.9868361e+12
4.7946847e+12
4.4366249e+12
4.6535622e+12
4.7699516e+12
4.8221875e+12
4.8416243e+12
4.8453542e+12
4.843561e+12
4.8410522e+12
4.8396761e+12
4.8388375e+12
4.8388373e+12
4.8396758e+12
4.8410516e+12
4.8435605e+12
4.8453537e+12
4.8416239e+12
4.8221872e+12
4.7699513e+12
4.6535625e+12
4.4366263e+12
4.0487212e+12
4.2957521e+12
4.4423456e+12
4.5139543e+12
4.5432292e+12
4.5501949e+12
4.548589e+12
4.5452336e+12
4.5431496e+12
4.5418961e+12
4.5418959e+12
4.5431493e+12
4.545233e+12
4.5485886e+12
4.5501946e+12
4.5432288e+12
4.5139541e+12
4.4423456e+12
4.295753e+12
4.0487236e+12
3.6170337e+12
3.9010583e+12
4.0873372e+12
4.1865659e+12
4.2305397e+12
4.2432218e+12
4.2423265e+12
4.2378375e+12
4.23462e+12
4.2326876e+12
4.2326874e+12
4.2346197e+12
4.2378369e+12
4.2423262e+12
4.2432215e+12
4.2305395e+12
4.1865658e+12
4.0873376e+12
3.9010599e+12
3.6170374e+12
3.1227367e+12
3.4524154e+12
3.6916638e+12
3.8299323e+12
3.8964453e+12
3.9185925e+12
3.9193326e+12
3.9133835e+12
3.9084089e+12
3.9053882e+12
3.905388e+12
3.9084086e+12
3.913383e+12
3.9193324e+12
3.9185924e+12
3.8964452e+12
3.8299325e+12
3.6916646e+12
3.4524181e+12
3.1227423e+12
2.5217326e+12
2.9174329e+12
3.2314123e+12
3.4267461e+12
3.5283484e+12
3.5667697e+12
3.5714281e+12
3.5639449e+12
3.5564192e+12
3.551727e+12
3.5517268e+12
3.5564189e+12
3.5639445e+12
3.5714281e+12
3.5667699e+12
3.5283487e+12
3.4267467e+12
3.2314139e+12
2.9174374e+12
2.521741e+12
1.8032637e+12
2.274765e+12
2.6697544e+12
2.9409631e+12
3.0960714e+12
3.1626375e+12
3.1760446e+12
3.1671283e+12
3.1556569e+12
3.1481996e+12
3.1481994e+12
3.1556566e+12
3.1671281e+12
3.1760448e+12
3.1626378e+12
3.096072e+12
2.9409642e+12
2.6697569e+12
2.2747708e+12
1.8032741e+12
1.0610982e+12
1.64273e+12
2.0941093e+12
2.4271328e+12
2.6396175e+12
2.7418656e+12
2.768028e+12
2.7581431e+12
2.741252e+12
2.7296842e+12
2.729684e+12
2.7412517e+12
2.7581429e+12
2.7680282e+12
2.7418659e+12
2.6396181e+12
2.4271343e+12
2.0941121e+12
1.6427354e+12
1.0611084e+12
4.7587251e+11
1.1106539e+12
1.594887e+12
1.9625158e+12
2.2098616e+12
2.3398087e+12
2.3777097e+12
2.3667126e+12
2.3437919e+12
2.3274549e+12
2.3274547e+12
2.3437917e+12
2.3667125e+12
2.3777098e+12
2.3398089e+12
2.209862e+12
1.9625172e+12
1.5948896e+12
1.1106581e+12
4.7587965e+11
1.5846376e+11
7.0993485e+11
1.1898977e+12
1.5681509e+12
1.8303171e+12
1.9728306e+12
2.0173575e+12
2.0051078e+12
1.9771102e+12
1.9566261e+12
1.9566259e+12
1.9771099e+12
2.0051076e+12
2.0173575e+12
1.9728307e+12
1.8303173e+12
1.5681518e+12
1.1898994e+12
7.0993715e+11
1.5846735e+11
4.0418273e+10
4.3168963e+11
8.7366539e+11
1.2418175e+12
1.5026099e+12
1.6469987e+12
1.6930529e+12
1.679999e+12
1.6492141e+12
1.6263217e+12
1.6263214e+12
1.6492136e+12
1.6799986e+12
1.6930526e+12
1.6469986e+12
1.5026098e+12
1.2418178e+12
8.7366624e+11
4.3169098e+11
4.0419458e+10
8.4308113e+09
2.4936159e+11
6.3095721e+11
9.7309261e+11
1.2208311e+12
1.3594061e+12
1.4039401e+12
1.3910408e+12
1.3600974e+12
1.3368548e+12
1.3368545e+12
1.3600968e+12
1.3910403e+12
1.4039396e+12
1.3594058e+12
1.2208307e+12
9.7309256e+11
6.3095756e+11
2.4936244e+11
8.4311039e+09
1.5262649e+09
1.3672409e+11
4.4671689e+11
7.5202617e+11
9.7885827e+11
1.1067809e+12
1.1482395e+12
1.1365185e+12
1.1076786e+12
1.0858555e+12
1.0858551e+12
1.107678e+12
1.1365178e+12
1.1482389e+12
1.1067805e+12
9.7885777e+11
7.5202589e+11
4.4671701e+11
1.3672463e+11
1.5263237e+09
2.5279912e+08
7.1424622e+10
3.0889188e+11
5.7111794e+11
7.722755e+11
8.8684709e+11
9.2457231e+11
9.1488962e+11
8.8970306e+11
8.7049849e+11
8.7049811e+11
8.8970234e+11
9.148888e+11
9.2457164e+11
8.8684651e+11
7.7227495e+11
5.7111759e+11
3.0889192e+11
7.1424949e+10
2.5280937e+08
39794076
3.5767897e+10
2.079953e+11
4.2491753e+11
5.9804575e+11
6.9805316e+11
7.3183871e+11
7.2469824e+11
7.0393621e+11
6.8794164e+11
6.8794127e+11
7.0393548e+11
7.2469738e+11
7.31838e+11
6.9805256e+11
5.9804522e+11
4.249172e+11
2.0799531e+11
3.5768081e+10
39795719
6099426.2
1.7274005e+10
1.3615805e+11
3.0901587e+11
4.5374053e+11
5.3898106e+11
5.6882171e+11
5.6427726e+11
5.480451e+11
5.3534922e+11
5.3534887e+11
5.480444e+11
5.6427642e+11
5.6882101e+11
5.3898048e+11
4.5374006e+11
3.090156e+11
1.3615807e+11
1.7274101e+10
6099674.7
926019.6
8.089434e+09
8.6639567e+10
2.1942346e+11
3.3692893e+11
4.0787788e+11
4.3379762e+11
4.3155501e+11
4.1948507e+11
4.0983246e+11
4.0983215e+11
4.1948443e+11
4.3155423e+11
4.3379696e+11
4.0787736e+11
3.3692854e+11
2.1942327e+11
8.6639589e+10
8.0894816e+09
926055.89
140704.47
3.687108e+09
5.3609346e+10
1.520396e+11
2.447103e+11
3.0236198e+11
3.2444277e+11
3.2400499e+11
3.154604e+11
3.0840625e+11
3.0840597e+11
3.1545983e+11
3.2400429e+11
3.2444219e+11
3.0236154e+11
2.4471e+11
1.5203948e+11
5.3609372e+10
3.6871307e+09
140709.43
21699.473
1.6395239e+09
3.2284098e+10
1.0279881e+11
1.7380477e+11
2.1951892e+11
2.3791583e+11
2.3872209e+11
2.3296855e+11
2.2800103e+11
2.2800081e+11
2.3296807e+11
2.387215e+11
2.3791534e+11
2.1951856e+11
1.7380455e+11
1.0279874e+11
3.2284124e+10
1.6395343e+09
21699.822
3593.9742
7.1234241e+08
1.8940313e+10
6.7841643e+10
1.2072348e+11
1.5608566e+11
1.7104675e+11
1.7257644e+11
1.6890279e+11
1.655275e+11
1.6552731e+11
1.689024e+11
1.7257595e+11
1.7104635e+11
1.5608538e+11
1.2072333e+11
6.784161e+10
1.8940335e+10
7.1234711e+08
3593.7847
)
;

boundaryField
{
    Wall
    {
        type            zeroGradient;
    }
    frontAndBack
    {
        type            empty;
    }
    atmosphere
    {
        type            zeroGradient;
    }
}


// ************************************************************************* //
