/*--------------------------------*- C++ -*----------------------------------*\
| =========                 |                                                 |
| \\      /  F ield         | OpenFOAM: The Open Source CFD Toolbox           |
|  \\    /   O peration     | Version:  3.0.1                                 |
|   \\  /    A nd           | Web:      www.OpenFOAM.org                      |
|    \\/     M anipulation  |                                                 |
\*---------------------------------------------------------------------------*/
FoamFile
{
    version     2.0;
    format      ascii;
    class       volScalarField;
    location    "30";
    object      node0;
}
// * * * * * * * * * * * * * * * * * * * * * * * * * * * * * * * * * * * * * //

dimensions      [0 0 0 0 0 0 0];

internalField   nonuniform List<scalar> 
800
(
0
0
0
0
0
0
0
0
0
0
0
0
0
0
0
0
0
0
0
0
0
0
0
0
0
0
0
0
0
0
0
0
0
0
0
0
0
0
0
0
0
0
0
0
0
0
0
0
0
0
0
0
0
0
0
0
0
0
0
0
0
0
0
0
0
0
0
0
0
0
0
0
0
0
0
0
0
0
0
0
0
0
0
0
0
0
0
0
0
0
0
0
0
0
0
0
0
0
0
0
0
0
0
0
0
0
0
0
0
0
0
0
0
0
0
0
0
0
0
0
0
0
0
0
0
0
0
0
0
0
0
0
0
0
0
0
0
0
0
0
0
0
0
0
0
0
0
0
0
0
0
0
0
0
0
0
0
0
0
0
0
0
0
0
0
0
0
0
0
0
0
0
0
0
0
0
0
0
0
0
0
0
0
0
0
0
0
0
0
0
0
0
0
0
0
0
0
0
0
0
0
0
0
0
0
0
0
0
0
0
0
0
0
0
0
0
0
0
0
0
0
0
0
0
0
0
0
0
0
0
0
0
0
0
0
0
0
0
0
0
0
0
0
0
0
0
0
0
0
0
0
0
0
0
0
0
0
0
0
0
0
0
0
0
0
0
0
0
0
0
0
0
0
0
0
0
0
0
0
0
0
0
0
0
0
0
0
0
0
0
0
0
0
0
0
0
0
0
0
0
1.0793909e-13
1.3156907e-13
1.3758666e-13
1.3910933e-13
1.4547602e-13
1.4748812e-13
1.4587517e-13
1.4349839e-13
1.4397425e-13
1.4458463e-13
1.4458457e-13
1.4397412e-13
1.4349816e-13
1.4587488e-13
1.4748778e-13
1.4547567e-13
1.3910897e-13
1.3758628e-13
1.315687e-13
1.079387e-13
3.4008913e-13
3.5734125e-13
3.6385807e-13
3.6745113e-13
3.7276814e-13
3.7360917e-13
3.7123816e-13
3.6777388e-13
3.6776201e-13
3.6891606e-13
3.6891601e-13
3.6776192e-13
3.6777372e-13
3.7123798e-13
3.7360898e-13
3.7276797e-13
3.6745097e-13
3.6385789e-13
3.5734107e-13
3.400889e-13
5.8087925e-13
5.9079599e-13
5.9720144e-13
6.0308077e-13
6.0796386e-13
6.0763408e-13
6.0456348e-13
6.0015776e-13
5.9920137e-13
6.0064246e-13
6.0064243e-13
5.9920132e-13
6.0015766e-13
6.0456341e-13
6.0763403e-13
6.0796384e-13
6.0308078e-13
5.9720142e-13
5.9079596e-13
5.8087915e-13
8.2709513e-13
8.3025334e-13
8.3644168e-13
8.4404025e-13
8.4879198e-13
8.4760413e-13
8.4413013e-13
8.3933932e-13
8.3729065e-13
8.3878135e-13
8.3878132e-13
8.3729062e-13
8.3933928e-13
8.4413012e-13
8.4760417e-13
8.4879206e-13
8.4404035e-13
8.3644179e-13
8.3025342e-13
8.270951e-13
1.0590851e-12
1.0597259e-12
1.0659375e-12
1.0738284e-12
1.0784114e-12
1.0768851e-12
1.073412e-12
1.06902e-12
1.0663807e-12
1.0679484e-12
1.0679484e-12
1.0663807e-12
1.06902e-12
1.0734121e-12
1.0768852e-12
1.0784116e-12
1.0738286e-12
1.0659377e-12
1.059726e-12
1.0590851e-12
1.2392784e-12
1.2449306e-12
1.2513366e-12
1.2568716e-12
1.2612253e-12
1.2596579e-12
1.2566472e-12
1.2533722e-12
1.2513982e-12
1.2532226e-12
1.2532226e-12
1.2513982e-12
1.2533722e-12
1.2566473e-12
1.259658e-12
1.2612255e-12
1.2568717e-12
1.2513368e-12
1.2449308e-12
1.2392784e-12
1.3265147e-12
1.3440624e-12
1.3500079e-12
1.3505079e-12
1.3538521e-12
1.3524051e-12
1.3501532e-12
1.3483479e-12
1.3483202e-12
1.3504403e-12
1.3504403e-12
1.3483202e-12
1.348348e-12
1.3501533e-12
1.3524052e-12
1.3538523e-12
1.3505081e-12
1.3500081e-12
1.3440626e-12
1.3265149e-12
1.2979303e-12
1.3306944e-12
1.3352989e-12
1.3301469e-12
1.3306539e-12
1.3290356e-12
1.3287504e-12
1.3282801e-12
1.3303663e-12
1.3326733e-12
1.3326734e-12
1.3303664e-12
1.3282802e-12
1.3287506e-12
1.3290357e-12
1.3306541e-12
1.3301471e-12
1.3352991e-12
1.3306947e-12
1.2979307e-12
1.1616883e-12
1.2074122e-12
1.2095384e-12
1.2003508e-12
1.19485e-12
1.1955378e-12
1.1964843e-12
1.1969144e-12
1.2002849e-12
1.2027049e-12
1.202705e-12
1.2002851e-12
1.1969146e-12
1.1964845e-12
1.195538e-12
1.1948502e-12
1.2003511e-12
1.2095387e-12
1.2074126e-12
1.1616887e-12
9.56982e-13
1.0039575e-12
1.0054812e-12
9.8769418e-13
9.7944552e-13
9.7823629e-13
9.7790107e-13
9.7866547e-13
9.8237018e-13
9.848408e-13
9.8484088e-13
9.8237035e-13
9.786657e-13
9.779013e-13
9.7823651e-13
9.7944575e-13
9.876944e-13
1.0054814e-12
1.0039578e-12
9.569824e-13
0
0
7.5378403e-13
7.2088962e-13
7.1426266e-13
7.0511305e-13
7.0215861e-13
7.0280442e-13
7.0626588e-13
7.087229e-13
7.0872299e-13
7.0626607e-13
7.0280467e-13
7.0215885e-13
7.0511327e-13
7.142629e-13
7.2088983e-13
7.5378423e-13
0
0
0
0
0
0
0
0
0
0
0
0
0
0
0
0
0
0
0
0
0
0
0
0
0
0
0
0
0
0
0
0
0
0
0
0
0
0
0
0
0
0
0
0
0
0
0
0
0
0
0
0
0
0
0
0
0
0
0
0
0
0
0
0
0
0
0
0
0
0
0
0
0
0
0
0
0
0
0
0
0
0
0
0
0
0
0
0
0
0
0
0
0
0
0
0
0
0
0
0
0
0
0
0
0
0
0
0
0
0
0
0
0
0
0
0
0
0
0
0
0
0
0
0
0
0
0
0
0
0
0
0
0
0
0
0
0
0
0
0
0
0
0
0
0
0
0
0
0
0
0
0
0
0
0
0
0
0
0
0
0
0
0
0
0
0
0
0
0
0
0
0
0
0
0
0
0
0
0
0
0
0
0
0
0
0
0
0
0
0
0
0
0
0
0
0
0
0
0
0
0
0
0
0
0
0
0
0
0
0
0
0
0
0
0
0
0
0
0
0
0
0
0
0
0
0
0
0
0
0
0
0
0
0
0
0
0
0
0
0
0
0
0
0
0
0
0
0
0
0
0
0
0
0
0
0
0
0
0
0
0
0
0
0
0
0
0
0
0
0
0
0
0
0
0
0
0
0
0
0
0
0
)
;

boundaryField
{
    Wall
    {
        type            zeroGradient;
    }
    frontAndBack
    {
        type            empty;
    }
    atmosphere
    {
        type            zeroGradient;
    }
}


// ************************************************************************* //
