/*--------------------------------*- C++ -*----------------------------------*\
| =========                 |                                                 |
| \\      /  F ield         | OpenFOAM: The Open Source CFD Toolbox           |
|  \\    /   O peration     | Version:  3.0.1                                 |
|   \\  /    A nd           | Web:      www.OpenFOAM.org                      |
|    \\/     M anipulation  |                                                 |
\*---------------------------------------------------------------------------*/
FoamFile
{
    version     2.0;
    format      ascii;
    class       volScalarField;
    location    "30";
    object      node1;
}
// * * * * * * * * * * * * * * * * * * * * * * * * * * * * * * * * * * * * * //

dimensions      [0 0 0 0 0 0 0];

internalField   nonuniform List<scalar> 
800
(
1.5906444e-12
1.590795e-12
1.5908202e-12
1.5908223e-12
1.5908217e-12
1.5908213e-12
1.5908212e-12
1.5908214e-12
1.5908215e-12
1.5908216e-12
1.5908216e-12
1.5908215e-12
1.5908214e-12
1.5908213e-12
1.5908213e-12
1.5908217e-12
1.5908223e-12
1.5908202e-12
1.590795e-12
1.5906444e-12
1.569853e-12
1.5713381e-12
1.5716835e-12
1.5717539e-12
1.5717535e-12
1.5717404e-12
1.5717294e-12
1.5717226e-12
1.5717191e-12
1.5717177e-12
1.5717177e-12
1.5717191e-12
1.5717226e-12
1.5717294e-12
1.5717404e-12
1.5717535e-12
1.5717539e-12
1.5716834e-12
1.5713381e-12
1.5698528e-12
1.5582665e-12
1.5603609e-12
1.5609868e-12
1.5611138e-12
1.561121e-12
1.5611054e-12
1.5610916e-12
1.5610834e-12
1.5610795e-12
1.5610779e-12
1.5610779e-12
1.5610794e-12
1.5610834e-12
1.5610916e-12
1.5611054e-12
1.561121e-12
1.5611137e-12
1.5609867e-12
1.5603608e-12
1.5582663e-12
1.5565857e-12
1.558835e-12
1.55963e-12
1.55978e-12
1.5597869e-12
1.55977e-12
1.5597566e-12
1.55975e-12
1.5597475e-12
1.5597469e-12
1.5597469e-12
1.5597475e-12
1.55975e-12
1.5597566e-12
1.55977e-12
1.5597869e-12
1.55978e-12
1.55963e-12
1.5588349e-12
1.5565856e-12
1.5654098e-12
1.5673493e-12
1.5681987e-12
1.5683503e-12
1.5683459e-12
1.568326e-12
1.5683142e-12
1.5683106e-12
1.5683109e-12
1.5683118e-12
1.5683118e-12
1.5683109e-12
1.5683106e-12
1.5683142e-12
1.568326e-12
1.5683459e-12
1.5683503e-12
1.5681987e-12
1.5673493e-12
1.5654097e-12
1.5850598e-12
1.5862405e-12
1.587031e-12
1.5871676e-12
1.5871405e-12
1.5871147e-12
1.5871046e-12
1.5871049e-12
1.5871086e-12
1.5871114e-12
1.5871114e-12
1.5871086e-12
1.5871049e-12
1.5871046e-12
1.5871147e-12
1.5871406e-12
1.5871676e-12
1.587031e-12
1.5862406e-12
1.5850598e-12
1.615446e-12
1.6154642e-12
1.616075e-12
1.6161802e-12
1.6161211e-12
1.6160867e-12
1.6160779e-12
1.6160824e-12
1.6160898e-12
1.6160947e-12
1.6160947e-12
1.6160898e-12
1.6160824e-12
1.6160779e-12
1.6160867e-12
1.6161211e-12
1.6161803e-12
1.6160751e-12
1.6154643e-12
1.6154461e-12
1.6579966e-12
1.6562615e-12
1.6564733e-12
1.6565273e-12
1.6564218e-12
1.6563736e-12
1.6563647e-12
1.6563729e-12
1.6563842e-12
1.6563912e-12
1.6563913e-12
1.6563842e-12
1.656373e-12
1.6563648e-12
1.6563737e-12
1.6564219e-12
1.6565275e-12
1.6564734e-12
1.6562617e-12
1.6579968e-12
1.7123703e-12
1.7086285e-12
1.7082462e-12
1.7082307e-12
1.7080881e-12
1.7080242e-12
1.7080132e-12
1.7080239e-12
1.7080384e-12
1.7080473e-12
1.7080473e-12
1.7080384e-12
1.708024e-12
1.7080134e-12
1.7080244e-12
1.7080883e-12
1.7082309e-12
1.7082465e-12
1.7086288e-12
1.7123706e-12
1.7782603e-12
1.7723967e-12
1.77117e-12
1.7710612e-12
1.7709229e-12
1.770858e-12
1.7708399e-12
1.7708497e-12
1.770866e-12
1.770876e-12
1.770876e-12
1.7708661e-12
1.7708498e-12
1.7708401e-12
1.7708582e-12
1.7709232e-12
1.7710615e-12
1.7711703e-12
1.7723971e-12
1.7782606e-12
1.8544937e-12
1.8466979e-12
1.8443953e-12
1.8441621e-12
1.8441175e-12
1.8441022e-12
1.8440679e-12
1.8440713e-12
1.8440871e-12
1.844097e-12
1.8440971e-12
1.8440872e-12
1.8440714e-12
1.8440681e-12
1.8441025e-12
1.8441177e-12
1.8441624e-12
1.8443957e-12
1.8466982e-12
1.854494e-12
1.9393437e-12
1.9300289e-12
1.9265482e-12
1.9261471e-12
1.9263218e-12
1.9264311e-12
1.9263672e-12
1.9263554e-12
1.9263685e-12
1.9263765e-12
1.9263766e-12
1.9263686e-12
1.9263556e-12
1.9263674e-12
1.9264314e-12
1.9263221e-12
1.9261474e-12
1.9265486e-12
1.9300293e-12
1.939344e-12
2.0309894e-12
2.0206537e-12
2.0161319e-12
2.0154794e-12
2.0160064e-12
2.0163054e-12
2.0161939e-12
2.016153e-12
2.0161862e-12
2.0161881e-12
2.0161882e-12
2.0161863e-12
2.0161531e-12
2.0161941e-12
2.0163057e-12
2.0160068e-12
2.0154798e-12
2.0161323e-12
2.0206541e-12
2.0309898e-12
2.1276746e-12
2.1168874e-12
2.1117052e-12
2.1107185e-12
2.1117125e-12
2.1122301e-12
2.1120478e-12
2.1119573e-12
2.1120436e-12
2.112034e-12
2.112034e-12
2.1120437e-12
2.1119574e-12
2.112048e-12
2.1122303e-12
2.1117128e-12
2.1107189e-12
2.1117056e-12
2.1168878e-12
2.127675e-12
2.2267722e-12
2.2163368e-12
2.2110048e-12
2.2096536e-12
2.2111966e-12
2.2119199e-12
2.2116278e-12
2.211483e-12
2.2116418e-12
2.2116661e-12
2.2116662e-12
2.2116418e-12
2.2114831e-12
2.211628e-12
2.2119202e-12
2.2111969e-12
2.209654e-12
2.2110052e-12
2.2163372e-12
2.2267726e-12
2.3230565e-12
2.3141921e-12
2.3091996e-12
2.3075783e-12
2.3097107e-12
2.310578e-12
2.3100728e-12
2.3098777e-12
2.3101318e-12
2.3103207e-12
2.3103208e-12
2.3101319e-12
2.3098778e-12
2.310073e-12
2.3105782e-12
2.309711e-12
2.3075786e-12
2.3092e-12
2.3141924e-12
2.3230569e-12
2.4133977e-12
2.4074815e-12
2.4032383e-12
2.4015976e-12
2.4043789e-12
2.405203e-12
2.4043228e-12
2.4040543e-12
2.4044113e-12
2.40494e-12
2.40494e-12
2.4044114e-12
2.4040544e-12
2.4043229e-12
2.4052032e-12
2.4043791e-12
2.4015979e-12
2.4032386e-12
2.4074817e-12
2.4133979e-12
2.4951199e-12
2.493456e-12
2.4902911e-12
2.4889106e-12
2.4925074e-12
2.493037e-12
2.4916707e-12
2.4912942e-12
2.4916489e-12
2.492655e-12
2.4926551e-12
2.491649e-12
2.4912942e-12
2.4916708e-12
2.4930371e-12
2.4925076e-12
2.4889108e-12
2.4902913e-12
2.4934562e-12
2.49512e-12
2.5659024e-12
2.5697851e-12
2.5680373e-12
2.5670996e-12
2.5716662e-12
2.571743e-12
2.5699132e-12
2.569403e-12
2.5696168e-12
2.5711473e-12
2.5711473e-12
2.5696168e-12
2.5694031e-12
2.5699132e-12
2.5717431e-12
2.5716663e-12
2.5670997e-12
2.5680374e-12
2.5697852e-12
2.5659023e-12
2.6231877e-12
2.6341096e-12
2.6342577e-12
2.6339205e-12
2.6394047e-12
2.639161e-12
2.6370067e-12
2.6363605e-12
2.6364241e-12
2.6384366e-12
2.6384366e-12
2.6364241e-12
2.6363605e-12
2.6370067e-12
2.639161e-12
2.6394048e-12
2.6339206e-12
2.6342577e-12
2.6341096e-12
2.6231876e-12
2.6633221e-12
2.6830877e-12
2.6860111e-12
2.6863212e-12
2.6927187e-12
2.692431e-12
2.6901355e-12
2.6893865e-12
2.6896044e-12
2.6920069e-12
2.6920069e-12
2.6896045e-12
2.6893865e-12
2.6901355e-12
2.692431e-12
2.6927187e-12
2.6863212e-12
2.6860111e-12
2.6830877e-12
2.663322e-12
2.6795638e-12
2.7102654e-12
2.7170206e-12
2.7181902e-12
2.7258035e-12
2.7254668e-12
2.7231771e-12
2.7224073e-12
2.7232025e-12
2.7259018e-12
2.7259018e-12
2.7232025e-12
2.7224073e-12
2.7231771e-12
2.7254668e-12
2.7258035e-12
2.7181902e-12
2.7170206e-12
2.7102654e-12
2.6795638e-12
2.6590052e-12
2.7038825e-12
2.7157772e-12
2.7179536e-12
2.7271088e-12
2.7269929e-12
2.7247606e-12
2.7240722e-12
2.7257133e-12
2.7286461e-12
2.7286461e-12
2.7257133e-12
2.7240722e-12
2.7247606e-12
2.726993e-12
2.7271088e-12
2.7179536e-12
2.7157772e-12
2.7038826e-12
2.6590054e-12
2.5846941e-12
2.6475982e-12
2.665968e-12
2.6700039e-12
2.6802031e-12
2.6814917e-12
2.6798142e-12
2.6792856e-12
2.681784e-12
2.6849265e-12
2.6849265e-12
2.681784e-12
2.6792856e-12
2.6798143e-12
2.6814917e-12
2.6802031e-12
2.6700039e-12
2.6659681e-12
2.6475984e-12
2.5846944e-12
2.4475784e-12
2.5287756e-12
2.5550738e-12
2.5605951e-12
2.5724112e-12
2.5756764e-12
2.574465e-12
2.5740628e-12
2.5771731e-12
2.5804766e-12
2.5804767e-12
2.5771731e-12
2.5740628e-12
2.574465e-12
2.5756763e-12
2.5724112e-12
2.5605951e-12
2.5550739e-12
2.5287758e-12
2.4475787e-12
0
0
2.3611732e-12
2.3619807e-12
2.3833539e-12
2.3859125e-12
2.3848121e-12
2.3845578e-12
2.3879281e-12
2.3913196e-12
2.3913196e-12
2.3879282e-12
2.3845578e-12
2.3848121e-12
2.3859124e-12
2.3833539e-12
2.3619807e-12
2.3611733e-12
0
0
0
0
0
0
0
0
0
0
0
0
0
0
0
0
0
0
0
0
0
0
0
0
0
0
0
0
0
0
0
0
0
0
0
0
0
0
0
0
0
0
0
0
0
0
0
0
0
0
0
0
0
0
0
0
0
0
0
0
0
0
0
0
0
0
0
0
0
0
0
0
0
0
0
0
0
0
0
0
0
0
0
0
0
0
0
0
0
0
0
0
0
0
0
0
0
0
0
0
0
0
0
0
0
0
0
0
0
0
0
0
0
0
0
0
0
0
0
0
0
0
0
0
0
0
0
0
0
0
0
0
0
0
0
0
0
0
0
0
0
0
0
0
0
0
0
0
0
0
0
0
0
0
0
0
0
0
0
0
0
0
0
0
0
0
0
0
0
0
0
0
0
0
0
0
0
0
0
0
0
0
0
0
0
0
0
0
0
0
0
0
0
0
0
0
0
0
0
0
0
0
0
0
0
0
0
0
0
0
0
0
0
0
0
0
0
0
0
0
0
0
0
0
0
0
0
0
0
0
0
0
0
0
0
0
0
0
0
0
0
0
0
0
0
0
0
0
0
0
0
0
0
0
0
0
0
0
0
0
0
0
0
0
0
0
0
0
0
0
0
0
0
0
0
0
0
0
0
0
0
0
)
;

boundaryField
{
    Wall
    {
        type            zeroGradient;
    }
    frontAndBack
    {
        type            empty;
    }
    atmosphere
    {
        type            zeroGradient;
    }
}


// ************************************************************************* //
