/*--------------------------------*- C++ -*----------------------------------*\
| =========                 |                                                 |
| \\      /  F ield         | OpenFOAM: The Open Source CFD Toolbox           |
|  \\    /   O peration     | Version:  3.0.1                                 |
|   \\  /    A nd           | Web:      www.OpenFOAM.org                      |
|    \\/     M anipulation  |                                                 |
\*---------------------------------------------------------------------------*/
FoamFile
{
    version     2.0;
    format      ascii;
    class       surfaceScalarField;
    location    "30";
    object      phi;
}
// * * * * * * * * * * * * * * * * * * * * * * * * * * * * * * * * * * * * * //

dimensions      [0 3 -1 0 0 0 0];

internalField   nonuniform List<scalar> 
1540
(
4.8290581e-10
1.4466741e-08
6.2609323e-10
1.4810007e-08
6.4065432e-10
1.4939399e-08
5.8789585e-10
1.5006675e-08
5.0327273e-10
1.5038366e-08
4.0549718e-10
1.5051388e-08
3.0372126e-10
1.5055315e-08
2.0170058e-10
1.5055527e-08
1.0045411e-10
1.5054739e-08
-1.6312162e-13
1.5054106e-08
-1.0077688e-10
1.5054101e-08
-2.0201366e-10
1.5054725e-08
-3.0401901e-10
1.5055504e-08
-4.057748e-10
1.5055285e-08
-5.0352668e-10
1.5051351e-08
-5.8812243e-10
1.5038324e-08
-6.4085078e-10
1.5006627e-08
-6.2625376e-10
1.4939343e-08
-4.8301155e-10
1.4809932e-08
1.4466628e-08
2.8657464e-10
2.9590513e-08
5.0670166e-10
2.9985915e-08
5.6980459e-10
3.0271073e-08
5.4794831e-10
3.04231e-08
4.8198358e-10
3.0498886e-08
3.9506188e-10
3.0532836e-08
2.992006e-10
3.0545651e-08
2.0008202e-10
3.0549064e-08
1.0006279e-10
3.0549132e-08
-1.3628599e-13
3.0548654e-08
-1.0033247e-10
3.0548646e-08
-2.0034305e-10
3.0549106e-08
-2.9944884e-10
3.0549022e-08
-3.952926e-10
3.0545595e-08
-4.8219323e-10
3.0532768e-08
-5.4813297e-10
3.0498808e-08
-5.6995985e-10
3.0423011e-08
-5.0682072e-10
3.0270968e-08
-2.8664588e-10
2.9985781e-08
2.9590328e-08
3.706776e-10
4.5026723e-08
5.1791521e-10
4.5622124e-08
5.582629e-10
4.6010275e-08
5.3188669e-10
4.6228581e-08
4.6807922e-10
4.6341825e-08
3.8491035e-10
4.6395134e-08
2.9251334e-10
4.6417105e-08
1.9613093e-10
4.6424408e-08
9.8237662e-11
4.6425904e-08
-1.0520316e-13
4.642583e-08
-9.8445425e-11
4.6425818e-08
-1.9633204e-10
4.642587e-08
-2.9270357e-10
4.6424352e-08
-3.8508569e-10
4.6417031e-08
-4.6823628e-10
4.6395044e-08
-5.3202157e-10
4.634172e-08
-5.5837161e-10
4.6228459e-08
-5.1799201e-10
4.6010132e-08
-3.7071626e-10
4.5621947e-08
4.5026501e-08
3.8741867e-10
6.0771515e-08
5.2666781e-10
6.1584997e-08
5.5571138e-10
6.2077677e-08
5.2371362e-10
6.235697e-08
4.5860424e-10
6.2503482e-08
3.7645833e-10
6.2573866e-08
2.8603557e-10
6.2604021e-08
1.9186607e-10
6.2614932e-08
9.6153064e-11
6.2617852e-08
-8.1335736e-14
6.2618232e-08
-9.6312679e-11
6.2618218e-08
-1.9201955e-10
6.2617812e-08
-2.8617938e-10
6.2614868e-08
-3.7658892e-10
6.2603935e-08
-4.5871809e-10
6.257376e-08
-5.2380859e-10
6.2503357e-08
-5.5578399e-10
6.2356825e-08
-5.2671519e-10
6.2077508e-08
-3.8743794e-10
6.1584793e-08
6.0771272e-08
3.7481309e-10
7.679099e-08
5.226428e-10
7.7797284e-08
5.5041384e-10
7.8403194e-08
5.1651058e-10
7.8744449e-08
4.5072382e-10
7.8923199e-08
3.6918135e-10
7.9009444e-08
2.801907e-10
7.9046939e-08
1.8786653e-10
7.9061005e-08
9.4147577e-11
7.9065162e-08
-6.3058486e-14
7.9065945e-08
-9.4271394e-11
7.9065931e-08
-1.8798513e-10
7.906512e-08
-2.8029899e-10
7.9060936e-08
-3.6927722e-10
7.9046845e-08
-4.5080423e-10
7.9009327e-08
-5.1657325e-10
7.8923061e-08
-5.5045848e-10
7.8744288e-08
-5.2266769e-10
7.8403006e-08
-3.7481917e-10
7.7797061e-08
7.6790731e-08
3.7530075e-10
9.30227e-08
5.2280788e-10
9.4220263e-08
5.4807453e-10
9.494012e-08
5.1179323e-10
9.5343071e-08
4.4489592e-10
9.5553012e-08
3.6343197e-10
9.5653997e-08
2.7535303e-10
9.5697985e-08
1.8443386e-10
9.5714673e-08
9.238298e-11
9.5719769e-08
-4.8954535e-14
9.5720827e-08
-9.2478409e-11
9.5720812e-08
-1.8452215e-10
9.5719724e-08
-2.7543183e-10
9.57146e-08
-3.6349865e-10
9.5697885e-08
-4.4494742e-10
9.5653872e-08
-5.1182908e-10
9.5552861e-08
-5.4809396e-10
9.5342895e-08
-5.2281291e-10
9.4939915e-08
-3.7529444e-10
9.4220021e-08
9.3022427e-08
3.8231411e-10
1.0943437e-07
5.28204e-10
1.1082825e-07
5.4982741e-10
1.1166181e-07
5.1013027e-10
1.121255e-07
4.4139692e-10
1.1236524e-07
3.5939238e-10
1.1247973e-07
2.7168865e-10
1.1252928e-07
1.8173163e-10
1.1254796e-07
9.0969231e-11
1.1255364e-07
-3.5320773e-14
1.1255481e-07
-9.1039859e-11
1.1255479e-07
-1.8179621e-10
1.1255359e-07
-2.7174312e-10
1.1254789e-07
-3.5943344e-10
1.1252917e-07
-4.414244e-10
1.1247959e-07
-5.1014297e-10
1.1236507e-07
-5.4982652e-10
1.1212531e-07
-5.2819297e-10
1.1166158e-07
-3.8230063e-10
1.1082798e-07
1.0943408e-07
3.9098036e-10
1.2601516e-07
5.3658924e-10
1.2761e-07
5.5463296e-10
1.2855809e-07
5.1093157e-10
1.2908176e-07
4.3989748e-10
1.2935017e-07
3.5690602e-10
1.2947692e-07
2.6912884e-10
1.2953109e-07
1.797116e-10
1.2955112e-07
8.9869835e-11
1.2955694e-07
-2.4621654e-14
1.2955801e-07
-8.9915878e-11
1.29558e-07
-1.7975135e-10
1.2955689e-07
-2.6915934e-10
1.2955104e-07
-3.5692542e-10
1.2953098e-07
-4.3990443e-10
1.2947678e-07
-5.1092581e-10
1.2934999e-07
-5.5461651e-10
1.2908154e-07
-5.3656777e-10
1.2855784e-07
-3.9096776e-10
1.2760971e-07
1.2601485e-07
4.0242369e-10
1.4277821e-07
5.4795064e-10
1.4457804e-07
5.6201831e-10
1.4564114e-07
5.1366914e-10
1.4622389e-07
4.3978945e-10
1.4651986e-07
3.5553422e-10
1.4665781e-07
2.6737605e-10
1.4671566e-07
1.7821888e-10
1.4673633e-07
8.9036132e-11
1.4674186e-07
-1.1268488e-14
1.4674262e-07
-8.9057065e-11
1.467426e-07
-1.7823684e-10
1.4674181e-07
-2.6738582e-10
1.4673624e-07
-3.5553476e-10
1.4671553e-07
-4.3978049e-10
1.4665765e-07
-5.1365137e-10
1.4651966e-07
-5.6199456e-10
1.4622364e-07
-5.4792831e-10
1.4564086e-07
-4.024186e-10
1.4457772e-07
1.4277787e-07
4.1789631e-10
1.5975624e-07
5.6213424e-10
1.6176625e-07
5.7144626e-10
1.6294434e-07
5.1792831e-10
1.635848e-07
4.4065577e-10
1.6390706e-07
3.5484041e-10
1.6405515e-07
2.6604493e-10
1.6411568e-07
1.7694177e-10
1.6413623e-07
8.8281722e-11
1.6414095e-07
3.3807101e-16
1.6414112e-07
-8.827871e-11
1.6414111e-07
-1.7693513e-10
1.641409e-07
-2.6603394e-10
1.6413613e-07
-3.5482436e-10
1.6411554e-07
-4.4063473e-10
1.6405498e-07
-5.1790444e-10
1.6390683e-07
-5.7142354e-10
1.6358453e-07
-5.6212052e-10
1.6294402e-07
-4.179047e-10
1.617659e-07
1.5975588e-07
4.3819286e-10
1.7700564e-07
5.7833551e-10
1.7923089e-07
5.8193807e-10
1.8052375e-07
5.2292801e-10
1.8121966e-07
4.4181702e-10
1.81566e-07
3.5396213e-10
1.8172258e-07
2.6436373e-10
1.8178441e-07
1.7531283e-10
1.8180388e-07
8.7326397e-11
1.8180712e-07
1.122528e-14
1.8180638e-07
-8.7303507e-11
1.8180636e-07
-1.7528853e-10
1.8180706e-07
-2.6433828e-10
1.8180377e-07
-3.5393605e-10
1.8178426e-07
-4.4179161e-10
1.8172239e-07
-5.2290606e-10
1.8156576e-07
-5.8192457e-10
1.8121937e-07
-5.7833746e-10
1.8052342e-07
-4.3821891e-10
1.7923054e-07
1.7700528e-07
4.6340517e-10
1.9461035e-07
5.9520205e-10
1.9705452e-07
5.9168887e-10
1.9846132e-07
5.2706386e-10
1.9920807e-07
4.4189872e-10
1.9957443e-07
3.5154112e-10
1.9973651e-07
2.6122253e-10
1.9979762e-07
1.724402e-10
1.9981483e-07
8.5747713e-11
1.9981624e-07
2.0269629e-14
1.9981421e-07
-8.5707627e-11
1.9981418e-07
-1.7240131e-10
1.9981618e-07
-2.6118644e-10
1.9981472e-07
-3.5150922e-10
1.9979747e-07
-4.4187318e-10
1.9973631e-07
-5.2704674e-10
1.9957418e-07
-5.916845e-10
1.9920777e-07
-5.9521629e-10
1.9846099e-07
-4.6343948e-10
1.9705418e-07
1.9461001e-07
4.9278769e-10
2.1267934e-07
6.1069914e-10
2.1534715e-07
5.9674108e-10
2.1686454e-07
5.2689715e-10
2.1765454e-07
4.3794308e-10
2.1803446e-07
3.4526298e-10
2.1819744e-07
2.5499497e-10
2.1825511e-07
1.6750514e-10
2.1826852e-07
8.2924976e-11
2.182676e-07
2.688594e-14
2.1826341e-07
-8.287266e-11
2.1826338e-07
-1.6745686e-10
2.1826753e-07
-2.5495269e-10
2.1826841e-07
-3.4522944e-10
2.1825495e-07
-4.3791912e-10
2.1819723e-07
-5.2688507e-10
2.1803421e-07
-5.9674326e-10
2.1765425e-07
-6.107171e-10
2.1686424e-07
-4.9281768e-10
2.1534684e-07
2.1267905e-07
5.23404e-10
2.3137263e-07
6.2015456e-10
2.3427038e-07
5.903461e-10
2.3588929e-07
5.1661276e-10
2.3671224e-07
4.2520522e-10
2.3709664e-07
3.3187046e-10
2.3725426e-07
2.4342656e-10
2.3730483e-07
1.5929419e-10
2.3731135e-07
7.7690745e-11
2.3730716e-07
3.048416e-14
2.373004e-07
-7.763183e-11
2.3730038e-07
-1.5924137e-10
2.373071e-07
-2.4338223e-10
2.3731124e-07
-3.3183667e-10
2.3730468e-07
-4.2518319e-10
2.3725407e-07
-5.1660299e-10
2.3709641e-07
-5.9034852e-10
2.3671199e-07
-6.2016635e-10
2.3588903e-07
-5.2341774e-10
2.3427013e-07
2.3137241e-07
5.4092162e-10
2.5121336e-07
6.1406727e-10
2.5433389e-07
5.6369243e-10
2.5604868e-07
4.8796148e-10
2.5689577e-07
3.9732826e-10
2.5727362e-07
3.0695431e-10
2.5741751e-07
2.2263633e-10
2.5745408e-07
1.4579966e-10
2.5744945e-07
6.9199053e-11
2.5744061e-07
3.1814456e-14
2.5743162e-07
-6.9137825e-11
2.574316e-07
-1.4574483e-10
2.5744055e-07
-2.2259124e-10
2.5744935e-07
-3.069198e-10
2.5745394e-07
-3.9730501e-10
2.5741735e-07
-4.8794756e-10
2.5727343e-07
-5.6368626e-10
2.5689557e-07
-6.1406289e-10
2.5604848e-07
-5.4090837e-10
2.5433373e-07
2.5121324e-07
5.4993166e-10
2.7231486e-07
5.8912907e-10
2.7566091e-07
5.1144086e-10
2.7745891e-07
4.3174842e-10
2.7831729e-07
3.460642e-10
2.786761e-07
2.6275545e-10
2.7879502e-07
1.8742873e-10
2.7880852e-07
1.2437475e-10
2.787879e-07
5.7177888e-11
2.7877266e-07
3.1984866e-14
2.7876164e-07
-5.7116245e-11
2.7876162e-07
-1.2431916e-10
2.7877261e-07
-1.8738173e-10
2.7878781e-07
-2.6271717e-10
2.7880841e-07
-3.4603318e-10
2.7879489e-07
-4.317226e-10
2.7867595e-07
-5.1141641e-10
2.7831715e-07
-5.8909911e-10
2.7745878e-07
-5.4988745e-10
2.7566083e-07
2.7231483e-07
5.4985644e-10
2.9456839e-07
5.3814846e-10
2.9814752e-07
4.255567e-10
3.0000485e-07
3.3766776e-10
3.0085443e-07
2.6022144e-10
3.0118021e-07
1.8947305e-10
3.0126066e-07
1.3194344e-10
3.0124231e-07
9.2147338e-11
3.0120043e-07
4.1025175e-11
3.011739e-07
3.1781204e-14
3.0115964e-07
-4.0963562e-11
3.0115963e-07
-9.2089282e-11
3.0117386e-07
-1.3189167e-10
3.0120037e-07
-1.8942614e-10
3.0124223e-07
-2.6017609e-10
3.0126057e-07
-3.3762154e-10
3.0118012e-07
-4.2550671e-10
3.0085435e-07
-5.3808888e-10
3.000048e-07
-5.4978376e-10
2.9814751e-07
2.9456842e-07
5.2059393e-10
3.1814475e-07
4.4352847e-10
3.2195745e-07
2.9100747e-10
3.2384546e-07
1.9401548e-10
3.2465928e-07
1.272149e-10
3.2493629e-07
7.8222254e-11
3.2496373e-07
5.036696e-11
3.2490594e-07
4.3452707e-11
3.248388e-07
1.8948281e-11
3.2479516e-07
3.2914198e-14
3.2477684e-07
-1.8884552e-11
3.2477683e-07
-4.3390078e-11
3.2479513e-07
-5.0308283e-11
3.2483876e-07
-7.8160716e-11
3.2490589e-07
-1.2714944e-10
3.2496368e-07
-1.9394297e-10
3.2493625e-07
-2.9092976e-10
3.2465926e-07
-4.4344013e-10
3.2384546e-07
-5.2050186e-10
3.2195749e-07
3.181448e-07
4.5117818e-10
3.431944e-07
2.8666626e-10
3.4724548e-07
8.8025914e-11
3.4913231e-07
-1.3711043e-11
3.4988252e-07
-6.4373369e-11
3.5008565e-07
-7.7131036e-11
3.5005124e-07
-6.2165449e-11
3.4994981e-07
-2.5932669e-11
3.4985556e-07
-1.1825989e-11
3.4979315e-07
3.5402043e-14
3.4977064e-07
1.1899209e-11
3.4977063e-07
2.6004079e-11
3.4979314e-07
6.2242829e-11
3.4985554e-07
7.7211502e-11
3.4994979e-07
6.4462269e-11
3.5005122e-07
1.3812e-11
3.5008564e-07
-8.792324e-11
3.4988255e-07
-2.8655857e-10
3.4913234e-07
-4.5108411e-10
3.4724554e-07
3.4319446e-07
3.3156559e-10
3.6980213e-07
5.2994949e-11
3.7410488e-07
-2.0353024e-10
3.7598536e-07
-2.9911887e-10
3.7663837e-07
-3.188316e-10
3.767418e-07
-2.7769531e-10
3.7663603e-07
-2.053335e-10
3.7648976e-07
-1.1736554e-10
3.7637234e-07
-5.1415233e-11
3.7630174e-07
3.6639221e-14
3.7627887e-07
5.1491599e-11
3.7627886e-07
1.1744273e-10
3.7630174e-07
2.0541375e-10
3.7637234e-07
2.7778921e-10
3.7648976e-07
3.1893994e-10
3.7663604e-07
2.9923668e-10
3.7674182e-07
2.0367177e-10
3.7663841e-07
-5.2877183e-11
3.7598544e-07
-3.3148676e-10
3.7410496e-07
3.6980218e-07
1.4609354e-10
3.9793625e-07
-2.7645225e-10
4.025243e-07
-5.956533e-10
4.0440441e-07
-6.7689233e-10
4.0495696e-07
-6.387022e-10
4.0494467e-07
-5.2074819e-10
4.0475375e-07
-3.7247527e-10
4.0456355e-07
-2.1874155e-10
4.0443123e-07
-9.5144261e-11
4.0436619e-07
3.8069448e-14
4.0434895e-07
9.5217208e-11
4.0434895e-07
2.1882866e-10
4.0436619e-07
3.725755e-10
4.0443124e-07
5.2086236e-10
4.0456357e-07
6.3883037e-10
4.0475377e-07
6.7703124e-10
4.0494471e-07
5.9578491e-10
4.0495703e-07
2.7656557e-10
4.044045e-07
-1.4602548e-10
4.025244e-07
3.9793634e-07
-1.24558e-10
4.272507e-07
-7.0894601e-10
4.3223798e-07
-1.1024566e-09
4.3421252e-07
-1.1611457e-09
4.3471331e-07
-1.0367402e-09
4.3458185e-07
-8.0111066e-10
4.3429314e-07
-5.5095527e-10
4.3409516e-07
-3.1537609e-10
4.339635e-07
-1.3616291e-10
4.3391601e-07
4.6242922e-14
4.3391113e-07
1.3626007e-10
4.3391113e-07
3.1547842e-10
4.3391602e-07
5.5106771e-10
4.3396352e-07
8.0123623e-10
4.3409519e-07
1.0368805e-09
4.3429317e-07
1.1612964e-09
4.345819e-07
1.102602e-09
4.3471339e-07
7.0905827e-10
4.3421264e-07
1.2460427e-10
4.3223814e-07
4.2725087e-07
-3.7497208e-10
4.5711658e-07
-1.1901305e-09
4.627559e-07
-1.6821981e-09
4.6497555e-07
-1.7433433e-09
4.6559595e-07
-1.4969687e-09
4.6524878e-07
-1.0829266e-09
4.6499719e-07
-7.1489767e-10
4.6482713e-07
-3.9306151e-10
4.6471471e-07
-1.6831399e-10
4.6469479e-07
5.3632123e-14
4.6470536e-07
1.6842423e-10
4.6470536e-07
3.9317939e-10
4.646948e-07
7.1502826e-10
4.6471474e-07
1.0830705e-09
4.6482717e-07
1.4971253e-09
4.6499724e-07
1.7435035e-09
4.6524885e-07
1.6823586e-09
4.6559604e-07
1.1902583e-09
4.6497572e-07
3.7503615e-10
4.6275615e-07
4.5711692e-07
-6.8574642e-10
4.9025268e-07
-1.6858982e-09
4.9417424e-07
-2.2286082e-09
4.9687139e-07
-2.4587744e-09
4.9759114e-07
-1.8889514e-09
4.9700234e-07
-1.2807384e-09
4.9675431e-07
-8.2115375e-10
4.9658471e-07
-4.413698e-10
4.9649442e-07
-1.8953105e-10
4.9648108e-07
6.5080187e-14
4.9649274e-07
1.8966377e-10
4.9649275e-07
4.4150968e-10
4.964811e-07
8.2130616e-10
4.9649445e-07
1.280902e-09
4.9658476e-07
1.8891366e-09
4.9675436e-07
2.458972e-09
4.9700242e-07
2.2287977e-09
4.9759126e-07
1.6860665e-09
4.9687161e-07
6.8585429e-10
4.9417459e-07
4.9025311e-07
-2.1070103e-09
5.3052449e-07
-2.0164074e-09
5.3542023e-07
-2.5864681e-09
5.3681259e-07
-3.305868e-09
5.3713144e-07
-2.1369583e-09
5.3543963e-07
-1.3444215e-09
5.3500057e-07
-8.5000748e-10
5.3475905e-07
-4.6864047e-10
5.3463836e-07
-2.0772953e-10
5.3452365e-07
7.8622596e-14
5.3448676e-07
2.078873e-10
5.3448676e-07
4.6880196e-10
5.3452366e-07
8.5017499e-10
5.3463837e-07
1.3446003e-09
5.3475908e-07
2.1371673e-09
5.3500058e-07
3.306105e-09
5.3543968e-07
2.5867142e-09
5.3713156e-07
2.0166087e-09
5.3681286e-07
2.1070906e-09
5.354208e-07
5.3052564e-07
1.0304908e-09
5.1468091e-07
-1.5424674e-09
5.3397014e-07
-2.5485247e-09
5.4221172e-07
-5.4297852e-09
5.4800739e-07
-2.420938e-09
5.605317e-07
-1.3318146e-09
5.6389399e-07
-8.226045e-10
5.6502746e-07
-5.2308335e-10
5.6553704e-07
-2.4490986e-10
5.6584025e-07
8.495094e-14
5.660176e-07
2.4507779e-10
5.6601763e-07
5.232519e-10
5.6584035e-07
8.2276985e-10
5.6553721e-07
1.3320511e-09
5.6502762e-07
2.4211664e-09
5.6389426e-07
5.430087e-09
5.6053198e-07
2.5488219e-09
5.4800777e-07
1.5428183e-09
5.4221229e-07
-1.0301324e-09
5.3397115e-07
5.146827e-07
3.6661055e-08
4.7048619e-07
2.0860975e-08
5.3664093e-07
9.1174939e-09
5.389339e-07
2.7159022e-09
5.3910273e-07
1.4783858e-09
5.4566709e-07
1.0387293e-09
5.4800179e-07
6.7482038e-10
5.4892544e-07
3.9030986e-10
5.4924977e-07
1.6919128e-10
5.4939473e-07
1.1623863e-13
5.4947109e-07
-1.6896244e-10
5.4947114e-07
-3.9008945e-10
5.4939484e-07
-6.7459674e-10
5.4924994e-07
-1.0385453e-09
5.4892565e-07
-1.4781882e-09
5.4800205e-07
-2.7156696e-09
5.4566734e-07
-9.1172609e-09
5.3910312e-07
-2.0860732e-08
5.3893441e-07
-3.666038e-08
5.3664136e-07
4.7048859e-07
8.550338e-08
3.8463229e-07
9.2960394e-08
5.2798545e-07
7.28861e-08
5.571059e-07
5.0264599e-08
5.5952083e-07
3.4515013e-08
5.5895315e-07
2.3261511e-08
5.566364e-07
1.5195033e-08
5.5426879e-07
9.1437655e-09
5.5250621e-07
4.2739931e-09
5.5139892e-07
2.7023104e-13
5.5084337e-07
-4.2734629e-09
5.5084339e-07
-9.1432764e-09
5.5139908e-07
-1.519459e-08
5.5250643e-07
-2.3261082e-08
5.5426897e-07
-3.4514577e-08
5.5663662e-07
-5.0264116e-08
5.5895332e-07
-7.2885719e-08
5.5952127e-07
-9.2960352e-08
5.5710675e-07
-8.5503534e-08
5.2798612e-07
3.8463479e-07
7.9426719e-08
3.0520416e-07
1.0926785e-07
4.9813264e-07
1.0528484e-07
5.6106175e-07
8.7262783e-08
5.7750694e-07
6.7398269e-08
5.7877434e-07
4.9386837e-08
5.746001e-07
3.4098659e-08
5.6950627e-07
2.1272236e-08
5.6527991e-07
1.0184429e-08
5.6243174e-07
-1.1570039e-13
5.6097182e-07
-1.0184659e-08
5.6097187e-07
-2.1272424e-08
5.6243191e-07
-3.4098884e-08
5.6528013e-07
-4.9387108e-08
5.6950644e-07
-6.7398594e-08
5.7460034e-07
-8.7263161e-08
5.7877446e-07
-1.0528517e-07
5.7750731e-07
-1.0926801e-07
5.6106241e-07
-7.9426732e-08
4.9813324e-07
3.0520685e-07
5.9321698e-08
2.4588223e-07
9.493751e-08
4.6251662e-07
1.0284803e-07
5.5315105e-07
9.4000406e-08
5.8635451e-07
7.8285088e-08
5.9448969e-07
6.0698718e-08
5.9218655e-07
4.3670264e-08
5.8653485e-07
2.8034607e-08
5.8091582e-07
1.3657892e-08
5.768087e-07
-3.2667026e-13
5.7463033e-07
-1.3658544e-08
5.7463035e-07
-2.803522e-08
5.768088e-07
-4.367091e-08
5.8091599e-07
-6.0699334e-08
5.8653497e-07
-7.8285672e-08
5.9218673e-07
-9.4001067e-08
5.9448978e-07
-1.0284869e-07
5.863548e-07
-9.4938099e-08
5.5315165e-07
-5.9322503e-08
4.6251743e-07
2.4588423e-07
3.9764913e-08
2.0611713e-07
7.2722062e-08
4.2955931e-07
8.6376341e-08
5.3949667e-07
8.5014676e-08
5.8771609e-07
7.5028198e-08
6.0447616e-07
6.0972633e-08
6.0624215e-07
4.5485094e-08
6.0202243e-07
2.9942932e-08
5.9645809e-07
1.4815248e-08
5.9193651e-07
-3.8211538e-13
5.8944611e-07
-1.4816026e-08
5.8944616e-07
-2.9943657e-08
5.9193661e-07
-4.5485796e-08
5.9645825e-07
-6.0973263e-08
6.0202254e-07
-7.5028826e-08
6.0624231e-07
-8.501535e-08
6.0447629e-07
-8.637701e-08
5.8771638e-07
-7.2722717e-08
5.3949719e-07
-3.9765621e-08
4.2956016e-07
2.061185e-07
2.5135647e-08
1.809813e-07
5.1784594e-08
4.0291023e-07
6.6661909e-08
5.2461921e-07
6.9890442e-08
5.8448748e-07
6.4869328e-08
6.0949716e-07
5.4864869e-08
6.1624656e-07
4.2250567e-08
6.1463667e-07
2.8453656e-08
6.1025494e-07
1.4275347e-08
6.0611481e-07
-4.0077554e-13
6.0372185e-07
-1.4276144e-08
6.0372189e-07
-2.8454401e-08
6.0611488e-07
-4.2251238e-08
6.102551e-07
-5.4865498e-08
6.146368e-07
-6.4869959e-08
6.1624674e-07
-6.9891084e-08
6.0949735e-07
-6.6662565e-08
5.8448777e-07
-5.1785219e-08
5.2461972e-07
-2.5136226e-08
4.02911e-07
1.8098216e-07
1.5394697e-08
1.6558645e-07
3.5191543e-08
3.8311316e-07
4.8676694e-08
5.1113385e-07
5.3988978e-08
5.7917501e-07
5.2436184e-08
6.1104979e-07
4.5983555e-08
6.2269901e-07
3.6423506e-08
6.2419652e-07
2.5039011e-08
6.2163929e-07
1.2718279e-08
6.1843539e-07
-4.0041484e-13
6.164404e-07
-1.2719036e-08
6.1644045e-07
-2.5039714e-08
6.184355e-07
-3.6424155e-08
6.2163945e-07
-4.5984155e-08
6.241967e-07
-5.2436779e-08
6.2269922e-07
-5.3989591e-08
6.1105004e-07
-4.8677316e-08
5.7917535e-07
-3.5192126e-08
5.1113438e-07
-1.5395153e-08
3.8311385e-07
1.6558692e-07
9.3192519e-09
1.5626699e-07
2.3186104e-08
3.6924612e-07
3.416343e-08
5.0015632e-07
3.9868347e-08
5.7346992e-07
4.0363596e-08
6.105543e-07
3.6601408e-08
6.2646099e-07
2.9742077e-08
6.3105565e-07
2.082981e-08
6.3055138e-07
1.0698121e-08
6.2856691e-07
-3.569677e-13
6.2713871e-07
-1.0698804e-08
6.2713875e-07
-2.0830458e-08
6.2856702e-07
-2.9742674e-08
6.3055155e-07
-3.660199e-08
6.3105585e-07
-4.0364151e-08
6.2646123e-07
-3.9868894e-08
6.105546e-07
-3.4163978e-08
5.7347028e-07
-2.3186631e-08
5.0015681e-07
-9.3196322e-09
3.6924667e-07
1.5626715e-07
5.6115968e-09
1.5065524e-07
1.491489e-08
3.5994268e-07
2.3233089e-08
4.91838e-07
2.8412556e-08
5.6829024e-07
2.9903684e-08
6.0906301e-07
2.7977319e-08
6.2838719e-07
2.3280694e-08
6.3575211e-07
1.6583162e-08
6.3724877e-07
8.6039866e-09
6.3654591e-07
-3.1084932e-13
6.3574288e-07
-8.6045863e-09
6.3574291e-07
-1.658373e-08
6.36546e-07
-2.3281242e-08
6.372489e-07
-2.7977837e-08
6.3575231e-07
-2.9904191e-08
6.2838744e-07
-2.8413062e-08
6.0906331e-07
-2.3233573e-08
5.682906e-07
-1.4915357e-08
4.9183839e-07
-5.6119339e-09
3.5994304e-07
1.5065512e-07
3.3483262e-09
1.4730681e-07
9.380019e-09
3.5391086e-07
1.5362227e-08
4.8585568e-07
1.9641279e-08
5.6401107e-07
2.1456147e-08
6.0724803e-07
2.0682231e-08
6.29161e-07
1.7605261e-08
6.38829e-07
1.2740698e-08
6.4211324e-07
6.6720055e-09
6.4261452e-07
-2.7591701e-13
6.4241504e-07
-6.6725176e-09
6.4241506e-07
-1.2741179e-08
6.4261459e-07
-1.7605729e-08
6.4211334e-07
-2.0682694e-08
6.3882914e-07
-2.1456605e-08
6.2916118e-07
-1.9641724e-08
6.0724829e-07
-1.5362666e-08
5.6401137e-07
-9.3804343e-09
4.8585599e-07
-3.3486159e-09
3.5391104e-07
1.473064e-07
1.9792158e-09
1.4532753e-07
5.7885051e-09
3.5010149e-07
9.927213e-09
4.8171692e-07
1.3240193e-08
5.6069806e-07
1.4990744e-08
6.0549742e-07
1.486954e-08
6.2928216e-07
1.2932621e-08
6.4076583e-07
9.4994041e-09
6.4554642e-07
5.0174937e-09
6.4709638e-07
-2.4017812e-13
6.4743268e-07
-5.0179275e-09
6.4743271e-07
-9.4998292e-09
6.4709642e-07
-1.293304e-08
6.4554648e-07
-1.4869939e-08
6.4076595e-07
-1.4991134e-08
6.292823e-07
-1.3240614e-08
6.054976e-07
-9.9276145e-09
5.6069825e-07
-5.788892e-09
4.8171707e-07
-1.9794862e-09
3.5010148e-07
1.4532683e-07
1.1748962e-09
1.4415262e-07
3.5326774e-09
3.477437e-07
6.300039e-09
4.7894955e-07
8.7409164e-09
5.5825716e-07
1.0241046e-08
6.0399726e-07
1.043979e-08
6.2908342e-07
9.2684284e-09
6.4193723e-07
6.9041647e-09
6.4791066e-07
3.675951e-09
6.5032456e-07
-2.0298324e-13
6.5110882e-07
-3.6763458e-09
6.5110884e-07
-6.9045492e-09
6.5032457e-07
-9.2687899e-09
6.4791069e-07
-1.0440161e-08
6.4193725e-07
-1.0241415e-08
6.2908348e-07
-8.7412849e-09
6.0399736e-07
-6.3004032e-09
5.5825723e-07
-3.5330169e-09
4.7894956e-07
-1.1751495e-09
3.4774345e-07
1.4415165e-07
7.1862441e-10
1.4343398e-07
2.1663394e-09
3.4629597e-07
3.9795456e-09
4.7713635e-07
5.7138132e-09
5.5652289e-07
6.902936e-09
6.0280814e-07
7.2120509e-09
6.2877432e-07
6.5205509e-09
6.4262871e-07
4.9172917e-09
6.4951395e-07
2.637096e-09
6.5260473e-07
-1.7429123e-13
6.5374612e-07
-2.6374803e-09
6.5374612e-07
-4.9176302e-09
6.5260473e-07
-6.5209197e-09
6.4951392e-07
-7.2123852e-09
6.426287e-07
-6.9032915e-09
6.2877431e-07
-5.7141681e-09
6.0280819e-07
-3.9798745e-09
5.5652292e-07
-2.1666569e-09
4.7713624e-07
-7.1885269e-10
3.4629556e-07
1.4343278e-07
5.0941103e-10
1.4309558e-09
2.6525614e-09
3.8903563e-09
4.7973619e-09
5.0974226e-09
4.6634955e-09
3.5436601e-09
1.9109032e-09
-1.672333e-13
-1.91127e-09
-3.544027e-09
-4.6638519e-09
-5.0977452e-09
-4.797678e-09
-3.8906965e-09
-2.652871e-09
-1.4312222e-09
-5.0959089e-10
)
;

boundaryField
{
    Wall
    {
        type            calculated;
        value           uniform 0;
    }
    frontAndBack
    {
        type            empty;
        value           nonuniform 0();
    }
    atmosphere
    {
        type            calculated;
        value           nonuniform List<scalar> 
20
(
1.429246e-07
3.4537447e-07
4.7591473e-07
5.5528509e-07
6.0190117e-07
6.2847427e-07
6.4306268e-07
6.5063375e-07
6.5423752e-07
6.5565722e-07
6.5565719e-07
6.542375e-07
6.5063374e-07
6.4306264e-07
6.2847421e-07
6.0190117e-07
5.5528508e-07
4.7591456e-07
3.453739e-07
1.4292319e-07
)
;
    }
}


// ************************************************************************* //
