/*--------------------------------*- C++ -*----------------------------------*\
| =========                 |                                                 |
| \\      /  F ield         | OpenFOAM: The Open Source CFD Toolbox           |
|  \\    /   O peration     | Version:  3.0.1                                 |
|   \\  /    A nd           | Web:      www.OpenFOAM.org                      |
|    \\/     M anipulation  |                                                 |
\*---------------------------------------------------------------------------*/
FoamFile
{
    version     2.0;
    format      ascii;
    class       volScalarField;
    location    "30";
    object      Psi2;
}
// * * * * * * * * * * * * * * * * * * * * * * * * * * * * * * * * * * * * * //

dimensions      [0 -2 2 0 0 0 0];

internalField   nonuniform List<scalar> 
800
(
0.0006699578
0.00066989956
0.00066988978
0.00066988897
0.00066988919
0.00066988935
0.00066988936
0.00066988932
0.00066988927
0.00066988925
0.00066988924
0.00066988927
0.00066988932
0.00066988936
0.00066988934
0.00066988918
0.00066988897
0.00066988977
0.00066989956
0.0006699578
0.00067808003
0.00067749893
0.00067736325
0.00067733543
0.00067733553
0.00067734065
0.00067734501
0.0006773477
0.0006773491
0.00067734969
0.00067734969
0.0006773491
0.0006773477
0.00067734502
0.00067734066
0.00067733554
0.00067733544
0.00067736327
0.00067749895
0.00067808008
0.0006872097
0.00068624597
0.00068594239
0.00068587402
0.00068586691
0.00068587337
0.00068588022
0.00068588474
0.00068588718
0.00068588821
0.00068588821
0.00068588719
0.00068588475
0.00068588023
0.00068587338
0.00068586694
0.00068587404
0.00068594243
0.00068624602
0.00068720979
0.00069627365
0.0006949937
0.000694533
0.00069442777
0.00069441398
0.00069442131
0.00069443009
0.00069443601
0.00069443926
0.00069444062
0.00069444062
0.00069443927
0.00069443603
0.00069443011
0.00069442134
0.00069441402
0.00069442782
0.00069453305
0.00069499377
0.00069627377
0.00070439184
0.00070289068
0.00070229775
0.00070215909
0.00070214219
0.00070215165
0.00070216266
0.00070216999
0.000702174
0.00070217566
0.00070217566
0.00070217401
0.00070217001
0.00070216268
0.00070215168
0.00070214223
0.00070215914
0.00070229781
0.00070289076
0.00070439197
0.0007109441
0.00070933197
0.00070863716
0.00070846791
0.00070845268
0.00070846635
0.0007084804
0.00070848949
0.00070849439
0.0007084964
0.00070849641
0.0007084944
0.00070848951
0.00070848043
0.00070846639
0.00070845272
0.00070846796
0.00070863722
0.00070933205
0.00071094423
0.00071561619
0.00071397821
0.00071322036
0.0007130244
0.00071301575
0.00071303605
0.00071305426
0.0007130657
0.00071307181
0.0007130743
0.0007130743
0.00071307182
0.00071306572
0.00071305428
0.00071303608
0.0007130158
0.00071302445
0.00071322041
0.00071397828
0.00071561629
0.00071839454
0.00071677314
0.00071599892
0.00071578122
0.00071578333
0.00071581261
0.00071583624
0.00071585082
0.00071585856
0.00071586175
0.00071586175
0.00071585857
0.00071585084
0.00071583627
0.00071581264
0.00071578337
0.00071578125
0.00071599897
0.0007167732
0.00071839462
0.00071950374
0.00071787536
0.0007171321
0.00071689782
0.00071690939
0.0007169495
0.00071697984
0.00071699842
0.00071700828
0.00071701241
0.00071701241
0.00071700829
0.00071699843
0.00071697986
0.00071694953
0.00071690942
0.00071689785
0.00071713213
0.0007178754
0.0007195038
0.00071940073
0.00071766409
0.00071699124
0.00071674456
0.00071675594
0.00071680371
0.00071684201
0.00071686543
0.00071687793
0.00071688327
0.00071688327
0.00071687794
0.00071686544
0.00071684203
0.00071680373
0.00071675596
0.00071674458
0.00071699126
0.00071766411
0.00071940077
0.00071868329
0.00071665698
0.00071607373
0.00071581694
0.00071580824
0.00071585217
0.00071589969
0.0007159288
0.00071594446
0.00071595128
0.00071595128
0.00071594447
0.00071592882
0.0007158997
0.00071585219
0.00071580826
0.00071581695
0.00071607374
0.00071665699
0.00071868332
0.00071803875
0.00071546999
0.00071495159
0.00071468567
0.00071462783
0.00071464959
0.00071470771
0.00071474347
0.00071476291
0.00071477154
0.00071477154
0.00071476292
0.00071474349
0.00071470773
0.0007146496
0.00071462784
0.00071468568
0.0007149516
0.00071546999
0.00071803876
0.00071823446
0.00071481328
0.00071426529
0.00071399671
0.0007138533
0.00071383309
0.00071390349
0.00071394732
0.0007139663
0.00071397749
0.0007139775
0.00071396631
0.00071394734
0.00071390351
0.00071383311
0.00071385332
0.00071399672
0.0007142653
0.00071481328
0.00071823447
0.00072013976
0.00071549264
0.00071474547
0.00071447814
0.0007142076
0.00071413034
0.00071421503
0.00071426879
0.00071427925
0.00071429434
0.00071429434
0.00071427926
0.00071426882
0.00071421505
0.00071413036
0.00071420762
0.00071447816
0.00071474549
0.00071549265
0.00072013978
0.00072459586
0.00071827028
0.00071709481
0.00071680156
0.00071636204
0.00071622225
0.00071632752
0.0007164
0.00071639276
0.00071640179
0.00071640179
0.00071639278
0.00071640003
0.00071632755
0.00071622228
0.00071636208
0.00071680159
0.00071709484
0.00071827031
0.0007245959
0.00073053011
0.0007220047
0.00072010968
0.00071969149
0.00071904297
0.0007188539
0.00071901324
0.00071911708
0.00071908405
0.00071905517
0.00071905517
0.00071908407
0.00071911712
0.00071901329
0.00071885394
0.00071904301
0.00071969153
0.00072010973
0.00072200474
0.00073053018
0.00074063469
0.0007292003
0.00072624699
0.00072554285
0.00072463927
0.00072444428
0.0007247005
0.00072484066
0.00072477542
0.00072466159
0.0007246616
0.00072477546
0.0007248407
0.00072470055
0.00072444434
0.00072463933
0.00072554291
0.00072624705
0.00072920036
0.00074063479
0.00075643081
0.00074117822
0.00073674763
0.00073555021
0.00073429314
0.00073414653
0.00073453039
0.00073470895
0.00073462858
0.00073438587
0.00073438588
0.00073462861
0.00073470901
0.00073453046
0.00073414661
0.00073429321
0.00073555029
0.00073674772
0.0007411783
0.00075643092
0.00078011007
0.00075979036
0.00075331203
0.00075138129
0.00074962206
0.00074954708
0.00075005418
0.00075027322
0.00075019751
0.00074979859
0.0007497986
0.00075019755
0.00075027329
0.00075005426
0.00074954717
0.00074962215
0.00075138139
0.00075331213
0.00075979047
0.00078011018
0.00081504296
0.00078779945
0.00077842803
0.00077544182
0.00077299156
0.0007729146
0.00077350386
0.00077376732
0.00077367495
0.00077311195
0.00077311197
0.000773675
0.0007737674
0.00077350395
0.00077291469
0.00077299167
0.00077544192
0.00077842815
0.00078779956
0.00081504305
0.00086668871
0.00082964786
0.00081597466
0.00081143899
0.00080796612
0.0008077285
0.00080833724
0.00080865122
0.00080841206
0.00080769013
0.00080769015
0.0008084121
0.00080865131
0.00080833734
0.0008077286
0.00080796624
0.00081143911
0.00081597478
0.00082964794
0.0008666887
0.00094436619
0.0008928471
0.0008725027
0.00086545185
0.00086029779
0.00085969986
0.00086026651
0.00086063946
0.00086006143
0.00085918772
0.00085918774
0.00086006148
0.00086063955
0.00086026661
0.00085969997
0.0008602979
0.00086545196
0.0008725028
0.00089284712
0.00094436599
0.0010657062
0.00099098725
0.00095964916
0.00094818833
0.00094020585
0.00093878038
0.00093913773
0.00093958421
0.00093850056
0.00093747159
0.00093747161
0.00093850061
0.00093958429
0.00093913782
0.00093878049
0.00094020597
0.00094818842
0.00095964921
0.00099098711
0.0010657056
0.00126464
0.0011500679
0.0010996395
0.0010796401
0.0010672562
0.001063415
0.0010630678
0.0010636236
0.0010619209
0.0010607094
0.0010607094
0.0010619209
0.0010636237
0.0010630679
0.0010634151
0.0010672562
0.0010796402
0.0010996395
0.0011500675
0.0012646388
0.0016030545
0.0014186267
0.001331978
0.0012968958
0.00127578
0.0012673695
0.0012659627
0.0012667429
0.0012643817
0.001262948
0.0012629481
0.0012643817
0.0012667429
0.0012659628
0.0012673696
0.0012757801
0.0012968958
0.0013319778
0.0014186257
0.0016030519
0.0021844259
0.0018921015
0.0017450738
0.0016851062
0.0016407121
0.0016268847
0.001623984
0.0016250072
0.0016218199
0.0016200023
0.0016200023
0.0016218198
0.0016250072
0.0016239839
0.0016268846
0.0016407119
0.001685106
0.001745073
0.0018920989
0.0021844195
0.003133267
0.0026118357
0.0023462017
0.0022303515
0.0021709603
0.0021480579
0.0021430759
0.0021452142
0.0021419089
0.0021400556
0.0021400556
0.0021419087
0.002145214
0.0021430755
0.0021480575
0.0021709598
0.0022303507
0.0023461998
0.0026118304
0.0031332532
0.0047828379
0.0036418636
0.0031591663
0.0029413056
0.002837089
0.0027993687
0.002794183
0.0028011042
0.0028012607
0.0028013049
0.0028013048
0.0028012604
0.0028011037
0.0027941825
0.002799368
0.0028370883
0.002941304
0.0031591632
0.0036418553
0.0047828105
0.0072441585
0.0050162552
0.0041739877
0.0037967889
0.0036261562
0.003565114
0.0035619367
0.0035798555
0.0035899328
0.0035956287
0.0035956285
0.0035899322
0.0035798546
0.0035619358
0.0035651131
0.0036261551
0.0037967865
0.004173983
0.0050162446
0.0072441199
0.0095067928
0.0066169368
0.0053521392
0.0047713721
0.0045103161
0.0044207584
0.0044193018
0.0044526874
0.0044787253
0.004494071
0.0044940708
0.0044787245
0.0044526862
0.0044193007
0.0044207571
0.004510315
0.0047713698
0.0053521346
0.0066169273
0.0095067635
0.010588782
0.008157807
0.0065947209
0.0058151689
0.0054552829
0.0053292095
0.0053265619
0.0053744248
0.0054178309
0.0054443518
0.0054443516
0.0054178301
0.0053744235
0.0053265608
0.0053292082
0.005455282
0.0058151671
0.0065947172
0.008157799
0.010588771
0.010890682
0.0093658188
0.0077722309
0.0068606071
0.0064166717
0.0062535023
0.0062443511
0.006300598
0.0063573089
0.0063930423
0.0063930421
0.0063573083
0.0063005969
0.0062443503
0.0062535014
0.0064166712
0.0068606061
0.0077722284
0.0093658129
0.010890679
0.010951954
0.01014688
0.0087738761
0.0078354819
0.0073435297
0.0071514369
0.0071317192
0.0071882976
0.0072507685
0.0072912164
0.0072912163
0.0072507682
0.007188297
0.0071317188
0.0071514365
0.0073435297
0.0078354815
0.0087738744
0.010146877
0.010951953
0.010962379
0.01057878
0.0095445543
0.0086814861
0.0081873108
0.0079811027
0.00795
0.00799968
0.0080599575
0.0080999971
0.0080999971
0.0080599575
0.00799968
0.0079499999
0.0079811028
0.0081873112
0.0086814862
0.0095445532
0.010578778
0.010962379
0.010963987
0.010792442
0.010088319
0.0093669434
0.0089121377
0.0087087801
0.0086687128
0.0087070395
0.0087592041
0.0087947779
0.008794778
0.0087592044
0.0087070399
0.0086687131
0.0087087805
0.0089121383
0.0093669438
0.010088318
0.010792441
0.010963987
0.010964222
0.01089062
0.010445743
0.0098886951
0.0095007829
0.0093148497
0.0092701139
0.009296034
0.0093371837
0.0093660868
0.009366087
0.0093371842
0.0092960345
0.0092701144
0.0093148502
0.0095007835
0.0098886955
0.010445743
0.01089062
0.010964222
0.010964256
0.010933571
0.010667645
0.01026437
0.0099544061
0.0097953761
0.0097506885
0.0097656717
0.0097956071
0.0098173915
0.0098173918
0.0097956077
0.0097656724
0.0097506892
0.0097953767
0.0099544067
0.01026437
0.010667645
0.010933571
0.010964256
0.01096426
0.010951749
0.010799432
0.010522456
0.010288067
0.010159647
0.010118737
0.010125503
0.01014575
0.010161153
0.010161153
0.010145751
0.010125503
0.010118738
0.010159648
0.010288068
0.010522456
0.010799432
0.010951749
0.01096426
0.010964261
0.010959255
0.010874947
0.010692809
0.010523634
0.010424921
0.010390021
0.010391448
0.010404242
0.010414549
0.010414549
0.010404243
0.010391449
0.010390022
0.010424921
0.010523635
0.010692809
0.010874947
0.010959255
0.010964261
0.010964261
0.010962293
0.010916952
0.01080149
0.01068413
0.010611392
0.010583297
0.010581786
0.010589346
0.010595916
0.010595916
0.010589346
0.010581786
0.010583297
0.010611392
0.01068413
0.01080149
0.010916952
0.010962293
0.010964261
)
;

boundaryField
{
    Wall
    {
        type            calculated;
        value           nonuniform List<scalar> 
100
(
1e-20
1e-20
1e-20
1e-20
1e-20
1e-20
1e-20
1e-20
1e-20
1e-20
1e-20
1e-20
1e-20
1e-20
1e-20
1e-20
1e-20
9.9999999e-21
9.9999999e-21
9.9999999e-21
9.9999999e-21
9.9999999e-21
9.9999999e-21
9.9999999e-21
9.9999999e-21
1e-20
1e-20
1e-20
1e-20
1e-20
1e-20
1e-20
1e-20
1e-20
1e-20
1e-20
1e-20
1e-20
1e-20
1e-20
1e-20
1e-20
1e-20
1e-20
1e-20
1e-20
1e-20
1e-20
1e-20
1e-20
1e-20
1e-20
1e-20
1e-20
1e-20
1e-20
1e-20
9.9999999e-21
9.9999999e-21
9.9999999e-21
9.9999999e-21
9.9999999e-21
9.9999999e-21
9.9999999e-21
9.9999999e-21
1e-20
1e-20
1e-20
1e-20
1e-20
1e-20
1e-20
1e-20
1e-20
1e-20
1e-20
1e-20
1e-20
1e-20
1e-20
1e-20
1e-20
1e-20
1e-20
1e-20
1e-20
1e-20
1e-20
1e-20
1e-20
1e-20
1e-20
1e-20
1e-20
1e-20
1e-20
1e-20
1e-20
1e-20
1e-20
)
;
    }
    frontAndBack
    {
        type            empty;
    }
    atmosphere
    {
        type            calculated;
        value           uniform 1e-20;
    }
}


// ************************************************************************* //
