/*--------------------------------*- C++ -*----------------------------------*\
| =========                 |                                                 |
| \\      /  F ield         | OpenFOAM: The Open Source CFD Toolbox           |
|  \\    /   O peration     | Version:  3.0.1                                 |
|   \\  /    A nd           | Web:      www.OpenFOAM.org                      |
|    \\/     M anipulation  |                                                 |
\*---------------------------------------------------------------------------*/
FoamFile
{
    version     2.0;
    format      ascii;
    class       volScalarField;
    location    "30";
    object      rho;
}
// * * * * * * * * * * * * * * * * * * * * * * * * * * * * * * * * * * * * * //

dimensions      [1 -3 0 0 0 0 0];

internalField   nonuniform List<scalar> 
800
(
66.995782
66.989958
66.98898
66.988899
66.98892
66.988936
66.988938
66.988934
66.988929
66.988926
66.988926
66.988929
66.988934
66.988938
66.988936
66.98892
66.988898
66.988979
66.989957
66.995781
67.808004
67.749895
67.736327
67.733544
67.733554
67.734067
67.734503
67.734771
67.734912
67.73497
67.73497
67.734912
67.734772
67.734503
67.734067
67.733555
67.733545
67.736328
67.749897
67.808009
68.72097
68.624597
68.594239
68.587402
68.586691
68.587337
68.588022
68.588474
68.588718
68.588821
68.588821
68.588719
68.588475
68.588023
68.587338
68.586694
68.587404
68.594243
68.624602
68.720979
69.627358
69.499364
69.453294
69.442772
69.441392
69.442126
69.443003
69.443596
69.44392
69.444057
69.444057
69.443921
69.443597
69.443005
69.442128
69.441396
69.442776
69.453299
69.499371
69.62737
70.439162
70.289049
70.229757
70.215891
70.214201
70.215147
70.216248
70.216981
70.217382
70.217548
70.217548
70.217383
70.216983
70.21625
70.215151
70.214206
70.215896
70.229763
70.289057
70.439175
71.094363
70.933156
70.863676
70.846752
70.845229
70.846596
70.848001
70.84891
70.8494
70.849601
70.849601
70.849401
70.848912
70.848004
70.8466
70.845233
70.846757
70.863682
70.933164
71.094376
71.561532
71.397744
71.321963
71.302368
71.301504
71.303533
71.305354
71.306498
71.307109
71.307358
71.307358
71.30711
71.3065
71.305356
71.303537
71.301508
71.302373
71.321969
71.397751
71.561543
71.839311
71.677187
71.599773
71.578004
71.578215
71.581143
71.583506
71.584963
71.585737
71.586056
71.586056
71.585738
71.584965
71.583508
71.581146
71.578219
71.578007
71.599777
71.677193
71.83932
71.950157
71.787343
71.713028
71.689603
71.69076
71.694771
71.697805
71.699662
71.700648
71.701061
71.701061
71.700649
71.699663
71.697807
71.694773
71.690763
71.689606
71.713032
71.787347
71.950163
71.939762
71.76613
71.698864
71.6742
71.675338
71.680115
71.683944
71.686286
71.687535
71.688069
71.688069
71.687536
71.686287
71.683946
71.680116
71.67534
71.674202
71.698866
71.766132
71.939766
71.867904
71.665314
71.607017
71.581345
71.580475
71.584868
71.589619
71.59253
71.594095
71.594777
71.594777
71.594096
71.592531
71.58962
71.584869
71.580477
71.581346
71.607019
71.665315
71.867907
71.803314
71.546487
71.494692
71.468109
71.462325
71.4645
71.470311
71.473887
71.47583
71.476693
71.476693
71.475831
71.473888
71.470313
71.464501
71.462326
71.46811
71.494693
71.546487
71.803315
71.822731
71.480694
71.425942
71.39909
71.384745
71.382725
71.389764
71.394146
71.396043
71.397162
71.397162
71.396044
71.394147
71.389766
71.382726
71.384747
71.399091
71.425943
71.480694
71.822732
72.013034
71.548483
71.473758
71.446999
71.420024
71.412308
71.420776
71.426151
71.427196
71.428705
71.428705
71.427198
71.426154
71.420778
71.412311
71.420027
71.447
71.473759
71.548484
72.013036
72.458284
71.825011
71.708077
71.679015
71.63533
71.621343
71.631868
71.639115
71.63839
71.639293
71.639293
71.638392
71.639118
71.631872
71.621346
71.635333
71.679018
71.708079
71.825013
72.458288
73.051685
72.198257
72.009016
71.968055
71.903251
71.88434
71.900273
71.910654
71.907351
71.904462
71.904463
71.907353
71.910658
71.900277
71.884345
71.903255
71.968059
72.00902
72.198261
73.051692
74.0612
72.917794
72.62311
72.553181
72.462698
72.443196
72.468815
72.482828
72.476304
72.464921
72.464922
72.476307
72.482833
72.46882
72.443202
72.462704
72.553187
72.623116
72.917801
74.061209
75.640621
74.115872
73.673266
73.553718
73.427888
73.41322
73.451602
73.469456
73.461417
73.437146
73.437147
73.461421
73.469462
73.451609
73.413228
73.427896
73.553725
73.673275
74.115881
75.640632
78.009267
75.977451
75.329646
75.136308
74.960554
74.953049
75.003754
75.025656
75.018083
74.978191
74.978192
75.018087
75.025663
75.003762
74.953058
74.960564
75.136317
75.329657
75.977462
78.009279
81.502358
78.778301
77.841179
77.542302
77.297232
77.289534
77.348454
77.374797
77.365559
77.30926
77.309262
77.365564
77.374805
77.348463
77.289544
77.297243
77.542313
77.841191
78.778312
81.502367
86.666107
82.963053
81.595763
81.141813
80.794327
80.770555
80.831423
80.862819
80.838902
80.766711
80.766713
80.838907
80.862827
80.831433
80.770565
80.794339
81.141825
81.595775
82.963061
86.666106
94.431058
89.282334
87.24797
86.542134
86.026656
85.966875
86.023543
86.060841
86.003046
85.915682
85.915684
86.003051
86.06085
86.023553
85.966886
86.026668
86.542145
87.24798
89.282335
94.431038
106.5411
99.086426
95.956139
94.810701
94.012972
93.870653
93.906507
93.951218
93.842933
93.740077
93.74008
93.842937
93.951227
93.906516
93.870663
94.012983
94.810711
95.956144
99.086412
106.54105
125.92818
114.83861
109.87248
107.89069
106.66147
106.28134
106.24866
106.30533
106.13624
106.01569
106.01569
106.13625
106.30534
106.24867
106.28134
106.66148
107.8907
109.87247
114.83857
125.92808
133.94994
134.73045
129.77634
127.18218
125.49787
124.85138
124.80781
124.93836
124.75576
124.63836
124.63836
124.75577
124.93838
124.80784
124.85141
125.49791
127.18223
129.7764
134.73062
133.95097
46.363738
77.570123
91.526386
96.37881
98.65115
100.33945
101.55765
102.43115
103.00043
103.2585
103.25854
103.00056
102.43135
101.55794
100.3398
98.651578
96.379325
91.527079
77.571217
46.365007
3.9360272
9.5411882
14.241587
16.492255
18.123534
19.08753
19.703667
20.110626
20.457439
20.625006
20.625026
20.457501
20.110724
19.703804
19.087694
18.123724
16.492459
14.241829
9.5414364
3.9361838
1.2154693
1.3150794
1.451958
1.5351752
1.6056424
1.6490691
1.6767338
1.6948113
1.7117591
1.7201403
1.7201412
1.711762
1.6948158
1.6767401
1.6490764
1.6056502
1.5351829
1.4519658
1.3150848
1.2154709
1.2000033
1.2001145
1.2004042
1.200631
1.2008339
1.2009699
1.2010541
1.2011076
1.201162
1.2011894
1.2011894
1.201162
1.2011076
1.2010541
1.2009699
1.2008339
1.200631
1.2004042
1.2001145
1.2000033
1.2000002
1.2000002
1.2000002
1.2000001
1.2000002
1.2000002
1.2000002
1.2000002
1.2000002
1.2000002
1.2000002
1.2000002
1.2000002
1.2000002
1.2000002
1.2000002
1.2000001
1.2000002
1.2000002
1.2000002
1.2
1.2000002
1.2000002
1.2000002
1.2000002
1.2000002
1.2000002
1.2000002
1.2000002
1.2000002
1.2000002
1.2000002
1.2000002
1.2000002
1.2000002
1.2000002
1.2000002
1.2000002
1.2000002
1.2
1.2
1.2000001
1.2000002
1.2000002
1.2000002
1.2000003
1.2000003
1.2000003
1.2000003
1.2000003
1.2000003
1.2000003
1.2000003
1.2000003
1.2000003
1.2000002
1.2000002
1.2000002
1.2000001
1.2
1.2
1.2000001
1.2000002
1.2000002
1.2000003
1.2000003
1.2000003
1.2000003
1.2000003
1.2000003
1.2000003
1.2000003
1.2000003
1.2000003
1.2000003
1.2000003
1.2000002
1.2000002
1.2000001
1.2
1.2
1.2
1.2000002
1.2000002
1.2000003
1.2000003
1.2000004
1.2000004
1.2000004
1.2000004
1.2000004
1.2000004
1.2000004
1.2000004
1.2000003
1.2000003
1.2000002
1.2000002
1.2
1.2
1.2
1.2
1.2000001
1.2000002
1.2000003
1.2000003
1.2000004
1.2000004
1.2000004
1.2000004
1.2000004
1.2000004
1.2000004
1.2000004
1.2000003
1.2000003
1.2000002
1.2000001
1.2
1.2
1.2
1.2
1.2000001
1.2000002
1.2000003
1.2000003
1.2000004
1.2000004
1.2000004
1.2000004
1.2000004
1.2000004
1.2000004
1.2000004
1.2000003
1.2000003
1.2000002
1.2000001
1.2
1.2
1.2
1.2
1.2000001
1.2000002
1.2000003
1.2000003
1.2000003
1.2000003
1.2000003
1.2000003
1.2000003
1.2000003
1.2000003
1.2000003
1.2000003
1.2000003
1.2000002
1.2000001
1.2
1.2
1.2
1.2
1.2000001
1.2000001
1.2000002
1.2000003
1.2000003
1.2000003
1.2000003
1.2000003
1.2000003
1.2000003
1.2000003
1.2000003
1.2000003
1.2000002
1.2000001
1.2000001
1.2
1.2
1.2
1.2
1.2
1.2000001
1.2000002
1.2000002
1.2000002
1.2000003
1.2000003
1.2000002
1.2000002
1.2000003
1.2000003
1.2000002
1.2000002
1.2000002
1.2000001
1.2
1.2
1.2
1.2
1.2
1.2
1.2000001
1.2000001
1.2000002
1.2000002
1.2000002
1.2000002
1.2000002
1.2000002
1.2000002
1.2000002
1.2000002
1.2000002
1.2000001
1.2000001
1.2
1.2
1.2
)
;

boundaryField
{
    Wall
    {
        type            calculated;
        value           nonuniform List<scalar> 
100
(
1e-15
1.8813608e-12
3.3761602e-08
1.4989705e-07
4.0009365e-07
8.3526415e-07
1.5035114e-06
2.4480183e-06
3.7046119e-06
5.299237e-06
7.2470305e-06
9.564776e-06
1.2182725e-05
1.5990899e-05
2.1956588e-05
2.2164504e-05
3.739698e-05
3.9685812e-05
2.7202176e-05
2.8988744e-05
3.8830738e-05
7.1594948e-05
0.00033612016
0.0051331173
0.19877772
0.9505255
1.1894811
1.1999611
1.2
1.2
1.2
1.2
1.2
1.2
1.2
1.2
1.2
1.2
1.2
1.2
1e-15
9.1956076e-15
3.376091e-08
1.4989814e-07
4.0009769e-07
8.3527228e-07
1.5035243e-06
2.4480358e-06
3.7046331e-06
5.2992603e-06
7.2470546e-06
9.5647996e-06
1.2182749e-05
1.5990925e-05
2.1956613e-05
2.2164531e-05
3.739765e-05
3.968602e-05
2.7201784e-05
2.8988617e-05
3.8830519e-05
7.1593996e-05
0.00033610926
0.0051328388
0.19876826
0.95051777
1.1894804
1.1999611
1.2
1.2
1.2
1.2
1.2
1.2
1.2
1.2
1.2
1.2
1.2
1.2
1e-15
1e-15
1.0000005e-15
1.000001e-15
1e-15
1.0000013e-15
1.0000011e-15
1.0000001e-15
1e-15
1e-15
1.0000001e-15
1.0000001e-15
1e-15
1.0000001e-15
1.0000001e-15
1e-15
1e-15
1e-15
1e-15
1e-15
)
;
    }
    frontAndBack
    {
        type            empty;
    }
    atmosphere
    {
        type            calculated;
        value           nonuniform List<scalar> 
20
(
1.2
1.2
1.2
1.2
1.2
1.2
1.2
1.2
1.2
1.2
1.2
1.2
1.2
1.2
1.2
1.2
1.2
1.2
1.2
1.2
)
;
    }
}


// ************************************************************************* //
