/*--------------------------------*- C++ -*----------------------------------*\
| =========                 |                                                 |
| \\      /  F ield         | OpenFOAM: The Open Source CFD Toolbox           |
|  \\    /   O peration     | Version:  3.0.1                                 |
|   \\  /    A nd           | Web:      www.OpenFOAM.org                      |
|    \\/     M anipulation  |                                                 |
\*---------------------------------------------------------------------------*/
FoamFile
{
    version     2.0;
    format      ascii;
    class       volScalarField;
    location    "30";
    object      rho_foam;
}
// * * * * * * * * * * * * * * * * * * * * * * * * * * * * * * * * * * * * * //

dimensions      [1 -3 0 0 0 0 0];

internalField   nonuniform List<scalar> 
800
(
66.995782
66.989958
66.98898
66.988899
66.98892
66.988936
66.988938
66.988934
66.988929
66.988926
66.988926
66.988929
66.988934
66.988938
66.988936
66.98892
66.988898
66.988979
66.989957
66.995781
67.808004
67.749895
67.736327
67.733544
67.733554
67.734067
67.734503
67.734771
67.734912
67.73497
67.73497
67.734912
67.734772
67.734503
67.734067
67.733555
67.733545
67.736328
67.749897
67.808009
68.720972
68.624599
68.594241
68.587403
68.586693
68.587338
68.588023
68.588475
68.58872
68.588823
68.588823
68.588721
68.588476
68.588025
68.58734
68.586695
68.587406
68.594244
68.624604
68.720981
69.627366
69.499371
69.453301
69.442779
69.4414
69.442133
69.443011
69.443603
69.443928
69.444064
69.444064
69.443928
69.443604
69.443013
69.442136
69.441403
69.442783
69.453307
69.499378
69.627378
70.439185
70.28907
70.229776
70.21591
70.214221
70.215167
70.216267
70.217001
70.217401
70.217568
70.217568
70.217402
70.217003
70.21627
70.21517
70.214225
70.215915
70.229783
70.289078
70.439198
71.094412
70.933199
70.863717
70.846793
70.845269
70.846637
70.848042
70.84895
70.849441
70.849642
70.849642
70.849442
70.848952
70.848044
70.84664
70.845274
70.846798
70.863723
70.933207
71.094424
71.56162
71.397823
71.322038
71.302442
71.301577
71.303607
71.305428
71.306572
71.307183
71.307432
71.307432
71.307184
71.306573
71.30543
71.30361
71.301581
71.302446
71.322043
71.39783
71.561631
71.839455
71.677316
71.599894
71.578123
71.578335
71.581263
71.583626
71.585084
71.585858
71.586176
71.586176
71.585859
71.585085
71.583628
71.581266
71.578338
71.578127
71.599898
71.677321
71.839464
71.950376
71.787538
71.713212
71.689784
71.69094
71.694952
71.697986
71.699843
71.70083
71.701243
71.701243
71.700831
71.699845
71.697988
71.694954
71.690943
71.689787
71.713215
71.787542
71.950382
71.940075
71.76641
71.699126
71.674458
71.675595
71.680373
71.684203
71.686545
71.687795
71.688329
71.688329
71.687795
71.686546
71.684204
71.680375
71.675598
71.67446
71.699128
71.766413
71.940079
71.868331
71.6657
71.607375
71.581696
71.580826
71.585219
71.58997
71.592882
71.594448
71.59513
71.59513
71.594448
71.592883
71.589972
71.58522
71.580827
71.581697
71.607376
71.665701
71.868333
71.803877
71.547001
71.495161
71.468569
71.462785
71.46496
71.470773
71.474349
71.476293
71.477156
71.477156
71.476294
71.47435
71.470774
71.464962
71.462786
71.46857
71.495161
71.547001
71.803878
71.823448
71.48133
71.426531
71.399673
71.385332
71.383311
71.390351
71.394734
71.396632
71.397751
71.397751
71.396633
71.394735
71.390353
71.383312
71.385333
71.399674
71.426532
71.48133
71.823449
72.013977
71.549266
71.474549
71.447816
71.420762
71.413036
71.421505
71.426881
71.427927
71.429436
71.429436
71.427928
71.426883
71.421507
71.413038
71.420764
71.447817
71.47455
71.549267
72.01398
72.459587
71.82703
71.709483
71.680158
71.636206
71.622226
71.632753
71.640001
71.639278
71.64018
71.640181
71.63928
71.640005
71.632757
71.62223
71.636209
71.680161
71.709485
71.827032
72.459592
73.053013
72.200471
72.01097
71.969151
71.904299
71.885391
71.901326
71.91171
71.908407
71.905518
71.905519
71.908409
71.911713
71.901331
71.885396
71.904303
71.969155
72.010974
72.200476
73.053019
74.063471
72.920032
72.624701
72.554287
72.463928
72.44443
72.470051
72.484067
72.477544
72.466161
72.466162
72.477547
72.484072
72.470057
72.444436
72.463934
72.554293
72.624707
72.920038
74.06348
75.643083
74.117823
73.674765
73.555023
73.429316
73.414655
73.453041
73.470897
73.462859
73.438588
73.43859
73.462863
73.470903
73.453048
73.414662
73.429323
73.55503
73.674773
74.117832
75.643094
78.011008
75.979038
75.331204
75.138131
74.962208
74.95471
75.00542
75.027324
75.019753
74.979861
74.979862
75.019757
75.027331
75.005428
74.954718
74.962217
75.13814
75.331215
75.979048
78.01102
81.504298
78.779946
77.842805
77.544183
77.299158
77.291461
77.350387
77.376734
77.367497
77.311197
77.311199
77.367502
77.376742
77.350397
77.291471
77.299169
77.544194
77.842817
78.779957
81.504306
86.668873
82.964788
81.597468
81.143901
80.796614
80.772852
80.833726
80.865124
80.841208
80.769015
80.769017
80.841212
80.865133
80.833736
80.772862
80.796626
81.143913
81.59748
82.964796
86.668872
94.436621
89.284712
87.250272
86.545187
86.029781
85.969988
86.026653
86.063948
86.006145
85.918774
85.918776
86.00615
86.063957
86.026663
85.969999
86.029792
86.545198
87.250282
89.284713
94.436601
106.57062
99.098727
95.964918
94.818835
94.020587
93.878041
93.913776
93.958423
93.850059
93.747161
93.747164
93.850063
93.958432
93.913785
93.878051
94.020599
94.818844
95.964923
99.098713
106.57056
126.46401
115.0068
109.96395
107.96401
106.72562
106.3415
106.30678
106.36236
106.19209
106.07094
106.07095
106.19209
106.36237
106.30679
106.34151
106.72563
107.96402
109.96395
115.00675
126.46388
160.30545
141.86267
133.1978
129.68958
127.57801
126.73696
126.59628
126.67429
126.43817
126.29481
126.29481
126.43818
126.6743
126.59628
126.73696
127.57801
129.68958
133.19778
141.86257
160.30519
218.44259
189.21015
174.50738
168.51062
164.07121
162.68848
162.3984
162.50072
162.18199
162.00024
162.00024
162.18199
162.50072
162.39839
162.68847
164.07119
168.5106
174.5073
189.20989
218.44196
313.3267
261.18357
234.62017
223.03515
217.09603
214.80579
214.30759
214.52142
214.19089
214.00556
214.00556
214.19087
214.5214
214.30755
214.80575
217.09598
223.03507
234.61998
261.18304
313.32532
478.28379
364.18636
315.91663
294.13056
283.7089
279.93687
279.4183
280.11042
280.12607
280.13049
280.13048
280.12604
280.11037
279.41825
279.9368
283.70883
294.1304
315.91632
364.18554
478.28106
724.41585
501.62553
417.39877
379.67889
362.61562
356.5114
356.19367
357.98555
358.99328
359.56287
359.56285
358.99322
357.98546
356.19358
356.51131
362.61551
379.67866
417.3983
501.62446
724.412
950.67929
661.69368
535.21392
477.13721
451.03162
442.07584
441.93018
445.26874
447.87253
449.4071
449.40708
447.87245
445.26862
441.93007
442.07571
451.0315
477.13698
535.21346
661.69273
950.67635
1058.8782
815.7807
659.47209
581.5169
545.52829
532.92095
532.65619
537.44248
541.78309
544.43518
544.43516
541.78301
537.44235
532.65608
532.92083
545.5282
581.51671
659.47172
815.77991
1058.8771
1089.0682
936.58188
777.22309
686.06071
641.66718
625.35023
624.43511
630.0598
635.73089
639.30423
639.30421
635.73083
630.05969
624.43504
625.35014
641.66713
686.06061
777.22284
936.58129
1089.0679
1095.1954
1014.6881
877.38761
783.54819
734.35297
715.14369
713.17193
718.82976
725.07685
729.12164
729.12163
725.07683
718.8297
713.17188
715.14365
734.35297
783.54815
877.38744
1014.6877
1095.1953
1096.2379
1057.878
954.45543
868.14861
818.73108
798.11028
795
799.968
805.99575
809.99971
809.99971
805.99575
799.968
794.99999
798.11028
818.73112
868.14862
954.45532
1057.8778
1096.2379
1096.3987
1079.2442
1008.8319
936.69434
891.21377
870.87801
866.87128
870.70395
875.92041
879.47779
879.4778
875.92044
870.70399
866.87131
870.87805
891.21383
936.69438
1008.8318
1079.2441
1096.3987
1096.4222
1089.062
1044.5743
988.86951
950.07829
931.48497
927.01139
929.6034
933.71837
936.60868
936.6087
933.71842
929.60346
927.01144
931.48502
950.07835
988.86955
1044.5743
1089.062
1096.4222
1096.4256
1093.3571
1066.7645
1026.437
995.44061
979.53761
975.06885
976.56717
979.56071
981.73915
981.73918
979.56077
976.56724
975.06892
979.53767
995.44067
1026.437
1066.7645
1093.3571
1096.4256
1096.426
1095.1749
1079.9432
1052.2456
1028.8067
1015.9647
1011.8737
1012.5503
1014.575
1016.1153
1016.1153
1014.5751
1012.5503
1011.8738
1015.9648
1028.8068
1052.2456
1079.9432
1095.1749
1096.426
1096.4261
1095.9255
1087.4947
1069.2809
1052.3634
1042.4921
1039.0021
1039.1449
1040.4242
1041.4549
1041.4549
1040.4243
1039.1449
1039.0022
1042.4921
1052.3635
1069.2809
1087.4947
1095.9255
1096.4261
1096.4261
1096.2293
1091.6952
1080.149
1068.413
1061.1392
1058.3297
1058.1786
1058.9346
1059.5916
1059.5916
1058.9346
1058.1786
1058.3297
1061.1392
1068.413
1080.149
1091.6952
1096.2293
1096.4261
)
;

boundaryField
{
    Wall
    {
        type            zeroGradient;
    }
    frontAndBack
    {
        type            empty;
    }
    atmosphere
    {
        type            zeroGradient;
    }
}


// ************************************************************************* //
