/*--------------------------------*- C++ -*----------------------------------*\
| =========                 |                                                 |
| \\      /  F ield         | OpenFOAM: The Open Source CFD Toolbox           |
|  \\    /   O peration     | Version:  3.0.1                                 |
|   \\  /    A nd           | Web:      www.OpenFOAM.org                      |
|    \\/     M anipulation  |                                                 |
\*---------------------------------------------------------------------------*/
FoamFile
{
    version     2.0;
    format      ascii;
    class       volScalarField;
    location    "30";
    object      thermalDiffusivity;
}
// * * * * * * * * * * * * * * * * * * * * * * * * * * * * * * * * * * * * * //

dimensions      [0 2 -1 0 0 0 0];

internalField   nonuniform List<scalar> 
800
(
1.4620575e-07
1.4621381e-07
1.4621516e-07
1.4621527e-07
1.4621524e-07
1.4621522e-07
1.4621522e-07
1.4621522e-07
1.4621523e-07
1.4621523e-07
1.4621524e-07
1.4621523e-07
1.4621522e-07
1.4621522e-07
1.4621522e-07
1.4621524e-07
1.4621527e-07
1.4621516e-07
1.4621381e-07
1.4620575e-07
1.4508476e-07
1.4516363e-07
1.4518204e-07
1.451858e-07
1.4518577e-07
1.4518508e-07
1.4518448e-07
1.4518412e-07
1.4518393e-07
1.4518386e-07
1.4518386e-07
1.4518393e-07
1.4518412e-07
1.4518448e-07
1.4518507e-07
1.4518577e-07
1.4518579e-07
1.4518203e-07
1.4516363e-07
1.4508475e-07
1.4386864e-07
1.4399493e-07
1.4403472e-07
1.4404364e-07
1.4404454e-07
1.4404368e-07
1.4404279e-07
1.440422e-07
1.4404189e-07
1.4404176e-07
1.4404176e-07
1.4404189e-07
1.440422e-07
1.4404279e-07
1.4404368e-07
1.4404454e-07
1.4404363e-07
1.4403471e-07
1.4399493e-07
1.4386863e-07
1.4271753e-07
1.4287771e-07
1.4293555e-07
1.4294868e-07
1.4295034e-07
1.4294941e-07
1.4294831e-07
1.4294759e-07
1.429472e-07
1.4294705e-07
1.4294704e-07
1.429472e-07
1.4294759e-07
1.4294831e-07
1.429494e-07
1.4295034e-07
1.4294867e-07
1.4293554e-07
1.428777e-07
1.4271751e-07
1.417527e-07
1.4192951e-07
1.4200002e-07
1.4201645e-07
1.4201834e-07
1.4201719e-07
1.4201592e-07
1.420151e-07
1.4201466e-07
1.420145e-07
1.4201449e-07
1.4201466e-07
1.4201509e-07
1.4201591e-07
1.4201719e-07
1.4201833e-07
1.4201644e-07
1.42e-07
1.419295e-07
1.4175268e-07
1.4105337e-07
1.4122787e-07
1.4130465e-07
1.4132354e-07
1.4132501e-07
1.4132345e-07
1.4132195e-07
1.4132104e-07
1.4132059e-07
1.4132042e-07
1.4132041e-07
1.4132059e-07
1.4132104e-07
1.4132195e-07
1.4132345e-07
1.4132501e-07
1.4132353e-07
1.4130464e-07
1.4122786e-07
1.4105335e-07
1.4065774e-07
1.4081416e-07
1.4088901e-07
1.4090933e-07
1.4090979e-07
1.409076e-07
1.4090583e-07
1.4090482e-07
1.4090434e-07
1.4090417e-07
1.4090416e-07
1.4090434e-07
1.4090482e-07
1.4090583e-07
1.409076e-07
1.4090978e-07
1.4090932e-07
1.40889e-07
1.4081416e-07
1.4065773e-07
1.405689e-07
1.4069649e-07
1.4075891e-07
1.4077927e-07
1.4077826e-07
1.4077528e-07
1.4077319e-07
1.4077207e-07
1.4077156e-07
1.4077139e-07
1.4077138e-07
1.4077156e-07
1.4077207e-07
1.4077319e-07
1.4077528e-07
1.4077826e-07
1.4077927e-07
1.407589e-07
1.4069649e-07
1.4056889e-07
1.4076389e-07
1.4085992e-07
1.408974e-07
1.4091589e-07
1.409137e-07
1.4090987e-07
1.4090744e-07
1.4090618e-07
1.4090565e-07
1.4090547e-07
1.4090547e-07
1.4090565e-07
1.4090618e-07
1.4090744e-07
1.4090987e-07
1.409137e-07
1.4091589e-07
1.408974e-07
1.4085992e-07
1.4076389e-07
1.4119373e-07
1.4126556e-07
1.412644e-07
1.4127799e-07
1.4127599e-07
1.4127192e-07
1.4126914e-07
1.4126776e-07
1.412672e-07
1.4126702e-07
1.4126702e-07
1.4126721e-07
1.4126776e-07
1.4126914e-07
1.4127192e-07
1.4127599e-07
1.41278e-07
1.412644e-07
1.4126557e-07
1.4119373e-07
1.4179246e-07
1.4186205e-07
1.4180665e-07
1.4180949e-07
1.4181034e-07
1.4180771e-07
1.4180461e-07
1.4180311e-07
1.4180255e-07
1.4180236e-07
1.4180236e-07
1.4180255e-07
1.4180311e-07
1.4180461e-07
1.4180771e-07
1.4181035e-07
1.4180949e-07
1.4180665e-07
1.4186206e-07
1.4179247e-07
1.4248464e-07
1.4258822e-07
1.4244946e-07
1.4244212e-07
1.4245067e-07
1.424523e-07
1.424489e-07
1.4244729e-07
1.4244672e-07
1.4244652e-07
1.4244652e-07
1.4244672e-07
1.4244729e-07
1.4244891e-07
1.424523e-07
1.4245068e-07
1.4244212e-07
1.4244946e-07
1.4258823e-07
1.4248464e-07
1.4316236e-07
1.4323023e-07
1.4308523e-07
1.4309242e-07
1.4312619e-07
1.4312789e-07
1.4312421e-07
1.4312243e-07
1.4312247e-07
1.4312222e-07
1.4312221e-07
1.4312247e-07
1.4312243e-07
1.4312421e-07
1.4312789e-07
1.431262e-07
1.4309242e-07
1.4308523e-07
1.4323023e-07
1.4316237e-07
1.4396264e-07
1.4382093e-07
1.439555e-07
1.4410853e-07
1.4377945e-07
1.4374284e-07
1.4373913e-07
1.4373711e-07
1.4373883e-07
1.4373841e-07
1.437384e-07
1.4373883e-07
1.4373712e-07
1.4373913e-07
1.4374284e-07
1.4377946e-07
1.4410852e-07
1.4395549e-07
1.4382093e-07
1.4396264e-07
1.4506084e-07
1.4916193e-07
1.4650018e-07
1.4532865e-07
1.4415611e-07
1.4420667e-07
1.4420249e-07
1.4419931e-07
1.4420376e-07
1.4420448e-07
1.4420447e-07
1.4420376e-07
1.4419931e-07
1.4420249e-07
1.4420667e-07
1.4415611e-07
1.453287e-07
1.4650013e-07
1.491619e-07
1.4506085e-07
1.4444784e-07
1.4963009e-07
1.4868083e-07
1.4476516e-07
1.4462531e-07
1.4466497e-07
1.4465576e-07
1.446501e-07
1.4465806e-07
1.4466382e-07
1.4466381e-07
1.4465806e-07
1.446501e-07
1.4465576e-07
1.4466497e-07
1.4462531e-07
1.4476523e-07
1.4868092e-07
1.4963028e-07
1.4444784e-07
1.4750473e-07
1.4884378e-07
1.4624692e-07
1.4408957e-07
1.4477994e-07
1.4482185e-07
1.4480296e-07
1.4479458e-07
1.4480654e-07
1.448228e-07
1.4482279e-07
1.4480654e-07
1.4479457e-07
1.4480296e-07
1.4482185e-07
1.4477995e-07
1.4408962e-07
1.4624704e-07
1.4884396e-07
1.475049e-07
1.4642419e-07
1.4602896e-07
1.4451181e-07
1.4377209e-07
1.4449535e-07
1.4454759e-07
1.4451767e-07
1.4450689e-07
1.4452036e-07
1.4455151e-07
1.445515e-07
1.4452036e-07
1.4450689e-07
1.4451766e-07
1.4454758e-07
1.4449533e-07
1.4377188e-07
1.445119e-07
1.4602864e-07
1.4642424e-07
1.404503e-07
1.4211228e-07
1.4276462e-07
1.4420732e-07
1.4364957e-07
1.4369232e-07
1.4365377e-07
1.4364127e-07
1.4365349e-07
1.4370094e-07
1.4370093e-07
1.4365349e-07
1.4364127e-07
1.4365377e-07
1.4369231e-07
1.4364957e-07
1.442073e-07
1.4276468e-07
1.4211236e-07
1.4045018e-07
1.3748975e-07
1.3916023e-07
1.4012539e-07
1.4160308e-07
1.4208287e-07
1.420992e-07
1.4205837e-07
1.4204451e-07
1.4205695e-07
1.4211847e-07
1.4211847e-07
1.4205695e-07
1.420445e-07
1.4205836e-07
1.4209919e-07
1.4208286e-07
1.4160316e-07
1.4012547e-07
1.3916031e-07
1.3748971e-07
1.3558215e-07
1.3509443e-07
1.3636605e-07
1.3845207e-07
1.3966552e-07
1.3973671e-07
1.3969808e-07
1.3968065e-07
1.3970231e-07
1.3977176e-07
1.3977175e-07
1.3970231e-07
1.3968065e-07
1.3969807e-07
1.397367e-07
1.3966552e-07
1.3845207e-07
1.3636612e-07
1.3509451e-07
1.3558209e-07
1.3838069e-07
1.31561e-07
1.3312579e-07
1.3671218e-07
1.3750101e-07
1.375226e-07
1.3746017e-07
1.3742055e-07
1.3744311e-07
1.3750464e-07
1.3750464e-07
1.3744311e-07
1.3742054e-07
1.3746016e-07
1.3752258e-07
1.37501e-07
1.3671212e-07
1.3312556e-07
1.3156087e-07
1.3838046e-07
1.9921152e-07
1.5579583e-07
1.4753065e-07
1.4655023e-07
1.4558857e-07
1.4496816e-07
1.4453399e-07
1.4428369e-07
1.4411746e-07
1.4407388e-07
1.4407387e-07
1.4411743e-07
1.4428363e-07
1.4453391e-07
1.4496806e-07
1.4558844e-07
1.4655004e-07
1.4753008e-07
1.5579491e-07
1.9920876e-07
1.3604494e-06
5.5015973e-07
3.6481526e-07
3.1997179e-07
2.9726995e-07
2.8681126e-07
2.8109298e-07
2.7793289e-07
2.7490979e-07
2.7348386e-07
2.7348371e-07
2.7490934e-07
2.7793217e-07
2.8109188e-07
2.8680988e-07
2.9726815e-07
3.1996922e-07
3.6481096e-07
5.5014577e-07
1.3603819e-06
4.6802612e-05
1.4436382e-05
7.4535912e-06
5.6505056e-06
4.8054976e-06
4.3999297e-06
4.1867196e-06
4.0666128e-06
3.9533087e-06
3.8990629e-06
3.8990572e-06
3.9532907e-06
4.0665833e-06
4.1866754e-06
4.399875e-06
4.8054263e-06
5.6504001e-06
7.4534176e-06
1.4435844e-05
4.680039e-05
0.00027486724
0.00027501477
0.00013189306
0.00011895016
0.00011118005
0.00010702041
0.00010470143
0.00010336211
0.00010207039
0.0001014433
0.00010144323
0.00010207018
0.00010336175
0.00010470092
0.00010701979
0.00011117931
0.00011894929
0.00013189189
0.00027501477
0.00027486722
0.00027034145
0.00027050023
0.00027076504
0.0002710475
0.00027118147
0.00027139696
0.00027157239
0.00027170083
0.00027178416
0.00027182529
0.00027182529
0.00027178416
0.00027170083
0.00027157238
0.00027139695
0.00027118146
0.0002710475
0.00027076504
0.00027050022
0.00027034144
0.00026611444
0.00026631135
0.00026656843
0.00026683193
0.00026705526
0.00026726289
0.00026743224
0.00026755808
0.0002676407
0.00026768158
0.00026768158
0.0002676407
0.00026755807
0.00026743223
0.00026726288
0.00026705525
0.00026683193
0.00026656843
0.00026631134
0.00026611444
0.00026219621
0.00026244482
0.00026273597
0.00026301605
0.00026326189
0.00026347241
0.00026363968
0.00026376285
0.00026384353
0.00026388339
0.00026388339
0.00026384353
0.00026376285
0.00026363967
0.00026347241
0.00026326189
0.00026301605
0.00026273597
0.00026244482
0.00026219621
0.00025861969
0.00025890734
0.00025924241
0.00025955299
0.00025981845
0.00026003561
0.00026020477
0.0002603275
0.00026040712
0.00026044625
0.00026044625
0.00026040711
0.00026032749
0.00026020477
0.00026003561
0.00025981845
0.00025955299
0.0002592424
0.00025890734
0.00025861969
0.00025540369
0.00025571111
0.00025607908
0.00025641972
0.00025670657
0.00025693575
0.0002571106
0.00025723582
0.00025731623
0.00025735551
0.00025735551
0.00025731623
0.00025723582
0.0002571106
0.00025693575
0.00025670657
0.00025641971
0.00025607908
0.00025571111
0.00025540369
0.00025254619
0.00025285413
0.00025323783
0.00025359927
0.00025390446
0.00025414669
0.0002543296
0.00025445956
0.00025454244
0.00025458273
0.00025458273
0.00025454244
0.00025445956
0.0002543296
0.00025414669
0.00025390446
0.00025359927
0.00025323783
0.00025285413
0.00025254619
0.0002500306
0.00025032618
0.00025070899
0.00025107849
0.00025139468
0.00025164704
0.00025183768
0.00025197292
0.00025205903
0.00025210084
0.00025210084
0.00025205903
0.00025197292
0.00025183768
0.00025164704
0.00025139469
0.00025107849
0.000250709
0.00025032618
0.00025003061
0.00024783829
0.00024811355
0.00024848209
0.00024884696
0.00024916497
0.00024942199
0.0002496177
0.00024975718
0.00024984626
0.00024988957
0.00024988957
0.00024984626
0.00024975718
0.0002496177
0.00024942199
0.00024916498
0.00024884696
0.00024848209
0.00024811356
0.0002478383
0.00024595283
0.00024620313
0.00024654764
0.0002468971
0.0002472079
0.00024746318
0.00024766002
0.00024780158
0.00024789256
0.00024793696
0.00024793696
0.00024789256
0.00024780158
0.00024766002
0.00024746319
0.0002472079
0.0002468971
0.00024654765
0.00024620314
0.00024595283
0.00024436301
0.00024458572
0.00024489967
0.0002452256
0.00024552157
0.00024576911
0.00024596287
0.00024610384
0.0002461952
0.00024624002
0.00024624002
0.00024619521
0.00024610385
0.00024596288
0.00024576912
0.00024552158
0.0002452256
0.00024489968
0.00024458573
0.00024436301
0.0002430651
0.00024325893
0.00024353856
0.00024383563
0.00024411128
0.00024434633
0.00024453337
0.00024467126
0.00024476149
0.00024480601
0.00024480601
0.00024476149
0.00024467126
0.00024453338
0.00024434634
0.00024411129
0.00024383563
0.00024353856
0.00024325893
0.0002430651
0.00024206362
0.00024222854
0.0002424728
0.00024273894
0.00024299169
0.00024321165
0.00024338974
0.00024352285
0.00024361084
0.00024365451
0.00024365451
0.00024361084
0.00024352285
0.00024338974
0.00024321165
0.00024299169
0.00024273895
0.00024247281
0.00024222854
0.00024206362
0.00024137213
0.00024151035
0.00024172209
0.00024195955
0.00024219065
0.00024239593
0.00024256495
0.00024269295
0.00024277834
0.00024282097
0.00024282097
0.00024277834
0.00024269295
0.00024256495
0.00024239594
0.00024219065
0.00024195956
0.0002417221
0.00024151036
0.00024137214
0.0002410128
0.00024113151
0.00024132041
0.00024153807
0.00024175429
0.00024194946
0.00024211214
0.00024223649
0.00024231999
0.00024236184
0.00024236184
0.00024231999
0.00024223649
0.00024211214
0.00024194946
0.0002417543
0.00024153808
0.00024132041
0.00024113152
0.00024101281
)
;

boundaryField
{
    Wall
    {
        type            calculated;
        value           uniform 4e-05;
    }
    frontAndBack
    {
        type            empty;
    }
    atmosphere
    {
        type            calculated;
        value           uniform 4e-05;
    }
}


// ************************************************************************* //
