/*--------------------------------*- C++ -*----------------------------------*\
| =========                 |                                                 |
| \\      /  F ield         | OpenFOAM: The Open Source CFD Toolbox           |
|  \\    /   O peration     | Version:  3.0.1                                 |
|   \\  /    A nd           | Web:      www.OpenFOAM.org                      |
|    \\/     M anipulation  |                                                 |
\*---------------------------------------------------------------------------*/
FoamFile
{
    version     2.0;
    format      ascii;
    class       volScalarField;
    location    "30";
    object      thermalDiff_foam;
}
// * * * * * * * * * * * * * * * * * * * * * * * * * * * * * * * * * * * * * //

dimensions      [0 2 -1 0 0 0 0];

internalField   nonuniform List<scalar> 
800
(
1.4620575e-07
1.4621381e-07
1.4621516e-07
1.4621527e-07
1.4621524e-07
1.4621522e-07
1.4621522e-07
1.4621522e-07
1.4621523e-07
1.4621523e-07
1.4621524e-07
1.4621523e-07
1.4621522e-07
1.4621522e-07
1.4621522e-07
1.4621524e-07
1.4621527e-07
1.4621516e-07
1.4621381e-07
1.4620575e-07
1.4508476e-07
1.4516363e-07
1.4518203e-07
1.4518579e-07
1.4518577e-07
1.4518507e-07
1.4518448e-07
1.4518412e-07
1.4518393e-07
1.4518385e-07
1.4518385e-07
1.4518393e-07
1.4518411e-07
1.4518448e-07
1.4518507e-07
1.4518577e-07
1.4518579e-07
1.4518203e-07
1.4516362e-07
1.4508475e-07
1.4385988e-07
1.439871e-07
1.440272e-07
1.4403621e-07
1.4403713e-07
1.4403627e-07
1.4403536e-07
1.4403476e-07
1.4403444e-07
1.4403431e-07
1.4403431e-07
1.4403444e-07
1.4403476e-07
1.4403536e-07
1.4403626e-07
1.4403712e-07
1.440362e-07
1.4402719e-07
1.4398709e-07
1.4385987e-07
1.4267875e-07
1.4284314e-07
1.429024e-07
1.429159e-07
1.4291765e-07
1.4291669e-07
1.4291556e-07
1.429148e-07
1.4291438e-07
1.4291421e-07
1.4291421e-07
1.4291438e-07
1.429148e-07
1.4291556e-07
1.4291669e-07
1.4291764e-07
1.429159e-07
1.429024e-07
1.4284313e-07
1.4267873e-07
1.4164942e-07
1.4183756e-07
1.4191204e-07
1.4192942e-07
1.4193151e-07
1.419303e-07
1.4192891e-07
1.4192799e-07
1.4192749e-07
1.4192728e-07
1.4192728e-07
1.4192748e-07
1.4192799e-07
1.4192891e-07
1.4193029e-07
1.419315e-07
1.4192941e-07
1.4191203e-07
1.4183755e-07
1.4164941e-07
1.4083802e-07
1.4103612e-07
1.4112173e-07
1.4114257e-07
1.411444e-07
1.4114269e-07
1.4114095e-07
1.4113983e-07
1.4113923e-07
1.4113898e-07
1.4113898e-07
1.4113923e-07
1.4113983e-07
1.4114095e-07
1.4114269e-07
1.411444e-07
1.4114256e-07
1.4112173e-07
1.4103611e-07
1.4083801e-07
1.402701e-07
1.4046862e-07
1.4056072e-07
1.4058455e-07
1.4058554e-07
1.4058305e-07
1.4058082e-07
1.4057943e-07
1.4057869e-07
1.4057838e-07
1.4057838e-07
1.4057869e-07
1.4057943e-07
1.4058082e-07
1.4058304e-07
1.4058554e-07
1.4058454e-07
1.4056072e-07
1.4046861e-07
1.4027009e-07
1.3993692e-07
1.4013196e-07
1.4022525e-07
1.4025153e-07
1.4025121e-07
1.4024765e-07
1.4024478e-07
1.4024302e-07
1.4024209e-07
1.402417e-07
1.402417e-07
1.4024208e-07
1.4024302e-07
1.4024478e-07
1.4024764e-07
1.4025121e-07
1.4025152e-07
1.4022524e-07
1.4013195e-07
1.3993691e-07
1.3980492e-07
1.4000055e-07
1.4008977e-07
1.40118e-07
1.4011655e-07
1.4011169e-07
1.4010803e-07
1.4010579e-07
1.401046e-07
1.4010411e-07
1.4010411e-07
1.401046e-07
1.4010579e-07
1.4010803e-07
1.4011169e-07
1.4011655e-07
1.4011799e-07
1.4008977e-07
1.4000054e-07
1.3980491e-07
1.3981633e-07
1.4002574e-07
1.4010653e-07
1.4013629e-07
1.4013492e-07
1.4012915e-07
1.4012453e-07
1.401217e-07
1.4012019e-07
1.4011955e-07
1.4011955e-07
1.4012019e-07
1.401217e-07
1.4012452e-07
1.4012915e-07
1.4013492e-07
1.4013629e-07
1.4010653e-07
1.4002574e-07
1.3981633e-07
1.3989836e-07
1.4014427e-07
1.4021452e-07
1.4024562e-07
1.4024679e-07
1.4024152e-07
1.4023576e-07
1.4023224e-07
1.4023035e-07
1.4022952e-07
1.4022952e-07
1.4023035e-07
1.4023224e-07
1.4023576e-07
1.4024152e-07
1.4024678e-07
1.4024562e-07
1.4021452e-07
1.4014427e-07
1.3989835e-07
1.3996752e-07
1.4028109e-07
1.4034397e-07
1.4037631e-07
1.4038361e-07
1.4038112e-07
1.4037406e-07
1.4036972e-07
1.4036735e-07
1.4036631e-07
1.4036631e-07
1.4036735e-07
1.4036971e-07
1.4037406e-07
1.4038112e-07
1.4038361e-07
1.4037631e-07
1.4034396e-07
1.4028109e-07
1.3996751e-07
1.3993015e-07
1.403488e-07
1.4041597e-07
1.4044869e-07
1.4046667e-07
1.4046941e-07
1.4046083e-07
1.4045549e-07
1.4045321e-07
1.4045184e-07
1.4045184e-07
1.404532e-07
1.4045549e-07
1.4046083e-07
1.404694e-07
1.4046667e-07
1.4044869e-07
1.4041596e-07
1.403488e-07
1.3993015e-07
1.3968102e-07
1.402479e-07
1.4034005e-07
1.4037257e-07
1.4040628e-07
1.4041606e-07
1.4040575e-07
1.4039921e-07
1.4039803e-07
1.4039619e-07
1.4039619e-07
1.4039803e-07
1.4039921e-07
1.4040575e-07
1.4041606e-07
1.4040628e-07
1.4037257e-07
1.4034004e-07
1.402479e-07
1.3968102e-07
1.3912364e-07
1.3988709e-07
1.4003138e-07
1.4006696e-07
1.4012116e-07
1.4013849e-07
1.4012575e-07
1.4011695e-07
1.4011802e-07
1.4011698e-07
1.4011697e-07
1.4011801e-07
1.4011695e-07
1.4012574e-07
1.4013849e-07
1.4012116e-07
1.4006696e-07
1.4003137e-07
1.3988709e-07
1.3912363e-07
1.3839414e-07
1.3940828e-07
1.396385e-07
1.3968924e-07
1.3976826e-07
1.3979132e-07
1.397721e-07
1.3975958e-07
1.3976386e-07
1.3976755e-07
1.3976755e-07
1.3976386e-07
1.3975957e-07
1.3977209e-07
1.3979132e-07
1.3976826e-07
1.3968924e-07
1.3963849e-07
1.3940827e-07
1.3839413e-07
1.3719422e-07
1.3852018e-07
1.3887155e-07
1.3895588e-07
1.3906391e-07
1.3908712e-07
1.3905666e-07
1.3904006e-07
1.3904821e-07
1.3906214e-07
1.3906214e-07
1.3904821e-07
1.3904005e-07
1.3905665e-07
1.3908711e-07
1.3906391e-07
1.3895587e-07
1.3887154e-07
1.3852017e-07
1.3719421e-07
1.3539679e-07
1.3709604e-07
1.3760565e-07
1.3774487e-07
1.3789088e-07
1.3790771e-07
1.3786346e-07
1.3784295e-07
1.3785269e-07
1.3788126e-07
1.3788126e-07
1.3785269e-07
1.3784295e-07
1.3786345e-07
1.3790771e-07
1.3789088e-07
1.3774486e-07
1.3760564e-07
1.3709603e-07
1.3539678e-07
1.3285494e-07
1.3498821e-07
1.3569648e-07
1.3591047e-07
1.3610599e-07
1.3611429e-07
1.3605866e-07
1.3603467e-07
1.360436e-07
1.3608822e-07
1.3608821e-07
1.3604359e-07
1.3603466e-07
1.3605865e-07
1.3611429e-07
1.3610598e-07
1.3591046e-07
1.3569647e-07
1.349882e-07
1.3285493e-07
1.2939735e-07
1.3202353e-07
1.3297527e-07
1.3328396e-07
1.3353907e-07
1.335477e-07
1.3348761e-07
1.3346065e-07
1.3347111e-07
1.3352978e-07
1.3352978e-07
1.3347111e-07
1.3346064e-07
1.334876e-07
1.3354769e-07
1.3353906e-07
1.3328395e-07
1.3297526e-07
1.3202352e-07
1.2939734e-07
1.2483296e-07
1.2799589e-07
1.2924579e-07
1.2967059e-07
1.2999971e-07
1.3002371e-07
1.2996778e-07
1.299386e-07
1.2996278e-07
1.3003098e-07
1.3003098e-07
1.2996277e-07
1.2993859e-07
1.2996777e-07
1.300237e-07
1.299997e-07
1.2967058e-07
1.2924578e-07
1.2799589e-07
1.2483296e-07
1.1897497e-07
1.2267974e-07
1.2427972e-07
1.2485388e-07
1.2528068e-07
1.253329e-07
1.2528806e-07
1.2525786e-07
1.2530777e-07
1.2537978e-07
1.2537978e-07
1.2530776e-07
1.2525785e-07
1.2528805e-07
1.2533289e-07
1.2528067e-07
1.2485387e-07
1.2427971e-07
1.2267974e-07
1.1897498e-07
1.1166875e-07
1.158682e-07
1.1785252e-07
1.1861666e-07
1.1916032e-07
1.1926221e-07
1.1924153e-07
1.1921182e-07
1.1928789e-07
1.1935789e-07
1.1935789e-07
1.1928789e-07
1.1921181e-07
1.1924152e-07
1.1926221e-07
1.1916031e-07
1.1861665e-07
1.1785251e-07
1.1586821e-07
1.1166878e-07
1.0304192e-07
1.0752259e-07
1.0984384e-07
1.1083863e-07
1.1147137e-07
1.1167917e-07
1.1170229e-07
1.1167426e-07
1.1176398e-07
1.1182659e-07
1.1182658e-07
1.1176397e-07
1.1167425e-07
1.1170229e-07
1.1167916e-07
1.1147137e-07
1.1083863e-07
1.0984385e-07
1.0752261e-07
1.0304196e-07
9.3961602e-08
9.8198586e-08
1.0070283e-07
1.0182832e-07
1.0254469e-07
1.0284091e-07
1.0289353e-07
1.0286705e-07
1.0294949e-07
1.0299907e-07
1.0299907e-07
1.0294949e-07
1.0286705e-07
1.0289353e-07
1.0284091e-07
1.0254469e-07
1.0182832e-07
1.0070284e-07
9.8198613e-08
9.3961654e-08
0.00027486724
0.00027501477
9.1494337e-08
9.2498185e-08
9.3107106e-08
9.3362921e-08
9.3419901e-08
9.3401754e-08
9.3461787e-08
9.3495973e-08
9.3495973e-08
9.3461788e-08
9.3401754e-08
9.3419903e-08
9.3362923e-08
9.3107109e-08
9.2498189e-08
9.149435e-08
0.00027501477
0.00027486722
0.00027034145
0.00027050023
0.00027076504
0.0002710475
0.00027118147
0.00027139696
0.00027157239
0.00027170083
0.00027178416
0.00027182529
0.00027182529
0.00027178416
0.00027170083
0.00027157238
0.00027139695
0.00027118146
0.0002710475
0.00027076504
0.00027050022
0.00027034144
0.00026611444
0.00026631135
0.00026656843
0.00026683193
0.00026705526
0.00026726289
0.00026743224
0.00026755808
0.0002676407
0.00026768158
0.00026768158
0.0002676407
0.00026755807
0.00026743223
0.00026726288
0.00026705525
0.00026683193
0.00026656843
0.00026631134
0.00026611444
0.00026219621
0.00026244482
0.00026273597
0.00026301605
0.00026326189
0.00026347241
0.00026363968
0.00026376285
0.00026384353
0.00026388339
0.00026388339
0.00026384353
0.00026376285
0.00026363967
0.00026347241
0.00026326189
0.00026301605
0.00026273597
0.00026244482
0.00026219621
0.00025861969
0.00025890734
0.00025924241
0.00025955299
0.00025981845
0.00026003561
0.00026020477
0.0002603275
0.00026040712
0.00026044625
0.00026044625
0.00026040711
0.00026032749
0.00026020477
0.00026003561
0.00025981845
0.00025955299
0.0002592424
0.00025890734
0.00025861969
0.00025540369
0.00025571111
0.00025607908
0.00025641972
0.00025670657
0.00025693575
0.0002571106
0.00025723582
0.00025731623
0.00025735551
0.00025735551
0.00025731623
0.00025723582
0.0002571106
0.00025693575
0.00025670657
0.00025641971
0.00025607908
0.00025571111
0.00025540369
0.00025254619
0.00025285413
0.00025323783
0.00025359927
0.00025390446
0.00025414669
0.0002543296
0.00025445956
0.00025454244
0.00025458273
0.00025458273
0.00025454244
0.00025445956
0.0002543296
0.00025414669
0.00025390446
0.00025359927
0.00025323783
0.00025285413
0.00025254619
0.0002500306
0.00025032618
0.00025070899
0.00025107849
0.00025139468
0.00025164704
0.00025183768
0.00025197292
0.00025205903
0.00025210084
0.00025210084
0.00025205903
0.00025197292
0.00025183768
0.00025164704
0.00025139469
0.00025107849
0.000250709
0.00025032618
0.00025003061
0.00024783829
0.00024811355
0.00024848209
0.00024884696
0.00024916497
0.00024942199
0.0002496177
0.00024975718
0.00024984626
0.00024988957
0.00024988957
0.00024984626
0.00024975718
0.0002496177
0.00024942199
0.00024916498
0.00024884696
0.00024848209
0.00024811356
0.0002478383
0.00024595283
0.00024620313
0.00024654764
0.0002468971
0.0002472079
0.00024746318
0.00024766002
0.00024780158
0.00024789256
0.00024793696
0.00024793696
0.00024789256
0.00024780158
0.00024766002
0.00024746319
0.0002472079
0.0002468971
0.00024654765
0.00024620314
0.00024595283
0.00024436301
0.00024458572
0.00024489967
0.0002452256
0.00024552157
0.00024576911
0.00024596287
0.00024610384
0.0002461952
0.00024624002
0.00024624002
0.00024619521
0.00024610385
0.00024596288
0.00024576912
0.00024552158
0.0002452256
0.00024489968
0.00024458573
0.00024436301
0.0002430651
0.00024325893
0.00024353856
0.00024383563
0.00024411128
0.00024434633
0.00024453337
0.00024467126
0.00024476149
0.00024480601
0.00024480601
0.00024476149
0.00024467126
0.00024453338
0.00024434634
0.00024411129
0.00024383563
0.00024353856
0.00024325893
0.0002430651
0.00024206362
0.00024222854
0.0002424728
0.00024273894
0.00024299169
0.00024321165
0.00024338974
0.00024352285
0.00024361084
0.00024365451
0.00024365451
0.00024361084
0.00024352285
0.00024338974
0.00024321165
0.00024299169
0.00024273895
0.00024247281
0.00024222854
0.00024206362
0.00024137213
0.00024151035
0.00024172209
0.00024195955
0.00024219065
0.00024239593
0.00024256495
0.00024269295
0.00024277834
0.00024282097
0.00024282097
0.00024277834
0.00024269295
0.00024256495
0.00024239594
0.00024219065
0.00024195956
0.0002417221
0.00024151036
0.00024137214
0.0002410128
0.00024113151
0.00024132041
0.00024153807
0.00024175429
0.00024194946
0.00024211214
0.00024223649
0.00024231999
0.00024236184
0.00024236184
0.00024231999
0.00024223649
0.00024211214
0.00024194946
0.0002417543
0.00024153808
0.00024132041
0.00024113152
0.00024101281
)
;

boundaryField
{
    Wall
    {
        type            calculated;
        value           uniform 4e-05;
    }
    frontAndBack
    {
        type            empty;
    }
    atmosphere
    {
        type            calculated;
        value           uniform 4e-05;
    }
}


// ************************************************************************* //
