/*--------------------------------*- C++ -*----------------------------------*\
| =========                 |                                                 |
| \\      /  F ield         | OpenFOAM: The Open Source CFD Toolbox           |
|  \\    /   O peration     | Version:  3.0.1                                 |
|   \\  /    A nd           | Web:      www.OpenFOAM.org                      |
|    \\/     M anipulation  |                                                 |
\*---------------------------------------------------------------------------*/
FoamFile
{
    version     2.0;
    format      ascii;
    class       volScalarField;
    location    "30";
    object      thermalDiff_gas;
}
// * * * * * * * * * * * * * * * * * * * * * * * * * * * * * * * * * * * * * //

dimensions      [0 2 -1 0 0 0 0];

internalField   nonuniform List<scalar> 
800
(
0.00031411624
0.00031413055
0.00031413385
0.00031413437
0.00031413444
0.00031413447
0.00031413451
0.00031413455
0.00031413459
0.00031413461
0.00031413461
0.00031413459
0.00031413455
0.00031413451
0.00031413447
0.00031413444
0.00031413438
0.00031413385
0.00031413055
0.00031411624
0.00031277998
0.00031286914
0.0003128959
0.00031290278
0.00031290385
0.00031290343
0.00031290281
0.00031290235
0.00031290208
0.00031290195
0.00031290195
0.00031290207
0.00031290235
0.00031290281
0.00031290343
0.00031290385
0.00031290278
0.0003128959
0.00031286914
0.00031277997
0.00031157289
0.00031171188
0.0003117618
0.00031177555
0.00031177828
0.00031177796
0.00031177708
0.00031177636
0.00031177592
0.00031177572
0.00031177572
0.00031177592
0.00031177636
0.00031177708
0.00031177795
0.00031177828
0.00031177554
0.00031176179
0.00031171187
0.00031157287
0.00031058834
0.00031076457
0.00031083328
0.00031085261
0.00031085668
0.00031085649
0.00031085549
0.00031085464
0.00031085411
0.00031085387
0.00031085387
0.00031085411
0.00031085464
0.00031085549
0.00031085649
0.00031085667
0.0003108526
0.00031083327
0.00031076456
0.00031058832
0.00030988706
0.00031008626
0.00031016964
0.00031019301
0.00031019783
0.00031019762
0.00031019648
0.00031019552
0.00031019493
0.00031019466
0.00031019466
0.00031019493
0.00031019552
0.00031019648
0.00031019762
0.00031019783
0.000310193
0.00031016963
0.00031008624
0.00030988704
0.00030951801
0.00030972348
0.00030981787
0.00030984384
0.00030984882
0.00030984833
0.00030984696
0.00030984586
0.00030984521
0.00030984491
0.00030984491
0.00030984521
0.00030984586
0.00030984696
0.00030984833
0.00030984882
0.00030984383
0.00030981786
0.00030972347
0.00030951799
0.00030952171
0.00030971582
0.00030981736
0.00030984466
0.00030984927
0.00030984821
0.00030984648
0.00030984517
0.00030984441
0.00030984407
0.00030984407
0.00030984441
0.00030984517
0.00030984647
0.00030984821
0.00030984926
0.00030984466
0.00030981735
0.00030971581
0.00030952169
0.0003099306
0.00031009648
0.00031020017
0.00031022783
0.00031023168
0.0003102298
0.00031022754
0.00031022592
0.000310225
0.00031022458
0.00031022458
0.000310225
0.00031022592
0.00031022754
0.0003102298
0.00031023168
0.00031022782
0.00031020017
0.00031009648
0.00030993059
0.00031076824
0.00031089165
0.00031099083
0.00031101826
0.00031102114
0.00031101826
0.00031101532
0.00031101324
0.00031101209
0.00031101156
0.00031101156
0.00031101209
0.00031101324
0.00031101532
0.00031101826
0.00031102114
0.00031101826
0.00031099083
0.00031089165
0.00031076824
0.0003120487
0.0003121197
0.00031220627
0.00031223353
0.00031223544
0.00031223138
0.00031222755
0.00031222487
0.0003122234
0.00031222271
0.00031222271
0.0003122234
0.00031222487
0.00031222756
0.00031223139
0.00031223544
0.00031223353
0.00031220628
0.00031211971
0.0003120487
0.00031377547
0.00031379015
0.00031385544
0.00031388351
0.00031388467
0.00031387924
0.00031387431
0.00031387086
0.00031386901
0.00031386812
0.00031386812
0.00031386901
0.00031387086
0.00031387431
0.00031387924
0.00031388468
0.00031388352
0.00031385544
0.00031379016
0.00031377548
0.00031593921
0.00031590017
0.00031593775
0.00031596898
0.00031596855
0.00031596155
0.00031595537
0.00031595101
0.00031594884
0.00031594771
0.00031594771
0.00031594884
0.00031595102
0.00031595538
0.00031596156
0.00031596856
0.00031596899
0.00031593776
0.00031590018
0.00031593922
0.00031851313
0.00031842841
0.0003184394
0.00031847637
0.00031847119
0.00031846274
0.00031845536
0.00031845002
0.00031844748
0.00031844612
0.00031844612
0.00031844748
0.00031845002
0.00031845536
0.00031846275
0.0003184712
0.00031847639
0.00031843942
0.00031842842
0.00031851315
0.00032144388
0.00032132892
0.00032132571
0.00032137011
0.00032135562
0.00032134653
0.00032133847
0.00032133225
0.00032132664
0.00032132515
0.00032132515
0.00032132665
0.00032133225
0.00032133847
0.00032134654
0.00032135563
0.00032137013
0.00032132573
0.00032132894
0.00032144391
0.00032462698
0.00032451305
0.00032451863
0.00032457297
0.00032454673
0.00032453919
0.00032453183
0.00032452536
0.0003245093
0.00032450775
0.00032450775
0.0003245093
0.00032452537
0.00032453184
0.0003245392
0.00032454674
0.00032457299
0.00032451866
0.00032451307
0.00032462701
0.00032788928
0.00032783501
0.00032787842
0.00032795022
0.00032791606
0.00032791442
0.00032790516
0.0003278999
0.00032786381
0.00032786226
0.00032786226
0.00032786382
0.0003278999
0.00032790517
0.00032791443
0.00032791608
0.00032795024
0.00032787845
0.00032783503
0.0003278893
0.00033098239
0.00033108444
0.00033119821
0.00033130431
0.00033127492
0.00033127784
0.0003312578
0.00033125651
0.00033119547
0.00033119446
0.00033119446
0.00033119547
0.00033125651
0.00033125781
0.00033127785
0.00033127493
0.00033130433
0.00033119823
0.00033108447
0.00033098242
0.0003335765
0.00033395589
0.00033417975
0.00033434945
0.00033434859
0.00033434845
0.00033431012
0.00033431724
0.00033422264
0.00033422371
0.00033422371
0.00033422264
0.00033431724
0.00033431013
0.00033434846
0.00033434861
0.00033434947
0.00033417978
0.00033395592
0.00033357653
0.00033519517
0.0003360068
0.00033639735
0.0003366728
0.00033671428
0.00033671124
0.00033666027
0.00033668203
0.00033654551
0.00033655142
0.00033655142
0.00033654551
0.00033668203
0.00033666028
0.00033671125
0.00033671429
0.00033667282
0.00033639737
0.00033600683
0.0003351952
0.00033511744
0.0003365858
0.00033723341
0.00033767365
0.00033773385
0.00033775074
0.00033771111
0.00033775548
0.0003375898
0.00033760464
0.00033760464
0.0003375898
0.00033775548
0.00033771112
0.00033775075
0.00033773386
0.00033767366
0.00033723343
0.00033658583
0.00033511748
0.00033231082
0.00033476044
0.00033580773
0.0003364117
0.00033650959
0.00033660943
0.00033662214
0.00033669909
0.00033654833
0.00033657727
0.00033657727
0.00033654834
0.00033669909
0.00033662215
0.00033660944
0.0003365096
0.00033641172
0.00033580775
0.00033476048
0.00033231088
0.00032537752
0.0003290914
0.00033076619
0.00033163145
0.00033188707
0.00033202475
0.00033217081
0.00033229622
0.00033221994
0.00033226866
0.00033226866
0.00033221994
0.00033229622
0.00033217082
0.00033202477
0.00033188709
0.00033163148
0.00033076623
0.00032909146
0.00032537763
0.00031265267
0.00031787251
0.00032046795
0.00032163897
0.00032222406
0.00032257589
0.00032270983
0.00032289401
0.00032293521
0.00032300832
0.00032300833
0.00032293521
0.00032289402
0.00032270985
0.00032257591
0.00032222409
0.00032163901
0.00032046801
0.00031787262
0.00031265285
0.00029405484
0.00029962611
0.00030325829
0.00030463596
0.00030577258
0.0003061708
0.00030643306
0.00030666968
0.00030682252
0.00030691702
0.00030691702
0.00030682253
0.0003066697
0.00030643309
0.00030617084
0.00030577263
0.00030463602
0.00030325837
0.00029962624
0.00029405498
0.00028206913
0.00028287774
0.00028377046
0.00028443988
0.00028582868
0.0002861927
0.00028643617
0.00028660494
0.00028672179
0.00028678148
0.00028678148
0.00028672179
0.00028660495
0.00028643617
0.00028619271
0.00028582868
0.00028443989
0.00028377047
0.00028287776
0.00028206913
0.00027486724
0.00027501477
0.00027536156
0.00027578431
0.00027665759
0.0002770421
0.00027725377
0.0002773938
0.00027748477
0.00027752951
0.00027752951
0.00027748477
0.0002773938
0.00027725376
0.0002770421
0.00027665758
0.0002757843
0.00027536155
0.00027501477
0.00027486722
0.00027034145
0.00027050023
0.00027076504
0.0002710475
0.00027118147
0.00027139696
0.00027157239
0.00027170083
0.00027178416
0.00027182529
0.00027182529
0.00027178416
0.00027170083
0.00027157238
0.00027139695
0.00027118146
0.0002710475
0.00027076504
0.00027050022
0.00027034144
0.00026611444
0.00026631135
0.00026656843
0.00026683193
0.00026705526
0.00026726289
0.00026743224
0.00026755808
0.0002676407
0.00026768158
0.00026768158
0.0002676407
0.00026755807
0.00026743223
0.00026726288
0.00026705525
0.00026683193
0.00026656843
0.00026631134
0.00026611444
0.00026219621
0.00026244482
0.00026273597
0.00026301605
0.00026326189
0.00026347241
0.00026363968
0.00026376285
0.00026384353
0.00026388339
0.00026388339
0.00026384353
0.00026376285
0.00026363967
0.00026347241
0.00026326189
0.00026301605
0.00026273597
0.00026244482
0.00026219621
0.00025861969
0.00025890734
0.00025924241
0.00025955299
0.00025981845
0.00026003561
0.00026020477
0.0002603275
0.00026040712
0.00026044625
0.00026044625
0.00026040711
0.00026032749
0.00026020477
0.00026003561
0.00025981845
0.00025955299
0.0002592424
0.00025890734
0.00025861969
0.00025540369
0.00025571111
0.00025607908
0.00025641972
0.00025670657
0.00025693575
0.0002571106
0.00025723582
0.00025731623
0.00025735551
0.00025735551
0.00025731623
0.00025723582
0.0002571106
0.00025693575
0.00025670657
0.00025641971
0.00025607908
0.00025571111
0.00025540369
0.00025254619
0.00025285413
0.00025323783
0.00025359927
0.00025390446
0.00025414669
0.0002543296
0.00025445956
0.00025454244
0.00025458273
0.00025458273
0.00025454244
0.00025445956
0.0002543296
0.00025414669
0.00025390446
0.00025359927
0.00025323783
0.00025285413
0.00025254619
0.0002500306
0.00025032618
0.00025070899
0.00025107849
0.00025139468
0.00025164704
0.00025183768
0.00025197292
0.00025205903
0.00025210084
0.00025210084
0.00025205903
0.00025197292
0.00025183768
0.00025164704
0.00025139469
0.00025107849
0.000250709
0.00025032618
0.00025003061
0.00024783829
0.00024811355
0.00024848209
0.00024884696
0.00024916497
0.00024942199
0.0002496177
0.00024975718
0.00024984626
0.00024988957
0.00024988957
0.00024984626
0.00024975718
0.0002496177
0.00024942199
0.00024916498
0.00024884696
0.00024848209
0.00024811356
0.0002478383
0.00024595283
0.00024620313
0.00024654764
0.0002468971
0.0002472079
0.00024746318
0.00024766002
0.00024780158
0.00024789256
0.00024793696
0.00024793696
0.00024789256
0.00024780158
0.00024766002
0.00024746319
0.0002472079
0.0002468971
0.00024654765
0.00024620314
0.00024595283
0.00024436301
0.00024458572
0.00024489967
0.0002452256
0.00024552157
0.00024576911
0.00024596287
0.00024610384
0.0002461952
0.00024624002
0.00024624002
0.00024619521
0.00024610385
0.00024596288
0.00024576912
0.00024552158
0.0002452256
0.00024489968
0.00024458573
0.00024436301
0.0002430651
0.00024325893
0.00024353856
0.00024383563
0.00024411128
0.00024434633
0.00024453337
0.00024467126
0.00024476149
0.00024480601
0.00024480601
0.00024476149
0.00024467126
0.00024453338
0.00024434634
0.00024411129
0.00024383563
0.00024353856
0.00024325893
0.0002430651
0.00024206362
0.00024222854
0.0002424728
0.00024273894
0.00024299169
0.00024321165
0.00024338974
0.00024352285
0.00024361084
0.00024365451
0.00024365451
0.00024361084
0.00024352285
0.00024338974
0.00024321165
0.00024299169
0.00024273895
0.00024247281
0.00024222854
0.00024206362
0.00024137213
0.00024151035
0.00024172209
0.00024195955
0.00024219065
0.00024239593
0.00024256495
0.00024269295
0.00024277834
0.00024282097
0.00024282097
0.00024277834
0.00024269295
0.00024256495
0.00024239594
0.00024219065
0.00024195956
0.0002417221
0.00024151036
0.00024137214
0.0002410128
0.00024113151
0.00024132041
0.00024153807
0.00024175429
0.00024194946
0.00024211214
0.00024223649
0.00024231999
0.00024236184
0.00024236184
0.00024231999
0.00024223649
0.00024211214
0.00024194946
0.0002417543
0.00024153808
0.00024132041
0.00024113152
0.00024101281
)
;

boundaryField
{
    Wall
    {
        type            calculated;
        value           uniform 0.1;
    }
    frontAndBack
    {
        type            empty;
    }
    atmosphere
    {
        type            calculated;
        value           uniform 0.1;
    }
}


// ************************************************************************* //
