/*--------------------------------*- C++ -*----------------------------------*\
| =========                 |                                                 |
| \\      /  F ield         | OpenFOAM: The Open Source CFD Toolbox           |
|  \\    /   O peration     | Version:  3.0.1                                 |
|   \\  /    A nd           | Web:      www.OpenFOAM.org                      |
|    \\/     M anipulation  |                                                 |
\*---------------------------------------------------------------------------*/
FoamFile
{
    version     2.0;
    format      ascii;
    class       volScalarField;
    location    "30";
    object      thermalConductivity;
}
// * * * * * * * * * * * * * * * * * * * * * * * * * * * * * * * * * * * * * //

dimensions      [0 2 -1 0 0 0 0];

internalField   nonuniform List<scalar> 
800
(
0.017681814
0.017681251
0.017681156
0.017681149
0.017681151
0.017681152
0.017681152
0.017681152
0.017681152
0.017681151
0.017681151
0.017681152
0.017681152
0.017681152
0.017681152
0.017681151
0.017681149
0.017681156
0.017681251
0.017681814
0.017761187
0.017755533
0.017754215
0.017753946
0.017753948
0.017753998
0.01775404
0.017754066
0.01775408
0.017754085
0.017754085
0.01775408
0.017754066
0.01775404
0.017753998
0.017753948
0.017753946
0.017754215
0.017755533
0.017761188
0.017850394
0.017841005
0.017838051
0.017837388
0.01783732
0.017837384
0.01783745
0.017837494
0.017837518
0.017837528
0.017837528
0.017837518
0.017837494
0.017837451
0.017837384
0.017837321
0.017837388
0.017838052
0.017841005
0.017850394
0.017938974
0.01792649
0.017922002
0.017920981
0.017920849
0.017920921
0.017921007
0.017921064
0.017921096
0.017921109
0.017921109
0.017921096
0.017921064
0.017921007
0.017920921
0.017920849
0.017920981
0.017922003
0.01792649
0.017938975
0.018018309
0.018003656
0.017997874
0.017996526
0.017996364
0.017996458
0.017996566
0.017996637
0.017996676
0.017996692
0.017996692
0.017996676
0.017996637
0.017996566
0.017996458
0.017996365
0.017996526
0.017997874
0.018003656
0.01801831
0.018082308
0.018066562
0.018059781
0.018058133
0.018057988
0.018058124
0.018058261
0.01805835
0.018058398
0.018058417
0.018058417
0.018058398
0.01805835
0.018058261
0.018058124
0.018057989
0.018058134
0.018059782
0.018066563
0.01808231
0.018127893
0.018111884
0.018104484
0.018102572
0.018102493
0.018102693
0.018102871
0.018102983
0.018103043
0.018103067
0.018103067
0.018103043
0.018102983
0.018102872
0.018102693
0.018102493
0.018102573
0.018104484
0.018111885
0.018127894
0.018154947
0.018139082
0.018131522
0.018129396
0.018129421
0.01812971
0.018129941
0.018130084
0.018130159
0.018130191
0.018130191
0.01813016
0.018130084
0.018129942
0.01812971
0.018129422
0.018129396
0.018131523
0.018139083
0.018154947
0.018165729
0.018149763
0.018142507
0.018140215
0.018140332
0.018140727
0.018141025
0.018141206
0.018141303
0.018141343
0.018141343
0.018141303
0.018141206
0.018141025
0.018140727
0.018140333
0.018140216
0.018142507
0.018149763
0.018165729
0.018164795
0.018147712
0.018141146
0.018138731
0.018138842
0.01813931
0.018139685
0.018139915
0.018140037
0.018140089
0.018140089
0.018140037
0.018139915
0.018139686
0.01813931
0.018138842
0.018138731
0.018141146
0.018147712
0.018164796
0.018158093
0.018138084
0.01813239
0.018129873
0.018129779
0.018130205
0.018130671
0.018130956
0.018131109
0.018131176
0.018131176
0.018131109
0.018130956
0.018130671
0.018130205
0.018129779
0.018129873
0.01813239
0.018138084
0.018158093
0.018152453
0.018127006
0.018121927
0.018119318
0.018118729
0.01811893
0.0181195
0.01811985
0.01812004
0.018120125
0.018120125
0.018120041
0.01811985
0.0181195
0.01811893
0.018118729
0.018119318
0.018121927
0.018127006
0.018152453
0.018155499
0.018121537
0.018116122
0.018113487
0.018112041
0.018111821
0.018112511
0.01811294
0.018113124
0.018113234
0.018113234
0.018113124
0.01811294
0.018112511
0.018111821
0.018112041
0.018113487
0.018116123
0.018121537
0.018155499
0.018175883
0.018129689
0.018122244
0.018119619
0.018116903
0.018116115
0.018116945
0.018117472
0.018117568
0.018117716
0.018117716
0.018117568
0.018117472
0.018116946
0.018116115
0.018116903
0.01811962
0.018122244
0.018129689
0.018175883
0.018221966
0.018159013
0.018147254
0.01814436
0.018139958
0.018138552
0.018139586
0.0181403
0.018140214
0.018140298
0.018140298
0.018140214
0.0181403
0.018139587
0.018138552
0.018139959
0.01814436
0.018147254
0.018159013
0.018221967
0.0182833
0.01819835
0.018179375
0.018175208
0.01816873
0.018166842
0.018168416
0.018169441
0.01816909
0.018168788
0.018168788
0.01816909
0.018169442
0.018168416
0.018166842
0.01816873
0.018175208
0.018179375
0.01819835
0.018283301
0.018386785
0.018272619
0.018243029
0.018235968
0.018226944
0.018225009
0.018227549
0.018228935
0.018228254
0.018227092
0.018227092
0.018228254
0.018228935
0.01822755
0.01822501
0.018226945
0.018235969
0.01824303
0.018272619
0.018386786
0.018548172
0.0183954
0.01835093
0.018338886
0.018326302
0.018324854
0.018328662
0.018330427
0.018329589
0.01832713
0.01832713
0.018329589
0.018330428
0.018328663
0.018324855
0.018326303
0.018338887
0.01835093
0.0183954
0.018548173
0.018790506
0.018585975
0.018520713
0.018501243
0.018483552
0.018482803
0.018487826
0.018489995
0.018489188
0.018485157
0.018485157
0.018489188
0.018489995
0.018487827
0.018482804
0.018483553
0.018501244
0.018520714
0.018585976
0.018790507
0.019149904
0.018873635
0.018778638
0.018748379
0.01872357
0.018722734
0.01872856
0.018731178
0.018730162
0.018724471
0.018724471
0.018730162
0.018731178
0.018728561
0.018722735
0.018723571
0.01874838
0.018778639
0.018873636
0.019149904
0.019686262
0.019306505
0.019166518
0.019120143
0.019084618
0.019082041
0.019088049
0.019091187
0.019088587
0.019081261
0.019081261
0.019088587
0.019091188
0.01908805
0.019082042
0.019084619
0.019120144
0.019166519
0.019306506
0.019686262
0.0205051
0.019968149
0.019756767
0.019683621
0.019630135
0.019623643
0.019629217
0.019632977
0.019626766
0.019617823
0.019617823
0.019626767
0.019632978
0.019629218
0.019623644
0.019630137
0.019683622
0.019756768
0.019968149
0.020505098
0.02181402
0.021015378
0.020682539
0.020560937
0.020476505
0.020460868
0.020464038
0.020468595
0.020456937
0.020446238
0.020446238
0.020456937
0.020468596
0.020464039
0.020460869
0.020476506
0.020560938
0.02068254
0.021015377
0.021814013
0.02403169
0.022761591
0.022208727
0.021989556
0.021855174
0.021811857
0.021807062
0.021812876
0.021794291
0.021781366
0.021781366
0.021794292
0.021812877
0.021807062
0.021811858
0.021855174
0.021989556
0.022208726
0.022761587
0.024031675
0.028007883
0.025834258
0.024833405
0.024433556
0.024192884
0.024096295
0.024079309
0.024087851
0.024061304
0.024045399
0.024045399
0.024061305
0.024087851
0.02407931
0.024096296
0.024192885
0.024433556
0.024833403
0.025834246
0.028007851
0.024
0.024
0.029698816
0.028960865
0.028548242
0.028381959
0.028345462
0.028357065
0.028318757
0.028297037
0.028297037
0.028318756
0.028357065
0.028345461
0.028381958
0.02854824
0.028960862
0.029698807
0.024
0.024
0.024
0.024
0.024
0.024
0.024
0.024
0.024
0.024
0.024
0.024
0.024
0.024
0.024
0.024
0.024
0.024
0.024
0.024
0.024
0.024
0.024
0.024
0.024
0.024
0.024
0.024
0.024
0.024
0.024
0.024
0.024
0.024
0.024
0.024
0.024
0.024
0.024
0.024
0.024
0.024
0.024
0.024
0.024
0.024
0.024
0.024
0.024
0.024
0.024
0.024
0.024
0.024
0.024
0.024
0.024
0.024
0.024
0.024
0.024
0.024
0.024
0.024
0.024
0.024
0.024
0.024
0.024
0.024
0.024
0.024
0.024
0.024
0.024
0.024
0.024
0.024
0.024
0.024
0.024
0.024
0.024
0.024
0.024
0.024
0.024
0.024
0.024
0.024
0.024
0.024
0.024
0.024
0.024
0.024
0.024
0.024
0.024
0.024
0.024
0.024
0.024
0.024
0.024
0.024
0.024
0.024
0.024
0.024
0.024
0.024
0.024
0.024
0.024
0.024
0.024
0.024
0.024
0.024
0.024
0.024
0.024
0.024
0.024
0.024
0.024
0.024
0.024
0.024
0.024
0.024
0.024
0.024
0.024
0.024
0.024
0.024
0.024
0.024
0.024
0.024
0.024
0.024
0.024
0.024
0.024
0.024
0.024
0.024
0.024
0.024
0.024
0.024
0.024
0.024
0.024
0.024
0.024
0.024
0.024
0.024
0.024
0.024
0.024
0.024
0.024
0.024
0.024
0.024
0.024
0.024
0.024
0.024
0.024
0.024
0.024
0.024
0.024
0.024
0.024
0.024
0.024
0.024
0.024
0.024
0.024
0.024
0.024
0.024
0.024
0.024
0.024
0.024
0.024
0.024
0.024
0.024
0.024
0.024
0.024
0.024
0.024
0.024
0.024
0.024
0.024
0.024
0.024
0.024
0.024
0.024
0.024
0.024
0.024
0.024
0.024
0.024
0.024
0.024
0.024
0.024
0.024
0.024
0.024
0.024
0.024
0.024
0.024
0.024
0.024
0.024
0.024
0.024
0.024
0.024
0.024
0.024
0.024
0.024
0.024
0.024
0.024
0.024
0.024
0.024
0.024
0.024
0.024
0.024
0.024
0.024
0.024
0.024
0.024
0.024
0.024
0.024
0.024
0.024
0.024
0.024
0.024
0.024
0.024
0.024
0.024
0.024
0.024
0.024
0.024
0.024
0.024
0.024
0.024
0.024
0.024
0.024
0.024
0.024
0.024
0.024
)
;

boundaryField
{
    Wall
    {
        type            calculated;
        value           uniform 0.024;
    }
    frontAndBack
    {
        type            empty;
    }
    atmosphere
    {
        type            calculated;
        value           uniform 0.024;
    }
}


// ************************************************************************* //
