/*--------------------------------*- C++ -*----------------------------------*\
| =========                 |                                                 |
| \\      /  F ield         | OpenFOAM: The Open Source CFD Toolbox           |
|  \\    /   O peration     | Version:  3.0.1                                 |
|   \\  /    A nd           | Web:      www.OpenFOAM.org                      |
|    \\/     M anipulation  |                                                 |
\*---------------------------------------------------------------------------*/
FoamFile
{
    version     2.0;
    format      ascii;
    class       volScalarField;
    location    "30";
    object      TS;
}
// * * * * * * * * * * * * * * * * * * * * * * * * * * * * * * * * * * * * * //

dimensions      [0 0 0 1 0 0 0];

internalField   nonuniform List<scalar> 
800
(
354.11403
354.12304
354.12512
354.12545
354.1255
354.12551
354.12554
354.12557
354.12559
354.1256
354.1256
354.12559
354.12557
354.12554
354.12551
354.1255
354.12545
354.12512
354.12304
354.11403
353.28191
353.33778
353.35459
353.35893
353.35962
353.35936
353.35897
353.35868
353.35851
353.35843
353.35843
353.35851
353.35868
353.35897
353.35936
353.35962
353.35893
353.35459
353.33778
353.2819
352.52916
352.61633
352.64771
352.65638
352.65811
352.65792
352.65738
352.65693
352.65665
352.65652
352.65652
352.65665
352.65693
352.65737
352.65792
352.65811
352.65637
352.6477
352.61632
352.52915
351.9145
352.02509
352.0683
352.0805
352.08308
352.08298
352.08236
352.08182
352.08149
352.08134
352.08134
352.08149
352.08182
352.08235
352.08298
352.08308
352.08049
352.0683
352.02508
351.91448
351.47621
351.6013
351.65375
351.6685
351.67157
351.67146
351.67075
351.67015
351.66978
351.66961
351.66961
351.66978
351.67015
351.67075
351.67146
351.67157
351.6685
351.65375
351.60129
351.4762
351.24529
351.37438
351.43376
351.45015
351.45333
351.45304
351.45218
351.4515
351.45109
351.4509
351.4509
351.45109
351.4515
351.45218
351.45304
351.45332
351.45015
351.43376
351.37437
351.24528
351.2474
351.36939
351.43324
351.45047
351.4534
351.45276
351.45168
351.45086
351.45039
351.45017
351.45017
351.45038
351.45086
351.45168
351.45276
351.4534
351.45046
351.43324
351.36939
351.2474
351.50311
351.60733
351.67249
351.68991
351.69237
351.69121
351.6898
351.68878
351.68821
351.68795
351.68795
351.68821
351.68878
351.6898
351.69121
351.69237
351.68991
351.67248
351.60732
351.5031
352.0273
352.10469
352.16697
352.18421
352.18604
352.18425
352.18241
352.18111
352.18039
352.18006
352.18006
352.18039
352.18111
352.18241
352.18425
352.18604
352.18421
352.16697
352.10469
352.0273
352.82883
352.873
352.92731
352.94436
352.94555
352.94302
352.94063
352.93895
352.93803
352.93761
352.93761
352.93804
352.93895
352.94063
352.94302
352.94555
352.94436
352.92732
352.873
352.82883
353.90983
353.91813
353.95902
353.97645
353.97714
353.97374
353.97065
353.9685
353.96735
353.96679
353.96679
353.96735
353.9685
353.97066
353.97374
353.97714
353.97646
353.95902
353.91813
353.90984
355.26441
355.23821
355.26159
355.28081
355.28048
355.27609
355.27222
355.2695
355.26814
355.26744
355.26744
355.26814
355.2695
355.27222
355.27609
355.28049
355.28082
355.2616
355.23822
355.26442
356.8759
356.81999
356.82634
356.84893
356.84566
356.84033
356.8357
356.83236
356.83077
356.82992
356.82992
356.83077
356.83237
356.83571
356.84033
356.84566
356.84894
356.82635
356.82
356.87591
358.71154
358.63522
358.63191
358.65891
358.64989
358.64411
358.63903
358.63513
358.63169
358.63075
358.63075
358.63169
358.63514
358.63904
358.64412
358.6499
358.65892
358.63193
358.63524
358.71155
360.70779
360.62989
360.63085
360.66376
360.64744
360.64252
360.63781
360.63372
360.62395
360.62297
360.62297
360.62395
360.63372
360.63781
360.64253
360.64745
360.66377
360.63087
360.6299
360.70781
362.7598
362.71559
362.73853
362.78186
362.76042
362.75897
362.7531
362.74968
362.72774
362.72674
362.72675
362.72774
362.74969
362.75311
362.75898
362.76043
362.78187
362.73854
362.7156
362.75982
364.71803
364.76573
364.83049
364.89432
364.87533
364.87663
364.86428
364.86319
364.82586
364.82516
364.82517
364.82586
364.86319
364.86428
364.87664
364.87534
364.89434
364.83051
364.76575
364.71804
366.3848
366.59786
366.72855
366.83052
366.82819
366.82769
366.80416
366.80805
366.75008
366.75057
366.75057
366.75008
366.80805
366.80416
366.8277
366.8282
366.83053
366.72857
366.59788
366.38481
367.47581
367.94844
368.1792
368.34487
368.36779
368.36528
368.33355
368.3462
368.26231
368.26564
368.26564
368.26231
368.3462
368.33356
368.36529
368.3678
368.34488
368.17921
367.94845
367.47583
367.56027
368.42943
368.81484
369.08009
369.11468
369.12334
369.09749
369.12375
369.02093
369.02959
369.02959
369.02093
369.12375
369.09749
369.12335
369.11469
369.0801
368.81485
368.42945
367.5603
366.01539
367.48158
368.1085
368.47505
368.53137
368.58846
368.59311
368.63913
368.54329
368.56044
368.56044
368.54329
368.63913
368.59312
368.58846
368.53138
368.47506
368.10851
367.48161
366.01543
361.98397
364.23247
365.2417
365.76749
365.91657
365.99747
366.0811
366.15669
366.10414
366.13341
366.13341
366.10414
366.15669
366.08111
365.99748
365.91659
365.76751
365.24172
364.23251
361.98404
354.40088
357.6079
359.18979
359.90509
360.25462
360.46098
360.54008
360.65248
360.6715
360.7161
360.7161
360.6715
360.65248
360.54009
360.461
360.25464
359.90511
359.18983
357.60797
354.40099
342.76155
346.46483
348.78014
349.65082
350.35311
350.59549
350.75362
350.90204
350.99418
351.05362
351.05362
350.99419
350.90205
350.75364
350.59551
350.35314
349.65086
348.7802
346.46492
342.76166
334.32862
334.89059
336.10944
336.64799
337.48759
337.74943
337.91857
338.03573
338.11828
338.16092
338.16092
338.11828
338.03573
337.91858
337.74943
337.4876
336.648
336.10945
334.8906
334.32862
329.55138
329.70486
330.30777
330.68477
331.11194
331.35634
331.50023
331.59276
331.65258
331.68191
331.68191
331.65258
331.59276
331.50023
331.35634
331.11194
330.68477
330.30776
329.70486
329.55137
326.60094
326.7014
326.79296
326.97141
327.13994
327.29071
327.40636
327.48924
327.54243
327.56857
327.56857
327.54243
327.48924
327.40635
327.2907
327.13994
326.9714
326.79295
326.7014
326.60094
323.83572
323.95739
324.106
324.27321
324.42807
324.5654
324.67594
324.7576
324.81101
324.8374
324.8374
324.81101
324.75759
324.67594
324.5654
324.42807
324.27321
324.106
323.95738
323.83572
321.26234
321.42005
321.60399
321.78388
321.94414
322.0813
322.19039
322.27078
322.32341
322.34941
322.34941
322.32341
322.27078
322.19039
322.08129
321.94414
321.78388
321.60398
321.42005
321.26234
318.9037
319.08977
319.30628
319.50757
319.68023
319.82186
319.9324
320.01275
320.06491
320.09056
320.09056
320.06491
320.01275
319.9324
319.82186
319.68023
319.50757
319.30628
319.08976
318.9037
316.77663
316.97779
317.21789
317.44004
317.62725
317.77704
317.8915
317.97358
318.02633
318.05211
318.05211
318.02633
317.97358
317.8915
317.77704
317.62725
317.44004
317.21789
316.97779
316.77662
314.88249
315.08529
315.33718
315.57406
315.77394
315.93262
316.05253
316.13778
316.19218
316.21863
316.21863
316.19218
316.13778
316.05253
315.93262
315.77394
315.57406
315.33718
315.08529
314.88249
313.21166
313.40713
313.65959
313.90276
314.11058
314.27634
314.40155
314.49038
314.54694
314.57441
314.57441
314.54694
314.49038
314.40155
314.27634
314.11058
313.90276
313.65959
313.40713
313.21166
311.75298
311.93557
312.17948
312.42049
312.63022
312.79954
312.92838
313.02017
313.07878
313.10728
313.10728
313.07878
313.02017
312.92838
312.79954
312.63022
312.42049
312.17948
311.93557
311.75298
310.49658
310.663
310.89168
311.12323
311.32884
311.49752
311.62744
311.72082
311.78081
311.81008
311.81008
311.78081
311.72083
311.62745
311.49752
311.32885
311.12323
310.89168
310.66301
310.49659
309.43591
309.58425
309.79312
310.00964
310.20598
310.36998
310.49821
310.59144
310.65182
310.68143
310.68143
310.65182
310.59144
310.49822
310.36998
310.20598
310.00964
309.79312
309.58426
309.43591
308.56915
308.69844
308.8848
309.08256
309.26583
309.42193
309.54601
309.63741
309.69719
309.72667
309.72667
309.69719
309.63742
309.54602
309.42193
309.26584
309.08256
308.8848
308.69844
308.56915
307.89988
308.01
308.173
308.35045
308.51879
308.66514
308.78353
308.87195
308.93036
308.95934
308.95934
308.93036
308.87195
308.78353
308.66515
308.51879
308.35045
308.17301
308.01
307.89989
307.43757
307.52992
307.67134
307.82983
307.98394
308.12072
308.23324
308.3184
308.37518
308.40352
308.40352
308.37518
308.3184
308.23324
308.12072
307.98394
307.82983
307.67134
307.52992
307.43757
307.19728
307.27662
307.40283
307.54819
307.69248
307.82261
307.93101
308.01381
308.06939
308.09723
308.09724
308.06939
308.01381
307.93101
307.82262
307.69248
307.54819
307.40284
307.27662
307.19728
)
;

boundaryField
{
    Wall
    {
        type            zeroGradient;
    }
    frontAndBack
    {
        type            empty;
    }
    atmosphere
    {
        type            zeroGradient;
    }
}


// ************************************************************************* //
