/*--------------------------------*- C++ -*----------------------------------*\
| =========                 |                                                 |
| \\      /  F ield         | OpenFOAM: The Open Source CFD Toolbox           |
|  \\    /   O peration     | Version:  3.0.1                                 |
|   \\  /    A nd           | Web:      www.OpenFOAM.org                      |
|    \\/     M anipulation  |                                                 |
\*---------------------------------------------------------------------------*/
FoamFile
{
    version     2.0;
    format      ascii;
    class       volVectorField;
    location    "30";
    object      U;
}
// * * * * * * * * * * * * * * * * * * * * * * * * * * * * * * * * * * * * * //

dimensions      [0 1 -1 0 0 0 0];

internalField   nonuniform List<vector> 
800
(
(8.4552449e-06 0.00023541192 0)
(1.1096607e-05 0.00023884009 0)
(1.312955e-05 0.00024075738 0)
(1.2611923e-05 0.00024175602 0)
(1.1040584e-05 0.00024221613 0)
(9.1321939e-06 0.00024239482 0)
(7.1056485e-06 0.00024243956 0)
(5.0552504e-06 0.00024243268 0)
(3.0193201e-06 0.00024241522 0)
(1.0018677e-06 0.00024240382 0)
(-1.0083864e-06 0.00024240377 0)
(-3.0257055e-06 0.00024241507 0)
(-5.0613841e-06 0.00024243244 0)
(-7.1114268e-06 0.00024243925 0)
(-9.1375347e-06 0.00024239446 0)
(-1.1045411e-05 0.00024221573 0)
(-1.2616169e-05 0.00024175559 0)
(-1.3133137e-05 0.00024075687 0)
(-1.1099218e-05 0.00023883926 0)
(-8.4572312e-06 0.00023541036 0)
(5.3661741e-06 0.00040430145 0)
(7.7386628e-06 0.00041151496 0)
(1.12669e-05 0.0004154462 0)
(1.1525297e-05 0.00041749512 0)
(1.0440815e-05 0.00041848363 0)
(8.827528e-06 0.00041890745 0)
(6.9655148e-06 0.00041905251 0)
(4.9997196e-06 0.00041907882 0)
(3.0023541e-06 0.00041906771 0)
(9.9918271e-07 0.00041905531 0)
(-1.0046299e-06 0.00041905516 0)
(-3.0076853e-06 0.00041906729 0)
(-5.0048351e-06 0.00041907813 0)
(-6.9703265e-06 0.00041905159 0)
(-8.8319584e-06 0.00041890634 0)
(-1.044479e-05 0.00041848235 0)
(-1.1528721e-05 0.00041749367 0)
(-1.1269653e-05 0.0004154445 0)
(-7.7404753e-06 0.00041151277 0)
(-5.3674133e-06 0.00040429834 0)
(6.6486009e-06 0.00073776655 0)
(8.8436351e-06 0.0007495002 0)
(1.1209075e-05 0.00075635206 0)
(1.1208326e-05 0.0007601008 0)
(1.0132744e-05 0.00076200872 0)
(8.5903447e-06 0.00076288689 0)
(6.8020534e-06 0.00076323487 0)
(4.8973073e-06 0.00076334012 0)
(2.9470906e-06 0.00076335348 0)
(9.8210563e-07 0.00076334613 0)
(-9.8630568e-07 0.00076334593 0)
(-2.9511975e-06 0.00076335287 0)
(-4.9012391e-06 0.00076333913 0)
(-6.8057284e-06 0.00076323356 0)
(-8.5936944e-06 0.00076288529 0)
(-1.0135699e-05 0.00076200686 0)
(-1.1210791e-05 0.00076009867 0)
(-1.1210937e-05 0.00075634954 0)
(-8.8447217e-06 0.00074949704 0)
(-6.649193e-06 0.00073776243 0)
(7.0596548e-06 0.0010586808 0)
(9.1482329e-06 0.0010729402 0)
(1.1233564e-05 0.0010817482 0)
(1.107064e-05 0.0010867436 0)
(9.942094e-06 0.0010893592 0)
(8.4058372e-06 0.0010906072 0)
(6.6513904e-06 0.0010911338 0)
(4.7901095e-06 0.0010913181 0)
(2.8841373e-06 0.0010913629 0)
(9.6172601e-07 0.001091366 0)
(-9.6496247e-07 0.0010913658 0)
(-2.8872824e-06 0.0010913621 0)
(-4.7930972e-06 0.0010913169 0)
(-6.6541504e-06 0.0010911322 0)
(-8.4083042e-06 0.0010906052 0)
(-9.944214e-06 0.0010893568 0)
(-1.1072337e-05 0.0010867409 0)
(-1.123476e-05 0.001081745 0)
(-9.1488547e-06 0.0010729363 0)
(-7.0599018e-06 0.001058676 0)
(6.9111342e-06 0.0013753833 0)
(8.9789996e-06 0.0013932947 0)
(1.1147376e-05 0.0014042459 0)
(1.0939873e-05 0.0014104483 0)
(9.7828501e-06 0.0014137068 0)
(8.248823e-06 0.0014152796 0)
(6.517391e-06 0.0014159608 0)
(4.6905422e-06 0.0014162136 0)
(2.8237755e-06 0.0014162859 0)
(9.4180674e-07 0.0014162982 0)
(-9.443168e-07 0.0014162979 0)
(-2.8262108e-06 0.001416285 0)
(-4.6928231e-06 0.0014162123 0)
(-6.5194456e-06 0.001415959 0)
(-8.2506052e-06 0.0014152774 0)
(-9.7843078e-06 0.0014137042 0)
(-1.0940956e-05 0.0014104453 0)
(-1.1148054e-05 0.0014042424 0)
(-8.9792894e-06 0.0013932904 0)
(-6.911192e-06 0.0013753782 0)
(6.9063534e-06 0.0016971062 0)
(8.9877448e-06 0.0017190821 0)
(1.114107e-05 0.0017323339 0)
(1.0866145e-05 0.0017397772 0)
(9.669939e-06 0.0017436689 0)
(8.1277774e-06 0.0017455468 0)
(6.4084634e-06 0.0017463661 0)
(4.6061332e-06 0.0017466766 0)
(2.7709023e-06 0.001746771 0)
(9.2404936e-07 0.0017467902 0)
(-9.2601198e-07 0.0017467899 0)
(-2.7727361e-06 0.0017467701 0)
(-4.6077931e-06 0.0017466752 0)
(-6.4099412e-06 0.0017463642 0)
(-8.1289754e-06 0.0017455444 0)
(-9.6708349e-06 0.0017436661 0)
(-1.0866699e-05 0.0017397739 0)
(-1.1141285e-05 0.00173233 0)
(-8.9877267e-06 0.0017190775 0)
(-6.9062349e-06 0.0016971008 0)
(7.0286543e-06 0.0020235552 0)
(9.123352e-06 0.0020495007 0)
(1.1224767e-05 0.0020650369 0)
(1.0861565e-05 0.0020737082 0)
(9.6098874e-06 0.002078211 0)
(8.0467041e-06 0.0020803715 0)
(6.3277979e-06 0.0020813113 0)
(4.5403056e-06 0.0020816681 0)
(2.7287181e-06 0.0020817774 0)
(9.0963809e-07 0.0020818005 0)
(-9.1106589e-07 0.0020818002 0)
(-2.7300773e-06 0.0020817765 0)
(-4.5415039e-06 0.0020816666 0)
(-6.3287417e-06 0.0020813092 0)
(-8.0474156e-06 0.0020803689 0)
(-9.6103087e-06 0.0020782079 0)
(-1.086168e-05 0.0020737045 0)
(-1.1224613e-05 0.0020650325 0)
(-9.1231119e-06 0.0020494956 0)
(-7.0283901e-06 0.0020235496 0)
(7.2062805e-06 0.0023534992 0)
(9.3060043e-06 0.0023834102 0)
(1.1368153e-05 0.0024012253 0)
(1.091289e-05 0.0024111036 0)
(9.5936794e-06 0.0024161911 0)
(8.0003435e-06 0.0024186087 0)
(6.2737177e-06 0.0024196499 0)
(4.4921686e-06 0.00242004 0)
(2.6959976e-06 0.0024201567 0)
(8.9835781e-07 0.0024201801 0)
(-8.9935254e-07 0.0024201798 0)
(-2.6968391e-06 0.0024201558 0)
(-4.4928409e-06 0.0024200384 0)
(-6.2742457e-06 0.0024196477 0)
(-8.0006184e-06 0.0024186059 0)
(-9.5937081e-06 0.0024161876 0)
(-1.0912665e-05 0.0024110994 0)
(-1.1367737e-05 0.0024012204 0)
(-9.3056736e-06 0.0023834046 0)
(-7.205953e-06 0.0023534931 0)
(7.4453694e-06 0.0026867917 0)
(9.5460201e-06 0.0027207569 0)
(1.1569372e-05 0.0027408663 0)
(1.1008721e-05 0.002751936 0)
(9.6101084e-06 0.0027575865 0)
(7.978715e-06 0.002760239 0)
(6.2383573e-06 0.0027613636 0)
(4.4572464e-06 0.0027617738 0)
(2.6714866e-06 0.0027618897 0)
(8.8973388e-07 0.0027619093 0)
(-8.9017253e-07 0.002761909 0)
(-2.6718791e-06 0.0027618888 0)
(-4.4575277e-06 0.002761772 0)
(-6.2384651e-06 0.0027613612 0)
(-7.978639e-06 0.0027602359 0)
(-9.6098533e-06 0.0027575826 0)
(-1.1008298e-05 0.0027519314 0)
(-1.1568877e-05 0.0027408609 0)
(-9.5457693e-06 0.0027207508 0)
(-7.4450781e-06 0.0026867851 0)
(7.7711175e-06 0.0030239454 0)
(9.857071e-06 0.0030620654 0)
(1.1815895e-05 0.0030844758 0)
(1.113922e-05 0.0030967172 0)
(9.6512579e-06 0.0031029093 0)
(7.9733279e-06 0.0031057773 0)
(6.213893e-06 0.0031069668 0)
(4.4284673e-06 0.0031073831 0)
(2.6494816e-06 0.0031074881 0)
(8.8174097e-07 0.0031074988 0)
(-8.8170515e-07 0.0031074984 0)
(-2.6493862e-06 0.003107487 0)
(-4.4282922e-06 0.0031073813 0)
(-6.2136236e-06 0.0031069642 0)
(-7.9729599e-06 0.0031057739 0)
(-9.6508143e-06 0.003102905 0)
(-1.1138741e-05 0.0030967121 0)
(-1.1815497e-05 0.0030844699 0)
(-9.8570565e-06 0.0030620588 0)
(-7.7709954e-06 0.0030239385 0)
(8.2003577e-06 0.0033658787 0)
(1.0240979e-05 0.003408252 0)
(1.2085736e-05 0.0034329657 0)
(1.1284656e-05 0.0034463453 0)
(9.7031017e-06 0.0034530471 0)
(7.9689206e-06 0.0034561052 0)
(6.1834029e-06 0.0034573363 0)
(4.392016e-06 0.0034577411 0)
(2.6214757e-06 0.0034578232 0)
(8.7154971e-07 0.003457819 0)
(-8.7109523e-07 0.0034578186 0)
(-2.6210017e-06 0.003457822 0)
(-4.3915164e-06 0.0034577391 0)
(-6.1828846e-06 0.0034573335 0)
(-7.9684029e-06 0.0034561014 0)
(-9.7026261e-06 0.0034530424 0)
(-1.1284282e-05 0.0034463396 0)
(-1.2085589e-05 0.0034329592 0)
(-1.0241313e-05 0.0034082449 0)
(-8.2004663e-06 0.0033658714 0)
(8.7357776e-06 0.0037139472 0)
(1.0687358e-05 0.0037606765 0)
(1.2342572e-05 0.0037876879 0)
(1.1408246e-05 0.0038021411 0)
(9.7365004e-06 0.003809294 0)
(7.9384301e-06 0.0038124985 0)
(6.1216743e-06 0.003813739 0)
(4.3278943e-06 0.003814112 0)
(2.5742424e-06 0.0038141614 0)
(8.5452381e-07 0.0038141348 0)
(-8.5371372e-07 0.0038141344 0)
(-2.5734481e-06 0.0038141601 0)
(-4.3271388e-06 0.0038141099 0)
(-6.1209874e-06 0.003813736 0)
(-7.9378486e-06 0.0038124945 0)
(-9.7360664e-06 0.0038092891 0)
(-1.1408008e-05 0.0038021353 0)
(-1.2342641e-05 0.0037876813 0)
(-1.0687908e-05 0.0037606695 0)
(-8.7359723e-06 0.0037139402 0)
(9.3566404e-06 0.0040698692 0)
(1.1171833e-05 0.0041210466 0)
(1.2523818e-05 0.004150318 0)
(1.1431866e-05 0.0041657267 0)
(9.6865478e-06 0.0041732274 0)
(7.8293603e-06 0.0041765045 0)
(5.9895204e-06 0.0041777094 0)
(4.2123763e-06 0.0041780245 0)
(2.4933818e-06 0.0041780327 0)
(8.2401886e-07 0.0041779713 0)
(-8.2295136e-07 0.0041779708 0)
(-2.4923684e-06 0.0041780314 0)
(-4.2114631e-06 0.0041780223 0)
(-5.9887517e-06 0.0041777063 0)
(-7.8287745e-06 0.0041765004 0)
(-9.6861771e-06 0.0041732224 0)
(-1.1431743e-05 0.0041657209 0)
(-1.2523993e-05 0.0041503117 0)
(-1.1172381e-05 0.0041210401 0)
(-9.3567486e-06 0.0040698628 0)
(9.9897151e-06 0.0044363443 0)
(1.1618777e-05 0.0044919491 0)
(1.2513256e-05 0.0045233534 0)
(1.1224179e-05 0.004539537 0)
(9.445919e-06 0.0045472282 0)
(7.5623756e-06 0.004550471 0)
(5.7322018e-06 0.0045515775 0)
(4.0121553e-06 0.0045517903 0)
(2.3561795e-06 0.0045517434 0)
(7.6805194e-07 0.0045516346 0)
(-7.6684336e-07 0.0045516341 0)
(-2.3550519e-06 0.0045517421 0)
(-4.0111744e-06 0.0045517881 0)
(-5.731408e-06 0.0045515745 0)
(-7.5618049e-06 0.004550467 0)
(-9.4455884e-06 0.0045472235 0)
(-1.1224082e-05 0.0045395317 0)
(-1.2513375e-05 0.0045233477 0)
(-1.1619103e-05 0.0044919435 0)
(-9.9896074e-06 0.0044363392 0)
(1.0416937e-05 0.0048204896 0)
(1.179386e-05 0.0048805492 0)
(1.2121645e-05 0.0049139375 0)
(1.0609256e-05 0.0049307032 0)
(8.8666586e-06 0.0049383817 0)
(7.0291933e-06 0.0049414419 0)
(5.2666426e-06 0.0049423437 0)
(3.6712732e-06 0.0049423812 0)
(2.1358914e-06 0.0049422573 0)
(6.7721723e-07 0.0049421002 0)
(-6.7595261e-07 0.0049420998 0)
(-2.134716e-06 0.0049422561 0)
(-3.6702657e-06 0.0049423791 0)
(-5.2658308e-06 0.0049423408 0)
(-7.0286001e-06 0.0049414383 0)
(-8.86627e-06 0.0049383776 0)
(-1.060903e-05 0.0049306987 0)
(-1.2121519e-05 0.0049139329 0)
(-1.179376e-05 0.0048805451 0)
(-1.0416532e-05 0.0048204862 0)
(1.0646193e-05 0.0052289496 0)
(1.1709286e-05 0.0052936315 0)
(1.1257273e-05 0.0053288357 0)
(9.436822e-06 0.005345974 0)
(7.7688846e-06 0.0053534071 0)
(6.0672838e-06 0.0053560849 0)
(4.4613375e-06 0.0053566211 0)
(3.112747e-06 0.0053563893 0)
(1.8094183e-06 0.005356158 0)
(5.5076743e-07 0.0053559592 0)
(-5.4949052e-07 0.0053559588 0)
(-1.8082292e-06 0.0053561569 0)
(-3.1117166e-06 0.0053563875 0)
(-4.4604655e-06 0.0053566187 0)
(-6.0665724e-06 0.005356082 0)
(-7.768295e-06 0.0053534038 0)
(-9.4362945e-06 0.0053459705 0)
(-1.1256709e-05 0.0053288325 0)
(-1.1708622e-05 0.005293629 0)
(-1.0645492e-05 0.0052289481 0)
(1.0639304e-05 0.0056623199 0)
(1.1296127e-05 0.0057316499 0)
(9.7540214e-06 0.0057683216 0)
(7.520037e-06 0.0057855132 0)
(5.9315784e-06 0.0057924371 0)
(4.4623554e-06 0.0057944801 0)
(3.1575937e-06 0.0057944643 0)
(2.251268e-06 0.005793857 0)
(1.3493677e-06 0.0057934497 0)
(3.8774887e-07 0.0057932004 0)
(-3.8646104e-07 0.0057932001 0)
(-1.3481489e-06 0.0057934488 0)
(-2.2501687e-06 0.0057938556 0)
(-3.1565782e-06 0.0057944624 0)
(-4.4614126e-06 0.0057944779 0)
(-5.930643e-06 0.0057924348 0)
(-7.5190466e-06 0.005785511 0)
(-9.7529044e-06 0.0057683198 0)
(-1.1294901e-05 0.0057316489 0)
(-1.0638372e-05 0.0056623198 0)
(1.0133191e-05 0.0061204466 0)
(1.0215138e-05 0.0061943817 0)
(7.2573686e-06 0.0062319808 0)
(4.5992514e-06 0.0062487513 0)
(3.1151574e-06 0.0062548601 0)
(1.9950488e-06 0.0062559841 0)
(1.2091174e-06 0.0062552427 0)
(9.7409279e-07 0.0062541586 0)
(6.8281035e-07 0.0062534614 0)
(1.7188857e-07 0.0062531355 0)
(-1.705677e-07 0.0062531353 0)
(-6.8153139e-07 0.0062534607 0)
(-9.7284938e-07 0.0062541575 0)
(-1.2078542e-06 0.0062552414 0)
(-1.9937569e-06 0.0062559826 0)
(-3.1137627e-06 0.0062548588 0)
(-4.5977105e-06 0.0062487502 0)
(-7.2556607e-06 0.0062319802 0)
(-1.0213446e-05 0.006194382 0)
(-1.0132131e-05 0.0061204474 0)
(8.9187539e-06 0.0066062885 0)
(8.1726026e-06 0.0066848922 0)
(3.3260471e-06 0.006722787 0)
(3.639774e-07 0.006738562 0)
(-9.0562261e-07 0.0067434328 0)
(-1.5047383e-06 0.0067433929 0)
(-1.4739873e-06 0.006741798 0)
(-8.1745509e-07 0.0067401684 0)
(-2.7357221e-07 0.0067390962 0)
(-1.1575612e-07 0.0067386756 0)
(1.1714234e-07 0.0067386754 0)
(2.7496364e-07 0.0067390958 0)
(8.188952e-07 0.0067401678 0)
(1.4755394e-06 0.0067417973 0)
(1.5064542e-06 0.0067433922 0)
(9.0755983e-07 0.0067434323 0)
(-3.6191551e-07 0.0067385621 0)
(-3.3238941e-06 0.0067227873 0)
(-8.1706947e-06 0.0066848932 0)
(-8.9177274e-06 0.0066062896 0)
(6.8232041e-06 0.0071228505 0)
(4.9313592e-06 0.0072063295 0)
(-2.4817413e-06 0.007244082 0)
(-5.5587377e-06 0.007258179 0)
(-6.3478482e-06 0.0072612785 0)
(-6.0790494e-06 0.0072598637 0)
(-4.8872222e-06 0.0072573347 0)
(-3.1247058e-06 0.0072551731 0)
(-1.5320718e-06 0.0072538067 0)
(-4.7976169e-07 0.0072533303 0)
(4.8126779e-07 0.0072533302 0)
(1.5336253e-06 0.0072538065 0)
(3.1263708e-06 0.0072551729 0)
(4.8891215e-06 0.0072573345 0)
(6.0811313e-06 0.0072598636 0)
(6.3503107e-06 0.0072612787 0)
(5.5611745e-06 0.0072581797 0)
(2.4840593e-06 0.0072440831 0)
(-4.9295195e-06 0.0072063309 0)
(-6.8223564e-06 0.0071228516 0)
(3.6332648e-06 0.0076710572 0)
(4.2203995e-07 0.0077599857 0)
(-1.0469906e-05 0.0077975045 0)
(-1.3582583e-05 0.00780946 0)
(-1.3397275e-05 0.0078103032 0)
(-1.1719735e-05 0.007807183 0)
(-8.932578e-06 0.0078037142 0)
(-5.7513443e-06 0.007801136 0)
(-2.9280623e-06 0.0077997251 0)
(-8.80353e-07 0.0077993015 0)
(8.820511e-07 0.0077993015 0)
(2.9298666e-06 0.0077997251 0)
(5.7531923e-06 0.0078011361 0)
(8.9347682e-06 0.0078037143 0)
(1.1722173e-05 0.0078071834 0)
(1.3400007e-05 0.0078103038 0)
(1.3585332e-05 0.007809461 0)
(1.0472373e-05 0.0077975061 0)
(-4.205276e-07 0.0077599876 0)
(-3.6324983e-06 0.0076710585 0)
(-8.8214559e-07 0.0082466647 0)
(-5.5504475e-06 0.0083430202 0)
(-2.069556e-05 0.008381242 0)
(-2.3740571e-05 0.0083915058 0)
(-2.2236824e-05 0.0083897018 0)
(-1.846972e-05 0.0083847101 0)
(-1.3420424e-05 0.0083806478 0)
(-8.4085801e-06 0.0083779403 0)
(-4.2262274e-06 0.0083767859 0)
(-1.2568842e-06 0.0083765591 0)
(1.2587879e-06 0.0083765591 0)
(4.2282315e-06 0.008376786 0)
(8.4106901e-06 0.0083779406 0)
(1.3422842e-05 0.0083806483 0)
(1.8472373e-05 0.0083847108 0)
(2.2239794e-05 0.0083897028 0)
(2.3743562e-05 0.0083915072 0)
(2.0698207e-05 0.0083812441 0)
(5.5518566e-06 0.0083430228 0)
(8.8306607e-07 0.0082466674 0)
(-6.6124263e-06 0.0088379207 0)
(-1.2776473e-05 0.0089468618 0)
(-3.2332705e-05 0.0089884538 0)
(-3.5483324e-05 0.0089990087 0)
(-3.27072e-05 0.0089937558 0)
(-2.5744138e-05 0.008988055 0)
(-1.770005e-05 0.0089843275 0)
(-1.0727121e-05 0.0089819263 0)
(-5.2485361e-06 0.0089812783 0)
(-1.5574215e-06 0.0089813558 0)
(1.5595993e-06 0.0089813559 0)
(5.2508201e-06 0.0089812785 0)
(1.0729534e-05 0.0089819268 0)
(1.7702845e-05 0.0089843282 0)
(2.5747131e-05 0.008988056 0)
(3.2710395e-05 0.0089937571 0)
(3.5486565e-05 0.0089990107 0)
(3.2335587e-05 0.0089884567 0)
(1.2778512e-05 0.008946866 0)
(6.6142475e-06 0.0088379258 0)
(-1.3365689e-05 0.0094407479 0)
(-2.1268502e-05 0.0095587288 0)
(-4.3565387e-05 0.0096101985 0)
(-4.7749087e-05 0.0096238401 0)
(-4.3903378e-05 0.0096140519 0)
(-3.128926e-05 0.0096091953 0)
(-2.0499772e-05 0.0096062656 0)
(-1.2281994e-05 0.0096044517 0)
(-5.9146692e-06 0.0096043111 0)
(-1.7723983e-06 0.0096046324 0)
(1.7750241e-06 0.0096046325 0)
(5.9174039e-06 0.0096043114 0)
(1.2284832e-05 0.0096044523 0)
(2.0502993e-05 0.0096062664 0)
(3.1292623e-05 0.0096091961 0)
(4.3907321e-05 0.0096140531 0)
(4.7753053e-05 0.009623842 0)
(4.3569033e-05 0.0096102027 0)
(2.1271618e-05 0.0095587348 0)
(1.3368044e-05 0.0094407552 0)
(-3.4944902e-05 0.010016168 0)
(-4.3933989e-05 0.010184388 0)
(-5.0611925e-05 0.010244983 0)
(-5.9284486e-05 0.010261236 0)
(-5.495868e-05 0.010248011 0)
(-3.387733e-05 0.01024457 0)
(-2.1392467e-05 0.010242344 0)
(-1.2942007e-05 0.010241195 0)
(-6.3966798e-06 0.010241097 0)
(-1.9812161e-06 0.010241406 0)
(1.9843616e-06 0.010241406 0)
(6.3998887e-06 0.010241097 0)
(1.294527e-05 0.010241195 0)
(2.1396031e-05 0.010242345 0)
(3.388107e-05 0.01024457 0)
(5.496301e-05 0.010248012 0)
(5.928968e-05 0.010261238 0)
(5.0616849e-05 0.010244987 0)
(4.393684e-05 0.010184396 0)
(3.494651e-05 0.010016181 0)
(2.5088991e-05 0.010587915 0)
(-7.1311811e-06 0.010722937 0)
(-4.8376228e-05 0.010763963 0)
(-8.1042993e-05 0.01078819 0)
(-7.9178912e-05 0.010809531 0)
(-3.6844871e-05 0.010818196 0)
(-2.10296e-05 0.010820493 0)
(-1.3291213e-05 0.010821857 0)
(-7.3937661e-06 0.010823153 0)
(-2.3991648e-06 0.010824214 0)
(2.4025911e-06 0.010824214 0)
(7.3971784e-06 0.010823153 0)
(1.329463e-05 0.010821857 0)
(2.1033086e-05 0.010820494 0)
(3.6848398e-05 0.010818196 0)
(7.9183829e-05 0.010809531 0)
(8.1048154e-05 0.010788191 0)
(4.8382844e-05 0.010763966 0)
(7.1377583e-06 0.010722943 0)
(-2.508494e-05 0.010587929 0)
(0.00058363624 0.010428153 0)
(0.00051472772 0.011073452 0)
(0.00026338616 0.011176371 0)
(0.00011657283 0.011257358 0)
(4.0912334e-05 0.011468387 0)
(3.014206e-05 0.011522045 0)
(1.9991634e-05 0.011537538 0)
(1.1980989e-05 0.011544771 0)
(6.3414349e-06 0.011548359 0)
(1.9415739e-06 0.011550746 0)
(-1.9370393e-06 0.011550747 0)
(-6.3370934e-06 0.011548359 0)
(-1.1976593e-05 0.011544772 0)
(-1.9987432e-05 0.011537538 0)
(-3.0138444e-05 0.011522046 0)
(-4.0908109e-05 0.011468389 0)
(-0.00011656906 0.011257362 0)
(-0.00026338022 0.011176378 0)
(-0.00051471755 0.011073467 0)
(-0.0005836216 0.010428195 0)
(0.0011910877 0.0086025735 0)
(0.0019237202 0.010778499 0)
(0.0016856281 0.011032126 0)
(0.0012326155 0.011043506 0)
(0.00083296534 0.011150609 0)
(0.00056873741 0.011187103 0)
(0.00037693764 0.011196412 0)
(0.00023828863 0.011196748 0)
(0.00013118113 0.011196514 0)
(4.222713e-05 0.011196924 0)
(-4.2216492e-05 0.011196926 0)
(-0.0001311711 0.011196518 0)
(-0.0002382793 0.011196755 0)
(-0.00037692994 0.011196419 0)
(-0.00056872814 0.011187113 0)
(-0.00083295658 0.011150621 0)
(-0.0012326132 0.011043521 0)
(-0.0016856189 0.011032147 0)
(-0.001923715 0.010778525 0)
(-0.0011910889 0.0086026446 0)
(0.00099686159 0.0068200551 0)
(0.0020623486 0.010263853 0)
(0.0022350424 0.011174647 0)
(0.0019622808 0.01133202 0)
(0.0015490933 0.011325413 0)
(0.0011570894 0.01124655 0)
(0.0008237218 0.011166169 0)
(0.00054484787 0.011104236 0)
(0.0003090471 0.011064037 0)
(0.00010133728 0.011043672 0)
(-0.00010134187 0.011043672 0)
(-0.00030905259 0.011064042 0)
(-0.00054485088 0.011104242 0)
(-0.00082372633 0.011166175 0)
(-0.0011570957 0.011246558 0)
(-0.0015491002 0.011325416 0)
(-0.0019622927 0.01133203 0)
(-0.0022350513 0.011174664 0)
(-0.0020623393 0.010263855 0)
(-0.00099685653 0.0068201002 0)
(0.00064852552 0.0054270971 0)
(0.0016772864 0.0096029065 0)
(0.0020786777 0.011162672 0)
(0.0020254617 0.011655863 0)
(0.0017449743 0.011733346 0)
(0.0013914699 0.011657251 0)
(0.001037001 0.011540541 0)
(0.0007101307 0.011436307 0)
(0.00041200647 0.011363453 0)
(0.00013687892 0.011325444 0)
(-0.00013689199 0.011325445 0)
(-0.00041201959 0.011363456 0)
(-0.00071014269 0.011436311 0)
(-0.0010370134 0.011540543 0)
(-0.0013914822 0.011657254 0)
(-0.0017449863 0.011733347 0)
(-0.0020254767 0.011655869 0)
(-0.0020786926 0.011162684 0)
(-0.0016772964 0.0096029213 0)
(-0.00064853544 0.005427139 0)
(0.00037752275 0.0044516371 0)
(0.0012018966 0.0089012779 0)
(0.0016793026 0.010941413 0)
(0.0017742092 0.011767242 0)
(0.0016320639 0.012013011 0)
(0.001372639 0.011999611 0)
(0.0010659717 0.011894645 0)
(0.0007514947 0.011777107 0)
(0.0004450347 0.011687048 0)
(0.00014955382 0.011638483 0)
(-0.00014956931 0.011638483 0)
(-0.00044504989 0.01168705 0)
(-0.00075150874 0.011777109 0)
(-0.0010659852 0.011894647 0)
(-0.0013726518 0.011999614 0)
(-0.0016320763 0.012013013 0)
(-0.0017742234 0.011767247 0)
(-0.0016793175 0.010941425 0)
(-0.0012019108 0.008901298 0)
(-0.0003775325 0.0044516764 0)
(0.00021021391 0.0038274234 0)
(0.00079932196 0.0082983191 0)
(0.0012507969 0.010641717 0)
(0.0014192178 0.011737449 0)
(0.0013810885 0.012159465 0)
(0.0012161119 0.012242606 0)
(0.00097902597 0.01218032 0)
(0.00070867489 0.01207686 0)
(0.00042746073 0.011987216 0)
(0.00014497999 0.011936724 0)
(-0.00014499604 0.011936725 0)
(-0.00042747635 0.011987217 0)
(-0.00070868896 0.012076863 0)
(-0.00097903907 0.012180322 0)
(-0.0012161246 0.01224261 0)
(-0.0013811008 0.012159468 0)
(-0.0014192311 0.011737455 0)
(-0.0012508112 0.010641727 0)
(-0.00079933608 0.0082983365 0)
(-0.00021022096 0.0038274469 0)
(0.00011595206 0.0034394996 0)
(0.00050771925 0.007834407 0)
(0.00088267895 0.010349763 0)
(0.0010694449 0.011642583 0)
(0.0010951096 0.012218334 0)
(0.0010046244 0.012403975 0)
(0.00083550888 0.012401346 0)
(0.00061975865 0.012330032 0)
(0.00037985809 0.012254671 0)
(0.00012980572 0.012209671 0)
(-0.00012982143 0.012209672 0)
(-0.00037987276 0.012254673 0)
(-0.00061977217 0.012330035 0)
(-0.00083552146 0.012401349 0)
(-0.0010046363 0.012403978 0)
(-0.0010951214 0.012218338 0)
(-0.0010694575 0.01164259 0)
(-0.0008826926 0.010349773 0)
(-0.00050773175 0.0078344217 0)
(-0.000115957 0.0034395125 0)
(6.4837577e-05 0.0032027642 0)
(0.00031441852 0.0075023711 0)
(0.00059956808 0.01010248 0)
(0.00077156062 0.011527044 0)
(0.00082815437 0.012223667 0)
(0.00078886257 0.012502449 0)
(0.00067601987 0.012563934 0)
(0.00051284682 0.012532726 0)
(0.00031888844 0.012479972 0)
(0.00010964684 0.012445181 0)
(-0.00010966093 0.012445182 0)
(-0.00031890179 0.012479974 0)
(-0.00051285933 0.012532729 0)
(-0.00067603172 0.012563938 0)
(-0.00078887388 0.012502454 0)
(-0.00082816523 0.012223673 0)
(-0.00077157173 0.011527051 0)
(-0.00059958038 0.01010249 0)
(-0.00031442954 0.0075023836 0)
(-6.4841457e-05 0.0032027704 0)
(3.6842585e-05 0.0030597704 0)
(0.00019161732 0.0072762164 0)
(0.00039508756 0.0099098453 0)
(0.00053765892 0.011415329 0)
(0.00060325538 0.01219998 0)
(0.00059540168 0.01255598 0)
(0.00052462092 0.012677271 0)
(0.0004063562 0.012687614 0)
(0.00025611469 0.012660708 0)
(8.8502613e-05 0.012638283 0)
(-8.8514918e-05 0.012638284 0)
(-0.00025612637 0.01266071 0)
(-0.00040636742 0.012687617 0)
(-0.00052463166 0.012677275 0)
(-0.00059541189 0.012555985 0)
(-0.0006032654 0.012199986 0)
(-0.00053766899 0.011415337 0)
(-0.00039509847 0.0099098543 0)
(-0.0001916271 0.0072762256 0)
(-3.6846009e-05 0.0030597708 0)
(2.094057e-05 0.0029737702 0)
(0.00011496195 0.0071273825 0)
(0.00025330269 0.0097680499 0)
(0.00036343043 0.011319138 0)
(0.00042578888 0.012164127 0)
(0.00043478817 0.012580094 0)
(0.00039346397 0.012752624 0)
(0.00031086941 0.012801597 0)
(0.00019838928 0.012800083 0)
(6.884656e-05 0.012790243 0)
(-6.8857261e-05 0.012790244 0)
(-0.0001983993 0.012800084 0)
(-0.00031087896 0.012801599 0)
(-0.00039347329 0.012752628 0)
(-0.00043479739 0.012580098 0)
(-0.00042579788 0.012164133 0)
(-0.00036343928 0.011319144 0)
(-0.00025331247 0.0097680571 0)
(-0.00011497059 0.0071273879 0)
(-2.0943523e-05 0.0029737648 0)
(1.194304e-05 0.0029227259 0)
(6.7997464e-05 0.0070324541 0)
(0.00015872189 0.0096685782 0)
(0.00023964476 0.011243062 0)
(0.00029269053 0.012127001 0)
(0.00030893612 0.012587057 0)
(0.00028680348 0.012800838 0)
(0.00023084066 0.012882883 0)
(0.00014905314 0.012904166 0)
(5.1926267e-05 0.012905885 0)
(-5.1935472e-05 0.012905886 0)
(-0.00014906179 0.012904167 0)
(-0.00023084915 0.012882885 0)
(-0.00028681166 0.012800841 0)
(-0.000308944 0.01258706 0)
(-0.00029269859 0.012127006 0)
(-0.00023965303 0.011243067 0)
(-0.00015873077 0.0096685829 0)
(-6.8005478e-05 0.0070324558 0)
(-1.1945884e-05 0.0029227147 0)
(6.9606356e-06 0.0028927311 0)
(4.01333e-05 0.0069737025 0)
(9.7865844e-05 0.0096018118 0)
(0.00015477884 0.011186347 0)
(0.00019675567 0.012094089 0)
(0.00021445632 0.012585108 0)
(0.00020402852 0.012830378 0)
(0.00016712654 0.012939242 0)
(0.0001091166 0.012979698 0)
(3.8149672e-05 0.012991305 0)
(-3.8157699e-05 0.012991305 0)
(-0.00010912448 0.012979699 0)
(-0.00016713404 0.012939243 0)
(-0.00020403583 0.012830379 0)
(-0.00021446373 0.01258511 0)
(-0.00019676301 0.012094092 0)
(-0.00015478616 0.01118635 0)
(-9.7873669e-05 0.0096018136 0)
(-4.0140534e-05 0.0069736998 0)
(-6.96332e-06 0.0028927143 0)
(4.3709011e-06 0.0028741946 0)
(2.4174201e-05 0.0069370026 0)
(6.0272458e-05 0.0095570113 0)
(9.9089645e-05 0.011144723 0)
(0.00013061284 0.012066538 0)
(0.00014661278 0.01257891 0)
(0.00014260943 0.012847729 0)
(0.00011864707 0.012977726 0)
(7.8233252e-05 0.013033755 0)
(2.7442844e-05 0.013053498 0)
(-2.7450175e-05 0.013053498 0)
(-7.8240551e-05 0.013033755 0)
(-0.00011865416 0.012977726 0)
(-0.00014261646 0.01284773 0)
(-0.00014661968 0.012578911 0)
(-0.00013061986 0.012066541 0)
(-9.9096441e-05 0.011144724 0)
(-6.027956e-05 0.0095570111 0)
(-2.418079e-05 0.0069369972 0)
(-4.3732047e-06 0.0028741743 0)
(3.4937963e-06 0.0028611366 0)
(1.6330966e-05 0.0069112115 0)
(3.9560987e-05 0.0095231985 0)
(6.6389128e-05 0.011110802 0)
(8.971254e-05 0.012042003 0)
(0.00010282826 0.012571271 0)
(0.00010157896 0.012860308 0)
(8.5395258e-05 0.013009482 0)
(5.6675168e-05 0.013080174 0)
(1.9917316e-05 0.013107756 0)
(-1.9924277e-05 0.013107756 0)
(-5.6682585e-05 0.013080174 0)
(-8.5402524e-05 0.013009482 0)
(-0.00010158576 0.012860307 0)
(-0.0001028346 0.01257127 0)
(-8.971902e-05 0.012042003 0)
(-6.639569e-05 0.011110802 0)
(-3.956712e-05 0.0095231953 0)
(-1.6336145e-05 0.006911201 0)
(-3.4955583e-06 0.0028611095 0)
)
;

boundaryField
{
    Wall
    {
        type            fixedValue;
        value           uniform (0 0 0);
    }
    frontAndBack
    {
        type            empty;
    }
    atmosphere
    {
        type            pressureInletOutletVelocity;
        value           nonuniform List<vector> 
20
(
(3.4937963e-06 0.0028611366 0)
(1.6330966e-05 0.0069112115 0)
(3.9560987e-05 0.0095231985 0)
(6.6389128e-05 0.011110802 0)
(8.971254e-05 0.012042003 0)
(0.00010282826 0.012571271 0)
(0.00010157896 0.012860308 0)
(8.5395258e-05 0.013009482 0)
(5.6675168e-05 0.013080174 0)
(1.9917316e-05 0.013107756 0)
(-1.9924277e-05 0.013107756 0)
(-5.6682585e-05 0.013080174 0)
(-8.5402524e-05 0.013009482 0)
(-0.00010158576 0.012860307 0)
(-0.0001028346 0.01257127 0)
(-8.971902e-05 0.012042003 0)
(-6.639569e-05 0.011110802 0)
(-3.956712e-05 0.0095231953 0)
(-1.6336145e-05 0.006911201 0)
(-3.4955583e-06 0.0028611095 0)
)
;
    }
}


// ************************************************************************* //
