/*--------------------------------*- C++ -*----------------------------------*\
| =========                 |                                                 |
| \\      /  F ield         | OpenFOAM: The Open Source CFD Toolbox           |
|  \\    /   O peration     | Version:  3.0.1                                 |
|   \\  /    A nd           | Web:      www.OpenFOAM.org                      |
|    \\/     M anipulation  |                                                 |
\*---------------------------------------------------------------------------*/
FoamFile
{
    version     2.0;
    format      ascii;
    class       volScalarField;
    location    "30";
    object      wBA_l;
}
// * * * * * * * * * * * * * * * * * * * * * * * * * * * * * * * * * * * * * //

dimensions      [0 0 0 0 0 0 0];

internalField   nonuniform List<scalar> 
800
(
0.044887758
0.044885475
0.044885083
0.044885038
0.044885036
0.044885033
0.044885026
0.044885019
0.044885014
0.044885011
0.044885011
0.044885014
0.044885019
0.044885026
0.044885033
0.044885036
0.044885038
0.044885083
0.044885475
0.044887758
0.045509861
0.045482747
0.045476328
0.045474749
0.045474468
0.045474484
0.04547453
0.045474552
0.045474556
0.045474554
0.045474554
0.045474556
0.045474553
0.04547453
0.045474484
0.045474468
0.04547475
0.045476329
0.045482748
0.045509863
0.045822243
0.045787332
0.045777895
0.045775596
0.045775097
0.045775012
0.045774981
0.045774941
0.045774899
0.045774874
0.045774873
0.045774899
0.045774941
0.045774982
0.045775012
0.045775098
0.045775596
0.045777896
0.045787334
0.045822245
0.045842714
0.045810486
0.045801368
0.045799398
0.045798972
0.045798816
0.045798667
0.045798518
0.045798399
0.045798334
0.045798334
0.045798399
0.045798518
0.045798667
0.045798816
0.045798972
0.045799398
0.045801368
0.045810486
0.045842715
0.045591722
0.04557222
0.045565985
0.04556508
0.045564945
0.045564747
0.045564458
0.045564172
0.045563951
0.045563835
0.045563835
0.045563951
0.045564171
0.045564457
0.045564747
0.045564944
0.045565079
0.045565984
0.045572219
0.045591721
0.045095371
0.045097413
0.045096082
0.045096774
0.045097058
0.045096824
0.045096369
0.045095922
0.045095584
0.045095409
0.045095409
0.045095583
0.045095921
0.045096367
0.045096822
0.045097056
0.045096772
0.04509608
0.04509741
0.045095368
0.044384413
0.044415188
0.044420449
0.044423106
0.044423841
0.044423542
0.044422891
0.044422262
0.044421793
0.044421554
0.044421553
0.044421792
0.04442226
0.044422889
0.044423539
0.044423838
0.044423102
0.044420445
0.044415184
0.044384408
0.043492716
0.043557896
0.043571276
0.043576121
0.043577278
0.043576851
0.043575967
0.043575136
0.043574526
0.043574218
0.043574218
0.043574525
0.043575134
0.043575964
0.043576847
0.043577274
0.043576117
0.043571271
0.04355789
0.043492709
0.04245463
0.042558327
0.042581263
0.042588414
0.0425899
0.042589291
0.042588134
0.042587084
0.042586324
0.042585944
0.042585944
0.042586322
0.042587082
0.042588131
0.042589287
0.042589895
0.042588408
0.042581257
0.042558321
0.042454622
0.041304218
0.041449228
0.041483105
0.041492619
0.041494339
0.041493501
0.041492037
0.041490756
0.041489836
0.04148938
0.041489379
0.041489834
0.041490753
0.041492033
0.041493496
0.041494334
0.041492613
0.041483098
0.04144922
0.041304209
0.040072494
0.040260774
0.040307006
0.040318955
0.040320867
0.040319753
0.040317959
0.040316437
0.040315341
0.040314803
0.040314802
0.040315339
0.040316434
0.040317955
0.040319748
0.040320861
0.040318948
0.040306999
0.040260766
0.040072486
0.038785809
0.039019033
0.039079076
0.039093634
0.039095803
0.039094374
0.039092227
0.039090454
0.039089197
0.039088565
0.039088564
0.039089195
0.039090451
0.039092223
0.039094368
0.039095796
0.039093627
0.039079069
0.039019025
0.0387858
0.037464931
0.037745134
0.037820537
0.037838228
0.037840842
0.037839065
0.037836534
0.0378345
0.037833093
0.037832349
0.037832348
0.037833091
0.037834497
0.03783653
0.03783906
0.037840835
0.037838222
0.037820529
0.037745126
0.037464922
0.036125742
0.036455823
0.036548564
0.036570451
0.036573805
0.036571663
0.036568679
0.036566335
0.036564799
0.036563976
0.036563975
0.036564797
0.036566332
0.036568675
0.036571658
0.036573799
0.036570444
0.036548557
0.036455815
0.036125735
0.034776363
0.035160518
0.035273524
0.035301188
0.035305716
0.035303207
0.035299659
0.035297033
0.035295428
0.035294559
0.035294559
0.035295426
0.035297029
0.035299655
0.035303202
0.03530571
0.035301182
0.035273517
0.03516051
0.034776356
0.033402177
0.033844961
0.033982114
0.034017564
0.034023923
0.034021117
0.034017013
0.03401411
0.034012518
0.034011587
0.034011586
0.034012516
0.034014106
0.034017009
0.034021113
0.034023917
0.034017558
0.033982107
0.033844954
0.033402171
0.032017623
0.032525303
0.032692564
0.032738822
0.032748223
0.032745375
0.032740677
0.032737332
0.032735793
0.032734744
0.032734743
0.032735791
0.032737328
0.032740673
0.032745371
0.032748218
0.032738816
0.032692558
0.032525297
0.032017619
0.030613671
0.031194293
0.031399999
0.03146151
0.031475752
0.031473293
0.031467906
0.031463854
0.03146237
0.031461146
0.031461145
0.031462369
0.031463851
0.031467903
0.031473289
0.031475748
0.031461505
0.031399993
0.031194288
0.030613668
0.029175264
0.029839095
0.030094569
0.030177904
0.030199755
0.030198425
0.030192181
0.030187074
0.030185487
0.030184021
0.03018402
0.030185485
0.030187071
0.030192178
0.030198421
0.030199751
0.0301779
0.030094564
0.029839091
0.029175263
0.027680266
0.028440505
0.028761043
0.028875827
0.028909478
0.028910398
0.028903121
0.02889651
0.028894524
0.028892693
0.028892692
0.028894522
0.028896507
0.028903118
0.028910394
0.028909475
0.028875824
0.02876104
0.028440503
0.027680266
0.026097576
0.026971715
0.027377913
0.027537718
0.027589714
0.027595174
0.027586816
0.027578111
0.027575087
0.027572662
0.027572661
0.027575086
0.027578108
0.027586813
0.027595172
0.027589711
0.027537716
0.027377911
0.026971714
0.026097579
0.024383589
0.025394561
0.025915172
0.026140123
0.026220833
0.026233966
0.026225325
0.026213696
0.026208759
0.026205312
0.026205311
0.026208757
0.026213693
0.026225322
0.026233964
0.026220831
0.026140122
0.025915171
0.025394562
0.024383596
0.022475167
0.023655873
0.024331409
0.024650576
0.024776671
0.024804354
0.024795204
0.024779587
0.02477153
0.02476632
0.024766319
0.024771529
0.024779584
0.024795202
0.024804353
0.02477667
0.024650576
0.024331409
0.023655878
0.022475179
0.020252
0.021666066
0.022557711
0.023016834
0.023215714
0.023268257
0.023261633
0.023240668
0.023227732
0.023219588
0.023219587
0.02322773
0.023240665
0.023261631
0.023268256
0.023215713
0.023016834
0.022557713
0.021666075
0.020252022
0.017507537
0.019207589
0.020418735
0.021099251
0.021414045
0.021518985
0.021523069
0.021496039
0.021476189
0.02146354
0.021463539
0.021476188
0.021496037
0.021523069
0.021518985
0.021414046
0.021099254
0.020418741
0.019207606
0.017507569
0.01433428
0.016321021
0.017904954
0.018881863
0.019314129
0.019496264
0.019516159
0.019478146
0.019442622
0.019420309
0.019420308
0.019442621
0.019478144
0.019516158
0.019496264
0.019314129
0.018881866
0.017904963
0.016321045
0.014334326
0.01032438
0.012787803
0.014905679
0.016352861
0.017190152
0.017535233
0.017601309
0.017555285
0.017497733
0.017459978
0.017459977
0.017497731
0.017555283
0.017601309
0.017535234
0.017190154
0.016352867
0.014905693
0.012787837
0.010324441
0.005977259
0.009092316
0.011555564
0.013396783
0.014553148
0.015130308
0.015275495
0.01522302
0.015133426
0.015071851
0.01507185
0.015133425
0.015223019
0.015275497
0.01513031
0.014553153
0.013396792
0.011555581
0.0090923474
0.0059773196
0.0025242628
0.0059856309
0.0086448761
0.010683249
0.012077862
0.012798197
0.013017096
0.012954777
0.012826112
0.012734537
0.012734535
0.012826111
0.012954776
0.013017096
0.0127982
0.012077864
0.010683258
0.0086448918
0.0059856548
0.0025243037
0.00075044182
0.0036952098
0.006308293
0.0084064607
0.0098837703
0.010695918
0.010943864
0.010870876
0.010708076
0.0105897
0.010589698
0.010708075
0.010870876
0.010943863
0.010695919
0.0098837717
0.0084064658
0.0063083027
0.0036952227
0.00075046023
0.00016211996
0.0021462366
0.0045173423
0.0065425491
0.0080028495
0.0088184291
0.0090727627
0.0089900064
0.0088075264
0.0086732649
0.0086732632
0.008807524
0.0089900048
0.0090727614
0.0088184287
0.0080028488
0.006542551
0.0045173468
0.0021462436
0.00016212516
2.742296e-05
0.0011706835
0.0031732296
0.0050313177
0.0064025513
0.0071739705
0.0074148491
0.0073290388
0.0071444949
0.0070078674
0.0070078656
0.0071444919
0.0073290358
0.007414847
0.0071739686
0.0064025491
0.0050313172
0.0031732312
0.0011706878
2.7424001e-05
3.9165777e-06
0.00059829605
0.0021767217
0.0038064468
0.0050432443
0.0057430783
0.0059612129
0.0058815194
0.0057100127
0.0055826772
0.0055826752
0.005710009
0.0058815155
0.0059612096
0.0057430755
0.0050432413
0.003806445
0.0021767221
0.00059829863
3.9167414e-06
5.0394374e-07
0.00028782769
0.0014501619
0.0028191881
0.0038959362
0.0045105609
0.004703819
0.0046371373
0.004488995
0.0043786258
0.0043786237
0.0044889909
0.0046371328
0.0047038153
0.0045105575
0.003895933
0.0028191861
0.001450162
0.00028782915
5.039657e-07
6.1320412e-08
0.00013142689
0.00093433837
0.0020356176
0.0029417783
0.003466646
0.0036359134
0.0035857359
0.003465909
0.0033759772
0.0033759751
0.0034659049
0.0035857312
0.0036359095
0.0034666426
0.0029417753
0.0020356157
0.00093433838
0.00013142764
6.1323092e-08
7.280827e-09
5.7430731e-05
0.00058098434
0.0014286503
0.0021659331
0.0026023425
0.0027487334
0.0027156931
0.0026243879
0.0025549831
0.0025549811
0.0026243841
0.0027156885
0.0027487296
0.0026023393
0.0021659305
0.0014286489
0.00058098441
5.7431085e-05
7.2811357e-09
8.6115531e-10
2.4182169e-05
0.00034847383
0.00097292326
0.0015524907
0.0019056329
0.0020302711
0.0020122817
0.001946548
0.0018955519
0.0018955501
0.0019465446
0.0020122775
0.0020302676
0.0019056301
0.0015524887
0.00097292228
0.00034847394
2.4182325e-05
8.6118972e-10
1.0278136e-10
9.8584495e-06
0.00020179921
0.00064251716
0.0010824987
0.0013602743
0.0014640831
0.0014576568
0.0014129097
0.00137711
0.0013771086
0.0014129067
0.0014576532
0.0014640801
0.001360272
0.0010824972
0.00064251657
0.00020179933
9.8585158e-06
1.0278483e-10
1.2691975e-11
3.9026095e-06
0.00011296747
0.00041146431
0.00073401489
0.00094617233
0.0010303513
0.001031667
0.0010029017
0.00097884162
0.00097884046
0.0010028993
0.001031664
0.0010303488
0.00094617051
0.00073401383
0.00041146399
0.00011296758
3.9026364e-06
1.2691874e-11
1.8497677e-12
1.502862e-06
6.1219376e-05
0.00025562884
0.00048405386
0.00064126853
0.00070749738
0.000713155
0.00069577634
0.00068027029
0.00068026939
0.00069577442
0.00071315258
0.00070749539
0.00064126716
0.00048405315
0.00025562871
6.1219461e-05
1.5028726e-06
1.8494087e-12
)
;

boundaryField
{
    Wall
    {
        type            zeroGradient;
    }
    frontAndBack
    {
        type            empty;
    }
    atmosphere
    {
        type            zeroGradient;
    }
}


// ************************************************************************* //
