/*--------------------------------*- C++ -*----------------------------------*\
| =========                 |                                                 |
| \\      /  F ield         | OpenFOAM: The Open Source CFD Toolbox           |
|  \\    /   O peration     | Version:  3.0.1                                 |
|   \\  /    A nd           | Web:      www.OpenFOAM.org                      |
|    \\/     M anipulation  |                                                 |
\*---------------------------------------------------------------------------*/
FoamFile
{
    version     2.0;
    format      ascii;
    class       volScalarField;
    location    "30";
    object      wBA_l_0;
}
// * * * * * * * * * * * * * * * * * * * * * * * * * * * * * * * * * * * * * //

dimensions      [0 0 0 0 0 0 0];

internalField   nonuniform List<scalar> 
800
(
0.044946885
0.044944603
0.044944212
0.044944167
0.044944164
0.044944162
0.044944155
0.044944148
0.044944143
0.04494414
0.04494414
0.044944143
0.044944148
0.044944155
0.044944161
0.044944164
0.044944167
0.044944212
0.044944603
0.044946885
0.045571182
0.04554403
0.045537609
0.045536034
0.045535756
0.045535773
0.04553582
0.045535842
0.045535845
0.045535844
0.045535843
0.045535845
0.045535842
0.04553582
0.045535773
0.045535756
0.045536035
0.04553761
0.045544031
0.045571184
0.045883139
0.045848224
0.045838799
0.045836509
0.045836015
0.045835931
0.0458359
0.045835859
0.045835816
0.04583579
0.04583579
0.045835816
0.045835859
0.0458359
0.045835931
0.045836015
0.04583651
0.0458388
0.045848225
0.045883141
0.045900789
0.045868654
0.045859574
0.045857618
0.045857195
0.045857039
0.045856888
0.045856738
0.045856616
0.045856551
0.045856551
0.045856616
0.045856737
0.045856888
0.045857039
0.045857195
0.045857618
0.045859574
0.045868654
0.04590079
0.045644906
0.045625647
0.045619478
0.045618591
0.045618456
0.045618254
0.04561796
0.04561767
0.045617448
0.045617331
0.04561733
0.045617447
0.04561767
0.045617959
0.045618253
0.045618455
0.04561859
0.045619477
0.045625646
0.045644905
0.045141996
0.045144464
0.045143227
0.045143936
0.045144215
0.045143971
0.045143508
0.045143056
0.045142714
0.045142538
0.045142538
0.045142714
0.045143055
0.045143507
0.04514397
0.045144213
0.045143933
0.045143225
0.045144462
0.045141993
0.044423257
0.044454654
0.044460035
0.044462704
0.044463426
0.044463111
0.044462448
0.044461811
0.044461338
0.044461096
0.044461096
0.044461337
0.04446181
0.044462446
0.044463109
0.044463423
0.044462701
0.044460031
0.04445465
0.044423251
0.043522953
0.043588965
0.043602493
0.043607343
0.043608475
0.043608024
0.043607123
0.043606282
0.043605666
0.043605355
0.043605355
0.043605665
0.04360628
0.043607121
0.043608021
0.04360847
0.043607338
0.043602488
0.043588959
0.043522946
0.042475826
0.042580557
0.042603672
0.042610815
0.042612264
0.042611623
0.042610444
0.042609382
0.042608614
0.042608231
0.042608231
0.042608612
0.042609379
0.042610441
0.042611619
0.042612258
0.04261081
0.042603666
0.04258055
0.042475818
0.041316246
0.041462486
0.041496582
0.041506077
0.041507746
0.041506867
0.041505378
0.041504081
0.041503152
0.041502693
0.041502692
0.04150315
0.041504078
0.041505374
0.041506862
0.04150774
0.041506071
0.041496575
0.041462479
0.041316238
0.040075455
0.040265158
0.04031166
0.04032358
0.040325428
0.040324266
0.040322443
0.040320903
0.040319798
0.040319256
0.040319255
0.040319796
0.0403209
0.040322438
0.040324261
0.040325422
0.040323573
0.040311653
0.04026515
0.040075446
0.038779939
0.039014789
0.03907517
0.039089696
0.039091792
0.039090308
0.039088129
0.039086338
0.039085071
0.039084434
0.039084434
0.039085069
0.039086334
0.039088124
0.039090303
0.039091786
0.039089689
0.039075162
0.039014781
0.038779931
0.037450504
0.037732572
0.037808399
0.037826075
0.037828615
0.037826779
0.037824213
0.03782216
0.037820743
0.037819993
0.037819992
0.037820741
0.037822156
0.037824208
0.037826773
0.037828609
0.037826068
0.037808391
0.037732565
0.037450496
0.036103011
0.036435256
0.036528543
0.03655046
0.036553752
0.036551548
0.036548526
0.036546163
0.036544618
0.03654379
0.036543789
0.036544616
0.03654616
0.036548522
0.036551543
0.036553746
0.036550453
0.036528536
0.036435249
0.036103004
0.034745353
0.035132055
0.035245797
0.035273573
0.035278063
0.035275495
0.035271906
0.035269263
0.035267653
0.035266781
0.03526678
0.035267651
0.035269259
0.035271902
0.03527549
0.035278058
0.035273567
0.03524579
0.035132049
0.034745347
0.033362728
0.033808534
0.033946708
0.0339824
0.033988773
0.033985917
0.033981772
0.033978851
0.033977261
0.033976325
0.033976325
0.033977259
0.033978847
0.033981768
0.033985912
0.033988767
0.033982395
0.033946702
0.033808527
0.033362723
0.031969291
0.032480572
0.032649291
0.032696
0.032705497
0.03270262
0.032697882
0.032694513
0.032692984
0.032691929
0.032691928
0.032692982
0.03269451
0.032697878
0.032702616
0.032705493
0.032695995
0.032649285
0.032480566
0.031969286
0.030555646
0.031140597
0.031348403
0.031410699
0.031425173
0.031422722
0.031417297
0.031413209
0.031411741
0.031410509
0.031410508
0.031411739
0.031413206
0.031417293
0.031422718
0.031425168
0.031410694
0.031348397
0.031140592
0.030555642
0.029106209
0.029775302
0.0300338
0.030118445
0.030140754
0.030139498
0.030133214
0.030128055
0.030126478
0.030125003
0.030125002
0.030126476
0.030128052
0.030133211
0.030139495
0.03014075
0.030118441
0.030033796
0.029775298
0.029106207
0.027598112
0.02836483
0.028689708
0.028806627
0.028841109
0.028842211
0.028834895
0.028828206
0.028826211
0.028824364
0.028824364
0.02882621
0.028828203
0.028834892
0.028842208
0.028841106
0.028806624
0.028689704
0.028364828
0.027598112
0.025999224
0.026881434
0.027293911
0.027457092
0.02751053
0.027516394
0.02750801
0.027499185
0.02749611
0.027493651
0.02749365
0.027496108
0.027499182
0.027508007
0.027516391
0.027510527
0.02745709
0.027293908
0.026881433
0.025999228
0.024264358
0.025285628
0.025815329
0.026045589
0.026128785
0.026142669
0.026134068
0.026122256
0.026117197
0.02611368
0.026113679
0.026117196
0.026122253
0.026134066
0.026142667
0.026128783
0.026045588
0.025815328
0.025285629
0.024264365
0.022327303
0.023521933
0.024210759
0.024538244
0.024668695
0.024697817
0.024688766
0.024672873
0.024664581
0.024659229
0.024659228
0.024664579
0.02467287
0.024688764
0.024697815
0.024668694
0.024538244
0.02421076
0.023521938
0.022327317
0.02005536
0.021493196
0.022405299
0.022878267
0.023084869
0.023140394
0.023134283
0.023112916
0.02309958
0.023091183
0.023091182
0.023099579
0.023112914
0.023134282
0.023140393
0.023084868
0.022878267
0.022405302
0.021493207
0.020055383
0.017256064
0.018967787
0.020204622
0.020905157
0.02124027
0.021350801
0.021356051
0.021328426
0.021307875
0.021294767
0.021294766
0.021307874
0.021328424
0.021356051
0.021350801
0.021240271
0.02090516
0.020204629
0.018967804
0.017256096
0.014010738
0.016035531
0.017668717
0.018681643
0.019203225
0.019399554
0.019423007
0.019384392
0.019347533
0.019324222
0.019324221
0.019347531
0.01938439
0.019423006
0.019399554
0.019203226
0.018681646
0.017668725
0.016035555
0.014010785
0.0099218752
0.012446402
0.014564107
0.016045719
0.016881948
0.017243099
0.017316213
0.017271047
0.017212347
0.017173646
0.017173645
0.017212346
0.017271046
0.017316214
0.017243101
0.016881952
0.016045725
0.014564123
0.012446436
0.0099219363
0.0055896999
0.0087979835
0.011269994
0.013108604
0.014301466
0.014864954
0.015010319
0.014955796
0.014862724
0.014798708
0.014798706
0.014862723
0.014955795
0.01501032
0.014864957
0.014301469
0.013108612
0.01127001
0.0087980139
0.0055897586
0.0022864175
0.0057493387
0.008402286
0.010449569
0.011850463
0.01258991
0.012799864
0.012733256
0.012600627
0.012506694
0.012506693
0.012600626
0.012733255
0.012799865
0.012589911
0.011850466
0.010449576
0.0084023006
0.0057493626
0.0022864552
0.00065670377
0.0035156776
0.0061103101
0.0082009193
0.0096737316
0.01048389
0.0107301
0.010650599
0.010484766
0.010364935
0.010364934
0.010484765
0.010650598
0.010730101
0.01048389
0.0096737327
0.008200924
0.0061103189
0.0035156895
0.00065672023
0.00013780959
0.0020291642
0.0043646108
0.0063703415
0.0078162957
0.0086217892
0.0088723723
0.0087844031
0.0086007773
0.0084665306
0.0084665289
0.008600775
0.0087844013
0.0088723714
0.0086217884
0.0078162949
0.0063703432
0.0043646149
0.0020291708
0.00013781403
2.2911449e-05
0.00109958
0.0030574093
0.0048880001
0.0062389104
0.0069963028
0.007231103
0.0071431295
0.0069592928
0.0068240905
0.0068240886
0.0069592897
0.0071431266
0.0072311006
0.0069963008
0.0062389083
0.0048879995
0.0030574107
0.001099584
2.291232e-05
3.2387271e-06
0.00055834168
0.0020898738
0.0036871766
0.0049002876
0.0055845878
0.0057960426
0.0057160105
0.0055468302
0.0054219102
0.0054219082
0.0055468265
0.0057160065
0.0057960393
0.005584585
0.0049002847
0.0036871749
0.0020898741
0.00055834412
3.2388622e-06
4.1497409e-07
0.00026704569
0.0013864359
0.0027211391
0.0037727444
0.0043716017
0.0045586438
0.004492433
0.0043476592
0.0042402049
0.0042402027
0.0043476551
0.0044924284
0.00455864
0.0043715984
0.0037727412
0.0027211371
0.001386436
0.00026704706
4.149921e-07
5.0489297e-08
0.00012132272
0.00088915954
0.0019568305
0.002837957
0.0033476236
0.0035111807
0.003462119
0.0033459538
0.0032590026
0.0032590005
0.0033459497
0.0034621142
0.0035111768
0.0033476203
0.0028379541
0.0019568288
0.00088915958
0.00012132342
5.0491496e-08
6.0065157e-09
5.2770347e-05
0.0005500679
0.0013671376
0.002080763
0.0025031054
0.0026445431
0.0026127234
0.0025248653
0.0024581883
0.0024581864
0.0025248615
0.0026127188
0.0026445393
0.0025031022
0.0020807605
0.0013671363
0.00055006798
5.2770674e-05
6.0067697e-09
7.1287212e-10
2.2127353e-05
0.0003282831
0.00092672673
0.0014850216
0.001825501
0.0019457285
0.0019287623
0.0018659647
0.0018172693
0.0018172676
0.0018659613
0.0019287581
0.001945725
0.0018254982
0.0014850197
0.0009267258
0.00032828322
2.2127498e-05
7.1290063e-10
8.5444872e-11
8.9853911e-06
0.00018916293
0.00060911488
0.0010308671
0.0012976074
0.0013974875
0.0013917481
0.0013493079
0.0013153266
0.0013153252
0.001349305
0.0013917445
0.0013974845
0.0012976051
0.0010308656
0.00060911433
0.00018916305
8.9854521e-06
8.5447716e-11
1.0641992e-11
3.5432435e-06
0.00010537452
0.00038821306
0.00069585566
0.00089871785
0.00097944226
0.00098109973
0.00095403211
0.00093132296
0.00093132182
0.00095402973
0.00098109676
0.0009794398
0.00089871608
0.00069585465
0.00038821278
0.00010537463
3.5432684e-06
1.0641822e-11
1.6032783e-12
1.3591429e-06
5.6825698e-05
0.00024001944
0.00045678479
0.00060645469
0.00066974605
0.00067547294
0.00065925713
0.00064471568
0.0006447148
0.00065925526
0.0006754706
0.00066974412
0.00060645338
0.00045678413
0.00024001934
5.6825784e-05
1.3591528e-06
1.6029161e-12
)
;

boundaryField
{
    Wall
    {
        type            zeroGradient;
    }
    frontAndBack
    {
        type            empty;
    }
    atmosphere
    {
        type            zeroGradient;
    }
}


// ************************************************************************* //
