/*--------------------------------*- C++ -*----------------------------------*\
| =========                 |                                                 |
| \\      /  F ield         | OpenFOAM: The Open Source CFD Toolbox           |
|  \\    /   O peration     | Version:  3.0.1                                 |
|   \\  /    A nd           | Web:      www.OpenFOAM.org                      |
|    \\/     M anipulation  |                                                 |
\*---------------------------------------------------------------------------*/
FoamFile
{
    version     2.0;
    format      ascii;
    class       volScalarField;
    location    "30";
    object      wBA_g;
}
// * * * * * * * * * * * * * * * * * * * * * * * * * * * * * * * * * * * * * //

dimensions      [0 0 0 0 0 0 0];

internalField   nonuniform List<scalar> 
800
(
0.049282843
0.049283963
0.049284309
0.049284431
0.049284505
0.049284561
0.049284604
0.049284635
0.049284656
0.049284666
0.049284666
0.049284656
0.049284635
0.049284604
0.049284561
0.049284505
0.049284431
0.049284309
0.049283963
0.049282843
0.052463943
0.052399356
0.052381909
0.052376691
0.052375155
0.052374815
0.052374808
0.052374854
0.052374884
0.052374897
0.052374897
0.052374884
0.052374855
0.052374809
0.052374816
0.052375157
0.052376694
0.052381913
0.052399359
0.052463951
0.054696649
0.054608241
0.054590932
0.054582235
0.054579287
0.054578357
0.054578073
0.054577983
0.054577941
0.054577921
0.054577921
0.054577941
0.054577983
0.054578074
0.054578357
0.054579288
0.054582236
0.054590935
0.054608244
0.054696656
0.0560522
0.055957268
0.05594943
0.055940143
0.055936947
0.055935846
0.055935398
0.05593521
0.055935101
0.055935052
0.055935052
0.0559351
0.05593521
0.055935397
0.055935845
0.055936946
0.055940142
0.055949429
0.055957268
0.056052202
0.056612139
0.056530397
0.056532195
0.056528692
0.056526006
0.056525074
0.056524601
0.056524399
0.056524255
0.056524197
0.056524197
0.056524254
0.056524397
0.056524598
0.05652507
0.056526002
0.056528687
0.05653219
0.056530392
0.056612134
0.056485085
0.05643602
0.056442335
0.056450205
0.056448149
0.056447473
0.056447024
0.056446861
0.056446709
0.056446661
0.05644666
0.056446707
0.056446857
0.056447019
0.056447466
0.056448141
0.056450195
0.056442326
0.056436009
0.056485072
0.055802782
0.05580171
0.055806171
0.055827302
0.055825309
0.055824672
0.055824158
0.055824015
0.055823849
0.055823819
0.055823818
0.055823846
0.055824009
0.05582415
0.055824662
0.055825297
0.055827288
0.055806157
0.055801694
0.055802762
0.054714364
0.054766679
0.054766324
0.054798313
0.054795169
0.054794026
0.054793199
0.054792967
0.054792735
0.054792708
0.054792706
0.054792731
0.05479296
0.054793189
0.054794013
0.054795154
0.054798295
0.054766305
0.054766658
0.054714338
0.053375777
0.053475636
0.053470802
0.053507748
0.053504054
0.053501602
0.053500045
0.053499509
0.053499096
0.053499027
0.053499026
0.053499091
0.0534995
0.053500033
0.053501587
0.053504035
0.053507727
0.05347078
0.053475612
0.053375748
0.051933986
0.052070812
0.052061237
0.052094921
0.052093932
0.052091478
0.052088597
0.052087414
0.052086633
0.052086439
0.052086437
0.052086627
0.052087405
0.052088583
0.052091461
0.052093911
0.052094897
0.052061212
0.052070785
0.051933954
0.050514616
0.050679776
0.050663348
0.0506842
0.050692021
0.050694014
0.050688964
0.050686616
0.05068517
0.050684717
0.050684715
0.050685164
0.050686606
0.05068895
0.050693996
0.050691999
0.050684175
0.050663321
0.050679748
0.050514583
0.049217129
0.049407857
0.049381462
0.049378755
0.049407017
0.049419187
0.049410753
0.049406472
0.049403907
0.049402983
0.049402982
0.049403902
0.049406463
0.049410739
0.049419168
0.049406994
0.049378729
0.049381435
0.049407827
0.049217096
0.048115365
0.04833662
0.04829699
0.048260876
0.048325723
0.048351937
0.048338421
0.048330989
0.048328845
0.048326997
0.048326996
0.048328841
0.04833098
0.048338407
0.048351919
0.048325701
0.048260851
0.048296962
0.048336591
0.048115333
0.04725995
0.047522913
0.047469591
0.047396228
0.04751145
0.047551376
0.047530457
0.047518079
0.047523487
0.047520067
0.047520065
0.047523482
0.047518071
0.047530445
0.047551359
0.047511429
0.047396203
0.047469564
0.047522884
0.047259919
0.046679106
0.046997698
0.046936586
0.046829505
0.046998669
0.047046927
0.047014012
0.046994359
0.047018943
0.047017799
0.047017798
0.04701894
0.046994352
0.047014
0.047046911
0.046998649
0.046829481
0.046936561
0.04699767
0.046679077
0.046375222
0.046764557
0.046709267
0.046580724
0.046793508
0.046838083
0.046787992
0.046758223
0.046811939
0.046824165
0.046824164
0.046811936
0.046758217
0.046787981
0.046838068
0.04679349
0.046580702
0.046709243
0.046764531
0.046375195
0.046334831
0.046807273
0.046776441
0.046642975
0.046885547
0.046912206
0.046841224
0.046797961
0.046879265
0.046918705
0.046918704
0.046879262
0.046797955
0.046841214
0.046912192
0.046885529
0.046642954
0.046776418
0.046807247
0.046334804
0.046533596
0.047106821
0.047119537
0.046991494
0.047258917
0.047255171
0.047160586
0.04710034
0.047198248
0.047274203
0.047274202
0.047198245
0.047100334
0.047160576
0.047255158
0.0472589
0.046991474
0.047119515
0.047106796
0.046533568
0.046935853
0.047640615
0.04771387
0.047587455
0.047892651
0.047848001
0.047726704
0.047646562
0.047746918
0.047859829
0.047859828
0.047746915
0.047646556
0.047726694
0.047847988
0.047892634
0.047587436
0.047713849
0.047640589
0.046935824
0.047484864
0.048368416
0.048517272
0.048383397
0.048749144
0.048668387
0.048516608
0.048414627
0.048503716
0.04864548
0.048645479
0.048503713
0.048414622
0.048516599
0.048668374
0.048749128
0.048383378
0.048517251
0.04836839
0.047484833
0.048074403
0.049195039
0.049462029
0.049346797
0.049773891
0.049657918
0.049471167
0.049346251
0.049433493
0.049590733
0.049590732
0.049433489
0.049346245
0.049471158
0.049657906
0.049773876
0.049346779
0.049462008
0.049195013
0.048074371
0.048547323
0.050010865
0.050444038
0.050386533
0.050875281
0.050737318
0.05049121
0.050340396
0.050440722
0.050598573
0.050598572
0.050440719
0.050340392
0.050491202
0.050737307
0.050875268
0.050386517
0.050444019
0.050010841
0.048547296
0.048396524
0.050496869
0.051245426
0.051319923
0.051904994
0.051706777
0.051417308
0.051235029
0.051344348
0.051489268
0.051489268
0.051344346
0.051235026
0.051417302
0.05170677
0.051904984
0.051319912
0.051245411
0.050496851
0.048396514
0.045331885
0.049425217
0.050986283
0.051439602
0.052051962
0.051983502
0.051656967
0.051450388
0.051556256
0.051682507
0.051682507
0.051556257
0.051450389
0.051656968
0.051983502
0.052051961
0.051439602
0.050986283
0.049425229
0.045331936
0.035629263
0.041266632
0.044776575
0.046459116
0.04736015
0.04785402
0.04758888
0.047418179
0.047540631
0.047661646
0.047661648
0.047540636
0.047418187
0.047588892
0.047854034
0.047360166
0.046459133
0.044776603
0.041266677
0.035629336
0.023306387
0.028212802
0.032383127
0.034311064
0.035671307
0.036357306
0.0362
0.036081889
0.036201094
0.036309695
0.036309696
0.036201098
0.036081896
0.036200009
0.036357316
0.03567132
0.034311079
0.032383155
0.028212856
0.023306472
0.013860365
0.01779954
0.020717373
0.022348151
0.023292601
0.023833777
0.023760922
0.02369039
0.0237946
0.023889162
0.023889164
0.023794604
0.023690397
0.023760931
0.023833787
0.023292614
0.022348168
0.020717401
0.017799594
0.013860451
0.00698809
0.010486016
0.012795656
0.0141113
0.014822737
0.015191117
0.01515379
0.015088754
0.01514611
0.015211332
0.015211333
0.015146114
0.01508876
0.015153797
0.015191125
0.014822748
0.014111315
0.012795679
0.010486055
0.0069881608
0.0027269921
0.0057756537
0.0077398996
0.0088395532
0.0094223933
0.0096503077
0.0096148211
0.0095352421
0.0095402981
0.009571789
0.0095717901
0.0095403018
0.0095352479
0.0096148267
0.0096503142
0.0094224003
0.0088395648
0.0077399171
0.0057756786
0.0027270348
0.0007931441
0.0029613606
0.0045564486
0.0054957284
0.0059857697
0.0061501887
0.0061099423
0.0060239931
0.0059937222
0.0059987532
0.005998754
0.0059937252
0.0060239978
0.0061099463
0.0061501936
0.0059857743
0.0054957356
0.0045564586
0.002961373
0.00079316269
0.00017532494
0.0014162685
0.0026098177
0.0033808379
0.0037916147
0.0039256165
0.0038939976
0.0038157189
0.0037717116
0.0037619371
0.0037619376
0.0037717135
0.0038157221
0.0038940003
0.0039256197
0.0037916174
0.0033808418
0.0026098229
0.0014162747
0.00017533031
3.1219283e-05
0.00063502329
0.0014560143
0.0020531574
0.0023871515
0.0025020405
0.002484393
0.0024225199
0.0023797364
0.002364736
0.0023647364
0.0023797376
0.0024225218
0.0024843947
0.0025020424
0.0023871529
0.0020531593
0.0014560167
0.00063502646
3.1220421e-05
4.7586762e-06
0.00026861036
0.00079222323
0.0012290938
0.0014896095
0.001587111
0.0015818695
0.00153814
0.0015034056
0.0014887637
0.0014887639
0.0015034063
0.0015381411
0.0015818705
0.001587112
0.0014896102
0.0012290946
0.00079222443
0.00026861191
4.7588699e-06
6.5522111e-07
0.00010820222
0.00042112249
0.00072488859
0.00091964105
0.00099929821
0.0010024057
0.0009741783
0.00094891906
0.00093698828
0.00093698841
0.00094891937
0.00097417883
0.0010024062
0.0009992987
0.00091964129
0.00072488891
0.0004211231
0.00010820293
6.5524945e-07
8.4856183e-08
4.1954658e-05
0.00021915738
0.00042126559
0.00056123458
0.0006235377
0.00063097161
0.00061415754
0.00059717119
0.00058840629
0.00058840634
0.0005971713
0.00061415776
0.00063097185
0.0006235379
0.00056123463
0.00042126569
0.00021915769
4.1954961e-05
8.4859944e-08
1.0620511e-08
1.5807363e-05
0.00011190589
0.00024135471
0.00033850217
0.00038527535
0.00039403088
0.00038482926
0.00037407224
0.00036806671
0.00036806671
0.00037407226
0.00038482931
0.00039403096
0.0003852754
0.00033850214
0.00024135473
0.00011190605
1.5807484e-05
1.0620979e-08
1.3094105e-09
5.8317708e-06
5.6187358e-05
0.00013643517
0.00020181433
0.00023566362
0.0002439489
0.00023940864
0.00023292861
0.00022902087
0.00022902085
0.00023292858
0.00023940861
0.00024394889
0.0002356636
0.00020181428
0.00013643517
5.6187441e-05
5.8318168e-06
1.3094661e-09
1.609221e-10
2.117474e-06
2.778839e-05
7.6147921e-05
0.00011896762
0.00014268853
0.00014966625
0.00014776024
0.00014402866
0.00014158852
0.0001415885
0.00014402862
0.00014776019
0.00014966621
0.00014268849
0.00011896757
7.6147912e-05
2.7788433e-05
2.1174909e-06
1.6092853e-10
1.9840456e-11
7.5888534e-07
1.3553358e-05
4.1980869e-05
6.9354773e-05
8.5514937e-05
9.0963613e-05
9.0419402e-05
8.8362606e-05
8.6891527e-05
8.6891509e-05
8.8362561e-05
9.0419346e-05
9.0963562e-05
8.5514896e-05
6.9354739e-05
4.1980863e-05
1.3553381e-05
7.5889137e-07
1.9841152e-11
2.473709e-12
2.6884757e-07
6.523667e-06
2.2866819e-05
3.998726e-05
5.0723788e-05
5.4752225e-05
5.4830342e-05
5.3748663e-05
5.2888943e-05
5.2888928e-05
5.3748625e-05
5.4830292e-05
5.4752181e-05
5.0723754e-05
3.998724e-05
2.2866818e-05
6.5236792e-06
2.6884968e-07
2.4737573e-12
)
;

boundaryField
{
    Wall
    {
        type            zeroGradient;
    }
    frontAndBack
    {
        type            empty;
    }
    atmosphere
    {
        type            zeroGradient;
    }
}


// ************************************************************************* //
