/*--------------------------------*- C++ -*----------------------------------*\
| =========                 |                                                 |
| \\      /  F ield         | OpenFOAM: The Open Source CFD Toolbox           |
|  \\    /   O peration     | Version:  3.0.1                                 |
|   \\  /    A nd           | Web:      www.OpenFOAM.org                      |
|    \\/     M anipulation  |                                                 |
\*---------------------------------------------------------------------------*/
FoamFile
{
    version     2.0;
    format      ascii;
    class       volScalarField;
    location    "30";
    object      wCO2_l;
}
// * * * * * * * * * * * * * * * * * * * * * * * * * * * * * * * * * * * * * //

dimensions      [0 0 0 0 0 0 0];

internalField   nonuniform List<scalar> 
800
(
0.0037306127
0.0037308983
0.0037309659
0.0037309763
0.0037309775
0.003730978
0.0037309789
0.0037309799
0.0037309807
0.0037309811
0.0037309811
0.0037309807
0.0037309799
0.0037309789
0.003730978
0.0037309775
0.0037309764
0.003730966
0.0037308983
0.0037306127
0.0037164894
0.0037182009
0.0037190458
0.0037193661
0.0037194601
0.0037194619
0.0037194348
0.0037194059
0.0037193848
0.003719374
0.003719374
0.0037193848
0.0037194058
0.0037194348
0.0037194619
0.00371946
0.0037193659
0.0037190455
0.0037182007
0.0037164888
0.0037682849
0.0037691303
0.0037695831
0.0037699834
0.0037701256
0.0037701467
0.0037701236
0.0037700922
0.0037700676
0.0037700545
0.0037700545
0.0037700676
0.0037700922
0.0037701235
0.0037701466
0.0037701255
0.0037699833
0.0037695828
0.00376913
0.0037682843
0.0038847238
0.0038824552
0.0038818697
0.0038821787
0.0038823099
0.0038823466
0.0038823402
0.0038823206
0.0038823029
0.0038822927
0.0038822927
0.0038823029
0.0038823206
0.0038823403
0.0038823466
0.0038823099
0.0038821787
0.0038818697
0.0038824551
0.0038847234
0.0040692832
0.0040611348
0.004059064
0.0040588726
0.0040589365
0.0040589819
0.0040589989
0.0040589993
0.0040589955
0.0040589917
0.0040589917
0.0040589956
0.0040589995
0.0040589991
0.0040589821
0.0040589368
0.0040588729
0.0040590643
0.0040611351
0.0040692834
0.004329007
0.0043114609
0.0043075014
0.0043063098
0.004306256
0.0043063038
0.0043063498
0.0043063768
0.0043063917
0.0043063967
0.0043063967
0.0043063919
0.0043063771
0.0043063503
0.0043063043
0.0043062567
0.0043063105
0.0043075022
0.0043114617
0.0043290079
0.004674125
0.0046426176
0.0046362235
0.0046335953
0.0046333923
0.0046334433
0.0046335267
0.0046335867
0.0046336249
0.0046336405
0.0046336406
0.0046336253
0.0046335873
0.0046335275
0.0046334442
0.0046333934
0.0046335965
0.0046362248
0.004642619
0.0046741266
0.0051172115
0.0050664931
0.0050565741
0.0050522201
0.0050518881
0.0050519603
0.0050520953
0.0050521957
0.0050522622
0.0050522899
0.0050522901
0.0050522627
0.0050521965
0.0050520965
0.0050519617
0.0050518898
0.005052222
0.0050565761
0.0050664952
0.0051172139
0.0056716659
0.0055960805
0.0055807863
0.0055746012
0.0055740362
0.0055741835
0.0055743896
0.0055745381
0.005574639
0.0055746805
0.0055746808
0.0055746398
0.0055745392
0.0055743912
0.0055741855
0.0055740385
0.0055746037
0.005580789
0.0055960833
0.005671669
0.0063520251
0.0062455527
0.0062224189
0.0062145083
0.0062133892
0.0062135013
0.0062137939
0.0062139966
0.0062141407
0.006214198
0.0062141983
0.0062141417
0.0062139981
0.0062137961
0.0062135039
0.0062133922
0.0062145116
0.0062224224
0.0062455563
0.0063520289
0.007172751
0.0070291464
0.0069953026
0.0069860116
0.0069837024
0.0069833387
0.0069837253
0.0069839865
0.0069841904
0.0069842677
0.0069842681
0.0069841915
0.0069839884
0.0069837279
0.0069833419
0.0069837061
0.0069860157
0.0069953069
0.0070291508
0.0071727556
0.0081470986
0.0079599565
0.0079126053
0.0079025742
0.0078975463
0.0078959993
0.0078964884
0.0078968116
0.0078971313
0.0078972366
0.0078972371
0.0078971327
0.0078968138
0.0078964914
0.0078960031
0.0078975506
0.0079025791
0.0079126105
0.0079599618
0.0081471042
0.0092861251
0.009048821
0.0089861819
0.0089760262
0.0089655658
0.0089621202
0.0089627439
0.0089631279
0.0089633722
0.0089635177
0.0089635182
0.0089633736
0.0089631304
0.0089627473
0.0089621244
0.0089655707
0.0089760318
0.0089861879
0.0090488272
0.0092861318
0.010598141
0.010304668
0.010226448
0.010216143
0.010197079
0.010191324
0.010192153
0.010192592
0.010191367
0.010191633
0.010191634
0.010191368
0.010192594
0.010192156
0.010191328
0.010197085
0.01021615
0.010226455
0.010304675
0.010598149
0.012078142
0.011726296
0.011633104
0.011621914
0.011592148
0.011584224
0.01158547
0.011586224
0.011580588
0.011580673
0.011580673
0.011580589
0.011586226
0.011585474
0.011584229
0.011592154
0.011621921
0.011633112
0.011726304
0.012078151
0.013657632
0.013252657
0.013144351
0.013131113
0.013090898
0.013081751
0.013082777
0.013084318
0.013071027
0.013069869
0.01306987
0.013071029
0.01308432
0.01308278
0.013081756
0.013090904
0.01313112
0.013144358
0.013252665
0.013657641
0.015342526
0.0148977
0.014773414
0.014757943
0.014709935
0.014699247
0.014697813
0.014700571
0.014678096
0.014674185
0.014674185
0.014678097
0.014700573
0.014697816
0.014699252
0.014709941
0.014757949
0.014773422
0.014897708
0.015342534
0.017096089
0.016629946
0.016489631
0.016473931
0.016421354
0.016407245
0.016401574
0.016406112
0.01637273
0.016364928
0.016364928
0.016372731
0.016406113
0.016401577
0.016407249
0.016421359
0.016473937
0.016489637
0.016629953
0.017096096
0.018861141
0.018401237
0.018248319
0.018237243
0.018177206
0.018159423
0.018150724
0.018157804
0.018112638
0.018100821
0.018100821
0.018112639
0.018157805
0.018150726
0.018159426
0.01817721
0.018237248
0.018248325
0.018401243
0.018861146
0.020542467
0.020135441
0.019980759
0.019980662
0.01990035
0.019882231
0.019875402
0.019885927
0.019833705
0.019818923
0.019818923
0.019833705
0.019885928
0.019875404
0.019882234
0.019900353
0.019980666
0.019980764
0.020135446
0.020542471
0.021999758
0.021716778
0.021581332
0.021582548
0.021482456
0.02147139
0.021473404
0.021488208
0.021439422
0.021423563
0.021423564
0.021439423
0.021488208
0.021473405
0.021471391
0.021482458
0.021582551
0.021581335
0.021716782
0.021999762
0.023044342
0.022948009
0.022871909
0.022879661
0.022785999
0.022763681
0.022781398
0.022800942
0.022768468
0.022753707
0.022753707
0.022768468
0.022800942
0.022781399
0.022763682
0.022786
0.022879663
0.022871911
0.022948013
0.023044348
0.023413722
0.023590494
0.023633419
0.023633756
0.023581746
0.023569466
0.023562638
0.02358676
0.023580158
0.02356832
0.02356832
0.023580158
0.023586761
0.023562639
0.023569467
0.023581747
0.023633757
0.023633422
0.023590499
0.023413732
0.022561045
0.023232714
0.023490868
0.023518132
0.023533159
0.023506639
0.023523838
0.0235505
0.023570425
0.023562152
0.023562152
0.023570426
0.0235505
0.023523838
0.02350664
0.02353316
0.023518133
0.023490871
0.023232722
0.022561063
0.019523354
0.021116415
0.021755253
0.022003071
0.022061239
0.022139356
0.022210584
0.022234416
0.022270722
0.022264864
0.022264864
0.022270723
0.022234416
0.022210584
0.022139356
0.02206124
0.022003072
0.021755258
0.02111643
0.019523382
0.014123118
0.016057169
0.017422758
0.017877627
0.01827602
0.018412606
0.018491892
0.018502253
0.01853352
0.018525555
0.018525555
0.01853352
0.018502253
0.018491893
0.018412606
0.018276021
0.017877629
0.017422765
0.016057191
0.014123159
0.0092788038
0.011365912
0.012779126
0.013480489
0.013882927
0.014054253
0.014123758
0.014120404
0.01413759
0.014125622
0.014125622
0.014137591
0.014120405
0.01412376
0.014054255
0.01388293
0.013480495
0.012779138
0.01136594
0.0092788544
0.0051400505
0.0074994139
0.0090326395
0.0099233148
0.010383212
0.010593814
0.010650449
0.010627462
0.010620746
0.010600359
0.010600359
0.010620748
0.010627465
0.010650453
0.010593817
0.010383217
0.0099233221
0.0090326525
0.0074994382
0.0051400985
0.0021965897
0.0046389419
0.0062436619
0.0072305649
0.0077628336
0.0079844215
0.0080290557
0.007983142
0.0079476512
0.0079150625
0.0079150629
0.0079476529
0.0079831449
0.0080290584
0.0079844247
0.0077628371
0.0072305715
0.0062436735
0.0046389598
0.0021966225
0.0006978178
0.0026988658
0.0042208332
0.0052263896
0.0057899563
0.0060267282
0.0060598666
0.0059983253
0.0059398632
0.0058965351
0.0058965355
0.0059398648
0.0059983279
0.0060598687
0.0060267307
0.0057899586
0.0052263941
0.0042208406
0.0026988757
0.00069783361
0.0001682681
0.0014824236
0.0027970447
0.0037434402
0.0042984527
0.0045365721
0.0045678442
0.0045015534
0.0044318552
0.0043832143
0.0043832145
0.0044318562
0.0045015552
0.0045678456
0.0045365738
0.0042984539
0.0037434427
0.0027970487
0.0014824291
0.00016827311
3.269441e-05
0.00077081153
0.0018183468
0.0026529562
0.0031671264
0.0033950035
0.0034284879
0.0033670459
0.0032973068
0.0032493251
0.0032493253
0.0032973073
0.0033670469
0.0034284888
0.0033950043
0.0031671267
0.0026529572
0.0018183488
0.00077081471
3.2695572e-05
5.4491764e-06
0.00038014131
0.0011583738
0.0018558651
0.002308786
0.0025175331
0.0025535639
0.0025028407
0.0024405398
0.0023975916
0.0023975916
0.0024405398
0.002502841
0.0025535641
0.0025175332
0.0023087858
0.0018558653
0.0011583747
0.00038014312
5.4493921e-06
8.232505e-07
0.00017876601
0.00072189058
0.0012782589
0.0016605167
0.0018443051
0.0018816395
0.0018435404
0.0017923334
0.0017566772
0.0017566771
0.0017923332
0.0018435403
0.0018816393
0.0018443049
0.0016605162
0.0012782587
0.00072189109
0.00017876699
8.2328496e-07
1.1747021e-07
8.075413e-05
0.00043945605
0.00086498216
0.0011756267
0.0013317432
0.0013686035
0.0013423579
0.0013029987
0.0012751385
0.0012751383
0.0013029984
0.0013423575
0.0013686031
0.0013317428
0.0011756262
0.00086498186
0.00043945634
8.0754621e-05
1.1747522e-07
1.6267118e-08
3.5285504e-05
0.00026113381
0.00057408472
0.00081800274
0.00094632193
0.000980889
0.00096449209
0.00093590789
0.00091521915
0.00091521895
0.00093590746
0.00096449157
0.00098088855
0.00094632148
0.00081800225
0.00057408446
0.00026113399
3.5285733e-05
1.6267802e-08
2.2271376e-09
1.499971e-05
0.00015144986
0.00037333272
0.00055877004
0.00066102323
0.00069192291
0.0006829082
0.00066318282
0.00064848396
0.00064848376
0.00066318238
0.00068290766
0.00069192243
0.00066102279
0.00055876965
0.00037333253
0.00015144999
1.4999812e-05
2.2272274e-09
3.0480409e-10
6.2274817e-06
8.5764884e-05
0.00023775723
0.00037447807
0.00045358696
0.00048000568
0.00047603382
0.00046306832
0.00045303127
0.00045303109
0.00046306792
0.00047603331
0.00048000524
0.00045358659
0.00037447779
0.00023775712
8.576497e-05
6.227525e-06
3.0481541e-10
4.2027083e-11
2.5309299e-06
4.7449439e-05
0.00014825087
0.0002461416
0.00030563182
0.00032731434
0.00032646107
0.00031834354
0.00031173742
0.00031173727
0.00031834319
0.00032646064
0.00032731396
0.00030563153
0.00024614141
0.00014825081
4.7449498e-05
2.5309477e-06
4.2028225e-11
5.9710541e-12
1.0082063e-06
2.566249e-05
9.0510211e-05
0.0001586553
0.00020218428
0.00021932136
0.00022016108
0.00021533593
0.00021113544
0.00021113531
0.00021533565
0.00022016073
0.00021932105
0.00020218406
0.00015865519
9.0510195e-05
2.566253e-05
1.0082135e-06
5.9709836e-12
)
;

boundaryField
{
    Wall
    {
        type            zeroGradient;
    }
    frontAndBack
    {
        type            empty;
    }
    atmosphere
    {
        type            zeroGradient;
    }
}


// ************************************************************************* //
