/*--------------------------------*- C++ -*----------------------------------*\
| =========                 |                                                 |
| \\      /  F ield         | OpenFOAM: The Open Source CFD Toolbox           |
|  \\    /   O peration     | Version:  3.0.1                                 |
|   \\  /    A nd           | Web:      www.OpenFOAM.org                      |
|    \\/     M anipulation  |                                                 |
\*---------------------------------------------------------------------------*/
FoamFile
{
    version     2.0;
    format      ascii;
    class       volScalarField;
    location    "30";
    object      wCO2_g;
}
// * * * * * * * * * * * * * * * * * * * * * * * * * * * * * * * * * * * * * //

dimensions      [0 0 0 0 0 0 0];

internalField   nonuniform List<scalar> 
800
(
0.015869254
0.015870088
0.015870251
0.015870292
0.015870313
0.01587033
0.015870344
0.015870354
0.015870361
0.015870365
0.015870365
0.015870361
0.015870354
0.015870344
0.01587033
0.015870313
0.015870292
0.015870252
0.015870088
0.015869254
0.016033216
0.016035389
0.016035864
0.016035858
0.016035752
0.016035659
0.016035598
0.016035562
0.016035542
0.016035534
0.016035534
0.016035542
0.016035561
0.016035598
0.016035659
0.016035752
0.016035858
0.016035864
0.016035389
0.016033216
0.016200903
0.016203192
0.01620434
0.016204267
0.016204059
0.016203897
0.016203798
0.016203745
0.016203718
0.016203707
0.016203707
0.016203718
0.016203744
0.016203798
0.016203897
0.016204059
0.016204267
0.01620434
0.016203192
0.016200903
0.016383914
0.016384256
0.016386049
0.016385908
0.016385614
0.016385412
0.016385299
0.016385249
0.016385228
0.016385222
0.016385222
0.016385228
0.016385249
0.016385299
0.016385412
0.016385614
0.016385908
0.016386049
0.016384256
0.016383914
0.016589665
0.016586199
0.016588245
0.016588145
0.016587739
0.016587497
0.016587381
0.016587343
0.016587335
0.016587336
0.016587336
0.016587335
0.016587343
0.016587381
0.016587497
0.016587739
0.016588146
0.016588245
0.016586199
0.016589665
0.016821791
0.016813167
0.016814934
0.016815006
0.016814427
0.016814123
0.016813994
0.016813967
0.016813971
0.016813981
0.016813981
0.016813971
0.016813967
0.016813994
0.016814123
0.016814427
0.016815006
0.016814935
0.016813167
0.016821791
0.017079931
0.017065677
0.017066515
0.01706684
0.017066014
0.017065607
0.017065444
0.017065416
0.017065425
0.017065441
0.017065441
0.017065425
0.017065416
0.017065445
0.017065607
0.017066014
0.017066841
0.017066515
0.017065678
0.017079931
0.017359806
0.017340491
0.017339652
0.017340238
0.017339108
0.017338546
0.017338315
0.017338263
0.017338264
0.017338279
0.017338279
0.017338264
0.017338263
0.017338315
0.017338546
0.017339109
0.017340238
0.017339653
0.017340491
0.017359807
0.017654108
0.017631738
0.017628501
0.017629275
0.017627929
0.01762717
0.017626824
0.017626716
0.017626691
0.017626697
0.017626697
0.017626691
0.017626716
0.017626824
0.01762717
0.017627929
0.017629275
0.017628502
0.017631738
0.017654109
0.01795199
0.01793038
0.017924189
0.017925022
0.017923791
0.017922938
0.017922417
0.017922211
0.017922137
0.017922122
0.017922122
0.017922137
0.017922211
0.017922417
0.017922939
0.017923791
0.017925023
0.017924189
0.017930381
0.017951991
0.01823988
0.018224909
0.018215676
0.018216405
0.018215938
0.01821534
0.018214565
0.01821421
0.018214058
0.018214008
0.018214008
0.018214058
0.01821421
0.018214565
0.01821534
0.018215938
0.018216405
0.018215677
0.01822491
0.01823988
0.018501673
0.018501255
0.018489988
0.018490398
0.018491682
0.018491888
0.018490763
0.018490196
0.018489949
0.018489847
0.018489847
0.01848995
0.018490196
0.018490763
0.018491888
0.018491683
0.018490398
0.018489988
0.018501255
0.018501672
0.018718354
0.01874216
0.018731663
0.018731412
0.018735723
0.018737307
0.018735718
0.01873485
0.018734638
0.018734445
0.018734445
0.018734638
0.01873485
0.018735718
0.018737307
0.018735723
0.018731411
0.018731662
0.01874216
0.018718353
0.01886809
0.018927471
0.018922569
0.018921511
0.018930243
0.018933591
0.018931401
0.018930106
0.018930226
0.018929924
0.018929924
0.018930225
0.018930106
0.018931401
0.018933591
0.018930242
0.01892151
0.018922568
0.01892747
0.018868089
0.018929091
0.019036963
0.019044096
0.019043037
0.019057397
0.019062523
0.019059443
0.019057453
0.019058326
0.019058247
0.019058247
0.019058326
0.019057452
0.019059443
0.019062522
0.019057396
0.019043036
0.019044095
0.019036962
0.018929089
0.018925937
0.019096191
0.019123269
0.019124967
0.01914589
0.019152181
0.019147241
0.019144168
0.019146211
0.019147324
0.019147323
0.01914621
0.019144167
0.01914724
0.01915218
0.019145888
0.019124966
0.019123267
0.019096188
0.018925934
0.018797109
0.019045544
0.019101235
0.01911004
0.019138299
0.019144298
0.019136393
0.019132043
0.019135475
0.019139148
0.019139147
0.019135474
0.019132042
0.019136391
0.019144296
0.019138297
0.019110037
0.019101233
0.019045541
0.018797106
0.018514008
0.018856909
0.018950602
0.018971602
0.019008947
0.01901299
0.019001488
0.018995786
0.019000094
0.019007468
0.019007467
0.019000094
0.018995784
0.019001486
0.019012987
0.019008945
0.018971599
0.018950598
0.018856905
0.018514004
0.018042541
0.018496732
0.018638877
0.018676971
0.018725908
0.018727301
0.018712627
0.018705579
0.018710108
0.018721597
0.018721597
0.018710107
0.018705577
0.018712625
0.018727298
0.018725905
0.018676968
0.018638873
0.018496728
0.018042538
0.017341429
0.017924511
0.018127065
0.018187322
0.018250356
0.018250859
0.018234427
0.018226098
0.018231162
0.018246327
0.018246327
0.018231161
0.018226096
0.018234425
0.018250856
0.018250352
0.018187319
0.018127061
0.017924508
0.017341427
0.016361199
0.017089737
0.017367688
0.017456058
0.017536767
0.017539798
0.017523455
0.017513988
0.017522074
0.017539816
0.017539815
0.017522073
0.017513986
0.017523452
0.017539795
0.017536763
0.017456054
0.017367685
0.017089734
0.016361198
0.015045334
0.015931193
0.016300956
0.016426965
0.016531355
0.016540053
0.016525432
0.016515046
0.016528954
0.016547848
0.016547847
0.016528953
0.016515044
0.016525429
0.016540051
0.016531352
0.016426962
0.016300954
0.015931192
0.015045336
0.01332522
0.014377141
0.014855779
0.015032156
0.015166679
0.015186569
0.015176337
0.015165426
0.015185708
0.015204322
0.015204321
0.015185707
0.015165424
0.015176335
0.015186567
0.015166677
0.015032154
0.014855777
0.014377142
0.013325226
0.011134387
0.012351837
0.012949424
0.013194766
0.013357355
0.013403564
0.013403864
0.0133931
0.013417617
0.01343477
0.01343477
0.013417616
0.013393099
0.013403863
0.013403563
0.013357353
0.013194765
0.012949424
0.012351841
0.011134399
0.0085221152
0.0098140792
0.010532207
0.010845712
0.011042169
0.011121774
0.011133447
0.011123914
0.011148873
0.011163632
0.011163632
0.011148873
0.011123913
0.011133447
0.011121774
0.011042169
0.010845712
0.010532209
0.0098140874
0.0085221311
0.0059476899
0.0070433542
0.0077704168
0.0080790259
0.00829902
0.0083778507
0.0083927895
0.008384506
0.0084044605
0.0084155219
0.0084155218
0.0084044605
0.0083845058
0.0083927897
0.0083778507
0.0082990203
0.0080790268
0.0077704204
0.0070433648
0.0059477095
0.0037855601
0.0047590123
0.0054279377
0.0057586013
0.0059570224
0.0060322329
0.006048095
0.006040718
0.0060541833
0.0060613601
0.0060613602
0.0060541836
0.0060407186
0.0060480958
0.0060322339
0.0059570237
0.0057586036
0.0054279429
0.0047590247
0.0037855819
0.0020330978
0.0030101243
0.0036461285
0.0039978774
0.0041836519
0.0042592459
0.0042704532
0.0042580934
0.0042607565
0.0042620704
0.0042620706
0.0042607571
0.0042580943
0.0042704544
0.0042592472
0.0041836537
0.0039978803
0.0036461338
0.0030101343
0.0020331174
0.00084306143
0.0017836647
0.002395443
0.0027512784
0.0029370833
0.0030050102
0.0030100157
0.0029896606
0.0029801598
0.0029747356
0.0029747358
0.0029801605
0.0029896618
0.0030100168
0.0030050115
0.0029370847
0.002751281
0.0023954475
0.0017836717
0.00084307419
0.00026018118
0.00098971633
0.0015363792
0.0018789469
0.0020605217
0.0021267976
0.0021267011
0.002101269
0.0020828645
0.0020721606
0.0020721607
0.0020828652
0.0021012701
0.0021267019
0.0021267986
0.0020605226
0.0018789487
0.001536382
0.00098972009
0.00026018713
6.098713e-05
0.0005157652
0.00096289719
0.0012704893
0.001440435
0.0015042478
0.0015040251
0.0014781439
0.0014560215
0.001442785
0.0014427851
0.0014560219
0.0014781447
0.0015040257
0.0015042485
0.0014404356
0.0012704903
0.0009628987
0.00051576723
6.0988961e-05
1.1515991e-05
0.00025332337
0.00059019917
0.00084905352
0.0010000821
0.0010596964
0.0010616445
0.0010389556
0.001017434
0.0010041879
0.001004188
0.0010174343
0.0010389561
0.0010616449
0.0010596968
0.0010000823
0.00084905397
0.00059019992
0.0002533245
1.1516404e-05
1.8628614e-06
0.00011766728
0.00035369981
0.00055965792
0.00068740325
0.00074091883
0.00074527718
0.00072752813
0.00070907851
0.00069742357
0.00069742362
0.00070907863
0.00072752837
0.00074527738
0.00074091901
0.00068740329
0.00055965806
0.00035370019
0.00011766789
1.8629358e-06
2.7252715e-07
5.202825e-05
0.00020711806
0.0003631428
0.00046648719
0.00051251681
0.0005186124
0.00050593934
0.0004914649
0.00048208632
0.00048208634
0.00049146493
0.00050593941
0.00051861247
0.00051251685
0.00046648713
0.00036314281
0.00020711827
5.2028558e-05
2.725387e-07
3.7539814e-08
2.2078678e-05
0.00011845116
0.00023157367
0.00031189209
0.00034989795
0.00035680955
0.00034846572
0.00033786741
0.00033081303
0.00033081302
0.00033786739
0.0003484657
0.00035680953
0.00034989791
0.000311892
0.00023157363
0.00011845127
2.2078824e-05
3.7541441e-08
4.9996866e-09
9.0587318e-06
6.6154694e-05
0.00014493805
0.00020513242
0.00023535047
0.00024223333
0.00023719659
0.00022986689
0.00022484125
0.00022484123
0.00022986683
0.00023719652
0.00024223328
0.00023535041
0.00020513233
0.00014493802
6.6154761e-05
9.0587956e-06
4.9999014e-09
6.5558106e-10
3.6152812e-06
3.6091188e-05
8.8963879e-05
0.00013257712
0.00015577453
0.00016203909
0.00015930373
0.00015448431
0.00015106472
0.00015106469
0.00015448425
0.00015930365
0.00016203901
0.00015577446
0.00013257705
8.8963849e-05
3.6091228e-05
3.6153077e-06
6.5560819e-10
8.55306e-11
1.4090535e-06
1.9242762e-05
5.3524515e-05
8.4137685e-05
0.00010137158
0.00010669502
0.00010543046
0.0001024088
0.00010017434
0.00010017432
0.00010240874
0.00010543038
0.00010669495
0.00010137152
8.4137633e-05
5.3524497e-05
1.9242786e-05
1.4090641e-06
8.5533917e-11
1.1162535e-11
5.3754118e-07
1.0031513e-05
3.1554547e-05
5.2406734e-05
6.4821608e-05
6.9101261e-05
6.8694567e-05
6.6887217e-05
6.5480362e-05
6.548034e-05
6.6887165e-05
6.86945e-05
6.91012e-05
6.482156e-05
5.2406701e-05
3.1554538e-05
1.0031528e-05
5.3754525e-07
1.1162901e-11
1.4702503e-12
2.0096778e-07
5.11547e-06
1.8225405e-05
3.2027678e-05
4.0713539e-05
4.3996605e-05
4.4034262e-05
4.3005659e-05
4.2149955e-05
4.2149938e-05
4.3005618e-05
4.4034208e-05
4.3996557e-05
4.0713504e-05
3.2027659e-05
1.8225403e-05
5.115479e-06
2.0096931e-07
1.4702668e-12
)
;

boundaryField
{
    Wall
    {
        type            zeroGradient;
    }
    frontAndBack
    {
        type            empty;
    }
    atmosphere
    {
        type            zeroGradient;
    }
}


// ************************************************************************* //
