/*--------------------------------*- C++ -*----------------------------------*\
| =========                 |                                                 |
| \\      /  F ield         | OpenFOAM: The Open Source CFD Toolbox           |
|  \\    /   O peration     | Version:  3.0.1                                 |
|   \\  /    A nd           | Web:      www.OpenFOAM.org                      |
|    \\/     M anipulation  |                                                 |
\*---------------------------------------------------------------------------*/
FoamFile
{
    version     2.0;
    format      ascii;
    class       volScalarField;
    location    "30";
    object      weight1;
}
// * * * * * * * * * * * * * * * * * * * * * * * * * * * * * * * * * * * * * //

dimensions      [0 0 0 0 0 0 0];

internalField   nonuniform List<scalar> 
800
(
9.9907521e+12
9.9907518e+12
9.9907517e+12
9.9907516e+12
9.9907516e+12
9.9907516e+12
9.9907516e+12
9.9907516e+12
9.9907516e+12
9.9907516e+12
9.9907516e+12
9.9907516e+12
9.9907516e+12
9.9907516e+12
9.9907516e+12
9.9907516e+12
9.9907516e+12
9.9907517e+12
9.9907518e+12
9.9907521e+12
9.992008e+12
9.991893e+12
9.991873e+12
9.9918697e+12
9.9918697e+12
9.9918698e+12
9.9918696e+12
9.9918694e+12
9.9918691e+12
9.991869e+12
9.991869e+12
9.9918691e+12
9.9918694e+12
9.9918696e+12
9.9918698e+12
9.9918697e+12
9.9918697e+12
9.991873e+12
9.991893e+12
9.992008e+12
9.9207775e+12
9.922648e+12
9.9234611e+12
9.9237304e+12
9.9237949e+12
9.9237914e+12
9.9237707e+12
9.9237511e+12
9.9237376e+12
9.9237311e+12
9.9237311e+12
9.9237376e+12
9.923751e+12
9.9237706e+12
9.9237913e+12
9.9237948e+12
9.9237302e+12
9.9234609e+12
9.9226478e+12
9.9207771e+12
9.7901527e+12
9.7957093e+12
9.7978208e+12
9.7984979e+12
9.7986655e+12
9.7986579e+12
9.798606e+12
9.7985561e+12
9.7985215e+12
9.7985045e+12
9.7985044e+12
9.7985214e+12
9.798556e+12
9.7986058e+12
9.7986576e+12
9.7986651e+12
9.7984974e+12
9.7978203e+12
9.7957087e+12
9.7901518e+12
9.6117961e+12
9.6223482e+12
9.6260309e+12
9.6271799e+12
9.6274587e+12
9.6274382e+12
9.627345e+12
9.6272565e+12
9.6271948e+12
9.6271643e+12
9.6271643e+12
9.6271946e+12
9.6272563e+12
9.6273446e+12
9.6274378e+12
9.6274581e+12
9.6271792e+12
9.6260301e+12
9.6223472e+12
9.6117947e+12
9.3961058e+12
9.412509e+12
9.4179336e+12
9.419591e+12
9.4199719e+12
9.4199252e+12
9.4197802e+12
9.4196457e+12
9.4195524e+12
9.4195064e+12
9.4195063e+12
9.4195522e+12
9.4196454e+12
9.4197797e+12
9.4199245e+12
9.419971e+12
9.41959e+12
9.4179325e+12
9.4125076e+12
9.396104e+12
9.1524204e+12
9.1753762e+12
9.1825965e+12
9.1847734e+12
9.1852299e+12
9.185138e+12
9.1849304e+12
9.1847433e+12
9.1846147e+12
9.1845515e+12
9.1845515e+12
9.1846144e+12
9.1847428e+12
9.1849297e+12
9.1851372e+12
9.1852288e+12
9.1847722e+12
9.1825951e+12
9.1753746e+12
9.1524184e+12
8.88019e+12
8.9112629e+12
8.9206154e+12
8.9233124e+12
8.9238416e+12
8.9236968e+12
8.9234201e+12
8.9231759e+12
8.9230094e+12
8.9229277e+12
8.9229276e+12
8.923009e+12
8.9231753e+12
8.9234193e+12
8.9236958e+12
8.9238403e+12
8.923311e+12
8.9206138e+12
8.9112612e+12
8.8801878e+12
8.5864134e+12
8.6262148e+12
8.6378134e+12
8.6410042e+12
8.641562e+12
8.6413464e+12
8.6409969e+12
8.6406956e+12
8.6404911e+12
8.640391e+12
8.6403908e+12
8.6404907e+12
8.6406949e+12
8.640996e+12
8.6413452e+12
8.6415607e+12
8.6410027e+12
8.6378117e+12
8.626213e+12
8.5864112e+12
8.271283e+12
8.3205105e+12
8.3347646e+12
8.3384257e+12
8.3389239e+12
8.3386125e+12
8.3382037e+12
8.3378556e+12
8.3376179e+12
8.3375017e+12
8.3375016e+12
8.3376174e+12
8.3378549e+12
8.3382027e+12
8.3386113e+12
8.3389225e+12
8.3384241e+12
8.3347629e+12
8.3205087e+12
8.271281e+12
7.9389298e+12
7.997127e+12
8.0143758e+12
8.0185198e+12
8.0187611e+12
8.0182592e+12
8.0178227e+12
8.0174498e+12
8.0171878e+12
8.0170605e+12
8.0170604e+12
8.0171874e+12
8.017449e+12
8.0178217e+12
8.018258e+12
8.0187596e+12
8.0185182e+12
8.0143741e+12
7.9971253e+12
7.938928e+12
7.5966974e+12
7.6630381e+12
7.6832636e+12
7.6879618e+12
7.6877576e+12
7.6869694e+12
7.6865466e+12
7.6861777e+12
7.6858983e+12
7.6857656e+12
7.6857654e+12
7.6858978e+12
7.6861769e+12
7.6865456e+12
7.6869682e+12
7.6877562e+12
7.6879603e+12
7.683262e+12
7.6630366e+12
7.5966957e+12
7.2499368e+12
7.3243095e+12
7.3471607e+12
7.3525546e+12
7.3519107e+12
7.3508773e+12
7.3505101e+12
7.3501802e+12
7.3498359e+12
7.3497064e+12
7.3497062e+12
7.3498355e+12
7.3501794e+12
7.3505091e+12
7.3508761e+12
7.3519093e+12
7.3525532e+12
7.3471592e+12
7.3243081e+12
7.2499352e+12
6.8999232e+12
6.9830079e+12
7.0081974e+12
7.0143703e+12
7.0135376e+12
7.0124398e+12
7.0121677e+12
7.0119165e+12
7.011486e+12
7.0113634e+12
7.0113632e+12
7.0114856e+12
7.0119157e+12
7.0121667e+12
7.0124387e+12
7.0135364e+12
7.014369e+12
7.008196e+12
6.9830065e+12
6.8999217e+12
6.547962e+12
6.6405714e+12
6.668285e+12
6.675316e+12
6.6746671e+12
6.6737057e+12
6.6735669e+12
6.6733656e+12
6.6729207e+12
6.6727457e+12
6.6727456e+12
6.6729202e+12
6.6733649e+12
6.6735659e+12
6.6737046e+12
6.6746659e+12
6.6753147e+12
6.6682836e+12
6.64057e+12
6.5479605e+12
6.2016103e+12
6.3040602e+12
6.3351763e+12
6.3433673e+12
6.3431926e+12
6.3424628e+12
6.3424901e+12
6.3422504e+12
6.341866e+12
6.3415761e+12
6.3415759e+12
6.3418655e+12
6.3422497e+12
6.3424892e+12
6.3424618e+12
6.3431914e+12
6.343366e+12
6.3351749e+12
6.3040588e+12
6.2016089e+12
5.8560268e+12
5.969302e+12
6.005033e+12
6.014672e+12
6.0152428e+12
6.0148988e+12
6.0151632e+12
6.0149694e+12
6.0147635e+12
6.0143667e+12
6.0143665e+12
6.014763e+12
6.0149687e+12
6.0151623e+12
6.0148978e+12
6.0152417e+12
6.0146708e+12
6.0050317e+12
5.9693007e+12
5.8560254e+12
5.5030767e+12
5.6292451e+12
5.6711165e+12
5.6825618e+12
5.6841596e+12
5.6843469e+12
5.6848946e+12
5.6849167e+12
5.6851413e+12
5.6847881e+12
5.684788e+12
5.6851409e+12
5.684916e+12
5.6848938e+12
5.6843459e+12
5.6841586e+12
5.6825607e+12
5.6711152e+12
5.6292439e+12
5.5030755e+12
5.1283184e+12
5.2704209e+12
5.3199289e+12
5.3334063e+12
5.3365688e+12
5.3373787e+12
5.3382941e+12
5.3387148e+12
5.3397311e+12
5.3396752e+12
5.3396751e+12
5.3397307e+12
5.3387141e+12
5.3382932e+12
5.3373778e+12
5.3365678e+12
5.3334052e+12
5.3199277e+12
5.2704197e+12
5.1283174e+12
4.7120807e+12
4.8736703e+12
4.9318982e+12
4.9471855e+12
4.9528605e+12
4.9544415e+12
4.9559509e+12
4.9569085e+12
4.9591663e+12
4.9596531e+12
4.9596529e+12
4.9591659e+12
4.9569078e+12
4.9559501e+12
4.9544406e+12
4.9528595e+12
4.9471844e+12
4.931897e+12
4.8736693e+12
4.71208e+12
4.236518e+12
4.4199927e+12
4.4878799e+12
4.5051767e+12
4.5143782e+12
4.5171118e+12
4.5194914e+12
4.5209302e+12
4.5249175e+12
4.526046e+12
4.5260459e+12
4.5249171e+12
4.5209296e+12
4.5194907e+12
4.5171109e+12
4.5143772e+12
4.5051756e+12
4.4878787e+12
4.4199919e+12
4.2365177e+12
3.7037759e+12
3.9082094e+12
3.987998e+12
4.0097882e+12
4.0239723e+12
4.0286446e+12
4.0318893e+12
4.0333845e+12
4.0390377e+12
4.0406652e+12
4.0406651e+12
4.0390374e+12
4.0333839e+12
4.0318886e+12
4.0286437e+12
4.0239713e+12
4.0097871e+12
3.987997e+12
3.9082089e+12
3.7037763e+12
3.1402244e+12
3.3625097e+12
3.4588865e+12
3.4904261e+12
3.5119145e+12
3.5195616e+12
3.5234638e+12
3.5245391e+12
3.5310517e+12
3.532842e+12
3.5328418e+12
3.5310515e+12
3.5245387e+12
3.5234632e+12
3.5195608e+12
3.5119136e+12
3.4904252e+12
3.4588858e+12
3.3625097e+12
3.1402257e+12
2.5692554e+12
2.8054596e+12
2.922263e+12
2.9687471e+12
2.9987136e+12
3.0108289e+12
3.016376e+12
3.0169283e+12
3.0234053e+12
3.0249586e+12
3.0249585e+12
3.023405e+12
3.0169279e+12
3.0163755e+12
3.0108283e+12
2.9987129e+12
2.9687464e+12
2.9222626e+12
2.8054602e+12
2.5692576e+12
2.0020203e+12
2.2433264e+12
2.3808079e+12
2.4441882e+12
2.4816584e+12
2.5004761e+12
2.5082666e+12
2.5084546e+12
2.5140201e+12
2.515022e+12
2.5150219e+12
2.5140199e+12
2.5084543e+12
2.5082664e+12
2.5004758e+12
2.481658e+12
2.4441878e+12
2.380808e+12
2.2433278e+12
2.0020237e+12
0
0
1.8398329e+12
1.9173722e+12
1.9619834e+12
1.9852205e+12
1.99442e+12
1.9946945e+12
1.998908e+12
1.9993409e+12
1.9993409e+12
1.998908e+12
1.9946944e+12
1.9944201e+12
1.9852205e+12
1.9619835e+12
1.9173723e+12
1.8398337e+12
0
0
0
0
0
0
0
0
0
0
0
0
0
0
0
0
0
0
0
0
0
0
0
0
0
0
0
0
0
0
0
0
0
0
0
0
0
0
0
0
0
0
0
0
0
0
0
0
0
0
0
0
0
0
0
0
0
0
0
0
0
0
0
0
0
0
0
0
0
0
0
0
0
0
0
0
0
0
0
0
0
0
0
0
0
0
0
0
0
0
0
0
0
0
0
0
0
0
0
0
0
0
0
0
0
0
0
0
0
0
0
0
0
0
0
0
0
0
0
0
0
0
0
0
0
0
0
0
0
0
0
0
0
0
0
0
0
0
0
0
0
0
0
0
0
0
0
0
0
0
0
0
0
0
0
0
0
0
0
0
0
0
0
0
0
0
0
0
0
0
0
0
0
0
0
0
0
0
0
0
0
0
0
0
0
0
0
0
0
0
0
0
0
0
0
0
0
0
0
0
0
0
0
0
0
0
0
0
0
0
0
0
0
0
0
0
0
0
0
0
0
0
0
0
0
0
0
0
0
0
0
0
0
0
0
0
0
0
0
0
0
0
0
0
0
0
0
0
0
0
0
0
0
0
0
0
0
0
0
0
0
0
0
0
0
0
0
0
0
0
0
0
0
0
0
0
0
0
0
0
0
0
)
;

boundaryField
{
    Wall
    {
        type            zeroGradient;
    }
    frontAndBack
    {
        type            empty;
    }
    atmosphere
    {
        type            zeroGradient;
    }
}


// ************************************************************************* //
