/*--------------------------------*- C++ -*----------------------------------*\
| =========                 |                                                 |
| \\      /  F ield         | OpenFOAM: The Open Source CFD Toolbox           |
|  \\    /   O peration     | Version:  3.0.1                                 |
|   \\  /    A nd           | Web:      www.OpenFOAM.org                      |
|    \\/     M anipulation  |                                                 |
\*---------------------------------------------------------------------------*/
FoamFile
{
    version     2.0;
    format      ascii;
    class       volScalarField;
    location    "30";
    object      weight0;
}
// * * * * * * * * * * * * * * * * * * * * * * * * * * * * * * * * * * * * * //

dimensions      [0 0 0 0 0 0 0];

internalField   nonuniform List<scalar> 
800
(
9.2478807e+09
9.2482195e+09
9.2483377e+09
9.2483688e+09
9.2483818e+09
9.2483913e+09
9.2483991e+09
9.2484053e+09
9.2484096e+09
9.2484117e+09
9.2484117e+09
9.2484095e+09
9.2484053e+09
9.2483991e+09
9.2483912e+09
9.2483818e+09
9.2483688e+09
9.2483377e+09
9.2482195e+09
9.2478808e+09
7.9919586e+09
8.1070467e+09
8.1269622e+09
8.1302591e+09
8.1303416e+09
8.1302307e+09
8.1303602e+09
8.1306312e+09
8.1308891e+09
8.131039e+09
8.1310388e+09
8.130889e+09
8.1306309e+09
8.1303596e+09
8.13023e+09
8.1303407e+09
8.1302581e+09
8.1269608e+09
8.107045e+09
7.9919553e+09
7.6765836e+09
7.7988118e+09
7.8348484e+09
7.8407175e+09
7.8421865e+09
7.8430002e+09
7.8437889e+09
7.8445156e+09
7.8450606e+09
7.8453505e+09
7.8453504e+09
7.8450604e+09
7.8445153e+09
7.8437884e+09
7.8429995e+09
7.8421857e+09
7.8407167e+09
7.8348474e+09
7.7988106e+09
7.676581e+09
7.5808164e+09
7.697062e+09
7.7387796e+09
7.7461023e+09
7.7487405e+09
7.7502504e+09
7.7513906e+09
7.7522759e+09
7.7528858e+09
7.7531982e+09
7.7531979e+09
7.7528854e+09
7.7522753e+09
7.7513897e+09
7.7502492e+09
7.7487392e+09
7.7461008e+09
7.7387779e+09
7.69706e+09
7.5808128e+09
6.8638364e+09
7.022915e+09
7.0711384e+09
7.0800391e+09
7.0843492e+09
7.086341e+09
7.0874091e+09
7.0880556e+09
7.0884471e+09
7.0886371e+09
7.0886367e+09
7.088446e+09
7.0880538e+09
7.0874065e+09
7.0863377e+09
7.0843453e+09
7.0800345e+09
7.0711331e+09
7.0229088e+09
6.863827e+09
4.6876063e+09
5.0024202e+09
5.072011e+09
5.0809402e+09
5.0886883e+09
5.091549e+09
5.0924267e+09
5.0926304e+09
5.0926406e+09
5.0926226e+09
5.0926217e+09
5.092638e+09
5.092626e+09
5.0924205e+09
5.0915412e+09
5.0886789e+09
5.0809293e+09
5.0719987e+09
5.002406e+09
4.6875863e+09
6286.7846
5.3464434e+08
6.8198329e+08
6.8974784e+08
7.0688183e+08
7.1310281e+08
7.1469232e+08
7.1481228e+08
7.1457957e+08
7.1441392e+08
7.1441191e+08
7.1457354e+08
7.1480233e+08
7.1467848e+08
7.1308521e+08
7.0686106e+08
6.8972426e+08
6.8195755e+08
5.3461581e+08
6290.4038
5.0785608e+08
3.4320789e+08
3.1261671e+08
3.1303713e+08
3.0965223e+08
3.0828556e+08
3.0786141e+08
3.0775902e+08
3.077644e+08
3.0777548e+08
3.0777585e+08
3.0776553e+08
3.0776088e+08
3.0786397e+08
3.0828878e+08
3.0965597e+08
3.1304132e+08
3.1262112e+08
3.432128e+08
5.0786381e+08
5.3186763e+09
4.3975549e+09
4.1674266e+09
4.1816691e+09
4.1710559e+09
4.1599288e+09
4.1548748e+09
4.1525637e+09
4.1516694e+09
4.1512587e+09
4.1512609e+09
4.1516761e+09
4.1525747e+09
4.1548897e+09
4.1599473e+09
4.1710766e+09
4.1816919e+09
4.1674495e+09
4.3975785e+09
5.3187058e+09
1.9329893e+10
1.7457327e+10
1.6748541e+10
1.681031e+10
1.6861601e+10
1.6854186e+10
1.6830125e+10
1.6816429e+10
1.6809794e+10
1.6806486e+10
1.6806491e+10
1.6809807e+10
1.6816452e+10
1.6830154e+10
1.6854222e+10
1.6861639e+10
1.6810351e+10
1.674858e+10
1.7457365e+10
1.9329934e+10
4.2503414e+10
4.0625362e+10
3.9296497e+10
3.9434312e+10
3.974434e+10
3.9840129e+10
3.9770228e+10
3.9727271e+10
3.970546e+10
3.9694288e+10
3.9694293e+10
3.9705474e+10
3.9727296e+10
3.977026e+10
3.9840167e+10
3.9744377e+10
3.9434353e+10
3.9296532e+10
4.0625394e+10
4.2503451e+10
7.064539e+10
7.0089288e+10
6.8459201e+10
6.869018e+10
6.9474304e+10
6.9787726e+10
6.9638187e+10
6.9543064e+10
6.9495282e+10
6.9469876e+10
6.9469878e+10
6.9495293e+10
6.9543082e+10
6.9638212e+10
6.9787753e+10
6.947433e+10
6.8690214e+10
6.8459224e+10
7.0089312e+10
7.0645439e+10
1.0068397e+11
1.0209684e+11
1.0095539e+11
1.0128482e+11
1.0259641e+11
1.0311188e+11
1.0284711e+11
1.0267166e+11
1.0264309e+11
1.0259364e+11
1.0259364e+11
1.026431e+11
1.0267167e+11
1.0284714e+11
1.0311191e+11
1.0259644e+11
1.0128487e+11
1.0095542e+11
1.0209688e+11
1.0068407e+11
1.3276979e+11
1.3608974e+11
1.3632825e+11
1.3690542e+11
1.385899e+11
1.3915404e+11
1.3873641e+11
1.3844741e+11
1.3846363e+11
1.3837933e+11
1.3837933e+11
1.3846364e+11
1.3844742e+11
1.3873645e+11
1.3915409e+11
1.3858997e+11
1.3690552e+11
1.3632833e+11
1.3608985e+11
1.3276997e+11
1.6655243e+11
1.7168328e+11
1.7391289e+11
1.7501803e+11
1.7684408e+11
1.7728446e+11
1.766681e+11
1.7628854e+11
1.7628802e+11
1.7622276e+11
1.7622276e+11
1.7628803e+11
1.7628856e+11
1.7666816e+11
1.7728455e+11
1.768442e+11
1.750182e+11
1.7391304e+11
1.7168346e+11
1.6655271e+11
1.953838e+11
2.0282936e+11
2.0722019e+11
2.0908784e+11
2.1096216e+11
2.1121431e+11
2.1034489e+11
2.0994529e+11
2.0986563e+11
2.0988461e+11
2.098846e+11
2.0986565e+11
2.0994531e+11
2.1034497e+11
2.1121442e+11
2.1096231e+11
2.0908806e+11
2.0722038e+11
2.0282959e+11
1.9538414e+11
2.2398877e+11
2.3377289e+11
2.4048569e+11
2.4359792e+11
2.4554175e+11
2.4549774e+11
2.4427392e+11
2.4373718e+11
2.4346322e+11
2.4356326e+11
2.4356325e+11
2.4346324e+11
2.4373719e+11
2.4427401e+11
2.4549788e+11
2.4554194e+11
2.4359819e+11
2.4048592e+11
2.3377317e+11
2.2398917e+11
2.5901319e+11
2.7037492e+11
2.7967453e+11
2.8474615e+11
2.869202e+11
2.8652484e+11
2.8486943e+11
2.8397177e+11
2.8323624e+11
2.8326414e+11
2.8326413e+11
2.8323625e+11
2.8397178e+11
2.8486954e+11
2.8652501e+11
2.8692044e+11
2.8474648e+11
2.7967481e+11
2.7037527e+11
2.5901368e+11
3.123704e+11
3.2397295e+11
3.3669613e+11
3.4497147e+11
3.4751082e+11
3.4683923e+11
3.4463981e+11
3.4311965e+11
3.4152642e+11
3.4121186e+11
3.4121184e+11
3.4152643e+11
3.4311966e+11
3.4463995e+11
3.4683945e+11
3.4751112e+11
3.4497189e+11
3.3669651e+11
3.239734e+11
3.12371e+11
3.9997828e+11
4.1049317e+11
4.285938e+11
4.4231892e+11
4.4530987e+11
4.4450988e+11
4.4152156e+11
4.3913225e+11
4.3615985e+11
4.3521966e+11
4.3521963e+11
4.3615985e+11
4.3913225e+11
4.4152173e+11
4.4451018e+11
4.4531028e+11
4.4231946e+11
4.2859429e+11
4.1049375e+11
3.9997901e+11
5.3434206e+11
5.4424183e+11
5.7081953e+11
5.9266226e+11
5.9662933e+11
5.9579384e+11
5.9174683e+11
5.884036e+11
5.8344937e+11
5.8171932e+11
5.8171928e+11
5.8344936e+11
5.8840357e+11
5.9174703e+11
5.957942e+11
5.9662983e+11
5.9266292e+11
5.7082014e+11
5.4424255e+11
5.3434292e+11
7.0575198e+11
7.1983161e+11
7.5809046e+11
7.8956364e+11
7.9531616e+11
7.9452302e+11
7.8947826e+11
7.854281e+11
7.7836663e+11
7.7588101e+11
7.7588094e+11
7.7836659e+11
7.8542803e+11
7.8947847e+11
7.9452342e+11
7.9531671e+11
7.8956436e+11
7.5809114e+11
7.1983243e+11
7.0575296e+11
8.7697574e+11
9.0381563e+11
9.5640303e+11
9.9804593e+11
1.0066422e+12
1.0062341e+12
1.000744e+12
9.9624574e+11
9.8759044e+11
9.8451137e+11
9.8451129e+11
9.8759039e+11
9.9624564e+11
1.0007442e+12
1.0062345e+12
1.0066428e+12
9.9804664e+11
9.5640372e+11
9.0381652e+11
8.7697688e+11
1.0102707e+12
1.0608464e+12
1.1336919e+12
1.1888439e+12
1.2041547e+12
1.2052256e+12
1.198847e+12
1.1937079e+12
1.1839122e+12
1.1803649e+12
1.1803648e+12
1.1839121e+12
1.1937078e+12
1.1988471e+12
1.2052259e+12
1.2041552e+12
1.1888446e+12
1.1336926e+12
1.0608474e+12
1.0102723e+12
1.0744662e+12
1.1669577e+12
1.2735484e+12
1.3520861e+12
1.383234e+12
1.3874551e+12
1.3805654e+12
1.3742958e+12
1.3635903e+12
1.3594642e+12
1.3594641e+12
1.3635902e+12
1.3742956e+12
1.3805655e+12
1.3874553e+12
1.3832344e+12
1.3520867e+12
1.2735491e+12
1.1669591e+12
1.0744685e+12
0
0
1.3442065e+12
1.4678672e+12
1.5285322e+12
1.5454359e+12
1.5413278e+12
1.5334293e+12
1.5214408e+12
1.516149e+12
1.5161489e+12
1.5214406e+12
1.533429e+12
1.5413278e+12
1.545436e+12
1.5285324e+12
1.4678677e+12
1.3442074e+12
0
0
0
0
0
0
0
0
0
0
0
0
0
0
0
0
0
0
0
0
0
0
0
0
0
0
0
0
0
0
0
0
0
0
0
0
0
0
0
0
0
0
0
0
0
0
0
0
0
0
0
0
0
0
0
0
0
0
0
0
0
0
0
0
0
0
0
0
0
0
0
0
0
0
0
0
0
0
0
0
0
0
0
0
0
0
0
0
0
0
0
0
0
0
0
0
0
0
0
0
0
0
0
0
0
0
0
0
0
0
0
0
0
0
0
0
0
0
0
0
0
0
0
0
0
0
0
0
0
0
0
0
0
0
0
0
0
0
0
0
0
0
0
0
0
0
0
0
0
0
0
0
0
0
0
0
0
0
0
0
0
0
0
0
0
0
0
0
0
0
0
0
0
0
0
0
0
0
0
0
0
0
0
0
0
0
0
0
0
0
0
0
0
0
0
0
0
0
0
0
0
0
0
0
0
0
0
0
0
0
0
0
0
0
0
0
0
0
0
0
0
0
0
0
0
0
0
0
0
0
0
0
0
0
0
0
0
0
0
0
0
0
0
0
0
0
0
0
0
0
0
0
0
0
0
0
0
0
0
0
0
0
0
0
0
0
0
0
0
0
0
0
0
0
0
0
0
0
0
0
0
0
)
;

boundaryField
{
    Wall
    {
        type            zeroGradient;
    }
    frontAndBack
    {
        type            empty;
    }
    atmosphere
    {
        type            zeroGradient;
    }
}


// ************************************************************************* //
