/*--------------------------------*- C++ -*----------------------------------*\
| =========                 |                                                 |
| \\      /  F ield         | OpenFOAM: The Open Source CFD Toolbox           |
|  \\    /   O peration     | Version:  3.0.1                                 |
|   \\  /    A nd           | Web:      www.OpenFOAM.org                      |
|    \\/     M anipulation  |                                                 |
\*---------------------------------------------------------------------------*/
FoamFile
{
    version     2.0;
    format      ascii;
    class       volScalarField;
    location    "30";
    object      XOH;
}
// * * * * * * * * * * * * * * * * * * * * * * * * * * * * * * * * * * * * * //

dimensions      [0 0 0 0 0 0 0];

internalField   nonuniform List<scalar> 
800
(
0.19397927
0.19399938
0.19400312
0.19400365
0.19400375
0.19400382
0.1940039
0.19400399
0.19400405
0.19400408
0.19400408
0.19400405
0.19400399
0.1940039
0.19400382
0.19400375
0.19400365
0.19400312
0.19399938
0.19397927
0.18855843
0.18878806
0.18884313
0.18885649
0.18885859
0.18885809
0.18885737
0.18885693
0.18885673
0.18885666
0.18885666
0.18885673
0.18885693
0.18885737
0.18885809
0.18885858
0.18885648
0.18884312
0.18878805
0.18855841
0.18365898
0.18401979
0.18412652
0.18415436
0.18416018
0.1841603
0.18415946
0.18415884
0.18415854
0.18415843
0.18415843
0.18415854
0.18415884
0.18415945
0.18416029
0.18416017
0.18415435
0.1841265
0.18401977
0.18365895
0.17928547
0.17975837
0.17990684
0.17994606
0.17995475
0.17995532
0.17995442
0.1799537
0.17995334
0.17995321
0.17995321
0.17995334
0.17995369
0.17995442
0.17995531
0.17995473
0.17994605
0.17990682
0.17975835
0.17928543
0.17543635
0.17600385
0.17618791
0.17623605
0.17624653
0.1762471
0.17624599
0.17624509
0.17624465
0.17624449
0.17624449
0.17624464
0.17624508
0.17624598
0.1762471
0.17624652
0.17623603
0.17618789
0.17600383
0.17543631
0.17209167
0.17273662
0.17295326
0.17300889
0.17302034
0.17302047
0.17301892
0.17301772
0.17301713
0.17301691
0.17301691
0.17301713
0.17301771
0.17301892
0.17302046
0.17302033
0.17300887
0.17295324
0.1727366
0.17209164
0.16921535
0.16992536
0.17017269
0.17023515
0.170247
0.17024628
0.17024408
0.17024244
0.17024164
0.17024133
0.17024133
0.17024164
0.17024244
0.17024407
0.17024627
0.17024699
0.17023514
0.17017267
0.16992534
0.16921533
0.16675823
0.16752761
0.16780374
0.16787313
0.16788508
0.16788321
0.16788017
0.16787796
0.16787688
0.16787643
0.16787643
0.16787688
0.16787796
0.16788016
0.1678832
0.16788507
0.16787312
0.16780373
0.16752759
0.1667582
0.16465806
0.1654892
0.165792
0.16586929
0.16588141
0.16587821
0.1658742
0.16587132
0.16586989
0.16586927
0.16586927
0.16586989
0.16587132
0.1658742
0.16587821
0.1658814
0.16586928
0.16579199
0.16548919
0.16465805
0.16283898
0.16374359
0.16407118
0.16415845
0.16417131
0.16416681
0.16416179
0.16415819
0.16415638
0.16415556
0.16415556
0.16415638
0.16415819
0.16416179
0.1641668
0.16417131
0.16415845
0.16407117
0.16374358
0.16283897
0.16120922
0.16220971
0.16256159
0.16266236
0.1626773
0.16267186
0.16266599
0.16266172
0.16265954
0.16265853
0.16265853
0.16265954
0.16266172
0.16266599
0.16267186
0.1626773
0.16266236
0.1625616
0.16220971
0.16120922
0.15965688
0.16078644
0.1611665
0.16128621
0.16130438
0.16129893
0.16129266
0.16128795
0.1612855
0.16128434
0.16128434
0.1612855
0.16128795
0.16129265
0.16129893
0.16130438
0.16128622
0.16116651
0.16078645
0.15965688
0.15804297
0.15934419
0.15976558
0.15991053
0.15993186
0.15992804
0.15992227
0.15991773
0.15991558
0.15991444
0.15991444
0.15991558
0.15991772
0.15992227
0.15992804
0.15993186
0.15991053
0.15976559
0.1593442
0.15804298
0.15618877
0.15771497
0.15820298
0.15837907
0.1584032
0.15840363
0.15840007
0.15839685
0.1583945
0.15839363
0.15839363
0.1583945
0.15839685
0.15840007
0.15840363
0.1584032
0.15837908
0.15820299
0.15771498
0.15618878
0.15386393
0.15568422
0.15627463
0.15648843
0.1565174
0.1565262
0.15652823
0.15652822
0.15652274
0.15652253
0.15652253
0.15652274
0.15652821
0.15652822
0.1565262
0.1565174
0.15648844
0.15627464
0.15568423
0.15386395
0.15078559
0.15298991
0.15372511
0.15398669
0.15402765
0.15405162
0.15406185
0.15406783
0.15405598
0.15405715
0.15405715
0.15405598
0.15406783
0.15406185
0.15405162
0.15402765
0.1539867
0.15372512
0.15298992
0.15078561
0.14660312
0.14930634
0.15023344
0.15055878
0.1506253
0.1506703
0.15068921
0.15070501
0.15068898
0.15069309
0.15069308
0.15068897
0.15070501
0.1506892
0.1506703
0.1506253
0.15055878
0.15023345
0.14930635
0.14660313
0.14088701
0.1442193
0.1453915
0.14580237
0.14591642
0.14598703
0.14601672
0.14604693
0.14603275
0.14604226
0.14604226
0.14603275
0.14604693
0.14601671
0.14598703
0.14591642
0.14580237
0.14539151
0.14421931
0.14088702
0.13312398
0.13721984
0.13869905
0.13921888
0.13940763
0.13951254
0.13956144
0.1396106
0.13960893
0.13962675
0.13962674
0.13960893
0.13961059
0.13956144
0.13951254
0.13940763
0.13921889
0.13869905
0.13721985
0.133124
0.12272968
0.12770883
0.12956547
0.13021832
0.13051088
0.13066555
0.13074774
0.1308191
0.13084832
0.13087701
0.13087701
0.13084832
0.13081909
0.13074774
0.13066555
0.13051088
0.13021833
0.12956548
0.12770885
0.12272971
0.10912388
0.11505294
0.11735712
0.11816094
0.11859263
0.1188237
0.11895349
0.11904797
0.11912971
0.11917063
0.11917063
0.11912971
0.11904797
0.11895349
0.1188237
0.11859263
0.11816095
0.11735713
0.11505297
0.10912393
0.091855163
0.098738575
0.10152329
0.10249273
0.1030776
0.10344238
0.10364173
0.10375813
0.10390156
0.10395352
0.10395352
0.10390156
0.10375813
0.10364173
0.10344238
0.1030776
0.10249274
0.10152331
0.098738614
0.091855234
0.070759384
0.078562688
0.081767714
0.083016946
0.083695618
0.084226849
0.084633661
0.084761046
0.084946393
0.085003696
0.085003695
0.084946393
0.084761046
0.084633662
0.084226852
0.083695623
0.083016957
0.081767737
0.078562738
0.070759466
0.04658224
0.055069053
0.058483076
0.060205168
0.060845484
0.061817847
0.06235577
0.06246765
0.062643639
0.062694295
0.062694294
0.062643638
0.062467649
0.062355771
0.061817848
0.060845488
0.060205177
0.058483098
0.055069097
0.046582305
0.019497269
0.02883044
0.033464967
0.034691832
0.036203501
0.037006333
0.037394372
0.037460852
0.037570038
0.037600304
0.037600303
0.037570036
0.037460849
0.037394369
0.03700633
0.0362035
0.034691834
0.033464979
0.028830464
0.019497297
1e-150
1e-150
0.0036004357
0.003723291
0.0071333667
0.0072782734
0.0073469881
0.0073592286
0.0073784315
0.0073839973
0.0073839971
0.0073784309
0.0073592277
0.0073469872
0.007278272
0.007133366
0.0037232913
0.0036004375
1e-150
1e-150
1e-150
1e-150
1e-150
1e-150
1e-150
1e-150
1e-150
1e-150
1e-150
1e-150
1e-150
1e-150
1e-150
1e-150
1e-150
1e-150
1e-150
1e-150
1e-150
1e-150
1e-150
1e-150
1e-150
1e-150
1e-150
1e-150
1e-150
1e-150
1e-150
1e-150
1e-150
1e-150
1e-150
1e-150
1e-150
1e-150
1e-150
1e-150
1e-150
1e-150
1e-150
1e-150
1e-150
1e-150
1e-150
1e-150
1e-150
1e-150
1e-150
1e-150
1e-150
1e-150
1e-150
1e-150
1e-150
1e-150
1e-150
1e-150
1e-150
1e-150
1e-150
1e-150
1e-150
1e-150
1e-150
1e-150
1e-150
1e-150
1e-150
1e-150
1e-150
1e-150
1e-150
1e-150
1e-150
1e-150
1e-150
1e-150
1e-150
1e-150
1e-150
1e-150
1e-150
1e-150
1e-150
1e-150
1e-150
1e-150
1e-150
1e-150
1e-150
1e-150
1e-150
1e-150
1e-150
1e-150
1e-150
1e-150
1e-150
1e-150
1e-150
1e-150
1e-150
1e-150
1e-150
1e-150
1e-150
1e-150
1e-150
1e-150
1e-150
1e-150
1e-150
1e-150
1e-150
1e-150
1e-150
1e-150
1e-150
1e-150
1e-150
1e-150
1e-150
1e-150
1e-150
1e-150
1e-150
1e-150
1e-150
1e-150
1e-150
1e-150
1e-150
1e-150
1e-150
1e-150
1e-150
1e-150
1e-150
1e-150
1e-150
1e-150
1e-150
1e-150
1e-150
1e-150
1e-150
1e-150
1e-150
1e-150
1e-150
1e-150
1e-150
1e-150
1e-150
1e-150
1e-150
1e-150
1e-150
1e-150
1e-150
1e-150
1e-150
1e-150
1e-150
1e-150
1e-150
1e-150
1e-150
1e-150
1e-150
1e-150
1e-150
1e-150
1e-150
1e-150
1e-150
1e-150
1e-150
1e-150
1e-150
1e-150
1e-150
1e-150
1e-150
1e-150
1e-150
1e-150
1e-150
1e-150
1e-150
1e-150
1e-150
1e-150
1e-150
1e-150
1e-150
1e-150
1e-150
1e-150
1e-150
1e-150
1e-150
1e-150
1e-150
1e-150
1e-150
1e-150
1e-150
1e-150
1e-150
1e-150
1e-150
1e-150
1e-150
1e-150
1e-150
1e-150
1e-150
1e-150
1e-150
1e-150
1e-150
1e-150
1e-150
1e-150
1e-150
1e-150
1e-150
1e-150
1e-150
1e-150
1e-150
1e-150
1e-150
1e-150
1e-150
1e-150
1e-150
1e-150
1e-150
1e-150
1e-150
1e-150
1e-150
1e-150
1e-150
1e-150
1e-150
1e-150
1e-150
1e-150
1e-150
1e-150
1e-150
1e-150
1e-150
1e-150
1e-150
1e-150
1e-150
1e-150
1e-150
1e-150
1e-150
1e-150
1e-150
1e-150
1e-150
1e-150
1e-150
1e-150
1e-150
1e-150
1e-150
1e-150
1e-150
1e-150
1e-150
1e-150
)
;

boundaryField
{
    Wall
    {
        type            zeroGradient;
    }
    frontAndBack
    {
        type            empty;
    }
    atmosphere
    {
        type            zeroGradient;
    }
}


// ************************************************************************* //
