/*--------------------------------*- C++ -*----------------------------------*\
| =========                 |                                                 |
| \\      /  F ield         | OpenFOAM: The Open Source CFD Toolbox           |
|  \\    /   O peration     | Version:  3.0.1                                 |
|   \\  /    A nd           | Web:      www.OpenFOAM.org                      |
|    \\/     M anipulation  |                                                 |
\*---------------------------------------------------------------------------*/
FoamFile
{
    version     2.0;
    format      ascii;
    class       volScalarField;
    location    "30";
    object      XW;
}
// * * * * * * * * * * * * * * * * * * * * * * * * * * * * * * * * * * * * * //

dimensions      [0 0 0 0 0 0 0];

internalField   nonuniform List<scalar> 
800
(
0.7346746
0.7347114
0.73471813
0.73471908
0.73471925
0.73471938
0.73471953
0.73471968
0.73471979
0.73471984
0.73471984
0.73471979
0.73471968
0.73471953
0.73471938
0.73471925
0.73471908
0.73471813
0.7347114
0.7346746
0.72342061
0.72388984
0.72400076
0.7240279
0.72403243
0.72403173
0.72403051
0.72402978
0.72402949
0.7240294
0.7240294
0.72402949
0.72402978
0.7240305
0.72403172
0.72403242
0.72402789
0.72400075
0.72388982
0.72342057
0.71276286
0.71352896
0.71375241
0.7138113
0.71382417
0.71382496
0.71382361
0.71382258
0.71382211
0.71382197
0.71382197
0.71382211
0.71382257
0.7138236
0.71382495
0.71382415
0.71381127
0.71375238
0.71352892
0.71276279
0.70272652
0.70377371
0.70409507
0.70418089
0.70420076
0.70420275
0.7042013
0.70420002
0.7041994
0.7041992
0.7041992
0.70419939
0.7042
0.70420128
0.70420273
0.70420073
0.70418086
0.70409504
0.70377366
0.70272644
0.69332367
0.69463862
0.69505021
0.6951593
0.6951843
0.69518656
0.6951846
0.69518285
0.69518199
0.69518168
0.69518168
0.69518198
0.69518284
0.69518459
0.69518653
0.69518427
0.69515927
0.69505017
0.69463857
0.69332359
0.68452033
0.68608986
0.68659022
0.68672104
0.68674976
0.68675134
0.6867484
0.68674587
0.6867446
0.68674411
0.68674411
0.68674459
0.68674586
0.68674838
0.68675132
0.68674973
0.68672101
0.68659018
0.6860898
0.68452025
0.67623733
0.67805906
0.67864969
0.67880224
0.67883373
0.67883379
0.67882934
0.67882571
0.67882387
0.67882311
0.67882311
0.67882386
0.6788257
0.67882932
0.67883376
0.67883369
0.6788022
0.67864964
0.67805901
0.67623725
0.66835581
0.67044295
0.6711273
0.67130311
0.67133682
0.6713347
0.6713283
0.67132327
0.67132068
0.67131957
0.67131957
0.67132067
0.67132325
0.67132828
0.67133467
0.67133679
0.67130307
0.67112726
0.67044291
0.66835575
0.66071688
0.66310125
0.66388523
0.66408765
0.66412375
0.66411894
0.66411029
0.66410363
0.66410016
0.66409863
0.66409863
0.66410015
0.66410362
0.66411027
0.66411892
0.66412372
0.66408762
0.6638852
0.66310121
0.66071683
0.65311874
0.65585421
0.65674757
0.65698221
0.65702192
0.65701439
0.65700347
0.65699511
0.65699069
0.65698869
0.65698869
0.65699067
0.6569951
0.65700345
0.65701437
0.65702189
0.65698218
0.65674754
0.65585418
0.6531187
0.64531067
0.6484769
0.64949546
0.64977091
0.64981719
0.64980787
0.64979513
0.64978528
0.6497799
0.64977744
0.64977744
0.64977989
0.64978526
0.64979511
0.64980785
0.64981716
0.64977089
0.64949544
0.64847688
0.64531065
0.63698391
0.64068867
0.64185882
0.64218771
0.6422448
0.64223606
0.64222271
0.64221203
0.64220583
0.64220301
0.642203
0.64220582
0.64221201
0.64222269
0.64223604
0.64224478
0.6421877
0.6418588
0.64068866
0.6369839
0.62775703
0.6321372
0.63350248
0.63390063
0.63397349
0.6339695
0.63395784
0.63394791
0.63394219
0.63393939
0.63393939
0.63394217
0.6339479
0.63395782
0.63396948
0.63397347
0.63390062
0.63350247
0.63213719
0.62775702
0.61714568
0.62237284
0.62399847
0.62448396
0.62457956
0.62458668
0.62458078
0.62457466
0.62457139
0.62456911
0.6245691
0.62457138
0.62457464
0.62458076
0.62458666
0.62457954
0.62448395
0.62399846
0.62237283
0.61714567
0.60454279
0.61083161
0.6128048
0.61339932
0.61352958
0.6135573
0.61356505
0.61356737
0.61356877
0.61356785
0.61356784
0.61356875
0.61356734
0.61356503
0.61355728
0.61352956
0.6133993
0.61280479
0.6108316
0.60454278
0.58922093
0.59683639
0.59926612
0.59999832
0.60018264
0.60024626
0.6002794
0.60029676
0.60030789
0.60031035
0.60031035
0.60030787
0.60029673
0.60027937
0.60024624
0.60018262
0.5999983
0.5992661
0.59683638
0.58922091
0.5702522
0.57952263
0.58254401
0.58345237
0.58371928
0.58384066
0.583915
0.5839564
0.58399273
0.58400288
0.58400287
0.58399272
0.58395638
0.58391497
0.58384063
0.58371925
0.58345235
0.58254399
0.57952261
0.57025218
0.546412
0.55774004
0.56152359
0.56265593
0.56304942
0.56325941
0.56339714
0.56347338
0.56356698
0.5635914
0.5635914
0.56356696
0.56347335
0.56339711
0.56325938
0.56304939
0.56265591
0.56152357
0.55774002
0.54641199
0.5161344
0.52998811
0.53475118
0.5361584
0.53676054
0.53710018
0.5373301
0.53745216
0.53765274
0.53769927
0.53769926
0.53765272
0.53745213
0.53733007
0.53710014
0.53676051
0.53615837
0.53475115
0.52998809
0.5161344
0.47748725
0.49434592
0.50035837
0.50209911
0.50306467
0.50357838
0.50392913
0.50410591
0.50446822
0.504544
0.50454399
0.5044682
0.50410589
0.5039291
0.50357835
0.50306464
0.50209908
0.50035835
0.49434593
0.4774873
0.42820793
0.4484689
0.4560462
0.45826552
0.45976244
0.46050636
0.46099722
0.46123356
0.4617929
0.46190268
0.46190267
0.46179289
0.46123353
0.46099719
0.46050634
0.45976242
0.45826551
0.45604619
0.44846894
0.42820804
0.36574291
0.38992883
0.39933889
0.40216619
0.40422431
0.4055014
0.40617258
0.40647088
0.40721056
0.40735342
0.40735342
0.40721055
0.40647086
0.40617256
0.40550138
0.4042243
0.40216619
0.39933891
0.38992892
0.36574309
0.28733623
0.31622218
0.32755327
0.33166807
0.33404762
0.33597427
0.33753923
0.33787948
0.33870465
0.33886793
0.33886793
0.33870465
0.33787947
0.33753922
0.33597426
0.33404761
0.33166807
0.32755331
0.31622231
0.28733646
0.19300888
0.22656238
0.23942167
0.24593216
0.24816742
0.25208571
0.25423047
0.2545425
0.25527732
0.2554279
0.2554279
0.25527731
0.25454249
0.25423046
0.2520857
0.24816741
0.24593216
0.23942173
0.22656251
0.19300909
0.081774961
0.1205495
0.13960967
0.1443824
0.15060816
0.1538761
0.1554321
0.1556198
0.1560676
0.15615978
0.15615977
0.15606759
0.15561978
0.15543209
0.15387608
0.15060814
0.1443824
0.1396097
0.12054958
0.081775059
1e-150
1e-150
0.015138612
0.015611618
0.029939878
0.030520495
0.030791506
0.030824933
0.030901941
0.030918565
0.030918564
0.030901939
0.030824929
0.030791502
0.030520489
0.029939874
0.015611618
0.015138618
1e-150
1e-150
1e-150
1e-150
1e-150
1e-150
1e-150
1e-150
1e-150
1e-150
1e-150
1e-150
1e-150
1e-150
1e-150
1e-150
1e-150
1e-150
1e-150
1e-150
1e-150
1e-150
1e-150
1e-150
1e-150
1e-150
1e-150
1e-150
1e-150
1e-150
1e-150
1e-150
1e-150
1e-150
1e-150
1e-150
1e-150
1e-150
1e-150
1e-150
1e-150
1e-150
1e-150
1e-150
1e-150
1e-150
1e-150
1e-150
1e-150
1e-150
1e-150
1e-150
1e-150
1e-150
1e-150
1e-150
1e-150
1e-150
1e-150
1e-150
1e-150
1e-150
1e-150
1e-150
1e-150
1e-150
1e-150
1e-150
1e-150
1e-150
1e-150
1e-150
1e-150
1e-150
1e-150
1e-150
1e-150
1e-150
1e-150
1e-150
1e-150
1e-150
1e-150
1e-150
1e-150
1e-150
1e-150
1e-150
1e-150
1e-150
1e-150
1e-150
1e-150
1e-150
1e-150
1e-150
1e-150
1e-150
1e-150
1e-150
1e-150
1e-150
1e-150
1e-150
1e-150
1e-150
1e-150
1e-150
1e-150
1e-150
1e-150
1e-150
1e-150
1e-150
1e-150
1e-150
1e-150
1e-150
1e-150
1e-150
1e-150
1e-150
1e-150
1e-150
1e-150
1e-150
1e-150
1e-150
1e-150
1e-150
1e-150
1e-150
1e-150
1e-150
1e-150
1e-150
1e-150
1e-150
1e-150
1e-150
1e-150
1e-150
1e-150
1e-150
1e-150
1e-150
1e-150
1e-150
1e-150
1e-150
1e-150
1e-150
1e-150
1e-150
1e-150
1e-150
1e-150
1e-150
1e-150
1e-150
1e-150
1e-150
1e-150
1e-150
1e-150
1e-150
1e-150
1e-150
1e-150
1e-150
1e-150
1e-150
1e-150
1e-150
1e-150
1e-150
1e-150
1e-150
1e-150
1e-150
1e-150
1e-150
1e-150
1e-150
1e-150
1e-150
1e-150
1e-150
1e-150
1e-150
1e-150
1e-150
1e-150
1e-150
1e-150
1e-150
1e-150
1e-150
1e-150
1e-150
1e-150
1e-150
1e-150
1e-150
1e-150
1e-150
1e-150
1e-150
1e-150
1e-150
1e-150
1e-150
1e-150
1e-150
1e-150
1e-150
1e-150
1e-150
1e-150
1e-150
1e-150
1e-150
1e-150
1e-150
1e-150
1e-150
1e-150
1e-150
1e-150
1e-150
1e-150
1e-150
1e-150
1e-150
1e-150
1e-150
1e-150
1e-150
1e-150
1e-150
1e-150
1e-150
1e-150
1e-150
1e-150
1e-150
1e-150
1e-150
1e-150
1e-150
1e-150
1e-150
1e-150
1e-150
1e-150
1e-150
1e-150
1e-150
1e-150
1e-150
1e-150
1e-150
1e-150
1e-150
1e-150
1e-150
1e-150
1e-150
1e-150
1e-150
1e-150
1e-150
1e-150
1e-150
1e-150
1e-150
1e-150
1e-150
1e-150
1e-150
1e-150
1e-150
)
;

boundaryField
{
    Wall
    {
        type            zeroGradient;
    }
    frontAndBack
    {
        type            empty;
    }
    atmosphere
    {
        type            zeroGradient;
    }
}


// ************************************************************************* //
