/*--------------------------------*- C++ -*----------------------------------*\
| =========                 |                                                 |
| \\      /  F ield         | OpenFOAM: The Open Source CFD Toolbox           |
|  \\    /   O peration     | Version:  3.0.1                                 |
|   \\  /    A nd           | Web:      www.OpenFOAM.org                      |
|    \\/     M anipulation  |                                                 |
\*---------------------------------------------------------------------------*/
FoamFile
{
    version     2.0;
    format      ascii;
    class       volScalarField;
    location    "31";
    object      alpha.gas;
}
// * * * * * * * * * * * * * * * * * * * * * * * * * * * * * * * * * * * * * //

dimensions      [0 0 0 0 0 0 0];

internalField   nonuniform List<scalar> 
800
(
2.026832e-28
2.2574984e-25
4.3282753e-22
8.5252323e-22
1.9089121e-23
1.0498229e-21
9.2733119e-22
6.20681e-23
4.0366474e-25
1.1501734e-27
3.0315084e-23
2.9395557e-23
7.308705e-25
6.8682262e-23
6.6806112e-23
1.5493967e-27
4.468809e-32
1.9349135e-35
3.8133476e-39
7.1056896e-43
1.4800837e-12
3.4229623e-13
2.3635078e-11
8.8142044e-12
4.6574685e-13
1.1181997e-11
8.9290653e-12
1.0708927e-11
2.1745406e-11
5.4659641e-11
2.7501728e-11
2.732221e-11
1.4768053e-11
8.7727846e-12
8.2068719e-12
1.5916069e-12
1.2221371e-15
1.0114927e-13
4.6041922e-12
6.4509905e-15
1.8587044e-08
1.6550786e-08
1.584903e-08
1.5620063e-08
1.555336e-08
1.5560273e-08
1.5574864e-08
1.5593081e-08
1.5612722e-08
1.5641051e-08
1.5622765e-08
1.5616504e-08
1.5595859e-08
1.5574819e-08
1.5558355e-08
1.5554222e-08
1.5614248e-08
1.5833348e-08
1.6553895e-08
1.8586393e-08
8.1833587e-08
7.2624366e-08
6.9358051e-08
6.8424833e-08
6.8169323e-08
6.8178239e-08
6.8247184e-08
6.8321136e-08
6.8379926e-08
6.8425322e-08
6.8409707e-08
6.8383251e-08
6.8323669e-08
6.8247348e-08
6.8176893e-08
6.8170439e-08
6.842027e-08
6.9345108e-08
7.2627867e-08
8.1834078e-08
2.172906e-07
1.9259268e-07
1.8344348e-07
1.8103757e-07
1.8041551e-07
1.8044429e-07
1.8063231e-07
1.8082444e-07
1.8096763e-07
1.8105471e-07
1.8103986e-07
1.8097098e-07
1.8082717e-07
1.8063289e-07
1.8044358e-07
1.804173e-07
1.8103403e-07
1.834321e-07
1.9259757e-07
2.1729296e-07
4.5222148e-07
4.0092954e-07
3.8056245e-07
3.7559555e-07
3.7440773e-07
3.7450258e-07
3.7490817e-07
3.7530683e-07
3.755965e-07
3.7575651e-07
3.7574196e-07
3.7560009e-07
3.7531004e-07
3.7490944e-07
3.7450281e-07
3.7441062e-07
3.7559334e-07
3.8055281e-07
4.0093666e-07
4.5222649e-07
8.1278554e-07
7.2165719e-07
6.8199925e-07
6.7294097e-07
6.7100667e-07
6.7125984e-07
6.7202333e-07
6.7274624e-07
6.7326311e-07
6.735356e-07
6.7352129e-07
6.7326711e-07
6.7275016e-07
6.7202561e-07
6.7126135e-07
6.7101112e-07
6.7294054e-07
6.8199186e-07
7.2166725e-07
8.1279386e-07
1.3232083e-06
1.1779632e-06
1.1073476e-06
1.0919116e-06
1.089114e-06
1.0896858e-06
1.0909976e-06
1.092195e-06
1.0930396e-06
1.093473e-06
1.093459e-06
1.0930442e-06
1.0921998e-06
1.0910012e-06
1.089689e-06
1.0891204e-06
1.0919134e-06
1.1073429e-06
1.1779768e-06
1.3232201e-06
2.0048298e-06
1.791592e-06
1.6740092e-06
1.648587e-06
1.6449077e-06
1.6460498e-06
1.6481556e-06
1.650011e-06
1.6513046e-06
1.6519562e-06
1.6519425e-06
1.6513098e-06
1.6500171e-06
1.6481609e-06
1.6460549e-06
1.6449166e-06
1.6485913e-06
1.6740078e-06
1.7916092e-06
2.0048451e-06
2.8743392e-06
2.5787667e-06
2.3970096e-06
2.3555979e-06
2.3510171e-06
2.3530922e-06
2.3562923e-06
2.3590205e-06
2.3609015e-06
2.3618364e-06
2.3618231e-06
2.3609076e-06
2.3590278e-06
2.3562994e-06
2.3530995e-06
2.3510286e-06
2.3556049e-06
2.3970116e-06
2.5787871e-06
2.8743571e-06
3.9387796e-06
3.5637045e-06
3.3006672e-06
3.2215814e-06
3.2159297e-06
3.2192962e-06
3.2239291e-06
3.2277692e-06
3.2303931e-06
3.2316842e-06
3.2316712e-06
3.2304001e-06
3.2277779e-06
3.2239381e-06
3.2193058e-06
3.2159437e-06
3.2215909e-06
3.3006729e-06
3.5637279e-06
3.9387992e-06
5.226508e-06
4.8593965e-06
4.3779812e-06
4.2506076e-06
4.2427018e-06
4.2472909e-06
4.2546191e-06
4.2598492e-06
4.2633817e-06
4.265105e-06
4.2650926e-06
4.2633896e-06
4.2598593e-06
4.25463e-06
4.2473027e-06
4.2427187e-06
4.2506193e-06
4.3779887e-06
4.8594262e-06
5.2265283e-06
6.7000351e-06
6.0344806e-06
5.4851518e-06
5.3812466e-06
5.3830928e-06
5.4477935e-06
5.4470701e-06
5.4533938e-06
5.4580081e-06
5.460247e-06
5.460235e-06
5.4580168e-06
5.4534053e-06
5.447083e-06
5.4478039e-06
5.3831101e-06
5.3812686e-06
5.4851619e-06
6.0345016e-06
6.700056e-06
8.3533327e-06
7.1737645e-06
6.816807e-06
6.8644537e-06
7.4222978e-06
7.0960772e-06
6.7909401e-06
6.8002079e-06
6.8061202e-06
6.8089675e-06
6.8089559e-06
6.8061296e-06
6.8002205e-06
6.7909545e-06
7.0961124e-06
7.4222193e-06
6.8643922e-06
6.8168269e-06
7.1737844e-06
8.3533734e-06
1.3198487e-05
1.3256683e-05
9.2933818e-06
1.2216096e-05
1.221826e-05
8.3616238e-06
8.2696552e-06
8.282543e-06
8.2897565e-06
8.2932956e-06
8.2932844e-06
8.2897662e-06
8.2825564e-06
8.2696707e-06
8.3617051e-06
1.2218377e-05
1.221565e-05
9.293371e-06
1.3257131e-05
1.3198572e-05
1.4313361e-05
3.3055883e-05
2.6132292e-05
2.1508825e-05
1.1898283e-05
9.5501912e-06
9.8668577e-06
9.8822186e-06
9.8908303e-06
9.8951115e-06
9.8951007e-06
9.8908404e-06
9.8822321e-06
9.8668732e-06
9.5501557e-06
1.1898676e-05
2.1509361e-05
2.6131998e-05
3.3056105e-05
1.4313328e-05
2.9478966e-05
3.3072472e-05
3.307224e-05
1.7838131e-05
1.1322471e-05
1.1746213e-05
1.1559442e-05
1.1574784e-05
1.1584989e-05
1.1590025e-05
1.1590014e-05
1.1585e-05
1.1574798e-05
1.1559457e-05
1.1746161e-05
1.1322774e-05
1.7838715e-05
3.3072414e-05
3.3072646e-05
2.9479231e-05
3.3072306e-05
3.3072206e-05
2.7736905e-05
1.4712586e-05
1.1326119e-05
1.3380001e-05
1.3323648e-05
1.3338152e-05
1.334987e-05
1.3355633e-05
1.3355622e-05
1.334988e-05
1.3338165e-05
1.3323662e-05
1.3380034e-05
1.1326424e-05
1.4712917e-05
2.7736939e-05
3.3072379e-05
3.3072479e-05
3.3072182e-05
3.3072297e-05
1.5182758e-05
1.3580485e-05
1.2222365e-05
1.4759002e-05
1.5130298e-05
1.5151909e-05
1.5165375e-05
1.5171786e-05
1.5171776e-05
1.5165385e-05
1.5151922e-05
1.513031e-05
1.4758976e-05
1.2222224e-05
1.3580088e-05
1.5182833e-05
3.3072471e-05
3.3072355e-05
2.6904381e-05
1.9176645e-05
1.6508473e-05
1.4422797e-05
1.7243363e-05
1.683079e-05
1.6969928e-05
1.6997644e-05
1.7013034e-05
1.7019995e-05
1.7019985e-05
1.7013044e-05
1.6997656e-05
1.696994e-05
1.6830882e-05
1.7244687e-05
1.4423123e-05
1.6509364e-05
1.9175675e-05
2.6904566e-05
1.76938e-05
1.7694318e-05
1.977216e-05
1.4905972e-05
1.9364705e-05
1.8776847e-05
1.8825642e-05
1.8855117e-05
1.8872313e-05
1.8879748e-05
1.8879739e-05
1.8872323e-05
1.885513e-05
1.8825655e-05
1.8776947e-05
1.9364718e-05
1.4906117e-05
1.9772627e-05
1.7694532e-05
1.7694005e-05
1.7694317e-05
1.7693113e-05
1.894145e-05
1.7230005e-05
1.9846234e-05
2.0652346e-05
2.0685572e-05
2.0718602e-05
2.073669e-05
2.0744111e-05
2.0744102e-05
2.0736699e-05
2.0718614e-05
2.0685585e-05
2.0652339e-05
1.9843983e-05
1.7226849e-05
1.8942556e-05
1.7693327e-05
1.7694531e-05
1.7765114e-05
1.7694321e-05
1.7765124e-05
1.9097521e-05
2.1693569e-05
2.2722832e-05
2.2791088e-05
2.2821462e-05
2.2833453e-05
2.2837529e-05
2.283752e-05
2.2833461e-05
2.2821472e-05
2.2791096e-05
2.2722747e-05
2.1692963e-05
1.9097992e-05
1.7765348e-05
1.7694535e-05
1.7765338e-05
2.9732193e-05
1.776527e-05
1.7934571e-05
2.3264585e-05
2.6361302e-05
2.6908913e-05
2.6893195e-05
2.6885559e-05
2.6854639e-05
2.683746e-05
2.683745e-05
2.6854641e-05
2.6885559e-05
2.6893189e-05
2.690889e-05
2.6361706e-05
2.3266133e-05
1.7935024e-05
1.7765494e-05
2.9731443e-05
0.00019238404
7.1581075e-05
4.3937296e-05
4.9442365e-05
4.9598277e-05
4.8641604e-05
4.7944576e-05
4.7555117e-05
4.713474e-05
4.6925782e-05
4.6925754e-05
4.7134682e-05
4.7555021e-05
4.7944422e-05
4.8641422e-05
4.9598403e-05
4.9442674e-05
4.3935818e-05
7.1579111e-05
0.00019237408
0.0030504579
0.00090795466
0.00044559896
0.00035584363
0.00031278452
0.00029175019
0.00028163214
0.00027618675
0.00027086607
0.0002682352
0.00026823492
0.00027086521
0.00027618533
0.00028163003
0.00029174728
0.00031278079
0.00035583809
0.00044558701
0.00090791145
0.0030502455
0.12295989
0.028540044
0.011896457
0.008358829
0.0068349588
0.0061516833
0.0058227494
0.0056436019
0.0054785234
0.0053970224
0.0053970128
0.0054784942
0.0056435529
0.0058226776
0.0061515885
0.0068348341
0.0083586285
0.01189607
0.028538537
0.12295145
0.74919082
0.48610504
0.34513925
0.29051714
0.2589112
0.24270887
0.2344785
0.22981445
0.22547656
0.22330817
0.2233079
0.22547573
0.22981307
0.23447657
0.24270642
0.25890823
0.2905134
0.34513386
0.4860957
0.74917999
0.98741457
0.94567132
0.90019425
0.87566462
0.85892199
0.84960145
0.84466056
0.84179407
0.83910018
0.83774084
0.83774067
0.83909965
0.8417932
0.84465936
0.84959998
0.85892031
0.87566276
0.90019203
0.945669
0.98741357
0.99993963
0.99926184
0.99784679
0.99675097
0.99587464
0.99533843
0.99504209
0.99486756
0.99470172
0.99461739
0.99461738
0.99470169
0.9948675
0.99504202
0.99533834
0.99587454
0.99675088
0.9978467
0.99926179
0.99993962
0.99999999
0.99999921
0.99999593
0.99999223
0.9999888
0.9999865
0.99998519
0.99998443
0.99998368
0.99998329
0.99998329
0.99998368
0.99998443
0.99998519
0.9999865
0.9999888
0.99999223
0.99999593
0.99999921
0.99999999
1
1
1
1
1
1
1
1
1
1
1
1
1
1
1
1
1
1
1
1
1
1
1
1
1
1
1
1
1
1
1
1
1
1
1
1
1
1
1
1
1
1
1
1
1
1
1
1
1
1
1
1
1
1
1
1
1
1
1
1
1
1
1
1
1
1
1
1
1
1
1
1
1
1
1
1
1
1
1
1
1
1
1
1
1
1
1
1
1
1
1
1
1
1
1
1
1
1
1
1
1
1
1
1
1
1
1
1
1
1
1
1
1
1
1
1
1
1
1
1
1
1
1
1
1
1
1
1
1
1
1
1
1
1
1
1
1
1
1
1
1
1
1
1
1
1
1
1
1
1
1
1
1
1
1
1
1
1
1
1
1
1
1
1
1
1
1
1
1
1
1
1
1
1
1
1
1
1
1
1
)
;

boundaryField
{
    Wall
    {
        type            zeroGradient;
    }
    frontAndBack
    {
        type            empty;
    }
    atmosphere
    {
        type            zeroGradient;
    }
}


// ************************************************************************* //
