/*--------------------------------*- C++ -*----------------------------------*\
| =========                 |                                                 |
| \\      /  F ield         | OpenFOAM: The Open Source CFD Toolbox           |
|  \\    /   O peration     | Version:  3.0.1                                 |
|   \\  /    A nd           | Web:      www.OpenFOAM.org                      |
|    \\/     M anipulation  |                                                 |
\*---------------------------------------------------------------------------*/
FoamFile
{
    version     2.0;
    format      ascii;
    class       volScalarField;
    location    "31";
    object      g1_BA;
}
// * * * * * * * * * * * * * * * * * * * * * * * * * * * * * * * * * * * * * //

dimensions      [0 0 0 0 0 0 0];

internalField   nonuniform List<scalar> 
800
(
0.55911562
0.55912197
0.55912584
0.5591268
0.55912698
0.559127
0.559127
0.55912701
0.55912702
0.55912703
0.55912703
0.55912702
0.55912701
0.559127
0.55912699
0.55912698
0.5591268
0.55912584
0.55912197
0.55911562
0.56471456
0.56457126
0.56455571
0.56455307
0.56455234
0.56455148
0.56455043
0.56454943
0.56454868
0.56454829
0.56454829
0.56454868
0.56454943
0.56455043
0.56455148
0.56455234
0.56455307
0.56455572
0.56457126
0.56471456
0.5626037
0.56262988
0.56269672
0.56272404
0.56273093
0.5627297
0.56272604
0.56272245
0.56271986
0.56271855
0.56271855
0.56271986
0.56272245
0.56272603
0.56272969
0.56273091
0.56272402
0.5626967
0.56262985
0.56260366
0.55409941
0.55450021
0.55471679
0.5547964
0.554818
0.55481793
0.55481143
0.55480466
0.55479972
0.55479721
0.5547972
0.55479971
0.55480465
0.5548114
0.5548179
0.55481796
0.55479635
0.55471673
0.55450014
0.5540993
0.54050869
0.54142871
0.54182979
0.54197085
0.54200954
0.54201074
0.542001
0.54199064
0.54198302
0.54197915
0.54197915
0.541983
0.54199061
0.54200096
0.54201068
0.54200948
0.54197077
0.54182969
0.54142859
0.54050852
0.52311632
0.52462638
0.52522428
0.52542799
0.5254828
0.52548419
0.52547051
0.52545612
0.52544556
0.52544023
0.52544022
0.52544554
0.52545608
0.52547045
0.52548411
0.52548271
0.52542787
0.52522414
0.52462622
0.52311609
0.50309146
0.50520656
0.50599547
0.50625763
0.50632512
0.50632479
0.50630624
0.50628733
0.50627362
0.50626672
0.50626671
0.50627359
0.50628728
0.50630616
0.50632469
0.50632501
0.50625749
0.50599531
0.50520637
0.50309121
0.48117091
0.48393736
0.48491242
0.48522664
0.4853038
0.48529998
0.48527574
0.4852519
0.48523482
0.48522627
0.48522626
0.48523479
0.48525184
0.48527566
0.48529987
0.48530366
0.48522649
0.48491224
0.48393716
0.48117065
0.45786903
0.46128594
0.46243236
0.46279095
0.46287348
0.46286463
0.46283412
0.46280519
0.4627847
0.46277447
0.46277446
0.46278465
0.46280512
0.46283402
0.46286451
0.46287334
0.46279078
0.46243217
0.46128573
0.45786877
0.43345272
0.43755656
0.43887873
0.4392757
0.43935884
0.43934394
0.43930754
0.43927391
0.4392502
0.4392384
0.43923839
0.43925016
0.43927384
0.43930743
0.43934382
0.43935869
0.43927553
0.43887854
0.43755635
0.43345249
0.40810492
0.41288897
0.41439931
0.4148318
0.41490601
0.41488122
0.41484037
0.41480321
0.41477679
0.41476367
0.41476366
0.41477675
0.41480313
0.41484027
0.4148811
0.41490586
0.41483163
0.41439913
0.41288878
0.40810471
0.38219133
0.38761686
0.38932254
0.38979256
0.38984648
0.38980619
0.38976313
0.38972408
0.38969583
0.38968173
0.38968171
0.38969578
0.38972401
0.38976302
0.38980606
0.38984633
0.3897924
0.38932236
0.38761668
0.38219114
0.3560727
0.36211699
0.36401512
0.36453039
0.3645592
0.36944187
0.3693883
0.36934201
0.36930926
0.3692926
0.36929258
0.36930922
0.36934193
0.3693882
0.36944175
0.36455906
0.36453024
0.36401495
0.36211683
0.35607253
0.33622859
0.34302777
0.34508054
0.34566745
0.34575977
0.34572185
0.34566862
0.34561961
0.34558397
0.34556597
0.34556595
0.34558393
0.34561954
0.34566852
0.34572173
0.34575964
0.34566731
0.34508039
0.34302762
0.33622844
0.31157574
0.31913349
0.32147665
0.32214106
0.3222423
0.32220654
0.32214657
0.32209528
0.32205633
0.32203724
0.32203723
0.32205629
0.32209521
0.32214647
0.32220643
0.32224218
0.32214093
0.32147651
0.31913335
0.3115756
0.28704188
0.29541376
0.2980889
0.2988537
0.29898706
0.29895397
0.29888721
0.29883385
0.29879248
0.29877242
0.2987724
0.29879244
0.29883379
0.29888712
0.29895387
0.29898695
0.29885358
0.29808876
0.29541363
0.28704176
0.26303149
0.27214817
0.27519765
0.27609281
0.27627001
0.27623916
0.27616534
0.27610867
0.27606675
0.27604559
0.27604558
0.27606671
0.27610861
0.27616526
0.27623907
0.2762699
0.2760927
0.27519753
0.27214806
0.26303139
0.23969485
0.24952561
0.25300327
0.25406879
0.25430366
0.25427728
0.25419527
0.25413261
0.25409135
0.25406878
0.25406876
0.25409132
0.25413255
0.2541952
0.2542772
0.25430357
0.2540687
0.25300317
0.24952551
0.23969477
0.21709014
0.2276207
0.23159694
0.23288589
0.23320048
0.23318437
0.23309313
0.23302083
0.23297988
0.23295534
0.23295532
0.23297985
0.23302078
0.23309307
0.2331843
0.2332004
0.23288581
0.23159685
0.22762062
0.21709009
0.19518431
0.20641261
0.2109769
0.21255864
0.21298497
0.21298877
0.21288745
0.21280129
0.21275874
0.21273131
0.21273129
0.21275871
0.21280123
0.21288739
0.21298871
0.21298491
0.21255858
0.21097682
0.20641256
0.19518429
0.17386643
0.18580117
0.19106242
0.19302539
0.19360943
0.19364856
0.19353706
0.19343239
0.19338425
0.19335235
0.19335234
0.19338422
0.19343234
0.19353701
0.1936485
0.19360938
0.19302534
0.19106237
0.18580114
0.17386643
0.15296407
0.16562124
0.17170805
0.17416562
0.17497192
0.17506911
0.17495054
0.17482221
0.17476234
0.17472342
0.17472341
0.17476231
0.17482216
0.1749505
0.17506907
0.17497187
0.17416558
0.17170801
0.16562123
0.15296411
0.13225622
0.14565422
0.1527162
0.15581367
0.15693024
0.15712297
0.15700211
0.15684452
0.15676485
0.15671497
0.15671496
0.15676482
0.15684448
0.15700208
0.15712293
0.15693021
0.15581365
0.15271618
0.14565424
0.1322563
0.11143587
0.12561237
0.13383565
0.13775385
0.13930678
0.13964668
0.13953389
0.13934156
0.13923213
0.13916565
0.13916564
0.13923211
0.13934152
0.13953387
0.13964666
0.13930676
0.13775384
0.13383565
0.12561243
0.11143602
0.089556579
0.10491366
0.11460081
0.1196006
0.12177019
0.12234473
0.12226765
0.12204007
0.12189052
0.12180132
0.12180131
0.1218905
0.12204004
0.12226763
0.12234472
0.12177018
0.11960061
0.11460084
0.10491378
0.089556821
0.059043967
0.079291445
0.092203726
0.099124403
0.10232522
0.10345526
0.10354566
0.10334404
0.10317985
0.10308166
0.10308165
0.10317984
0.10334402
0.10354567
0.10345528
0.10232525
0.099124463
0.09220385
0.079291747
0.059044515
0.020764241
0.033786943
0.049042818
0.057707016
0.063830191
0.066018901
0.066853268
0.067068056
0.067159941
0.067188358
0.067188358
0.067159955
0.06706808
0.066853325
0.066018981
0.063830299
0.057707157
0.049043042
0.033787217
0.020764467
0
0.0068256549
0.013932901
0.019652804
0.023440176
0.025466113
0.026259493
0.026482268
0.026536984
0.026534072
0.026534067
0.026536977
0.026482256
0.026259489
0.025466114
0.023440186
0.019652831
0.013932958
0.006825748
0
0
0
0
0
0
0
0
0
0
0
0
0
0
0
0
0
0
0
0
0
0
0
0
0
0
0
0
0
0
0
0
0
0
0
0
0
0
0
0
0
0
0
0
0
0
0
0
0
0
0
0
0
0
0
0
0
0
0
0
0
0
0
0
0
0
0
0
0
0
0
0
0
0
0
0
0
0
0
0
0
0
0
0
0
0
0
0
0
0
0
0
0
0
0
0
0
0
0
0
0
0
0
0
0
0
0
0
0
0
0
0
0
0
0
0
0
0
0
0
0
0
0
0
0
0
0
0
0
0
0
0
0
0
0
0
0
0
0
0
0
0
0
0
0
0
0
0
0
0
0
0
0
0
0
0
0
0
0
0
0
0
0
0
0
0
0
0
0
0
0
0
0
0
0
0
0
0
0
0
0
0
0
0
0
0
0
0
0
0
0
0
0
0
0
0
0
0
0
0
0
0
0
0
0
0
0
0
0
0
0
0
0
0
0
0
0
0
0
0
0
0
0
0
0
0
0
0
0
0
0
0
0
0
0
0
0
0
0
0
0
)
;

boundaryField
{
    Wall
    {
        type            zeroGradient;
    }
    frontAndBack
    {
        type            empty;
    }
    atmosphere
    {
        type            zeroGradient;
    }
}


// ************************************************************************* //
