/*--------------------------------*- C++ -*----------------------------------*\
| =========                 |                                                 |
| \\      /  F ield         | OpenFOAM: The Open Source CFD Toolbox           |
|  \\    /   O peration     | Version:  3.0.1                                 |
|   \\  /    A nd           | Web:      www.OpenFOAM.org                      |
|    \\/     M anipulation  |                                                 |
\*---------------------------------------------------------------------------*/
FoamFile
{
    version     2.0;
    format      ascii;
    class       volScalarField;
    location    "31";
    object      g1_CO2;
}
// * * * * * * * * * * * * * * * * * * * * * * * * * * * * * * * * * * * * * //

dimensions      [0 0 0 0 0 0 0];

internalField   nonuniform List<scalar> 
800
(
0.48016497
0.480213
0.48022658
0.48022899
0.48022932
0.48022943
0.48022958
0.48022976
0.4802299
0.48022998
0.48022998
0.4802299
0.48022976
0.48022958
0.48022943
0.48022932
0.48022899
0.48022658
0.480213
0.48016497
0.49687773
0.4966662
0.49667628
0.49669353
0.49670139
0.49670221
0.49669982
0.49669671
0.49669423
0.49669288
0.49669288
0.49669422
0.49669671
0.49669981
0.49670221
0.49670138
0.49669352
0.49667627
0.49666618
0.4968777
0.51281874
0.51243572
0.51243005
0.51245646
0.51246968
0.51247159
0.51246798
0.51246304
0.512459
0.51245679
0.51245679
0.512459
0.51246304
0.51246797
0.51247158
0.51246967
0.51245644
0.51243002
0.51243568
0.51281867
0.52869827
0.52806651
0.52803998
0.52807648
0.52809565
0.52810015
0.52809683
0.5280914
0.52808671
0.52808411
0.52808411
0.5280867
0.52809139
0.52809681
0.52810014
0.52809563
0.52807645
0.52803994
0.52806645
0.52869818
0.54528955
0.54429861
0.54422391
0.54425898
0.54428197
0.54428945
0.54428727
0.54428229
0.54427762
0.54427497
0.54427497
0.54427761
0.54428228
0.54428726
0.54428944
0.54428195
0.54425895
0.54422386
0.54429854
0.54528944
0.56351817
0.56200307
0.56183615
0.56184812
0.56187003
0.56187945
0.5618785
0.56187441
0.56187011
0.56186764
0.56186764
0.56187011
0.56187441
0.5618785
0.56187943
0.56187
0.56184809
0.5618361
0.56200301
0.56351807
0.58446897
0.58218168
0.5818637
0.58182685
0.58184086
0.58184995
0.58184962
0.58184635
0.58184247
0.58184025
0.58184025
0.58184247
0.58184636
0.58184962
0.58184995
0.58184085
0.58182683
0.58186367
0.58218162
0.58446887
0.6090946
0.60579046
0.60525111
0.60514086
0.60514167
0.60514788
0.60514693
0.60514383
0.60514005
0.60513793
0.60513793
0.60514006
0.60514384
0.60514694
0.60514788
0.60514167
0.60514085
0.60525109
0.60579041
0.60909452
0.63823311
0.63360614
0.63273864
0.63253204
0.63250944
0.63251012
0.63250636
0.63250203
0.63249769
0.63249534
0.63249534
0.6324977
0.63250205
0.63250639
0.63251014
0.63250945
0.63253205
0.63273864
0.63360611
0.63823305
0.6725877
0.66637882
0.66506794
0.66474481
0.66468177
0.66466979
0.66465969
0.66465184
0.66464591
0.66464279
0.6646428
0.66464593
0.66465187
0.66465974
0.66466983
0.66468181
0.66474484
0.66506797
0.66637883
0.67258767
0.71276408
0.70468765
0.70280444
0.70234647
0.70221104
0.70216653
0.70214447
0.70212977
0.70212107
0.7021165
0.70211651
0.70212111
0.70212982
0.70214453
0.7021666
0.7022111
0.70234653
0.70280449
0.70468769
0.7127641
0.75962174
0.7493764
0.74677444
0.74616474
0.74590145
0.74579338
0.74575109
0.74572461
0.74571261
0.7457056
0.74570562
0.74571265
0.74572467
0.74575117
0.74579347
0.74590154
0.74616484
0.74677453
0.74937649
0.75962182
0.81407017
0.80142034
0.79795505
0.79717213
0.79670947
0.80730394
0.80720673
0.80714475
0.80711712
0.80710158
0.8071016
0.80711717
0.80714483
0.80720683
0.80730406
0.79670959
0.79717226
0.79795519
0.80142048
0.81407032
0.89328249
0.87747627
0.8727889
0.87179151
0.87116208
0.8708404
0.87077545
0.87066723
0.87059448
0.87056952
0.87056954
0.87059454
0.87066732
0.87077556
0.87084054
0.87116223
0.87179169
0.87278909
0.87747648
0.89328273
0.97101079
0.95262678
0.94711822
0.94586862
0.94483676
0.94449122
0.9442572
0.94408618
0.94389688
0.94386179
0.94386181
0.94389694
0.94408627
0.94425733
0.94449138
0.94483694
0.94586883
0.94711846
0.95262705
0.97101109
1.0529853
1.0337507
1.0276193
1.0261212
1.0250579
1.0246256
1.0241982
1.0239562
1.0235613
1.0235251
1.0235251
1.0235614
1.0239562
1.0241984
1.0246258
1.0250581
1.0261215
1.0276195
1.033751
1.0529856
1.1421774
1.1225003
1.1160216
1.1143805
1.113256
1.1126367
1.1118871
1.1115531
1.1108662
1.1108551
1.1108551
1.1108663
1.1115532
1.1118872
1.1126368
1.1132562
1.1143807
1.1160219
1.1225006
1.1421777
1.237509
1.2187078
1.2123025
1.2107824
1.2097053
1.2087174
1.2074636
1.2070067
1.205889
1.2059485
1.2059486
1.205889
1.2070068
1.2074636
1.2087175
1.2097054
1.2107826
1.2123028
1.2187081
1.2375092
1.3372737
1.3213215
1.3156567
1.314698
1.3137891
1.3122291
1.310336
1.3097234
1.3079736
1.308159
1.308159
1.3079736
1.3097234
1.310336
1.3122292
1.3137893
1.3146982
1.3156568
1.3213217
1.3372738
1.4384727
1.4283245
1.4244917
1.4247219
1.4238997
1.4217101
1.4191718
1.4183762
1.4158609
1.4162197
1.4162196
1.4158609
1.4183762
1.4191718
1.4217101
1.4238998
1.424722
1.4244918
1.4283246
1.4384727
1.5359328
1.5359806
1.5358268
1.5378417
1.5371026
1.5344601
1.5314214
1.5304224
1.5272953
1.5278499
1.5278499
1.5272953
1.5304224
1.5314214
1.5344601
1.5371026
1.5378418
1.5358268
1.5359806
1.5359328
1.6217033
1.6373314
1.6438915
1.6487052
1.6488451
1.6455339
1.6421697
1.6409389
1.6377197
1.6384562
1.6384562
1.6377196
1.6409388
1.6421696
1.6455339
1.6488451
1.6487052
1.6438915
1.6373314
1.6217033
1.6840828
1.7215488
1.7396094
1.7482891
1.7514045
1.7474383
1.742759
1.7412425
1.7386303
1.7394904
1.7394903
1.7386302
1.7412424
1.7427589
1.7474382
1.7514045
1.7482891
1.7396094
1.7215489
1.6840832
1.7027572
1.7717089
1.8084104
1.8226907
1.8314305
1.8264341
1.8202839
1.8183932
1.816926
1.8177976
1.8177976
1.8169259
1.8183931
1.8202838
1.8264341
1.8314305
1.8226908
1.8084106
1.7717094
1.7027584
1.6492427
1.7627349
1.8244843
1.8538716
1.8665323
1.8649457
1.8590616
1.8566392
1.8563614
1.8570494
1.8570494
1.8563614
1.8566391
1.8590616
1.8649458
1.8665325
1.8538719
1.8244848
1.7627361
1.6492453
1.4807863
1.6614079
1.7609733
1.8152443
1.8335179
1.8406814
1.8370142
1.8338202
1.8341262
1.8343351
1.8343351
1.8341263
1.8338204
1.8370145
1.8406818
1.8335185
1.8152451
1.7609746
1.6614105
1.480791
1.1255514
1.3751533
1.5459528
1.6297213
1.6727121
1.6892883
1.6887033
1.684831
1.6848393
1.6843663
1.6843663
1.6848394
1.6848312
1.6887037
1.6892889
1.6727129
1.6297224
1.5459548
1.3751569
1.1255566
0
0.86338176
1.1022795
1.2176787
1.2948076
1.3294848
1.3322207
1.3280575
1.3269177
1.3256327
1.3256327
1.3269178
1.3280576
1.332221
1.3294853
1.2948082
1.2176797
1.1022814
0.86338567
0
0
0
0
0
0
0
0
0
0
0
0
0
0
0
0
0
0
0
0
0
0
0
0
0
0
0
0
0
0
0
0
0
0
0
0
0
0
0
0
0
0
0
0
0
0
0
0
0
0
0
0
0
0
0
0
0
0
0
0
0
0
0
0
0
0
0
0
0
0
0
0
0
0
0
0
0
0
0
0
0
0
0
0
0
0
0
0
0
0
0
0
0
0
0
0
0
0
0
0
0
0
0
0
0
0
0
0
0
0
0
0
0
0
0
0
0
0
0
0
0
0
0
0
0
0
0
0
0
0
0
0
0
0
0
0
0
0
0
0
0
0
0
0
0
0
0
0
0
0
0
0
0
0
0
0
0
0
0
0
0
0
0
0
0
0
0
0
0
0
0
0
0
0
0
0
0
0
0
0
0
0
0
0
0
0
0
0
0
0
0
0
0
0
0
0
0
0
0
0
0
0
0
0
0
0
0
0
0
0
0
0
0
0
0
0
0
0
0
0
0
0
0
0
0
0
0
0
0
0
0
0
0
0
0
0
0
0
0
0
0
)
;

boundaryField
{
    Wall
    {
        type            zeroGradient;
    }
    frontAndBack
    {
        type            empty;
    }
    atmosphere
    {
        type            zeroGradient;
    }
}


// ************************************************************************* //
