/*--------------------------------*- C++ -*----------------------------------*\
| =========                 |                                                 |
| \\      /  F ield         | OpenFOAM: The Open Source CFD Toolbox           |
|  \\    /   O peration     | Version:  3.0.1                                 |
|   \\  /    A nd           | Web:      www.OpenFOAM.org                      |
|    \\/     M anipulation  |                                                 |
\*---------------------------------------------------------------------------*/
FoamFile
{
    version     2.0;
    format      ascii;
    class       volScalarField;
    location    "31";
    object      M0;
}
// * * * * * * * * * * * * * * * * * * * * * * * * * * * * * * * * * * * * * //

dimensions      [0 0 0 0 0 0 0];

internalField   nonuniform List<scalar> 
800
(
5.5614039e+11
5.5609195e+11
5.5608348e+11
5.5608271e+11
5.5608286e+11
5.5608299e+11
5.56083e+11
5.5608295e+11
5.5608291e+11
5.5608289e+11
5.5608288e+11
5.5608291e+11
5.5608296e+11
5.56083e+11
5.5608299e+11
5.5608286e+11
5.5608271e+11
5.5608347e+11
5.5609194e+11
5.5614038e+11
5.6152313e+11
5.6108614e+11
5.6098047e+11
5.6095736e+11
5.6095648e+11
5.6096006e+11
5.6096337e+11
5.6096552e+11
5.609667e+11
5.6096722e+11
5.6096722e+11
5.6096671e+11
5.6096553e+11
5.6096337e+11
5.6096006e+11
5.6095649e+11
5.6095737e+11
5.6098048e+11
5.6108616e+11
5.6152317e+11
5.6427492e+11
5.6365373e+11
5.6346505e+11
5.6342464e+11
5.6342143e+11
5.634259e+11
5.6343022e+11
5.6343295e+11
5.6343438e+11
5.6343497e+11
5.6343496e+11
5.6343438e+11
5.6343296e+11
5.6343023e+11
5.6342591e+11
5.6342144e+11
5.6342465e+11
5.6346507e+11
5.6365376e+11
5.6427497e+11
5.641079e+11
5.6344734e+11
5.6321183e+11
5.6316569e+11
5.6316329e+11
5.6316857e+11
5.6317299e+11
5.6317539e+11
5.6317643e+11
5.6317678e+11
5.6317678e+11
5.6317643e+11
5.631754e+11
5.63173e+11
5.6316858e+11
5.631633e+11
5.631657e+11
5.6321184e+11
5.6344737e+11
5.6410795e+11
5.6081804e+11
5.6027058e+11
5.60028e+11
5.5998553e+11
5.5998799e+11
5.5999483e+11
5.5999908e+11
5.6000067e+11
5.6000093e+11
5.6000084e+11
5.6000084e+11
5.6000093e+11
5.6000067e+11
5.5999908e+11
5.5999483e+11
5.5998799e+11
5.5998553e+11
5.60028e+11
5.6027059e+11
5.6081807e+11
5.5435505e+11
5.540674e+11
5.538581e+11
5.5382726e+11
5.5383867e+11
5.5384815e+11
5.5385227e+11
5.5385284e+11
5.5385213e+11
5.5385148e+11
5.5385147e+11
5.5385213e+11
5.5385283e+11
5.5385226e+11
5.5384814e+11
5.5383866e+11
5.5382725e+11
5.5385809e+11
5.5406739e+11
5.5435505e+11
5.4484522e+11
5.449403e+11
5.4480528e+11
5.4479319e+11
5.448169e+11
5.4483002e+11
5.4483421e+11
5.4483374e+11
5.4483202e+11
5.4483077e+11
5.4483077e+11
5.4483201e+11
5.4483373e+11
5.4483419e+11
5.4483e+11
5.4481687e+11
5.4479316e+11
5.4480524e+11
5.4494026e+11
5.4484519e+11
5.3260594e+11
5.3316817e+11
5.3314831e+11
5.3316117e+11
5.3319896e+11
5.3321634e+11
5.3322083e+11
5.3321947e+11
5.3321679e+11
5.3321499e+11
5.3321499e+11
5.3321678e+11
5.3321945e+11
5.332208e+11
5.3321631e+11
5.3319892e+11
5.3316112e+11
5.3314826e+11
5.3316811e+11
5.3260588e+11
5.180766e+11
5.1914721e+11
5.1928218e+11
5.1932527e+11
5.1937603e+11
5.1939769e+11
5.1940272e+11
5.1940072e+11
5.1939724e+11
5.1939498e+11
5.1939497e+11
5.1939722e+11
5.194007e+11
5.1940268e+11
5.1939764e+11
5.1937597e+11
5.193252e+11
5.192821e+11
5.1914713e+11
5.1807652e+11
5.0180104e+11
5.0337133e+11
5.0369464e+11
5.0377228e+11
5.0383113e+11
5.038552e+11
5.0386111e+11
5.0385882e+11
5.0385471e+11
5.0385209e+11
5.0385208e+11
5.0385469e+11
5.0385879e+11
5.0386106e+11
5.0385514e+11
5.0383106e+11
5.037722e+11
5.0369455e+11
5.0337124e+11
5.0180095e+11
4.8435412e+11
4.8637364e+11
4.8690897e+11
4.8702477e+11
4.8708309e+11
4.8710498e+11
4.8711225e+11
4.8711009e+11
4.8710552e+11
4.8710264e+11
4.8710263e+11
4.871055e+11
4.8711006e+11
4.8711219e+11
4.8710491e+11
4.8708301e+11
4.8702468e+11
4.8690887e+11
4.8637354e+11
4.8435402e+11
4.662825e+11
4.6867001e+11
4.694251e+11
4.6958299e+11
4.6962961e+11
4.6964235e+11
4.696516e+11
4.696501e+11
4.696451e+11
4.6964204e+11
4.6964203e+11
4.6964508e+11
4.6965006e+11
4.6965155e+11
4.6964228e+11
4.6962953e+11
4.695829e+11
4.69425e+11
4.686699e+11
4.662824e+11
4.4808743e+11
4.5074291e+11
4.5170276e+11
4.5190985e+11
4.519323e+11
4.5190885e+11
4.5192081e+11
4.5192073e+11
4.519142e+11
4.5191118e+11
4.5191117e+11
4.5191418e+11
4.5192069e+11
4.5192076e+11
4.5190878e+11
4.5193222e+11
4.5190976e+11
4.5170266e+11
4.5074281e+11
4.4808733e+11
4.3017007e+11
4.3289244e+11
4.3402035e+11
4.3428707e+11
4.3425037e+11
4.3420108e+11
4.3423672e+11
4.3423924e+11
4.3422926e+11
4.3422651e+11
4.3422651e+11
4.3422923e+11
4.342392e+11
4.3423666e+11
4.3420102e+11
4.3425029e+11
4.3428698e+11
4.3402026e+11
4.3289235e+11
4.3016998e+11
4.1299786e+11
4.1569918e+11
4.1693952e+11
4.1727412e+11
4.1715482e+11
4.170936e+11
4.1712046e+11
4.1712761e+11
4.1711228e+11
4.1710752e+11
4.1710751e+11
4.1711226e+11
4.1712758e+11
4.1712041e+11
4.1709354e+11
4.1715476e+11
4.1727404e+11
4.1693944e+11
4.156991e+11
4.1299778e+11
3.9602457e+11
3.9878669e+11
4.0007884e+11
4.0047672e+11
4.0033904e+11
4.0026029e+11
4.0029599e+11
4.0031136e+11
4.0028954e+11
4.0027472e+11
4.0027471e+11
4.0028953e+11
4.0031133e+11
4.0029595e+11
4.0026024e+11
4.0033898e+11
4.0047666e+11
4.0007877e+11
3.9878662e+11
3.9602451e+11
3.802323e+11
3.828295e+11
3.8411832e+11
3.8456081e+11
3.8438025e+11
3.8429419e+11
3.8435549e+11
3.8438056e+11
3.8435162e+11
3.8431315e+11
3.8431315e+11
3.843516e+11
3.8438054e+11
3.8435546e+11
3.8429415e+11
3.8438021e+11
3.8456076e+11
3.8411826e+11
3.8282944e+11
3.8023226e+11
3.6587772e+11
3.6817151e+11
3.6941975e+11
3.6988528e+11
3.6964724e+11
3.6957593e+11
3.6967559e+11
3.6970957e+11
3.696776e+11
3.6960064e+11
3.6960063e+11
3.6967759e+11
3.6970956e+11
3.6967556e+11
3.695759e+11
3.6964721e+11
3.6988524e+11
3.694197e+11
3.6817147e+11
3.658777e+11
3.5316907e+11
3.5504448e+11
3.5623193e+11
3.5670906e+11
3.5640755e+11
3.5637347e+11
3.5651525e+11
3.5655545e+11
3.5652843e+11
3.5640172e+11
3.5640171e+11
3.5652842e+11
3.5655543e+11
3.5651524e+11
3.5637345e+11
3.5640753e+11
3.5670904e+11
3.562319e+11
3.5504446e+11
3.5316907e+11
3.4234671e+11
3.4368257e+11
3.448015e+11
3.4529718e+11
3.4493883e+11
3.4495059e+11
3.4512605e+11
3.451682e+11
3.4514861e+11
3.4496711e+11
3.4496711e+11
3.4514861e+11
3.4516819e+11
3.4512605e+11
3.4495058e+11
3.4493882e+11
3.4529717e+11
3.4480149e+11
3.4368256e+11
3.4234673e+11
3.3372522e+11
3.3437893e+11
3.3542329e+11
3.3597243e+11
3.3557243e+11
3.356216e+11
3.3581244e+11
3.3585086e+11
3.3582118e+11
3.3558567e+11
3.3558566e+11
3.3582118e+11
3.3585085e+11
3.3581243e+11
3.356216e+11
3.3557242e+11
3.3597243e+11
3.3542329e+11
3.3437894e+11
3.3372525e+11
3.2773082e+11
3.2754757e+11
3.2850966e+11
3.2916518e+11
3.2873103e+11
3.2881503e+11
3.2900123e+11
3.2902872e+11
3.2894881e+11
3.2866318e+11
3.2866318e+11
3.2894881e+11
3.2902871e+11
3.2900123e+11
3.2881503e+11
3.2873103e+11
3.2916519e+11
3.2850967e+11
3.2754758e+11
3.2773085e+11
3.249917e+11
3.2378686e+11
3.2465532e+11
3.2549801e+11
3.2502606e+11
3.2514468e+11
3.2532683e+11
3.2533451e+11
3.2515387e+11
3.2482144e+11
3.2482144e+11
3.2515387e+11
3.2533451e+11
3.2532683e+11
3.2514469e+11
3.2502606e+11
3.2549802e+11
3.2465534e+11
3.2378688e+11
3.2499172e+11
3.2655524e+11
3.2401233e+11
3.2477978e+11
3.2591667e+11
3.2544486e+11
3.2558888e+11
3.2575189e+11
3.2572817e+11
3.2539974e+11
3.2501903e+11
3.2501902e+11
3.2539973e+11
3.2572816e+11
3.2575189e+11
3.2558889e+11
3.2544487e+11
3.2591668e+11
3.2477979e+11
3.2401235e+11
3.2655525e+11
3.3405393e+11
3.2972531e+11
3.3040941e+11
3.3192444e+11
3.3161681e+11
3.3170205e+11
3.3180686e+11
3.3173496e+11
3.3121862e+11
3.3077861e+11
3.307786e+11
3.3121861e+11
3.3173495e+11
3.3180686e+11
3.3170205e+11
3.3161682e+11
3.3192445e+11
3.3040942e+11
3.2972531e+11
3.3405391e+11
3.4996309e+11
3.433898e+11
3.4399012e+11
3.4631408e+11
3.4631166e+11
3.4634387e+11
3.463781e+11
3.4623117e+11
3.4548067e+11
3.4495133e+11
3.4495132e+11
3.4548065e+11
3.4623115e+11
3.4637809e+11
3.4634386e+11
3.4631166e+11
3.4631408e+11
3.4399011e+11
3.4338978e+11
3.4996305e+11
3.7750435e+11
3.6912245e+11
3.6998882e+11
3.7399597e+11
3.7497608e+11
3.7480183e+11
3.7486548e+11
3.7460456e+11
3.7353733e+11
3.728507e+11
3.7285068e+11
3.7353731e+11
3.7460453e+11
3.7486546e+11
3.7480183e+11
3.7497607e+11
3.7399597e+11
3.6998881e+11
3.6912244e+11
3.7750437e+11
4.1458635e+11
4.1151747e+11
4.1449577e+11
4.2396206e+11
4.2648467e+11
4.2747808e+11
4.2796129e+11
4.2753357e+11
4.259552e+11
4.2494953e+11
4.2494951e+11
4.2595517e+11
4.2753353e+11
4.2796126e+11
4.2747806e+11
4.2648466e+11
4.2396205e+11
4.1449577e+11
4.1151751e+11
4.1458654e+11
4.2826952e+11
4.4684256e+11
4.6647144e+11
4.8778835e+11
4.9945167e+11
5.0504706e+11
5.0710257e+11
5.0657161e+11
5.0413419e+11
5.0249544e+11
5.024954e+11
5.0413411e+11
5.065715e+11
5.0710248e+11
5.0504697e+11
4.9945161e+11
4.8778831e+11
4.6647149e+11
4.4684276e+11
4.2827016e+11
3.9435486e+11
4.5728751e+11
5.0038901e+11
5.3865041e+11
5.6512166e+11
5.8004033e+11
5.8602953e+11
5.8610225e+11
5.8277394e+11
5.8025331e+11
5.8025324e+11
5.8277381e+11
5.8610209e+11
5.8602941e+11
5.8004022e+11
5.6512157e+11
5.386504e+11
5.0038914e+11
4.5728796e+11
3.9435659e+11
2.8543319e+11
4.3739287e+11
5.1395191e+11
5.7267936e+11
6.1602652e+11
6.4326221e+11
6.556147e+11
6.574063e+11
6.5335805e+11
6.4974544e+11
6.4974534e+11
6.5335786e+11
6.5740607e+11
6.5561451e+11
6.4326204e+11
6.1602643e+11
5.7267936e+11
5.1395215e+11
4.3739364e+11
2.8543629e+11
1.3602366e+11
3.8342926e+11
5.0578598e+11
5.8928766e+11
6.5003522e+11
6.8964241e+11
7.0880638e+11
7.1257926e+11
7.0783069e+11
7.0296486e+11
7.0296474e+11
7.0783045e+11
7.1257896e+11
7.0880613e+11
6.8964218e+11
6.5003508e+11
5.8928765e+11
5.0578626e+11
3.8343014e+11
1.3602674e+11
4.0635849e+10
3.0070105e+11
4.7415274e+11
5.8663302e+11
6.6499266e+11
7.1559382e+11
7.4029637e+11
7.4523596e+11
7.3937152e+11
7.3304017e+11
7.3304002e+11
7.3937123e+11
7.452356e+11
7.4029605e+11
7.1559352e+11
6.6499242e+11
5.8663291e+11
4.7415297e+11
3.0070188e+11
4.0637333e+10
8.7136457e+09
2.0802688e+11
4.2047692e+11
5.6291817e+11
6.5863272e+11
7.1840478e+11
7.4674554e+11
7.5158303e+11
7.4405075e+11
7.3611763e+11
7.3611745e+11
7.4405042e+11
7.5158264e+11
7.4674518e+11
7.1840442e+11
6.5863235e+11
5.6291792e+11
4.2047692e+11
2.0802741e+11
8.7140594e+09
1.5414398e+09
1.2779623e+11
3.5114882e+11
5.1841557e+11
6.2970241e+11
6.9674391e+11
7.2699211e+11
7.3074535e+11
7.2132173e+11
7.1191906e+11
7.1191886e+11
7.2132136e+11
7.3074491e+11
7.269917e+11
6.967435e+11
6.2970197e+11
5.1841525e+11
3.5114869e+11
1.2779667e+11
1.5415185e+09
2.4401377e+08
7.1338577e+10
2.7607042e+11
4.5666315e+11
5.7946779e+11
6.5159101e+11
6.8248365e+11
6.8484822e+11
6.7389091e+11
6.6350066e+11
6.6350044e+11
6.7389049e+11
6.8484774e+11
6.824832e+11
6.5159057e+11
5.7946731e+11
4.5666278e+11
2.7607031e+11
7.1338914e+10
2.4402659e+08
36369860
3.716474e+10
2.0508888e+11
3.8432728e+11
5.1230327e+11
5.8680365e+11
6.1747713e+11
6.187884e+11
6.0715543e+11
5.9651447e+11
5.9651423e+11
6.0715498e+11
6.1878787e+11
6.1747665e+11
5.8680318e+11
5.1230278e+11
3.843269e+11
2.050888e+11
3.7164935e+10
36371665
5275029.8
1.8446235e+10
1.4482317e+11
3.0932754e+11
4.3498905e+11
5.0872795e+11
5.3850773e+11
5.3942667e+11
5.2816879e+11
5.1806238e+11
5.1806213e+11
5.2816831e+11
5.394261e+11
5.3850723e+11
5.0872748e+11
4.3498859e+11
3.0932719e+11
1.4482311e+11
1.8446335e+10
5275269.2
758801.48
8.8364825e+09
9.7844656e+10
2.3870465e+11
3.5510657e+11
4.2491993e+11
4.5316151e+11
4.543159e+11
4.4434047e+11
4.3539999e+11
4.3539974e+11
4.4433998e+11
4.5431531e+11
4.53161e+11
4.2491947e+11
3.5510615e+11
2.3870436e+11
9.7844625e+10
8.8365312e+09
758832.19
109623.34
4.1158291e+09
6.3614628e+10
1.7720005e+11
2.7930508e+11
3.425376e+11
3.6860922e+11
3.7037055e+11
3.6223107e+11
3.5481808e+11
3.5481785e+11
3.6223058e+11
3.7036997e+11
3.6860872e+11
3.4253717e+11
2.7930473e+11
1.7719984e+11
6.3614615e+10
4.1158514e+09
109626.98
)
;

boundaryField
{
    Wall
    {
        type            zeroGradient;
    }
    frontAndBack
    {
        type            empty;
    }
    atmosphere
    {
        type            zeroGradient;
    }
}


// ************************************************************************* //
