/*--------------------------------*- C++ -*----------------------------------*\
| =========                 |                                                 |
| \\      /  F ield         | OpenFOAM: The Open Source CFD Toolbox           |
|  \\    /   O peration     | Version:  3.0.1                                 |
|   \\  /    A nd           | Web:      www.OpenFOAM.org                      |
|    \\/     M anipulation  |                                                 |
\*---------------------------------------------------------------------------*/
FoamFile
{
    version     2.0;
    format      ascii;
    class       volScalarField;
    location    "31";
    object      M2;
}
// * * * * * * * * * * * * * * * * * * * * * * * * * * * * * * * * * * * * * //

dimensions      [0 0 0 0 0 0 0];

internalField   nonuniform List<scalar> 
800
(
1.6022442e-12
1.6024001e-12
1.6024274e-12
1.6024299e-12
1.6024294e-12
1.602429e-12
1.6024289e-12
1.6024291e-12
1.6024292e-12
1.6024293e-12
1.6024293e-12
1.6024292e-12
1.6024291e-12
1.6024289e-12
1.602429e-12
1.6024294e-12
1.6024299e-12
1.6024274e-12
1.6024001e-12
1.6022442e-12
1.585224e-12
1.5865913e-12
1.5869231e-12
1.5869958e-12
1.5869986e-12
1.5869873e-12
1.5869768e-12
1.5869699e-12
1.5869662e-12
1.5869645e-12
1.5869645e-12
1.5869662e-12
1.5869699e-12
1.5869768e-12
1.5869873e-12
1.5869985e-12
1.5869958e-12
1.5869231e-12
1.5865912e-12
1.5852238e-12
1.5753947e-12
1.5773608e-12
1.577964e-12
1.5780955e-12
1.5781069e-12
1.5780929e-12
1.578079e-12
1.5780701e-12
1.5780654e-12
1.5780634e-12
1.5780634e-12
1.5780653e-12
1.5780701e-12
1.578079e-12
1.5780929e-12
1.5781069e-12
1.5780955e-12
1.5779639e-12
1.5773607e-12
1.5753945e-12
1.5736619e-12
1.5758222e-12
1.5765978e-12
1.5767559e-12
1.5767672e-12
1.5767509e-12
1.5767362e-12
1.5767278e-12
1.5767239e-12
1.5767224e-12
1.5767224e-12
1.5767239e-12
1.5767278e-12
1.5767362e-12
1.5767508e-12
1.5767672e-12
1.5767559e-12
1.5765978e-12
1.5758221e-12
1.5736617e-12
1.5809038e-12
1.5828238e-12
1.5836626e-12
1.5838213e-12
1.5838201e-12
1.5837988e-12
1.583784e-12
1.5837774e-12
1.5837755e-12
1.5837752e-12
1.5837752e-12
1.5837755e-12
1.5837774e-12
1.583784e-12
1.5837988e-12
1.5838201e-12
1.5838213e-12
1.5836626e-12
1.5828238e-12
1.5809036e-12
1.5978289e-12
1.5990542e-12
1.5998396e-12
1.5999761e-12
1.5999485e-12
1.5999181e-12
1.5999026e-12
1.5998985e-12
1.5998992e-12
1.5999004e-12
1.5999005e-12
1.5998992e-12
1.5998985e-12
1.5999027e-12
1.5999182e-12
1.5999486e-12
1.5999761e-12
1.5998396e-12
1.5990542e-12
1.5978288e-12
1.6249692e-12
1.6250462e-12
1.6256424e-12
1.6257334e-12
1.6256655e-12
1.6256212e-12
1.6256039e-12
1.6256022e-12
1.6256057e-12
1.6256087e-12
1.6256087e-12
1.6256057e-12
1.6256023e-12
1.625604e-12
1.6256213e-12
1.6256656e-12
1.6257334e-12
1.6256425e-12
1.6250463e-12
1.6249693e-12
1.6627592e-12
1.6612534e-12
1.6614927e-12
1.6615129e-12
1.6613922e-12
1.6613291e-12
1.6613083e-12
1.6613084e-12
1.6613145e-12
1.6613192e-12
1.6613192e-12
1.6613146e-12
1.6613084e-12
1.6613084e-12
1.6613292e-12
1.6613923e-12
1.6615131e-12
1.6614929e-12
1.6612535e-12
1.6627594e-12
1.7113091e-12
1.707877e-12
1.7075634e-12
1.7074857e-12
1.7073105e-12
1.7072246e-12
1.7071979e-12
1.7071985e-12
1.7072068e-12
1.7072129e-12
1.7072129e-12
1.7072068e-12
1.7071986e-12
1.707198e-12
1.7072248e-12
1.7073107e-12
1.7074859e-12
1.7075636e-12
1.7078773e-12
1.7113094e-12
1.7703424e-12
1.7647718e-12
1.7636848e-12
1.7634797e-12
1.7632681e-12
1.7631648e-12
1.7631283e-12
1.763127e-12
1.7631365e-12
1.7631435e-12
1.7631435e-12
1.7631365e-12
1.7631271e-12
1.7631285e-12
1.7631651e-12
1.7632684e-12
1.76348e-12
1.7636852e-12
1.7647721e-12
1.7703427e-12
1.8392658e-12
1.8315099e-12
1.8294279e-12
1.8290632e-12
1.8288601e-12
1.8287632e-12
1.8287106e-12
1.8287035e-12
1.8287127e-12
1.8287199e-12
1.8287199e-12
1.8287128e-12
1.8287037e-12
1.8287108e-12
1.8287635e-12
1.8288604e-12
1.8290636e-12
1.8294283e-12
1.8315103e-12
1.8392662e-12
1.917276e-12
1.9074495e-12
1.9042035e-12
1.9036428e-12
1.9035179e-12
1.9034692e-12
1.9033911e-12
1.9033723e-12
1.9033797e-12
1.9033858e-12
1.9033859e-12
1.9033798e-12
1.9033725e-12
1.9033913e-12
1.9034695e-12
1.9035183e-12
1.9036432e-12
1.9042039e-12
1.9074499e-12
1.9172765e-12
2.003438e-12
1.9917846e-12
1.987334e-12
1.9865222e-12
1.9865623e-12
1.9865268e-12
1.9864099e-12
1.9863699e-12
1.9863827e-12
1.9863852e-12
1.9863853e-12
1.9863828e-12
1.9863701e-12
1.9864102e-12
1.9865271e-12
1.9865627e-12
1.9865226e-12
1.9873344e-12
1.9917851e-12
2.0034385e-12
2.096454e-12
2.0828965e-12
2.077387e-12
2.0762552e-12
2.0764491e-12
2.0765331e-12
2.07646e-12
2.076385e-12
2.0764162e-12
2.076412e-12
2.0764121e-12
2.0764164e-12
2.0763852e-12
2.0764603e-12
2.0765335e-12
2.0764495e-12
2.0762556e-12
2.0773875e-12
2.082897e-12
2.0964545e-12
2.1950106e-12
2.180131e-12
2.1738544e-12
2.1723359e-12
2.1726779e-12
2.1729881e-12
2.1727692e-12
2.1726556e-12
2.1727147e-12
2.1727173e-12
2.1727174e-12
2.1727149e-12
2.1726558e-12
2.1727695e-12
2.1729884e-12
2.1726783e-12
2.1723364e-12
2.1738549e-12
2.1801316e-12
2.1950111e-12
2.2906332e-12
2.2765132e-12
2.2698747e-12
2.2679628e-12
2.2689152e-12
2.2694068e-12
2.269033e-12
2.268885e-12
2.2689845e-12
2.2690529e-12
2.2690529e-12
2.2689846e-12
2.2688852e-12
2.2690333e-12
2.2694071e-12
2.2689156e-12
2.2679632e-12
2.2698751e-12
2.2765137e-12
2.2906336e-12
2.3841937e-12
2.371413e-12
2.3647819e-12
2.3625565e-12
2.3640894e-12
2.3646648e-12
2.3640574e-12
2.363871e-12
2.3640216e-12
2.364263e-12
2.3642631e-12
2.3640217e-12
2.3638711e-12
2.3640576e-12
2.364665e-12
2.3640897e-12
2.3625569e-12
2.3647823e-12
2.3714134e-12
2.3841941e-12
2.4734603e-12
2.4631051e-12
2.4568081e-12
2.4544246e-12
2.4565814e-12
2.4570779e-12
2.4561251e-12
2.4558878e-12
2.4560615e-12
2.4566073e-12
2.4566074e-12
2.4560616e-12
2.4558879e-12
2.4561252e-12
2.4570781e-12
2.4565817e-12
2.4544249e-12
2.4568085e-12
2.4631054e-12
2.4734605e-12
2.5557677e-12
2.549185e-12
2.5435261e-12
2.5411382e-12
2.5440233e-12
2.5442571e-12
2.5428918e-12
2.5425921e-12
2.5427185e-12
2.5436864e-12
2.5436864e-12
2.5427186e-12
2.5425922e-12
2.5428919e-12
2.5442572e-12
2.5440235e-12
2.5411384e-12
2.5435263e-12
2.5491852e-12
2.5557677e-12
2.6277864e-12
2.6266258e-12
2.6219373e-12
2.6196368e-12
2.6232856e-12
2.6231695e-12
2.6214219e-12
2.62106e-12
2.6210988e-12
2.6225629e-12
2.6225629e-12
2.6210989e-12
2.6210601e-12
2.621422e-12
2.6231696e-12
2.6232857e-12
2.6196369e-12
2.6219374e-12
2.6266258e-12
2.6277863e-12
2.6850889e-12
2.6914211e-12
2.6881911e-12
2.6859289e-12
2.6903172e-12
2.6899178e-12
2.6879183e-12
2.6875127e-12
2.6875861e-12
2.6895659e-12
2.6895659e-12
2.6875862e-12
2.6875127e-12
2.6879183e-12
2.6899178e-12
2.6903172e-12
2.6859289e-12
2.6881911e-12
2.691421e-12
2.6850887e-12
2.7219397e-12
2.7381406e-12
2.7371094e-12
2.7348219e-12
2.7400401e-12
2.7393957e-12
2.7373152e-12
2.7369026e-12
2.7373309e-12
2.7397982e-12
2.7397982e-12
2.7373309e-12
2.7369026e-12
2.7373152e-12
2.7393957e-12
2.7400401e-12
2.7348218e-12
2.7371093e-12
2.7381405e-12
2.7219395e-12
2.7309405e-12
2.7597318e-12
2.7620152e-12
2.7596343e-12
2.765994e-12
2.7651771e-12
2.7629921e-12
2.76262e-12
2.7638011e-12
2.7666963e-12
2.7666963e-12
2.7638012e-12
2.7626201e-12
2.762992e-12
2.765177e-12
2.7659939e-12
2.7596342e-12
2.7620151e-12
2.7597317e-12
2.7309404e-12
2.7019869e-12
2.7471541e-12
2.7543596e-12
2.7520365e-12
2.759744e-12
2.7589482e-12
2.7567771e-12
2.7564974e-12
2.7587338e-12
2.7619839e-12
2.761984e-12
2.7587338e-12
2.7564974e-12
2.7567771e-12
2.7589482e-12
2.7597439e-12
2.7520364e-12
2.7543595e-12
2.7471541e-12
2.7019871e-12
2.6224757e-12
2.6887216e-12
2.7029572e-12
2.7020501e-12
2.7106385e-12
2.7108735e-12
2.7091123e-12
2.7089766e-12
2.7123611e-12
2.7158913e-12
2.7158913e-12
2.7123611e-12
2.7089766e-12
2.7091123e-12
2.7108734e-12
2.7106384e-12
2.7020501e-12
2.7029572e-12
2.6887218e-12
2.6224763e-12
2.4778392e-12
2.570089e-12
2.5950162e-12
2.5964331e-12
2.6064068e-12
2.6085337e-12
2.6075215e-12
2.6075787e-12
2.6119725e-12
2.6157088e-12
2.6157088e-12
2.6119726e-12
2.6075788e-12
2.6075216e-12
2.6085337e-12
2.6064068e-12
2.5964332e-12
2.5950164e-12
2.5700895e-12
2.4778402e-12
2.2536668e-12
2.3739335e-12
2.414508e-12
2.4197619e-12
2.4314606e-12
2.4373101e-12
2.4370228e-12
2.4372843e-12
2.4423376e-12
2.4461845e-12
2.4461846e-12
2.4423376e-12
2.4372844e-12
2.4370228e-12
2.4373101e-12
2.4314606e-12
2.4197619e-12
2.4145082e-12
2.3739342e-12
2.2536681e-12
1.9463245e-12
2.0829857e-12
2.1480513e-12
2.1549396e-12
2.1737093e-12
2.1815965e-12
2.1817939e-12
2.1822493e-12
2.1874583e-12
2.1912703e-12
2.1912703e-12
2.1874583e-12
2.1822494e-12
2.1817939e-12
2.1815965e-12
2.1737094e-12
2.1549397e-12
2.1480516e-12
2.0829868e-12
1.9463265e-12
1.6327961e-12
1.7721213e-12
1.8352605e-12
1.8443598e-12
1.8595341e-12
1.8671965e-12
1.8678328e-12
1.8685566e-12
1.8737255e-12
1.8774895e-12
1.8774896e-12
1.8737256e-12
1.8685567e-12
1.867833e-12
1.8671968e-12
1.8595343e-12
1.8443601e-12
1.8352612e-12
1.7721231e-12
1.6327999e-12
1.2596293e-12
1.4636311e-12
1.5405725e-12
1.5571042e-12
1.5681731e-12
1.5736309e-12
1.5739402e-12
1.5743272e-12
1.5789595e-12
1.5824982e-12
1.5824983e-12
1.5789596e-12
1.5743275e-12
1.5739404e-12
1.5736311e-12
1.5681733e-12
1.5571045e-12
1.5405735e-12
1.4636334e-12
1.2596358e-12
7.8072274e-13
1.1386118e-12
1.2581905e-12
1.292815e-12
1.3056726e-12
1.3088797e-12
1.3070809e-12
1.3053725e-12
1.3083202e-12
1.3110941e-12
1.3110942e-12
1.3083204e-12
1.3053728e-12
1.3070813e-12
1.30888e-12
1.3056728e-12
1.2928157e-12
1.2581919e-12
1.1386147e-12
7.8073161e-13
3.2393621e-13
8.0422246e-13
9.8366154e-13
1.0466306e-12
1.0683568e-12
1.0722872e-12
1.0685115e-12
1.0638519e-12
1.0639322e-12
1.0651513e-12
1.0651514e-12
1.0639325e-12
1.0638524e-12
1.068512e-12
1.0722876e-12
1.0683571e-12
1.0466315e-12
9.8366306e-13
8.0422522e-13
3.2394369e-13
8.5164282e-14
5.0123923e-13
7.2684845e-13
8.1991478e-13
8.548079e-13
8.6256716e-13
8.5835148e-13
8.5126391e-13
8.4832441e-13
8.4766873e-13
8.4766886e-13
8.4832476e-13
8.5126445e-13
8.5835192e-13
8.6256756e-13
8.548082e-13
8.1991552e-13
7.2684982e-13
5.0124142e-13
8.5167469e-14
1.6161527e-14
2.7299256e-13
5.0404314e-13
6.1814599e-13
6.6562509e-13
6.7883676e-13
6.7583066e-13
6.676371e-13
6.6245451e-13
6.6018121e-13
6.6018134e-13
6.6245483e-13
6.676376e-13
6.7583106e-13
6.7883713e-13
6.6562538e-13
6.1814652e-13
5.0404401e-13
2.729938e-13
1.6162321e-14
2.5334603e-15
1.3163315e-13
3.2775987e-13
4.4710629e-13
5.0263501e-13
5.2082742e-13
5.1999473e-13
5.1207607e-13
5.0583929e-13
5.0257374e-13
5.0257385e-13
5.0583957e-13
5.1207648e-13
5.1999506e-13
5.2082771e-13
5.0263522e-13
4.4710669e-13
3.2776041e-13
1.3163389e-13
2.5335953e-15
3.5472179e-16
5.7800113e-14
2.0078371e-13
3.1011225e-13
3.6726389e-13
3.8850135e-13
3.8997312e-13
3.8332169e-13
3.7714793e-13
3.7358729e-13
3.7358738e-13
3.7714814e-13
3.83322e-13
3.8997336e-13
3.8850157e-13
3.6726402e-13
3.1011248e-13
2.0078403e-13
5.7800524e-14
3.5474135e-16
4.6574599e-17
2.3829655e-14
1.1688689e-13
2.066131e-13
2.5946776e-13
2.8130621e-13
2.8459749e-13
2.7967477e-13
2.743331e-13
2.710292e-13
2.7102926e-13
2.7433325e-13
2.7967497e-13
2.8459766e-13
2.8130636e-13
2.5946783e-13
2.0661321e-13
1.1688706e-13
2.3829837e-14
4.6577048e-17
5.9209814e-18
9.4401657e-15
6.5267537e-14
1.3264708e-13
1.7735835e-13
1.9765999e-13
2.0199979e-13
1.9880356e-13
1.9464842e-13
1.9191737e-13
1.9191741e-13
1.9464851e-13
1.9880368e-13
2.0199989e-13
1.9766007e-13
1.7735838e-13
1.3264712e-13
6.5267629e-14
9.4402384e-15
5.9212687e-18
7.4254775e-19
3.6451972e-15
3.5248974e-14
8.2386201e-14
1.1750654e-13
1.3488959e-13
1.395133e-13
1.3774669e-13
1.3479551e-13
1.3273396e-13
1.3273398e-13
1.3479556e-13
1.3774676e-13
1.3951335e-13
1.3488964e-13
1.1750654e-13
8.238621e-14
3.5249021e-14
3.6452248e-15
7.4258045e-19
9.288961e-20
1.3829625e-15
1.8532577e-14
4.9701777e-14
7.5646827e-14
8.955675e-14
9.3887384e-14
9.3140124e-14
9.1208882e-14
8.9764024e-14
8.9764033e-14
9.1208902e-14
9.3140153e-14
9.3887408e-14
8.9556765e-14
7.5646819e-14
4.9701775e-14
1.85326e-14
1.3829726e-15
9.2893246e-20
)
;

boundaryField
{
    Wall
    {
        type            zeroGradient;
    }
    frontAndBack
    {
        type            empty;
    }
    atmosphere
    {
        type            zeroGradient;
    }
}


// ************************************************************************* //
