/*--------------------------------*- C++ -*----------------------------------*\
| =========                 |                                                 |
| \\      /  F ield         | OpenFOAM: The Open Source CFD Toolbox           |
|  \\    /   O peration     | Version:  3.0.1                                 |
|   \\  /    A nd           | Web:      www.OpenFOAM.org                      |
|    \\/     M anipulation  |                                                 |
\*---------------------------------------------------------------------------*/
FoamFile
{
    version     2.0;
    format      ascii;
    class       volScalarField;
    location    "31";
    object      mOne;
}
// * * * * * * * * * * * * * * * * * * * * * * * * * * * * * * * * * * * * * //

dimensions      [0 0 0 0 0 0 0];

internalField   nonuniform List<scalar> 
800
(
16.981071
16.982638
16.982912
16.982936
16.982931
16.982927
16.982927
16.982928
16.98293
16.982931
16.982931
16.98293
16.982928
16.982927
16.982927
16.982932
16.982937
16.982912
16.982638
16.981072
16.808705
16.822575
16.825933
16.826667
16.826695
16.826581
16.826476
16.826407
16.82637
16.826354
16.826354
16.82637
16.826407
16.826476
16.826581
16.826695
16.826667
16.825932
16.822575
16.808704
16.609365
16.632084
16.639454
16.641223
16.641463
16.641336
16.641176
16.641062
16.640998
16.640969
16.640969
16.640998
16.641062
16.641175
16.641335
16.641463
16.641222
16.639453
16.632082
16.609362
16.408373
16.438208
16.449249
16.451955
16.452398
16.452272
16.452075
16.451931
16.451846
16.451809
16.451809
16.451846
16.45193
16.452075
16.452272
16.452397
16.451954
16.449248
16.438206
16.40837
16.225334
16.260098
16.274151
16.277663
16.278222
16.27807
16.27783
16.277656
16.277554
16.27751
16.27751
16.277554
16.277656
16.27783
16.278069
16.27822
16.277661
16.274149
16.260095
16.22533
16.073737
16.110963
16.12728
16.131471
16.13203
16.131804
16.131504
16.131293
16.131172
16.13112
16.13112
16.131172
16.131293
16.131504
16.131803
16.132029
16.13147
16.127278
16.110961
16.073734
15.961108
15.998726
16.016438
16.021173
16.021611
16.021252
16.020867
16.020606
16.020459
16.020396
16.020396
16.020459
16.020606
16.020866
16.021251
16.02161
16.021171
16.016436
15.998724
15.961105
15.889062
15.925864
15.944008
15.949145
15.949358
15.948811
15.948311
15.947984
15.947802
15.947725
15.947725
15.947802
15.947984
15.94831
15.94881
15.949357
15.949144
15.944007
15.925862
15.889059
15.855256
15.89107
15.908635
15.914038
15.913997
15.913214
15.912568
15.912157
15.91193
15.911833
15.911833
15.911929
15.912156
15.912568
15.913213
15.913996
15.914037
15.908634
15.891068
15.855254
15.853243
15.889295
15.905381
15.91094
15.910747
15.909744
15.908924
15.908407
15.908124
15.908001
15.908001
15.908124
15.908407
15.908923
15.909744
15.910747
15.910939
15.90538
15.889294
15.853242
15.873873
15.9128
15.926786
15.932433
15.932352
15.931261
15.930235
15.929594
15.929243
15.929089
15.929089
15.929243
15.929594
15.930235
15.93126
15.932351
15.932433
15.926786
15.912799
15.873872
15.90646
15.952251
15.96412
15.969824
15.970276
15.969354
15.968092
15.967304
15.966874
15.966681
15.966681
15.966873
15.967304
15.968091
15.969354
15.970276
15.969823
15.96412
15.952251
15.90646
15.938844
15.996719
16.007492
16.013179
16.014739
16.015048
16.013511
16.012546
16.012065
16.011822
16.011822
16.012065
16.012546
16.013511
16.015047
16.014738
16.013178
16.007492
15.996719
15.938844
15.959153
16.039092
16.051039
16.05662
16.060879
16.062158
16.059507
16.058314
16.057856
16.057539
16.057539
16.057856
16.058314
16.059507
16.062157
16.060878
16.05662
16.051038
16.039092
15.959153
15.949558
16.058424
16.075277
16.080945
16.089311
16.091139
16.088589
16.087064
16.08672
16.086405
16.086405
16.08672
16.087063
16.088588
16.091138
16.089311
16.080945
16.075277
16.058424
15.949557
15.932692
16.070967
16.097539
16.104319
16.114731
16.117428
16.114214
16.112152
16.112001
16.112028
16.112028
16.112001
16.112152
16.114213
16.117427
16.11473
16.104319
16.097539
16.070966
15.932691
15.865554
16.047398
16.089369
16.09942
16.11352
16.116746
16.112012
16.109254
16.109354
16.110361
16.110361
16.109354
16.109253
16.112011
16.116746
16.113519
16.099419
16.089368
16.047397
15.865552
15.729611
15.967053
16.030599
16.046983
16.066348
16.069205
16.062179
16.058624
16.058793
16.061538
16.061538
16.058793
16.058623
16.062178
16.069204
16.066347
16.046982
16.030597
15.967052
15.72961
15.50548
15.810556
15.902437
15.928707
15.954932
15.956507
15.946808
15.942412
15.942219
15.947313
15.947313
15.942218
15.94241
15.946807
15.956505
15.95493
15.928705
15.902435
15.810554
15.505478
15.170015
15.555696
15.683548
15.723499
15.758082
15.758276
15.746173
15.740927
15.740125
15.747832
15.747832
15.740124
15.740925
15.746172
15.758274
15.758081
15.723497
15.683546
15.555694
15.170013
14.695352
15.175571
15.348567
15.406024
15.450712
15.450608
15.436991
15.430918
15.430171
15.440341
15.440341
15.43017
15.430917
15.436989
15.450606
15.45071
15.406022
15.348565
15.17557
14.69535
14.049126
14.637193
14.866255
14.945994
15.003838
15.004816
14.990822
14.98397
14.984945
14.997066
14.997066
14.984944
14.983969
14.990821
15.004815
15.003836
14.945992
14.866253
14.637192
14.049126
13.194055
13.901607
14.199427
14.307481
14.383311
14.387454
14.373511
14.365928
14.370447
14.383764
14.383764
14.370446
14.365926
14.373509
14.387452
14.383309
14.307479
14.199426
13.901607
13.194058
12.086476
12.924448
13.304758
13.449579
13.54775
13.558891
13.546584
13.538314
13.547291
13.560931
13.560931
13.547291
13.538313
13.546583
13.558889
13.547749
13.449578
13.304758
12.92445
12.086482
10.686735
11.65821
12.13388
12.329182
12.451219
12.477787
12.470026
12.461132
12.473987
12.487046
12.487045
12.473986
12.461131
12.470025
12.477787
12.451218
12.329182
12.133881
11.658215
10.686746
8.9782557
10.064623
10.646717
10.897281
11.05059
11.097852
11.096691
11.087407
11.102234
11.113881
11.11388
11.102233
11.087407
11.096691
11.097851
11.05059
10.897281
10.646719
10.064632
8.9782714
7.0039722
8.1383786
8.8198529
9.127458
9.3077264
9.3875435
9.3928367
9.383569
9.3977241
9.4072619
9.4072617
9.3977239
9.3835687
9.3928367
9.3875436
9.3077269
9.1274594
8.8198572
8.1383899
7.0039911
4.9222388
5.9708427
6.7219686
7.0489422
7.2692993
7.3593789
7.368802
7.3603318
7.3715907
7.3787346
7.3787346
7.3715908
7.3603319
7.3688026
7.3593797
7.2693005
7.0489447
6.7219747
5.9708574
4.922262
3.1470099
4.0500181
4.724784
5.0679259
5.2696926
5.3551072
5.3666789
5.3586543
5.3655875
5.3701097
5.3701098
5.3655883
5.3586556
5.3666805
5.3551094
5.2696952
5.0679297
4.7247918
4.050034
3.1470354
1.7029339
2.5909947
3.2073852
3.566753
3.7690049
3.8545684
3.8682557
3.8575514
3.8563003
3.8560597
3.8560599
3.8563012
3.8575527
3.8682572
3.85457
3.7690067
3.5667559
3.2073924
2.5910074
1.7029561
0.71464152
1.5574292
2.1346452
2.4932082
2.6959112
2.7807416
2.79195
2.7748851
2.7642218
2.7584852
2.7584855
2.7642229
2.7748866
2.7919517
2.7807432
2.6959125
2.4932117
2.1346513
1.5574382
0.7146552
0.22455196
0.87861831
1.3925429
1.734351
1.9312208
2.0144579
2.0240734
2.0027339
1.9844403
1.9738258
1.9738261
1.9844414
2.0027355
2.0240748
2.0144591
1.9312219
1.7343537
1.392547
0.87862338
0.22455826
0.053629827
0.46714192
0.89146527
1.1996687
1.3837037
1.4634352
1.4733198
1.4516151
1.4299503
1.4167736
1.4167739
1.4299511
1.4516164
1.4733209
1.4634361
1.3837043
1.1996702
0.89146766
0.46714455
0.05363192
0.010279051
0.23486058
0.56086193
0.82402452
0.98862974
1.0626996
1.0737328
1.0546365
1.03337
1.0199378
1.019938
1.0333706
1.0546374
1.0737335
1.0627002
0.98863004
0.82402517
0.56086292
0.23486171
0.010279554
0.0016818277
0.11214059
0.34694631
0.56105635
0.70233225
0.7686773
0.78070437
0.76561381
0.74704185
0.7349193
0.73491946
0.74704224
0.76561439
0.7807048
0.76867762
0.70233234
0.56105668
0.34694675
0.1121412
0.0016819159
0.00024771885
0.051226673
0.21094239
0.37799316
0.4948142
0.55216241
0.56454323
0.55364651
0.53870975
0.52865375
0.52865384
0.53870998
0.55364684
0.56454346
0.55216256
0.49481417
0.37799325
0.21094261
0.051227009
0.00024773225
3.4314622e-05
0.022603295
0.12603672
0.25156733
0.34497749
0.39295492
0.40497718
0.39777448
0.38650455
0.37867511
0.37867516
0.38650466
0.39777464
0.40497729
0.39295497
0.34497741
0.25156732
0.12603683
0.02260345
3.4316383e-05
4.6131201e-06
0.0097131575
0.073968716
0.1651343
0.23759023
0.27655132
0.28763377
0.28334137
0.27528255
0.26948859
0.26948861
0.27528259
0.28334142
0.2876338
0.27655131
0.23759015
0.16513425
0.073968773
0.0097132244
4.6133379e-06
6.1322462e-07
0.0040880376
0.042627511
0.10677618
0.16142367
0.19220762
0.20196987
0.19977297
0.19428291
0.19017531
0.19017531
0.19428291
0.19977296
0.20196985
0.19220758
0.16142359
0.10677614
0.042627541
0.0040880653
6.1325076e-07
8.1518769e-08
0.0016910325
0.024117977
0.067936946
0.10807866
0.13178872
0.14005295
0.13924078
0.13567073
0.13286551
0.1328655
0.13567071
0.13924074
0.14005291
0.13178867
0.1080786
0.06793691
0.024117993
0.0016910436
8.152181e-08
)
;

boundaryField
{
    Wall
    {
        type            zeroGradient;
    }
    frontAndBack
    {
        type            empty;
    }
    atmosphere
    {
        type            zeroGradient;
    }
}


// ************************************************************************* //
