/*--------------------------------*- C++ -*----------------------------------*\
| =========                 |                                                 |
| \\      /  F ield         | OpenFOAM: The Open Source CFD Toolbox           |
|  \\    /   O peration     | Version:  3.0.1                                 |
|   \\  /    A nd           | Web:      www.OpenFOAM.org                      |
|    \\/     M anipulation  |                                                 |
\*---------------------------------------------------------------------------*/
FoamFile
{
    version     2.0;
    format      ascii;
    class       volScalarField;
    location    "31";
    object      mThree;
}
// * * * * * * * * * * * * * * * * * * * * * * * * * * * * * * * * * * * * * //

dimensions      [0 0 0 0 0 0 0];

internalField   nonuniform List<scalar> 
800
(
4.8689272e-23
4.8702838e-23
4.8705216e-23
4.8705437e-23
4.8705399e-23
4.8705367e-23
4.8705368e-23
4.8705382e-23
4.8705396e-23
4.8705403e-23
4.8705403e-23
4.8705396e-23
4.8705382e-23
4.8705368e-23
4.8705368e-23
4.8705399e-23
4.8705438e-23
4.8705218e-23
4.8702839e-23
4.8689273e-23
4.7228996e-23
4.7345885e-23
4.7374219e-23
4.7380427e-23
4.7380676e-23
4.7379725e-23
4.7378842e-23
4.7378268e-23
4.7377953e-23
4.7377816e-23
4.7377817e-23
4.7377952e-23
4.7378266e-23
4.7378841e-23
4.7379724e-23
4.7380673e-23
4.7380425e-23
4.7374216e-23
4.734588e-23
4.7228986e-23
4.6155719e-23
4.632806e-23
4.638201e-23
4.6394161e-23
4.6395441e-23
4.6394314e-23
4.6393109e-23
4.6392312e-23
4.6391878e-23
4.6391694e-23
4.6391694e-23
4.6391877e-23
4.639231e-23
4.6393107e-23
4.6394311e-23
4.6395437e-23
4.6394156e-23
4.6382003e-23
4.6328051e-23
4.6155702e-23
4.5564201e-23
4.5763917e-23
4.5836655e-23
4.5852583e-23
4.5854351e-23
4.58531e-23
4.585177e-23
4.5850933e-23
4.5850503e-23
4.5850332e-23
4.5850332e-23
4.5850502e-23
4.585093e-23
4.5851767e-23
4.5853097e-23
4.5854346e-23
4.5852577e-23
4.5836648e-23
4.5763907e-23
4.5564184e-23
4.5536257e-23
4.5734351e-23
4.5818356e-23
4.5836359e-23
4.5837699e-23
4.5836098e-23
4.5834653e-23
4.583385e-23
4.583349e-23
4.5833369e-23
4.5833369e-23
4.5833489e-23
4.5833848e-23
4.5834651e-23
4.5836095e-23
4.5837695e-23
4.5836355e-23
4.581835e-23
4.5734343e-23
4.5536242e-23
4.6139466e-23
4.6305665e-23
4.6393211e-23
4.6411887e-23
4.6411732e-23
4.6409406e-23
4.6407757e-23
4.6406993e-23
4.6406729e-23
4.6406675e-23
4.6406675e-23
4.6406729e-23
4.6406993e-23
4.6407757e-23
4.6409405e-23
4.641173e-23
4.6411885e-23
4.6393207e-23
4.630566e-23
4.6139456e-23
4.7433644e-23
4.7537424e-23
4.7619341e-23
4.763726e-23
4.763446e-23
4.7630942e-23
4.7628933e-23
4.7628163e-23
4.7627988e-23
4.7628004e-23
4.7628005e-23
4.7627988e-23
4.7628163e-23
4.7628934e-23
4.7630944e-23
4.763446e-23
4.7637261e-23
4.7619342e-23
4.7537423e-23
4.743364e-23
4.9483666e-23
4.9494422e-23
4.9558632e-23
4.9574153e-23
4.9567547e-23
4.95623e-23
4.9559706e-23
4.9558833e-23
4.9558714e-23
4.9558788e-23
4.9558789e-23
4.9558716e-23
4.9558836e-23
4.955971e-23
4.9562304e-23
4.9567552e-23
4.9574159e-23
4.9558639e-23
4.9494427e-23
4.9483669e-23
5.2343157e-23
5.2235357e-23
5.2266616e-23
5.2277826e-23
5.2267032e-23
5.2259522e-23
5.2256037e-23
5.2254898e-23
5.2254763e-23
5.2254863e-23
5.2254864e-23
5.2254766e-23
5.2254902e-23
5.2256044e-23
5.225953e-23
5.2267041e-23
5.2277837e-23
5.2266628e-23
5.2235368e-23
5.2343167e-23
5.6046429e-23
5.5803185e-23
5.5782672e-23
5.5787284e-23
5.5773567e-23
5.5764015e-23
5.5759179e-23
5.5757508e-23
5.5757243e-23
5.5757314e-23
5.5757316e-23
5.5757247e-23
5.5757514e-23
5.5759189e-23
5.5764027e-23
5.577358e-23
5.57873e-23
5.578269e-23
5.5803203e-23
5.6046445e-23
6.0607296e-23
6.0225267e-23
6.0131968e-23
6.0127245e-23
6.0114484e-23
6.0104852e-23
6.0097956e-23
6.0095341e-23
6.0094778e-23
6.0094736e-23
6.0094738e-23
6.0094784e-23
6.009535e-23
6.0097969e-23
6.0104868e-23
6.0114501e-23
6.0127266e-23
6.0131991e-23
6.0225291e-23
6.0607319e-23
6.6018528e-23
6.5511086e-23
6.5326767e-23
6.5309295e-23
6.5304405e-23
6.5298727e-23
6.5288706e-23
6.5284508e-23
6.5283442e-23
6.5283154e-23
6.5283157e-23
6.5283449e-23
6.5284518e-23
6.5288721e-23
6.5298746e-23
6.5304427e-23
6.5309321e-23
6.5326795e-23
6.5511115e-23
6.6018556e-23
7.2248136e-23
7.1646865e-23
7.1364724e-23
7.1328926e-23
7.1341758e-23
7.134552e-23
7.1330835e-23
7.1323996e-23
7.1323066e-23
7.1322252e-23
7.1322255e-23
7.1323073e-23
7.1324008e-23
7.1330851e-23
7.1345541e-23
7.1341783e-23
7.1328956e-23
7.1364756e-23
7.1646899e-23
7.2248169e-23
7.9229604e-23
7.8586759e-23
7.8219731e-23
7.8158131e-23
7.8200624e-23
7.8218922e-23
7.819794e-23
7.8186789e-23
7.8187438e-23
7.8185653e-23
7.8185657e-23
7.8187445e-23
7.8186801e-23
7.8197958e-23
7.8218946e-23
7.8200651e-23
7.8158164e-23
7.8219766e-23
7.8586796e-23
7.922964e-23
8.6817676e-23
8.6219093e-23
8.5803224e-23
8.5709586e-23
8.5795092e-23
8.5832848e-23
8.5801375e-23
8.5784308e-23
8.5787907e-23
8.578662e-23
8.5786624e-23
8.5787915e-23
8.578432e-23
8.5801393e-23
8.5832872e-23
8.579512e-23
8.5709619e-23
8.5803261e-23
8.6219132e-23
8.6817713e-23
9.4646328e-23
9.4232183e-23
9.382492e-23
9.3702271e-23
9.3847374e-23
9.3905185e-23
9.3855609e-23
9.3831201e-23
9.3839204e-23
9.3845366e-23
9.3845369e-23
9.383921e-23
9.3831212e-23
9.3855625e-23
9.3905208e-23
9.38474e-23
9.3702303e-23
9.3824956e-23
9.423222e-23
9.464636e-23
1.0234949e-22
1.023071e-22
1.0198114e-22
1.0184874e-22
1.0206953e-22
1.0213914e-22
1.020569e-22
1.0202322e-22
1.0203701e-22
1.0206449e-22
1.0206449e-22
1.0203702e-22
1.0202323e-22
1.0205691e-22
1.0213916e-22
1.0206955e-22
1.0184877e-22
1.0198117e-22
1.0230713e-22
1.0234951e-22
1.0950353e-22
1.1006236e-22
1.0990196e-22
1.0979546e-22
1.1011474e-22
1.1017668e-22
1.1004394e-22
1.0999855e-22
1.1001448e-22
1.1008149e-22
1.1008149e-22
1.1001448e-22
1.0999856e-22
1.1004395e-22
1.101767e-22
1.1011476e-22
1.0979548e-22
1.0990198e-22
1.1006238e-22
1.0950354e-22
1.1560904e-22
1.170349e-22
1.1713672e-22
1.1710048e-22
1.1754617e-22
1.1757652e-22
1.173813e-22
1.1732208e-22
1.1733032e-22
1.1745416e-22
1.1745416e-22
1.1733032e-22
1.1732208e-22
1.173813e-22
1.1757653e-22
1.1754618e-22
1.1710049e-22
1.1713673e-22
1.170349e-22
1.1560904e-22
1.2005522e-22
1.2265138e-22
1.2312884e-22
1.2320882e-22
1.2380076e-22
1.2378888e-22
1.2353342e-22
1.2345965e-22
1.2345366e-22
1.2364534e-22
1.2364534e-22
1.2345366e-22
1.2345964e-22
1.2353341e-22
1.2378888e-22
1.2380076e-22
1.2320881e-22
1.2312884e-22
1.2265138e-22
1.2005521e-22
1.2210009e-22
1.2619612e-22
1.2719125e-22
1.2742432e-22
1.281758e-22
1.2813503e-22
1.2783789e-22
1.2775112e-22
1.2774629e-22
1.2800722e-22
1.2800722e-22
1.2774628e-22
1.2775111e-22
1.2783788e-22
1.2813502e-22
1.2817578e-22
1.274243e-22
1.2719124e-22
1.261961e-22
1.2210007e-22
1.209126e-22
1.2680052e-22
1.2848405e-22
1.2891421e-22
1.2985478e-22
1.297999e-22
1.2948837e-22
1.2939249e-22
1.2943061e-22
1.2975198e-22
1.2975198e-22
1.2943061e-22
1.2939248e-22
1.2948836e-22
1.2979988e-22
1.2985476e-22
1.2891419e-22
1.2848403e-22
1.2680051e-22
1.2091259e-22
1.1565239e-22
1.2351768e-22
1.2607767e-22
1.2675494e-22
1.2794009e-22
1.2789648e-22
1.27576e-22
1.2747631e-22
1.2760503e-22
1.2796909e-22
1.2796909e-22
1.2760503e-22
1.274763e-22
1.2757599e-22
1.2789646e-22
1.2794007e-22
1.2675493e-22
1.2607766e-22
1.2351767e-22
1.1565241e-22
1.0556627e-22
1.1546179e-22
1.1906556e-22
1.2006511e-22
1.215198e-22
1.2153616e-22
1.2123572e-22
1.21138e-22
1.2138118e-22
1.2176382e-22
1.2176382e-22
1.2138118e-22
1.2113799e-22
1.2123571e-22
1.2153614e-22
1.2151978e-22
1.200651e-22
1.1906555e-22
1.1546181e-22
1.0556634e-22
9.0386714e-23
1.0204131e-22
1.0674922e-22
1.0824812e-22
1.0989159e-22
1.1010866e-22
1.0988892e-22
1.0979883e-22
1.1013881e-22
1.1051234e-22
1.1051234e-22
1.1013881e-22
1.0979882e-22
1.0988891e-22
1.1010865e-22
1.0989158e-22
1.0824811e-22
1.0674923e-22
1.0204136e-22
9.0386831e-23
7.0846223e-23
8.3422624e-23
8.916203e-23
9.114893e-23
9.2980052e-23
9.3463311e-23
9.3361687e-23
9.3285224e-23
9.3666458e-23
9.4002726e-23
9.4002726e-23
9.3666458e-23
9.3285224e-23
9.3361686e-23
9.3463308e-23
9.2980052e-23
9.1148937e-23
8.9162063e-23
8.3422714e-23
7.0846378e-23
4.9170894e-23
6.1036819e-23
6.7355271e-23
6.9703027e-23
7.1572806e-23
7.2410694e-23
7.2407971e-23
7.2348651e-23
7.2697485e-23
7.2970768e-23
7.2970768e-23
7.2697486e-23
7.2348653e-23
7.2407973e-23
7.2410694e-23
7.157281e-23
6.9703038e-23
6.7355312e-23
6.1036921e-23
4.9171047e-23
2.9153345e-23
3.8098877e-23
4.4256907e-23
4.634068e-23
4.8343887e-23
4.9163933e-23
4.920789e-23
4.9168653e-23
4.9425711e-23
4.9619598e-23
4.9619599e-23
4.9425713e-23
4.9168656e-23
4.9207894e-23
4.9163937e-23
4.8343894e-23
4.6340696e-23
4.4256952e-23
3.8098983e-23
2.9153497e-23
1.5986648e-23
2.1771034e-23
2.5871872e-23
2.755201e-23
2.8865776e-23
2.9457054e-23
2.9515861e-23
2.9494615e-23
2.9656849e-23
2.9780412e-23
2.9780414e-23
2.9656854e-23
2.9494624e-23
2.9515873e-23
2.9457068e-23
2.8865792e-23
2.7552034e-23
2.587192e-23
2.1771129e-23
1.5986788e-23
7.5536585e-24
1.1927069e-23
1.479206e-23
1.6165391e-23
1.7041073e-23
1.7441348e-23
1.7493534e-23
1.7465918e-23
1.7545819e-23
1.761329e-23
1.7613292e-23
1.7545824e-23
1.7465926e-23
1.7493542e-23
1.7441357e-23
1.7041082e-23
1.6165405e-23
1.4792097e-23
1.1927132e-23
7.553762e-24
2.8061177e-24
6.1795171e-24
8.3676404e-24
9.5050505e-24
1.013649e-23
1.0393463e-23
1.0404272e-23
1.0346996e-23
1.0362835e-23
1.038885e-23
1.0388851e-23
1.036284e-23
1.0347003e-23
1.0404279e-23
1.039347e-23
1.0136496e-23
9.5050657e-24
8.3676671e-24
6.1795561e-24
2.8061726e-24
7.8876321e-25
2.9942411e-24
4.6443253e-24
5.5852815e-24
6.0760829e-24
6.2545418e-24
6.2418696e-24
6.1696648e-24
6.1455537e-24
6.1437809e-24
6.1437823e-24
6.1455581e-24
6.1696715e-24
6.2418756e-24
6.2545471e-24
6.0760871e-24
5.5852928e-24
4.6443416e-24
2.9942603e-24
7.8878567e-25
1.6949146e-25
1.3561451e-24
2.5187877e-24
3.2628058e-24
3.6552295e-24
3.7924457e-24
3.77761e-24
3.7101211e-24
3.6717387e-24
3.6572491e-24
3.6572503e-24
3.6717418e-24
3.7101259e-24
3.777614e-24
3.7924493e-24
3.655232e-24
3.2628118e-24
2.5187965e-24
1.3561539e-24
1.6949821e-25
2.9277945e-26
5.7617279e-25
1.3341753e-24
1.8881707e-24
2.1952872e-24
2.3067974e-24
2.2992152e-24
2.246603e-24
2.2097484e-24
2.1926775e-24
2.1926783e-24
2.2097504e-24
2.2466061e-24
2.2992177e-24
2.3067996e-24
2.1952888e-24
1.8881735e-24
1.334179e-24
5.7617624e-25
2.927942e-26
4.3113708e-27
2.3109055e-25
6.9074691e-25
1.0798425e-24
1.3110933e-24
1.401085e-24
1.4013751e-24
1.3651368e-24
1.3361819e-24
1.3214058e-24
1.3214063e-24
1.3361831e-24
1.3651387e-24
1.4013766e-24
1.4010863e-24
1.3110942e-24
1.0798441e-24
6.9074865e-25
2.3109211e-25
4.3116052e-27
5.6962682e-28
8.8320752e-26
3.4995969e-25
6.0961313e-25
7.7645601e-25
8.4660735e-25
8.5205044e-25
8.2939027e-25
8.0916858e-25
7.9813515e-25
7.9813543e-25
8.0916929e-25
8.2939135e-25
8.5205131e-25
8.4660813e-25
7.7645648e-25
6.096139e-25
3.4996051e-25
8.8321468e-26
5.6965889e-28
7.0463067e-29
3.2539069e-26
1.7387757e-25
3.3954418e-25
4.5510062e-25
5.0757611e-25
5.1522814e-25
5.0224542e-25
4.8924952e-25
4.8173844e-25
4.817386e-25
4.8924992e-25
5.0224602e-25
5.1522863e-25
5.0757656e-25
4.5510086e-25
3.3954452e-25
1.7387796e-25
3.2539346e-26
7.0466856e-29
8.4180013e-30
1.1670938e-26
8.4850853e-26
1.8651875e-25
2.6366346e-25
3.0138029e-25
3.0916154e-25
3.0238685e-25
2.9457345e-25
2.8979007e-25
2.8979016e-25
2.9457366e-25
3.0238717e-25
3.0916181e-25
3.0138053e-25
2.6366359e-25
1.865189e-25
8.485103e-26
1.1671038e-26
8.4184194e-30
9.8952354e-31
4.1037211e-27
4.0718981e-26
1.0102563e-25
1.5086231e-25
1.7700155e-25
1.8379114e-25
1.8066117e-25
1.7623469e-25
1.7334544e-25
1.7334548e-25
1.762348e-25
1.8066133e-25
1.8379128e-25
1.7700168e-25
1.5086237e-25
1.010257e-25
4.0719061e-26
4.1037554e-27
9.8956825e-31
1.1572483e-31
1.4209012e-27
1.9233278e-26
5.3942759e-26
8.5200891e-26
1.0273455e-25
1.0812355e-25
1.0695274e-25
1.0458669e-25
1.0291727e-25
1.0291729e-25
1.0458674e-25
1.0695282e-25
1.0812362e-25
1.0273461e-25
8.5200919e-26
5.3942784e-26
1.9233314e-26
1.4209127e-27
1.1572951e-31
)
;

boundaryField
{
    Wall
    {
        type            zeroGradient;
    }
    frontAndBack
    {
        type            empty;
    }
    atmosphere
    {
        type            zeroGradient;
    }
}


// ************************************************************************* //
