/*--------------------------------*- C++ -*----------------------------------*\
| =========                 |                                                 |
| \\      /  F ield         | OpenFOAM: The Open Source CFD Toolbox           |
|  \\    /   O peration     | Version:  3.0.1                                 |
|   \\  /    A nd           | Web:      www.OpenFOAM.org                      |
|    \\/     M anipulation  |                                                 |
\*---------------------------------------------------------------------------*/
FoamFile
{
    version     2.0;
    format      ascii;
    class       volScalarField;
    location    "31";
    object      mTwo;
}
// * * * * * * * * * * * * * * * * * * * * * * * * * * * * * * * * * * * * * //

dimensions      [0 0 0 0 0 0 0];

internalField   nonuniform List<scalar> 
800
(
2.8810067e-11
2.8815381e-11
2.881631e-11
2.8816394e-11
2.8816377e-11
2.8816364e-11
2.8816363e-11
2.8816367e-11
2.8816372e-11
2.8816375e-11
2.8816375e-11
2.8816372e-11
2.8816367e-11
2.8816363e-11
2.8816364e-11
2.8816378e-11
2.8816395e-11
2.8816311e-11
2.8815381e-11
2.8810067e-11
2.8230787e-11
2.8277143e-11
2.8288384e-11
2.8290845e-11
2.8290939e-11
2.8290558e-11
2.8290204e-11
2.8289973e-11
2.8289846e-11
2.8289791e-11
2.8289791e-11
2.8289846e-11
2.8289972e-11
2.8290203e-11
2.8290557e-11
2.8290939e-11
2.8290844e-11
2.8288383e-11
2.8277141e-11
2.8230782e-11
2.7741699e-11
2.7812158e-11
2.7834424e-11
2.7839535e-11
2.7840116e-11
2.7839667e-11
2.7839169e-11
2.7838833e-11
2.7838647e-11
2.7838568e-11
2.7838568e-11
2.7838647e-11
2.7838832e-11
2.7839168e-11
2.7839666e-11
2.7840114e-11
2.7839533e-11
2.7834421e-11
2.7812155e-11
2.7741692e-11
2.7394893e-11
2.7479514e-11
2.7510448e-11
2.7517473e-11
2.7518369e-11
2.7517886e-11
2.7517319e-11
2.7516944e-11
2.7516743e-11
2.751666e-11
2.751666e-11
2.7516742e-11
2.7516943e-11
2.7517317e-11
2.7517884e-11
2.7518367e-11
2.7517471e-11
2.7510445e-11
2.747951e-11
2.7394886e-11
2.7231595e-11
2.7319693e-11
2.7356427e-11
2.736473e-11
2.7365595e-11
2.7364987e-11
2.7364351e-11
2.7363962e-11
2.7363767e-11
2.7363692e-11
2.7363692e-11
2.7363766e-11
2.7363961e-11
2.736435e-11
2.7364985e-11
2.7365593e-11
2.7364728e-11
2.7356424e-11
2.7319689e-11
2.7231587e-11
2.728091e-11
2.7361357e-11
2.7400901e-11
2.7409944e-11
2.7410367e-11
2.7409484e-11
2.7408739e-11
2.7408331e-11
2.7408147e-11
2.7408086e-11
2.7408086e-11
2.7408147e-11
2.740833e-11
2.7408738e-11
2.7409483e-11
2.7410366e-11
2.7409942e-11
2.7400898e-11
2.7361354e-11
2.7280904e-11
2.7561279e-11
2.7623714e-11
2.7662643e-11
2.7671888e-11
2.7671445e-11
2.7670109e-11
2.7669188e-11
2.7668736e-11
2.7668555e-11
2.7668504e-11
2.7668504e-11
2.7668555e-11
2.7668735e-11
2.7669188e-11
2.7670109e-11
2.7671445e-11
2.7671887e-11
2.7662642e-11
2.7623712e-11
2.7561275e-11
2.8082443e-11
2.8118148e-11
2.8152347e-11
2.8161224e-11
2.8159531e-11
2.8157553e-11
2.8156369e-11
2.8155828e-11
2.815563e-11
2.8155581e-11
2.8155582e-11
2.8155631e-11
2.8155829e-11
2.815637e-11
2.8157554e-11
2.8159532e-11
2.8161225e-11
2.8152347e-11
2.8118148e-11
2.8082442e-11
2.8844554e-11
2.8847869e-11
2.8872566e-11
2.8880477e-11
2.8877445e-11
2.8874655e-11
2.8873101e-11
2.8872408e-11
2.8872161e-11
2.8872099e-11
2.8872099e-11
2.8872162e-11
2.8872409e-11
2.8873103e-11
2.8874657e-11
2.8877447e-11
2.888048e-11
2.8872569e-11
2.8847871e-11
2.8844555e-11
2.9836011e-11
2.9805752e-11
2.9815764e-11
2.9822099e-11
2.9818182e-11
2.9814667e-11
2.9812603e-11
2.9811669e-11
2.981133e-11
2.9811232e-11
2.9811233e-11
2.9811331e-11
2.9811671e-11
2.9812605e-11
2.981467e-11
2.9818185e-11
2.9822103e-11
2.9815768e-11
2.9805756e-11
2.9836014e-11
3.1035538e-11
3.0975961e-11
3.0966336e-11
3.0970491e-11
3.0966902e-11
3.0963267e-11
3.0960501e-11
3.0959208e-11
3.0958722e-11
3.0958561e-11
3.0958562e-11
3.0958723e-11
3.095921e-11
3.0960504e-11
3.096327e-11
3.0966906e-11
3.0970496e-11
3.0966341e-11
3.0975967e-11
3.1035543e-11
3.2414351e-11
3.2335564e-11
3.2303138e-11
3.2304482e-11
3.2303224e-11
3.2300643e-11
3.2296914e-11
3.2295096e-11
3.2294403e-11
3.229414e-11
3.2294141e-11
3.2294405e-11
3.2295099e-11
3.2296918e-11
3.2300647e-11
3.2303229e-11
3.2304488e-11
3.2303144e-11
3.2335571e-11
3.2414357e-11
3.3935925e-11
3.3853804e-11
3.3799566e-11
3.3797057e-11
3.3800838e-11
3.3800848e-11
3.3795807e-11
3.379321e-11
3.3792471e-11
3.3792031e-11
3.3792032e-11
3.3792473e-11
3.3793212e-11
3.379581e-11
3.3800853e-11
3.3800844e-11
3.3797064e-11
3.3799574e-11
3.3853812e-11
3.3935932e-11
3.5554084e-11
3.5490664e-11
3.5421605e-11
3.5413896e-11
3.5426047e-11
3.5430136e-11
3.5423385e-11
3.5419627e-11
3.541921e-11
3.5418478e-11
3.5418479e-11
3.5419212e-11
3.541963e-11
3.5423389e-11
3.5430141e-11
3.5426052e-11
3.5413903e-11
3.5421613e-11
3.5490673e-11
3.5554092e-11
3.7204458e-11
3.7189599e-11
3.7119167e-11
3.7105551e-11
3.7129569e-11
3.713884e-11
3.712956e-11
3.7124305e-11
3.7124568e-11
3.7123928e-11
3.7123928e-11
3.712457e-11
3.7124307e-11
3.7129563e-11
3.7138845e-11
3.7129574e-11
3.7105558e-11
3.7119174e-11
3.7189608e-11
3.7204466e-11
3.8786586e-11
3.8862282e-11
3.8809271e-11
3.879196e-11
3.8831874e-11
3.8846407e-11
3.8832717e-11
3.8825507e-11
3.8826866e-11
3.8828097e-11
3.8828097e-11
3.8826866e-11
3.8825508e-11
3.883272e-11
3.8846411e-11
3.8831878e-11
3.8791966e-11
3.8809277e-11
3.8862289e-11
3.8786591e-11
4.0210747e-11
4.042642e-11
4.041263e-11
4.0398347e-11
4.0457892e-11
4.0475367e-11
4.045378e-11
4.0444068e-11
4.0446883e-11
4.0453395e-11
4.0453396e-11
4.0446883e-11
4.0444069e-11
4.0453781e-11
4.047537e-11
4.0457895e-11
4.0398351e-11
4.0412635e-11
4.0426425e-11
4.021075e-11
4.1380029e-11
4.1791635e-11
4.1840913e-11
4.1840535e-11
4.1924874e-11
4.1940367e-11
4.1906846e-11
4.1894067e-11
4.1897446e-11
4.1913499e-11
4.1913499e-11
4.1897446e-11
4.1894067e-11
4.1906846e-11
4.1940368e-11
4.1924875e-11
4.1840537e-11
4.1840916e-11
4.1791637e-11
4.1380028e-11
4.2184172e-11
4.2853216e-11
4.299179e-11
4.3018183e-11
4.3133742e-11
4.3141712e-11
4.3093899e-11
4.3077642e-11
4.3079295e-11
4.3108649e-11
4.3108649e-11
4.3079294e-11
4.307764e-11
4.3093898e-11
4.3141711e-11
4.3133741e-11
4.3018182e-11
4.2991789e-11
4.2853216e-11
4.2184168e-11
4.2491346e-11
4.3485617e-11
4.3743216e-11
4.3809492e-11
4.3961237e-11
4.3959799e-11
4.3898786e-11
4.3878975e-11
4.3877521e-11
4.3922242e-11
4.3922242e-11
4.3877519e-11
4.3878972e-11
4.3898782e-11
4.3959795e-11
4.3961233e-11
4.3809489e-11
4.3743213e-11
4.3485613e-11
4.2491339e-11
4.2143413e-11
4.3535274e-11
4.3948072e-11
4.4065414e-11
4.4257633e-11
4.4250783e-11
4.4181287e-11
4.4158302e-11
4.4157499e-11
4.4217381e-11
4.421738e-11
4.4157497e-11
4.4158298e-11
4.4181283e-11
4.4250778e-11
4.4257628e-11
4.4065409e-11
4.3948067e-11
4.3535269e-11
4.2143407e-11
4.0962812e-11
4.2816833e-11
4.3427676e-11
4.3609454e-11
4.3851158e-11
4.3843526e-11
4.3771921e-11
4.374657e-11
4.3756084e-11
4.3828733e-11
4.3828732e-11
4.3756082e-11
4.3746566e-11
4.3771916e-11
4.384352e-11
4.3851152e-11
4.3609447e-11
4.342767e-11
4.2816829e-11
4.0962809e-11
3.8763119e-11
4.1124439e-11
4.1981049e-11
4.224305e-11
4.2550146e-11
4.2549034e-11
4.2476889e-11
4.2450221e-11
4.2480859e-11
4.2562203e-11
4.2562202e-11
4.2480857e-11
4.2450216e-11
4.2476884e-11
4.2549028e-11
4.255014e-11
4.2243044e-11
4.1981044e-11
4.1124438e-11
3.8763125e-11
3.5359486e-11
3.8252604e-11
3.9400449e-11
3.9765768e-11
4.0148066e-11
4.0167226e-11
4.0101691e-11
4.0074825e-11
4.0132104e-11
4.0217059e-11
4.0217058e-11
4.0132103e-11
4.0074822e-11
4.0101687e-11
4.0167221e-11
4.0148061e-11
3.9765764e-11
3.9400447e-11
3.825261e-11
3.5359506e-11
3.0648179e-11
3.4034404e-11
3.5500316e-11
3.6016118e-11
3.6461392e-11
3.6536577e-11
3.6491813e-11
3.6465892e-11
3.6546317e-11
3.662935e-11
3.6629349e-11
3.6546316e-11
3.646589e-11
3.649181e-11
3.6536573e-11
3.6461389e-11
3.6016117e-11
3.5500319e-11
3.403442e-11
3.0648215e-11
2.4724513e-11
2.8437066e-11
3.0223418e-11
3.0890494e-11
3.1408739e-11
3.1557654e-11
3.1542383e-11
3.1518867e-11
3.1610702e-11
3.1686384e-11
3.1686384e-11
3.1610701e-11
3.1518866e-11
3.1542382e-11
3.1557653e-11
3.1408739e-11
3.0890496e-11
3.0223428e-11
2.8437094e-11
2.4724562e-11
1.8038287e-11
2.1693903e-11
2.3710113e-11
2.4506037e-11
2.506283e-11
2.5317665e-11
2.532758e-11
2.530771e-11
2.5394752e-11
2.5458083e-11
2.5458083e-11
2.5394752e-11
2.530771e-11
2.532758e-11
2.5317665e-11
2.5062832e-11
2.4506041e-11
2.3710126e-11
2.1693936e-11
1.8038339e-11
1.1526598e-11
1.4520166e-11
1.6587184e-11
1.7344984e-11
1.7975053e-11
1.8236792e-11
1.8259001e-11
1.8244329e-11
1.8312505e-11
1.8360072e-11
1.8360072e-11
1.8312506e-11
1.8244329e-11
1.8259003e-11
1.8236794e-11
1.7975056e-11
1.734499e-11
1.65872e-11
1.4520204e-11
1.1526656e-11
6.7712217e-12
8.9492446e-12
1.050647e-11
1.1191439e-11
1.1658707e-11
1.1866234e-11
1.1891892e-11
1.1881505e-11
1.1927364e-11
1.1959814e-11
1.1959815e-11
1.1927366e-11
1.1881509e-11
1.1891896e-11
1.186624e-11
1.1658713e-11
1.1191448e-11
1.0506488e-11
8.9492817e-12
6.7712789e-12
3.4046948e-12
5.2558914e-12
6.4817819e-12
7.1109103e-12
7.4786251e-12
7.639299e-12
7.6623431e-12
7.6473754e-12
7.6679014e-12
7.6847058e-12
7.6847064e-12
7.6679035e-12
7.6473786e-12
7.6623466e-12
7.6393025e-12
7.4786291e-12
7.1109163e-12
6.4817973e-12
5.2559182e-12
3.4047404e-12
1.3386596e-12
2.9119191e-12
3.943981e-12
4.5160721e-12
4.8256501e-12
4.9485359e-12
4.9563856e-12
4.9276311e-12
4.9248073e-12
4.9277278e-12
4.9277285e-12
4.9248096e-12
4.9276345e-12
4.9563891e-12
4.9485391e-12
4.8256526e-12
4.5160789e-12
3.943993e-12
2.9119369e-12
1.3386855e-12
3.9667672e-13
1.510827e-12
2.3534524e-12
2.8618555e-12
3.1315896e-12
3.2323647e-12
3.2312573e-12
3.1944642e-12
3.1752421e-12
3.1675744e-12
3.1675751e-12
3.1752442e-12
3.1944673e-12
3.2312601e-12
3.2323672e-12
3.1315917e-12
2.8618608e-12
2.3534601e-12
1.5108363e-12
3.9668792e-13
8.9731628e-14
7.3538908e-13
1.3748086e-12
1.8035408e-12
2.0376087e-12
2.1248783e-12
2.1229777e-12
2.0869715e-12
2.0613862e-12
2.0486234e-12
2.048624e-12
2.0613877e-12
2.0869738e-12
2.1229797e-12
2.1248801e-12
2.03761e-12
1.8035437e-12
1.3748129e-12
7.3539362e-13
8.9735164e-14
1.6327652e-14
3.3710775e-13
7.8674175e-13
1.1275134e-12
1.3236818e-12
1.4002363e-12
1.4014922e-12
1.3717516e-12
1.3470151e-12
1.333525e-12
1.3335254e-12
1.3470162e-12
1.3717532e-12
1.4014935e-12
1.4002375e-12
1.3236826e-12
1.1275148e-12
7.867436e-13
3.371096e-13
1.6328462e-14
2.5377211e-15
1.4639457e-13
4.4147494e-13
6.9795811e-13
8.5565179e-13
9.2117563e-13
9.2595689e-13
9.0412858e-13
8.8372241e-13
8.7192488e-13
8.7192515e-13
8.837231e-13
9.0412961e-13
9.2595769e-13
9.2117632e-13
8.5565219e-13
6.9795888e-13
4.4147581e-13
1.4639547e-13
2.5378566e-15
3.5480966e-16
6.076102e-14
2.4313751e-13
4.2733255e-13
5.4899128e-13
6.0301719e-13
6.101298e-13
5.9554641e-13
5.8032121e-13
5.7108561e-13
5.7108578e-13
5.8032161e-13
5.9554702e-13
6.1013027e-13
6.0301759e-13
5.4899146e-13
4.273329e-13
2.4313793e-13
6.0761472e-14
3.5482924e-16
4.6576197e-17
2.4368284e-14
1.3161893e-13
2.5859021e-13
3.4897829e-13
3.9184687e-13
3.9985297e-13
3.9092225e-13
3.803641e-13
3.7366121e-13
3.7366131e-13
3.8036433e-13
3.9092258e-13
3.9985324e-13
3.9184709e-13
3.4897837e-13
2.5859035e-13
1.3161914e-13
2.4368474e-14
4.6578647e-17
5.9210087e-18
9.5318595e-15
7.0095293e-14
1.5455166e-13
2.1949697e-13
2.5232312e-13
2.6010175e-13
2.5513283e-13
2.4823174e-13
2.4363691e-13
2.4363696e-13
2.4823186e-13
2.55133e-13
2.6010189e-13
2.5232322e-13
2.1949698e-13
1.545517e-13
7.0095396e-14
9.5319335e-15
5.921296e-18
7.4254821e-19
3.6600989e-15
3.675155e-14
9.1183085e-14
1.3647487e-13
1.608164e-13
1.6769078e-13
1.6526476e-13
1.6098397e-13
1.5797668e-13
1.579767e-13
1.6098403e-13
1.6526484e-13
1.6769084e-13
1.6081645e-13
1.3647487e-13
9.1183091e-14
3.67516e-14
3.6601268e-15
7.425809e-19
9.2889617e-20
1.3853011e-15
1.8979546e-14
5.3078364e-14
8.3822635e-14
1.0135932e-13
1.0703659e-13
1.0610903e-13
1.0358326e-13
1.0169057e-13
1.0169058e-13
1.0358328e-13
1.0610906e-13
1.0703661e-13
1.0135933e-13
8.3822622e-14
5.307836e-14
1.8979569e-14
1.3853112e-15
9.2893254e-20
)
;

boundaryField
{
    Wall
    {
        type            zeroGradient;
    }
    frontAndBack
    {
        type            empty;
    }
    atmosphere
    {
        type            zeroGradient;
    }
}


// ************************************************************************* //
