/*--------------------------------*- C++ -*----------------------------------*\
| =========                 |                                                 |
| \\      /  F ield         | OpenFOAM: The Open Source CFD Toolbox           |
|  \\    /   O peration     | Version:  3.0.1                                 |
|   \\  /    A nd           | Web:      www.OpenFOAM.org                      |
|    \\/     M anipulation  |                                                 |
\*---------------------------------------------------------------------------*/
FoamFile
{
    version     2.0;
    format      ascii;
    class       volScalarField;
    location    "31";
    object      muMixture;
}
// * * * * * * * * * * * * * * * * * * * * * * * * * * * * * * * * * * * * * //

dimensions      [1 -1 -1 0 0 0 0];

internalField   nonuniform List<scalar> 
800
(
0.001
0.001
0.001
0.001
0.001
0.001
0.001
0.001
0.001
0.001
0.001
0.001
0.001
0.001
0.001
0.001
0.001
0.001
0.001
0.001
0.001
0.001
0.001
0.001
0.001
0.001
0.001
0.001
0.001
0.001
0.001
0.001
0.001
0.001
0.001
0.001
0.001
0.001
0.001
0.001
0.00099999998
0.00099999998
0.00099999998
0.00099999998
0.00099999998
0.00099999998
0.00099999998
0.00099999998
0.00099999998
0.00099999998
0.00099999998
0.00099999998
0.00099999998
0.00099999998
0.00099999998
0.00099999998
0.00099999998
0.00099999998
0.00099999998
0.00099999998
0.00099999992
0.00099999993
0.00099999993
0.00099999993
0.00099999993
0.00099999993
0.00099999993
0.00099999993
0.00099999993
0.00099999993
0.00099999993
0.00099999993
0.00099999993
0.00099999993
0.00099999993
0.00099999993
0.00099999993
0.00099999993
0.00099999993
0.00099999992
0.00099999978
0.00099999981
0.00099999982
0.00099999982
0.00099999982
0.00099999982
0.00099999982
0.00099999982
0.00099999982
0.00099999982
0.00099999982
0.00099999982
0.00099999982
0.00099999982
0.00099999982
0.00099999982
0.00099999982
0.00099999982
0.00099999981
0.00099999978
0.00099999955
0.0009999996
0.00099999962
0.00099999963
0.00099999963
0.00099999963
0.00099999963
0.00099999963
0.00099999963
0.00099999963
0.00099999963
0.00099999963
0.00099999963
0.00099999963
0.00099999963
0.00099999963
0.00099999963
0.00099999962
0.0009999996
0.00099999955
0.0009999992
0.00099999929
0.00099999932
0.00099999933
0.00099999934
0.00099999934
0.00099999933
0.00099999933
0.00099999933
0.00099999933
0.00099999933
0.00099999933
0.00099999933
0.00099999933
0.00099999934
0.00099999934
0.00099999933
0.00099999932
0.00099999929
0.0009999992
0.00099999869
0.00099999883
0.0009999989
0.00099999892
0.00099999892
0.00099999892
0.00099999892
0.00099999892
0.00099999892
0.00099999892
0.00099999892
0.00099999892
0.00099999892
0.00099999892
0.00099999892
0.00099999892
0.00099999892
0.0009999989
0.00099999883
0.00099999869
0.00099999802
0.00099999823
0.00099999834
0.00099999837
0.00099999837
0.00099999837
0.00099999837
0.00099999837
0.00099999837
0.00099999836
0.00099999836
0.00099999837
0.00099999837
0.00099999837
0.00099999837
0.00099999837
0.00099999837
0.00099999834
0.00099999823
0.00099999802
0.00099999715
0.00099999745
0.00099999763
0.00099999767
0.00099999767
0.00099999767
0.00099999767
0.00099999766
0.00099999766
0.00099999766
0.00099999766
0.00099999766
0.00099999766
0.00099999767
0.00099999767
0.00099999767
0.00099999767
0.00099999763
0.00099999745
0.00099999715
0.0009999961
0.00099999647
0.00099999673
0.00099999681
0.00099999682
0.00099999681
0.00099999681
0.0009999968
0.0009999968
0.0009999968
0.0009999968
0.0009999968
0.0009999968
0.00099999681
0.00099999681
0.00099999682
0.00099999681
0.00099999673
0.00099999647
0.0009999961
0.00099999483
0.00099999519
0.00099999567
0.00099999579
0.0009999958
0.0009999958
0.00099999579
0.00099999578
0.00099999578
0.00099999578
0.00099999578
0.00099999578
0.00099999578
0.00099999579
0.0009999958
0.0009999958
0.00099999579
0.00099999567
0.00099999519
0.00099999483
0.00099999337
0.00099999403
0.00099999457
0.00099999467
0.00099999467
0.00099999461
0.00099999461
0.0009999946
0.0009999946
0.00099999459
0.00099999459
0.0009999946
0.0009999946
0.00099999461
0.00099999461
0.00099999467
0.00099999467
0.00099999457
0.00099999403
0.00099999337
0.00099999173
0.0009999929
0.00099999325
0.0009999932
0.00099999265
0.00099999297
0.00099999328
0.00099999327
0.00099999326
0.00099999326
0.00099999326
0.00099999326
0.00099999327
0.00099999328
0.00099999297
0.00099999265
0.0009999932
0.00099999325
0.0009999929
0.00099999173
0.00099998693
0.00099998688
0.0009999908
0.00099998791
0.0009999879
0.00099999172
0.00099999181
0.0009999918
0.00099999179
0.00099999179
0.00099999179
0.00099999179
0.0009999918
0.00099999181
0.00099999172
0.0009999879
0.00099998791
0.0009999908
0.00099998688
0.00099998693
0.00099998583
0.00099996727
0.00099997413
0.00099997871
0.00099998822
0.00099999055
0.00099999023
0.00099999022
0.00099999021
0.0009999902
0.0009999902
0.00099999021
0.00099999022
0.00099999023
0.00099999055
0.00099998822
0.00099997871
0.00099997413
0.00099996727
0.00099998583
0.00099997082
0.00099996726
0.00099996726
0.00099998234
0.00099998879
0.00099998837
0.00099998856
0.00099998854
0.00099998853
0.00099998853
0.00099998853
0.00099998853
0.00099998854
0.00099998856
0.00099998837
0.00099998879
0.00099998234
0.00099996726
0.00099996726
0.00099997082
0.00099996726
0.00099996726
0.00099997254
0.00099998543
0.00099998879
0.00099998675
0.00099998681
0.0009999868
0.00099998678
0.00099998678
0.00099998678
0.00099998678
0.0009999868
0.00099998681
0.00099998675
0.00099998879
0.00099998543
0.00099997254
0.00099996726
0.00099996726
0.00099996726
0.00099996726
0.00099998497
0.00099998656
0.0009999879
0.00099998539
0.00099998502
0.000999985
0.00099998499
0.00099998498
0.00099998498
0.00099998499
0.000999985
0.00099998502
0.00099998539
0.0009999879
0.00099998656
0.00099998497
0.00099996726
0.00099996726
0.00099997336
0.00099998102
0.00099998366
0.00099998572
0.00099998293
0.00099998334
0.0009999832
0.00099998317
0.00099998316
0.00099998315
0.00099998315
0.00099998316
0.00099998317
0.0009999832
0.00099998334
0.00099998293
0.00099998572
0.00099998366
0.00099998102
0.00099997336
0.00099998248
0.00099998248
0.00099998043
0.00099998524
0.00099998083
0.00099998141
0.00099998136
0.00099998133
0.00099998132
0.00099998131
0.00099998131
0.00099998132
0.00099998133
0.00099998136
0.00099998141
0.00099998083
0.00099998524
0.00099998043
0.00099998248
0.00099998248
0.00099998248
0.00099998248
0.00099998125
0.00099998294
0.00099998035
0.00099997955
0.00099997952
0.00099997949
0.00099997947
0.00099997946
0.00099997946
0.00099997947
0.00099997949
0.00099997952
0.00099997955
0.00099998035
0.00099998295
0.00099998125
0.00099998248
0.00099998248
0.00099998241
0.00099998248
0.00099998241
0.00099998109
0.00099997852
0.0009999775
0.00099997744
0.00099997741
0.00099997739
0.00099997739
0.00099997739
0.00099997739
0.00099997741
0.00099997744
0.0009999775
0.00099997852
0.00099998109
0.00099998241
0.00099998248
0.00099998241
0.00099997057
0.00099998241
0.00099998224
0.00099997697
0.0009999739
0.00099997336
0.00099997338
0.00099997338
0.00099997341
0.00099997343
0.00099997343
0.00099997341
0.00099997338
0.00099997338
0.00099997336
0.0009999739
0.00099997697
0.00099998224
0.00099998241
0.00099997057
0.00099980954
0.00099992913
0.0009999565
0.00099995105
0.0009999509
0.00099995184
0.00099995253
0.00099995292
0.00099995334
0.00099995354
0.00099995354
0.00099995334
0.00099995292
0.00099995254
0.00099995184
0.0009999509
0.00099995105
0.0009999565
0.00099992914
0.00099980955
0.00099698005
0.00099910112
0.00099955886
0.00099964771
0.00099969034
0.00099971117
0.00099972118
0.00099972658
0.00099973184
0.00099973445
0.00099973445
0.00099973184
0.00099972658
0.00099972119
0.00099971117
0.00099969035
0.00099964772
0.00099955887
0.00099910117
0.00099698026
0.0008782697
0.00097174536
0.00098822251
0.00099172476
0.00099323339
0.00099390983
0.00099423548
0.00099441283
0.00099457626
0.00099465695
0.00099465696
0.00099457629
0.00099441288
0.00099423555
0.00099390993
0.00099323351
0.00099172496
0.00098822289
0.00097174685
0.00087827806
1e-05
0.00051875601
0.00065831215
0.00071238803
0.00074367791
0.00075971822
0.00076786628
0.0007724837
0.00077677821
0.00077892491
0.00077892518
0.00077677903
0.00077248506
0.00076786819
0.00075972065
0.00074368085
0.00071239173
0.00065831748
0.00051876526
1e-05
1e-05
1e-05
1e-05
1e-05
1e-05
1e-05
1e-05
1e-05
1e-05
1e-05
1e-05
1e-05
1e-05
1e-05
1e-05
1e-05
1e-05
1e-05
1e-05
1e-05
1e-05
1e-05
1e-05
1e-05
1e-05
1e-05
1e-05
1e-05
1e-05
1e-05
1e-05
1e-05
1e-05
1e-05
1e-05
1e-05
1e-05
1e-05
1e-05
1e-05
1e-05
1e-05
1e-05
1e-05
1e-05
1e-05
1e-05
1e-05
1e-05
1e-05
1e-05
1e-05
1e-05
1e-05
1e-05
1e-05
1e-05
1e-05
1e-05
1e-05
1e-05
1e-05
1e-05
1e-05
1e-05
1e-05
1e-05
1e-05
1e-05
1e-05
1e-05
1e-05
1e-05
1e-05
1e-05
1e-05
1e-05
1e-05
1e-05
1e-05
1e-05
1e-05
1e-05
1e-05
1e-05
1e-05
1e-05
1e-05
1e-05
1e-05
1e-05
1e-05
1e-05
1e-05
1e-05
1e-05
1e-05
1e-05
1e-05
1e-05
1e-05
1e-05
1e-05
1e-05
1e-05
1e-05
1e-05
1e-05
1e-05
1e-05
1e-05
1e-05
1e-05
1e-05
1e-05
1e-05
1e-05
1e-05
1e-05
1e-05
1e-05
1e-05
1e-05
1e-05
1e-05
1e-05
1e-05
1e-05
1e-05
1e-05
1e-05
1e-05
1e-05
1e-05
1e-05
1e-05
1e-05
1e-05
1e-05
1e-05
1e-05
1e-05
1e-05
1e-05
1e-05
1e-05
1e-05
1e-05
1e-05
1e-05
1e-05
1e-05
1e-05
1e-05
1e-05
1e-05
1e-05
1e-05
1e-05
1e-05
1e-05
1e-05
1e-05
1e-05
1e-05
1e-05
1e-05
1e-05
1e-05
1e-05
1e-05
1e-05
1e-05
1e-05
1e-05
1e-05
1e-05
1e-05
1e-05
1e-05
1e-05
1e-05
1e-05
1e-05
1e-05
1e-05
1e-05
1e-05
1e-05
1e-05
1e-05
1e-05
1e-05
1e-05
1e-05
1e-05
1e-05
1e-05
1e-05
1e-05
1e-05
1e-05
1e-05
1e-05
1e-05
1e-05
1e-05
1e-05
1e-05
1e-05
1e-05
1e-05
1e-05
1e-05
1e-05
1e-05
1e-05
1e-05
1e-05
1e-05
1e-05
1e-05
1e-05
1e-05
1e-05
1e-05
1e-05
1e-05
1e-05
1e-05
1e-05
1e-05
1e-05
1e-05
1e-05
1e-05
1e-05
1e-05
1e-05
1e-05
)
;

boundaryField
{
    Wall
    {
        type            zeroGradient;
    }
    frontAndBack
    {
        type            empty;
    }
    atmosphere
    {
        type            zeroGradient;
    }
}


// ************************************************************************* //
