/*--------------------------------*- C++ -*----------------------------------*\
| =========                 |                                                 |
| \\      /  F ield         | OpenFOAM: The Open Source CFD Toolbox           |
|  \\    /   O peration     | Version:  3.0.1                                 |
|   \\  /    A nd           | Web:      www.OpenFOAM.org                      |
|    \\/     M anipulation  |                                                 |
\*---------------------------------------------------------------------------*/
FoamFile
{
    version     2.0;
    format      ascii;
    class       volScalarField;
    location    "31";
    object      mZero;
}
// * * * * * * * * * * * * * * * * * * * * * * * * * * * * * * * * * * * * * //

dimensions      [0 0 0 0 0 0 0];

internalField   nonuniform List<scalar> 
800
(
1e+13
1e+13
1e+13
1e+13
1e+13
1e+13
1e+13
1e+13
1e+13
1e+13
1e+13
1e+13
1e+13
1e+13
1e+13
1e+13
1e+13
1e+13
1e+13
1e+13
1e+13
1e+13
1e+13
1e+13
1e+13
1e+13
1e+13
1e+13
1e+13
1e+13
1e+13
1e+13
1e+13
1e+13
1e+13
1e+13
1e+13
1e+13
1e+13
1e+13
9.9365229e+12
9.9383898e+12
9.9392159e+12
9.9394998e+12
9.9395785e+12
9.9395855e+12
9.9395715e+12
9.9395559e+12
9.9395446e+12
9.939539e+12
9.939539e+12
9.9395446e+12
9.9395558e+12
9.9395714e+12
9.9395854e+12
9.9395784e+12
9.9394996e+12
9.9392157e+12
9.9383895e+12
9.9365225e+12
9.8202007e+12
9.8255118e+12
9.8276235e+12
9.8283423e+12
9.82855e+12
9.8285714e+12
9.8285375e+12
9.8284979e+12
9.8284686e+12
9.8284538e+12
9.8284538e+12
9.8284685e+12
9.8284977e+12
9.8285372e+12
9.8285711e+12
9.8285497e+12
9.8283419e+12
9.827623e+12
9.8255112e+12
9.8201998e+12
9.6602779e+12
9.6703249e+12
9.6740083e+12
9.6752409e+12
9.6755966e+12
9.6756299e+12
9.6755692e+12
9.6754989e+12
9.6754465e+12
9.67542e+12
9.67542e+12
9.6754464e+12
9.6754986e+12
9.6755688e+12
9.6756294e+12
9.675596e+12
9.6752402e+12
9.6740074e+12
9.6703239e+12
9.6602765e+12
9.4649124e+12
9.4806267e+12
9.4860827e+12
9.4878758e+12
9.488381e+12
9.4884181e+12
9.4883226e+12
9.4882154e+12
9.488136e+12
9.4880958e+12
9.4880958e+12
9.4881358e+12
9.488215e+12
9.488322e+12
9.4884173e+12
9.4883802e+12
9.4878748e+12
9.4860815e+12
9.4806253e+12
9.4649106e+12
9.2411788e+12
9.2632907e+12
9.2706449e+12
9.273019e+12
9.2736612e+12
9.2736893e+12
9.2735504e+12
9.2734007e+12
9.273291e+12
9.2732356e+12
9.2732355e+12
9.2732907e+12
9.2734002e+12
9.2735497e+12
9.2736884e+12
9.2736601e+12
9.2730177e+12
9.2706435e+12
9.263289e+12
9.2411766e+12
8.9952146e+12
9.0243317e+12
9.0336696e+12
9.036626e+12
9.0373801e+12
9.0373832e+12
9.0371923e+12
9.0369952e+12
9.0368527e+12
9.0367811e+12
9.036781e+12
9.0368524e+12
9.0369946e+12
9.0371914e+12
9.0373821e+12
9.0373788e+12
9.0366245e+12
9.0336679e+12
9.0243298e+12
8.9952122e+12
8.7323139e+12
8.7689517e+12
8.7803529e+12
8.783887e+12
8.7847247e+12
8.7846843e+12
8.7844341e+12
8.7841865e+12
8.7840096e+12
8.7839209e+12
8.7839208e+12
8.7840092e+12
8.7841858e+12
8.7844331e+12
8.7846831e+12
8.7847233e+12
8.7838854e+12
8.7803511e+12
8.7689497e+12
8.7323115e+12
8.4569749e+12
8.501587e+12
8.5151498e+12
8.5192626e+12
8.520161e+12
8.5200626e+12
8.5197491e+12
8.5194502e+12
8.5192379e+12
8.5191317e+12
8.5191316e+12
8.5192374e+12
8.5194494e+12
8.5197481e+12
8.5200613e+12
8.5201595e+12
8.5192609e+12
8.5151479e+12
8.501585e+12
8.4569726e+12
8.1729299e+12
8.2259401e+12
8.2418041e+12
8.2465143e+12
8.2474621e+12
8.2473013e+12
8.246925e+12
8.2465762e+12
8.2463278e+12
8.2462038e+12
8.2462037e+12
8.2463273e+12
8.2465754e+12
8.2469239e+12
8.2473e+12
8.2474605e+12
8.2465126e+12
8.2418022e+12
8.2259381e+12
8.1729277e+12
7.8831865e+12
7.9450118e+12
7.9633839e+12
7.9687406e+12
7.9697441e+12
7.9695273e+12
7.9690916e+12
7.9686962e+12
7.9684091e+12
7.9682668e+12
7.9682666e+12
7.9684085e+12
7.9686953e+12
7.9690904e+12
7.969526e+12
7.9697425e+12
7.9687389e+12
7.9633821e+12
7.9450099e+12
7.8831845e+12
7.5900831e+12
7.6611507e+12
7.6823311e+12
7.6884229e+12
7.68951e+12
7.6892506e+12
7.6887597e+12
7.6883223e+12
7.6879939e+12
7.6878324e+12
7.6878322e+12
7.6879934e+12
7.6883214e+12
7.6887586e+12
7.6892492e+12
7.6895085e+12
7.6884213e+12
7.6823293e+12
7.6611489e+12
7.5900812e+12
7.2953201e+12
7.3760939e+12
7.4004977e+12
7.4074695e+12
7.4086928e+12
7.4084073e+12
7.4078644e+12
7.4073894e+12
7.4070203e+12
7.4068355e+12
7.4068354e+12
7.4070198e+12
7.4073886e+12
7.4078633e+12
7.4084061e+12
7.4086913e+12
7.4074679e+12
7.4004961e+12
7.3760923e+12
7.2953184e+12
7.000131e+12
7.0911728e+12
7.119358e+12
7.1274364e+12
7.1288886e+12
7.1286045e+12
7.128e+12
7.1274861e+12
7.1270807e+12
7.1268678e+12
7.1268676e+12
7.1270802e+12
7.1274853e+12
7.127999e+12
7.1286033e+12
7.1288872e+12
7.1274349e+12
7.1193564e+12
7.0911713e+12
7.0001294e+12
6.705762e+12
6.8076743e+12
6.8403636e+12
6.8498818e+12
6.8516949e+12
6.8514267e+12
6.8507514e+12
6.8501891e+12
6.8497552e+12
6.8495123e+12
6.8495122e+12
6.8497547e+12
6.8501883e+12
6.8507504e+12
6.8514256e+12
6.8516936e+12
6.8498804e+12
6.8403622e+12
6.8076729e+12
6.7057606e+12
6.4128282e+12
6.5262467e+12
6.5643398e+12
6.5757669e+12
6.5780993e+12
6.5778662e+12
6.5770959e+12
6.5764646e+12
6.5760079e+12
6.575737e+12
6.5757368e+12
6.5760075e+12
6.5764639e+12
6.5770949e+12
6.5778652e+12
6.5780981e+12
6.5757657e+12
6.5643385e+12
6.5262454e+12
6.4128269e+12
6.1209921e+12
6.2467856e+12
6.2914394e+12
6.3054282e+12
6.3085287e+12
6.3083675e+12
6.307471e+12
6.3067368e+12
6.3062538e+12
6.3059553e+12
6.3059551e+12
6.3062534e+12
6.3067361e+12
6.3074702e+12
6.3083665e+12
6.3085276e+12
6.3054271e+12
6.2914382e+12
6.2467844e+12
6.1209911e+12
5.8292249e+12
5.9684951e+12
6.0211878e+12
6.0386231e+12
6.0428657e+12
6.0428492e+12
6.0417957e+12
6.0409091e+12
6.0403828e+12
6.0400514e+12
6.0400512e+12
6.0403824e+12
6.0409084e+12
6.0417949e+12
6.0428483e+12
6.0428648e+12
6.0386221e+12
6.0211867e+12
5.9684941e+12
5.8292241e+12
5.5357516e+12
5.689904e+12
5.7525124e+12
5.7745768e+12
5.7805133e+12
5.7807772e+12
5.7795408e+12
5.7784356e+12
5.7778308e+12
5.7774512e+12
5.7774511e+12
5.7778304e+12
5.778435e+12
5.77954e+12
5.7807764e+12
5.7805125e+12
5.7745761e+12
5.7525114e+12
5.6899033e+12
5.5357511e+12
5.2379347e+12
5.4087703e+12
5.4836902e+12
5.5119719e+12
5.5204054e+12
5.5211794e+12
5.5197459e+12
5.518338e+12
5.5175994e+12
5.5171428e+12
5.5171427e+12
5.517599e+12
5.5183374e+12
5.5197452e+12
5.5211787e+12
5.5204047e+12
5.5119713e+12
5.4836895e+12
5.4087699e+12
5.2379346e+12
4.9320622e+12
5.1219245e+12
5.2122182e+12
5.248866e+12
5.260958e+12
5.2626242e+12
5.2610002e+12
5.2591853e+12
5.2582286e+12
5.2576467e+12
5.2576465e+12
5.2582282e+12
5.2591847e+12
5.2609996e+12
5.2626236e+12
5.2609574e+12
5.2488655e+12
5.2122177e+12
5.1219244e+12
4.9320627e+12
4.61295e+12
4.8249446e+12
4.934575e+12
4.9825546e+12
4.9999769e+12
5.0031487e+12
5.0014156e+12
4.9990667e+12
4.9977604e+12
4.9969764e+12
4.9969762e+12
4.99776e+12
4.9990661e+12
5.0014151e+12
5.0031482e+12
4.9999764e+12
4.9825542e+12
4.9345748e+12
4.8249449e+12
4.6129512e+12
4.2734573e+12
4.5116927e+12
4.6458963e+12
4.7093585e+12
4.7344905e+12
4.7402129e+12
4.7385774e+12
4.7355386e+12
4.7336848e+12
4.7325798e+12
4.7325796e+12
4.7336845e+12
4.735538e+12
4.7385769e+12
4.7402125e+12
4.7344902e+12
4.7093584e+12
4.6458963e+12
4.5116936e+12
4.2734595e+12
3.9039998e+12
4.1737323e+12
4.3395577e+12
4.4242813e+12
4.4606504e+12
4.4706097e+12
4.4694471e+12
4.4655281e+12
4.4628352e+12
4.4612262e+12
4.461226e+12
4.4628349e+12
4.4655276e+12
4.4694468e+12
4.4706094e+12
4.4606502e+12
4.4242813e+12
4.3395581e+12
4.173734e+12
3.9040033e+12
3.4920212e+12
3.7994787e+12
4.0063554e+12
4.1201958e+12
4.1732597e+12
4.1900168e+12
4.190029e+12
4.1850372e+12
4.1810877e+12
4.1786993e+12
4.1786991e+12
4.1810874e+12
4.1850368e+12
4.1900287e+12
4.1900166e+12
4.1732597e+12
4.1201961e+12
4.0063563e+12
3.7994814e+12
3.4920263e+12
3.0215343e+12
3.3731807e+12
3.6332358e+12
3.7876285e+12
3.8651508e+12
3.8932703e+12
3.8959157e+12
3.8897323e+12
3.8839381e+12
3.8803549e+12
3.8803547e+12
3.8839378e+12
3.8897319e+12
3.8959155e+12
3.8932703e+12
3.8651509e+12
3.787629e+12
3.6332373e+12
3.3731847e+12
3.0215416e+12
2.4552794e+12
2.8686235e+12
3.2007233e+12
3.4124461e+12
3.5267294e+12
3.5734512e+12
3.5815233e+12
3.5743225e+12
3.5659226e+12
3.5605394e+12
3.5605392e+12
3.5659224e+12
3.5743222e+12
3.5815233e+12
3.5734514e+12
3.5267298e+12
3.4124471e+12
3.2007259e+12
2.8686299e+12
2.4552901e+12
1.7760379e+12
2.256563e+12
2.6704482e+12
2.9598635e+12
3.1314084e+12
3.2096282e+12
3.2285592e+12
3.2211138e+12
3.2091103e+12
3.200951e+12
3.2009509e+12
3.2091102e+12
3.2211137e+12
3.2285595e+12
3.2096288e+12
3.1314093e+12
2.9598652e+12
2.6704521e+12
2.2565711e+12
1.7760515e+12
1.0659151e+12
1.642117e+12
2.1053293e+12
2.4598834e+12
2.695068e+12
2.8158454e+12
2.8529416e+12
2.8470218e+12
2.8301252e+12
2.8177447e+12
2.8177445e+12
2.8301252e+12
2.8470218e+12
2.8529419e+12
2.8158458e+12
2.6950685e+12
2.4598849e+12
2.1053334e+12
1.6421244e+12
1.0659286e+12
4.8941559e+11
1.1186013e+12
1.6110569e+12
2.0004883e+12
2.2767793e+12
2.4320082e+12
2.4860582e+12
2.4816332e+12
2.4593846e+12
2.4420586e+12
2.4420585e+12
2.4593846e+12
2.4816334e+12
2.4860585e+12
2.4320085e+12
2.2767798e+12
2.0004902e+12
1.6110608e+12
1.1186072e+12
4.8942483e+11
1.6656804e+11
7.2031723e+11
1.2101147e+12
1.6113193e+12
1.9053968e+12
2.078898e+12
2.1434825e+12
2.1396859e+12
2.1124785e+12
2.090495e+12
2.0904949e+12
2.1124785e+12
2.1396861e+12
2.1434828e+12
2.0788982e+12
1.9053971e+12
1.6113209e+12
1.2101174e+12
7.2032083e+11
1.6657266e+11
4.2815142e+10
4.4117112e+11
8.9684344e+11
1.2903983e+12
1.5851454e+12
1.762819e+12
1.8309897e+12
1.8270317e+12
1.7966361e+12
1.7715921e+12
1.771592e+12
1.7966359e+12
1.8270318e+12
1.8309897e+12
1.7628189e+12
1.5851453e+12
1.2903989e+12
8.9684501e+11
4.4117312e+11
4.2816791e+10
8.8032137e+09
2.5688419e+11
6.5630642e+11
1.0267765e+12
1.3097766e+12
1.4818533e+12
1.5485507e+12
1.5442299e+12
1.5129305e+12
1.4869118e+12
1.4869116e+12
1.5129302e+12
1.5442298e+12
1.5485505e+12
1.4818529e+12
1.3097761e+12
1.0267765e+12
6.5630684e+11
2.5688509e+11
8.803636e+09
1.5440322e+09
1.4212737e+11
4.729786e+11
8.0927593e+11
1.0719627e+12
1.2323151e+12
1.294558e+12
1.2902141e+12
1.2601793e+12
1.2351221e+12
1.2351219e+12
1.2601789e+12
1.2902137e+12
1.2945576e+12
1.2323146e+12
1.071962e+12
8.0927559e+11
4.7297858e+11
1.4212794e+11
1.5441112e+09
2.4407422e+08
7.4993015e+10
3.3430538e+11
6.292787e+11
8.6619668e+11
1.0113751e+12
1.0677752e+12
1.064012e+12
1.0369225e+12
1.0142628e+12
1.0142625e+12
1.036922e+12
1.0640115e+12
1.0677746e+12
1.0113745e+12
8.6619595e+11
6.2927823e+11
3.3430529e+11
7.4993394e+10
2.4408705e+08
36371109
3.8004785e+10
2.3093761e+11
4.8101146e+11
6.8903636e+11
8.1739103e+11
8.6754128e+11
8.6492664e+11
8.4182377e+11
8.2239965e+11
8.2239936e+11
8.4182321e+11
8.64926e+11
8.6754067e+11
8.173904e+11
6.8903567e+11
4.8101098e+11
2.3093754e+11
3.8004991e+10
36372913
5275054.1
1.8625406e+10
1.5553555e+11
3.6040813e+11
5.383382e+11
6.4941734e+11
6.9340074e+11
6.9226856e+11
6.7356445e+11
6.5767428e+11
6.5767398e+11
6.7356385e+11
6.9226786e+11
6.9340011e+11
6.4941673e+11
5.3833759e+11
3.6040771e+11
1.555355e+11
1.8625509e+10
5275293.6
758801.95
8.8726064e+09
1.0201553e+11
2.6419262e+11
4.1242917e+11
5.0659277e+11
5.4468648e+11
5.4507594e+11
5.3066823e+11
5.1820232e+11
5.1820203e+11
5.3066764e+11
5.4507523e+11
5.4468586e+11
5.0659221e+11
4.1242866e+11
2.6419229e+11
1.020155e+11
8.8726555e+09
758832.66
109623.35
4.1227891e+09
6.5148884e+10
1.8923848e+11
3.09492e+11
3.8768019e+11
4.2023403e+11
4.2194123e+11
4.1137522e+11
4.0196117e+11
4.0196089e+11
4.1137466e+11
4.2194056e+11
4.2023344e+11
3.8767969e+11
3.0949159e+11
1.8923825e+11
6.5148872e+10
4.1228115e+09
109626.98
)
;

boundaryField
{
    Wall
    {
        type            zeroGradient;
    }
    frontAndBack
    {
        type            empty;
    }
    atmosphere
    {
        type            zeroGradient;
    }
}


// ************************************************************************* //
