/*--------------------------------*- C++ -*----------------------------------*\
| =========                 |                                                 |
| \\      /  F ield         | OpenFOAM: The Open Source CFD Toolbox           |
|  \\    /   O peration     | Version:  3.0.1                                 |
|   \\  /    A nd           | Web:      www.OpenFOAM.org                      |
|    \\/     M anipulation  |                                                 |
\*---------------------------------------------------------------------------*/
FoamFile
{
    version     2.0;
    format      ascii;
    class       volScalarField;
    location    "31";
    object      node0;
}
// * * * * * * * * * * * * * * * * * * * * * * * * * * * * * * * * * * * * * //

dimensions      [0 0 0 0 0 0 0];

internalField   nonuniform List<scalar> 
800
(
0
0
0
0
0
0
0
0
0
0
0
0
0
0
0
0
0
0
0
0
0
0
0
0
0
0
0
0
0
0
0
0
0
0
0
0
0
0
0
0
0
0
0
0
0
0
0
0
0
0
0
0
0
0
0
0
0
0
0
0
0
0
0
0
0
0
0
0
0
0
0
0
0
0
0
0
0
0
0
0
0
0
0
0
0
0
0
0
0
0
0
0
0
0
0
0
0
0
0
0
0
0
0
0
0
0
0
0
0
0
0
0
0
0
0
0
0
0
0
0
0
0
0
0
0
0
0
0
0
0
0
0
0
0
0
0
0
0
0
0
0
0
0
0
0
0
0
0
0
0
0
0
0
0
0
0
0
0
0
0
0
0
0
0
0
0
0
0
0
0
0
0
0
0
0
0
0
0
0
0
0
0
0
0
0
0
0
0
0
0
0
0
0
0
0
0
0
0
0
0
0
0
0
0
0
0
0
0
0
0
0
0
0
0
0
0
0
0
0
0
0
0
0
0
0
0
0
0
0
0
0
0
0
0
0
0
0
0
0
0
0
0
0
0
0
2.1251417e-15
1.5870361e-15
1.2064363e-15
1.3100607e-15
1.2198313e-15
1.2197277e-15
1.3097847e-15
1.2060105e-15
1.5864027e-15
2.1243653e-15
0
0
0
0
0
1.8602708e-14
7.3866071e-14
6.9334138e-14
6.8559304e-14
8.4350066e-14
9.5263107e-14
8.8051206e-14
8.7570214e-14
8.8027724e-14
8.7899881e-14
8.7899771e-14
8.8027419e-14
8.7569736e-14
8.8050514e-14
9.5262265e-14
8.4349092e-14
6.8558182e-14
6.9332993e-14
7.3864888e-14
1.8601407e-14
2.2122843e-14
9.403244e-14
9.4616053e-14
9.3708246e-14
1.1773533e-13
1.2320809e-13
1.2085863e-13
1.1988712e-13
1.2059393e-13
1.2063611e-13
1.20636e-13
1.2059363e-13
1.1988665e-13
1.2085797e-13
1.2320729e-13
1.1773443e-13
9.3707207e-14
9.4615e-14
9.4031351e-14
2.2121645e-14
2.2702774e-13
2.6158566e-13
2.6457193e-13
2.6377563e-13
2.7672748e-13
2.8007318e-13
2.7850108e-13
2.7696746e-13
2.776699e-13
2.7815393e-13
2.7815383e-13
2.7766966e-13
2.7696706e-13
2.7850053e-13
2.8007253e-13
2.7672675e-13
2.6377481e-13
2.645711e-13
2.615848e-13
2.2702677e-13
4.3619411e-13
4.6030952e-13
4.6456861e-13
4.6483247e-13
4.7281675e-13
4.7476514e-13
4.726664e-13
4.7035801e-13
4.7083726e-13
4.7197157e-13
4.7197149e-13
4.7083706e-13
4.7035768e-13
4.7266596e-13
4.7476463e-13
4.728162e-13
4.6483185e-13
4.6456798e-13
4.6030884e-13
4.3619329e-13
6.4697969e-13
6.656227e-13
6.703934e-13
6.7247816e-13
6.7890137e-13
6.7944141e-13
6.7650293e-13
6.7328528e-13
6.7315464e-13
6.7490474e-13
6.7490467e-13
6.7315448e-13
6.7328502e-13
6.7650259e-13
6.7944103e-13
6.7890097e-13
6.7247771e-13
6.7039293e-13
6.6562218e-13
6.46979e-13
8.6324652e-13
8.7640897e-13
8.8127253e-13
8.8544778e-13
8.9140018e-13
8.9063293e-13
8.8698582e-13
8.8294688e-13
8.8182946e-13
8.839486e-13
8.8394855e-13
8.8182935e-13
8.8294669e-13
8.8698558e-13
8.9063267e-13
8.9139992e-13
8.8544749e-13
8.8127221e-13
8.7640858e-13
8.6324597e-13
1.0842813e-12
1.0920434e-12
1.0969764e-12
1.1030577e-12
1.1086454e-12
1.1070413e-12
1.1030209e-12
1.0984918e-12
1.0963414e-12
1.0985494e-12
1.0985494e-12
1.0963413e-12
1.0984916e-12
1.1030208e-12
1.1070412e-12
1.1086453e-12
1.1030576e-12
1.0969762e-12
1.0920431e-12
1.0842809e-12
1.3001641e-12
1.3045024e-12
1.3097987e-12
1.3168206e-12
1.3220036e-12
1.3201007e-12
1.3160803e-12
1.3115855e-12
1.3088947e-12
1.3110619e-12
1.3110618e-12
1.3088947e-12
1.3115854e-12
1.3160802e-12
1.3201006e-12
1.3220035e-12
1.3168206e-12
1.3097986e-12
1.3045023e-12
1.3001638e-12
1.4880203e-12
1.4934847e-12
1.4992107e-12
1.505285e-12
1.5100786e-12
1.5079736e-12
1.5042731e-12
1.5004258e-12
1.4981246e-12
1.5003095e-12
1.5003095e-12
1.4981246e-12
1.5004258e-12
1.5042731e-12
1.5079736e-12
1.5100787e-12
1.505285e-12
1.4992107e-12
1.4934847e-12
1.4880202e-12
1.6141642e-12
1.6273288e-12
1.6329519e-12
1.635322e-12
1.6391348e-12
1.6367515e-12
1.6336328e-12
1.6309343e-12
1.6300673e-12
1.6323776e-12
1.6323776e-12
1.6300674e-12
1.6309344e-12
1.6336329e-12
1.6367516e-12
1.6391349e-12
1.6353221e-12
1.632952e-12
1.6273289e-12
1.6141643e-12
1.6475838e-12
1.674726e-12
1.6793491e-12
1.6760588e-12
1.6767675e-12
1.6745314e-12
1.6724125e-12
1.6710121e-12
1.6721161e-12
1.6745802e-12
1.6745803e-12
1.6721162e-12
1.6710122e-12
1.6724127e-12
1.6745315e-12
1.6767678e-12
1.676059e-12
1.6793494e-12
1.6747263e-12
1.6475843e-12
1.5776417e-12
1.620322e-12
1.6245012e-12
1.6151481e-12
1.6108146e-12
1.6091713e-12
1.6076849e-12
1.6073295e-12
1.6100858e-12
1.6126858e-12
1.6126859e-12
1.6100859e-12
1.6073298e-12
1.6076852e-12
1.6091716e-12
1.6108149e-12
1.6151485e-12
1.6245016e-12
1.6203226e-12
1.5776425e-12
1.4150495e-12
1.4691779e-12
1.4749139e-12
1.4561979e-12
1.4485154e-12
1.4448615e-12
1.4426617e-12
1.4428966e-12
1.4465826e-12
1.449335e-12
1.4493351e-12
1.4465828e-12
1.4428969e-12
1.4426621e-12
1.4448618e-12
1.4485158e-12
1.4561983e-12
1.4749144e-12
1.4691786e-12
1.4150504e-12
1.1838741e-12
1.2387864e-12
1.2444458e-12
1.2195679e-12
1.2029488e-12
1.2009139e-12
1.1966265e-12
1.1968968e-12
1.2008838e-12
1.2037954e-12
1.2037956e-12
1.200884e-12
1.1968971e-12
1.1966268e-12
1.2009143e-12
1.2029492e-12
1.2195683e-12
1.2444463e-12
1.238787e-12
1.1838748e-12
0
9.6591224e-13
9.6823158e-13
9.2695991e-13
9.1038637e-13
8.984855e-13
8.9119982e-13
8.9093567e-13
8.9476816e-13
8.9777786e-13
8.9777799e-13
8.9476841e-13
8.90936e-13
8.9120014e-13
8.9848583e-13
9.103867e-13
9.2696024e-13
9.6823195e-13
9.6591274e-13
0
0
0
0
0
0
0
0
0
0
0
0
0
0
0
0
0
0
0
0
0
0
0
0
0
0
0
0
0
0
0
0
0
0
0
0
0
0
0
0
0
0
0
0
0
0
0
0
0
0
0
0
0
0
0
0
0
0
0
0
0
0
0
0
0
0
0
0
0
0
0
0
0
0
0
0
0
0
0
0
0
0
0
0
0
0
0
0
0
0
0
0
0
0
0
0
0
0
0
0
0
0
0
0
0
0
0
0
0
0
0
0
0
0
0
0
0
0
0
0
0
0
0
0
0
0
0
0
0
0
0
0
0
0
0
0
0
0
0
0
0
0
0
0
0
0
0
0
0
0
0
0
0
0
0
0
0
0
0
0
0
0
0
0
0
0
0
0
0
0
0
0
0
0
0
0
0
0
0
0
0
0
0
0
0
0
0
0
0
0
0
0
0
0
0
0
0
0
0
0
0
0
0
0
0
0
0
0
0
0
0
0
0
0
0
0
0
0
0
0
0
0
0
0
0
0
0
0
0
0
0
0
0
0
0
0
0
0
0
0
0
)
;

boundaryField
{
    Wall
    {
        type            zeroGradient;
    }
    frontAndBack
    {
        type            empty;
    }
    atmosphere
    {
        type            zeroGradient;
    }
}


// ************************************************************************* //
