/*--------------------------------*- C++ -*----------------------------------*\
| =========                 |                                                 |
| \\      /  F ield         | OpenFOAM: The Open Source CFD Toolbox           |
|  \\    /   O peration     | Version:  3.0.1                                 |
|   \\  /    A nd           | Web:      www.OpenFOAM.org                      |
|    \\/     M anipulation  |                                                 |
\*---------------------------------------------------------------------------*/
FoamFile
{
    version     2.0;
    format      ascii;
    class       volScalarField;
    location    "31";
    object      node1;
}
// * * * * * * * * * * * * * * * * * * * * * * * * * * * * * * * * * * * * * //

dimensions      [0 0 0 0 0 0 0];

internalField   nonuniform List<scalar> 
800
(
1.6946758e-12
1.6948323e-12
1.6948597e-12
1.6948621e-12
1.6948616e-12
1.6948612e-12
1.6948612e-12
1.6948614e-12
1.6948615e-12
1.6948616e-12
1.6948616e-12
1.6948615e-12
1.6948613e-12
1.6948612e-12
1.6948613e-12
1.6948617e-12
1.6948622e-12
1.6948597e-12
1.6948323e-12
1.6946758e-12
1.6771165e-12
1.6785236e-12
1.6788627e-12
1.6789365e-12
1.6789392e-12
1.6789277e-12
1.6789172e-12
1.6789104e-12
1.6789066e-12
1.678905e-12
1.678905e-12
1.6789066e-12
1.6789103e-12
1.6789172e-12
1.6789277e-12
1.6789392e-12
1.6789365e-12
1.6788627e-12
1.6785235e-12
1.6771163e-12
1.6676549e-12
1.6696494e-12
1.6702579e-12
1.6703888e-12
1.6703997e-12
1.6703857e-12
1.670372e-12
1.6703633e-12
1.6703588e-12
1.6703569e-12
1.6703569e-12
1.6703588e-12
1.6703633e-12
1.670372e-12
1.6703857e-12
1.6703997e-12
1.6703887e-12
1.6702578e-12
1.6696493e-12
1.6676547e-12
1.6669437e-12
1.6690982e-12
1.6698692e-12
1.670023e-12
1.6700329e-12
1.6700166e-12
1.6700025e-12
1.6699947e-12
1.6699912e-12
1.66999e-12
1.66999e-12
1.6699912e-12
1.6699947e-12
1.6700025e-12
1.6700166e-12
1.6700329e-12
1.670023e-12
1.6698692e-12
1.6690981e-12
1.6669436e-12
1.675599e-12
1.6774732e-12
1.6782937e-12
1.6784436e-12
1.6784401e-12
1.6784189e-12
1.678405e-12
1.6783994e-12
1.6783981e-12
1.6783981e-12
1.6783981e-12
1.6783981e-12
1.6783993e-12
1.678405e-12
1.6784189e-12
1.6784401e-12
1.6784436e-12
1.6782937e-12
1.6774732e-12
1.6755989e-12
1.6940529e-12
1.6952071e-12
1.6959609e-12
1.6960834e-12
1.696053e-12
1.6960231e-12
1.696009e-12
1.6960061e-12
1.6960076e-12
1.6960093e-12
1.6960093e-12
1.6960076e-12
1.6960061e-12
1.696009e-12
1.6960232e-12
1.6960531e-12
1.6960834e-12
1.6959609e-12
1.6952071e-12
1.6940529e-12
1.7224526e-12
1.7224878e-12
1.7230502e-12
1.7231218e-12
1.7230523e-12
1.7230097e-12
1.7229944e-12
1.7229945e-12
1.7229991e-12
1.7230027e-12
1.7230027e-12
1.7229991e-12
1.7229945e-12
1.7229945e-12
1.7230097e-12
1.7230524e-12
1.7231219e-12
1.7230503e-12
1.7224879e-12
1.7224526e-12
1.7615908e-12
1.7599075e-12
1.7600826e-12
1.7600757e-12
1.7599515e-12
1.7598905e-12
1.7598726e-12
1.7598752e-12
1.7598831e-12
1.7598886e-12
1.7598886e-12
1.7598831e-12
1.7598753e-12
1.7598727e-12
1.7598906e-12
1.7599517e-12
1.7600759e-12
1.7600828e-12
1.7599077e-12
1.761591e-12
1.8124502e-12
1.8086795e-12
1.8082628e-12
1.8081516e-12
1.8079708e-12
1.8078877e-12
1.8078651e-12
1.8078692e-12
1.8078799e-12
1.8078872e-12
1.8078873e-12
1.80788e-12
1.8078693e-12
1.8078653e-12
1.8078879e-12
1.807971e-12
1.8081518e-12
1.808263e-12
1.8086797e-12
1.8124504e-12
1.8749967e-12
1.8688592e-12
1.8675945e-12
1.8673506e-12
1.8671347e-12
1.8670355e-12
1.867004e-12
1.8670069e-12
1.8670195e-12
1.867028e-12
1.8670281e-12
1.8670196e-12
1.8670071e-12
1.8670041e-12
1.8670358e-12
1.867135e-12
1.8673509e-12
1.8675948e-12
1.8688596e-12
1.874997e-12
1.9487099e-12
1.940191e-12
1.9378217e-12
1.9374123e-12
1.9372221e-12
1.9371382e-12
1.9370902e-12
1.9370875e-12
1.9371001e-12
1.9371089e-12
1.937109e-12
1.9371002e-12
1.9370877e-12
1.9370905e-12
1.9371385e-12
1.9372224e-12
1.9374126e-12
1.9378221e-12
1.9401914e-12
1.9487103e-12
2.0323918e-12
2.0217094e-12
2.0180587e-12
2.0174422e-12
2.0173727e-12
2.0173604e-12
2.0172846e-12
2.0172689e-12
2.0172796e-12
2.0172872e-12
2.0172872e-12
2.0172797e-12
2.0172691e-12
2.0172848e-12
2.0173607e-12
2.0173731e-12
2.0174426e-12
2.0180592e-12
2.0217098e-12
2.0323922e-12
2.124619e-12
2.1121066e-12
2.1071704e-12
2.1062794e-12
2.1064384e-12
2.1065573e-12
2.1064381e-12
2.106398e-12
2.1064171e-12
2.1064205e-12
2.1064205e-12
2.1064172e-12
2.1063982e-12
2.1064384e-12
2.1065576e-12
2.1064388e-12
2.1062798e-12
2.1071708e-12
2.112107e-12
2.1246195e-12
2.2240439e-12
2.210093e-12
2.2040731e-12
2.2028262e-12
2.2033139e-12
2.2036041e-12
2.2034207e-12
2.2033389e-12
2.2033854e-12
2.2033802e-12
2.2033803e-12
2.2033855e-12
2.2033391e-12
2.2034209e-12
2.2036045e-12
2.2033143e-12
2.2028267e-12
2.2040736e-12
2.2100935e-12
2.2240444e-12
2.3289897e-12
2.3141137e-12
2.3073661e-12
2.3057042e-12
2.3066002e-12
2.3070677e-12
2.3067903e-12
2.3066545e-12
2.3067395e-12
2.3067453e-12
2.3067453e-12
2.3067396e-12
2.3066547e-12
2.3067906e-12
2.3070681e-12
2.3066006e-12
2.3057046e-12
2.3073666e-12
2.3141142e-12
2.3289902e-12
2.4358982e-12
2.4209491e-12
2.4138784e-12
2.4118143e-12
2.4131931e-12
2.4138134e-12
2.4133736e-12
2.4131826e-12
2.4133129e-12
2.4134012e-12
2.4134013e-12
2.413313e-12
2.4131828e-12
2.4133739e-12
2.4138138e-12
2.4131934e-12
2.4118147e-12
2.4138789e-12
2.4209496e-12
2.4358986e-12
2.5421636e-12
2.5281893e-12
2.5211938e-12
2.5188591e-12
2.5207592e-12
2.5214248e-12
2.5206985e-12
2.5204423e-12
2.5206188e-12
2.520914e-12
2.5209141e-12
2.5206189e-12
2.5204425e-12
2.5206987e-12
2.5214251e-12
2.5207595e-12
2.5188595e-12
2.5211942e-12
2.5281897e-12
2.542164e-12
2.6451735e-12
2.6333693e-12
2.6267827e-12
2.6243934e-12
2.626929e-12
2.627447e-12
2.6262966e-12
2.6259539e-12
2.6261224e-12
2.6267626e-12
2.6267627e-12
2.6261224e-12
2.6259541e-12
2.6262968e-12
2.6274473e-12
2.6269293e-12
2.6243937e-12
2.626783e-12
2.6333696e-12
2.6451737e-12
2.7426453e-12
2.7342473e-12
2.7283599e-12
2.7261293e-12
2.7294322e-12
2.7295993e-12
2.7279509e-12
2.727498e-12
2.7275472e-12
2.728636e-12
2.728636e-12
2.7275473e-12
2.7274981e-12
2.727951e-12
2.7295995e-12
2.7294324e-12
2.7261295e-12
2.7283601e-12
2.7342476e-12
2.7426454e-12
2.8323135e-12
2.828697e-12
2.823833e-12
2.8219366e-12
2.8260264e-12
2.825771e-12
2.8236575e-12
2.8230787e-12
2.8229276e-12
2.824505e-12
2.824505e-12
2.8229276e-12
2.8230788e-12
2.8236576e-12
2.8257711e-12
2.8260265e-12
2.8219368e-12
2.8238331e-12
2.8286971e-12
2.8323135e-12
2.911647e-12
2.914408e-12
2.9110854e-12
2.9096078e-12
2.9144381e-12
2.9138635e-12
2.9114083e-12
2.9107022e-12
2.9104374e-12
2.912479e-12
2.912479e-12
2.9104374e-12
2.9107023e-12
2.9114084e-12
2.9138635e-12
2.9144382e-12
2.9096079e-12
2.9110855e-12
2.914408e-12
2.9116469e-12
2.9776161e-12
2.9883878e-12
2.9873896e-12
2.9864722e-12
2.9921559e-12
2.9912941e-12
2.9886376e-12
2.9878214e-12
2.987707e-12
2.9901439e-12
2.9901439e-12
2.987707e-12
2.9878214e-12
2.9886377e-12
2.9912941e-12
2.9921559e-12
2.9864722e-12
2.9873897e-12
2.9883878e-12
2.977616e-12
3.0256007e-12
3.0461666e-12
3.048531e-12
3.0482224e-12
3.0550938e-12
3.0539943e-12
3.0510408e-12
3.0501584e-12
3.0505154e-12
3.0532633e-12
3.0532633e-12
3.0505154e-12
3.0501584e-12
3.0510408e-12
3.0539943e-12
3.0550938e-12
3.0482224e-12
3.0485311e-12
3.0461666e-12
3.0256007e-12
3.0471073e-12
3.0802363e-12
3.087134e-12
3.0874142e-12
3.0955741e-12
3.0943723e-12
3.0912088e-12
3.0903311e-12
3.0914115e-12
3.0943985e-12
3.0943985e-12
3.0914115e-12
3.0903312e-12
3.0912088e-12
3.0943723e-12
3.0955741e-12
3.0874142e-12
3.087134e-12
3.0802364e-12
3.0471075e-12
3.0301741e-12
3.0793597e-12
3.0920014e-12
3.0937106e-12
3.1025391e-12
3.1020912e-12
3.0990334e-12
3.0982248e-12
3.1001245e-12
3.1033063e-12
3.1033063e-12
3.1001245e-12
3.0982248e-12
3.0990334e-12
3.1020912e-12
3.1025391e-12
3.0937107e-12
3.0920015e-12
3.07936e-12
3.0301745e-12
2.9612258e-12
3.0299995e-12
3.0506999e-12
3.0538116e-12
3.063763e-12
3.0645225e-12
3.0617457e-12
3.0610413e-12
3.0637008e-12
3.067061e-12
3.0670611e-12
3.0637009e-12
3.0610413e-12
3.0617458e-12
3.0645225e-12
3.0637631e-12
3.0538117e-12
3.0507001e-12
3.03e-12
2.9612265e-12
2.8262011e-12
2.9160731e-12
2.9474576e-12
2.9526454e-12
2.9631354e-12
2.9670942e-12
2.9644515e-12
2.9638247e-12
2.96706e-12
2.9705732e-12
2.9705732e-12
2.96706e-12
2.9638248e-12
2.9644516e-12
2.9670943e-12
2.9631355e-12
2.9526455e-12
2.9474579e-12
2.9160735e-12
2.8262018e-12
0
2.7135472e-12
2.7638712e-12
2.765409e-12
2.7828776e-12
2.7869627e-12
2.784085e-12
2.7834949e-12
2.7870385e-12
2.7906525e-12
2.7906525e-12
2.7870386e-12
2.783495e-12
2.7840851e-12
2.7869628e-12
2.7828777e-12
2.7654091e-12
2.7638714e-12
2.7135477e-12
0
0
0
0
0
0
0
0
0
0
0
0
0
0
0
0
0
0
0
0
0
0
0
0
0
0
0
0
0
0
0
0
0
0
0
0
0
0
0
0
0
0
0
0
0
0
0
0
0
0
0
0
0
0
0
0
0
0
0
0
0
0
0
0
0
0
0
0
0
0
0
0
0
0
0
0
0
0
0
0
0
0
0
0
0
0
0
0
0
0
0
0
0
0
0
0
0
0
0
0
0
0
0
0
0
0
0
0
0
0
0
0
0
0
0
0
0
0
0
0
0
0
0
0
0
0
0
0
0
0
0
0
0
0
0
0
0
0
0
0
0
0
0
0
0
0
0
0
0
0
0
0
0
0
0
0
0
0
0
0
0
0
0
0
0
0
0
0
0
0
0
0
0
0
0
0
0
0
0
0
0
0
0
0
0
0
0
0
0
0
0
0
0
0
0
0
0
0
0
0
0
0
0
0
0
0
0
0
0
0
0
0
0
0
0
0
0
0
0
0
0
0
0
0
0
0
0
0
0
0
0
0
0
0
0
0
0
0
0
0
0
)
;

boundaryField
{
    Wall
    {
        type            zeroGradient;
    }
    frontAndBack
    {
        type            empty;
    }
    atmosphere
    {
        type            zeroGradient;
    }
}


// ************************************************************************* //
