/*--------------------------------*- C++ -*----------------------------------*\
| =========                 |                                                 |
| \\      /  F ield         | OpenFOAM: The Open Source CFD Toolbox           |
|  \\    /   O peration     | Version:  3.0.1                                 |
|   \\  /    A nd           | Web:      www.OpenFOAM.org                      |
|    \\/     M anipulation  |                                                 |
\*---------------------------------------------------------------------------*/
FoamFile
{
    version     2.0;
    format      ascii;
    class       surfaceScalarField;
    location    "31";
    object      phi;
}
// * * * * * * * * * * * * * * * * * * * * * * * * * * * * * * * * * * * * * //

dimensions      [0 3 -1 0 0 0 0];

internalField   nonuniform List<scalar> 
1540
(
4.9718441e-10
1.351998e-08
6.5341228e-10
1.3863663e-08
6.7529351e-10
1.399866e-08
6.2468117e-10
1.4071139e-08
5.381979e-10
1.4106873e-08
4.3572547e-10
1.4122749e-08
3.2744935e-10
1.4128487e-08
2.1791492e-10
1.4129713e-08
1.0866027e-10
1.4129419e-08
-1.5388293e-13
1.4128975e-08
-1.0896523e-10
1.4128972e-08
-2.1821108e-10
1.4129411e-08
-3.2773183e-10
1.4129699e-08
-4.3598836e-10
1.4128467e-08
-5.3843784e-10
1.4122726e-08
-6.2489348e-10
1.4106844e-08
-6.7547261e-10
1.4071106e-08
-6.5354899e-10
1.3998617e-08
-4.9726197e-10
1.3863604e-08
1.3519904e-08
2.9859641e-10
2.7659152e-08
5.2894502e-10
2.8056541e-08
5.9972001e-10
2.8349376e-08
5.8121431e-10
2.8510795e-08
5.1452998e-10
2.8594669e-08
4.2380329e-10
2.8634575e-08
3.2208134e-10
2.8651281e-08
2.1586837e-10
2.8656964e-08
1.0809541e-10
2.8658202e-08
-1.3620624e-13
2.86582e-08
-1.0836558e-10
2.8658195e-08
-2.1613093e-10
2.8658185e-08
-3.2233201e-10
2.8656937e-08
-4.2403629e-10
2.8651244e-08
-5.1474092e-10
2.8634529e-08
-5.8139875e-10
2.8594614e-08
-5.9987104e-10
2.8510729e-08
-5.2905594e-10
2.8349293e-08
-2.9865787e-10
2.8056434e-08
2.7659017e-08
3.7666162e-10
4.2089238e-08
5.3599245e-10
4.2679846e-08
5.8526863e-10
4.3078041e-08
5.6318688e-10
4.3310059e-08
4.993689e-10
4.3435621e-08
4.1289904e-10
4.3498194e-08
3.1498107e-10
4.352632e-08
2.1171716e-10
4.3537295e-08
1.061915e-10
4.3540742e-08
-1.1136386e-13
4.3541487e-08
-1.0641198e-10
4.354148e-08
-2.1193171e-10
4.3540719e-08
-3.1518522e-10
4.3537258e-08
-4.1308856e-10
4.3526268e-08
-4.9953896e-10
4.349813e-08
-5.6333322e-10
4.3435544e-08
-5.8538533e-10
4.3309965e-08
-5.3607424e-10
4.3077925e-08
-3.7670344e-10
4.2679701e-08
4.2089063e-08
3.9483169e-10
5.6809809e-08
5.4526364e-10
5.7613441e-08
5.8286715e-10
5.8117607e-08
5.5501792e-10
5.8414405e-08
4.8990123e-10
5.8577266e-08
4.0449751e-10
5.8660189e-08
3.0858462e-10
5.8698794e-08
2.0753418e-10
5.871483e-08
1.0415725e-10
5.8720526e-08
-8.7191295e-14
5.8722094e-08
-1.0432963e-10
5.8722085e-08
-2.0770165e-10
5.8720499e-08
-3.087435e-10
5.8714785e-08
-4.0464376e-10
5.8698732e-08
-4.9003186e-10
5.8660109e-08
-5.5512801e-10
5.8577169e-08
-5.8295324e-10
5.8414287e-08
-5.4532156e-10
5.8117463e-08
-3.9485987e-10
5.7613266e-08
5.6809606e-08
3.8471069e-10
7.1791024e-08
5.4318194e-10
7.2784778e-08
5.7896492e-10
7.3403267e-08
5.4884265e-10
7.376548e-08
4.8282154e-10
7.3964445e-08
3.9785891e-10
7.4066453e-08
3.0323461e-10
7.4114701e-08
2.0387564e-10
7.4135375e-08
1.023279e-10
7.4143158e-08
-6.6525377e-14
7.4145512e-08
-1.0245916e-10
7.4145502e-08
-2.0400325e-10
7.4143126e-08
-3.0335481e-10
7.4135322e-08
-3.9796915e-10
7.4114629e-08
-4.8291839e-10
7.4066361e-08
-5.48923e-10
7.3964332e-08
-5.7902538e-10
7.3765343e-08
-5.4322105e-10
7.3403102e-08
-3.8472852e-10
7.2784583e-08
7.1790803e-08
3.8586394e-10
8.6970257e-08
5.4443313e-10
8.8152574e-08
5.7782799e-10
8.8886406e-08
5.4538162e-10
8.9313929e-08
4.7817347e-10
8.9548081e-08
3.9313763e-10
8.9668161e-08
2.9922129e-10
8.9725285e-08
2.0102743e-10
8.9750123e-08
1.008693e-10
8.9759746e-08
-4.9186271e-14
8.9762786e-08
-1.0096706e-10
8.9762774e-08
-2.0112155e-10
8.9759711e-08
-2.9930941e-10
8.9750065e-08
-3.9321691e-10
8.9725205e-08
-4.7824268e-10
8.9668058e-08
-5.4543654e-10
8.9547955e-08
-5.7786771e-10
8.9313777e-08
-5.444571e-10
8.8886225e-08
-3.8587346e-10
8.8152364e-08
8.6970024e-08
3.9212028e-10
1.0230349e-07
5.4974085e-10
1.0367937e-07
5.802492e-10
1.0452875e-07
5.4498532e-10
1.0502112e-07
4.761359e-10
1.0528952e-07
3.9050194e-10
1.0542673e-07
2.9673418e-10
1.0549199e-07
1.9916111e-10
1.0552051e-07
9.9886402e-11
1.0553168e-07
-3.4607638e-14
1.0553528e-07
-9.9953825e-11
1.0553527e-07
-1.9922607e-10
1.0553165e-07
-2.9679459e-10
1.0552044e-07
-3.9055519e-10
1.0549191e-07
-4.761806e-10
1.0542662e-07
-5.4501892e-10
1.0528938e-07
-5.8027131e-10
1.0502096e-07
-5.4975183e-10
1.0452856e-07
-3.921229e-10
1.0367915e-07
1.0230325e-07
3.989217e-10
1.1776853e-07
5.572492e-10
1.193418e-07
5.854471e-10
1.2030782e-07
5.4723954e-10
1.2086493e-07
4.7649421e-10
1.2116694e-07
3.898695e-10
1.2132049e-07
2.9576577e-10
1.2139325e-07
1.9830106e-10
1.2142497e-07
9.940099e-11
1.2143741e-07
-2.0473903e-14
1.2144143e-07
-9.9441613e-11
1.2144141e-07
-1.9833961e-10
1.2143737e-07
-2.9580076e-10
1.2142491e-07
-3.898991e-10
1.2139316e-07
-4.7651746e-10
1.2132037e-07
-5.4725458e-10
1.211668e-07
-5.854536e-10
1.2086476e-07
-5.5724977e-10
1.2030762e-07
-3.9892001e-10
1.1934158e-07
1.1776829e-07
4.0742108e-10
1.3335558e-07
5.6713829e-10
1.3512935e-07
5.9329314e-10
1.362132e-07
5.5193746e-10
1.3683511e-07
4.7897868e-10
1.371703e-07
3.9105244e-10
1.3733957e-07
2.9619055e-10
1.3741928e-07
1.9837286e-10
1.3745379e-07
9.9380919e-11
1.3746721e-07
-7.3204926e-15
1.374715e-07
-9.9395062e-11
1.3747149e-07
-1.9838584e-10
1.3746717e-07
-2.9620115e-10
1.3745372e-07
-3.9105972e-10
1.3741919e-07
-4.7898212e-10
1.3733945e-07
-5.5193547e-10
1.3717015e-07
-5.9328689e-10
1.3683493e-07
-5.6713059e-10
1.36213e-07
-4.0741737e-10
1.3512913e-07
1.3335534e-07
4.1904119e-10
1.4907214e-07
5.7992293e-10
1.5104993e-07
6.0390908e-10
1.5225278e-07
5.5905155e-10
1.5293951e-07
4.8342875e-10
1.5330738e-07
3.9385486e-10
1.5349183e-07
2.9782613e-10
1.5357797e-07
1.9923942e-10
1.5361483e-07
9.9751837e-11
1.5362893e-07
4.6554544e-15
1.5363335e-07
-9.9742634e-11
1.5363334e-07
-1.9922989e-10
1.5362889e-07
-2.9781569e-10
1.5361476e-07
-3.938436e-10
1.5357788e-07
-4.8341589e-10
1.534917e-07
-5.5903768e-10
1.5330722e-07
-6.0389404e-10
1.5293933e-07
-5.7991019e-10
1.5225258e-07
-4.1903108e-10
1.5104971e-07
1.490719e-07
4.3470043e-10
1.649456e-07
5.958251e-10
1.6713022e-07
6.1722657e-10
1.6845349e-07
5.6843632e-10
1.692048e-07
4.8959226e-10
1.6960426e-07
3.9789025e-10
1.6980295e-07
3.0027973e-10
1.6989492e-07
2.0058961e-10
1.6993359e-07
1.0035254e-10
1.6994799e-07
1.7315555e-14
1.6995236e-07
-1.0031784e-10
1.6995234e-07
-2.0055574e-10
1.6994795e-07
-3.0024667e-10
1.6993352e-07
-3.9785974e-10
1.6989482e-07
-4.8956306e-10
1.6980283e-07
-5.6840917e-10
1.6960411e-07
-6.1720222e-10
1.6920462e-07
-5.9581367e-10
1.684533e-07
-4.3471052e-10
1.6713002e-07
1.6494536e-07
4.5503591e-10
1.8102806e-07
6.1504627e-10
1.8342004e-07
6.3272256e-10
1.8486599e-07
5.7929376e-10
1.8568057e-07
4.9662757e-10
1.8610912e-07
4.0256514e-10
1.8631988e-07
3.0296813e-10
1.8641714e-07
2.0195709e-10
1.8645685e-07
1.0095468e-10
1.8647123e-07
3.1371303e-14
1.8647532e-07
-1.0089207e-10
1.864753e-07
-2.0189575e-10
1.8647119e-07
-3.0290969e-10
1.8645679e-07
-4.0251335e-10
1.8641705e-07
-4.965789e-10
1.8631976e-07
-5.79253e-10
1.8610897e-07
-6.3269759e-10
1.856804e-07
-6.1502743e-10
1.848658e-07
-4.5502693e-10
1.8341985e-07
1.8102783e-07
4.7801577e-10
1.9740489e-07
6.3726459e-10
2.0002024e-07
6.4824186e-10
2.0159396e-07
5.8850459e-10
2.0246921e-07
5.0234101e-10
2.0292599e-07
4.0680801e-10
2.0314984e-07
3.0483431e-10
2.032483e-07
2.0280644e-10
2.0328743e-07
1.0123279e-10
2.0330142e-07
4.3916212e-14
2.0330484e-07
-1.0114525e-10
2.0330482e-07
-2.0271912e-10
2.0330138e-07
-3.0474809e-10
2.0328737e-07
-4.0671607e-10
2.0324821e-07
-5.02264e-10
2.0314973e-07
-5.884378e-10
2.0292586e-07
-6.4818948e-10
2.0246905e-07
-6.3724266e-10
2.015938e-07
-4.7801925e-10
2.0002007e-07
1.9740465e-07
5.2994258e-10
2.1447325e-07
6.6265376e-10
2.173147e-07
6.6086039e-10
2.1899556e-07
5.9856396e-10
2.1992043e-07
5.1072536e-10
2.2039996e-07
4.0415444e-10
2.2062908e-07
3.0427073e-10
2.2072973e-07
2.0245267e-10
2.2076899e-07
1.0063233e-10
2.2078239e-07
5.4485858e-14
2.2078474e-07
-1.0052382e-10
2.2078473e-07
-2.0234386e-10
2.2078235e-07
-3.0417086e-10
2.2076893e-07
-4.0407522e-10
2.2072965e-07
-5.1064572e-10
2.2062897e-07
-5.9849049e-10
2.2039983e-07
-6.607982e-10
2.1992029e-07
-6.6260947e-10
2.1899542e-07
-5.2991813e-10
2.1731456e-07
2.1447304e-07
5.6843002e-10
2.3243199e-07
6.7714591e-10
2.3546138e-07
6.6295899e-10
2.3723589e-07
6.0462916e-10
2.381977e-07
5.0555053e-10
2.3868143e-07
4.04331e-10
2.3890793e-07
3.0147461e-10
2.3900308e-07
2.0031107e-10
2.3903754e-07
9.8577161e-11
2.3904902e-07
6.7153679e-14
2.3905005e-07
-9.844721e-11
2.3905004e-07
-2.0019601e-10
2.3904899e-07
-3.0134934e-10
2.3903747e-07
-4.0420037e-10
2.39003e-07
-5.0544314e-10
2.3890784e-07
-6.0455609e-10
2.3868134e-07
-6.6289943e-10
2.3819757e-07
-6.7710003e-10
2.3723577e-07
-5.6841438e-10
2.3546126e-07
2.3243179e-07
5.5481132e-10
2.5093052e-07
6.7590437e-10
2.5418881e-07
6.5000073e-10
2.5607516e-07
5.8180409e-10
2.5707731e-07
4.9101103e-10
2.5757205e-07
3.9198136e-10
2.5779461e-07
2.9108013e-10
2.5788147e-07
1.9408367e-10
2.5790869e-07
9.4388131e-11
2.5791703e-07
9.0470761e-14
2.5791667e-07
-9.4208823e-11
2.5791666e-07
-1.9390726e-10
2.5791701e-07
-2.9094239e-10
2.5790866e-07
-3.9187023e-10
2.5788142e-07
-4.9091564e-10
2.5779454e-07
-5.8169785e-10
2.5757195e-07
-6.4990511e-10
2.5707719e-07
-6.7583243e-10
2.5607506e-07
-5.5475602e-10
2.5418871e-07
2.5093038e-07
5.8062315e-10
2.7025786e-07
6.7128455e-10
2.7373631e-07
6.221566e-10
2.7571735e-07
5.4835803e-10
2.767472e-07
4.6004409e-10
2.7723948e-07
3.6450065e-10
2.774487e-07
2.6984527e-10
2.7752148e-07
1.8236528e-10
2.7753804e-07
8.7884364e-11
2.7754105e-07
8.921043e-14
2.7753877e-07
-8.7707135e-11
2.7753876e-07
-1.8218747e-10
2.7754103e-07
-2.6965372e-10
2.77538e-07
-3.6429206e-10
2.7752141e-07
-4.5985433e-10
2.7744865e-07
-5.4821649e-10
2.7723942e-07
-6.2205041e-10
2.7674713e-07
-6.7119346e-10
2.7571726e-07
-5.8053305e-10
2.7373622e-07
2.7025782e-07
5.8882405e-10
2.9057677e-07
6.4545354e-10
2.9427028e-07
5.7018912e-10
2.96328e-07
4.9039466e-10
2.9736874e-07
4.0504437e-10
2.9784546e-07
3.1694454e-10
2.9803078e-07
2.3419696e-10
2.9808317e-07
1.6220821e-10
2.980851e-07
7.8048795e-11
2.9807918e-07
1.0262457e-13
2.980738e-07
-7.7845677e-11
2.980738e-07
-1.6201196e-10
2.9807917e-07
-2.3401516e-10
2.9808508e-07
-3.1679507e-10
2.9808314e-07
-4.0489476e-10
2.9803073e-07
-4.9024272e-10
2.9784541e-07
-5.7005636e-10
2.9736869e-07
-6.4535163e-10
2.9632795e-07
-5.887764e-10
2.9427024e-07
2.9057677e-07
5.7678281e-10
3.1204005e-07
5.8835871e-10
3.1594661e-07
4.8336697e-10
3.1805922e-07
3.9833624e-10
3.1909047e-07
3.1729357e-10
3.1953627e-07
2.4315036e-10
3.19688e-07
1.7980529e-10
3.1971464e-07
1.2977631e-10
3.196986e-07
6.3315237e-11
3.1968035e-07
1.1262662e-13
3.1967088e-07
-6.3091869e-11
3.1967088e-07
-1.295606e-10
3.1968035e-07
-1.796054e-10
3.1969859e-07
-2.4296342e-10
3.1971462e-07
-3.1713093e-10
3.1968797e-07
-3.9820571e-10
3.1953625e-07
-4.8328468e-10
3.1909046e-07
-5.8830178e-10
3.180592e-07
-5.7676818e-10
3.1594661e-07
3.1204007e-07
5.3744551e-10
3.3478864e-07
4.8788374e-10
3.3891222e-07
3.4950563e-10
3.4105751e-07
2.6135942e-10
3.4205598e-07
1.9022546e-10
3.4245181e-07
1.3908993e-10
3.4256181e-07
1.0371963e-10
3.4255875e-07
8.1755713e-11
3.4252356e-07
4.2083149e-11
3.4249283e-07
1.2105058e-13
3.4247945e-07
-4.1843478e-11
3.4247945e-07
-8.1520851e-11
3.4249282e-07
-1.0350116e-10
3.4252357e-07
-1.388797e-10
3.4255874e-07
-1.9003878e-10
3.4256182e-07
-2.6120364e-10
3.4245182e-07
-3.4938319e-10
3.4205601e-07
-4.878185e-10
3.4105754e-07
-5.3742993e-10
3.3891228e-07
3.3478869e-07
4.6346616e-10
3.589355e-07
3.3014607e-10
3.63286e-07
1.5340323e-10
3.6544373e-07
6.6713014e-11
3.6639193e-07
1.9674222e-11
3.667193e-07
3.2284334e-12
3.6677554e-07
5.2956816e-12
3.6673968e-07
1.9118203e-11
3.6668553e-07
1.4351506e-11
3.6664595e-07
1.2851683e-13
3.6663005e-07
-1.4094452e-11
3.6663005e-07
-1.8864152e-11
3.6664595e-07
-5.0317406e-12
3.6668553e-07
-2.9993509e-12
3.667397e-07
-1.9474552e-11
3.6677557e-07
-6.6545778e-11
3.6671934e-07
-1.5326843e-10
3.6639199e-07
-3.3005551e-10
3.6544381e-07
-4.6343501e-10
3.6328612e-07
3.5893557e-07
3.4358149e-10
3.8451684e-07
1.018172e-10
3.8912549e-07
-1.2197552e-10
3.9129876e-07
-1.948876e-10
3.9217406e-07
-2.0062782e-10
3.9242686e-07
-1.6402369e-10
3.9241845e-07
-1.1407853e-10
3.9234384e-07
-5.4847387e-11
3.9227091e-07
-1.8661936e-11
3.9222659e-07
1.3475993e-13
3.9221046e-07
1.8928404e-11
3.9221046e-07
5.5105439e-11
3.922266e-07
1.1432023e-10
3.9227092e-07
1.6425998e-10
3.9234387e-07
2.0084903e-10
3.9241849e-07
1.9508385e-10
3.9242692e-07
1.2213122e-10
3.9217416e-07
-1.0172831e-10
3.912989e-07
-3.4353202e-10
3.8912565e-07
3.8451697e-07
1.6259597e-10
4.1138754e-07
-2.1907458e-10
4.1637209e-07
-4.8636348e-10
4.1858654e-07
-5.2673239e-10
4.1939019e-07
-4.763097e-10
4.1956737e-07
-3.6560335e-10
4.1949366e-07
-2.5028702e-10
4.1938645e-07
-1.3414245e-10
4.1929922e-07
-5.4086297e-11
4.1925525e-07
1.3776566e-13
4.1924188e-07
5.4360486e-11
4.1924189e-07
1.3441351e-10
4.1925526e-07
2.5054926e-10
4.1929924e-07
3.658543e-10
4.1938649e-07
4.7655287e-10
4.1949371e-07
5.2695447e-10
4.1956745e-07
4.8656607e-10
4.193903e-07
2.1925181e-10
4.185867e-07
-1.6247283e-10
4.163723e-07
4.113878e-07
-6.9246269e-11
4.3915683e-07
-6.4231721e-10
4.4472872e-07
-9.5827013e-10
4.4707666e-07
-9.3034817e-10
4.4786866e-07
-8.0002081e-10
4.4798449e-07
-5.8743665e-10
4.4788789e-07
-3.9345486e-10
4.4776873e-07
-2.1319552e-10
4.4767507e-07
-8.929759e-11
4.4763591e-07
1.3977951e-13
4.4762767e-07
8.9576874e-11
4.4762767e-07
2.1347428e-10
4.4763591e-07
3.9372788e-10
4.4767509e-07
5.8770519e-10
4.4776877e-07
8.002805e-10
4.4788794e-07
9.3059535e-10
4.4798458e-07
9.5848928e-10
4.4786879e-07
6.4248158e-10
4.4707687e-07
6.934101e-11
4.44729e-07
4.3915718e-07
-2.9033561e-10
4.6707478e-07
-1.1634957e-09
4.7358914e-07
-1.4991159e-09
4.7623793e-07
-1.3829104e-09
4.7702847e-07
-1.1251571e-09
4.772261e-07
-7.9728592e-10
4.7712265e-07
-5.2704703e-10
4.770138e-07
-2.8533703e-10
4.7691952e-07
-1.215685e-10
4.7688554e-07
1.401107e-13
4.7688232e-07
1.2184844e-10
4.7688232e-07
2.8561577e-10
4.7688555e-07
5.2732411e-10
4.7691954e-07
7.9756074e-10
4.7701383e-07
1.1254388e-09
4.7712268e-07
1.3831849e-09
4.7722618e-07
1.4993605e-09
4.7702861e-07
1.1636924e-09
4.7623816e-07
2.9044548e-10
4.7358949e-07
4.6707523e-07
-5.0628454e-10
4.9655299e-07
-1.8247981e-09
5.0232933e-07
-2.1005407e-09
5.0507189e-07
-1.7826942e-09
5.0621512e-07
-1.4009483e-09
5.0636604e-07
-9.6112726e-10
5.0663453e-07
-6.3508934e-10
5.0656324e-07
-3.4605806e-10
5.0645916e-07
-1.501578e-10
5.0641419e-07
1.3848214e-13
5.0640628e-07
1.5043635e-10
5.0640628e-07
3.4634328e-10
5.0641419e-07
6.3537352e-10
5.0645918e-07
9.6140968e-10
5.0656328e-07
1.4012313e-09
5.0663458e-07
1.7829905e-09
5.0636612e-07
2.1008385e-09
5.0621522e-07
1.82508e-09
5.0507209e-07
5.0649479e-10
5.0232975e-07
4.9655342e-07
-1.3278777e-09
5.357692e-07
-2.9514836e-09
5.4013811e-07
-2.5081602e-09
5.401335e-07
-2.0712731e-09
5.4026095e-07
-1.347901e-09
5.4047213e-07
-1.0298716e-09
5.4018756e-07
-7.0208395e-10
5.3983594e-07
-3.9715677e-10
5.3960658e-07
-1.7823894e-10
5.3943184e-07
1.4335979e-13
5.3936268e-07
1.785175e-10
5.3936269e-07
3.9743247e-10
5.3943183e-07
7.0236418e-10
5.3960658e-07
1.0301632e-09
5.3983595e-07
1.3481882e-09
5.4018759e-07
2.0715671e-09
5.4047218e-07
2.5084589e-09
5.4026105e-07
2.9517888e-09
5.4013371e-07
1.3279783e-09
5.4013867e-07
5.3577051e-07
-1.7071056e-09
5.2380915e-07
-5.6867694e-09
5.4658152e-07
-3.5717572e-09
5.6654925e-07
-1.8881248e-09
5.7347801e-07
-1.560295e-09
5.7606016e-07
-1.1207099e-09
5.7706466e-07
-7.4627285e-10
5.7745178e-07
-4.8059746e-10
5.7765541e-07
-2.2933226e-10
5.7775283e-07
1.5898384e-13
5.7782409e-07
2.2968709e-10
5.7782409e-07
4.8094485e-10
5.7775294e-07
7.4658445e-10
5.7765562e-07
1.1210247e-09
5.7745204e-07
1.5606087e-09
5.77065e-07
1.8884139e-09
5.7606061e-07
3.5720918e-09
5.7347861e-07
5.6872746e-09
5.6655001e-07
1.7075603e-09
5.4658297e-07
5.238115e-07
2.9986165e-08
4.8471105e-07
1.3102737e-08
5.4733015e-07
4.9275465e-09
5.5679147e-07
2.2637714e-09
5.5882028e-07
1.0870294e-09
5.6059788e-07
6.5508737e-10
5.6046934e-07
3.7556053e-10
5.6046844e-07
1.8586406e-10
5.604278e-07
7.0591395e-11
5.603897e-07
1.8403836e-13
5.6039424e-07
-7.0255793e-11
5.6039429e-07
-1.8554224e-10
5.6038985e-07
-3.7526793e-10
5.6042809e-07
-6.5486189e-10
5.6046883e-07
-1.0868638e-09
5.6046983e-07
-2.2636666e-09
5.605985e-07
-4.9275773e-09
5.5882106e-07
-1.3102428e-08
5.5679193e-07
-2.9985464e-08
5.4733106e-07
4.8471378e-07
8.3222935e-08
4.0096329e-07
8.4558399e-08
5.438931e-07
6.4615891e-08
5.731659e-07
4.4608865e-08
5.7438638e-07
2.8832953e-08
5.7124415e-07
1.9253405e-08
5.6934062e-07
1.244582e-08
5.6756258e-07
7.4300785e-09
5.6590285e-07
3.4588639e-09
5.6465597e-07
1.1915386e-13
5.640498e-07
-3.4586617e-09
5.6404984e-07
-7.4299551e-09
5.6465617e-07
-1.2445725e-08
5.6590312e-07
-1.9253535e-08
5.6756319e-07
-2.8833258e-08
5.6934124e-07
-4.4609091e-08
5.7124438e-07
-6.4616049e-08
5.7438709e-07
-8.4558707e-08
5.7316642e-07
-8.3223234e-08
5.4389392e-07
4.0096566e-07
8.2102611e-08
3.1885861e-07
1.1217878e-07
5.1378856e-07
1.0889638e-07
5.7637071e-07
9.1512116e-08
5.9166213e-07
7.0906066e-08
5.9132106e-07
5.176852e-08
5.8594709e-07
3.5142341e-08
5.8017273e-07
2.1643913e-08
5.7593525e-07
1.0342324e-08
5.7326517e-07
-1.3245154e-13
5.7186161e-07
-1.034256e-08
5.7186174e-07
-2.1644251e-08
5.7326559e-07
-3.5142771e-08
5.7593589e-07
-5.1768877e-08
5.8017315e-07
-7.0906279e-08
5.859476e-07
-9.1512114e-08
5.9132119e-07
-1.0889631e-07
5.9166281e-07
-1.1217856e-07
5.7637111e-07
-8.2102116e-08
5.1378912e-07
3.1886142e-07
6.353081e-08
2.5532778e-07
1.0160806e-07
4.7571132e-07
1.105853e-07
5.6739337e-07
1.0162491e-07
6.0062228e-07
8.470533e-08
6.0824033e-07
6.5551819e-08
6.0510022e-07
4.7036429e-08
5.9868769e-07
3.0105609e-08
5.9245239e-07
1.4636061e-08
5.8787986e-07
-2.7039611e-13
5.8545117e-07
-1.4636662e-08
5.854513e-07
-3.0106134e-08
5.8788008e-07
-4.7036829e-08
5.9245283e-07
-6.5552129e-08
5.9868803e-07
-8.4705716e-08
6.0510079e-07
-1.0162513e-07
6.0824029e-07
-1.1058505e-07
6.0062252e-07
-1.0160789e-07
5.6739384e-07
-6.353064e-08
4.7571189e-07
2.5533077e-07
4.3653029e-08
2.1167479e-07
7.9753924e-08
4.3961041e-07
9.4856349e-08
5.5229094e-07
9.3473207e-08
6.0200538e-07
8.2482494e-08
6.1923106e-07
6.6850389e-08
6.2073231e-07
4.9747734e-08
6.1579033e-07
3.2687749e-08
6.0951234e-07
1.6147902e-08
6.044197e-07
-3.9087231e-13
6.0159949e-07
-1.6148622e-08
6.0159951e-07
-3.2688482e-08
6.0441992e-07
-4.9748433e-08
6.0951278e-07
-6.6851008e-08
6.1579062e-07
-8.2482835e-08
6.2073261e-07
-9.3473677e-08
6.1923113e-07
-9.4856699e-08
6.0200555e-07
-7.9754079e-08
5.5229124e-07
-4.3653111e-08
4.3961093e-07
2.1167764e-07
2.8043517e-08
1.8363127e-07
5.7809093e-08
4.0984487e-07
7.4369173e-08
5.3573089e-07
7.7867674e-08
5.9850688e-07
7.2160146e-08
6.2493858e-07
6.0895437e-08
6.3199701e-07
4.6768021e-08
6.2991775e-07
3.1444194e-08
6.2483616e-07
1.5760309e-08
6.2010356e-07
-3.8536165e-13
6.1736014e-07
-1.5761105e-08
6.1736025e-07
-3.144504e-08
6.2010383e-07
-4.6768708e-08
6.2483647e-07
-6.0896093e-08
6.2991799e-07
-7.2160711e-08
6.3199723e-07
-7.7868342e-08
6.2493871e-07
-7.4369903e-08
5.9850709e-07
-5.7809932e-08
5.3573128e-07
-2.8044625e-08
4.098456e-07
1.8363303e-07
1.747787e-08
1.6615343e-07
3.990125e-08
3.8742148e-07
5.5016536e-08
5.2061561e-07
6.0822797e-08
5.9270064e-07
5.8909437e-08
6.2685195e-07
5.1547657e-08
6.3935879e-07
4.0731974e-08
6.4073341e-07
2.7948643e-08
6.376195e-07
1.4181893e-08
6.338703e-07
-4.0017253e-13
6.3154246e-07
-1.4182729e-08
6.3154256e-07
-2.7949396e-08
6.3387049e-07
-4.0732662e-08
6.3761972e-07
-5.1548303e-08
6.4073364e-07
-5.8910087e-08
6.3935901e-07
-6.0823524e-08
6.2685214e-07
-5.5017323e-08
5.927009e-07
-3.9902081e-08
5.20616e-07
-1.7478647e-08
3.8742216e-07
1.661544e-07
1.0746518e-08
1.5540691e-07
2.6625365e-08
3.7154264e-07
3.9044407e-08
5.0819654e-07
4.5372719e-08
5.863723e-07
4.576821e-08
6.2645648e-07
4.1396982e-08
6.4373002e-07
3.3567982e-08
6.4856239e-07
2.3467831e-08
6.4771963e-07
1.2041751e-08
6.4529643e-07
-3.9645179e-13
6.4358458e-07
-1.2042472e-08
6.4358464e-07
-2.3468554e-08
6.4529655e-07
-3.3568641e-08
6.4771981e-07
-4.139761e-08
6.4856259e-07
-4.576886e-08
6.4373023e-07
-4.5373394e-08
6.264567e-07
-3.9045106e-08
5.8637262e-07
-2.6626052e-08
5.0819694e-07
-1.074704e-08
3.7154314e-07
1.5540735e-07
6.5911163e-09
1.4881578e-07
1.7377097e-08
3.6075666e-07
2.6890325e-08
4.9868332e-07
3.2690208e-08
5.8057241e-07
3.4238139e-08
6.2490852e-07
3.1929586e-08
6.4603858e-07
2.6513763e-08
6.5397823e-07
1.8855119e-08
6.5537829e-07
9.7738686e-09
6.5437769e-07
-3.3416961e-13
6.5335878e-07
-9.7745514e-09
6.5335882e-07
-1.8855769e-08
6.5437779e-07
-2.6514379e-08
6.5537842e-07
-3.1930179e-08
6.539784e-07
-3.4238747e-08
6.4603879e-07
-3.2690806e-08
6.2490878e-07
-2.6890918e-08
5.8057272e-07
-1.7377625e-08
4.9868364e-07
-6.5914513e-09
3.6075699e-07
1.488159e-07
4.0788656e-09
1.4473691e-07
1.1189442e-08
3.5363723e-07
1.8094574e-08
4.9172905e-07
2.2912328e-08
5.7575201e-07
2.4853209e-08
6.2296762e-07
2.3846992e-08
6.4704482e-07
2.0242178e-08
6.5758306e-07
1.4621475e-08
6.6099897e-07
7.6492783e-09
6.6134989e-07
-3.0476465e-13
6.6100837e-07
-7.6498691e-09
6.6100839e-07
-1.4622056e-08
6.6134998e-07
-2.0242723e-08
6.609991e-07
-2.3847526e-08
6.575832e-07
-2.4853757e-08
6.4704503e-07
-2.2912846e-08
6.2296789e-07
-1.8095074e-08
5.7575228e-07
-1.118987e-08
4.9172931e-07
-4.0791163e-09
3.5363738e-07
1.4473679e-07
2.58684e-09
1.4199586e-07
7.1479233e-09
3.4888252e-07
1.2053181e-08
4.8679474e-07
1.5754201e-08
5.718352e-07
1.7636718e-08
6.2100791e-07
1.7367537e-08
6.4731399e-07
1.5039076e-08
6.5991152e-07
1.1016419e-08
6.6502162e-07
5.8106197e-09
6.6655572e-07
-2.72809e-13
6.6681923e-07
-5.8111181e-09
6.6681926e-07
-1.1016925e-08
6.6655577e-07
-1.5039574e-08
6.6502173e-07
-1.7368001e-08
6.5991165e-07
-1.7637171e-08
6.4731418e-07
-1.5754669e-08
6.2100812e-07
-1.2053621e-08
5.7183544e-07
-7.1482714e-09
4.8679486e-07
-2.5870236e-09
3.4888254e-07
1.4199551e-07
1.8412009e-09
4.8122257e-09
8.2261588e-09
1.1120373e-08
1.2718082e-08
1.2710006e-08
1.1184331e-08
8.2866796e-09
4.4021722e-09
-2.3426143e-13
-4.4026283e-09
-8.2871115e-09
-1.1184782e-08
-1.2710408e-08
-1.2718493e-08
-1.1120768e-08
-8.2265344e-09
-4.8125229e-09
-1.841389e-09
)
;

boundaryField
{
    Wall
    {
        type            calculated;
        value           uniform 0;
    }
    frontAndBack
    {
        type            empty;
        value           nonuniform 0();
    }
    atmosphere
    {
        type            calculated;
        value           nonuniform List<scalar> 
20
(
1.4055474e-07
3.4644044e-07
4.840547e-07
5.6954196e-07
6.1960711e-07
6.4724714e-07
6.6143718e-07
6.6791933e-07
6.7044022e-07
6.7122165e-07
6.7122163e-07
6.7044025e-07
6.6791939e-07
6.614373e-07
6.4724726e-07
6.1960735e-07
5.6954221e-07
4.8405473e-07
3.4644035e-07
1.4055429e-07
)
;
    }
}


// ************************************************************************* //
