/*--------------------------------*- C++ -*----------------------------------*\
| =========                 |                                                 |
| \\      /  F ield         | OpenFOAM: The Open Source CFD Toolbox           |
|  \\    /   O peration     | Version:  3.0.1                                 |
|   \\  /    A nd           | Web:      www.OpenFOAM.org                      |
|    \\/     M anipulation  |                                                 |
\*---------------------------------------------------------------------------*/
FoamFile
{
    version     2.0;
    format      ascii;
    class       volScalarField;
    location    "31";
    object      Psi2;
}
// * * * * * * * * * * * * * * * * * * * * * * * * * * * * * * * * * * * * * //

dimensions      [0 -2 2 0 0 0 0];

internalField   nonuniform List<scalar> 
800
(
0.00063215724
0.00063210341
0.00063209398
0.00063209311
0.00063209328
0.00063209342
0.00063209343
0.00063209338
0.00063209333
0.0006320933
0.0006320933
0.00063209333
0.00063209338
0.00063209342
0.00063209341
0.00063209328
0.00063209311
0.00063209397
0.0006321034
0.00063215723
0.00063825427
0.00063776663
0.00063764859
0.00063762275
0.00063762172
0.00063762569
0.00063762937
0.00063763176
0.00063763307
0.00063763364
0.00063763364
0.00063763307
0.00063763177
0.00063762937
0.00063762569
0.00063762173
0.00063762276
0.0006376486
0.00063776665
0.00063825432
0.00064538136
0.00064456636
0.00064430271
0.00064423942
0.00064423082
0.00064423537
0.00064424108
0.00064424511
0.00064424741
0.00064424842
0.00064424841
0.00064424741
0.00064424512
0.00064424109
0.00064423539
0.00064423084
0.00064423944
0.00064430274
0.00064456641
0.00064538144
0.00065268506
0.00065159224
0.0006511895
0.00065109088
0.00065107477
0.00065107938
0.00065108656
0.00065109182
0.00065109488
0.00065109622
0.00065109622
0.00065109488
0.00065109183
0.00065108658
0.0006510794
0.0006510748
0.00065109092
0.00065118956
0.00065159231
0.00065268518
0.00065944582
0.00065814794
0.00065762562
0.00065749538
0.00065747476
0.00065748046
0.00065748937
0.00065749584
0.0006574996
0.00065750124
0.00065750124
0.00065749961
0.00065749585
0.00065748939
0.00065748049
0.0006574748
0.00065749543
0.00065762568
0.00065814802
0.00065944595
0.00066511718
0.00066370555
0.00066308923
0.00066293149
0.00066291063
0.00066291929
0.00066293063
0.00066293859
0.00066294316
0.00066294512
0.00066294512
0.00066294317
0.00066293861
0.00066293066
0.00066291932
0.00066291067
0.00066293154
0.0006630893
0.00066370563
0.0006651173
0.00066935476
0.00066791232
0.00066723502
0.00066705487
0.00066703847
0.00066705232
0.00066706711
0.00066707706
0.00066708267
0.00066708506
0.00066708506
0.00066708268
0.00066707708
0.00066706713
0.00066705236
0.00066703851
0.00066705492
0.00066723508
0.0006679124
0.00066935487
0.00067204465
0.00067062441
0.00066992514
0.00066972836
0.00066972054
0.0006697418
0.00066976115
0.00066977373
0.00066978073
0.0006697837
0.0006697837
0.00066978074
0.00066977375
0.00066976117
0.00066974184
0.00066972058
0.0006697284
0.00066992519
0.00067062447
0.00067204475
0.00067324563
0.0006718603
0.0006711812
0.00067097356
0.00067097549
0.00067100598
0.00067103102
0.00067104696
0.00067105573
0.00067105948
0.00067105948
0.00067105574
0.00067104698
0.00067103104
0.00067100601
0.00067097552
0.0006709736
0.00067118125
0.00067186035
0.00067324571
0.00067319963
0.00067180557
0.00067118431
0.00067097056
0.00067097825
0.00067101722
0.00067104902
0.00067106902
0.00067107998
0.00067108472
0.00067108472
0.00067107999
0.00067106904
0.00067104904
0.00067101724
0.00067097827
0.00067097058
0.00067118434
0.0006718056
0.00067319968
0.00067226978
0.0006707667
0.00067022879
0.00067001188
0.00067001504
0.00067005719
0.00067009679
0.00067012155
0.00067013509
0.00067014103
0.00067014103
0.0006701351
0.00067012157
0.00067009681
0.00067005721
0.00067001506
0.00067001189
0.00067022881
0.00067076672
0.00067226981
0.00067088524
0.00066911979
0.00066866567
0.00066844684
0.00066842922
0.00066846452
0.000668513
0.00066854326
0.00066855978
0.00066856717
0.00066856717
0.00066855979
0.00066854327
0.00066851301
0.00066846454
0.00066842923
0.00066844685
0.00066866568
0.0006691198
0.00067088526
0.00066953001
0.00066730166
0.00066689024
0.00066667212
0.0006666121
0.00066662754
0.00066668611
0.00066672291
0.0006667412
0.00066675049
0.00066675049
0.00066674121
0.00066672292
0.00066668613
0.00066662755
0.00066661211
0.00066667212
0.00066689024
0.00066730166
0.00066953002
0.00066870977
0.00066562901
0.00066517052
0.00066495614
0.000664793
0.00066474381
0.00066484549
0.00066489068
0.00066490799
0.00066492004
0.00066492004
0.000664908
0.0006648907
0.00066484551
0.00066474382
0.00066479301
0.00066495615
0.00066517052
0.00066562901
0.00066870978
0.00066905576
0.00066485691
0.00066420692
0.00066398803
0.00066366874
0.00066359995
0.00066369516
0.0006637527
0.00066376587
0.00066377766
0.00066377767
0.00066376588
0.00066375272
0.00066369519
0.00066359997
0.00066366876
0.00066398804
0.00066420694
0.00066485691
0.00066905578
0.00066966164
0.00066433368
0.00066330754
0.00066304389
0.00066265324
0.00066255121
0.00066267177
0.00066274943
0.0006627559
0.00066275438
0.00066275439
0.00066275591
0.00066274946
0.0006626718
0.00066255124
0.00066265326
0.00066304391
0.00066330756
0.00066433369
0.00066966168
0.00067232067
0.00066525685
0.00066363221
0.00066323943
0.0006627074
0.00066258532
0.00066276409
0.00066286796
0.00066286577
0.00066282661
0.00066282662
0.00066286579
0.00066286799
0.00066276412
0.00066258535
0.00066270743
0.00066323946
0.00066363224
0.00066525688
0.00067232072
0.00067779088
0.00066843402
0.00066595508
0.00066531123
0.00066457297
0.00066446473
0.00066473234
0.0006648667
0.00066486309
0.00066475699
0.000664757
0.00066486312
0.00066486675
0.00066473239
0.00066446477
0.00066457302
0.00066531127
0.00066595513
0.00066843407
0.00067779095
0.00068702004
0.00067470483
0.00067106059
0.00067001565
0.00066899864
0.00066893851
0.0006693128
0.00066948086
0.00066949246
0.00066929382
0.00066929383
0.00066949249
0.00066948091
0.00066931286
0.00066893857
0.0006689987
0.00067001571
0.00067106066
0.00067470489
0.00068702012
0.00070133275
0.00068517191
0.00067995392
0.00067832705
0.00067694974
0.00067694097
0.00067741792
0.00067762277
0.00067765919
0.00067735226
0.00067735227
0.00067765922
0.00067762283
0.00067741799
0.00067694104
0.00067694981
0.00067832712
0.000679954
0.00068517198
0.00070133283
0.00072266772
0.00070141129
0.00069402953
0.00069159813
0.00068974472
0.0006897428
0.00069029701
0.00069054253
0.00069057579
0.00069015613
0.00069015614
0.00069057583
0.0006905426
0.00069029708
0.00068974288
0.0006897448
0.00069159821
0.00069402962
0.00070141136
0.00072266778
0.00075394662
0.00072580307
0.00071536706
0.00071178864
0.00070924046
0.00070918448
0.00070978175
0.00071007391
0.00071002831
0.00070950028
0.0007095003
0.00071002835
0.00071007398
0.00070978183
0.00070918456
0.00070924055
0.00071178872
0.00071536714
0.00072580311
0.00075394661
0.00079984249
0.00076206564
0.00074716365
0.00074188213
0.0007382426
0.00073802123
0.00073866094
0.00073901027
0.00073878572
0.00073815807
0.00073815809
0.00073878576
0.00073901034
0.00073866102
0.00073802131
0.00073824268
0.0007418822
0.00074716371
0.00076206563
0.00079984233
0.00086846757
0.00081633886
0.00079462232
0.00078662829
0.00078132353
0.00078068422
0.00078130309
0.00078172848
0.00078123469
0.00078051591
0.00078051593
0.00078123473
0.00078172855
0.00078130316
0.0007806843
0.00078132361
0.00078662834
0.00079462234
0.00081633873
0.00086846712
0.00097430444
0.00089949577
0.00086679281
0.0008540019
0.00084622758
0.00084447808
0.00084490312
0.00084543758
0.00084461753
0.00084381314
0.00084381316
0.00084461756
0.00084543764
0.00084490317
0.00084447814
0.00084622763
0.00085400191
0.00086679273
0.0008994954
0.00097430349
0.0011445639
0.0010319326
0.00097996447
0.00095915031
0.00094682148
0.00094298858
0.00094299451
0.00094368858
0.00094251923
0.00094162588
0.0009416259
0.00094251926
0.00094368863
0.00094299453
0.00094298861
0.00094682148
0.00095915026
0.00097996422
0.0010319318
0.0011445621
0.0014329649
0.0012544659
0.001166671
0.001130909
0.0011109467
0.0011021321
0.0011014779
0.0011024282
0.0011009226
0.0010999278
0.0010999279
0.0011009226
0.0011024283
0.0011014779
0.001102132
0.0011109466
0.0011309089
0.0011666705
0.0012544644
0.0014329615
0.0019402286
0.0016557528
0.0014919165
0.0014307789
0.0013919196
0.0013767434
0.0013750759
0.0013764177
0.0013745596
0.0013733934
0.0013733934
0.0013745595
0.0013764177
0.0013750757
0.0013767433
0.0013919194
0.0014307784
0.0014919152
0.0016557493
0.0019402208
0.0027794171
0.0022768741
0.0020088993
0.0018934937
0.00183229
0.0018074439
0.0018040689
0.0018064054
0.0018045467
0.0018033328
0.0018033328
0.0018045465
0.001806405
0.0018040684
0.0018074432
0.0018322892
0.0018934925
0.0020088965
0.002276867
0.0027793998
0.004278714
0.0031929039
0.0027211272
0.0025039922
0.0023969635
0.0023544689
0.0023478685
0.0023533608
0.0023544007
0.0023547755
0.0023547754
0.0023544003
0.0023533602
0.0023478678
0.0023544683
0.0023969627
0.0025039908
0.0027211225
0.0031928928
0.0042786789
0.0066922861
0.0044648911
0.0036353311
0.0032583036
0.0030781877
0.0030088893
0.0030003307
0.0030145874
0.0030238633
0.003028934
0.0030289338
0.0030238625
0.0030145862
0.0030003295
0.0030088882
0.0030781868
0.0032583005
0.0036353242
0.0044648759
0.006692235
0.0091759871
0.0060345289
0.0047381617
0.0041437697
0.003864904
0.0037582292
0.0037466805
0.0037739916
0.0037979968
0.0038121376
0.0038121372
0.0037979955
0.0037739897
0.0037466788
0.0037582277
0.0038649026
0.0041437657
0.004738154
0.0060345137
0.0091759442
0.010488527
0.0076565329
0.0059582494
0.0051273082
0.0047331441
0.0045808832
0.0045629718
0.0046036495
0.0046452079
0.004670939
0.0046709384
0.0046452065
0.0046036473
0.00456297
0.0045808817
0.004733143
0.005127305
0.0059582424
0.0076565201
0.010488509
0.010871492
0.0090160695
0.0071764799
0.0061547337
0.0056509478
0.0054503847
0.0054218437
0.0054718673
0.005528868
0.0055655728
0.0055655722
0.0055288665
0.0054718651
0.005421842
0.0054503834
0.005650947
0.0061547317
0.0071764758
0.0090160618
0.010871487
0.010949151
0.0099431158
0.0082692693
0.0071594882
0.0065759585
0.0063336011
0.0062915315
0.0063442735
0.0064106093
0.0064547451
0.0064547445
0.006410608
0.0063442716
0.0062915302
0.0063336001
0.0065759583
0.0071594867
0.0082692668
0.0099431107
0.010949151
0.010962047
0.010474741
0.0091542687
0.0080771142
0.0074613895
0.0071921578
0.0071363952
0.007184945
0.0072528348
0.0072993454
0.007299345
0.0072528338
0.0071849437
0.0071363943
0.0071921572
0.0074613897
0.0080771137
0.0091542672
0.010474738
0.010962047
0.010963955
0.010743378
0.009808272
0.008860606
0.0082643394
0.0079879973
0.0079213546
0.0079605005
0.0080229093
0.0080669192
0.008066919
0.0080229088
0.0079604998
0.0079213541
0.0079879971
0.0082643399
0.0088606061
0.009808271
0.010743377
0.010963955
0.01096422
0.010868459
0.01025664
0.0094889055
0.0089540328
0.0086902547
0.008617716
0.0086449986
0.0086972513
0.0087352851
0.008735285
0.0086972511
0.0086449984
0.0086177158
0.0086902548
0.0089540334
0.0094889059
0.010256639
0.010868459
0.01096422
0.010964256
0.010923817
0.010546102
0.0099650237
0.0095162755
0.0092804135
0.0092077076
0.0092233715
0.0092636095
0.009294021
0.0092940211
0.0092636096
0.0092233716
0.0092077078
0.0092804138
0.0095162761
0.0099650241
0.010546102
0.010923816
0.010964256
0.01096426
0.010947527
0.010724359
0.010308414
0.0099529874
0.0097538971
0.0096860597
0.0096922021
0.0097209012
0.009743648
0.0097436481
0.0097209014
0.0096922025
0.00968606
0.0097538976
0.009952988
0.010308414
0.010724359
0.010947527
0.01096426
)
;

boundaryField
{
    Wall
    {
        type            calculated;
        value           nonuniform List<scalar> 
100
(
1e-20
9.9999999e-21
9.9999999e-21
9.9999999e-21
9.9999999e-21
9.9999999e-21
9.9999999e-21
9.9999999e-21
9.9999999e-21
9.9999999e-21
9.9999999e-21
9.9999999e-21
9.9999999e-21
9.9999999e-21
9.9999999e-21
9.9999999e-21
9.9999999e-21
9.9999999e-21
9.9999999e-21
9.9999999e-21
9.9999999e-21
9.9999999e-21
9.9999999e-21
9.9999999e-21
9.9999999e-21
9.9999999e-21
9.9999999e-21
1e-20
1e-20
1e-20
1e-20
1e-20
1e-20
1e-20
1e-20
1e-20
1e-20
1e-20
1e-20
1e-20
1e-20
9.9999999e-21
9.9999999e-21
9.9999999e-21
9.9999999e-21
9.9999999e-21
9.9999999e-21
9.9999999e-21
9.9999999e-21
9.9999999e-21
9.9999999e-21
9.9999999e-21
9.9999999e-21
9.9999999e-21
9.9999999e-21
9.9999999e-21
9.9999999e-21
9.9999999e-21
9.9999999e-21
9.9999999e-21
9.9999999e-21
9.9999999e-21
9.9999999e-21
9.9999999e-21
9.9999999e-21
9.9999999e-21
9.9999999e-21
1e-20
1e-20
1e-20
1e-20
1e-20
1e-20
1e-20
1e-20
1e-20
1e-20
1e-20
1e-20
1e-20
1e-20
1e-20
1e-20
1e-20
1e-20
1e-20
1e-20
1e-20
1e-20
1e-20
1e-20
1e-20
1e-20
1e-20
1e-20
1e-20
1e-20
1e-20
1e-20
1e-20
)
;
    }
    frontAndBack
    {
        type            empty;
    }
    atmosphere
    {
        type            calculated;
        value           uniform 1e-20;
    }
}


// ************************************************************************* //
