/*--------------------------------*- C++ -*----------------------------------*\
| =========                 |                                                 |
| \\      /  F ield         | OpenFOAM: The Open Source CFD Toolbox           |
|  \\    /   O peration     | Version:  3.0.1                                 |
|   \\  /    A nd           | Web:      www.OpenFOAM.org                      |
|    \\/     M anipulation  |                                                 |
\*---------------------------------------------------------------------------*/
FoamFile
{
    version     2.0;
    format      ascii;
    class       volScalarField;
    location    "31";
    object      rho;
}
// * * * * * * * * * * * * * * * * * * * * * * * * * * * * * * * * * * * * * //

dimensions      [1 -3 0 0 0 0 0];

internalField   nonuniform List<scalar> 
800
(
63.215724
63.210341
63.209398
63.209312
63.209328
63.209342
63.209343
63.209338
63.209333
63.209331
63.20933
63.209333
63.209338
63.209343
63.209342
63.209328
63.209311
63.209397
63.210341
63.215724
63.825428
63.776663
63.764859
63.762275
63.762173
63.762569
63.762937
63.763177
63.763308
63.763365
63.763364
63.763308
63.763177
63.762938
63.76257
63.762174
63.762276
63.764861
63.776665
63.825432
64.538135
64.456635
64.43027
64.423941
64.423081
64.423536
64.424107
64.42451
64.42474
64.424841
64.424841
64.424741
64.424511
64.424109
64.423538
64.423083
64.423944
64.430274
64.45664
64.538144
65.268501
65.15922
65.118946
65.109084
65.107473
65.107934
65.108652
65.109178
65.109484
65.109618
65.109618
65.109485
65.109179
65.108654
65.107936
65.107476
65.109088
65.118952
65.159227
65.268513
65.944568
65.814782
65.762551
65.749527
65.747465
65.748035
65.748925
65.749572
65.749949
65.750112
65.750112
65.74995
65.749574
65.748928
65.748038
65.747469
65.749532
65.762557
65.81479
65.944581
66.511689
66.370529
66.308899
66.293125
66.291039
66.291905
66.293039
66.293835
66.294292
66.294488
66.294488
66.294293
66.293837
66.293042
66.291908
66.291043
66.29313
66.308905
66.370538
66.511701
66.935423
66.791185
66.723458
66.705444
66.703803
66.705189
66.706667
66.707662
66.708224
66.708462
66.708462
66.708225
66.707664
66.70667
66.705192
66.703808
66.705449
66.723464
66.791193
66.935434
67.204378
67.062364
66.992441
66.972765
66.971983
66.974109
66.976043
66.977302
66.978001
66.978298
66.978298
66.978002
66.977304
66.976046
66.974112
66.971987
66.972769
66.992447
67.06237
67.204388
67.324431
67.185912
67.118011
67.097248
67.097441
67.10049
67.102994
67.104588
67.105465
67.10584
67.10584
67.105466
67.104589
67.102996
67.100493
67.097445
67.097252
67.118015
67.185917
67.324439
67.319774
67.180387
67.118274
67.096901
67.09767
67.101567
67.104747
67.106747
67.107843
67.108317
67.108317
67.107844
67.106749
67.104749
67.101569
67.097673
67.096903
67.118277
67.180391
67.319779
67.226718
67.076436
67.022662
67.000976
67.001293
67.005508
67.009468
67.011943
67.013297
67.013891
67.013891
67.013298
67.011945
67.009469
67.00551
67.001295
67.000978
67.022664
67.076438
67.226722
67.08818
66.91166
66.86628
66.844406
66.842644
66.846174
66.851021
66.854047
66.855699
66.856437
66.856437
66.855699
66.854048
66.851022
66.846175
66.842645
66.844407
66.866281
66.911661
67.088182
66.952561
66.729771
66.688665
66.66686
66.660858
66.662397
66.668255
66.671934
66.673763
66.674692
66.674692
66.673764
66.671935
66.668256
66.662399
66.660859
66.666861
66.688666
66.729771
66.952562
66.870429
66.562433
66.516607
66.495166
66.478816
66.473918
66.484107
66.488625
66.490355
66.49156
66.49156
66.490356
66.488626
66.484108
66.473919
66.478817
66.495167
66.516608
66.562433
66.87043
66.90471
66.484826
66.420087
66.398007
66.366078
66.35945
66.368978
66.374731
66.376047
66.377226
66.377227
66.376048
66.374733
66.36898
66.359452
66.36608
66.398009
66.420088
66.484826
66.904712
66.965223
66.431212
66.329053
66.302989
66.26455
66.2545
66.266536
66.274301
66.274947
66.274795
66.274795
66.274948
66.274303
66.266539
66.254503
66.264553
66.302991
66.329055
66.431213
66.965227
67.230121
66.523525
66.361066
66.322782
66.270003
66.257768
66.275657
66.286043
66.285823
66.281907
66.281908
66.285825
66.286046
66.275661
66.257772
66.270007
66.322785
66.36107
66.523528
67.230126
67.776886
66.841232
66.593695
66.530162
66.456559
66.4456
66.472365
66.4858
66.485438
66.474828
66.474829
66.485441
66.485804
66.472369
66.445605
66.456563
66.530166
66.5937
66.841237
67.776893
68.699772
67.468291
67.105059
67.000672
66.899062
66.892882
66.930286
66.947091
66.948249
66.928385
66.928386
66.948252
66.947096
66.930292
66.892888
66.899068
67.000678
67.105066
67.468298
68.69978
70.131421
68.5159
67.99429
67.831744
67.693828
67.692979
67.740664
67.761146
67.764787
67.734094
67.734095
67.764791
67.761152
67.74067
67.692986
67.693835
67.831751
67.994298
68.515908
70.131429
72.265515
70.13991
69.401605
69.158801
68.97316
68.973008
69.028424
69.052975
69.056299
69.014333
69.014335
69.056303
69.052981
69.028432
68.973016
68.973169
69.158809
69.401614
70.139917
72.265521
75.39335
72.579044
71.535374
71.177658
70.922663
70.917009
70.976732
71.005946
71.001384
70.948582
70.948584
71.001388
71.005953
70.97674
70.917017
70.922672
71.177667
71.535383
72.579049
75.393349
79.98285
76.205238
74.71506
74.18682
73.822685
73.800474
73.864438
73.899368
73.876913
73.814149
73.814151
73.876917
73.899375
73.864446
73.800482
73.822693
74.186827
74.715066
76.205237
79.982834
86.844211
81.632458
79.460829
78.661027
78.130326
78.066354
78.128241
78.17078
78.121404
78.04953
78.049531
78.121408
78.170787
78.128248
78.066362
78.130333
78.661033
79.460831
81.632444
86.844167
97.411931
89.943225
86.675526
85.396028
84.618621
84.44376
84.486319
84.539795
84.457829
84.377412
84.377414
84.457833
84.539802
84.486324
84.443765
84.618626
85.396029
86.675518
89.943188
97.411838
114.11091
103.10066
97.953315
95.881328
94.652909
94.271698
94.273232
94.343126
94.226719
94.137653
94.137655
94.226722
94.343131
94.273234
94.2717
94.65291
95.881323
97.953291
103.10058
114.11075
125.82432
121.90059
115.29345
112.15563
110.34354
109.54259
109.51342
109.62743
109.49569
109.40563
109.40563
109.4957
109.62744
109.51342
109.5426
110.34355
112.15563
115.29345
121.90062
125.82522
49.561745
85.67163
98.113923
101.85993
103.4643
104.55081
105.54639
106.28548
106.73343
106.93832
106.93835
106.73354
106.28567
105.54664
104.55113
103.46469
101.86042
98.114639
85.672983
49.563637
4.6829143
13.504761
21.130204
24.593625
26.880288
28.203216
29.037897
29.588557
30.042044
30.266016
30.266045
30.042137
29.588708
29.038104
28.20347
26.880584
24.593958
21.13062
13.505248
4.6831685
1.2257591
1.4348021
1.7833329
2.0096566
2.183884
2.2919594
2.3581023
2.4016895
2.4410691
2.461024
2.4610265
2.441077
2.4017021
2.3581193
2.2919794
2.183906
2.0096782
1.7833558
1.4348175
1.2257624
1.2000078
1.2003504
1.201475
1.2025208
1.2034341
1.2040468
1.2044248
1.2046755
1.2049168
1.2050415
1.2050415
1.2049168
1.2046756
1.2044249
1.2040469
1.2034342
1.2025209
1.2014751
1.2003504
1.2000078
1.2000002
1.2000001
1.2000003
1.2000005
1.2000007
1.2000009
1.200001
1.200001
1.2000011
1.2000011
1.2000011
1.2000011
1.200001
1.200001
1.2000009
1.2000007
1.2000005
1.2000003
1.2000001
1.2000002
1.2
1.2000002
1.2000002
1.2000002
1.2000002
1.2000002
1.2000002
1.2000002
1.2000002
1.2000002
1.2000002
1.2000002
1.2000002
1.2000002
1.2000002
1.2000002
1.2000002
1.2000002
1.2000002
1.2
1.2
1.2000001
1.2000002
1.2000002
1.2000002
1.2000002
1.2000002
1.2000002
1.2000002
1.2000002
1.2000002
1.2000002
1.2000002
1.2000002
1.2000002
1.2000002
1.2000002
1.2000002
1.2000001
1.2
1.2
1.2000001
1.2000002
1.2000002
1.2000002
1.2000003
1.2000003
1.2000003
1.2000003
1.2000003
1.2000003
1.2000003
1.2000003
1.2000003
1.2000003
1.2000002
1.2000002
1.2000002
1.2000001
1.2
1.2
1.2
1.2000001
1.2000002
1.2000002
1.2000003
1.2000003
1.2000003
1.2000003
1.2000003
1.2000003
1.2000003
1.2000003
1.2000003
1.2000003
1.2000002
1.2000002
1.2000001
1.2
1.2
1.2
1.2
1.2000001
1.2000002
1.2000003
1.2000003
1.2000003
1.2000003
1.2000003
1.2000003
1.2000003
1.2000003
1.2000003
1.2000003
1.2000003
1.2000003
1.2000002
1.2000001
1.2
1.2
1.2
1.2
1.2000001
1.2000002
1.2000003
1.2000003
1.2000003
1.2000003
1.2000003
1.2000003
1.2000003
1.2000003
1.2000003
1.2000003
1.2000003
1.2000003
1.2000002
1.2000001
1.2
1.2
1.2
1.2
1.2000001
1.2000002
1.2000002
1.2000003
1.2000003
1.2000003
1.2000003
1.2000003
1.2000003
1.2000003
1.2000003
1.2000003
1.2000003
1.2000002
1.2000002
1.2000001
1.2
1.2
1.2
1.2
1.2000001
1.2000001
1.2000002
1.2000003
1.2000003
1.2000003
1.2000003
1.2000003
1.2000003
1.2000003
1.2000003
1.2000003
1.2000003
1.2000002
1.2000001
1.2000001
1.2
1.2
)
;

boundaryField
{
    Wall
    {
        type            calculated;
        value           nonuniform List<scalar> 
100
(
1e-15
1.7771004e-12
2.2304454e-08
9.8200305e-08
2.6074872e-07
5.4266577e-07
9.7534265e-07
1.5878499e-06
2.4057958e-06
3.4492071e-06
4.7265355e-06
6.2718097e-06
8.0400422e-06
1.0023999e-05
1.5838184e-05
1.7176033e-05
3.5374759e-05
3.9686767e-05
3.9686618e-05
3.2285257e-05
2.123256e-05
2.123318e-05
2.1318137e-05
3.5678631e-05
0.00023086085
0.0036605495
0.14755187
0.89902898
1.1848975
1.1999276
1.2
1.2
1.2
1.2
1.2
1.2
1.2
1.2
1.2
1.2
1e-15
8.7411886e-15
2.2303673e-08
9.8200895e-08
2.6075155e-07
5.4267179e-07
9.7535263e-07
1.5878642e-06
2.4058141e-06
3.4492285e-06
4.7265591e-06
6.271834e-06
8.0400672e-06
1.0024048e-05
1.5838287e-05
1.7175994e-05
3.5375077e-05
3.9686975e-05
3.9686826e-05
3.228548e-05
2.1232806e-05
2.1233437e-05
2.1318406e-05
3.5677731e-05
0.0002308489
0.0036602947
0.14754174
0.89901599
1.1848963
1.1999275
1.2
1.2
1.2
1.2
1.2
1.2
1.2
1.2
1.2
1.2
1e-15
1e-15
1.0000005e-15
1.000001e-15
1e-15
1.0000013e-15
1.0000011e-15
1.0000001e-15
1e-15
1e-15
1e-15
1e-15
1e-15
1.0000001e-15
1.0000001e-15
1e-15
1e-15
1e-15
1e-15
1e-15
)
;
    }
    frontAndBack
    {
        type            empty;
    }
    atmosphere
    {
        type            calculated;
        value           nonuniform List<scalar> 
20
(
1.2
1.2
1.2
1.2
1.2
1.2
1.2
1.2
1.2
1.2
1.2
1.2
1.2
1.2
1.2
1.2
1.2
1.2
1.2
1.2
)
;
    }
}


// ************************************************************************* //
