/*--------------------------------*- C++ -*----------------------------------*\
| =========                 |                                                 |
| \\      /  F ield         | OpenFOAM: The Open Source CFD Toolbox           |
|  \\    /   O peration     | Version:  3.0.1                                 |
|   \\  /    A nd           | Web:      www.OpenFOAM.org                      |
|    \\/     M anipulation  |                                                 |
\*---------------------------------------------------------------------------*/
FoamFile
{
    version     2.0;
    format      ascii;
    class       volScalarField;
    location    "31";
    object      rho_foam;
}
// * * * * * * * * * * * * * * * * * * * * * * * * * * * * * * * * * * * * * //

dimensions      [1 -3 0 0 0 0 0];

internalField   nonuniform List<scalar> 
800
(
63.215724
63.210341
63.209398
63.209312
63.209328
63.209342
63.209343
63.209338
63.209333
63.209331
63.20933
63.209333
63.209338
63.209343
63.209342
63.209328
63.209311
63.209397
63.210341
63.215724
63.825428
63.776663
63.764859
63.762275
63.762173
63.762569
63.762937
63.763177
63.763308
63.763365
63.763364
63.763308
63.763177
63.762938
63.76257
63.762174
63.762276
63.764861
63.776665
63.825432
64.538136
64.456637
64.430271
64.423942
64.423082
64.423537
64.424108
64.424511
64.424741
64.424842
64.424842
64.424742
64.424512
64.424109
64.423539
64.423084
64.423945
64.430275
64.456641
64.538145
65.268507
65.159225
65.118951
65.109088
65.107477
65.107938
65.108657
65.109182
65.109488
65.109622
65.109622
65.109489
65.109184
65.108659
65.107941
65.107481
65.109092
65.118956
65.159231
65.268518
65.944582
65.814794
65.762563
65.749539
65.747476
65.748047
65.748937
65.749584
65.74996
65.750124
65.750124
65.749961
65.749586
65.748939
65.74805
65.747481
65.749544
65.762569
65.814802
65.944595
66.511718
66.370556
66.308924
66.293149
66.291063
66.291929
66.293063
66.293859
66.294316
66.294513
66.294513
66.294317
66.293861
66.293066
66.291933
66.291068
66.293155
66.30893
66.370564
66.511731
66.935476
66.791232
66.723502
66.705488
66.703847
66.705233
66.706711
66.707706
66.708268
66.708506
66.708506
66.708269
66.707708
66.706714
66.705236
66.703852
66.705493
66.723508
66.79124
66.935488
67.204466
67.062441
66.992514
66.972836
66.972054
66.974181
66.976115
66.977374
66.978073
66.97837
66.97837
66.978074
66.977375
66.976117
66.974184
66.972058
66.972841
66.99252
67.062448
67.204475
67.324564
67.186031
67.118121
67.097357
67.09755
67.100599
67.103103
67.104696
67.105574
67.105949
67.105949
67.105575
67.104698
67.103105
67.100602
67.097553
67.09736
67.118125
67.186036
67.324571
67.319964
67.180557
67.118432
67.097056
67.097825
67.101722
67.104902
67.106903
67.107998
67.108472
67.108472
67.107999
67.106904
67.104904
67.101724
67.097828
67.097059
67.118435
67.180561
67.319969
67.226978
67.07667
67.022879
67.001188
67.001504
67.00572
67.00968
67.012156
67.01351
67.014104
67.014104
67.013511
67.012157
67.009681
67.005722
67.001506
67.00119
67.022881
67.076672
67.226982
67.088525
66.911979
66.866568
66.844685
66.842922
66.846453
66.8513
66.854326
66.855978
66.856717
66.856717
66.855979
66.854328
66.851302
66.846454
66.842924
66.844686
66.866569
66.91198
67.088527
66.953001
66.730166
66.689024
66.667212
66.661211
66.662754
66.668612
66.672291
66.67412
66.675049
66.675049
66.674121
66.672292
66.668613
66.662755
66.661212
66.667213
66.689025
66.730167
66.953003
66.870977
66.562902
66.517052
66.495615
66.4793
66.474381
66.48455
66.489069
66.490799
66.492004
66.492004
66.490801
66.48907
66.484552
66.474383
66.479302
66.495615
66.517053
66.562902
66.870979
66.905577
66.485691
66.420693
66.398804
66.366874
66.359995
66.369517
66.375271
66.376587
66.377767
66.377767
66.376588
66.375273
66.369519
66.359997
66.366876
66.398805
66.420694
66.485692
66.905579
66.966165
66.433368
66.330755
66.30439
66.265324
66.255122
66.267178
66.274944
66.27559
66.275439
66.275439
66.275592
66.274947
66.267181
66.255124
66.265327
66.304392
66.330757
66.43337
66.966168
67.232067
66.525686
66.363221
66.323944
66.27074
66.258532
66.276409
66.286796
66.286577
66.282662
66.282662
66.28658
66.2868
66.276413
66.258536
66.270744
66.323947
66.363225
66.525689
67.232072
67.779088
66.843403
66.595509
66.531123
66.457298
66.446473
66.473234
66.486671
66.48631
66.4757
66.4757
66.486313
66.486675
66.473239
66.446478
66.457303
66.531128
66.595514
66.843408
67.779095
68.702004
67.470483
67.10606
67.001566
66.899865
66.893852
66.931281
66.948087
66.949246
66.929382
66.929383
66.949249
66.948092
66.931287
66.893858
66.899871
67.001572
67.106067
67.47049
68.702013
70.133275
68.517191
67.995393
67.832705
67.694974
67.694098
67.741793
67.762278
67.76592
67.735226
67.735228
67.765923
67.762283
67.7418
67.694105
67.694981
67.832712
67.995401
68.517199
70.133284
72.266772
70.141129
69.402954
69.159814
68.974473
68.974281
69.029701
69.054254
69.05758
69.015614
69.015615
69.057584
69.054261
69.029709
68.974288
68.974481
69.159822
69.402963
70.141137
72.266778
75.394663
72.580307
71.536707
71.178864
70.924046
70.918449
70.978176
71.007392
71.002831
70.950029
70.95003
71.002835
71.007399
70.978183
70.918457
70.924055
71.178872
71.536715
72.580312
75.394662
79.984249
76.206565
74.716366
74.188213
73.82426
73.802123
73.866094
73.901027
73.878573
73.815808
73.815809
73.878577
73.901035
73.866102
73.802132
73.824269
74.188221
74.716372
76.206564
79.984234
86.846757
81.633887
79.462233
78.662829
78.132354
78.068423
78.13031
78.172849
78.12347
78.051592
78.051594
78.123474
78.172856
78.130317
78.068431
78.132362
78.662835
79.462234
81.633873
86.846713
97.430445
89.949578
86.679282
85.400191
84.622759
84.447809
84.490312
84.543759
84.461754
84.381315
84.381317
84.461757
84.543765
84.490318
84.447815
84.622764
85.400192
86.679274
89.94954
97.43035
114.45639
103.19326
97.996448
95.915032
94.682149
94.298859
94.299452
94.368858
94.251924
94.162589
94.16259
94.251927
94.368863
94.299454
94.298862
94.682149
95.915026
97.996423
103.19318
114.45621
143.29649
125.44659
116.6671
113.0909
111.09467
110.21321
110.14779
110.24282
110.09226
109.99278
109.99279
110.09227
110.24283
110.14779
110.21321
111.09466
113.09089
116.66705
125.44644
143.29615
194.02287
165.57529
149.19165
143.07789
139.19196
137.67435
137.50759
137.64178
137.45596
137.33934
137.33934
137.45595
137.64177
137.50757
137.67433
139.19194
143.07784
149.19153
165.57493
194.02208
277.94171
227.68741
200.88993
189.34937
183.229
180.74439
180.40689
180.64054
180.45467
180.33328
180.33328
180.45465
180.6405
180.40684
180.74432
183.22892
189.34925
200.88965
227.6867
277.93998
427.8714
319.29039
272.11272
250.39922
239.69635
235.44689
234.78685
235.33608
235.44007
235.47755
235.47754
235.44003
235.33602
234.78678
235.44683
239.69627
250.39908
272.11225
319.28928
427.86789
669.22861
446.48911
363.53311
325.83036
307.81877
300.88893
300.03307
301.45874
302.38633
302.8934
302.89338
302.38625
301.45862
300.03295
300.88882
307.81868
325.83005
363.53242
446.48759
669.2235
917.59871
603.45289
473.81617
414.37697
386.4904
375.82292
374.66805
377.39916
379.79968
381.21376
381.21372
379.79955
377.39897
374.66788
375.82277
386.49026
414.37657
473.8154
603.45137
917.59442
1048.8527
765.65329
595.82495
512.73082
473.31441
458.08832
456.29718
460.36495
464.52079
467.0939
467.09384
464.52065
460.36473
456.297
458.08817
473.3143
512.7305
595.82424
765.65201
1048.8509
1087.1492
901.60695
717.64799
615.47337
565.09478
545.03847
542.18437
547.18673
552.8868
556.55728
556.55722
552.88665
547.18651
542.1842
545.03834
565.0947
615.47317
717.64758
901.60618
1087.1487
1094.9151
994.31158
826.92693
715.94882
657.59585
633.36011
629.15315
634.42735
641.06093
645.47451
645.47445
641.0608
634.42716
629.15302
633.36001
657.59583
715.94867
826.92668
994.31107
1094.9151
1096.2047
1047.4741
915.42687
807.71142
746.13895
719.21578
713.63952
718.4945
725.28348
729.93454
729.9345
725.28338
718.49437
713.63943
719.21572
746.13897
807.71137
915.42672
1047.4738
1096.2047
1096.3955
1074.3378
980.8272
886.0606
826.43394
798.79973
792.13546
796.05005
802.29093
806.69192
806.6919
802.29088
796.04998
792.13541
798.79971
826.43399
886.06061
980.8271
1074.3377
1096.3955
1096.422
1086.8459
1025.664
948.89055
895.40328
869.02547
861.7716
864.49986
869.72513
873.52851
873.5285
869.72511
864.49984
861.77158
869.02548
895.40334
948.89059
1025.6639
1086.8459
1096.422
1096.4256
1092.3817
1054.6102
996.50237
951.62755
928.04135
920.77076
922.33715
926.36095
929.4021
929.40211
926.36096
922.33716
920.77078
928.04138
951.62761
996.50241
1054.6102
1092.3816
1096.4256
1096.426
1094.7527
1072.4359
1030.8414
995.29874
975.38971
968.60597
969.22021
972.09012
974.3648
974.36481
972.09014
969.22025
968.606
975.38976
995.2988
1030.8414
1072.4359
1094.7527
1096.426
)
;

boundaryField
{
    Wall
    {
        type            zeroGradient;
    }
    frontAndBack
    {
        type            empty;
    }
    atmosphere
    {
        type            zeroGradient;
    }
}


// ************************************************************************* //
