/*--------------------------------*- C++ -*----------------------------------*\
| =========                 |                                                 |
| \\      /  F ield         | OpenFOAM: The Open Source CFD Toolbox           |
|  \\    /   O peration     | Version:  3.0.1                                 |
|   \\  /    A nd           | Web:      www.OpenFOAM.org                      |
|    \\/     M anipulation  |                                                 |
\*---------------------------------------------------------------------------*/
FoamFile
{
    version     2.0;
    format      ascii;
    class       volScalarField;
    location    "31";
    object      thermalDiffusivity;
}
// * * * * * * * * * * * * * * * * * * * * * * * * * * * * * * * * * * * * * //

dimensions      [0 2 -1 0 0 0 0];

internalField   nonuniform List<scalar> 
800
(
1.5177588e-07
1.5178428e-07
1.5178575e-07
1.5178589e-07
1.5178586e-07
1.5178584e-07
1.5178584e-07
1.5178585e-07
1.5178585e-07
1.5178586e-07
1.5178586e-07
1.5178585e-07
1.5178585e-07
1.5178584e-07
1.5178584e-07
1.5178586e-07
1.5178589e-07
1.5178576e-07
1.5178428e-07
1.5177588e-07
1.5082355e-07
1.5089859e-07
1.5091675e-07
1.5092071e-07
1.5092086e-07
1.5092025e-07
1.5091968e-07
1.5091932e-07
1.5091912e-07
1.5091904e-07
1.5091903e-07
1.5091912e-07
1.5091932e-07
1.5091968e-07
1.5092025e-07
1.5092086e-07
1.5092071e-07
1.5091674e-07
1.5089859e-07
1.5082354e-07
1.4974218e-07
1.4986412e-07
1.4990357e-07
1.49913e-07
1.4991426e-07
1.4991356e-07
1.4991271e-07
1.4991211e-07
1.4991177e-07
1.4991163e-07
1.4991162e-07
1.4991177e-07
1.4991211e-07
1.4991271e-07
1.4991356e-07
1.4991425e-07
1.4991299e-07
1.4990356e-07
1.4986411e-07
1.4974217e-07
1.4867526e-07
1.4883292e-07
1.4889114e-07
1.4890532e-07
1.4890758e-07
1.4890689e-07
1.4890585e-07
1.489051e-07
1.4890467e-07
1.4890449e-07
1.4890448e-07
1.4890467e-07
1.489051e-07
1.4890585e-07
1.4890689e-07
1.4890758e-07
1.4890531e-07
1.4889112e-07
1.4883291e-07
1.4867524e-07
1.4773563e-07
1.4791448e-07
1.4798685e-07
1.4800482e-07
1.4800756e-07
1.4800673e-07
1.480055e-07
1.4800463e-07
1.4800413e-07
1.4800392e-07
1.4800392e-07
1.4800413e-07
1.4800462e-07
1.480055e-07
1.4800673e-07
1.4800756e-07
1.4800481e-07
1.4798684e-07
1.4791447e-07
1.4773561e-07
1.4700297e-07
1.4718619e-07
1.4726704e-07
1.4728778e-07
1.4729032e-07
1.472891e-07
1.4728761e-07
1.472866e-07
1.4728605e-07
1.4728582e-07
1.4728582e-07
1.4728605e-07
1.472866e-07
1.472876e-07
1.4728909e-07
1.4729031e-07
1.4728777e-07
1.4726703e-07
1.4718618e-07
1.4700295e-07
1.465244e-07
1.4669676e-07
1.4677892e-07
1.4680124e-07
1.4680287e-07
1.4680098e-07
1.4679915e-07
1.4679798e-07
1.4679736e-07
1.4679711e-07
1.467971e-07
1.4679736e-07
1.4679798e-07
1.4679914e-07
1.4680098e-07
1.4680287e-07
1.4680123e-07
1.4677891e-07
1.4669675e-07
1.4652439e-07
1.4631489e-07
1.4646551e-07
1.4654016e-07
1.4656258e-07
1.4656273e-07
1.4655992e-07
1.4655764e-07
1.4655626e-07
1.4655556e-07
1.4655528e-07
1.4655528e-07
1.4655556e-07
1.4655626e-07
1.4655764e-07
1.4655992e-07
1.4656272e-07
1.4656258e-07
1.4654015e-07
1.464655e-07
1.4631488e-07
1.4636777e-07
1.4649148e-07
1.4654809e-07
1.4656878e-07
1.465673e-07
1.4656341e-07
1.465606e-07
1.4655897e-07
1.4655817e-07
1.4655785e-07
1.4655785e-07
1.4655817e-07
1.4655897e-07
1.4656059e-07
1.4656341e-07
1.465673e-07
1.4656878e-07
1.4654809e-07
1.4649148e-07
1.4636777e-07
1.4665315e-07
1.4675214e-07
1.4678031e-07
1.4679679e-07
1.4679425e-07
1.4678948e-07
1.4678608e-07
1.4678417e-07
1.4678325e-07
1.4678289e-07
1.4678288e-07
1.4678325e-07
1.4678417e-07
1.4678608e-07
1.4678948e-07
1.4679425e-07
1.4679679e-07
1.467803e-07
1.4675214e-07
1.4665315e-07
1.4712422e-07
1.4721363e-07
1.4720436e-07
1.4720936e-07
1.4720716e-07
1.4720238e-07
1.4719833e-07
1.4719611e-07
1.4719506e-07
1.4719464e-07
1.4719464e-07
1.4719506e-07
1.4719611e-07
1.4719833e-07
1.4720238e-07
1.4720716e-07
1.4720936e-07
1.4720436e-07
1.4721364e-07
1.4712422e-07
1.477331e-07
1.4786245e-07
1.4777143e-07
1.4776126e-07
1.4776134e-07
1.4775793e-07
1.4775349e-07
1.4775092e-07
1.4774974e-07
1.4774926e-07
1.4774925e-07
1.4774974e-07
1.4775092e-07
1.4775349e-07
1.4775794e-07
1.4776134e-07
1.4776127e-07
1.4777143e-07
1.4786246e-07
1.477331e-07
1.4840323e-07
1.4850197e-07
1.4838241e-07
1.4837963e-07
1.4838895e-07
1.484078e-07
1.483993e-07
1.4839614e-07
1.4839506e-07
1.4839447e-07
1.4839447e-07
1.4839507e-07
1.4839615e-07
1.483993e-07
1.484078e-07
1.4838895e-07
1.4837964e-07
1.4838241e-07
1.4850198e-07
1.4840323e-07
1.4905866e-07
1.4911048e-07
1.4905943e-07
1.4910543e-07
1.4931081e-07
1.4921183e-07
1.4909781e-07
1.4909441e-07
1.490939e-07
1.4909312e-07
1.4909311e-07
1.490939e-07
1.4909441e-07
1.4909781e-07
1.4921184e-07
1.4931078e-07
1.4910541e-07
1.4905944e-07
1.4911049e-07
1.4905867e-07
1.506149e-07
1.5122738e-07
1.5001591e-07
1.5100919e-07
1.5105593e-07
1.4979656e-07
1.4975285e-07
1.4974887e-07
1.4974939e-07
1.4974888e-07
1.4974888e-07
1.4974939e-07
1.4974887e-07
1.4975285e-07
1.4979658e-07
1.5105596e-07
1.5100904e-07
1.5001591e-07
1.5122753e-07
1.5061493e-07
1.5093458e-07
1.5792386e-07
1.5576596e-07
1.5426589e-07
1.5112315e-07
1.5035648e-07
1.5044458e-07
1.5043853e-07
1.5044042e-07
1.5044214e-07
1.5044214e-07
1.5044042e-07
1.5043853e-07
1.5044458e-07
1.5035647e-07
1.5112328e-07
1.5426606e-07
1.5576586e-07
1.5792394e-07
1.5093456e-07
1.5570526e-07
1.5790329e-07
1.5813552e-07
1.5306305e-07
1.5094482e-07
1.5110499e-07
1.5101632e-07
1.5100657e-07
1.5101009e-07
1.5101758e-07
1.5101758e-07
1.5101009e-07
1.5100657e-07
1.5101632e-07
1.5110497e-07
1.5094491e-07
1.5306325e-07
1.5813558e-07
1.5790335e-07
1.5570534e-07
1.5626236e-07
1.5755724e-07
1.5609168e-07
1.517456e-07
1.5069623e-07
1.5141162e-07
1.5135393e-07
1.5133976e-07
1.5134364e-07
1.5136102e-07
1.5136102e-07
1.5134364e-07
1.5133976e-07
1.5135393e-07
1.5141163e-07
1.5069633e-07
1.5174571e-07
1.5609168e-07
1.575573e-07
1.5626241e-07
1.5510664e-07
1.5677816e-07
1.5111874e-07
1.5071533e-07
1.5038977e-07
1.5127315e-07
1.5134816e-07
1.5133219e-07
1.5133392e-07
1.5136439e-07
1.5136439e-07
1.5133392e-07
1.5133218e-07
1.5134815e-07
1.5127313e-07
1.5038971e-07
1.5071518e-07
1.5111876e-07
1.5677822e-07
1.5510669e-07
1.5116093e-07
1.5058848e-07
1.5036916e-07
1.4986833e-07
1.5104169e-07
1.5089864e-07
1.5088133e-07
1.5086339e-07
1.5086169e-07
1.5090651e-07
1.5090651e-07
1.5086168e-07
1.5086339e-07
1.5088132e-07
1.5089866e-07
1.5104214e-07
1.4986843e-07
1.5036946e-07
1.5058813e-07
1.5116099e-07
1.4530714e-07
1.4794933e-07
1.4964248e-07
1.4825555e-07
1.5007027e-07
1.4986402e-07
1.498081e-07
1.4978708e-07
1.4978611e-07
1.4984431e-07
1.4984431e-07
1.497861e-07
1.4978707e-07
1.498081e-07
1.4986404e-07
1.5007026e-07
1.4825559e-07
1.4964263e-07
1.4794939e-07
1.4530721e-07
1.4167371e-07
1.4491061e-07
1.4662629e-07
1.4647234e-07
1.4771632e-07
1.4801014e-07
1.4794879e-07
1.479259e-07
1.4793543e-07
1.48004e-07
1.48004e-07
1.4793543e-07
1.4792589e-07
1.4794879e-07
1.4801013e-07
1.4771552e-07
1.4647121e-07
1.4662667e-07
1.4491069e-07
1.4167379e-07
1.3686096e-07
1.4072667e-07
1.4240868e-07
1.4348868e-07
1.4482597e-07
1.4521879e-07
1.4517189e-07
1.4514566e-07
1.45174e-07
1.4524769e-07
1.4524768e-07
1.45174e-07
1.4514566e-07
1.4517189e-07
1.4521875e-07
1.4482575e-07
1.4348884e-07
1.4240875e-07
1.4072675e-07
1.3686105e-07
1.3465549e-07
1.3516307e-07
1.3733481e-07
1.4000688e-07
1.4163676e-07
1.418997e-07
1.4183537e-07
1.4179456e-07
1.4183411e-07
1.4190217e-07
1.4190217e-07
1.4183411e-07
1.4179456e-07
1.4183536e-07
1.4189969e-07
1.416369e-07
1.4000742e-07
1.3733497e-07
1.3516316e-07
1.3465528e-07
1.79753e-07
1.4587057e-07
1.3936334e-07
1.4235476e-07
1.4311037e-07
1.4295582e-07
1.4269422e-07
1.4252752e-07
1.4245909e-07
1.4246065e-07
1.4246064e-07
1.4245907e-07
1.4252749e-07
1.4269416e-07
1.4295576e-07
1.4311041e-07
1.4235486e-07
1.3936285e-07
1.4586995e-07
1.7974986e-07
1.0402235e-06
3.9787845e-07
2.5822856e-07
2.3182354e-07
2.1916305e-07
2.1290021e-07
2.0974857e-07
2.0802515e-07
2.0643316e-07
2.0567375e-07
2.0567366e-07
2.0643289e-07
2.080247e-07
2.097479e-07
2.1289928e-07
2.1916187e-07
2.318218e-07
2.5822484e-07
3.9786518e-07
1.0401595e-06
3.583818e-05
8.4331197e-06
3.6211913e-06
2.5889566e-06
2.1489387e-06
1.9486685e-06
1.8525758e-06
1.8003285e-06
1.7518918e-06
1.7280084e-06
1.7280055e-06
1.751883e-06
1.8003139e-06
1.8525545e-06
1.9486404e-06
2.1489017e-06
2.5888975e-06
3.6210778e-06
8.4326813e-06
3.5835729e-05
0.00028236961
0.00013748975
9.8160158e-05
8.291373e-05
7.4089236e-05
6.9576033e-05
6.7288286e-05
6.5994958e-05
6.4777902e-05
6.4169022e-05
6.4168946e-05
6.4777663e-05
6.5994562e-05
6.7287732e-05
6.9575331e-05
7.4088389e-05
8.2912665e-05
9.8158629e-05
0.00013748711
0.0002823696
0.00027715611
0.00027736087
0.00027753588
0.00027791726
0.00027829643
0.00027861198
0.00027884672
0.00027901219
0.00027911683
0.00027916795
0.00027916795
0.00027911682
0.00027901219
0.00027884672
0.00027861197
0.00027829643
0.00027791726
0.00027753587
0.00027736087
0.0002771561
0.00027230113
0.00027252579
0.00027279519
0.00027312322
0.00027344458
0.00027372367
0.00027394455
0.00027410599
0.0002742107
0.00027426219
0.00027426219
0.0002742107
0.00027410599
0.00027394455
0.00027372367
0.00027344457
0.00027312322
0.00027279519
0.00027252579
0.00027230113
0.00026781838
0.000268102
0.00026843392
0.00026876993
0.00026907988
0.0002693452
0.00026955676
0.00026971288
0.0002698151
0.00026986557
0.00026986557
0.0002698151
0.00026971288
0.00026955675
0.0002693452
0.00026907988
0.00026876993
0.00026843392
0.000268102
0.00026781839
0.00026374488
0.0002640744
0.00026446022
0.00026482652
0.00026514771
0.00026541422
0.00026562323
0.00026577614
0.00026587584
0.00026592496
0.00026592496
0.00026587584
0.00026577614
0.00026562323
0.00026541422
0.00026514771
0.00026482652
0.00026446022
0.00026407441
0.00026374488
0.00026010672
0.00026045748
0.0002608807
0.00026127829
0.00026161877
0.00026189466
0.00026210703
0.00026226029
0.00026235931
0.00026240783
0.00026240783
0.00026235931
0.00026226029
0.00026210703
0.00026189466
0.00026161877
0.00026127829
0.00026088071
0.00026045749
0.00026010673
0.00025691246
0.00025726132
0.00025769988
0.00025811778
0.00025847519
0.00025876246
0.00025898138
0.00025913789
0.00025923827
0.00025928723
0.00025928723
0.00025923827
0.00025913789
0.00025898138
0.00025876246
0.0002584752
0.00025811778
0.00025769989
0.00025726133
0.00025691247
0.00025415634
0.0002544868
0.00025491957
0.00025534212
0.00025570806
0.00025600352
0.00025622878
0.0002563896
0.00025649251
0.00025654264
0.00025654264
0.00025649251
0.0002563896
0.00025622878
0.00025600352
0.00025570806
0.00025534212
0.00025491958
0.00025448681
0.00025415634
0.00025183054
0.00025213216
0.00025254209
0.0002529537
0.00025331723
0.00025361463
0.00025384338
0.00025400762
0.0002541131
0.00025416456
0.00025416457
0.0002541131
0.00025400763
0.00025384339
0.00025361463
0.00025331724
0.00025295371
0.0002525421
0.00025213217
0.00025183055
0.00024993287
0.00025019954
0.00025057452
0.00025096223
0.00025131289
0.00025160517
0.00025183329
0.00025199888
0.00025210602
0.00025215853
0.00025215853
0.00025210602
0.00025199888
0.0002518333
0.00025160517
0.00025131289
0.00025096223
0.00025057453
0.00025019954
0.00024993288
0.00024847044
0.00024869941
0.00024903272
0.00024938826
0.00024971855
0.00025000003
0.0002502237
0.00025038832
0.00025049589
0.00025054893
0.00025054893
0.0002504959
0.00025038832
0.00025022371
0.00025000003
0.00024971856
0.00024938827
0.00024903272
0.00024869942
0.00024847044
0.00024746211
0.00024765482
0.00024794658
0.0002482685
0.00024857613
0.00024884443
0.00024906162
0.00024922377
0.0002493308
0.00024938388
0.00024938388
0.0002493308
0.00024922377
0.00024906163
0.00024884443
0.00024857613
0.00024826851
0.00024794659
0.00024765483
0.00024746212
0.00024693882
0.00024710438
0.00024736555
0.00024766259
0.00024795312
0.00024821117
0.00024842301
0.00024858283
0.0002486891
0.00024874203
0.00024874203
0.0002486891
0.00024858284
0.00024842302
0.00024821117
0.00024795313
0.00024766259
0.00024736555
0.00024710439
0.00024693883
)
;

boundaryField
{
    Wall
    {
        type            calculated;
        value           uniform 4e-05;
    }
    frontAndBack
    {
        type            empty;
    }
    atmosphere
    {
        type            calculated;
        value           uniform 4e-05;
    }
}


// ************************************************************************* //
