/*--------------------------------*- C++ -*----------------------------------*\
| =========                 |                                                 |
| \\      /  F ield         | OpenFOAM: The Open Source CFD Toolbox           |
|  \\    /   O peration     | Version:  3.0.1                                 |
|   \\  /    A nd           | Web:      www.OpenFOAM.org                      |
|    \\/     M anipulation  |                                                 |
\*---------------------------------------------------------------------------*/
FoamFile
{
    version     2.0;
    format      ascii;
    class       volScalarField;
    location    "31";
    object      thermalConductivity;
}
// * * * * * * * * * * * * * * * * * * * * * * * * * * * * * * * * * * * * * //

dimensions      [0 2 -1 0 0 0 0];

internalField   nonuniform List<scalar> 
800
(
0.017316653
0.017316135
0.017316045
0.017316037
0.017316038
0.01731604
0.01731604
0.017316039
0.017316039
0.017316038
0.017316038
0.017316039
0.017316039
0.01731604
0.01731604
0.017316038
0.017316037
0.017316045
0.017316135
0.017316652
0.017375862
0.01737115
0.017370012
0.017369763
0.017369754
0.017369792
0.017369828
0.017369851
0.017369863
0.017369869
0.017369869
0.017369863
0.017369851
0.017369828
0.017369792
0.017369754
0.017369763
0.017370012
0.01737115
0.017375862
0.017445017
0.017437136
0.017434589
0.01743398
0.017433898
0.017433942
0.017433998
0.017434037
0.017434059
0.017434068
0.017434068
0.017434059
0.017434037
0.017433998
0.017433943
0.017433898
0.01743398
0.01743459
0.017437136
0.017445018
0.017515871
0.017505293
0.0175014
0.01750045
0.017500296
0.017500341
0.017500411
0.017500462
0.017500491
0.017500504
0.017500504
0.017500491
0.017500462
0.017500411
0.017500341
0.017500296
0.01750045
0.0175014
0.017505294
0.017515872
0.01758144
0.017568869
0.017563816
0.017562559
0.017562362
0.017562419
0.017562505
0.017562568
0.017562604
0.01756262
0.01756262
0.017562604
0.017562568
0.017562506
0.017562419
0.017562363
0.01756256
0.017563816
0.01756887
0.017581441
0.017636405
0.017622727
0.017616761
0.017615237
0.017615039
0.017615124
0.017615235
0.017615312
0.017615356
0.017615375
0.017615375
0.017615356
0.017615312
0.017615235
0.017615125
0.017615039
0.017615238
0.017616761
0.017622728
0.017636407
0.017677419
0.017663437
0.017656877
0.017655136
0.017654981
0.017655117
0.017655261
0.017655357
0.017655412
0.017655435
0.017655435
0.017655412
0.017655358
0.017655261
0.017655117
0.017654981
0.017655136
0.017656878
0.017663438
0.01767742
0.017703384
0.01768961
0.017682838
0.017680933
0.017680862
0.01768107
0.017681259
0.017681381
0.017681449
0.017681477
0.017681477
0.017681449
0.017681381
0.017681259
0.017681071
0.017680862
0.017680934
0.017682838
0.017689611
0.017703385
0.017714901
0.01770145
0.017694875
0.017692863
0.017692886
0.017693184
0.017693428
0.017693583
0.017693668
0.017693704
0.017693704
0.017693668
0.017693583
0.017693428
0.017693185
0.017692887
0.017692864
0.017694876
0.01770145
0.017714902
0.017714373
0.017700806
0.017694796
0.017692722
0.017692799
0.017693179
0.017693488
0.017693682
0.017693789
0.017693835
0.017693835
0.017693789
0.017693682
0.017693488
0.017693179
0.017692799
0.017692723
0.017694796
0.017700807
0.017714374
0.017705389
0.017690713
0.017685511
0.017683405
0.017683433
0.017683841
0.017684226
0.017684466
0.017684598
0.017684655
0.017684655
0.017684598
0.017684467
0.017684226
0.017683841
0.017683433
0.017683405
0.017685511
0.017690713
0.017705389
0.017692186
0.017674887
0.01767049
0.017668363
0.017668181
0.017668518
0.017668989
0.017669283
0.017669443
0.017669515
0.017669515
0.017669443
0.017669283
0.017668989
0.017668518
0.017668181
0.017668363
0.01767049
0.017674887
0.017692186
0.017679535
0.017657641
0.017653635
0.017651514
0.017650908
0.017651046
0.017651615
0.017651972
0.017652149
0.017652239
0.017652239
0.017652149
0.017651972
0.017651615
0.017651046
0.017650908
0.017651514
0.017653635
0.017657641
0.017679535
0.017672812
0.017642448
0.017637935
0.017635849
0.017634217
0.017633709
0.017634709
0.017635147
0.017635313
0.01763543
0.01763543
0.017635313
0.017635147
0.017634709
0.01763371
0.017634218
0.017635849
0.017637935
0.017642448
0.017672812
0.017677575
0.017636192
0.017629756
0.017627621
0.017624444
0.017623762
0.017624677
0.017625236
0.017625358
0.017625471
0.017625471
0.017625358
0.017625236
0.017624677
0.017623762
0.017624444
0.017627621
0.017629756
0.017636192
0.017677575
0.017684624
0.017632228
0.017622052
0.017619463
0.017615625
0.017614613
0.017615785
0.017616541
0.017616593
0.017616571
0.017616572
0.017616593
0.017616542
0.017615785
0.017614613
0.017615626
0.017619463
0.017622052
0.017632229
0.017684625
0.017712632
0.017643022
0.017626921
0.017623038
0.017617792
0.017616587
0.017618335
0.017619348
0.017619309
0.017618911
0.017618911
0.01761931
0.017619348
0.017618335
0.017616588
0.017617792
0.017623038
0.017626921
0.017643023
0.017712633
0.017768701
0.017676386
0.017651833
0.017645451
0.017638163
0.017637102
0.017639723
0.017641034
0.017640977
0.017639913
0.017639913
0.017640977
0.017641034
0.017639723
0.017637103
0.017638163
0.017645451
0.017651834
0.017676387
0.017768701
0.017862397
0.01774068
0.017704574
0.017694207
0.017684156
0.017683572
0.017687235
0.017688875
0.017688964
0.017686983
0.017686983
0.017688964
0.017688876
0.017687236
0.017683572
0.017684156
0.017694208
0.017704575
0.017740681
0.017862398
0.018007284
0.017847089
0.017795303
0.017779147
0.017765506
0.017765414
0.017770075
0.017772076
0.017772397
0.017769347
0.017769347
0.017772398
0.017772077
0.017770075
0.017765415
0.017765507
0.017779148
0.017795304
0.01784709
0.018007284
0.018223492
0.01801183
0.017938312
0.017914108
0.017895679
0.017895617
0.017901023
0.017903428
0.017903688
0.01789952
0.01789952
0.017903688
0.017903429
0.017901024
0.017895618
0.01789568
0.017914109
0.017938313
0.01801183
0.018223492
0.018541893
0.018259765
0.018155236
0.018119429
0.018093928
0.018093273
0.018099095
0.018101967
0.018101391
0.018096142
0.018096142
0.018101392
0.018101968
0.018099095
0.018093274
0.018093928
0.01811943
0.018155237
0.018259765
0.018541893
0.019012978
0.018630499
0.018479934
0.018426634
0.018389886
0.018387476
0.018393716
0.01839717
0.018394744
0.018388479
0.018388479
0.018394744
0.018397171
0.018393716
0.018387477
0.018389887
0.018426635
0.018479935
0.018630499
0.019012976
0.019726772
0.019191042
0.018968796
0.018887046
0.018832898
0.018826011
0.018831987
0.018836234
0.018831025
0.018823797
0.018823797
0.018831025
0.018836234
0.018831988
0.018826012
0.018832899
0.018887046
0.018968796
0.019191041
0.019726767
0.020850019
0.020063953
0.019722739
0.019589467
0.019508791
0.019489926
0.019493814
0.019499225
0.019490595
0.019482404
0.019482404
0.019490596
0.019499226
0.019493815
0.019489927
0.019508792
0.019589467
0.019722739
0.020063949
0.020850009
0.022711826
0.021489358
0.020931102
0.020709037
0.020577355
0.020535681
0.020535073
0.020542248
0.020529808
0.02052052
0.02052052
0.020529808
0.020542248
0.020535073
0.020535681
0.020577355
0.020709036
0.0209311
0.021489349
0.022711807
0.026019517
0.02397549
0.022990355
0.022593481
0.022373244
0.022273907
0.022266044
0.022276241
0.022259848
0.022249169
0.022249169
0.022259848
0.022276242
0.022266044
0.022273907
0.022373243
0.02259348
0.02299035
0.023975473
0.026019477
0.024
0.028657982
0.026785925
0.026065327
0.025601739
0.025424923
0.025404649
0.025419677
0.025398251
0.025384881
0.025384881
0.02539825
0.025419676
0.025404647
0.025424921
0.025601736
0.026065322
0.026785911
0.028657939
0.024
0.024
0.024
0.024
0.024
0.024
0.024
0.024
0.024
0.024
0.024
0.024
0.024
0.024
0.024
0.024
0.024
0.024
0.024
0.024
0.024
0.024
0.024
0.024
0.024
0.024
0.024
0.024
0.024
0.024
0.024
0.024
0.024
0.024
0.024
0.024
0.024
0.024
0.024
0.024
0.024
0.024
0.024
0.024
0.024
0.024
0.024
0.024
0.024
0.024
0.024
0.024
0.024
0.024
0.024
0.024
0.024
0.024
0.024
0.024
0.024
0.024
0.024
0.024
0.024
0.024
0.024
0.024
0.024
0.024
0.024
0.024
0.024
0.024
0.024
0.024
0.024
0.024
0.024
0.024
0.024
0.024
0.024
0.024
0.024
0.024
0.024
0.024
0.024
0.024
0.024
0.024
0.024
0.024
0.024
0.024
0.024
0.024
0.024
0.024
0.024
0.024
0.024
0.024
0.024
0.024
0.024
0.024
0.024
0.024
0.024
0.024
0.024
0.024
0.024
0.024
0.024
0.024
0.024
0.024
0.024
0.024
0.024
0.024
0.024
0.024
0.024
0.024
0.024
0.024
0.024
0.024
0.024
0.024
0.024
0.024
0.024
0.024
0.024
0.024
0.024
0.024
0.024
0.024
0.024
0.024
0.024
0.024
0.024
0.024
0.024
0.024
0.024
0.024
0.024
0.024
0.024
0.024
0.024
0.024
0.024
0.024
0.024
0.024
0.024
0.024
0.024
0.024
0.024
0.024
0.024
0.024
0.024
0.024
0.024
0.024
0.024
0.024
0.024
0.024
0.024
0.024
0.024
0.024
0.024
0.024
0.024
0.024
0.024
0.024
0.024
0.024
0.024
0.024
0.024
0.024
0.024
0.024
0.024
0.024
0.024
0.024
0.024
0.024
0.024
0.024
0.024
0.024
0.024
0.024
0.024
0.024
0.024
0.024
0.024
0.024
0.024
0.024
0.024
0.024
0.024
0.024
0.024
0.024
0.024
0.024
0.024
0.024
0.024
0.024
0.024
0.024
0.024
0.024
0.024
0.024
0.024
0.024
0.024
0.024
0.024
)
;

boundaryField
{
    Wall
    {
        type            calculated;
        value           uniform 0.024;
    }
    frontAndBack
    {
        type            empty;
    }
    atmosphere
    {
        type            calculated;
        value           uniform 0.024;
    }
}


// ************************************************************************* //
