/*--------------------------------*- C++ -*----------------------------------*\
| =========                 |                                                 |
| \\      /  F ield         | OpenFOAM: The Open Source CFD Toolbox           |
|  \\    /   O peration     | Version:  3.0.1                                 |
|   \\  /    A nd           | Web:      www.OpenFOAM.org                      |
|    \\/     M anipulation  |                                                 |
\*---------------------------------------------------------------------------*/
FoamFile
{
    version     2.0;
    format      ascii;
    class       volScalarField;
    location    "31";
    object      thermalDiff_gas;
}
// * * * * * * * * * * * * * * * * * * * * * * * * * * * * * * * * * * * * * //

dimensions      [0 2 -1 0 0 0 0];

internalField   nonuniform List<scalar> 
800
(
0.00031871128
0.00031872671
0.00031873046
0.0003187311
0.00031873118
0.00031873121
0.00031873124
0.00031873129
0.00031873133
0.00031873134
0.00031873134
0.00031873133
0.00031873129
0.00031873124
0.00031873121
0.00031873118
0.0003187311
0.00031873046
0.00031872671
0.00031871128
0.00031757491
0.00031766132
0.00031768873
0.00031769626
0.00031769772
0.00031769749
0.00031769695
0.0003176965
0.00031769622
0.00031769609
0.00031769609
0.00031769622
0.0003176965
0.00031769695
0.00031769749
0.00031769772
0.00031769626
0.00031768873
0.00031766131
0.00031757489
0.00031653478
0.00031666938
0.00031672013
0.00031673502
0.00031673845
0.00031673847
0.00031673773
0.00031673704
0.0003167366
0.00031673638
0.00031673638
0.00031673659
0.00031673704
0.00031673773
0.00031673847
0.00031673844
0.00031673501
0.00031672012
0.00031666937
0.00031653476
0.0003156785
0.00031584939
0.00031591921
0.00031594014
0.00031594518
0.00031594548
0.00031594467
0.00031594387
0.00031594334
0.00031594308
0.00031594308
0.00031594334
0.00031594387
0.00031594467
0.00031594548
0.00031594518
0.00031594013
0.0003159192
0.00031584937
0.00031567848
0.00031506279
0.00031525672
0.00031534134
0.00031536668
0.0003153727
0.0003153731
0.0003153722
0.00031537131
0.00031537073
0.00031537045
0.00031537045
0.00031537073
0.00031537131
0.00031537219
0.00031537309
0.0003153727
0.00031536667
0.00031534133
0.0003152567
0.00031506277
0.00031473466
0.00031493594
0.00031503131
0.00031505941
0.00031506574
0.00031506594
0.00031506485
0.00031506386
0.00031506322
0.00031506292
0.00031506292
0.00031506322
0.00031506386
0.00031506485
0.00031506593
0.00031506573
0.0003150594
0.0003150313
0.00031493592
0.00031473464
0.00031473512
0.00031492657
0.00031502842
0.00031505774
0.0003150637
0.00031506339
0.00031506198
0.00031506081
0.00031506008
0.00031505975
0.00031505975
0.00031506008
0.0003150608
0.00031506198
0.00031506339
0.00031506369
0.00031505773
0.00031502842
0.00031492656
0.00031473511
0.00031510011
0.00031526416
0.00031536743
0.00031539655
0.0003154016
0.00031540046
0.00031539855
0.0003153971
0.00031539624
0.00031539585
0.00031539585
0.00031539624
0.0003153971
0.00031539855
0.00031540046
0.00031540159
0.00031539655
0.00031536742
0.00031526415
0.0003151001
0.00031586021
0.00031598026
0.00031607855
0.00031610632
0.00031610999
0.00031610776
0.00031610518
0.00031610332
0.00031610226
0.00031610178
0.00031610178
0.00031610226
0.00031610332
0.00031610518
0.00031610776
0.00031610999
0.00031610631
0.00031607854
0.00031598026
0.0003158602
0.00031704037
0.00031710206
0.00031718756
0.00031721319
0.00031721519
0.00031721162
0.00031720814
0.00031720572
0.00031720438
0.00031720377
0.00031720377
0.00031720438
0.00031720572
0.00031720814
0.00031721162
0.00031721519
0.00031721319
0.00031718756
0.00031710206
0.00031704037
0.00031865958
0.00031865203
0.00031871591
0.00031873922
0.00031873935
0.00031873412
0.0003187295
0.00031872634
0.00031872466
0.00031872386
0.00031872386
0.00031872466
0.00031872635
0.0003187295
0.00031873412
0.00031873935
0.00031873922
0.00031871591
0.00031865204
0.00031865958
0.00032073009
0.00032064665
0.00032068041
0.00032070203
0.00032069968
0.00032069244
0.00032068642
0.00032068235
0.00032068029
0.00032067927
0.00032067927
0.00032068029
0.00032068235
0.00032068642
0.00032069245
0.00032069969
0.00032070204
0.00032068042
0.00032064666
0.0003207301
0.00032325549
0.00032309368
0.00032309203
0.00032311323
0.00032310651
0.00032309697
0.00032308935
0.00032308416
0.00032308163
0.00032308035
0.00032308035
0.00032308163
0.00032308417
0.00032308936
0.00032309698
0.00032310652
0.00032311324
0.00032309204
0.00032309369
0.00032325551
0.00032622705
0.00032598909
0.000325953
0.00032597511
0.00032596065
0.00032594881
0.00032593961
0.00032593314
0.00032592888
0.00032592734
0.00032592735
0.00032592888
0.00032593314
0.00032593962
0.00032594882
0.00032596067
0.00032597513
0.00032595302
0.00032598911
0.00032622708
0.00032961116
0.00032930741
0.0003292462
0.00032927054
0.00032924478
0.00032923136
0.00032922094
0.00032921321
0.00032920337
0.00032920157
0.00032920157
0.00032920338
0.00032921322
0.00032922095
0.00032923138
0.0003292448
0.00032927056
0.00032924622
0.00032930743
0.00032961119
0.00033333384
0.00033298938
0.0003329199
0.00033295002
0.00033291189
0.00033289877
0.00033288623
0.00033287766
0.00033285557
0.00033285341
0.00033285341
0.00033285557
0.00033287767
0.00033288624
0.00033289879
0.00033291191
0.00033295005
0.00033291993
0.00033298941
0.00033333387
0.00033727814
0.00033694213
0.00033688653
0.0003369313
0.00033688466
0.00033687258
0.00033685384
0.00033684554
0.00033680374
0.00033680118
0.00033680118
0.00033680375
0.00033684555
0.00033685385
0.00033687259
0.00033688468
0.00033693132
0.00033688656
0.00033694216
0.00033727817
0.00034128173
0.00034102876
0.00034101486
0.00034109062
0.0003410458
0.00034103206
0.00034100049
0.00034099465
0.00034092434
0.00034092166
0.00034092167
0.00034092435
0.00034099465
0.0003410005
0.00034103208
0.00034104582
0.00034109065
0.00034101489
0.00034102879
0.00034128177
0.00034511157
0.00034504561
0.00034511027
0.00034524362
0.00034521233
0.00034519317
0.00034514437
0.00034514459
0.0003450354
0.00034503364
0.00034503365
0.0003450354
0.0003451446
0.00034514438
0.00034519319
0.00034521235
0.00034524364
0.0003451103
0.00034504565
0.00034511161
0.00034841356
0.00034868624
0.00034888319
0.0003491139
0.0003490953
0.00034907344
0.00034901144
0.00034902313
0.00034886926
0.0003488706
0.0003488706
0.00034886926
0.00034902313
0.00034901145
0.00034907345
0.00034909532
0.00034911393
0.00034888322
0.00034868627
0.00034841359
0.00035064709
0.0003514874
0.00035190149
0.00035226297
0.00035225354
0.00035224869
0.00035219066
0.00035222132
0.00035203185
0.00035203982
0.00035203982
0.00035203185
0.00035222132
0.00035219066
0.0003522487
0.00035225355
0.00035226299
0.00035190152
0.00035148743
0.00035064713
0.00035101708
0.00035271631
0.00035348737
0.00035402327
0.00035405374
0.00035407015
0.00035405201
0.00035411232
0.00035391723
0.00035393688
0.00035393688
0.00035391723
0.00035411232
0.00035405202
0.00035407016
0.00035405375
0.0003540233
0.0003534874
0.00035271635
0.00035101714
0.00034842646
0.00035131098
0.00035265639
0.00035340098
0.00035356553
0.00035363429
0.00035363853
0.00035374168
0.00035358763
0.00035362538
0.00035362538
0.00035358764
0.00035374169
0.00035363854
0.00035363431
0.00035356555
0.00035340102
0.00035265644
0.00035131105
0.00034842656
0.0003412242
0.00034573197
0.00034800975
0.00034897205
0.00034944304
0.00034954446
0.00034958074
0.00034974087
0.00034967709
0.0003497398
0.0003497398
0.0003496771
0.00034974088
0.00034958076
0.00034954449
0.00034944308
0.00034897209
0.00034800982
0.00034573208
0.00034122438
0.00032716048
0.00033384532
0.00033737492
0.00033881363
0.00033963242
0.00033990678
0.00034006601
0.00034029178
0.00034034922
0.00034044078
0.00034044078
0.00034034923
0.0003402918
0.00034006604
0.00033990682
0.00033963248
0.00033881371
0.00033737503
0.00033384551
0.00032716077
0.00030580027
0.00031355448
0.00031850171
0.00032086154
0.00032190822
0.00032273061
0.00032311646
0.00032341118
0.00032358985
0.0003237088
0.0003237088
0.00032358987
0.00032341121
0.00032311651
0.00032273067
0.00032190829
0.00032086164
0.00031850186
0.00031355473
0.00030580054
0.00029076492
0.00029197036
0.00029553555
0.00029689082
0.00029854731
0.00029907033
0.0002994501
0.00029970228
0.00029987535
0.0002999682
0.0002999682
0.00029987536
0.0002997023
0.00029945013
0.00029907036
0.00029854735
0.00029689086
0.00029553562
0.0002919704
0.00029076495
0.00028236961
0.00028274133
0.00028422494
0.00028516193
0.0002858743
0.00028635513
0.00028664602
0.00028683387
0.0002869524
0.00028701108
0.00028701108
0.0002869524
0.00028683387
0.00028664601
0.00028635513
0.00028587431
0.00028516194
0.00028422494
0.00028274133
0.0002823696
0.00027715611
0.00027736087
0.00027753588
0.00027791726
0.00027829643
0.00027861198
0.00027884672
0.00027901219
0.00027911683
0.00027916795
0.00027916795
0.00027911682
0.00027901219
0.00027884672
0.00027861197
0.00027829643
0.00027791726
0.00027753587
0.00027736087
0.0002771561
0.00027230113
0.00027252579
0.00027279519
0.00027312322
0.00027344458
0.00027372367
0.00027394455
0.00027410599
0.0002742107
0.00027426219
0.00027426219
0.0002742107
0.00027410599
0.00027394455
0.00027372367
0.00027344457
0.00027312322
0.00027279519
0.00027252579
0.00027230113
0.00026781838
0.000268102
0.00026843392
0.00026876993
0.00026907988
0.0002693452
0.00026955676
0.00026971288
0.0002698151
0.00026986557
0.00026986557
0.0002698151
0.00026971288
0.00026955675
0.0002693452
0.00026907988
0.00026876993
0.00026843392
0.000268102
0.00026781839
0.00026374488
0.0002640744
0.00026446022
0.00026482652
0.00026514771
0.00026541422
0.00026562323
0.00026577614
0.00026587584
0.00026592496
0.00026592496
0.00026587584
0.00026577614
0.00026562323
0.00026541422
0.00026514771
0.00026482652
0.00026446022
0.00026407441
0.00026374488
0.00026010672
0.00026045748
0.0002608807
0.00026127829
0.00026161877
0.00026189466
0.00026210703
0.00026226029
0.00026235931
0.00026240783
0.00026240783
0.00026235931
0.00026226029
0.00026210703
0.00026189466
0.00026161877
0.00026127829
0.00026088071
0.00026045749
0.00026010673
0.00025691246
0.00025726132
0.00025769988
0.00025811778
0.00025847519
0.00025876246
0.00025898138
0.00025913789
0.00025923827
0.00025928723
0.00025928723
0.00025923827
0.00025913789
0.00025898138
0.00025876246
0.0002584752
0.00025811778
0.00025769989
0.00025726133
0.00025691247
0.00025415634
0.0002544868
0.00025491957
0.00025534212
0.00025570806
0.00025600352
0.00025622878
0.0002563896
0.00025649251
0.00025654264
0.00025654264
0.00025649251
0.0002563896
0.00025622878
0.00025600352
0.00025570806
0.00025534212
0.00025491958
0.00025448681
0.00025415634
0.00025183054
0.00025213216
0.00025254209
0.0002529537
0.00025331723
0.00025361463
0.00025384338
0.00025400762
0.0002541131
0.00025416456
0.00025416457
0.0002541131
0.00025400763
0.00025384339
0.00025361463
0.00025331724
0.00025295371
0.0002525421
0.00025213217
0.00025183055
0.00024993287
0.00025019954
0.00025057452
0.00025096223
0.00025131289
0.00025160517
0.00025183329
0.00025199888
0.00025210602
0.00025215853
0.00025215853
0.00025210602
0.00025199888
0.0002518333
0.00025160517
0.00025131289
0.00025096223
0.00025057453
0.00025019954
0.00024993288
0.00024847044
0.00024869941
0.00024903272
0.00024938826
0.00024971855
0.00025000003
0.0002502237
0.00025038832
0.00025049589
0.00025054893
0.00025054893
0.0002504959
0.00025038832
0.00025022371
0.00025000003
0.00024971856
0.00024938827
0.00024903272
0.00024869942
0.00024847044
0.00024746211
0.00024765482
0.00024794658
0.0002482685
0.00024857613
0.00024884443
0.00024906162
0.00024922377
0.0002493308
0.00024938388
0.00024938388
0.0002493308
0.00024922377
0.00024906163
0.00024884443
0.00024857613
0.00024826851
0.00024794659
0.00024765483
0.00024746212
0.00024693882
0.00024710438
0.00024736555
0.00024766259
0.00024795312
0.00024821117
0.00024842301
0.00024858283
0.0002486891
0.00024874203
0.00024874203
0.0002486891
0.00024858284
0.00024842302
0.00024821117
0.00024795313
0.00024766259
0.00024736555
0.00024710439
0.00024693883
)
;

boundaryField
{
    Wall
    {
        type            calculated;
        value           uniform 0.1;
    }
    frontAndBack
    {
        type            empty;
    }
    atmosphere
    {
        type            calculated;
        value           uniform 0.1;
    }
}


// ************************************************************************* //
