/*--------------------------------*- C++ -*----------------------------------*\
| =========                 |                                                 |
| \\      /  F ield         | OpenFOAM: The Open Source CFD Toolbox           |
|  \\    /   O peration     | Version:  3.0.1                                 |
|   \\  /    A nd           | Web:      www.OpenFOAM.org                      |
|    \\/     M anipulation  |                                                 |
\*---------------------------------------------------------------------------*/
FoamFile
{
    version     2.0;
    format      ascii;
    class       volScalarField;
    location    "31";
    object      thermalDiff_foam;
}
// * * * * * * * * * * * * * * * * * * * * * * * * * * * * * * * * * * * * * //

dimensions      [0 2 -1 0 0 0 0];

internalField   nonuniform List<scalar> 
800
(
1.5177588e-07
1.5178428e-07
1.5178575e-07
1.5178589e-07
1.5178586e-07
1.5178584e-07
1.5178584e-07
1.5178585e-07
1.5178585e-07
1.5178586e-07
1.5178586e-07
1.5178585e-07
1.5178585e-07
1.5178584e-07
1.5178584e-07
1.5178586e-07
1.5178589e-07
1.5178576e-07
1.5178428e-07
1.5177588e-07
1.5082355e-07
1.5089859e-07
1.5091675e-07
1.5092071e-07
1.5092086e-07
1.5092025e-07
1.5091968e-07
1.5091931e-07
1.5091911e-07
1.5091902e-07
1.5091902e-07
1.5091911e-07
1.5091931e-07
1.5091968e-07
1.5092025e-07
1.5092086e-07
1.5092071e-07
1.5091674e-07
1.5089859e-07
1.5082354e-07
1.497363e-07
1.4985888e-07
1.4989855e-07
1.4990805e-07
1.4990933e-07
1.4990864e-07
1.4990778e-07
1.4990717e-07
1.4990683e-07
1.4990667e-07
1.4990667e-07
1.4990682e-07
1.4990717e-07
1.4990777e-07
1.4990864e-07
1.4990933e-07
1.4990805e-07
1.4989855e-07
1.4985887e-07
1.4973629e-07
1.4864943e-07
1.4880999e-07
1.4886923e-07
1.4888371e-07
1.4888605e-07
1.4888536e-07
1.488843e-07
1.4888353e-07
1.4888308e-07
1.4888288e-07
1.4888288e-07
1.4888308e-07
1.4888352e-07
1.488843e-07
1.4888536e-07
1.4888605e-07
1.488837e-07
1.4886923e-07
1.4880998e-07
1.4864942e-07
1.476672e-07
1.478538e-07
1.4792903e-07
1.4794776e-07
1.4795069e-07
1.4794985e-07
1.4794856e-07
1.4794763e-07
1.4794708e-07
1.4794685e-07
1.4794685e-07
1.4794708e-07
1.4794762e-07
1.4794856e-07
1.4794985e-07
1.4795068e-07
1.4794775e-07
1.4792902e-07
1.4785378e-07
1.4766718e-07
1.4686071e-07
1.4705998e-07
1.4714721e-07
1.471695e-07
1.4717241e-07
1.4717116e-07
1.4716954e-07
1.4716841e-07
1.4716777e-07
1.4716749e-07
1.4716749e-07
1.4716776e-07
1.4716841e-07
1.4716954e-07
1.4717115e-07
1.471724e-07
1.4716949e-07
1.471472e-07
1.4705997e-07
1.4686069e-07
1.4626871e-07
1.464696e-07
1.4656418e-07
1.4658932e-07
1.4659156e-07
1.4658959e-07
1.4658751e-07
1.4658612e-07
1.4658534e-07
1.46585e-07
1.46585e-07
1.4658533e-07
1.4658612e-07
1.4658751e-07
1.4658959e-07
1.4659155e-07
1.4658932e-07
1.4656417e-07
1.4646959e-07
1.4626869e-07
1.4589814e-07
1.4609431e-07
1.461911e-07
1.4621836e-07
1.4621938e-07
1.4621639e-07
1.462137e-07
1.4621195e-07
1.4621098e-07
1.4621057e-07
1.4621057e-07
1.4621098e-07
1.4621195e-07
1.462137e-07
1.4621639e-07
1.4621937e-07
1.4621835e-07
1.4619109e-07
1.460943e-07
1.4589813e-07
1.4573482e-07
1.4592564e-07
1.4601922e-07
1.4604789e-07
1.4604757e-07
1.4604332e-07
1.4603985e-07
1.4603764e-07
1.4603643e-07
1.4603591e-07
1.4603591e-07
1.4603643e-07
1.4603764e-07
1.4603984e-07
1.4604332e-07
1.4604756e-07
1.4604789e-07
1.4601921e-07
1.4592563e-07
1.4573481e-07
1.4574229e-07
1.4593479e-07
1.4602035e-07
1.4604991e-07
1.4604881e-07
1.460434e-07
1.4603899e-07
1.4603622e-07
1.460347e-07
1.4603405e-07
1.4603405e-07
1.460347e-07
1.4603622e-07
1.4603899e-07
1.460434e-07
1.4604881e-07
1.460499e-07
1.4602035e-07
1.4593478e-07
1.4574228e-07
1.4586966e-07
1.4607857e-07
1.4615287e-07
1.4618298e-07
1.4618259e-07
1.4617675e-07
1.4617124e-07
1.461678e-07
1.4616592e-07
1.461651e-07
1.461651e-07
1.4616592e-07
1.461678e-07
1.4617124e-07
1.4617674e-07
1.4618258e-07
1.4618298e-07
1.4615287e-07
1.4607857e-07
1.4586966e-07
1.4605756e-07
1.4630501e-07
1.4636814e-07
1.4639871e-07
1.4640133e-07
1.4639648e-07
1.4638971e-07
1.4638549e-07
1.4638318e-07
1.4638215e-07
1.4638215e-07
1.4638318e-07
1.4638548e-07
1.4638971e-07
1.4639648e-07
1.4640132e-07
1.4639871e-07
1.4636814e-07
1.4630501e-07
1.4605756e-07
1.4623839e-07
1.4655315e-07
1.46611e-07
1.4664167e-07
1.4665042e-07
1.4664843e-07
1.466402e-07
1.4663504e-07
1.4663248e-07
1.4663118e-07
1.4663118e-07
1.4663248e-07
1.4663504e-07
1.466402e-07
1.4664843e-07
1.4665042e-07
1.4664167e-07
1.46611e-07
1.4655315e-07
1.4623838e-07
1.4633479e-07
1.4677297e-07
1.4683848e-07
1.468688e-07
1.4689252e-07
1.4689991e-07
1.4688537e-07
1.46879e-07
1.4687659e-07
1.4687489e-07
1.4687489e-07
1.4687659e-07
1.4687899e-07
1.4688537e-07
1.4689991e-07
1.4689252e-07
1.468688e-07
1.4683848e-07
1.4677297e-07
1.4633479e-07
1.4626647e-07
1.468638e-07
1.4695747e-07
1.4698859e-07
1.4703493e-07
1.4704488e-07
1.4703152e-07
1.4702337e-07
1.4702159e-07
1.4701994e-07
1.4701994e-07
1.4702159e-07
1.4702336e-07
1.4703152e-07
1.4704488e-07
1.4703492e-07
1.4698859e-07
1.4695746e-07
1.468638e-07
1.4626646e-07
1.4616554e-07
1.4692146e-07
1.4706984e-07
1.4710769e-07
1.4716382e-07
1.4717864e-07
1.4716149e-07
1.4715042e-07
1.4714966e-07
1.4714997e-07
1.4714997e-07
1.4714966e-07
1.4715041e-07
1.4716149e-07
1.4717864e-07
1.4716382e-07
1.4710769e-07
1.4706984e-07
1.4692146e-07
1.4616554e-07
1.4576694e-07
1.4676464e-07
1.4699879e-07
1.4705545e-07
1.4713212e-07
1.4714974e-07
1.4712418e-07
1.4710936e-07
1.4710993e-07
1.4711575e-07
1.4711575e-07
1.4710992e-07
1.4710936e-07
1.4712417e-07
1.4714974e-07
1.4713211e-07
1.4705545e-07
1.4699879e-07
1.4676463e-07
1.4576694e-07
1.4498018e-07
1.4628351e-07
1.4663705e-07
1.4672943e-07
1.4683517e-07
1.4685058e-07
1.4681251e-07
1.4679348e-07
1.4679431e-07
1.4680976e-07
1.4680976e-07
1.4679431e-07
1.4679348e-07
1.4681251e-07
1.4685057e-07
1.4683516e-07
1.4672943e-07
1.4663704e-07
1.462835e-07
1.4498017e-07
1.436978e-07
1.4537152e-07
1.4588123e-07
1.4602874e-07
1.4617224e-07
1.461806e-07
1.4612823e-07
1.461048e-07
1.4610354e-07
1.4613183e-07
1.4613183e-07
1.4610354e-07
1.4610479e-07
1.4612822e-07
1.4618059e-07
1.4617224e-07
1.4602873e-07
1.4588123e-07
1.4537151e-07
1.4369779e-07
1.417909e-07
1.4390461e-07
1.4461202e-07
1.4483522e-07
1.4502461e-07
1.450259e-07
1.4496109e-07
1.4493329e-07
1.4492883e-07
1.4497121e-07
1.449712e-07
1.4492882e-07
1.4493328e-07
1.4496108e-07
1.4502589e-07
1.450246e-07
1.4483521e-07
1.4461201e-07
1.439046e-07
1.4179089e-07
1.3910533e-07
1.417325e-07
1.4268744e-07
1.4300686e-07
1.4325176e-07
1.4325259e-07
1.4318058e-07
1.431486e-07
1.4314515e-07
1.4320059e-07
1.4320059e-07
1.4314515e-07
1.4314859e-07
1.4318057e-07
1.4325258e-07
1.4325174e-07
1.4300685e-07
1.4268743e-07
1.4173249e-07
1.3910532e-07
1.354651e-07
1.3867242e-07
1.3993337e-07
1.4037493e-07
1.4069248e-07
1.4070067e-07
1.4062793e-07
1.405921e-07
1.4059928e-07
1.4066481e-07
1.4066481e-07
1.4059927e-07
1.4059209e-07
1.4062792e-07
1.4070066e-07
1.4069247e-07
1.4037492e-07
1.3993336e-07
1.3867241e-07
1.354651e-07
1.3067344e-07
1.3451284e-07
1.3614611e-07
1.3674221e-07
1.3715885e-07
1.3718633e-07
1.3711521e-07
1.3707589e-07
1.371035e-07
1.3717489e-07
1.3717489e-07
1.371035e-07
1.3707588e-07
1.371152e-07
1.3718633e-07
1.3715884e-07
1.367422e-07
1.3614611e-07
1.3451284e-07
1.3067346e-07
1.2451385e-07
1.2902334e-07
1.3109576e-07
1.3189126e-07
1.3242848e-07
1.324974e-07
1.3243759e-07
1.3239514e-07
1.3244722e-07
1.325196e-07
1.325196e-07
1.3244721e-07
1.3239514e-07
1.3243758e-07
1.324974e-07
1.3242847e-07
1.3189126e-07
1.3109576e-07
1.2902335e-07
1.2451389e-07
1.1683502e-07
1.2198229e-07
1.2454547e-07
1.2560922e-07
1.2627145e-07
1.2642836e-07
1.2639596e-07
1.2635092e-07
1.2642278e-07
1.2649114e-07
1.2649114e-07
1.2642278e-07
1.2635091e-07
1.2639595e-07
1.2642835e-07
1.2627145e-07
1.2560922e-07
1.2454547e-07
1.2198232e-07
1.1683508e-07
1.0772122e-07
1.1328806e-07
1.1635638e-07
1.1768888e-07
1.1851221e-07
1.1877814e-07
1.1878204e-07
1.1873606e-07
1.1881584e-07
1.1887554e-07
1.1887554e-07
1.1881583e-07
1.1873606e-07
1.1878204e-07
1.1877814e-07
1.1851221e-07
1.1768888e-07
1.1635639e-07
1.1328811e-07
1.077213e-07
9.777865e-08
1.0321868e-07
1.0663395e-07
1.0820148e-07
1.0912595e-07
1.0955654e-07
1.09591e-07
1.0954633e-07
1.0961819e-07
1.0966513e-07
1.0966513e-07
1.0961819e-07
1.0954632e-07
1.09591e-07
1.0955654e-07
1.0912596e-07
1.0820149e-07
1.0663397e-07
1.0321874e-07
9.7778739e-08
0.00028236961
9.2941618e-08
9.6167334e-08
9.767673e-08
9.8743856e-08
9.9172654e-08
9.9222628e-08
9.9185569e-08
9.9238433e-08
9.9271515e-08
9.9271515e-08
9.9238434e-08
9.918557e-08
9.9222631e-08
9.9172659e-08
9.8743862e-08
9.7676742e-08
9.6167362e-08
9.2941682e-08
0.0002823696
0.00027715611
0.00027736087
0.00027753588
0.00027791726
0.00027829643
0.00027861198
0.00027884672
0.00027901219
0.00027911683
0.00027916795
0.00027916795
0.00027911682
0.00027901219
0.00027884672
0.00027861197
0.00027829643
0.00027791726
0.00027753587
0.00027736087
0.0002771561
0.00027230113
0.00027252579
0.00027279519
0.00027312322
0.00027344458
0.00027372367
0.00027394455
0.00027410599
0.0002742107
0.00027426219
0.00027426219
0.0002742107
0.00027410599
0.00027394455
0.00027372367
0.00027344457
0.00027312322
0.00027279519
0.00027252579
0.00027230113
0.00026781838
0.000268102
0.00026843392
0.00026876993
0.00026907988
0.0002693452
0.00026955676
0.00026971288
0.0002698151
0.00026986557
0.00026986557
0.0002698151
0.00026971288
0.00026955675
0.0002693452
0.00026907988
0.00026876993
0.00026843392
0.000268102
0.00026781839
0.00026374488
0.0002640744
0.00026446022
0.00026482652
0.00026514771
0.00026541422
0.00026562323
0.00026577614
0.00026587584
0.00026592496
0.00026592496
0.00026587584
0.00026577614
0.00026562323
0.00026541422
0.00026514771
0.00026482652
0.00026446022
0.00026407441
0.00026374488
0.00026010672
0.00026045748
0.0002608807
0.00026127829
0.00026161877
0.00026189466
0.00026210703
0.00026226029
0.00026235931
0.00026240783
0.00026240783
0.00026235931
0.00026226029
0.00026210703
0.00026189466
0.00026161877
0.00026127829
0.00026088071
0.00026045749
0.00026010673
0.00025691246
0.00025726132
0.00025769988
0.00025811778
0.00025847519
0.00025876246
0.00025898138
0.00025913789
0.00025923827
0.00025928723
0.00025928723
0.00025923827
0.00025913789
0.00025898138
0.00025876246
0.0002584752
0.00025811778
0.00025769989
0.00025726133
0.00025691247
0.00025415634
0.0002544868
0.00025491957
0.00025534212
0.00025570806
0.00025600352
0.00025622878
0.0002563896
0.00025649251
0.00025654264
0.00025654264
0.00025649251
0.0002563896
0.00025622878
0.00025600352
0.00025570806
0.00025534212
0.00025491958
0.00025448681
0.00025415634
0.00025183054
0.00025213216
0.00025254209
0.0002529537
0.00025331723
0.00025361463
0.00025384338
0.00025400762
0.0002541131
0.00025416456
0.00025416457
0.0002541131
0.00025400763
0.00025384339
0.00025361463
0.00025331724
0.00025295371
0.0002525421
0.00025213217
0.00025183055
0.00024993287
0.00025019954
0.00025057452
0.00025096223
0.00025131289
0.00025160517
0.00025183329
0.00025199888
0.00025210602
0.00025215853
0.00025215853
0.00025210602
0.00025199888
0.0002518333
0.00025160517
0.00025131289
0.00025096223
0.00025057453
0.00025019954
0.00024993288
0.00024847044
0.00024869941
0.00024903272
0.00024938826
0.00024971855
0.00025000003
0.0002502237
0.00025038832
0.00025049589
0.00025054893
0.00025054893
0.0002504959
0.00025038832
0.00025022371
0.00025000003
0.00024971856
0.00024938827
0.00024903272
0.00024869942
0.00024847044
0.00024746211
0.00024765482
0.00024794658
0.0002482685
0.00024857613
0.00024884443
0.00024906162
0.00024922377
0.0002493308
0.00024938388
0.00024938388
0.0002493308
0.00024922377
0.00024906163
0.00024884443
0.00024857613
0.00024826851
0.00024794659
0.00024765483
0.00024746212
0.00024693882
0.00024710438
0.00024736555
0.00024766259
0.00024795312
0.00024821117
0.00024842301
0.00024858283
0.0002486891
0.00024874203
0.00024874203
0.0002486891
0.00024858284
0.00024842302
0.00024821117
0.00024795313
0.00024766259
0.00024736555
0.00024710439
0.00024693883
)
;

boundaryField
{
    Wall
    {
        type            calculated;
        value           uniform 4e-05;
    }
    frontAndBack
    {
        type            empty;
    }
    atmosphere
    {
        type            calculated;
        value           uniform 4e-05;
    }
}


// ************************************************************************* //
