/*--------------------------------*- C++ -*----------------------------------*\
| =========                 |                                                 |
| \\      /  F ield         | OpenFOAM: The Open Source CFD Toolbox           |
|  \\    /   O peration     | Version:  3.0.1                                 |
|   \\  /    A nd           | Web:      www.OpenFOAM.org                      |
|    \\/     M anipulation  |                                                 |
\*---------------------------------------------------------------------------*/
FoamFile
{
    version     2.0;
    format      ascii;
    class       volScalarField;
    location    "31";
    object      TS;
}
// * * * * * * * * * * * * * * * * * * * * * * * * * * * * * * * * * * * * * //

dimensions      [0 0 0 1 0 0 0];

internalField   nonuniform List<scalar> 
800
(
356.99525
357.00493
357.00729
357.00769
357.00775
357.00776
357.00778
357.00781
357.00784
357.00785
357.00785
357.00784
357.00781
357.00778
357.00776
357.00775
357.00769
357.00729
357.00493
356.99525
356.29016
356.34415
356.36132
356.36605
356.36697
356.36683
356.3665
356.36622
356.36604
356.36596
356.36596
356.36604
356.36622
356.3665
356.36683
356.36697
356.36605
356.36132
356.34414
356.29015
355.64394
355.72808
355.75988
355.76923
355.7714
355.77143
355.77097
355.77054
355.77026
355.77012
355.77012
355.77026
355.77054
355.77096
355.77142
355.7714
355.76923
355.75988
355.72807
355.64393
355.11142
355.21831
355.26207
355.27523
355.27842
355.27862
355.27812
355.27762
355.27729
355.27713
355.27713
355.27728
355.27762
355.27812
355.27862
355.27841
355.27523
355.26207
355.2183
355.11141
354.72821
354.84957
354.90263
354.91857
354.92238
354.92264
354.92209
354.92154
354.92117
354.921
354.921
354.92117
354.92153
354.92208
354.92264
354.92237
354.91856
354.90263
354.84956
354.7282
354.52387
354.64989
354.70969
354.72737
354.73137
354.73152
354.73085
354.73023
354.72983
354.72964
354.72964
354.72983
354.73023
354.73085
354.73152
354.73137
354.72736
354.70969
354.64988
354.52386
354.5242
354.64411
354.70796
354.7264
354.73017
354.73
354.72913
354.7284
354.72795
354.72774
354.72774
354.72795
354.7284
354.72913
354.73
354.73017
354.72639
354.70796
354.64411
354.52419
354.75179
354.85454
354.91925
354.93754
354.94074
354.94005
354.93887
354.93796
354.93742
354.93718
354.93718
354.93742
354.93796
354.93887
354.94005
354.94074
354.93754
354.91924
354.85454
354.75178
355.22576
355.3009
355.36244
355.37985
355.38218
355.38081
355.3792
355.37804
355.37738
355.37708
355.37708
355.37738
355.37804
355.3792
355.38081
355.38218
355.37985
355.36244
355.3009
355.22575
355.96162
356.00007
356.05356
356.06958
356.07084
356.06862
356.06645
356.06494
356.06411
356.06372
356.06372
356.06411
356.06494
356.06645
356.06862
356.07084
356.06958
356.05356
356.00007
355.96162
356.97101
356.96586
357.00578
357.02024
357.0203
357.01704
357.01416
357.01219
357.01114
357.01065
357.01065
357.01114
357.01219
357.01416
357.01704
357.0203
357.02024
357.00578
356.96586
356.97101
358.26122
358.20819
358.22921
358.24247
358.24095
358.23643
358.23267
358.23014
358.22885
358.22822
358.22822
358.22886
358.23014
358.23268
358.23643
358.24096
358.24248
358.22921
358.2082
358.26123
359.83407
359.73149
359.73022
359.74304
359.7388
359.73282
359.72807
359.72484
359.72326
359.72246
359.72247
359.72326
359.72484
359.72807
359.73283
359.73881
359.74305
359.73023
359.7315
359.83409
361.68376
361.53287
361.50973
361.5229
361.51388
361.50644
361.50069
361.49666
361.49403
361.49308
361.49308
361.49404
361.49666
361.50069
361.50645
361.51388
361.52291
361.50975
361.53288
361.68378
363.78936
363.59631
363.55682
363.57113
363.55512
363.54664
363.5401
363.53528
363.5293
363.52818
363.52818
363.5293
363.53529
363.54011
363.54665
363.55513
363.57114
363.55684
363.59633
363.78938
366.10565
365.88541
365.83972
365.85726
365.83356
365.82516
365.81731
365.81194
365.79856
365.79722
365.79722
365.79857
365.81194
365.81732
365.82517
365.83357
365.85728
365.83974
365.88542
366.10567
368.56178
368.34379
368.30531
368.33137
368.30222
368.29437
368.28278
368.27752
368.2522
368.25058
368.25058
368.2522
368.27752
368.28279
368.29438
368.30223
368.33138
368.30533
368.34381
368.5618
371.06039
370.88928
370.87478
370.91911
370.89061
370.88174
370.86243
370.85856
370.81593
370.81422
370.81422
370.81594
370.85856
370.86243
370.88175
370.89062
370.91912
370.8748
370.8893
371.06041
373.46305
373.40097
373.43252
373.51097
373.49015
373.47798
373.44817
373.44784
373.38161
373.38039
373.38039
373.38161
373.44784
373.44817
373.47798
373.49016
373.51098
373.43254
373.40099
373.46307
375.56102
375.6984
375.80795
375.94422
375.93084
375.91676
375.8786
375.88504
375.7915
375.79205
375.79205
375.7915
375.88504
375.87861
375.91676
375.93086
375.94423
375.80797
375.69842
375.56104
377.03632
377.50977
377.74763
377.96222
377.95408
377.94936
377.9128
377.93048
377.81456
377.81899
377.81899
377.81456
377.93048
377.9128
377.94936
377.95409
377.96224
377.74765
377.50979
377.03635
377.41974
378.40526
378.85467
379.17382
379.18823
379.19573
379.18176
379.21707
379.09613
379.10744
379.10744
379.09613
379.21707
379.18177
379.19574
379.18824
379.17384
378.85469
378.40529
377.41978
376.05705
377.75638
378.54809
378.99312
379.08512
379.12242
379.12189
379.18283
379.08455
379.10666
379.10666
379.08456
379.18284
379.12189
379.12243
379.08514
378.99314
378.54812
377.75642
376.05712
371.94925
374.63841
375.99043
376.56852
376.84115
376.89733
376.91504
377.01057
376.96512
377.00236
377.00236
376.96513
377.01057
376.91505
376.89735
376.84117
376.56855
375.99047
374.63848
371.94936
363.67904
367.73134
369.8536
370.72015
371.2044
371.36073
371.45047
371.58704
371.6152
371.67049
371.67049
371.61521
371.58705
371.45048
371.36076
371.20443
370.72019
369.85367
367.73145
363.67922
350.49572
355.54627
358.62811
360.07786
360.71514
361.20139
361.43169
361.61374
361.71956
361.79318
361.79318
361.71958
361.61376
361.43172
361.20143
360.71518
360.07792
358.62821
355.54643
350.49591
340.01546
341.53948
343.92943
344.92241
345.96373
346.32226
346.57916
346.74979
346.8678
346.93202
346.93202
346.8678
346.7498
346.57918
346.32229
345.96376
344.92244
343.92948
341.53953
340.01548
334.52085
335.17053
336.01457
336.61362
337.04015
337.34308
337.53208
337.6544
337.73154
337.76989
337.76989
337.73154
337.6544
337.53208
337.34308
337.04015
336.61362
336.01458
335.17053
334.52085
331.07695
331.13345
331.34297
331.61106
331.86133
332.06817
332.22204
332.32992
332.3978
332.43089
332.43089
332.3978
332.32992
332.22203
332.06816
331.86133
331.61105
331.34296
331.13344
331.07695
327.90978
328.03898
328.22794
328.44873
328.66276
328.84717
328.99221
329.0976
329.16569
329.1991
329.1991
329.16569
329.0976
328.99221
328.84717
328.66275
328.44873
328.22794
328.03898
327.90978
324.97788
325.15605
325.37062
325.58918
325.79184
325.96548
326.10384
326.20576
326.27236
326.30521
326.30521
326.27236
326.20576
326.10384
325.96548
325.79184
325.58918
325.37062
325.15605
324.97788
322.30241
322.51423
322.76256
322.99907
323.2074
323.3807
323.51689
323.61662
323.68166
323.7137
323.7137
323.68166
323.61662
323.51689
323.3807
323.2074
322.99907
322.76256
322.51424
322.30241
319.90378
320.13182
320.40603
320.66358
320.88452
321.06382
321.20208
321.302
321.36662
321.3983
321.3983
321.36662
321.302
321.20208
321.06382
320.88453
320.66358
320.40603
320.13182
319.90379
317.79078
318.01937
318.30558
318.57783
318.81064
318.99776
319.14046
319.24257
319.3081
319.34009
319.34009
319.3081
319.24257
319.14046
318.99776
318.81064
318.57784
318.30558
318.01937
317.79078
315.96301
316.18072
316.46481
316.74158
316.98095
317.17406
317.32126
317.42635
317.49363
317.52641
317.52641
317.49363
317.42635
317.32126
317.17406
316.98096
316.74158
316.46481
316.18072
315.96301
314.41769
314.61712
314.8874
315.15816
315.39689
315.59195
315.74188
315.84948
315.91857
315.95228
315.95228
315.91857
315.84948
315.74188
315.59196
315.3969
315.15816
314.8874
314.61713
314.4177
313.1549
313.33164
313.57964
313.83555
314.06662
314.25896
314.40893
314.5177
314.58805
314.62253
314.62253
314.58806
314.51771
314.40893
314.25896
314.06662
313.83556
313.57965
313.33165
313.1549
312.18054
312.33256
312.55348
312.78876
313.007
313.19274
313.34018
313.4486
313.5194
313.5543
313.5543
313.5194
313.4486
313.34018
313.19274
313.007
312.78876
312.55348
312.33256
312.18055
311.50815
311.63621
311.82986
312.04325
312.24691
312.42431
312.56777
312.67478
312.74536
312.78036
312.78036
312.74537
312.67478
312.56777
312.42431
312.24691
312.04326
311.82986
311.63621
311.50816
311.15898
311.26904
311.44249
311.63955
311.83208
312.00288
312.14297
312.24857
312.31874
312.35368
312.35368
312.31874
312.24857
312.14297
312.00289
311.83208
311.63955
311.44249
311.26904
311.15899
)
;

boundaryField
{
    Wall
    {
        type            zeroGradient;
    }
    frontAndBack
    {
        type            empty;
    }
    atmosphere
    {
        type            zeroGradient;
    }
}


// ************************************************************************* //
