/*--------------------------------*- C++ -*----------------------------------*\
| =========                 |                                                 |
| \\      /  F ield         | OpenFOAM: The Open Source CFD Toolbox           |
|  \\    /   O peration     | Version:  3.0.1                                 |
|   \\  /    A nd           | Web:      www.OpenFOAM.org                      |
|    \\/     M anipulation  |                                                 |
\*---------------------------------------------------------------------------*/
FoamFile
{
    version     2.0;
    format      ascii;
    class       volVectorField;
    location    "31";
    object      U;
}
// * * * * * * * * * * * * * * * * * * * * * * * * * * * * * * * * * * * * * //

dimensions      [0 1 -1 0 0 0 0];

internalField   nonuniform List<vector> 
800
(
(8.7550969e-06 0.00022117671 0)
(1.1502722e-05 0.00022472051 0)
(1.3758704e-05 0.00022676439 0)
(1.3350588e-05 0.0002278598 0)
(1.1776658e-05 0.00022838804 0)
(9.7953293e-06 0.00022861234 0)
(7.6520124e-06 0.00022868497 0)
(5.4583378e-06 0.00022869308 0)
(3.2651883e-06 0.00022868247 0)
(1.0844893e-06 0.00022867348 0)
(-1.0906451e-06 0.00022867343 0)
(-3.2712267e-06 0.00022868233 0)
(-5.4641497e-06 0.00022869285 0)
(-7.6574897e-06 0.00022868466 0)
(-9.8003806e-06 0.00022861197 0)
(-1.1781209e-05 0.0002283876 0)
(-1.3354545e-05 0.00022785929 0)
(-1.3761882e-05 0.00022676373 0)
(-1.1504806e-05 0.00022471955 0)
(-8.7565862e-06 0.00022117541 0)
(5.5985643e-06 0.00037774458 0)
(8.0603855e-06 0.00038497565 0)
(1.1793913e-05 0.00038903227 0)
(1.2180465e-05 0.00039121614 0)
(1.1117957e-05 0.00039231596 0)
(9.4524616e-06 0.00039282037 0)
(7.4889697e-06 0.00039301737 0)
(5.3903576e-06 0.00039307341 0)
(3.2423875e-06 0.00039307721 0)
(1.0800375e-06 0.00039307072 0)
(-1.0854888e-06 0.00039307063 0)
(-3.2477397e-06 0.00039307697 0)
(-5.3955139e-06 0.00039307301 0)
(-7.4938293e-06 0.00039301682 0)
(-9.4569244e-06 0.0003928197 0)
(-1.1121939e-05 0.00039231516 0)
(-1.218386e-05 0.00039121518 0)
(-1.1796554e-05 0.00038903106 0)
(-8.0620059e-06 0.00038497404 0)
(-5.5996542e-06 0.00037774251 0)
(6.7745331e-06 0.00068935489 0)
(9.0588138e-06 0.00070098949 0)
(1.1667455e-05 0.00070801211 0)
(1.1815892e-05 0.00071199024 0)
(1.0778327e-05 0.00071410095 0)
(9.1958273e-06 0.00071513015 0)
(7.3144481e-06 0.00071557768 0)
(5.2822924e-06 0.00071574173 0)
(3.1846495e-06 0.00071578593 0)
(1.0622202e-06 0.00071579138 0)
(-1.0666736e-06 0.00071579124 0)
(-3.1890205e-06 0.00071578554 0)
(-5.2865001e-06 0.00071574109 0)
(-7.3184057e-06 0.00071557679 0)
(-9.1994457e-06 0.00071512905 0)
(-1.0781518e-05 0.00071409962 0)
(-1.1818556e-05 0.00071198863 0)
(-1.1669458e-05 0.0007080101 0)
(-9.0599697e-06 0.00070098694 0)
(-6.7752394e-06 0.00068935174 0)
(7.2000505e-06 0.00098953136 0)
(9.3827902e-06 0.0010036565 0)
(1.1699564e-05 0.0010126816 0)
(1.1679383e-05 0.0010179915 0)
(1.0587293e-05 0.0010208954 0)
(9.0116987e-06 0.0010223623 0)
(7.1651144e-06 0.0010230355 0)
(5.1768075e-06 0.0010233079 0)
(3.1230986e-06 0.0010233999 0)
(1.0423803e-06 0.0010234231 0)
(-1.0458652e-06 0.0010234229 0)
(-3.1265145e-06 0.0010233994 0)
(-5.1800883e-06 0.0010233071 0)
(-7.168184e-06 0.0010230344 0)
(-9.0144875e-06 0.0010223609 0)
(-1.0589723e-05 0.0010208936 0)
(-1.168137e-05 0.0010179894 0)
(-1.1701013e-05 0.0010126789 0)
(-9.3835892e-06 0.0010036533 0)
(-7.2004875e-06 0.00098952751 0)
(7.0920825e-06 0.0012857569 0)
(9.2595257e-06 0.0013034633 0)
(1.1646053e-05 0.001314657 0)
(1.1572071e-05 0.001321245 0)
(1.0445625e-05 0.0013248696 0)
(8.8686198e-06 0.0013267255 0)
(7.0422141e-06 0.0013275988 0)
(5.0854992e-06 0.0013279687 0)
(3.0678774e-06 0.0013281049 0)
(1.0242416e-06 0.0013281448 0)
(-1.0268997e-06 0.0013281446 0)
(-3.07048e-06 0.0013281043 0)
(-5.0879914e-06 0.0013279677 0)
(-7.044534e-06 0.0013275974 0)
(-8.8707076e-06 0.0013267238 0)
(-1.0447415e-05 0.0013248675 0)
(-1.1573494e-05 0.0013212425 0)
(-1.1647049e-05 0.0013146539 0)
(-9.260049e-06 0.0013034596 0)
(-7.0923325e-06 0.0012857527 0)
(7.0984373e-06 0.0015866931 0)
(9.2858722e-06 0.0016083877 0)
(1.1662048e-05 0.001621904 0)
(1.1522986e-05 0.0016298019 0)
(1.0356998e-05 0.0016341371 0)
(8.7695084e-06 0.0016363628 0)
(6.9516114e-06 0.0016374204 0)
(5.015135e-06 0.0016378782 0)
(3.0240292e-06 0.0016380537 0)
(1.0096167e-06 0.0016381083 0)
(-1.0115917e-06 0.0016381081 0)
(-3.025959e-06 0.0016380531 0)
(-5.016968e-06 0.0016378771 0)
(-6.9532987e-06 0.0016374189 0)
(-8.7710075e-06 0.0016363608 0)
(-1.0358252e-05 0.0016341347 0)
(-1.152394e-05 0.001629799 0)
(-1.1662678e-05 0.0016219005 0)
(-9.2861759e-06 0.0016083836 0)
(-7.0985441e-06 0.0015866885 0)
(7.2012256e-06 0.0018919136 0)
(9.4106853e-06 0.0019175155 0)
(1.1750439e-05 0.0019333486 0)
(1.1538783e-05 0.0019425505 0)
(1.0325109e-05 0.0019475805 0)
(8.7174419e-06 0.0019501582 0)
(6.8970475e-06 0.0019513859 0)
(4.9696314e-06 0.0019519219 0)
(2.9945474e-06 0.0019521314 0)
(9.9963629e-07 0.0019521984 0)
(-1.0010141e-06 0.0019521982 0)
(-2.9958804e-06 0.0019521307 0)
(-4.970894e-06 0.0019519207 0)
(-6.8981943e-06 0.0019513842 0)
(-8.7184332e-06 0.001950156 0)
(-1.0325902e-05 0.0019475779 0)
(-1.1539341e-05 0.0019425473 0)
(-1.1750756e-05 0.0019333449 0)
(-9.4108036e-06 0.0019175112 0)
(-7.2012142e-06 0.0018919089 0)
(7.3310648e-06 0.0022000164 0)
(9.56105e-06 0.0022295235 0)
(1.1888053e-05 0.0022476747 0)
(1.1609493e-05 0.0022581719 0)
(1.034384e-05 0.0022638804 0)
(8.7093856e-06 0.0022667923 0)
(6.8778178e-06 0.0022681761 0)
(4.9493936e-06 0.0022687808 0)
(2.9800466e-06 0.0022690184 0)
(9.9459969e-07 0.0022690952 0)
(-9.9542548e-07 0.002269095 0)
(-2.9808445e-06 0.0022690177 0)
(-4.9501347e-06 0.0022687796 0)
(-6.8784727e-06 0.0022681743 0)
(-8.7099231e-06 0.00226679 0)
(-1.0344229e-05 0.0022638776 0)
(-1.1609703e-05 0.0022581685 0)
(-1.1888104e-05 0.0022476707 0)
(-9.561036e-06 0.002229519 0)
(-7.3309796e-06 0.0022000116 0)
(7.4984461e-06 0.0025105155 0)
(9.7496017e-06 0.0025439993 0)
(1.2076257e-05 0.0025644946 0)
(1.1731711e-05 0.0025762878 0)
(1.0408214e-05 0.0025826648 0)
(8.7407777e-06 0.0025858974 0)
(6.8909023e-06 0.0025874255 0)
(4.9526017e-06 0.0025880902 0)
(2.9796001e-06 0.0025883503 0)
(9.942268e-07 0.0025884342 0)
(-9.9452057e-07 0.0025884339 0)
(-2.979876e-06 0.0025883495 0)
(-4.9528421e-06 0.0025880888 0)
(-6.8910877e-06 0.0025874235 0)
(-8.7408905e-06 0.0025858948 0)
(-1.0408231e-05 0.0025826616 0)
(-1.1731619e-05 0.0025762841 0)
(-1.2076095e-05 0.0025644903 0)
(-9.7494999e-06 0.0025439946 0)
(-7.498332e-06 0.0025105105 0)
(7.7266893e-06 0.0028234294 0)
(9.9967866e-06 0.0028609656 0)
(1.2318969e-05 0.0028838325 0)
(1.1905094e-05 0.0028969246 0)
(1.0516131e-05 0.0029039627 0)
(8.8081114e-06 0.0029075054 0)
(6.9326245e-06 0.0029091674 0)
(4.976119e-06 0.0029098833 0)
(2.9911014e-06 0.0029101599 0)
(9.9777072e-07 0.0029102478 0)
(-9.9758814e-07 0.0029102475 0)
(-2.9909166e-06 0.002910159 0)
(-4.9759218e-06 0.0029098818 0)
(-6.9324103e-06 0.0029091653 0)
(-8.8078726e-06 0.0029075027 0)
(-1.0515865e-05 0.0029039594 0)
(-1.1904795e-05 0.0028969207 0)
(-1.2318651e-05 0.0028838282 0)
(-9.9965802e-06 0.002860961 0)
(-7.7265367e-06 0.0028234242 0)
(8.0283003e-06 0.0031391182 0)
(1.0312472e-05 0.0031807734 0)
(1.2614947e-05 0.0032060402 0)
(1.2126174e-05 0.0032204298 0)
(1.0663597e-05 0.003228114 0)
(8.9054333e-06 0.0032319518 0)
(6.9952608e-06 0.003233737 0)
(5.0127344e-06 0.0032344943 0)
(3.009728e-06 0.0032347803 0)
(1.0036025e-06 0.0032348688 0)
(-1.0029082e-06 0.0032348685 0)
(-3.0090414e-06 0.0032347795 0)
(-5.0120642e-06 0.0032344929 0)
(-6.9946251e-06 0.0032337352 0)
(-8.9048371e-06 0.0032319494 0)
(-1.0663037e-05 0.003228111 0)
(-1.2125614e-05 0.0032204263 0)
(-1.2614372e-05 0.0032060363 0)
(-1.0312599e-05 0.0031807689 0)
(-8.0288358e-06 0.0031391137 0)
(8.3944466e-06 0.0034583388 0)
(1.0698067e-05 0.0035041138 0)
(1.2960541e-05 0.0035318142 0)
(1.2380503e-05 0.0035474808 0)
(1.0832945e-05 0.0035557627 0)
(9.0195402e-06 0.0035598634 0)
(7.0680531e-06 0.0035617584 0)
(5.051981e-06 0.0035625446 0)
(3.0283955e-06 0.0035628336 0)
(1.0092692e-06 0.0035629188 0)
(-1.0080115e-06 0.0035629186 0)
(-3.027152e-06 0.0035628328 0)
(-5.0507808e-06 0.0035625433 0)
(-7.0669473e-06 0.0035617566 0)
(-9.0185355e-06 0.0035598612 0)
(-1.0832039e-05 0.0035557602 0)
(-1.2379643e-05 0.0035474779 0)
(-1.2960124e-05 0.003531811 0)
(-1.06978e-05 0.0035041105 0)
(-8.3947821e-06 0.003458334 0)
(8.7276466e-06 0.0037822627 0)
(1.1099834e-05 0.0038323251 0)
(1.3341923e-05 0.0038624991 0)
(1.261278e-05 0.0038793934 0)
(1.0968195e-05 0.0038882554 0)
(9.1194783e-06 0.0038926021 0)
(7.1311719e-06 0.003894565 0)
(5.0787412e-06 0.0038953573 0)
(3.0384499e-06 0.0038956428 0)
(1.0113147e-06 0.0038957189 0)
(-1.0095538e-06 0.0038957186 0)
(-3.0366969e-06 0.003895642 0)
(-5.0769872e-06 0.0038953559 0)
(-7.1293938e-06 0.0038945633 0)
(-9.1177974e-06 0.0038925993 0)
(-1.0966754e-05 0.0038882523 0)
(-1.2611487e-05 0.0038793899 0)
(-1.3340714e-05 0.0038624953 0)
(-1.1099846e-05 0.0038323214 0)
(-8.7284892e-06 0.0037822575 0)
(9.1017263e-06 0.0041158014 0)
(1.1667702e-05 0.0041702973 0)
(1.3739349e-05 0.0042028045 0)
(1.2815146e-05 0.0042208106 0)
(1.1097444e-05 0.0042301845 0)
(9.1750432e-06 0.0042347289 0)
(7.1297076e-06 0.0042367332 0)
(5.0671033e-06 0.0042375267 0)
(3.0272426e-06 0.0042378048 0)
(1.0039049e-06 0.0042378643 0)
(-1.0017206e-06 0.0042378641 0)
(-3.0250384e-06 0.004237804 0)
(-5.0647498e-06 0.0042375254 0)
(-7.1281309e-06 0.0042367309 0)
(-9.1737195e-06 0.0042347267 0)
(-1.1095707e-05 0.0042301813 0)
(-1.2813738e-05 0.004220807 0)
(-1.3738127e-05 0.0042028005 0)
(-1.166699e-05 0.004170293 0)
(-9.1014054e-06 0.0041157971 0)
(9.6260959e-06 0.0044652588 0)
(1.2182092e-05 0.0045238351 0)
(1.3911757e-05 0.0045584293 0)
(1.2830984e-05 0.0045773485 0)
(1.108907e-05 0.0045870197 0)
(9.1378584e-06 0.0045916175 0)
(7.0720666e-06 0.0045936004 0)
(5.0172389e-06 0.0045943504 0)
(2.9834279e-06 0.0045946047 0)
(9.8070144e-07 0.00459464 0)
(-9.7803107e-07 0.0045946399 0)
(-2.9807108e-06 0.0045946043 0)
(-5.0151256e-06 0.0045943497 0)
(-7.0694231e-06 0.0045935999 0)
(-9.1353734e-06 0.0045916156 0)
(-1.108761e-05 0.0045870178 0)
(-1.2829377e-05 0.004577346 0)
(-1.391052e-05 0.0045584272 0)
(-1.2181534e-05 0.0045238328 0)
(-9.6258358e-06 0.0044652542 0)
(1.0161029e-05 0.0048291348 0)
(1.2313737e-05 0.0048921027 0)
(1.3713062e-05 0.0049288152 0)
(1.2471325e-05 0.0049485356 0)
(1.0755143e-05 0.0049583958 0)
(8.8542801e-06 0.0049629325 0)
(6.8280332e-06 0.0049647815 0)
(4.8476888e-06 0.0049654152 0)
(2.8795048e-06 0.004965622 0)
(9.3541092e-07 0.0049656315 0)
(-9.3179146e-07 0.0049656313 0)
(-2.8760111e-06 0.0049656215 0)
(-4.843781e-06 0.0049654141 0)
(-6.8260586e-06 0.0049647806 0)
(-8.852918e-06 0.0049629315 0)
(-1.0752716e-05 0.0049583951 0)
(-1.2469069e-05 0.0049485352 0)
(-1.3710986e-05 0.0049288146 0)
(-1.2312649e-05 0.0048921027 0)
(-1.0160222e-05 0.0048291329 0)
(1.0887845e-05 0.0052070988 0)
(1.2691008e-05 0.0052746379 0)
(1.329972e-05 0.0053134079 0)
(1.1782929e-05 0.0053338108 0)
(1.0093947e-05 0.0053437438 0)
(8.2491724e-06 0.0053481049 0)
(6.3227786e-06 0.0053497309 0)
(4.5217135e-06 0.0053501917 0)
(2.7029647e-06 0.0053503189 0)
(8.6788369e-07 0.0053502982 0)
(-8.6429038e-07 0.0053502979 0)
(-2.6994421e-06 0.0053503181 0)
(-4.5182943e-06 0.0053501905 0)
(-6.3184974e-06 0.0053497285 0)
(-8.2450514e-06 0.0053481038 0)
(-1.0090756e-05 0.005343742 0)
(-1.1780311e-05 0.0053338086 0)
(-1.329742e-05 0.0053134065 0)
(-1.2689079e-05 0.0052746366 0)
(-1.0886871e-05 0.0052070984 0)
(1.1173336e-05 0.0056031964 0)
(1.2635664e-05 0.0056749044 0)
(1.2435625e-05 0.0057153736 0)
(1.0594497e-05 0.0057361727 0)
(8.9293017e-06 0.0057459355 0)
(7.198487e-06 0.0057499316 0)
(5.4712482e-06 0.0057512194 0)
(3.967928e-06 0.0057514264 0)
(2.4163597e-06 0.0057514118 0)
(7.7032341e-07 0.0057513418 0)
(-7.662031e-07 0.0057513417 0)
(-2.4123223e-06 0.0057514116 0)
(-3.9642177e-06 0.0057514261 0)
(-5.4678283e-06 0.0057512187 0)
(-7.1954723e-06 0.0057499297 0)
(-8.9269997e-06 0.0057459331 0)
(-1.0590985e-05 0.0057361695 0)
(-1.2432333e-05 0.0057153704 0)
(-1.2634713e-05 0.0056749006 0)
(-1.1172827e-05 0.0056031936 0)
(1.1009598e-05 0.0060203948 0)
(1.2045342e-05 0.0060963437 0)
(1.0879744e-05 0.0061381322 0)
(8.7037425e-06 0.0061589538 0)
(7.0901242e-06 0.0061682588 0)
(5.5511899e-06 0.0061716858 0)
(4.1651977e-06 0.0061725064 0)
(3.1047156e-06 0.0061723803 0)
(1.9651078e-06 0.0061721483 0)
(6.2829667e-07 0.0061720029 0)
(-6.2377371e-07 0.0061720028 0)
(-1.9606561e-06 0.0061721481 0)
(-3.1005583e-06 0.00617238 0)
(-4.1613058e-06 0.006172506 0)
(-5.5476346e-06 0.0061716854 0)
(-7.0873582e-06 0.0061682586 0)
(-8.7014288e-06 0.0061589539 0)
(-1.0878015e-05 0.0061381308 0)
(-1.2044794e-05 0.0060963425 0)
(-1.1009324e-05 0.0060203939 0)
(1.0346684e-05 0.0064619567 0)
(1.0772425e-05 0.0065421797 0)
(8.3551492e-06 0.0065848405 0)
(5.8711893e-06 0.0066052368 0)
(4.3999492e-06 0.006613734 0)
(3.2016248e-06 0.0066164016 0)
(2.3410335e-06 0.0066166592 0)
(1.8669861e-06 0.0066161533 0)
(1.2975187e-06 0.0066156643 0)
(4.2710221e-07 0.0066154318 0)
(-4.2224765e-07 0.0066154318 0)
(-1.292701e-06 0.0066156642 0)
(-1.8625669e-06 0.0066161533 0)
(-2.3368255e-06 0.0066166589 0)
(-3.1975945e-06 0.0066164015 0)
(-4.3965739e-06 0.006613734 0)
(-5.8683789e-06 0.0066052373 0)
(-8.3530506e-06 0.0065848411 0)
(-1.0771661e-05 0.0065421812 0)
(-1.0346442e-05 0.0064619582 0)
(9.1224188e-06 0.006930699 0)
(8.6357828e-06 0.0070152704 0)
(4.5200518e-06 0.0070583307 0)
(1.8114864e-06 0.0070778651 0)
(6.9859605e-07 0.00708516 0)
(1.0317379e-07 0.0070868598 0)
(-4.5721255e-09 0.007086484 0)
(2.6642223e-07 0.007085582 0)
(4.2021506e-07 0.0070848622 0)
(1.674876e-07 0.0070845567 0)
(-1.623617e-07 0.0070845567 0)
(-4.1505475e-07 0.0070848622 0)
(-2.6178873e-07 0.0070855821 0)
(8.9927986e-09 0.0070864842 0)
(-9.8785911e-08 0.0070868601 0)
(-6.9485018e-07 0.0070851605 0)
(-1.8084465e-06 0.0070778658 0)
(-4.5173748e-06 0.0070583322 0)
(-8.6344291e-06 0.0070152719 0)
(-9.1220959e-06 0.0069306999 0)
(7.2251803e-06 0.0074283472 0)
(5.3865125e-06 0.0075176481 0)
(-9.6285767e-07 0.007560834 0)
(-3.7262559e-06 0.0075790437 0)
(-4.2045861e-06 0.0075848487 0)
(-3.796027e-06 0.007585329 0)
(-2.8462537e-06 0.0075842072 0)
(-1.6377995e-06 0.0075829115 0)
(-6.1201961e-07 0.007582045 0)
(-1.3911565e-07 0.0075817086 0)
(1.4449385e-07 0.0075817087 0)
(6.1742385e-07 0.0075820451 0)
(1.6427117e-06 0.0075829117 0)
(2.8509516e-06 0.0075842078 0)
(3.8007324e-06 0.0075853299 0)
(4.2085588e-06 0.0075848497 0)
(3.7299416e-06 0.0075790455 0)
(9.6560178e-07 0.0075608361 0)
(-5.3852779e-06 0.0075176516 0)
(-7.2241235e-06 0.00742835 0)
(4.5814031e-06 0.0079540225 0)
(8.3637283e-07 0.0080495705 0)
(-8.5001494e-06 0.0080930899 0)
(-1.0981227e-05 0.0081097301 0)
(-1.038725e-05 0.0081138913 0)
(-8.592284e-06 0.0081130046 0)
(-6.176515e-06 0.0081111357 0)
(-3.7380603e-06 0.0081095035 0)
(-1.7036347e-06 0.0081085965 0)
(-4.6707562e-07 0.0081082892 0)
(4.7257563e-07 0.0081082892 0)
(1.7091719e-06 0.0081085966 0)
(3.7433661e-06 0.0081095038 0)
(6.1817067e-06 0.0081111364 0)
(8.597103e-06 0.0081130056 0)
(1.0391797e-05 0.0081138928 0)
(1.098503e-05 0.0081097321 0)
(8.5043826e-06 0.0080930931 0)
(-8.3311092e-07 0.0080495748 0)
(-4.5800686e-06 0.0079540271 0)
(1.492916e-06 0.008502142 0)
(-4.9488062e-06 0.0086076112 0)
(-1.8320903e-05 0.0086527297 0)
(-1.9991883e-05 0.0086682899 0)
(-1.7785163e-05 0.0086710233 0)
(-1.4040997e-05 0.0086690615 0)
(-9.7362353e-06 0.0086667122 0)
(-5.8800411e-06 0.0086648649 0)
(-2.7727904e-06 0.0086640155 0)
(-7.934584e-07 0.0086637951 0)
(7.9904529e-07 0.0086637952 0)
(2.7784083e-06 0.0086640157 0)
(5.8855362e-06 0.0086648652 0)
(9.7416571e-06 0.0086667127 0)
(1.4046357e-05 0.0086690622 0)
(1.7789762e-05 0.0086710248 0)
(1.9996618e-05 0.0086682923 0)
(1.8325462e-05 0.0086527337 0)
(4.9514757e-06 0.008607615 0)
(-1.4908471e-06 0.0085021465 0)
(-1.7702615e-06 0.0090595203 0)
(-1.1690753e-05 0.0091820257 0)
(-3.0090209e-05 0.0092313369 0)
(-3.0104412e-05 0.0092467812 0)
(-2.5673062e-05 0.0092494023 0)
(-1.9358285e-05 0.0092472083 0)
(-1.3029485e-05 0.0092447554 0)
(-7.8534344e-06 0.0092428169 0)
(-3.7426117e-06 0.0092420846 0)
(-1.0976623e-06 0.0092419754 0)
(1.1032601e-06 0.0092419755 0)
(3.7482218e-06 0.0092420847 0)
(7.8589576e-06 0.0092428172 0)
(1.3034983e-05 0.009244756 0)
(1.9363725e-05 0.0092472091 0)
(2.5678639e-05 0.0092494038 0)
(3.0109798e-05 0.0092467842 0)
(3.0094816e-05 0.0092313408 0)
(1.1693977e-05 0.0091820316 0)
(1.7729935e-06 0.0090595287 0)
(-5.948549e-06 0.0096128954 0)
(-1.9987556e-05 0.0097547325 0)
(-4.3646474e-05 0.0098097355 0)
(-3.9937229e-05 0.009829018 0)
(-3.2438099e-05 0.0098324849 0)
(-2.3667339e-05 0.009834045 0)
(-1.5597877e-05 0.0098322002 0)
(-9.4869063e-06 0.0098302064 0)
(-4.5928768e-06 0.0098295041 0)
(-1.3827091e-06 0.0098294448 0)
(1.3882042e-06 0.0098294448 0)
(4.598557e-06 0.0098295043 0)
(9.4926423e-06 0.0098302066 0)
(1.5603405e-05 0.0098322007 0)
(2.3673011e-05 0.0098340455 0)
(3.2444004e-05 0.0098324866 0)
(3.994302e-05 0.00982902 0)
(4.3652214e-05 0.0098097395 0)
(1.999304e-05 0.0097547397 0)
(5.9529027e-06 0.0096129041 0)
(-2.3312863e-05 0.01015587 0)
(-4.4052889e-05 0.010346243 0)
(-5.8280116e-05 0.010399111 0)
(-4.6464132e-05 0.010416953 0)
(-3.5004169e-05 0.010425887 0)
(-2.3276965e-05 0.010427434 0)
(-1.6715954e-05 0.010424564 0)
(-1.0710967e-05 0.010421993 0)
(-5.4096774e-06 0.010420674 0)
(-1.684264e-06 0.010420304 0)
(1.6898928e-06 0.010420304 0)
(5.4152092e-06 0.010420675 0)
(1.0716574e-05 0.010421994 0)
(1.6721447e-05 0.010424565 0)
(2.3282962e-05 0.010427435 0)
(3.5010088e-05 0.01042589 0)
(4.6469798e-05 0.010416957 0)
(5.8286699e-05 0.010399117 0)
(4.4057397e-05 0.010346255 0)
(2.331571e-05 0.010155887 0)
(1.0451974e-06 0.010676809 0)
(-7.0211195e-05 0.010842974 0)
(-9.7091365e-05 0.010925693 0)
(-5.6163368e-05 0.010965655 0)
(-3.6485855e-05 0.010983963 0)
(-2.5736492e-05 0.010988324 0)
(-1.832032e-05 0.010988615 0)
(-1.2228514e-05 0.010988522 0)
(-6.868625e-06 0.010988779 0)
(-2.2500827e-06 0.010989253 0)
(2.2560862e-06 0.010989253 0)
(6.8756084e-06 0.010988779 0)
(1.2236124e-05 0.010988523 0)
(1.8326708e-05 0.010988615 0)
(2.5742615e-05 0.010988324 0)
(3.6492173e-05 0.010983963 0)
(5.6169155e-05 0.010965656 0)
(9.7099986e-05 0.010925697 0)
(7.0221168e-05 0.010842983 0)
(-1.0376919e-06 0.010676826 0)
(0.00051544266 0.01063151 0)
(0.00034322019 0.011253849 0)
(0.00014422396 0.011525649 0)
(7.5408202e-05 0.011619087 0)
(3.3166464e-05 0.011635145 0)
(2.0932686e-05 0.011642083 0)
(1.2241555e-05 0.011646916 0)
(6.4776381e-06 0.011649475 0)
(3.0545836e-06 0.011649839 0)
(8.6285994e-07 0.011650502 0)
(-8.5572558e-07 0.011650501 0)
(-3.0477399e-06 0.011649839 0)
(-6.4710353e-06 0.011649473 0)
(-1.2236178e-05 0.011646913 0)
(-2.0928297e-05 0.01164208 0)
(-3.3163898e-05 0.011635142 0)
(-7.5406164e-05 0.011619084 0)
(-0.00014421784 0.01152565 0)
(-0.00034321135 0.011253857 0)
(-0.00051542754 0.01063155 0)
(0.0011969049 0.0089484612 0)
(0.0018047123 0.011093918 0)
(0.0014881811 0.011493737 0)
(0.0010862093 0.011528664 0)
(0.00071966847 0.011542066 0)
(0.00047236176 0.011533147 0)
(0.00031154241 0.011524669 0)
(0.00019529915 0.01151697 0)
(0.00010700266 0.011512273 0)
(3.4280863e-05 0.011511155 0)
(-3.4276588e-05 0.011511156 0)
(-0.0001070006 0.011512276 0)
(-0.00019529668 0.011516979 0)
(-0.00031154227 0.01152468 0)
(-0.00047236623 0.011533161 0)
(-0.00071967669 0.011542084 0)
(-0.001086216 0.011528694 0)
(-0.0014881782 0.011493758 0)
(-0.0018047113 0.011093956 0)
(-0.0011969042 0.0089485396 0)
(0.0010451419 0.0071321985 0)
(0.002121032 0.010588986 0)
(0.0022995956 0.011493235 0)
(0.0020399702 0.011619943 0)
(0.0016236243 0.011563462 0)
(0.0012147694 0.011483359 0)
(0.00085755007 0.01140711 0)
(0.0005589799 0.011348733 0)
(0.00031346204 0.011309695 0)
(0.00010257026 0.011289882 0)
(-0.00010257637 0.011289884 0)
(-0.00031346758 0.011309705 0)
(-0.00055898611 0.011348745 0)
(-0.00085756297 0.01140713 0)
(-0.0012147714 0.01148338 0)
(-0.0016236268 0.011563471 0)
(-0.0020399789 0.011619961 0)
(-0.0022995838 0.011493248 0)
(-0.0021210119 0.010589009 0)
(-0.0010451365 0.0071322493 0)
(0.00070256832 0.0056590793 0)
(0.0017947586 0.009896842 0)
(0.0022311468 0.011456748 0)
(0.0021827801 0.011931988 0)
(0.0018831671 0.011986965 0)
(0.0015021799 0.011886006 0)
(0.0011199966 0.011754585 0)
(0.00076367045 0.011643782 0)
(0.00044140509 0.011568191 0)
(0.00014643547 0.011528424 0)
(-0.00014644755 0.011528427 0)
(-0.00044142137 0.011568196 0)
(-0.00076367524 0.011643795 0)
(-0.0011199976 0.011754598 0)
(-0.0015021915 0.011886025 0)
(-0.0018831777 0.011986965 0)
(-0.0021827881 0.011931996 0)
(-0.0022311265 0.011456753 0)
(-0.0017947469 0.0098968469 0)
(-0.0007025763 0.0056591384 0)
(0.00041863377 0.0045993661 0)
(0.0013192651 0.0091377285 0)
(0.0018426424 0.011214757 0)
(0.0019494901 0.012054296 0)
(0.001792053 0.012298998 0)
(0.0015039343 0.012274601 0)
(0.001167967 0.012151684 0)
(0.0008219877 0.012019998 0)
(0.00048494928 0.011919253 0)
(0.00016276988 0.011864624 0)
(-0.00016278842 0.011864625 0)
(-0.00048496239 0.011919259 0)
(-0.00082199745 0.01202001 0)
(-0.0011679814 0.012151684 0)
(-0.0015039443 0.012274603 0)
(-0.0017920628 0.012298998 0)
(-0.0019495025 0.0120543 0)
(-0.0018426477 0.011214764 0)
(-0.0013192555 0.0091377288 0)
(-0.00041863297 0.0045994242 0)
(0.00023645619 0.0039050062 0)
(0.00089282449 0.0084662124 0)
(0.0013950323 0.010881524 0)
(0.001582518 0.012022894 0)
(0.0015363538 0.012463575 0)
(0.0013483276 0.012546958 0)
(0.001085067 0.012472259 0)
(0.00078477945 0.012353639 0)
(0.00047195234 0.012251742 0)
(0.00015994116 0.012194201 0)
(-0.0001599584 0.012194202 0)
(-0.00047196676 0.012251749 0)
(-0.000784795 0.012353643 0)
(-0.00108508 0.012472264 0)
(-0.0013483395 0.012546962 0)
(-0.0015363663 0.012463577 0)
(-0.0015825327 0.012022897 0)
(-0.001395049 0.010881533 0)
(-0.00089284249 0.0084662304 0)
(-0.00023647127 0.003905048 0)
(0.00013296379 0.003468323 0)
(0.00057638436 0.007943988 0)
(0.00099874808 0.010555463 0)
(0.001206731 0.011919242 0)
(0.0012309564 0.012531926 0)
(0.0011254439 0.012729343 0)
(0.00093517615 0.012720924 0)
(0.00069299612 0.012636413 0)
(0.00042371205 0.012549062 0)
(0.0001447502 0.012496905 0)
(-0.00014476682 0.012496907 0)
(-0.00042372794 0.012549065 0)
(-0.00069301048 0.012636418 0)
(-0.0009351892 0.012720929 0)
(-0.0011254563 0.012729347 0)
(-0.00123097 0.01253193 0)
(-0.0012067462 0.011919247 0)
(-0.000998765 0.010555473 0)
(-0.00057640338 0.0079440074 0)
(-0.00013297366 0.0034683572 0)
(7.581351e-05 0.0031978482 0)
(0.00036204402 0.0075658899 0)
(0.00068648763 0.010276581 0)
(0.00087952491 0.01179119 0)
(0.00094003278 0.012541435 0)
(0.00089226584 0.012842791 0)
(0.00076339078 0.012905458 0)
(0.00057849967 0.012865103 0)
(0.00035907572 0.01280226 0)
(0.00012344631 0.01276111 0)
(-0.00012346162 0.012761111 0)
(-0.00035909025 0.012802262 0)
(-0.00057851341 0.012865107 0)
(-0.00076340351 0.012905463 0)
(-0.00089227823 0.012842796 0)
(-0.00094004573 0.012541439 0)
(-0.00087953838 0.011791196 0)
(-0.00068650258 0.01027659 0)
(-0.00036205887 0.007565903 0)
(-7.581916e-05 0.003197863 0)
(4.4362536e-05 0.0030313952 0)
(0.0002243174 0.0073049783 0)
(0.00045838944 0.010057128 0)
(0.00062004935 0.011666858 0)
(0.00069188929 0.012518065 0)
(0.00067988572 0.012906061 0)
(0.00059774369 0.013035537 0)
(0.00046241498 0.013041542 0)
(0.00029098922 0.013007145 0)
(0.00010056366 0.012979642 0)
(-0.00010057733 0.012979642 0)
(-0.00029100259 0.013007147 0)
(-0.0004624276 0.013041545 0)
(-0.00059775573 0.013035541 0)
(-0.00067989751 0.012906065 0)
(-0.0006919011 0.01251807 0)
(-0.00062006105 0.011666864 0)
(-0.00045840161 0.010057135 0)
(-0.000224328 0.0073049866 0)
(-4.4366089e-05 0.0030314002 0)
(2.6897374e-05 0.0029292897 0)
(0.0001388008 0.0071318294 0)
(0.0002998207 0.0098948286 0)
(0.00042565644 0.011559766 0)
(0.00049441776 0.012480553 0)
(0.00050196225 0.012936271 0)
(0.0004527389 0.013123201 0)
(0.00035697219 0.013172404 0)
(0.00022746212 0.013166297 0)
(7.8952777e-05 0.01315281 0)
(-7.8964904e-05 0.013152811 0)
(-0.0002274739 0.013166299 0)
(-0.00035698342 0.013172407 0)
(-0.00045274965 0.013123204 0)
(-0.00050197293 0.012936275 0)
(-0.00049442823 0.012480559 0)
(-0.00042566647 0.011559772 0)
(-0.00029983071 0.009894834 0)
(-0.0001388091 0.007131834 0)
(-2.6900081e-05 0.0029292894 0)
(1.729087e-05 0.0028625737 0)
(8.6631241e-05 0.0070160686 0)
(0.00019418486 0.0097768689 0)
(0.00028745623 0.011471098 0)
(0.00034574404 0.0124391 0)
(0.00036171957 0.012946489 0)
(0.00033399339 0.013180521 0)
(0.00026792864 0.013267564 0)
(0.00017264571 0.013287481 0)
(6.0143659e-05 0.01328723 0)
(-6.0154205e-05 0.01328723 0)
(-0.00017265579 0.013287482 0)
(-0.0002679387 0.013267566 0)
(-0.00033400298 0.013180523 0)
(-0.00036172864 0.012946493 0)
(-0.00034575304 0.012439105 0)
(-0.00028746539 0.011471103 0)
(-0.00019419327 0.0097768737 0)
(-8.6637555e-05 0.0070160701 0)
(-1.7292974e-05 0.0028625694 0)
(1.3282255e-05 0.0028111232 0)
(5.8792429e-05 0.0069288088 0)
(0.00013030174 0.009681094 0)
(0.00019895205 0.011390839 0)
(0.00024663738 0.012393299 0)
(0.00026323385 0.012945677 0)
(0.00024703462 0.013226663 0)
(0.00020097777 0.013353849 0)
(0.00013071966 0.013402522 0)
(4.5679589e-05 0.013417258 0)
(-4.5688918e-05 0.013417258 0)
(-0.00013072856 0.013402523 0)
(-0.00020098663 0.01335385 0)
(-0.00024704315 0.013226665 0)
(-0.00026324183 0.01294568 0)
(-0.00024664553 0.012393303 0)
(-0.00019895957 0.011390844 0)
(-0.0001303088 0.0096810945 0)
(-5.879835e-05 0.0069288071 0)
(-1.3283856e-05 0.0028111139 0)
)
;

boundaryField
{
    Wall
    {
        type            fixedValue;
        value           uniform (0 0 0);
    }
    frontAndBack
    {
        type            empty;
    }
    atmosphere
    {
        type            pressureInletOutletVelocity;
        value           nonuniform List<vector> 
20
(
(1.3282255e-05 0.0028111232 0)
(5.8792429e-05 0.0069288088 0)
(0.00013030174 0.009681094 0)
(0.00019895205 0.011390839 0)
(0.00024663738 0.012393299 0)
(0.00026323385 0.012945677 0)
(0.00024703462 0.013226663 0)
(0.00020097777 0.013353849 0)
(0.00013071966 0.013402522 0)
(4.5679589e-05 0.013417258 0)
(-4.5688918e-05 0.013417258 0)
(-0.00013072856 0.013402523 0)
(-0.00020098663 0.01335385 0)
(-0.00024704315 0.013226665 0)
(-0.00026324183 0.01294568 0)
(-0.00024664553 0.012393303 0)
(-0.00019895957 0.011390844 0)
(-0.0001303088 0.0096810945 0)
(-5.879835e-05 0.0069288071 0)
(-1.3283856e-05 0.0028111139 0)
)
;
    }
}


// ************************************************************************* //
