/*--------------------------------*- C++ -*----------------------------------*\
| =========                 |                                                 |
| \\      /  F ield         | OpenFOAM: The Open Source CFD Toolbox           |
|  \\    /   O peration     | Version:  3.0.1                                 |
|   \\  /    A nd           | Web:      www.OpenFOAM.org                      |
|    \\/     M anipulation  |                                                 |
\*---------------------------------------------------------------------------*/
FoamFile
{
    version     2.0;
    format      ascii;
    class       volScalarField;
    location    "31";
    object      wBA_l_0;
}
// * * * * * * * * * * * * * * * * * * * * * * * * * * * * * * * * * * * * * //

dimensions      [0 0 0 0 0 0 0];

internalField   nonuniform List<scalar> 
800
(
0.043711753
0.043709478
0.043709079
0.043709032
0.043709028
0.043709025
0.043709019
0.043709011
0.043709006
0.043709003
0.043709003
0.043709006
0.043709012
0.043709018
0.043709025
0.043709028
0.043709031
0.043709079
0.043709478
0.043711753
0.044290001
0.044263791
0.044257442
0.044255798
0.044255461
0.044255446
0.044255482
0.044255503
0.044255509
0.044255509
0.044255509
0.044255509
0.044255503
0.044255482
0.044255447
0.044255461
0.044255799
0.044257443
0.044263792
0.044290003
0.044605787
0.044571279
0.044561692
0.044559232
0.044558652
0.044558538
0.044558507
0.044558475
0.044558442
0.044558423
0.044558423
0.044558443
0.044558475
0.044558507
0.044558539
0.044558652
0.044559233
0.044561692
0.04457128
0.04460579
0.044673329
0.044639824
0.04463013
0.044627898
0.044627394
0.04462724
0.04462712
0.044627001
0.044626903
0.04462685
0.04462685
0.044626903
0.044627001
0.04462712
0.04462724
0.044627394
0.044627898
0.04463013
0.044639824
0.04467333
0.044507775
0.044484281
0.044476941
0.044475711
0.044475542
0.044475407
0.044475193
0.044474968
0.044474788
0.044474692
0.044474692
0.044474788
0.044474967
0.044475192
0.044475406
0.044475542
0.044475711
0.04447694
0.04448428
0.044507774
0.04412851
0.044123144
0.044120163
0.044120521
0.044120863
0.04412078
0.044120464
0.044120118
0.044119843
0.044119697
0.044119697
0.044119842
0.044120117
0.044120463
0.044120778
0.044120861
0.044120519
0.044120161
0.044123142
0.044128507
0.043558681
0.043578284
0.04358136
0.04358374
0.043584679
0.04358465
0.043584216
0.043583733
0.043583352
0.043583153
0.043583153
0.043583352
0.043583732
0.043584214
0.043584648
0.043584676
0.043583736
0.043581356
0.04357828
0.043558676
0.042824856
0.042874861
0.042885487
0.042890177
0.042891731
0.04289172
0.042891141
0.042890506
0.04289001
0.042889753
0.042889753
0.042890009
0.042890504
0.042891139
0.042891717
0.042891728
0.042890173
0.042885482
0.042874855
0.04282485
0.04195458
0.042039144
0.042058696
0.04206587
0.042067993
0.042067956
0.042067197
0.042066393
0.042065773
0.042065455
0.042065454
0.042065771
0.04206639
0.042067194
0.042067952
0.042067988
0.042065864
0.042058689
0.042039137
0.041954572
0.040975961
0.041097975
0.041127706
0.041137453
0.041140069
0.04113996
0.041138986
0.041137996
0.041137242
0.041136859
0.041136858
0.04113724
0.041137994
0.041138982
0.041139956
0.041140064
0.041137446
0.041127698
0.041097967
0.040975952
0.039915527
0.040077039
0.040118152
0.040130523
0.04013358
0.040133353
0.04013213
0.040130939
0.040130035
0.04012958
0.04012958
0.040130033
0.040130936
0.040132126
0.040133348
0.040133574
0.040130516
0.040118144
0.040077031
0.039915518
0.038796502
0.038999121
0.039052821
0.039067895
0.039071398
0.039071007
0.039069501
0.039068092
0.03906704
0.039066504
0.039066503
0.039067038
0.039068089
0.039069496
0.039071001
0.039071392
0.039067888
0.039052813
0.038999112
0.038796492
0.037638166
0.037883324
0.037950861
0.037968894
0.037972882
0.037972242
0.037970446
0.037968804
0.037967611
0.037966978
0.037966977
0.037967609
0.0379688
0.037970441
0.037972236
0.037972876
0.037968887
0.037950853
0.037883316
0.037638157
0.036455498
0.03674112
0.03682397
0.036845556
0.036849691
0.036848387
0.036846591
0.036844686
0.036843363
0.036842647
0.036842647
0.036843361
0.036844683
0.036846586
0.036848382
0.036849685
0.036845548
0.036823962
0.036741112
0.03645549
0.035260551
0.035592045
0.035692108
0.035718264
0.035722696
0.035721272
0.035718812
0.035716628
0.035715195
0.035714422
0.035714421
0.035715193
0.035716624
0.035718807
0.035721267
0.03572269
0.035718257
0.0356921
0.035592038
0.035260544
0.034041685
0.034428825
0.034548674
0.034580739
0.034586927
0.034585335
0.034582211
0.034579758
0.034578253
0.034577429
0.034577428
0.034578251
0.034579754
0.034582207
0.03458533
0.034586921
0.034580732
0.034548667
0.034428818
0.034041679
0.032816911
0.033260041
0.033403313
0.03344311
0.03345161
0.033449797
0.033446087
0.033443298
0.033441747
0.03344084
0.033440839
0.033441745
0.033443294
0.033446083
0.033449792
0.033451604
0.033443104
0.033403306
0.033260035
0.032816906
0.031583325
0.032087269
0.032259167
0.032309338
0.032320867
0.032319001
0.03231466
0.032311378
0.032309796
0.032308755
0.032308754
0.032309795
0.032311375
0.032314656
0.032318997
0.032320862
0.032309333
0.032259161
0.032087264
0.03158332
0.030333506
0.030905328
0.031112945
0.031177342
0.031193346
0.031191803
0.03118672
0.031182717
0.031181069
0.031179838
0.031179837
0.031181067
0.031182714
0.031186717
0.031191799
0.031193341
0.031177337
0.03111294
0.030905323
0.030333503
0.029055831
0.029704443
0.029957248
0.030041376
0.030064123
0.030063484
0.030057519
0.030052502
0.03005069
0.030049205
0.030049204
0.030050688
0.030052499
0.030057516
0.03006348
0.030064119
0.030041372
0.029957243
0.02970444
0.029055829
0.027733752
0.028470514
0.028780903
0.028892434
0.028925348
0.028926627
0.028919668
0.028913275
0.028911032
0.028909192
0.028909191
0.02891103
0.028913272
0.028919665
0.028926624
0.028925345
0.028892431
0.028780899
0.028470511
0.027733753
0.026344385
0.027184004
0.027568309
0.027718007
0.027766289
0.027771104
0.027763316
0.027755075
0.027751939
0.027749565
0.027749565
0.027751937
0.027755072
0.027763313
0.027771101
0.027766286
0.027718004
0.027568306
0.027184004
0.026344388
0.024856895
0.025818394
0.026298346
0.026501465
0.026572936
0.026584321
0.026575828
0.02656512
0.026560439
0.026557217
0.026557216
0.026560437
0.026565117
0.026575826
0.026584319
0.026572934
0.026501463
0.026298345
0.025818396
0.024856902
0.023229028
0.024337019
0.02494302
0.025220582
0.025327934
0.025350093
0.025341245
0.025327256
0.025320129
0.025315525
0.025315524
0.025320127
0.025327253
0.025341243
0.025350091
0.025327933
0.025220582
0.02494302
0.024337023
0.02322904
0.021400331
0.022689146
0.02346196
0.02384524
0.02400697
0.024047369
0.024039808
0.024021503
0.024010606
0.024003763
0.024003762
0.024010605
0.024021501
0.024039806
0.024047368
0.024006969
0.023845241
0.023461963
0.022689155
0.02140035
0.019264555
0.020795905
0.021794541
0.022332007
0.022576151
0.022650114
0.022647931
0.022624161
0.022607477
0.022597021
0.02259702
0.022607476
0.02262416
0.022647931
0.022650115
0.022576153
0.02233201
0.021794549
0.020795923
0.019264588
0.01663316
0.018460495
0.019790783
0.020563594
0.020941755
0.021078378
0.021090935
0.021061575
0.021036631
0.021020693
0.021020693
0.02103663
0.021061573
0.021090936
0.021078379
0.020941757
0.020563599
0.019790794
0.018460521
0.016633203
0.013587442
0.015686774
0.017345346
0.018419617
0.019006813
0.019238186
0.019274928
0.019237445
0.019197062
0.019170769
0.019170768
0.01919706
0.019237443
0.019274927
0.019238186
0.019006815
0.018419621
0.017345358
0.015686808
0.013587501
0.0097505137
0.012301049
0.014541063
0.016119732
0.017046518
0.017472967
0.017577154
0.017538292
0.017475061
0.017431638
0.017431637
0.017475059
0.01753829
0.017577155
0.017472967
0.017046522
0.016119737
0.014541087
0.012301094
0.0097505933
0.0056162317
0.0087536291
0.01129698
0.013257487
0.014575275
0.015259988
0.015468503
0.015434618
0.015343999
0.015276332
0.015276331
0.015344
0.015434619
0.015468506
0.015259992
0.014575277
0.013257501
0.011297004
0.0087536726
0.005616309
0.0023539528
0.0057657109
0.0084617875
0.010623179
0.012169545
0.01305785
0.013369255
0.013344835
0.013215466
0.013115049
0.013115048
0.013215466
0.013344836
0.013369257
0.013057851
0.01216955
0.010623189
0.0084618094
0.0057657434
0.002354002
0.00069125317
0.0035589085
0.0062000794
0.0084121517
0.010062171
0.011047037
0.011415253
0.011389487
0.011228094
0.011098602
0.011098601
0.011228094
0.011389488
0.011415254
0.011047038
0.010062172
0.0084121606
0.0062000943
0.0035589273
0.0006912746
0.00014573761
0.0020686109
0.0044712128
0.0066138758
0.0082516513
0.0092505683
0.0096300238
0.0095975254
0.0094149286
0.0092664919
0.0092664911
0.0094149281
0.009597526
0.009630024
0.0092505677
0.0082516501
0.0066138791
0.0044712207
0.0020686205
0.00014574387
2.3642042e-05
0.001128454
0.0031757894
0.0051593885
0.0067119898
0.007662407
0.0080240099
0.0079850068
0.0077964486
0.0076428799
0.0076428789
0.0077964474
0.0079850062
0.008024009
0.0076624053
0.0067119853
0.0051593879
0.0031757913
0.0011284582
2.3643297e-05
3.1925015e-06
0.0005770832
0.0022129045
0.0039787842
0.005394481
0.006263415
0.0065916769
0.0065505132
0.0063706866
0.0062246079
0.0062246066
0.0063706845
0.0065505113
0.0065916748
0.0062634124
0.005394477
0.0039787816
0.0022129038
0.00057708586
3.1926798e-06
3.8381157e-07
0.00027822023
0.0015044242
0.0030154212
0.0042664404
0.0050369438
0.0053263544
0.0052887978
0.0051288788
0.0049992805
0.004999279
0.005128876
0.0052887949
0.0053263513
0.0050369405
0.0042664365
0.0030154185
0.0015044237
0.00027822181
3.8383314e-07
4.3378544e-08
0.00012765512
0.0009924391
0.0022354667
0.0033081593
0.0039737571
0.0042245009
0.0041953568
0.0040618434
0.0039535129
0.0039535112
0.0040618402
0.0041953531
0.0042244975
0.0039737537
0.0033081555
0.0022354641
0.00099243881
0.00012765592
4.3380826e-08
4.7917019e-09
5.625334e-05
0.00063352542
0.0016153029
0.0025073523
0.0030686208
0.0032832036
0.0032650109
0.0031599026
0.0030739759
0.0030739742
0.0031598992
0.003265007
0.0032832
0.0030686174
0.0025073491
0.0016153008
0.00063352524
5.6253696e-05
4.7919285e-09
5.2938499e-10
2.396716e-05
0.00039090099
0.0011348985
0.0018537529
0.0023158114
0.0024972036
0.0024900429
0.002411824
0.0023468221
0.0023468205
0.0024118208
0.002490039
0.0024972002
0.0023158084
0.0018537503
0.0011348969
0.00039090093
2.3967311e-05
5.2940686e-10
5.9463892e-11
9.9163975e-06
0.00023317925
0.00077429349
0.0013351584
0.0017061733
0.0018571668
0.0018592275
0.0018041586
0.0017571106
0.0017571091
0.0018041556
0.0018592239
0.0018571637
0.0017061707
0.0013351564
0.00077429245
0.00023317925
9.9164587e-06
5.9465634e-11
)
;

boundaryField
{
    Wall
    {
        type            zeroGradient;
    }
    frontAndBack
    {
        type            empty;
    }
    atmosphere
    {
        type            zeroGradient;
    }
}


// ************************************************************************* //
