/*--------------------------------*- C++ -*----------------------------------*\
| =========                 |                                                 |
| \\      /  F ield         | OpenFOAM: The Open Source CFD Toolbox           |
|  \\    /   O peration     | Version:  3.0.1                                 |
|   \\  /    A nd           | Web:      www.OpenFOAM.org                      |
|    \\/     M anipulation  |                                                 |
\*---------------------------------------------------------------------------*/
FoamFile
{
    version     2.0;
    format      ascii;
    class       volScalarField;
    location    "31";
    object      wBA_l;
}
// * * * * * * * * * * * * * * * * * * * * * * * * * * * * * * * * * * * * * //

dimensions      [0 0 0 0 0 0 0];

internalField   nonuniform List<scalar> 
800
(
0.043653424
0.043651151
0.043650751
0.043650704
0.043650701
0.043650698
0.043650691
0.043650684
0.043650679
0.043650676
0.043650676
0.043650679
0.043650684
0.043650691
0.043650698
0.043650701
0.043650704
0.043650751
0.043651151
0.043653424
0.044229504
0.044203344
0.044197001
0.044195355
0.044195015
0.044194999
0.044195033
0.044195054
0.04419506
0.04419506
0.04419506
0.04419506
0.044195055
0.044195034
0.044194999
0.044195015
0.044195356
0.044197002
0.044203346
0.044229507
0.044545247
0.044510772
0.044501182
0.044498716
0.044498132
0.044498016
0.044497985
0.044497953
0.044497921
0.044497901
0.044497901
0.044497921
0.044497953
0.044497985
0.044498017
0.044498132
0.044498716
0.044501183
0.044510773
0.044545249
0.044614726
0.044581183
0.044571468
0.044569224
0.044568716
0.044568561
0.044568442
0.044568325
0.044568228
0.044568175
0.044568175
0.044568228
0.044568325
0.044568442
0.044568562
0.044568716
0.044569224
0.044571468
0.044581184
0.044614728
0.044452877
0.044429222
0.044421837
0.044420593
0.044420421
0.044420287
0.044420077
0.044419854
0.044419676
0.044419581
0.044419581
0.044419676
0.044419854
0.044420076
0.044420287
0.04442042
0.044420592
0.044421836
0.044429222
0.044452876
0.044078806
0.044073122
0.044070069
0.044070411
0.044070754
0.044070677
0.044070367
0.044070025
0.044069753
0.044069609
0.044069609
0.044069753
0.044070024
0.044070366
0.044070675
0.044070752
0.044070409
0.044070067
0.04407312
0.044078803
0.04351534
0.043534446
0.043537424
0.043539788
0.043540735
0.043540717
0.043540293
0.043539817
0.04353944
0.043539243
0.043539243
0.043539439
0.043539815
0.043540291
0.043540715
0.043540732
0.043539785
0.04353742
0.043534442
0.043515335
0.042788718
0.042838034
0.042848533
0.042853213
0.042854783
0.04285479
0.042854225
0.042853598
0.042853108
0.042852854
0.042852854
0.042853107
0.042853596
0.042854222
0.042854787
0.042854779
0.042853208
0.042848528
0.042838029
0.042788711
0.041926188
0.04200987
0.042029263
0.042036434
0.042038583
0.042038572
0.042037832
0.042037039
0.042036426
0.042036111
0.042036111
0.042036425
0.042037037
0.042037829
0.042038568
0.042038578
0.042036428
0.042029257
0.042009863
0.041926179
0.040955577
0.04107652
0.041106055
0.041115808
0.041118463
0.041118387
0.041117437
0.041116461
0.041115715
0.041115335
0.041115334
0.041115713
0.041116458
0.041117433
0.041118383
0.041118457
0.041115801
0.041106048
0.041076513
0.040955568
0.039903195
0.040063452
0.040104323
0.04011671
0.040119818
0.040119632
0.040118436
0.040117262
0.040116368
0.040115917
0.040115916
0.040116366
0.040117259
0.040118432
0.040119627
0.040119812
0.040116703
0.040104316
0.040063444
0.039903186
0.038792098
0.03899328
0.039046684
0.03906178
0.039065344
0.039065002
0.039063528
0.039062138
0.039061096
0.039060565
0.039060564
0.039061094
0.039062135
0.039063523
0.039064997
0.039065338
0.039061772
0.039046676
0.038993272
0.038792089
0.037641422
0.037884964
0.037952138
0.03797019
0.037974249
0.037973154
0.037971392
0.03796977
0.037968589
0.037967962
0.037967961
0.037968586
0.037969767
0.037971387
0.037973148
0.037974243
0.037970183
0.03795213
0.037884955
0.037641413
0.03646335
0.036749569
0.036831977
0.036853562
0.03685778
0.036856548
0.036854782
0.0368529
0.036851588
0.036850878
0.036850877
0.036851586
0.036852896
0.036854777
0.036856542
0.036857774
0.036853555
0.036831969
0.03674956
0.036463342
0.035274913
0.035607314
0.035706808
0.035732917
0.035737418
0.035736054
0.035733644
0.035731484
0.035730061
0.035729294
0.035729293
0.035730059
0.03573148
0.035733639
0.035736049
0.035737412
0.03573291
0.035706801
0.035607306
0.035274905
0.034066794
0.034451257
0.034570357
0.034602301
0.034608509
0.034606975
0.034603907
0.034601477
0.034599981
0.034599162
0.034599161
0.034599979
0.034601474
0.034603903
0.03460697
0.034608503
0.034602294
0.03457035
0.03445125
0.034066787
0.032849329
0.033289509
0.033431782
0.033471348
0.033479824
0.033478071
0.033474414
0.033471652
0.033470106
0.033469205
0.033469204
0.033470104
0.033471649
0.03347441
0.033478067
0.033479819
0.033471342
0.033431776
0.033289503
0.032849323
0.031623278
0.032123812
0.032294342
0.032344108
0.032355561
0.032353745
0.032349459
0.032346213
0.032344632
0.032343599
0.032343598
0.03234463
0.03234621
0.032349455
0.03235374
0.032355556
0.032344103
0.032294335
0.032123806
0.031623273
0.030381577
0.030949364
0.031155088
0.031218809
0.031234635
0.031233118
0.031228098
0.031224143
0.031222496
0.031221276
0.031221275
0.031222494
0.03122414
0.031228094
0.031233114
0.031234631
0.031218805
0.031155082
0.030949359
0.030381574
0.029112973
0.029756763
0.030006935
0.030089977
0.030112376
0.030111721
0.030105828
0.03010088
0.030099073
0.030097604
0.030097603
0.030099071
0.030100877
0.030105825
0.030111717
0.030112372
0.030089973
0.03000693
0.029756759
0.029112971
0.027801414
0.028532339
0.028839073
0.028948906
0.028981204
0.02898239
0.028975512
0.028969217
0.028966998
0.028965182
0.028965181
0.028966997
0.028969214
0.028975509
0.028982387
0.028981201
0.028948903
0.028839069
0.028532337
0.027801414
0.026424702
0.027257156
0.027636382
0.027783472
0.027830709
0.027835302
0.027827588
0.027819489
0.027816414
0.02781408
0.027814079
0.027816412
0.027819486
0.027827586
0.027835299
0.027830706
0.02778347
0.027636379
0.027257155
0.026424704
0.024952933
0.025905521
0.026378406
0.026577531
0.026647274
0.026658202
0.026649787
0.026639283
0.026634721
0.026631569
0.026631568
0.02663472
0.026639281
0.026649785
0.0266582
0.026647272
0.02657753
0.026378404
0.025905523
0.02495294
0.023345244
0.024442007
0.025037977
0.025309531
0.025414028
0.025435383
0.025426602
0.025412907
0.025405986
0.025401503
0.025401502
0.025405985
0.025412904
0.0254266
0.025435381
0.025414027
0.025309531
0.025037978
0.024442012
0.023345256
0.021543571
0.022817655
0.023576189
0.023950239
0.024107452
0.024146381
0.024138772
0.024120881
0.024110325
0.024103686
0.024103685
0.024110323
0.024120879
0.02413877
0.02414638
0.024107451
0.02395024
0.023576192
0.022817664
0.021543589
0.019451302
0.020958919
0.021936147
0.022459284
0.022695752
0.022766817
0.022764097
0.022740794
0.022724614
0.022714491
0.022714491
0.022724613
0.022740792
0.022764096
0.022766817
0.022695752
0.022459286
0.021936153
0.020958934
0.019451332
0.016873145
0.018687893
0.019982517
0.020731954
0.021098525
0.021228677
0.021239666
0.021210741
0.021186526
0.021171088
0.021171087
0.021186525
0.021210739
0.021239666
0.021228678
0.021098527
0.020731958
0.019982526
0.018687918
0.016873187
0.013893322
0.015957111
0.017577239
0.018620594
0.019189229
0.01941154
0.019446034
0.019409532
0.019370952
0.019345826
0.019345825
0.01937095
0.019409531
0.019446034
0.019411541
0.019189232
0.018620599
0.017577251
0.015957145
0.013893381
0.010135242
0.012641946
0.014839566
0.016369332
0.017258711
0.017665777
0.017763512
0.017725225
0.017664569
0.017623031
0.017623029
0.017664567
0.017725224
0.017763512
0.017665777
0.017258714
0.016369337
0.014839589
0.012641992
0.010135321
0.0059972327
0.0090740069
0.011601399
0.013540766
0.014832101
0.015483492
0.015680482
0.015646146
0.015558761
0.015493794
0.015493794
0.015558762
0.015646147
0.015680485
0.015483496
0.014832104
0.013540779
0.011601423
0.0090740515
0.0059973125
0.0026025268
0.0060213179
0.0087131772
0.010866084
0.012404853
0.013290206
0.013602578
0.013578281
0.013450908
0.013352963
0.013352962
0.013450908
0.013578281
0.013602581
0.013290208
0.012404858
0.010866095
0.0087131999
0.0060213526
0.0026025797
0.00079200225
0.0037397526
0.0063968051
0.0086142631
0.010267113
0.011255087
0.011626099
0.011604618
0.011447344
0.011320302
0.011320301
0.011447345
0.01160462
0.011626101
0.011255088
0.010267115
0.0086142726
0.006396821
0.003739773
0.00079202626
0.00017220642
0.0021873839
0.0046212117
0.0067805044
0.0084318298
0.0094414852
0.0098283096
0.0097995815
0.0096186236
0.0094707789
0.0094707782
0.0096186234
0.0097995824
0.00982831
0.0094414848
0.0084318288
0.0067805082
0.0046212204
0.0021873944
0.00017221372
2.8553362e-05
0.0012011074
0.0032892573
0.0052977497
0.006870194
0.0078367131
0.008207762
0.0081721274
0.0079834736
0.0078289574
0.0078289563
0.0079834725
0.0081721271
0.0082077612
0.0078367115
0.0068701898
0.0052977495
0.0032892596
0.0012011119
2.8554883e-05
3.9061089e-06
0.0006181201
0.0022985289
0.0040945993
0.0055345839
0.006421707
0.0067599191
0.006721163
0.0065396538
0.0063913916
0.0063913904
0.0065396518
0.0067211613
0.006759917
0.0064217044
0.0055345797
0.0040945967
0.0022985282
0.00061812286
3.9063316e-06
4.7249496e-07
0.00029965599
0.0015683129
0.0031127163
0.0043900289
0.0051792578
0.005478144
0.0054419179
0.0052791755
0.0051466335
0.005146632
0.005279173
0.0054419151
0.0054781411
0.0051792546
0.0043900248
0.0031127134
0.0015683123
0.00029965766
4.72522e-07
5.3432365e-08
0.00013812599
0.0010390279
0.0023160252
0.0034155764
0.0040994861
0.0043587811
0.0043300932
0.0041931698
0.004081614
0.0040816123
0.0041931667
0.0043300897
0.0043587777
0.0040994827
0.0034155725
0.0023160225
0.0010390276
0.00013812685
5.3435246e-08
5.8829346e-09
6.1104834e-05
0.00066631677
0.0016803492
0.0025985667
0.0031770923
0.0033992132
0.0033809495
0.003272354
0.0031833039
0.0031833022
0.0032723507
0.0033809456
0.0033992097
0.003177089
0.0025985634
0.001680347
0.00066631656
6.1105222e-05
5.8832203e-09
6.4663467e-10
2.6125981e-05
0.00041307671
0.0011858029
0.001929004
0.0024068281
0.0025948254
0.0025874084
0.0025060051
0.0024382342
0.0024382326
0.0025060018
0.0025874045
0.002594822
0.0024068251
0.0019290013
0.0011858012
0.00041307663
2.6126146e-05
6.4666208e-10
7.2139678e-11
1.0843486e-05
0.0002475356
0.00081254524
0.0013951236
0.0017802931
0.001937066
0.0019389431
0.0018812169
0.0018318769
0.0018318754
0.0018812139
0.0019389395
0.0019370628
0.0017802905
0.0013951215
0.00081254412
0.00024753558
1.0843552e-05
7.2141932e-11
)
;

boundaryField
{
    Wall
    {
        type            zeroGradient;
    }
    frontAndBack
    {
        type            empty;
    }
    atmosphere
    {
        type            zeroGradient;
    }
}


// ************************************************************************* //
