/*--------------------------------*- C++ -*----------------------------------*\
| =========                 |                                                 |
| \\      /  F ield         | OpenFOAM: The Open Source CFD Toolbox           |
|  \\    /   O peration     | Version:  3.0.1                                 |
|   \\  /    A nd           | Web:      www.OpenFOAM.org                      |
|    \\/     M anipulation  |                                                 |
\*---------------------------------------------------------------------------*/
FoamFile
{
    version     2.0;
    format      ascii;
    class       volScalarField;
    location    "31";
    object      wBA_g;
}
// * * * * * * * * * * * * * * * * * * * * * * * * * * * * * * * * * * * * * //

dimensions      [0 0 0 0 0 0 0];

internalField   nonuniform List<scalar> 
800
(
0.049445076
0.049446003
0.04944631
0.049446426
0.0494465
0.049446555
0.049446598
0.049446628
0.049446648
0.049446658
0.049446658
0.049446648
0.049446628
0.049446598
0.049446555
0.049446499
0.049446426
0.04944631
0.049446003
0.049445076
0.052482562
0.05241587
0.052397367
0.052391504
0.052389648
0.052389172
0.052389124
0.052389169
0.05238921
0.052389231
0.052389231
0.05238921
0.05238917
0.052389125
0.052389173
0.05238965
0.052391507
0.05239737
0.052415874
0.052482571
0.054666286
0.0545743
0.054553509
0.054543622
0.054540113
0.054538949
0.054538593
0.054538495
0.054538465
0.054538456
0.054538456
0.054538466
0.054538496
0.054538594
0.054538951
0.054540114
0.054543624
0.054553513
0.054574305
0.054666295
0.056061035
0.055960093
0.05594694
0.055936163
0.055932291
0.05593092
0.055930392
0.055930192
0.055930093
0.055930053
0.055930053
0.055930093
0.055930192
0.055930391
0.055930919
0.055932291
0.055936163
0.055946941
0.055960095
0.056061039
0.056734559
0.056643127
0.056639277
0.056633287
0.05662999
0.056628834
0.056628309
0.0566281
0.056627967
0.056627915
0.056627915
0.056627966
0.056628098
0.056628307
0.056628831
0.056629987
0.056633284
0.056639274
0.056643124
0.056734556
0.056774881
0.05671153
0.05671378
0.056717837
0.056715473
0.056714723
0.056714296
0.056714146
0.056714012
0.056713968
0.056713968
0.05671401
0.056714143
0.056714291
0.056714717
0.056715466
0.056717829
0.056713772
0.056711521
0.05677487
0.056288345
0.056268385
0.056271858
0.056288483
0.056286784
0.056286354
0.056285995
0.056285914
0.056285784
0.056285759
0.056285758
0.056285781
0.056285908
0.056285988
0.056286345
0.056286773
0.05628847
0.056271845
0.05626837
0.056288327
0.055395798
0.055426992
0.055428652
0.055456867
0.055454959
0.055454461
0.055453997
0.055453912
0.055453754
0.055453742
0.05545374
0.05545375
0.055453906
0.055453988
0.055454449
0.055454944
0.05545685
0.055428634
0.055426972
0.055395774
0.054226096
0.054306819
0.054306105
0.054341798
0.054339707
0.054338498
0.054337601
0.054337351
0.054337081
0.05433705
0.054337048
0.054337076
0.054337343
0.054337589
0.054338483
0.054339689
0.054341778
0.054306083
0.054306795
0.054226067
0.05290535
0.053027981
0.053024609
0.053061349
0.053060921
0.053059477
0.053057666
0.053056985
0.053056458
0.053056348
0.053056347
0.053056453
0.053056976
0.053057653
0.05305946
0.053060901
0.053061326
0.053024584
0.053027954
0.052905318
0.051547182
0.05170304
0.051695552
0.051725386
0.051730649
0.05173159
0.051728199
0.051726685
0.051725678
0.05172539
0.051725388
0.051725673
0.051726676
0.051728185
0.051731572
0.051730627
0.051725361
0.051695525
0.051703011
0.051547149
0.050246943
0.050430188
0.050415931
0.050429786
0.050448408
0.050455895
0.050449993
0.050447068
0.050445247
0.050444625
0.050444623
0.050445241
0.050447058
0.050449979
0.050455876
0.050448385
0.050429759
0.050415902
0.050430157
0.050246909
0.049079733
0.049289614
0.049265271
0.049254091
0.049297507
0.049315362
0.049305711
0.049300504
0.049298421
0.049297174
0.049297172
0.049298416
0.049300494
0.049305696
0.049315343
0.049297484
0.049254064
0.049265243
0.049289584
0.049079699
0.048098248
0.048340563
0.048303875
0.04826146
0.04834194
0.04837202
0.048356689
0.048347932
0.048349154
0.048346841
0.04834684
0.04834915
0.048347923
0.048356676
0.048372001
0.048341918
0.048261433
0.048303847
0.048340533
0.048098216
0.047343581
0.047626891
0.047579074
0.0475041
0.047629564
0.04766972
0.047646219
0.047632222
0.047643933
0.047641885
0.047641883
0.047643929
0.047632214
0.047646206
0.047669703
0.047629542
0.047504075
0.047579048
0.047626863
0.04734355
0.046833907
0.047167054
0.047114683
0.047011992
0.047180996
0.047225204
0.047189526
0.047168201
0.047198816
0.047202391
0.04720239
0.047198812
0.047168194
0.047189514
0.047225189
0.047180977
0.047011968
0.047114658
0.047167027
0.046833878
0.046559293
0.046955486
0.046910134
0.046789691
0.046995591
0.047034241
0.046982734
0.046951604
0.047005561
0.047023675
0.047023674
0.047005558
0.046951598
0.046982724
0.047034227
0.046995573
0.046789669
0.04691011
0.04695546
0.046559265
0.046509102
0.046980248
0.046956326
0.046828712
0.047064221
0.047086668
0.047016343
0.046972681
0.047047926
0.04708981
0.047089809
0.047047923
0.046972676
0.047016333
0.047086655
0.047064204
0.046828691
0.046956303
0.046980222
0.046509075
0.046660634
0.047224143
0.047236526
0.047107267
0.04737198
0.047368207
0.047276418
0.047217584
0.047306794
0.047378308
0.047378307
0.047306791
0.047217579
0.047276408
0.047368194
0.047371963
0.047107247
0.047236504
0.047224118
0.046660606
0.046980433
0.047662595
0.04772533
0.047593825
0.0478963
0.04786123
0.047745289
0.047669075
0.047762288
0.047863845
0.047863844
0.047762285
0.047669069
0.047745279
0.047861218
0.047896284
0.047593806
0.047725309
0.04766257
0.046980403
0.047416539
0.048252549
0.048385517
0.048256295
0.048605324
0.048537635
0.048394553
0.048299341
0.048391413
0.04851806
0.04851806
0.04839141
0.048299336
0.048394544
0.048537623
0.048605308
0.048256276
0.048385495
0.048252524
0.047416508
0.047896579
0.048935464
0.049165398
0.049053619
0.049454072
0.049357039
0.049178991
0.049063112
0.049156171
0.049299141
0.04929914
0.049156168
0.049063107
0.049178983
0.049357027
0.049454057
0.049053602
0.049165377
0.048935438
0.047896548
0.048300696
0.049621022
0.049992936
0.049927095
0.050386228
0.050255834
0.050037777
0.049898371
0.049995713
0.050144363
0.050144362
0.049995711
0.049898367
0.050037769
0.050255823
0.050386215
0.049927079
0.049992916
0.049620998
0.048300668
0.048428017
0.050189659
0.050770973
0.050803439
0.05130218
0.051160513
0.05089884
0.050731788
0.050831073
0.050974688
0.050974687
0.050831071
0.050731785
0.050898834
0.051160504
0.051302169
0.050803426
0.050770957
0.050189638
0.048427998
0.048018134
0.050424572
0.051345373
0.051612433
0.052081975
0.052008592
0.051700383
0.0515021
0.051594063
0.051723276
0.051723276
0.051594062
0.051502098
0.051700379
0.052008587
0.052081968
0.051612424
0.051345362
0.050424559
0.048018133
0.046135935
0.049871734
0.05142831
0.051957265
0.052450363
0.052453945
0.052100428
0.051871104
0.051944056
0.052052541
0.052052542
0.051944057
0.051871105
0.052100428
0.052453944
0.052450362
0.051957264
0.051428309
0.049871743
0.046135986
0.039175972
0.045148487
0.048473664
0.049695944
0.05035911
0.050691216
0.050347698
0.050118495
0.05018208
0.050276875
0.050276877
0.050182085
0.050118503
0.050347709
0.050691229
0.050359126
0.049695963
0.048473695
0.045148551
0.039176066
0.02767974
0.034135416
0.038873966
0.040600566
0.041836937
0.04240238
0.042155602
0.04197128
0.042035492
0.042121829
0.042121831
0.042035498
0.04197129
0.042155615
0.042402396
0.041836957
0.040600591
0.038874007
0.034135498
0.027679863
0.017402974
0.022555616
0.026615719
0.028573003
0.029724425
0.030355065
0.03023284
0.030110881
0.030178903
0.030260212
0.030260214
0.03017891
0.030110893
0.030232855
0.030355083
0.029724446
0.028573027
0.026615773
0.022555707
0.017403113
0.0092151026
0.0138515
0.017189146
0.019079521
0.020125071
0.020656779
0.020606649
0.020501843
0.02053981
0.020599265
0.020599267
0.020539818
0.020501856
0.020606663
0.020656795
0.020125087
0.019079548
0.017189191
0.013851573
0.0092152223
0.0037755613
0.0079176691
0.010759986
0.012463098
0.013380632
0.013816142
0.013792609
0.013675242
0.013658201
0.013683606
0.013683608
0.013658209
0.013675253
0.013792622
0.013816154
0.013380645
0.012463121
0.010760021
0.0079177192
0.0037756338
0.001148547
0.0041931165
0.0065354505
0.0080230584
0.0088325332
0.009172572
0.0091464179
0.0090211454
0.0089652354
0.0089611795
0.0089611817
0.0089652424
0.0090211557
0.0091464279
0.0091725812
0.008832542
0.0080230756
0.0065354737
0.0041931441
0.0011485795
0.00026181227
0.0020640531
0.0038535599
0.0050918285
0.0057892321
0.0060696625
0.0060509251
0.00593376
0.0058596585
0.005837339
0.0058373408
0.0058596635
0.0059337678
0.0060509321
0.006069669
0.0057892373
0.0050918381
0.0038535732
0.0020640666
0.00026182268
4.700189e-05
0.00094814413
0.0022100693
0.0031848481
0.0037633095
0.0039986228
0.0039937101
0.0038986935
0.0038267383
0.0037985169
0.0037985181
0.0038267417
0.0038986988
0.0039937147
0.003998627
0.0037633121
0.0031848531
0.0022100753
0.00094814963
4.7004277e-05
7.077604e-06
0.00040892773
0.001235278
0.0019631403
0.0024223517
0.0026176231
0.0026257318
0.0025566776
0.0024972042
0.0024707277
0.0024707286
0.0024972065
0.002556681
0.0026257346
0.0026176257
0.0024223531
0.0019631427
0.0012352805
0.00040893037
7.0779971e-06
9.4613204e-07
0.00016724227
0.00067427943
0.0011920917
0.0015419934
0.0016996524
0.0017163688
0.0016705283
0.0016262229
0.0016047946
0.0016047951
0.0016262242
0.0016705303
0.0017163705
0.0016996539
0.0015419942
0.0011920928
0.00067428073
0.00016724353
9.4618598e-07
1.1760274e-07
6.5649458e-05
0.00036018525
0.00071321315
0.00096998316
0.0010930957
0.0011135885
0.0010856131
0.0010550292
0.0010392242
0.0010392245
0.0010550299
0.0010856142
0.0011135895
0.0010930965
0.00096998353
0.00071321366
0.0003601859
6.5649987e-05
1.1760917e-07
1.4061893e-08
2.5009967e-05
0.00018869434
0.00042055709
0.00060270254
0.00069568586
0.00071624985
0.00070065268
0.00068079205
0.00066987587
0.00066987603
0.00068079244
0.00070065326
0.00071625036
0.00069568627
0.00060270268
0.00042055728
0.00018869465
2.501017e-05
1.4062602e-08
1.6526339e-09
9.324541e-06
9.7137574e-05
0.00024452282
0.00036987894
0.00043795199
0.0004563487
0.00044861335
0.00043637987
0.00042920813
0.0004292082
0.00043638005
0.00044861362
0.00045634895
0.00043795217
0.00036987898
0.00024452287
9.7137721e-05
9.3246151e-06
1.6527092e-09
1.9330211e-10
3.4207033e-06
4.9210208e-05
0.00014021176
0.00022419688
0.00027266331
0.00028788866
0.0002847401
0.00027756236
0.00027303694
0.00027303697
0.00027756242
0.00028474021
0.00028788876
0.00027266338
0.00022419686
0.00014021176
4.9210275e-05
3.4207293e-06
1.9330988e-10
)
;

boundaryField
{
    Wall
    {
        type            zeroGradient;
    }
    frontAndBack
    {
        type            empty;
    }
    atmosphere
    {
        type            zeroGradient;
    }
}


// ************************************************************************* //
