/*--------------------------------*- C++ -*----------------------------------*\
| =========                 |                                                 |
| \\      /  F ield         | OpenFOAM: The Open Source CFD Toolbox           |
|  \\    /   O peration     | Version:  3.0.1                                 |
|   \\  /    A nd           | Web:      www.OpenFOAM.org                      |
|    \\/     M anipulation  |                                                 |
\*---------------------------------------------------------------------------*/
FoamFile
{
    version     2.0;
    format      ascii;
    class       volScalarField;
    location    "31";
    object      wCO2_g;
}
// * * * * * * * * * * * * * * * * * * * * * * * * * * * * * * * * * * * * * //

dimensions      [0 0 0 0 0 0 0];

internalField   nonuniform List<scalar> 
800
(
0.016521024
0.016521906
0.016522084
0.016522127
0.016522149
0.016522166
0.01652218
0.016522191
0.016522198
0.016522201
0.016522201
0.016522198
0.016522191
0.01652218
0.016522166
0.016522149
0.016522127
0.016522084
0.016521906
0.016521024
0.016699703
0.016701212
0.016701571
0.016701538
0.016701425
0.016701329
0.016701265
0.016701227
0.016701206
0.016701197
0.016701197
0.016701206
0.016701227
0.016701265
0.016701329
0.016701425
0.016701538
0.016701571
0.016701212
0.016699703
0.016880319
0.016881673
0.016882497
0.016882348
0.016882112
0.016881935
0.016881825
0.016881764
0.016881733
0.016881719
0.016881719
0.016881733
0.016881764
0.016881825
0.016881935
0.016882112
0.016882348
0.016882497
0.016881673
0.016880319
0.017073716
0.017072918
0.017074207
0.017073946
0.017073601
0.017073368
0.017073235
0.017073171
0.017073141
0.01707313
0.01707313
0.017073141
0.01707317
0.017073235
0.017073368
0.017073601
0.017073946
0.017074207
0.017072918
0.017073716
0.017287269
0.017282453
0.017283839
0.017283528
0.017283048
0.017282762
0.017282616
0.017282558
0.017282537
0.017282532
0.017282532
0.017282537
0.017282558
0.017282616
0.017282762
0.017283048
0.017283528
0.017283839
0.017282454
0.017287269
0.017525534
0.017515192
0.017516138
0.017515842
0.017515168
0.017514809
0.017514644
0.017514593
0.017514582
0.017514585
0.017514585
0.017514582
0.017514593
0.017514644
0.017514809
0.017515168
0.017515843
0.017516138
0.017515192
0.017525534
0.017790174
0.017773361
0.017773217
0.017772971
0.017772026
0.017771557
0.017771355
0.017771302
0.017771297
0.017771305
0.017771305
0.017771297
0.017771302
0.017771355
0.017771557
0.017772026
0.017772971
0.017773217
0.017773362
0.017790174
0.018079422
0.018056057
0.018054088
0.018053876
0.018052599
0.018051972
0.018051706
0.018051633
0.018051623
0.018051632
0.018051632
0.018051623
0.018051633
0.018051706
0.018051973
0.0180526
0.018053876
0.018054089
0.018056058
0.018079422
0.018389052
0.018360103
0.018355536
0.018355288
0.018353705
0.018352881
0.018352511
0.018352392
0.018352362
0.018352365
0.018352365
0.018352362
0.018352392
0.018352511
0.018352882
0.018353706
0.018355289
0.018355537
0.018360104
0.018389053
0.018711836
0.018679732
0.018671897
0.018671504
0.018669806
0.018668825
0.0186683
0.0186681
0.018668031
0.018668019
0.018668019
0.018668032
0.0186681
0.0186683
0.018668826
0.018669806
0.018671505
0.018671898
0.018679733
0.018711836
0.019038153
0.019006956
0.018995488
0.018994819
0.018993417
0.018992472
0.018991727
0.018991403
0.018991271
0.018991231
0.018991231
0.018991271
0.018991403
0.018991727
0.018992473
0.018993418
0.01899482
0.018995489
0.019006956
0.019038153
0.019356523
0.019331999
0.019317232
0.01931613
0.019315677
0.019315121
0.019314073
0.01931357
0.019313357
0.019313275
0.019313275
0.019313358
0.01931357
0.019314074
0.019315121
0.019315678
0.019316131
0.019317233
0.019332
0.019356523
0.019653288
0.019642811
0.0196263
0.01962454
0.01962591
0.019626834
0.019625398
0.01962464
0.019624389
0.019624238
0.019624238
0.01962439
0.01962464
0.019625399
0.019626835
0.019625911
0.01962454
0.0196263
0.019642812
0.019653288
0.0199133
0.019929787
0.019914592
0.019911994
0.019917156
0.019919535
0.01991674
0.019915612
0.019915448
0.019915204
0.019915204
0.019915448
0.019915612
0.01991674
0.019919535
0.019917156
0.019911994
0.019914593
0.019929787
0.019913299
0.020117858
0.020171569
0.020162509
0.020159336
0.020170143
0.020173377
0.020170431
0.020168758
0.02016888
0.02016867
0.02016867
0.02016888
0.020168758
0.02017043
0.020173377
0.020170142
0.020159336
0.020162508
0.020171568
0.020117857
0.020288326
0.020382124
0.020385307
0.020382885
0.020397189
0.020401545
0.02039742
0.020394916
0.020395557
0.020395865
0.020395865
0.020395556
0.020394915
0.020397419
0.020401544
0.020397189
0.020382884
0.020385306
0.020382123
0.020288324
0.020374112
0.020527108
0.020549873
0.020550973
0.02057079
0.020575637
0.020569272
0.020565682
0.020567032
0.020568732
0.020568731
0.020567031
0.020565681
0.020569271
0.020575636
0.020570789
0.020550971
0.020549872
0.020527106
0.02037411
0.020353978
0.020582211
0.020632668
0.020641194
0.020668241
0.020672297
0.020662755
0.020657885
0.020659791
0.020663906
0.020663905
0.02065979
0.020657884
0.020662754
0.020672295
0.020668239
0.020641193
0.020632666
0.020582209
0.020353975
0.020204052
0.020523894
0.020611021
0.02063148
0.020667509
0.020669539
0.020656371
0.020650088
0.020652054
0.020659403
0.020659403
0.020652054
0.020650087
0.02065637
0.020669537
0.020667507
0.020631478
0.020611018
0.020523891
0.020204049
0.019895824
0.020324963
0.020458982
0.02049618
0.02054296
0.020542763
0.020526289
0.020518519
0.020520248
0.020531168
0.020531168
0.020520247
0.020518517
0.020526287
0.02054276
0.020542957
0.020496177
0.020458978
0.02032496
0.01989582
0.0193949
0.019952417
0.020145591
0.020204526
0.020264277
0.020263115
0.020244368
0.020235085
0.020237333
0.020251586
0.020251585
0.020237332
0.020235083
0.020244366
0.020263112
0.020264274
0.020204523
0.020145587
0.019952414
0.019394897
0.018660721
0.019365491
0.019632489
0.019719625
0.019796195
0.019795796
0.019776088
0.019765288
0.019769962
0.019786806
0.019786806
0.019769961
0.019765286
0.019776085
0.019795793
0.019796192
0.019719622
0.019632486
0.019365488
0.01866072
0.017644944
0.018514941
0.018873097
0.018996899
0.019096231
0.019099402
0.019079209
0.019066895
0.019076042
0.019094406
0.019094405
0.019076041
0.019066893
0.019079207
0.019099399
0.019096228
0.018996896
0.018873095
0.018514941
0.017644946
0.016287555
0.017341759
0.017810807
0.01798318
0.018110922
0.018122697
0.018103962
0.018090175
0.018104728
0.018123392
0.018123392
0.018104727
0.018090173
0.018103961
0.018122695
0.01811092
0.017983178
0.017810806
0.017341761
0.016287562
0.014525302
0.015776473
0.016376771
0.016617027
0.016775623
0.016807045
0.01679359
0.016778521
0.016797661
0.016815421
0.016815421
0.01679766
0.01677852
0.016793588
0.016807043
0.016775622
0.016617026
0.016376772
0.015776479
0.014525316
0.012301602
0.013746423
0.014499993
0.014817488
0.015017888
0.015076813
0.015071792
0.015056009
0.015077406
0.015093226
0.015093226
0.015077405
0.015056008
0.015071791
0.015076812
0.015017888
0.014817488
0.014499997
0.013746434
0.012301623
0.0096003149
0.011166749
0.012083315
0.012490663
0.012731307
0.012838544
0.012843433
0.01282843
0.012849309
0.012862566
0.012862566
0.012849309
0.01282843
0.012843434
0.012838545
0.012731308
0.012490666
0.012083321
0.011166765
0.0096003406
0.0068116552
0.0082199889
0.0091969581
0.0096198562
0.009920067
0.010039222
0.010048883
0.010035064
0.010051629
0.010061492
0.010061492
0.010051629
0.010035064
0.010048884
0.010039223
0.0099200685
0.0096198591
0.0091969655
0.0082200077
0.0068116854
0.0044212982
0.0056397533
0.0065447927
0.0069977007
0.0072659411
0.0073812862
0.007396239
0.0073845271
0.0073953357
0.007401749
0.0074017492
0.0073953365
0.0073845284
0.0073962407
0.0073812881
0.0072659439
0.0069977041
0.0065448034
0.0056397743
0.0044213325
0.0024402885
0.003626729
0.0044568462
0.0049327623
0.0052015509
0.005311505
0.0053271243
0.0053115349
0.0053124523
0.0053132054
0.0053132058
0.0053124536
0.0053115369
0.0053271265
0.0053115074
0.0052015533
0.0049327675
0.0044568561
0.0036267467
0.0024403193
0.0010460431
0.0021870873
0.0029643489
0.0034413368
0.0037074379
0.0038207124
0.0038357013
0.0038123964
0.0037989408
0.0037918167
0.0037918171
0.0037989422
0.0038123984
0.0038357037
0.0038207145
0.0037074401
0.0034413417
0.0029643573
0.0021871002
0.0010460627
0.00033338896
0.0012334353
0.0019280703
0.0023850749
0.0026454932
0.0027542339
0.0027655694
0.0027366501
0.0027130429
0.0026993903
0.0026993908
0.0027130444
0.0027366523
0.0027655713
0.0027542356
0.0026454948
0.0023850788
0.0019280761
0.0012334427
0.00033339824
7.9687958e-05
0.00065272919
0.001226956
0.0016399347
0.0018843614
0.0019885578
0.0019996297
0.0019694621
0.0019405223
0.0019230435
0.0019230439
0.0019405234
0.0019694639
0.0019996312
0.0019885591
0.0018843623
0.0016399369
0.0012269594
0.00065273301
7.9691078e-05
1.5018271e-05
0.00032493949
0.00076485397
0.0011169944
0.0013359293
0.0014326216
0.0014451948
0.0014182654
0.0013894581
0.00137142
0.0013714203
0.001389459
0.0014182667
0.0014451959
0.0014326224
0.0013359296
0.0011169955
0.00076485546
0.00032494111
1.501902e-05
2.3781834e-06
0.0001527267
0.00046726757
0.00075259679
0.00093985161
0.0010263223
0.0010404442
0.0010189604
0.00099365802
0.00097730554
0.00097730578
0.0009936586
0.0010189613
0.0010404449
0.0010263228
0.00093985173
0.00075259721
0.00046726816
0.00015272756
2.3783127e-06
3.3508855e-07
6.8277381e-05
0.0002797343
0.00050057409
0.00065445292
0.00072896046
0.000743828
0.0007281891
0.00070781764
0.0006942571
0.00069425724
0.000707818
0.0007281896
0.00074382838
0.00072896073
0.00065445292
0.00050057423
0.0002797346
6.8277833e-05
3.3510722e-07
4.4019824e-08
2.9314746e-05
0.00016402075
0.00032812003
0.00045011069
0.00051208453
0.00052670556
0.00051626311
0.00050092686
0.00049040926
0.00049040934
0.00050092704
0.00051626337
0.00052670575
0.00051208464
0.00045011062
0.00032812004
0.00016402092
2.9314956e-05
4.4022168e-08
5.5779857e-09
1.2195495e-05
9.4173058e-05
0.00021165337
0.00030523155
0.00035513098
0.00036867178
0.00036233399
0.00035141685
0.00034368436
0.0003436844
0.00035141693
0.0003623341
0.00036867186
0.000355131
0.00030523146
0.00021165332
9.4173145e-05
1.2195584e-05
5.5782591e-09
6.9631874e-10
4.9480996e-06
5.2942155e-05
0.00013419567
0.00020381211
0.00024279771
0.000254707
0.0002513229
0.00024392925
0.00023849408
0.00023849408
0.00024392926
0.00025132293
0.000254707
0.00024279768
0.00020381202
0.00013419562
5.2942201e-05
4.9481352e-06
6.9634947e-10
8.6649709e-11
1.9655715e-06
2.9139789e-05
8.3533935e-05
0.00013385475
0.00016348064
0.00017349226
0.00017205339
0.00016727473
0.00016360193
0.00016360192
0.00016727471
0.00017205337
0.00017349223
0.0001634806
0.00013385468
8.3533895e-05
2.9139813e-05
1.9655852e-06
8.6653065e-11
)
;

boundaryField
{
    Wall
    {
        type            zeroGradient;
    }
    frontAndBack
    {
        type            empty;
    }
    atmosphere
    {
        type            zeroGradient;
    }
}


// ************************************************************************* //
