/*--------------------------------*- C++ -*----------------------------------*\
| =========                 |                                                 |
| \\      /  F ield         | OpenFOAM: The Open Source CFD Toolbox           |
|  \\    /   O peration     | Version:  3.0.1                                 |
|   \\  /    A nd           | Web:      www.OpenFOAM.org                      |
|    \\/     M anipulation  |                                                 |
\*---------------------------------------------------------------------------*/
FoamFile
{
    version     2.0;
    format      ascii;
    class       volScalarField;
    location    "31";
    object      wCO2_l;
}
// * * * * * * * * * * * * * * * * * * * * * * * * * * * * * * * * * * * * * //

dimensions      [0 0 0 0 0 0 0];

internalField   nonuniform List<scalar> 
800
(
0.0037744106
0.0037747082
0.0037747838
0.003774796
0.0037747973
0.0037747976
0.0037747983
0.0037747992
0.0037748
0.0037748004
0.0037748004
0.0037748
0.0037747992
0.0037747983
0.0037747976
0.0037747973
0.003774796
0.0037747838
0.0037747082
0.0037744106
0.0037676482
0.0037691674
0.0037699897
0.0037703238
0.0037704354
0.0037704507
0.003770432
0.0037704077
0.003770389
0.003770379
0.003770379
0.0037703889
0.0037704077
0.0037704319
0.0037704506
0.0037704353
0.0037703236
0.0037699894
0.0037691671
0.0037676476
0.0038187508
0.0038193995
0.0038198667
0.0038202824
0.0038204457
0.0038204833
0.0038204706
0.0038204451
0.0038204234
0.0038204115
0.0038204115
0.0038204234
0.0038204451
0.0038204706
0.0038204832
0.0038204456
0.0038202823
0.0038198664
0.0038193992
0.0038187502
0.0039259864
0.0039237376
0.0039232151
0.0039235276
0.0039236732
0.0039237214
0.0039237224
0.0039237071
0.0039236916
0.0039236824
0.0039236824
0.0039236916
0.0039237071
0.0039237225
0.0039237214
0.0039236732
0.0039235276
0.003923215
0.0039237375
0.0039259861
0.0040915123
0.0040839396
0.0040819683
0.0040818144
0.0040818756
0.00408192
0.004081937
0.004081938
0.0040819345
0.004081931
0.0040819311
0.0040819346
0.0040819382
0.0040819372
0.0040819203
0.0040818759
0.0040818147
0.0040819685
0.0040839398
0.0040915124
0.0043204117
0.0043045054
0.0043006552
0.0042995816
0.0042994941
0.0042995201
0.0042995541
0.0042995757
0.0042995883
0.0042995926
0.0042995927
0.0042995885
0.0042995761
0.0042995546
0.0042995207
0.0042994947
0.0042995823
0.0043006559
0.0043045062
0.0043204125
0.0046203871
0.0045922905
0.004586029
0.0045836045
0.0045833153
0.0045833126
0.0045833662
0.0045834126
0.0045834448
0.0045834586
0.0045834587
0.0045834451
0.0045834132
0.004583367
0.0045833135
0.0045833163
0.0045836057
0.0045860302
0.0045922918
0.0046203885
0.0050016599
0.004956714
0.0049471089
0.0049429893
0.0049424753
0.0049424439
0.0049425234
0.0049425996
0.0049426554
0.0049426802
0.0049426804
0.0049426559
0.0049426004
0.0049425246
0.0049424452
0.0049424769
0.004942991
0.0049471108
0.0049567159
0.0050016621
0.0054755923
0.0054086427
0.0053941876
0.0053881481
0.0053873207
0.0053872842
0.0053874005
0.0053875117
0.0053875961
0.0053876335
0.0053876337
0.0053875968
0.0053875128
0.005387402
0.0053872861
0.0053873229
0.0053881506
0.0053941902
0.0054086454
0.0054755952
0.0060550011
0.0059603477
0.0059389501
0.0059309061
0.0059295276
0.0059294256
0.0059295872
0.0059297378
0.0059298575
0.0059299092
0.0059299095
0.0059298584
0.0059297392
0.0059295892
0.0059294281
0.0059295304
0.0059309092
0.0059389534
0.0059603511
0.0060550048
0.0067533499
0.006624874
0.0065939717
0.006583999
0.0065816104
0.0065811741
0.0065813828
0.0065815747
0.0065817412
0.0065818103
0.0065818107
0.0065817423
0.0065815765
0.0065813853
0.0065811772
0.0065816139
0.0065840029
0.0065939759
0.0066248783
0.0067533544
0.0075837225
0.007414939
0.0073717666
0.0073601355
0.0073557544
0.0073544891
0.0073547419
0.0073549747
0.0073552209
0.0073553127
0.0073553132
0.0073552222
0.0073549769
0.0073547449
0.0073544928
0.0073557587
0.0073601403
0.0073717717
0.0074149443
0.0075837281
0.0085583472
0.0083422926
0.0082843975
0.0082714647
0.0082632937
0.0082599225
0.0082602296
0.0082604977
0.0082607494
0.0082608715
0.008260872
0.0082607509
0.0082605003
0.0082602331
0.0082599268
0.0082632987
0.0082714703
0.0082844035
0.0083422988
0.0085583539
0.0096860773
0.0094123296
0.0093380942
0.0093239853
0.0093087708
0.0093033227
0.0093044253
0.0093047237
0.0093043276
0.009304523
0.0093045235
0.0093043292
0.0093047264
0.0093044291
0.0093033275
0.0093087764
0.0093239917
0.009338101
0.0094123367
0.0096860851
0.010977116
0.010639953
0.010548243
0.010532611
0.010507354
0.010500131
0.010500952
0.010501365
0.010498678
0.010498846
0.010498847
0.010498679
0.010501368
0.010500956
0.010500137
0.01050736
0.010532618
0.01054825
0.010639961
0.010977125
0.012389493
0.011994298
0.011884161
0.011866213
0.011832289
0.011823273
0.011823934
0.011824721
0.011817358
0.011816976
0.011816976
0.01181736
0.011824724
0.011823938
0.011823278
0.011832296
0.011866221
0.011884169
0.011994307
0.012389503
0.01393826
0.013484004
0.013353973
0.013332883
0.013289956
0.013279179
0.013278895
0.013280364
0.013266102
0.013264167
0.013264168
0.013266103
0.013280367
0.013278899
0.013279185
0.013289962
0.01333289
0.013353981
0.013484013
0.013938269
0.015611726
0.015104319
0.01495277
0.01492857
0.014877632
0.014864513
0.014861903
0.01486445
0.014841273
0.014836632
0.014836632
0.014841274
0.014864452
0.014861907
0.014864519
0.014877639
0.014928578
0.014952778
0.015104328
0.015611735
0.017388967
0.016840702
0.016666873
0.016641307
0.016582166
0.016565957
0.016560244
0.016564405
0.016530567
0.016522396
0.016522396
0.016530568
0.016564407
0.016560247
0.016565961
0.016582172
0.016641314
0.01666688
0.01684071
0.017388974
0.019234469
0.018667426
0.018473361
0.018449955
0.018377707
0.018358644
0.018350824
0.018357304
0.018312779
0.018300959
0.018300959
0.01831278
0.018357306
0.018350827
0.018358648
0.018377712
0.018449961
0.018473368
0.018667433
0.019234474
0.021090061
0.020541803
0.020334476
0.020313271
0.020222334
0.020202665
0.020195886
0.020205519
0.020153444
0.020138674
0.020138674
0.020153445
0.02020552
0.020195888
0.020202668
0.020222338
0.020313276
0.020334482
0.020541808
0.021090065
0.022868094
0.022386694
0.022182496
0.022162563
0.022055773
0.022031961
0.02203093
0.022044576
0.02199167
0.02197535
0.02197535
0.021991671
0.022044577
0.022030932
0.022031964
0.022055776
0.022162567
0.0221825
0.022386698
0.022868098
0.024442755
0.024084447
0.023913324
0.02388684
0.023779768
0.023751223
0.023746696
0.023765312
0.023720863
0.023704864
0.023704864
0.023720864
0.023765312
0.023746698
0.023751225
0.02377977
0.023886843
0.023913328
0.024084451
0.02444276
0.0255866
0.02544181
0.025354982
0.025311718
0.025230541
0.02518489
0.025176038
0.025200633
0.025174077
0.025160424
0.025160424
0.025174077
0.025200633
0.025176039
0.025184892
0.025230544
0.02531172
0.025354985
0.025441816
0.02558661
0.025928063
0.026157702
0.02619059
0.026186003
0.026118522
0.02608105
0.0260889
0.026119693
0.026117238
0.026107577
0.026107577
0.026117239
0.026119694
0.026088901
0.026081052
0.026118524
0.026186006
0.026190596
0.026157712
0.025928082
0.024959687
0.02580865
0.026056232
0.026182819
0.026125539
0.02614726
0.02619312
0.026227702
0.026248671
0.026243271
0.026243271
0.026248672
0.026227703
0.026193122
0.026147262
0.026125541
0.026182823
0.02605624
0.025808668
0.02495972
0.021806279
0.02367847
0.024446992
0.024715205
0.02483683
0.024880072
0.02496042
0.024992602
0.025027357
0.025024211
0.025024211
0.025027358
0.024992603
0.024960422
0.024880074
0.024836834
0.02471521
0.024447003
0.023678498
0.021806324
0.015845593
0.018475059
0.020247297
0.020810313
0.02124308
0.021435645
0.021519671
0.02153772
0.021567689
0.021561462
0.021561462
0.02156769
0.021537722
0.021519673
0.021435648
0.021243084
0.020810319
0.020247311
0.018475095
0.015845655
0.010485281
0.012985129
0.014809345
0.015668274
0.016173078
0.016415484
0.016496594
0.016498228
0.016511599
0.016498547
0.016498548
0.016511601
0.016498231
0.016496598
0.016415488
0.016173084
0.015668281
0.014809368
0.012985173
0.010485357
0.0059039316
0.0086024925
0.010458304
0.011538732
0.012147082
0.012424542
0.01250238
0.0124838
0.01247408
0.012451043
0.012451044
0.012474083
0.012483805
0.012502385
0.012424547
0.012147087
0.011538744
0.010458326
0.0086025324
0.0059040037
0.0025834539
0.005361049
0.0072428004
0.0084380183
0.0091231295
0.0094480955
0.0095289663
0.0094884565
0.0094455248
0.0094070856
0.0094070864
0.009445528
0.009488461
0.0095289717
0.0094481001
0.0091231348
0.0084380294
0.00724282
0.0053610792
0.0025835017
0.00084040385
0.0031401458
0.0049226297
0.0061411664
0.006868296
0.0072089882
0.0072851406
0.007228559
0.0071611857
0.0071094473
0.0071094484
0.007161189
0.007228564
0.007285145
0.0072089919
0.0068682997
0.0061411754
0.0049226435
0.0031401639
0.00084042704
0.00020501045
0.001737109
0.0032884961
0.0044450408
0.0051654235
0.0055088759
0.0055841819
0.0055205135
0.0054383915
0.0053784783
0.0053784794
0.0054383941
0.0055205175
0.0055841852
0.0055088786
0.0051654254
0.0044450458
0.0032885043
0.0017371186
0.00020501842
3.9453271e-05
0.00090925733
0.0021620006
0.0031953593
0.0038695598
0.0041988472
0.0042743122
0.0042138896
0.0041298322
0.0040691217
0.0040691224
0.0041298342
0.0042138925
0.0042743145
0.0041988489
0.0038695599
0.0031953615
0.002162004
0.00090926146
3.9455223e-05
6.388068e-06
0.00045130215
0.0013982703
0.0022769368
0.0028780618
0.0031806124
0.0032550197
0.0032040432
0.0031271132
0.0030713032
0.0030713037
0.0031271145
0.0032040451
0.003255021
0.0031806132
0.0028780616
0.0022769373
0.0013982715
0.00045130444
6.388412e-06
9.2226954e-07
0.00021367275
0.0008883246
0.0016035799
0.0021189804
0.0023869464
0.002458306
0.0024192855
0.0023543758
0.0023067485
0.0023067488
0.0023543765
0.0024192865
0.0024583066
0.0023869467
0.0021189799
0.0016035798
0.00088832519
0.00021367404
9.2232033e-07
1.2449329e-07
9.7323475e-05
0.00055328713
0.0011133274
0.001540387
0.0017701471
0.0018365288
0.001809398
0.0017580686
0.001719776
0.0017197761
0.0017580689
0.0018093984
0.001836529
0.001770147
0.0015403864
0.0011133271
0.00055328745
9.7324112e-05
1.2449982e-07
1.6265097e-08
4.2989427e-05
0.00033741273
0.00076035679
0.0011033223
0.0012946619
0.0013545571
0.0013377359
0.0012993358
0.001270044
0.001270044
0.0012993358
0.0013377359
0.0013545569
0.0012946616
0.0011033217
0.00076035639
0.0003374129
4.2989714e-05
1.626588e-08
2.1016396e-09
1.8525279e-05
0.00020131794
0.0005100008
0.00077744394
0.00093253586
0.00098497343
0.0009762055
0.00094888889
0.00092742718
0.00092742708
0.00094888868
0.00097620525
0.00098497314
0.00093253549
0.00077744343
0.00051000046
0.00020131803
1.8525401e-05
2.1017302e-09
2.7194762e-10
7.8158494e-06
0.00011747234
0.00033548652
0.00053827138
0.00066084915
0.00070540271
0.00070233655
0.00068381439
0.00066868541
0.00066868528
0.0006838141
0.00070233621
0.00070540236
0.00066084879
0.00053827097
0.00033548627
0.00011747239
7.8158993e-06
2.719577e-10
)
;

boundaryField
{
    Wall
    {
        type            zeroGradient;
    }
    frontAndBack
    {
        type            empty;
    }
    atmosphere
    {
        type            zeroGradient;
    }
}


// ************************************************************************* //
