/*--------------------------------*- C++ -*----------------------------------*\
| =========                 |                                                 |
| \\      /  F ield         | OpenFOAM: The Open Source CFD Toolbox           |
|  \\    /   O peration     | Version:  3.0.1                                 |
|   \\  /    A nd           | Web:      www.OpenFOAM.org                      |
|    \\/     M anipulation  |                                                 |
\*---------------------------------------------------------------------------*/
FoamFile
{
    version     2.0;
    format      ascii;
    class       volScalarField;
    location    "31";
    object      weight1;
}
// * * * * * * * * * * * * * * * * * * * * * * * * * * * * * * * * * * * * * //

dimensions      [0 0 0 0 0 0 0];

internalField   nonuniform List<scalar> 
800
(
9.9911387e+12
9.9911385e+12
9.9911384e+12
9.9911384e+12
9.9911384e+12
9.9911383e+12
9.9911383e+12
9.9911383e+12
9.9911383e+12
9.9911383e+12
9.9911383e+12
9.9911383e+12
9.9911383e+12
9.9911383e+12
9.9911383e+12
9.9911384e+12
9.9911384e+12
9.9911384e+12
9.9911385e+12
9.9911387e+12
9.9920726e+12
9.9919827e+12
9.9919665e+12
9.9919637e+12
9.9919636e+12
9.9919638e+12
9.9919638e+12
9.9919636e+12
9.9919635e+12
9.9919634e+12
9.9919634e+12
9.9919635e+12
9.9919636e+12
9.9919638e+12
9.9919638e+12
9.9919636e+12
9.9919637e+12
9.9919665e+12
9.9919827e+12
9.9920726e+12
9.9284738e+12
9.9302515e+12
9.9310509e+12
9.9313297e+12
9.9314068e+12
9.9314128e+12
9.9313981e+12
9.9313819e+12
9.9313701e+12
9.9313643e+12
9.9313643e+12
9.9313701e+12
9.9313818e+12
9.931398e+12
9.9314127e+12
9.9314067e+12
9.9313296e+12
9.9310507e+12
9.9302512e+12
9.9284734e+12
9.8115894e+12
9.8168288e+12
9.8189114e+12
9.8196232e+12
9.8198274e+12
9.8198464e+12
9.8198109e+12
9.8197703e+12
9.8197404e+12
9.8197253e+12
9.8197253e+12
9.8197403e+12
9.8197702e+12
9.8198107e+12
9.8198461e+12
9.819827e+12
9.8196228e+12
9.8189109e+12
9.8168282e+12
9.8115885e+12
9.6513648e+12
9.6613243e+12
9.6649748e+12
9.6661973e+12
9.6665465e+12
9.6665759e+12
9.666513e+12
9.6664414e+12
9.6663884e+12
9.6663616e+12
9.6663616e+12
9.6663883e+12
9.6664412e+12
9.6665126e+12
9.6665754e+12
9.6665459e+12
9.6661966e+12
9.6649739e+12
9.6613233e+12
9.6513634e+12
9.4566603e+12
9.4721869e+12
9.4775936e+12
9.4793732e+12
9.479867e+12
9.4798981e+12
9.4797997e+12
9.4796912e+12
9.4796112e+12
9.4795708e+12
9.4795708e+12
9.479611e+12
9.4796908e+12
9.4797992e+12
9.4798974e+12
9.4798661e+12
9.4793722e+12
9.4775924e+12
9.4721855e+12
9.4566584e+12
9.2354415e+12
9.2570871e+12
9.2643366e+12
9.2666927e+12
9.2673142e+12
9.2673324e+12
9.2671894e+12
9.2670381e+12
9.2669279e+12
9.2668724e+12
9.2668723e+12
9.2669276e+12
9.2670376e+12
9.2671887e+12
9.2673315e+12
9.2673131e+12
9.2666915e+12
9.2643351e+12
9.2570854e+12
9.2354393e+12
8.9902761e+12
9.0195378e+12
9.0288869e+12
9.0318329e+12
9.0325784e+12
9.0325755e+12
9.0323808e+12
9.0321816e+12
9.0320381e+12
9.031966e+12
9.0319659e+12
9.0320377e+12
9.032181e+12
9.03238e+12
9.0325744e+12
9.0325771e+12
9.0318314e+12
9.0288852e+12
9.0195358e+12
8.9902737e+12
8.7230921e+12
8.760573e+12
8.772151e+12
8.7756712e+12
8.7765089e+12
8.7764685e+12
8.7762168e+12
8.7759678e+12
8.7757898e+12
8.7757007e+12
8.7757005e+12
8.7757894e+12
8.7759671e+12
8.7762158e+12
8.7764673e+12
8.7765074e+12
8.7756695e+12
8.7721491e+12
8.7605709e+12
8.7230897e+12
8.434403e+12
8.4811573e+12
8.4954034e+12
8.4994796e+12
8.5003486e+12
8.500254e+12
8.4999525e+12
8.4996593e+12
8.4994491e+12
8.499344e+12
8.4993438e+12
8.4994486e+12
8.4996585e+12
8.4999514e+12
8.5002527e+12
8.500347e+12
8.4994778e+12
8.4954015e+12
8.4811552e+12
8.4344007e+12
8.1258066e+12
8.1816893e+12
8.1990337e+12
8.2036565e+12
8.2043718e+12
8.2041407e+12
8.2038123e+12
8.2034916e+12
8.2032561e+12
8.2031388e+12
8.2031386e+12
8.2032556e+12
8.2034908e+12
8.2038112e+12
8.2041393e+12
8.2043702e+12
8.2036547e+12
8.1990317e+12
8.1816873e+12
8.1258044e+12
7.8042723e+12
7.8681989e+12
7.8887151e+12
7.8939205e+12
7.8942361e+12
7.8937382e+12
7.8934171e+12
7.8930936e+12
7.8928402e+12
7.892716e+12
7.8927159e+12
7.8928397e+12
7.8930928e+12
7.893416e+12
7.8937368e+12
7.8942345e+12
7.8939187e+12
7.8887132e+12
7.868197e+12
7.8042703e+12
7.4772578e+12
7.5484447e+12
7.571746e+12
7.5776432e+12
7.5774365e+12
7.5766251e+12
7.5763495e+12
7.5760541e+12
7.5757525e+12
7.5756291e+12
7.5756289e+12
7.575752e+12
7.5760532e+12
7.5763484e+12
7.5766237e+12
7.577435e+12
7.5776416e+12
7.5717443e+12
7.548443e+12
7.4772559e+12
7.1487084e+12
7.2271091e+12
7.2526686e+12
7.2593573e+12
7.2586883e+12
7.2576156e+12
7.2574746e+12
7.2572422e+12
7.2568546e+12
7.2567378e+12
7.2567376e+12
7.2568541e+12
7.2572414e+12
7.2574735e+12
7.2576143e+12
7.2586869e+12
7.2593558e+12
7.2526669e+12
7.2271074e+12
7.1487067e+12
6.8203784e+12
6.90659e+12
6.9341743e+12
6.9416914e+12
6.9407842e+12
6.9397289e+12
6.9396757e+12
6.9395149e+12
6.9390603e+12
6.9389074e+12
6.9389072e+12
6.9390598e+12
6.9395141e+12
6.9396747e+12
6.9397276e+12
6.9407828e+12
6.9416899e+12
6.9341727e+12
6.9065885e+12
6.8203767e+12
6.4960484e+12
6.590372e+12
6.6203737e+12
6.6288391e+12
6.6280024e+12
6.627074e+12
6.6271757e+12
6.6270232e+12
6.6265493e+12
6.6262805e+12
6.6262803e+12
6.6265489e+12
6.6270225e+12
6.6271747e+12
6.6270728e+12
6.6280011e+12
6.6288377e+12
6.6203722e+12
6.5903705e+12
6.4960468e+12
6.1750905e+12
6.2780655e+12
6.3111356e+12
6.32067e+12
6.3203203e+12
6.319692e+12
6.3200346e+12
6.3198914e+12
6.3194674e+12
6.3190009e+12
6.3190008e+12
6.319467e+12
6.3198906e+12
6.3200337e+12
6.3196909e+12
6.3203191e+12
6.3206687e+12
6.3111342e+12
6.2780641e+12
6.1750891e+12
5.8563453e+12
5.9687237e+12
6.0059014e+12
6.0166847e+12
6.0169641e+12
6.0168252e+12
6.0174737e+12
6.0174101e+12
6.0171929e+12
6.0165286e+12
6.0165285e+12
6.0171925e+12
6.0174094e+12
6.0174728e+12
6.0168242e+12
6.016963e+12
6.0166835e+12
6.0059001e+12
5.9687225e+12
5.856344e+12
5.5343502e+12
5.6577458e+12
5.7003088e+12
5.7126195e+12
5.7137591e+12
5.7142341e+12
5.7151845e+12
5.7153064e+12
5.7155251e+12
5.7147848e+12
5.7147847e+12
5.7155247e+12
5.7153057e+12
5.7151837e+12
5.7142332e+12
5.7137581e+12
5.7126184e+12
5.7003076e+12
5.6577446e+12
5.5343491e+12
5.1996928e+12
5.3364481e+12
5.3856455e+12
5.3996892e+12
5.4022127e+12
5.4032975e+12
5.4045329e+12
5.4049537e+12
5.4058427e+12
5.4052388e+12
5.4052387e+12
5.4058424e+12
5.4049531e+12
5.4045321e+12
5.4032966e+12
5.4022117e+12
5.3996882e+12
5.3856444e+12
5.3364471e+12
5.1996919e+12
4.8393715e+12
4.9924448e+12
5.0492519e+12
5.0650527e+12
5.0696355e+12
5.0713127e+12
5.0728971e+12
5.073718e+12
5.0755153e+12
5.0752827e+12
5.0752826e+12
5.075515e+12
5.0737174e+12
5.0728963e+12
5.0713119e+12
5.0696346e+12
5.0650517e+12
5.0492509e+12
4.992444e+12
4.839371e+12
4.4394359e+12
4.6121053e+12
4.6773715e+12
4.6949579e+12
4.7022574e+12
4.7048125e+12
4.7069029e+12
4.7081323e+12
4.711134e+12
4.7114521e+12
4.711452e+12
4.7111337e+12
4.7081318e+12
4.7069022e+12
4.7048117e+12
4.7022565e+12
4.6949569e+12
4.6773706e+12
4.6121047e+12
4.4394358e+12
3.9938425e+12
4.1884159e+12
4.2639437e+12
4.2848275e+12
4.295939e+12
4.2998474e+12
4.302647e+12
4.3040351e+12
4.3083533e+12
4.3092583e+12
4.3092582e+12
4.308353e+12
4.3040346e+12
4.3026464e+12
4.2998466e+12
4.2959381e+12
4.2848266e+12
4.263943e+12
4.1884156e+12
3.993843e+12
3.513129e+12
3.730194e+12
3.8201938e+12
3.8485141e+12
3.8656406e+12
3.8716616e+12
3.8751119e+12
3.8761904e+12
3.8814533e+12
3.8827772e+12
3.882777e+12
3.8814531e+12
3.8761899e+12
3.8751112e+12
3.8716609e+12
3.8656398e+12
3.8485133e+12
3.8201933e+12
3.7301942e+12
3.5131303e+12
3.0133039e+12
3.2528699e+12
3.3629397e+12
3.4043736e+12
3.4295231e+12
3.4392613e+12
3.4437827e+12
3.4442853e+12
3.4498993e+12
3.4513048e+12
3.4513047e+12
3.449899e+12
3.4442848e+12
3.4437822e+12
3.4392607e+12
3.4295224e+12
3.404373e+12
3.3629395e+12
3.2528708e+12
3.0133063e+12
2.4989901e+12
2.7587274e+12
2.8935586e+12
2.9525248e+12
2.9868479e+12
3.0026934e+12
3.0090843e+12
3.0091122e+12
3.014452e+12
3.0155687e+12
3.0155686e+12
3.0144518e+12
3.0091119e+12
3.009084e+12
3.002693e+12
2.9868475e+12
2.9525245e+12
2.8935589e+12
2.7587291e+12
2.4989937e+12
1.9718375e+12
2.2414466e+12
2.4029343e+12
2.4794379e+12
2.5247188e+12
2.5471126e+12
2.5554949e+12
2.5553294e+12
2.5597373e+12
2.5603257e+12
2.5603256e+12
2.5597371e+12
2.5553291e+12
2.5554947e+12
2.5471123e+12
2.5247187e+12
2.4794379e+12
2.4029351e+12
2.2414493e+12
1.9718424e+12
0
1.7075708e+12
1.8916602e+12
1.9847091e+12
2.0389527e+12
2.0679912e+12
2.0779329e+12
2.0779377e+12
2.0810391e+12
2.0810901e+12
2.0810901e+12
2.081039e+12
2.0779377e+12
2.0779329e+12
2.0679913e+12
2.0389529e+12
1.9847096e+12
1.8916617e+12
1.7075747e+12
0
0
0
0
0
0
0
0
0
0
0
0
0
0
0
0
0
0
0
0
0
0
0
0
0
0
0
0
0
0
0
0
0
0
0
0
0
0
0
0
0
0
0
0
0
0
0
0
0
0
0
0
0
0
0
0
0
0
0
0
0
0
0
0
0
0
0
0
0
0
0
0
0
0
0
0
0
0
0
0
0
0
0
0
0
0
0
0
0
0
0
0
0
0
0
0
0
0
0
0
0
0
0
0
0
0
0
0
0
0
0
0
0
0
0
0
0
0
0
0
0
0
0
0
0
0
0
0
0
0
0
0
0
0
0
0
0
0
0
0
0
0
0
0
0
0
0
0
0
0
0
0
0
0
0
0
0
0
0
0
0
0
0
0
0
0
0
0
0
0
0
0
0
0
0
0
0
0
0
0
0
0
0
0
0
0
0
0
0
0
0
0
0
0
0
0
0
0
0
0
0
0
0
0
0
0
0
0
0
0
0
0
0
0
0
0
0
0
0
0
0
0
0
0
0
0
0
0
0
0
0
0
0
0
0
0
0
0
0
0
0
)
;

boundaryField
{
    Wall
    {
        type            zeroGradient;
    }
    frontAndBack
    {
        type            empty;
    }
    atmosphere
    {
        type            zeroGradient;
    }
}


// ************************************************************************* //
