/*--------------------------------*- C++ -*----------------------------------*\
| =========                 |                                                 |
| \\      /  F ield         | OpenFOAM: The Open Source CFD Toolbox           |
|  \\    /   O peration     | Version:  3.0.1                                 |
|   \\  /    A nd           | Web:      www.OpenFOAM.org                      |
|    \\/     M anipulation  |                                                 |
\*---------------------------------------------------------------------------*/
FoamFile
{
    version     2.0;
    format      ascii;
    class       volScalarField;
    location    "31";
    object      weight0;
}
// * * * * * * * * * * * * * * * * * * * * * * * * * * * * * * * * * * * * * //

dimensions      [0 0 0 0 0 0 0];

internalField   nonuniform List<scalar> 
800
(
8.8612975e+09
8.8615158e+09
8.8616107e+09
8.8616377e+09
8.861649e+09
8.8616569e+09
8.8616633e+09
8.8616683e+09
8.8616718e+09
8.8616736e+09
8.8616735e+09
8.8616718e+09
8.8616683e+09
8.8616633e+09
8.8616569e+09
8.861649e+09
8.8616377e+09
8.8616107e+09
8.8615158e+09
8.8612975e+09
7.9273972e+09
8.0173104e+09
8.0334976e+09
8.0362929e+09
8.0363651e+09
8.0362129e+09
8.0362385e+09
8.036389e+09
8.03655e+09
8.036647e+09
8.0366469e+09
8.0365498e+09
8.0363887e+09
8.036238e+09
8.0362122e+09
8.0363642e+09
8.0362919e+09
8.0334961e+09
8.0173088e+09
7.927394e+09
7.7144278e+09
7.8090318e+09
7.8367647e+09
7.8414173e+09
7.8424823e+09
7.8430037e+09
7.8435181e+09
7.8440104e+09
7.8443878e+09
7.8445908e+09
7.8445907e+09
7.8443876e+09
7.8440102e+09
7.8435177e+09
7.843003e+09
7.8424816e+09
7.8414165e+09
7.8367637e+09
7.8090306e+09
7.7144253e+09
7.6782973e+09
7.7652988e+09
7.7962855e+09
7.8018659e+09
7.8038116e+09
7.8048966e+09
7.8057125e+09
7.8063491e+09
7.8067896e+09
7.8070159e+09
7.8070157e+09
7.8067893e+09
7.8063487e+09
7.8057118e+09
7.8048957e+09
7.8038106e+09
7.8018647e+09
7.7962842e+09
7.7652971e+09
7.6782944e+09
7.1817534e+09
7.2975963e+09
7.3327218e+09
7.3396924e+09
7.3430788e+09
7.3446508e+09
7.3454749e+09
7.3459555e+09
7.3462373e+09
7.3463716e+09
7.3463712e+09
7.3462364e+09
7.345954e+09
7.3454729e+09
7.3446482e+09
7.3430757e+09
7.3396888e+09
7.3327176e+09
7.2975913e+09
7.1817458e+09
5.5794547e+09
5.8099868e+09
5.8612595e+09
5.8694685e+09
5.8758539e+09
5.8782556e+09
5.8789763e+09
5.8791011e+09
5.8790616e+09
5.8790168e+09
5.8790161e+09
5.8790595e+09
5.8790976e+09
5.8789713e+09
5.8782493e+09
5.8758463e+09
5.8694595e+09
5.8612492e+09
5.8099749e+09
5.5794379e+09
2.0294964e+09
2.5545286e+09
2.6604318e+09
2.6702761e+09
2.6838084e+09
2.6886831e+09
2.6898203e+09
2.6897409e+09
2.6894059e+09
2.6891863e+09
2.6891847e+09
2.6894013e+09
2.6897332e+09
2.6898094e+09
2.6886694e+09
2.6837919e+09
2.6702573e+09
2.6604109e+09
2.5545051e+09
2.029464e+09
1.4359844e+08
75333039
63899857
63416537
62098218
61584159
61437971
61417466
61433732
61446303
61446444
61434159
61418168
61438944
61585389
62099670
63418195
63901649
75335187
1.4360252e+08
3.3218368e+09
2.5741232e+09
2.3963673e+09
2.3962863e+09
2.3836632e+09
2.3753544e+09
2.372141e+09
2.371019e+09
2.3707894e+09
2.370726e+09
2.3707279e+09
2.370795e+09
2.3710282e+09
2.3721536e+09
2.3753702e+09
2.3836813e+09
2.3963065e+09
2.3963884e+09
2.5741459e+09
3.3218669e+09
1.55748e+10
1.3548737e+10
1.2864846e+10
1.2884626e+10
1.2898758e+10
1.2885145e+10
1.2867761e+10
1.2859083e+10
1.2855547e+10
1.2853879e+10
1.2853884e+10
1.2855562e+10
1.2859108e+10
1.2867794e+10
1.2885186e+10
1.2898803e+10
1.2884676e+10
1.2864896e+10
1.3548788e+10
1.5574856e+10
3.9053817e+10
3.6320751e+10
3.4842286e+10
3.4910904e+10
3.5125792e+10
3.5185024e+10
3.5131041e+10
3.5099789e+10
3.508523e+10
3.5077912e+10
3.5077918e+10
3.5085249e+10
3.5099822e+10
3.5131084e+10
3.5185076e+10
3.5125846e+10
3.4910964e+10
3.4842342e+10
3.6320805e+10
3.9053868e+10
6.9805551e+10
6.7870385e+10
6.5734257e+10
6.5866042e+10
6.6534822e+10
6.6804024e+10
6.6682795e+10
6.6607596e+10
6.6572006e+10
6.6553191e+10
6.6553194e+10
6.6572019e+10
6.6607621e+10
6.6682826e+10
6.6804061e+10
6.6534857e+10
6.5866083e+10
6.5734289e+10
6.7870413e+10
6.9805586e+10
1.0271089e+11
1.0278884e+11
1.0068734e+11
1.0086402e+11
1.0213808e+11
1.0267777e+11
1.0245563e+11
1.0231022e+11
1.0228136e+11
1.0224245e+11
1.0224245e+11
1.0228136e+11
1.0231023e+11
1.0245564e+11
1.0267778e+11
1.0213809e+11
1.0086404e+11
1.0068735e+11
1.0278885e+11
1.0271093e+11
1.3551645e+11
1.3812502e+11
1.3700736e+11
1.3727685e+11
1.3915004e+11
1.3992469e+11
1.3951577e+11
1.3926977e+11
1.3928606e+11
1.3921714e+11
1.3921713e+11
1.3928606e+11
1.3926977e+11
1.3951577e+11
1.399247e+11
1.3915005e+11
1.3727687e+11
1.3700738e+11
1.3812505e+11
1.3551652e+11
1.6769009e+11
1.7279424e+11
1.7345913e+11
1.7401572e+11
1.7635879e+11
1.7711807e+11
1.7655896e+11
1.7620233e+11
1.7624942e+11
1.7618812e+11
1.7618812e+11
1.7624941e+11
1.7620232e+11
1.7655897e+11
1.7711809e+11
1.7635883e+11
1.7401579e+11
1.7345917e+11
1.7279431e+11
1.6769023e+11
1.9669069e+11
2.04599e+11
2.0738718e+11
2.0845119e+11
2.1109111e+11
2.117401e+11
2.1095489e+11
2.105412e+11
2.1057937e+11
2.1060402e+11
2.1060401e+11
2.1057936e+11
2.1054118e+11
2.109549e+11
2.1174012e+11
2.1109116e+11
2.0845129e+11
2.0738725e+11
2.045991e+11
1.9669088e+11
2.2374185e+11
2.3456942e+11
2.3974662e+11
2.4167665e+11
2.443574e+11
2.4474264e+11
2.4362053e+11
2.4312791e+11
2.4309369e+11
2.4328792e+11
2.432879e+11
2.4309367e+11
2.4312788e+11
2.4362054e+11
2.4474267e+11
2.4435746e+11
2.4167677e+11
2.397467e+11
2.3456954e+11
2.2374206e+11
2.4962705e+11
2.6350598e+11
2.7121253e+11
2.7449592e+11
2.773312e+11
2.7730193e+11
2.7574669e+11
2.7506998e+11
2.7480272e+11
2.7516719e+11
2.7516717e+11
2.748027e+11
2.7506994e+11
2.757467e+11
2.7730197e+11
2.7733128e+11
2.7449607e+11
2.7121263e+11
2.6350612e+11
2.4962729e+11
2.7872837e+11
2.9516682e+11
3.0563219e+11
3.1089478e+11
3.1403755e+11
3.1354494e+11
3.1152978e+11
3.1051281e+11
3.0976572e+11
3.1017309e+11
3.1017306e+11
3.097657e+11
3.1051276e+11
3.115298e+11
3.13545e+11
3.1403766e+11
3.1089496e+11
3.0563232e+11
2.95167e+11
2.7872867e+11
3.1861808e+11
3.3670679e+11
3.5059707e+11
3.5884315e+11
3.6233642e+11
3.6152534e+11
3.5904148e+11
3.5750332e+11
3.5600574e+11
3.5622777e+11
3.5622774e+11
3.5600572e+11
3.5750327e+11
3.5904152e+11
3.6152544e+11
3.6233659e+11
3.588434e+11
3.5059728e+11
3.3670705e+11
3.1861847e+11
3.7957435e+11
3.9819324e+11
4.1698156e+11
4.2981404e+11
4.3380825e+11
4.3293366e+11
4.2990365e+11
4.2765733e+11
4.2511441e+11
4.248862e+11
4.2488616e+11
4.2511438e+11
4.2765728e+11
4.2990372e+11
4.3293383e+11
4.3380849e+11
4.2981439e+11
4.1698186e+11
3.9819361e+11
3.7957488e+11
4.7171817e+11
4.899848e+11
5.1595363e+11
5.3555152e+11
5.4058484e+11
5.3975664e+11
5.3603154e+11
5.3296199e+11
5.2899055e+11
5.280827e+11
5.2808265e+11
5.2899052e+11
5.3296193e+11
5.3603165e+11
5.3975687e+11
5.4058518e+11
5.3555198e+11
5.1595404e+11
4.899853e+11
4.7171884e+11
5.9574116e+11
6.1452128e+11
6.4993925e+11
6.7784025e+11
6.8453982e+11
6.8391795e+11
6.7938179e+11
6.7560901e+11
6.6996079e+11
6.6825761e+11
6.6825755e+11
6.6996075e+11
6.7560893e+11
6.7938193e+11
6.8391825e+11
6.8454024e+11
6.778408e+11
6.4993976e+11
6.1452192e+11
5.9574198e+11
7.3373007e+11
7.5664514e+11
8.0268327e+11
8.3902783e+11
8.4764601e+11
8.4755801e+11
8.4248642e+11
8.3831869e+11
8.3116058e+11
8.2870671e+11
8.2870664e+11
8.3116053e+11
8.383186e+11
8.4248657e+11
8.4755835e+11
8.4764647e+11
8.3902844e+11
8.0268385e+11
7.5664588e+11
7.33731e+11
8.5978827e+11
8.9220883e+11
9.5052012e+11
9.9559423e+11
1.0077773e+12
1.0083693e+12
1.0027327e+12
9.9824089e+11
9.8986409e+11
9.8680678e+11
9.868067e+11
9.8986402e+11
9.9824077e+11
1.0027328e+12
1.0083696e+12
1.0077778e+12
9.9559482e+11
9.5052072e+11
8.9220966e+11
8.597894e+11
9.5638928e+11
1.0069467e+12
1.0825473e+12
1.140047e+12
1.1603091e+12
1.1618522e+12
1.1555861e+12
1.1504731e+12
1.1410704e+12
1.1374942e+12
1.1374941e+12
1.1410704e+12
1.1504729e+12
1.1555862e+12
1.1618525e+12
1.1603095e+12
1.1400475e+12
1.0825479e+12
1.0069478e+12
9.5639092e+11
1.0050919e+12
1.090929e+12
1.1944145e+12
1.2761539e+12
1.3107778e+12
1.3175828e+12
1.3121025e+12
1.3059738e+12
1.2955947e+12
1.2913076e+12
1.2913075e+12
1.2955946e+12
1.3059737e+12
1.3121026e+12
1.317583e+12
1.3107781e+12
1.2761544e+12
1.1944153e+12
1.0909306e+12
1.0050946e+12
0
1.1085037e+12
1.2643152e+12
1.3890381e+12
1.4528932e+12
1.472532e+12
1.4712489e+12
1.4639537e+12
1.4521965e+12
1.4465822e+12
1.446582e+12
1.4521964e+12
1.4639534e+12
1.4712488e+12
1.4725321e+12
1.4528935e+12
1.3890387e+12
1.2643164e+12
1.1085062e+12
0
0
0
0
0
0
0
0
0
0
0
0
0
0
0
0
0
0
0
0
0
0
0
0
0
0
0
0
0
0
0
0
0
0
0
0
0
0
0
0
0
0
0
0
0
0
0
0
0
0
0
0
0
0
0
0
0
0
0
0
0
0
0
0
0
0
0
0
0
0
0
0
0
0
0
0
0
0
0
0
0
0
0
0
0
0
0
0
0
0
0
0
0
0
0
0
0
0
0
0
0
0
0
0
0
0
0
0
0
0
0
0
0
0
0
0
0
0
0
0
0
0
0
0
0
0
0
0
0
0
0
0
0
0
0
0
0
0
0
0
0
0
0
0
0
0
0
0
0
0
0
0
0
0
0
0
0
0
0
0
0
0
0
0
0
0
0
0
0
0
0
0
0
0
0
0
0
0
0
0
0
0
0
0
0
0
0
0
0
0
0
0
0
0
0
0
0
0
0
0
0
0
0
0
0
0
0
0
0
0
0
0
0
0
0
0
0
0
0
0
0
0
0
0
0
0
0
0
0
0
0
0
0
0
0
0
0
0
0
0
0
)
;

boundaryField
{
    Wall
    {
        type            zeroGradient;
    }
    frontAndBack
    {
        type            empty;
    }
    atmosphere
    {
        type            zeroGradient;
    }
}


// ************************************************************************* //
