/*--------------------------------*- C++ -*----------------------------------*\
| =========                 |                                                 |
| \\      /  F ield         | OpenFOAM: The Open Source CFD Toolbox           |
|  \\    /   O peration     | Version:  3.0.1                                 |
|   \\  /    A nd           | Web:      www.OpenFOAM.org                      |
|    \\/     M anipulation  |                                                 |
\*---------------------------------------------------------------------------*/
FoamFile
{
    version     2.0;
    format      ascii;
    class       volScalarField;
    location    "31";
    object      XOH;
}
// * * * * * * * * * * * * * * * * * * * * * * * * * * * * * * * * * * * * * //

dimensions      [0 0 0 0 0 0 0];

internalField   nonuniform List<scalar> 
800
(
0.20623113
0.20625386
0.20625832
0.20625898
0.20625909
0.20625917
0.20625926
0.20625935
0.20625942
0.20625945
0.20625945
0.20625942
0.20625935
0.20625926
0.20625917
0.20625909
0.20625898
0.20625833
0.20625386
0.20623113
0.20107751
0.20131212
0.20137088
0.20138602
0.20138887
0.20138863
0.20138794
0.20138744
0.20138719
0.20138709
0.20138709
0.20138719
0.20138744
0.20138793
0.20138863
0.20138886
0.20138601
0.20137088
0.20131211
0.20107748
0.19640135
0.19676958
0.19688288
0.19691408
0.19692137
0.19692202
0.19692129
0.19692062
0.19692025
0.19692009
0.19692009
0.19692024
0.19692062
0.19692128
0.19692201
0.19692136
0.19691407
0.19688287
0.19676956
0.19640132
0.19221975
0.1927015
0.19285905
0.19290303
0.19291383
0.19291521
0.19291453
0.19291379
0.19291336
0.19291319
0.19291319
0.19291336
0.19291379
0.19291452
0.1929152
0.19291381
0.19290301
0.19285903
0.19270147
0.19221971
0.18854483
0.18912146
0.18931629
0.18937021
0.1893833
0.18938493
0.18938413
0.18938326
0.18938276
0.18938256
0.18938256
0.18938276
0.18938325
0.18938412
0.18938491
0.18938328
0.1893702
0.18931627
0.18912143
0.18854479
0.18537312
0.18602525
0.18625319
0.18631514
0.18632949
0.18633084
0.18632969
0.18632857
0.18632795
0.1863277
0.1863277
0.18632795
0.18632856
0.18632968
0.18633083
0.18632947
0.18631512
0.18625317
0.18602523
0.18537308
0.18268798
0.18339939
0.18365729
0.18372601
0.18374084
0.18374143
0.18373968
0.18373816
0.18373736
0.18373703
0.18373702
0.18373736
0.18373816
0.18373967
0.18374142
0.18374083
0.183726
0.18365727
0.18339937
0.18268795
0.18046291
0.18122224
0.18150697
0.18158188
0.18159666
0.18159608
0.1815935
0.18159144
0.18159037
0.18158991
0.18158991
0.18159036
0.18159143
0.1815935
0.18159607
0.18159665
0.18158187
0.18150696
0.18122222
0.18046289
0.17866222
0.17946418
0.17977219
0.17985346
0.17986796
0.17986593
0.17986233
0.17985958
0.17985817
0.17985754
0.17985754
0.17985816
0.17985958
0.17986232
0.17986593
0.17986795
0.17985345
0.17977218
0.17946417
0.1786622
0.17724097
0.17808754
0.17841492
0.17850366
0.17851809
0.17851448
0.17850972
0.17850619
0.17850436
0.17850354
0.17850354
0.17850436
0.17850618
0.17850971
0.17851447
0.17851808
0.17850366
0.17841491
0.17808754
0.17724096
0.17614411
0.17704571
0.17738893
0.17748745
0.17750258
0.17749747
0.17749154
0.17748718
0.17748491
0.17748386
0.17748386
0.17748491
0.17748717
0.17749154
0.17749747
0.17750257
0.17748745
0.17738893
0.1770457
0.17614411
0.17530433
0.17628022
0.17663813
0.17675036
0.17676697
0.17676081
0.17675388
0.17674873
0.17674606
0.17674479
0.17674479
0.17674606
0.17674873
0.17675387
0.17676081
0.17676697
0.17675036
0.17663813
0.17628023
0.17530433
0.17463798
0.17571567
0.17609316
0.17622422
0.17624217
0.17623588
0.17622844
0.17622278
0.17621997
0.17621855
0.17621855
0.17621997
0.17622278
0.17622844
0.17623588
0.17624217
0.17622423
0.17609317
0.17571568
0.17463799
0.17403757
0.17525302
0.1756646
0.17581991
0.17583804
0.1758333
0.17582635
0.17582081
0.17581741
0.17581599
0.17581599
0.17581741
0.17582081
0.17582635
0.17583331
0.17583805
0.17581992
0.17566461
0.17525304
0.17403759
0.17335999
0.17476149
0.17523254
0.17541795
0.17543578
0.17543543
0.17543099
0.17542667
0.1754201
0.17541892
0.17541892
0.1754201
0.17542667
0.17543099
0.17543544
0.17543579
0.17541797
0.17523255
0.17476151
0.17336001
0.17242
0.17407393
0.17463927
0.17486291
0.17488306
0.1748918
0.1748917
0.17489043
0.17487603
0.17487545
0.17487545
0.17487603
0.17489043
0.1748917
0.17489181
0.17488307
0.17486293
0.17463929
0.17407395
0.17242002
0.17097824
0.17297588
0.17367752
0.17395257
0.17398299
0.1740057
0.17400964
0.17401415
0.17398807
0.17398887
0.17398887
0.17398807
0.17401415
0.17400964
0.17400571
0.173983
0.17395259
0.17367754
0.17297591
0.17097827
0.16872732
0.17118771
0.17207516
0.17242222
0.17247864
0.17251835
0.17252451
0.17253857
0.17249843
0.17250206
0.17250206
0.17249843
0.17253857
0.17252451
0.17251836
0.17247865
0.17242224
0.17207518
0.17118773
0.16872734
0.16527402
0.16834335
0.16947651
0.16992446
0.17002839
0.17008808
0.17009694
0.17012533
0.17007027
0.17007895
0.17007895
0.17007026
0.17012533
0.17009694
0.17008808
0.1700284
0.16992447
0.16947652
0.16834337
0.16527405
0.16010955
0.16396424
0.16541872
0.16600541
0.16617628
0.16626403
0.16628275
0.16633095
0.16626523
0.16628191
0.16628191
0.16626523
0.16633095
0.16628275
0.16626403
0.16617629
0.16600543
0.16541874
0.16396427
0.16010959
0.15258719
0.15743652
0.15930938
0.16007032
0.16032868
0.1604658
0.1605104
0.16058422
0.16052259
0.16055066
0.16055066
0.16052259
0.16058422
0.1605104
0.1604658
0.16032868
0.16007033
0.1593094
0.15743655
0.15258724
0.14192925
0.14799257
0.15040247
0.15137585
0.15175571
0.15196766
0.15206756
0.15217332
0.15214155
0.1521844
0.1521844
0.15214155
0.15217332
0.15206756
0.15196767
0.15175572
0.15137587
0.15040249
0.14799261
0.14192933
0.12730372
0.13476985
0.13783936
0.1390745
0.13962191
0.13995158
0.14013768
0.14027969
0.14030597
0.14036586
0.14036586
0.14030597
0.14027969
0.14013768
0.13995159
0.13962193
0.13907452
0.1378394
0.13476992
0.12730383
0.10804436
0.11699345
0.12081431
0.12237409
0.12313005
0.12364185
0.123946
0.12412096
0.12422009
0.1242959
0.1242959
0.12422009
0.12412096
0.12394601
0.12364187
0.12313007
0.12237412
0.12081437
0.11699355
0.10804452
0.084172023
0.094372177
0.099011868
0.10084854
0.10191042
0.10262906
0.10304403
0.10323338
0.10338999
0.10347359
0.10347359
0.10338999
0.10323339
0.10304404
0.10262908
0.10191045
0.10084858
0.099011938
0.094372302
0.084172199
0.05682145
0.067570174
0.073054822
0.074850346
0.076428198
0.077246711
0.077683013
0.077853033
0.078018938
0.078094384
0.078094385
0.078018943
0.077853041
0.077683027
0.077246729
0.076428225
0.074850387
0.073054891
0.06757029
0.056821585
0.026272762
0.037443627
0.043928493
0.046237231
0.047593464
0.049216097
0.049531255
0.049643039
0.049757952
0.04980645
0.049806451
0.049757953
0.049643041
0.049531261
0.049216104
0.047593476
0.046237251
0.043928533
0.037443692
0.026272823
1e-150
0.0041056439
0.011987516
0.012622882
0.015975142
0.016548008
0.016648092
0.016684219
0.016719664
0.016734709
0.016734709
0.016719664
0.016684219
0.016648092
0.016548009
0.015975145
0.012622889
0.011987528
0.0041056522
1e-150
1e-150
1e-150
1e-150
1e-150
1e-150
1e-150
1e-150
1e-150
1e-150
1e-150
1e-150
1e-150
1e-150
1e-150
1e-150
1e-150
1e-150
1e-150
1e-150
1e-150
1e-150
1e-150
1e-150
1e-150
1e-150
1e-150
1e-150
1e-150
1e-150
1e-150
1e-150
1e-150
1e-150
1e-150
1e-150
1e-150
1e-150
1e-150
1e-150
1e-150
1e-150
1e-150
1e-150
1e-150
1e-150
1e-150
1e-150
1e-150
1e-150
1e-150
1e-150
1e-150
1e-150
1e-150
1e-150
1e-150
1e-150
1e-150
1e-150
1e-150
1e-150
1e-150
1e-150
1e-150
1e-150
1e-150
1e-150
1e-150
1e-150
1e-150
1e-150
1e-150
1e-150
1e-150
1e-150
1e-150
1e-150
1e-150
1e-150
1e-150
1e-150
1e-150
1e-150
1e-150
1e-150
1e-150
1e-150
1e-150
1e-150
1e-150
1e-150
1e-150
1e-150
1e-150
1e-150
1e-150
1e-150
1e-150
1e-150
1e-150
1e-150
1e-150
1e-150
1e-150
1e-150
1e-150
1e-150
1e-150
1e-150
1e-150
1e-150
1e-150
1e-150
1e-150
1e-150
1e-150
1e-150
1e-150
1e-150
1e-150
1e-150
1e-150
1e-150
1e-150
1e-150
1e-150
1e-150
1e-150
1e-150
1e-150
1e-150
1e-150
1e-150
1e-150
1e-150
1e-150
1e-150
1e-150
1e-150
1e-150
1e-150
1e-150
1e-150
1e-150
1e-150
1e-150
1e-150
1e-150
1e-150
1e-150
1e-150
1e-150
1e-150
1e-150
1e-150
1e-150
1e-150
1e-150
1e-150
1e-150
1e-150
1e-150
1e-150
1e-150
1e-150
1e-150
1e-150
1e-150
1e-150
1e-150
1e-150
1e-150
1e-150
1e-150
1e-150
1e-150
1e-150
1e-150
1e-150
1e-150
1e-150
1e-150
1e-150
1e-150
1e-150
1e-150
1e-150
1e-150
1e-150
1e-150
1e-150
1e-150
1e-150
1e-150
1e-150
1e-150
1e-150
1e-150
1e-150
1e-150
1e-150
1e-150
1e-150
1e-150
1e-150
1e-150
1e-150
1e-150
1e-150
1e-150
1e-150
1e-150
1e-150
1e-150
1e-150
1e-150
1e-150
1e-150
1e-150
1e-150
1e-150
1e-150
1e-150
1e-150
1e-150
1e-150
1e-150
1e-150
1e-150
1e-150
1e-150
1e-150
1e-150
1e-150
1e-150
1e-150
1e-150
1e-150
1e-150
1e-150
)
;

boundaryField
{
    Wall
    {
        type            zeroGradient;
    }
    frontAndBack
    {
        type            empty;
    }
    atmosphere
    {
        type            zeroGradient;
    }
}


// ************************************************************************* //
