/*--------------------------------*- C++ -*----------------------------------*\
| =========                 |                                                 |
| \\      /  F ield         | OpenFOAM: The Open Source CFD Toolbox           |
|  \\    /   O peration     | Version:  3.0.1                                 |
|   \\  /    A nd           | Web:      www.OpenFOAM.org                      |
|    \\/     M anipulation  |                                                 |
\*---------------------------------------------------------------------------*/
FoamFile
{
    version     2.0;
    format      ascii;
    class       volScalarField;
    location    "31";
    object      XW;
}
// * * * * * * * * * * * * * * * * * * * * * * * * * * * * * * * * * * * * * //

dimensions      [0 0 0 0 0 0 0];

internalField   nonuniform List<scalar> 
800
(
0.76055754
0.76059655
0.76060407
0.76060517
0.76060536
0.76060548
0.76060564
0.76060579
0.7606059
0.76060596
0.76060596
0.7606059
0.76060579
0.76060564
0.76060549
0.76060536
0.76060517
0.76060407
0.76059655
0.76055754
0.75046052
0.75091094
0.75102194
0.75105074
0.75105641
0.75105624
0.75105515
0.75105438
0.751054
0.75105386
0.75105386
0.751054
0.75105438
0.75105515
0.75105623
0.7510564
0.75105073
0.75102192
0.75091091
0.75046048
0.74088254
0.74161574
0.74183798
0.74189971
0.74191467
0.7419165
0.74191547
0.74191444
0.74191387
0.74191365
0.74191365
0.74191387
0.74191443
0.74191546
0.74191648
0.74191465
0.74189968
0.74183795
0.7416157
0.74088247
0.73186959
0.73286774
0.73318687
0.73327683
0.73329976
0.73330336
0.7333025
0.73330133
0.73330064
0.73330037
0.73330037
0.73330064
0.73330132
0.73330249
0.73330334
0.73329973
0.73327679
0.73318683
0.73286769
0.7318695
0.72346077
0.72470776
0.72511502
0.72522911
0.72525804
0.7252625
0.72526146
0.72525999
0.72525912
0.72525878
0.72525877
0.72525912
0.72525997
0.72526145
0.72526248
0.72525801
0.72522908
0.72511497
0.72470769
0.72346068
0.71565996
0.71713709
0.71762883
0.71776471
0.71779801
0.71780236
0.71780065
0.71779859
0.71779742
0.71779693
0.71779693
0.71779741
0.71779858
0.71780063
0.71780233
0.71779798
0.71776467
0.71762878
0.71713703
0.71565986
0.70843664
0.71013164
0.71070647
0.71086302
0.71089944
0.71090276
0.71089987
0.71089692
0.71089528
0.71089458
0.71089458
0.71089527
0.7108969
0.71089985
0.71090273
0.71089941
0.71086298
0.71070642
0.71013158
0.70843655
0.70173167
0.70364266
0.70430038
0.70447775
0.70451642
0.70451793
0.70451338
0.70450922
0.70450694
0.70450594
0.70450594
0.70450693
0.7045092
0.70451335
0.7045179
0.70451638
0.70447771
0.70430034
0.7036426
0.7017316
0.69545812
0.69759631
0.69833783
0.69853762
0.69857824
0.69857735
0.69857074
0.6985651
0.69856203
0.69856065
0.69856065
0.69856202
0.69856509
0.69857072
0.69857732
0.69857821
0.69853758
0.69833779
0.69759626
0.69545805
0.68950037
0.69189285
0.69272081
0.69294645
0.69298954
0.69298596
0.69297708
0.69296978
0.69296579
0.69296396
0.69296396
0.69296578
0.69296976
0.69297706
0.69298593
0.69298952
0.69294642
0.69272077
0.69189281
0.68950033
0.68371186
0.68640446
0.68732461
0.68758191
0.68762923
0.68762324
0.68761217
0.68760318
0.68759821
0.68759589
0.68759589
0.6875982
0.68760317
0.68761215
0.68762322
0.6876292
0.68758188
0.68732459
0.68640443
0.68371183
0.67791092
0.68097023
0.68199454
0.68229246
0.6823466
0.68233941
0.68232668
0.68231626
0.68231033
0.68230754
0.68230754
0.68231032
0.68231624
0.68232666
0.68233939
0.68234658
0.68229244
0.68199452
0.68097021
0.6779109
0.6718738
0.67538771
0.6765396
0.67689004
0.67695359
0.67694757
0.67693446
0.67692335
0.676917
0.6769139
0.6769139
0.67691699
0.67692333
0.67693444
0.67694755
0.67695357
0.67689003
0.67653959
0.67538771
0.67187379
0.66531949
0.66939938
0.67071898
0.67113596
0.67121147
0.67121053
0.6711995
0.67118929
0.67118296
0.67117984
0.67117984
0.67118295
0.67118928
0.67119948
0.67121051
0.67121146
0.67113595
0.67071897
0.66939938
0.66531949
0.65788952
0.66267837
0.66422582
0.66472583
0.66481821
0.66482892
0.66482425
0.66481763
0.66481031
0.66480763
0.66480763
0.6648103
0.66481762
0.66482423
0.66482891
0.6648182
0.66472583
0.66422582
0.66267837
0.65788953
0.64914708
0.65482756
0.65668329
0.65728784
0.65740749
0.65743969
0.65744757
0.65744861
0.65743819
0.65743685
0.65743685
0.65743817
0.6574486
0.65744755
0.65743968
0.65740748
0.65728784
0.6566833
0.65482757
0.64914708
0.63853184
0.64533829
0.6476028
0.64834222
0.64850663
0.64857316
0.64859963
0.64861421
0.64860135
0.64860339
0.64860339
0.64860134
0.64861419
0.64859961
0.64857314
0.64850662
0.64834222
0.6476028
0.6453383
0.63853184
0.62529768
0.63353647
0.63633638
0.63725379
0.63749339
0.63760907
0.63766071
0.63769677
0.63768765
0.63769669
0.63769669
0.63768764
0.63769674
0.63766069
0.63760905
0.63749338
0.63725378
0.63633638
0.63353648
0.62529769
0.60845623
0.61851751
0.62201612
0.62316963
0.62353241
0.62371614
0.6238039
0.62387132
0.62387904
0.62390043
0.62390043
0.62387902
0.62387129
0.62380388
0.62371612
0.62353239
0.62316962
0.62201612
0.61851751
0.60845625
0.58668244
0.59905633
0.60346974
0.60493721
0.60549083
0.60577067
0.60591397
0.60602429
0.60607132
0.60611192
0.60611192
0.6060713
0.60602427
0.60591395
0.60577065
0.60549082
0.6049372
0.60346974
0.59905635
0.58668248
0.55820004
0.57349535
0.57911378
0.58099613
0.58183115
0.58225663
0.58248607
0.58265231
0.58277321
0.58284104
0.58284103
0.58277319
0.58265229
0.58248605
0.58225661
0.58183114
0.58099613
0.57911379
0.57349539
0.55820012
0.52065079
0.53962805
0.54682813
0.54926325
0.55048997
0.55115372
0.55152458
0.55176263
0.55200094
0.55210449
0.55210449
0.55200093
0.55176261
0.55152456
0.55115371
0.55048997
0.54926326
0.54682816
0.53962814
0.52065095
0.47100677
0.49461172
0.50384452
0.50708624
0.50880969
0.50985888
0.51051226
0.51083668
0.51123041
0.51137666
0.51137666
0.51123041
0.51083667
0.51051225
0.50985888
0.50880971
0.50708628
0.50384459
0.49461187
0.47100703
0.40600766
0.43519204
0.4469269
0.45140993
0.45370183
0.4554553
0.45653999
0.45695104
0.45750689
0.45769613
0.45769613
0.45750689
0.45695104
0.45653999
0.45545532
0.45370187
0.45141
0.44692702
0.43519229
0.40600806
0.32345233
0.35850068
0.37360037
0.37925703
0.38266929
0.38521222
0.38668739
0.38714966
0.38781006
0.38802598
0.38802598
0.38781007
0.38714967
0.38668741
0.38521225
0.38266935
0.37925712
0.37360055
0.35850102
0.32345282
0.22361673
0.26328871
0.28282908
0.2885816
0.2943228
0.29719443
0.29873116
0.29916543
0.29979583
0.29999932
0.29999932
0.29979583
0.29916544
0.29873119
0.29719447
0.29432286
0.2885817
0.28282927
0.26328905
0.22361715
0.10492526
0.14874311
0.17384828
0.18251195
0.18751899
0.19397793
0.19509233
0.19538812
0.19581443
0.19594983
0.19594983
0.19581443
0.19538811
0.19509234
0.19397794
0.18751901
0.18251201
0.1738484
0.14874332
0.10492545
1e-150
0.016440563
0.048079926
0.050425623
0.063870501
0.066122324
0.066469898
0.06656428
0.066692251
0.066733617
0.066733617
0.066692249
0.066564277
0.066469896
0.066122323
0.063870507
0.050425642
0.048079965
0.016440591
1e-150
1e-150
1e-150
1e-150
1e-150
1e-150
1e-150
1e-150
1e-150
1e-150
1e-150
1e-150
1e-150
1e-150
1e-150
1e-150
1e-150
1e-150
1e-150
1e-150
1e-150
1e-150
1e-150
1e-150
1e-150
1e-150
1e-150
1e-150
1e-150
1e-150
1e-150
1e-150
1e-150
1e-150
1e-150
1e-150
1e-150
1e-150
1e-150
1e-150
1e-150
1e-150
1e-150
1e-150
1e-150
1e-150
1e-150
1e-150
1e-150
1e-150
1e-150
1e-150
1e-150
1e-150
1e-150
1e-150
1e-150
1e-150
1e-150
1e-150
1e-150
1e-150
1e-150
1e-150
1e-150
1e-150
1e-150
1e-150
1e-150
1e-150
1e-150
1e-150
1e-150
1e-150
1e-150
1e-150
1e-150
1e-150
1e-150
1e-150
1e-150
1e-150
1e-150
1e-150
1e-150
1e-150
1e-150
1e-150
1e-150
1e-150
1e-150
1e-150
1e-150
1e-150
1e-150
1e-150
1e-150
1e-150
1e-150
1e-150
1e-150
1e-150
1e-150
1e-150
1e-150
1e-150
1e-150
1e-150
1e-150
1e-150
1e-150
1e-150
1e-150
1e-150
1e-150
1e-150
1e-150
1e-150
1e-150
1e-150
1e-150
1e-150
1e-150
1e-150
1e-150
1e-150
1e-150
1e-150
1e-150
1e-150
1e-150
1e-150
1e-150
1e-150
1e-150
1e-150
1e-150
1e-150
1e-150
1e-150
1e-150
1e-150
1e-150
1e-150
1e-150
1e-150
1e-150
1e-150
1e-150
1e-150
1e-150
1e-150
1e-150
1e-150
1e-150
1e-150
1e-150
1e-150
1e-150
1e-150
1e-150
1e-150
1e-150
1e-150
1e-150
1e-150
1e-150
1e-150
1e-150
1e-150
1e-150
1e-150
1e-150
1e-150
1e-150
1e-150
1e-150
1e-150
1e-150
1e-150
1e-150
1e-150
1e-150
1e-150
1e-150
1e-150
1e-150
1e-150
1e-150
1e-150
1e-150
1e-150
1e-150
1e-150
1e-150
1e-150
1e-150
1e-150
1e-150
1e-150
1e-150
1e-150
1e-150
1e-150
1e-150
1e-150
1e-150
1e-150
1e-150
1e-150
1e-150
1e-150
1e-150
1e-150
1e-150
1e-150
1e-150
1e-150
1e-150
1e-150
1e-150
1e-150
1e-150
1e-150
1e-150
1e-150
1e-150
1e-150
1e-150
1e-150
1e-150
1e-150
1e-150
1e-150
1e-150
1e-150
1e-150
1e-150
1e-150
1e-150
1e-150
)
;

boundaryField
{
    Wall
    {
        type            zeroGradient;
    }
    frontAndBack
    {
        type            empty;
    }
    atmosphere
    {
        type            zeroGradient;
    }
}


// ************************************************************************* //
