/*--------------------------------*- C++ -*----------------------------------*\
| =========                 |                                                 |
| \\      /  F ield         | OpenFOAM: The Open Source CFD Toolbox           |
|  \\    /   O peration     | Version:  3.0.1                                 |
|   \\  /    A nd           | Web:      www.OpenFOAM.org                      |
|    \\/     M anipulation  |                                                 |
\*---------------------------------------------------------------------------*/
FoamFile
{
    version     2.0;
    format      ascii;
    class       volScalarField;
    location    "17";
    object      alpha.gas;
}
// * * * * * * * * * * * * * * * * * * * * * * * * * * * * * * * * * * * * * //

dimensions      [0 0 0 0 0 0 0];

internalField   nonuniform List<scalar> 
800
(
2.6449654e-28
2.3261034e-25
4.4761497e-22
8.7057325e-22
3.2808065e-24
1.0766551e-21
9.3531039e-22
5.5175339e-23
7.8433187e-26
3.7577609e-29
3.0629114e-23
2.9862355e-23
1.4567197e-25
6.9405021e-23
6.8525043e-23
1.0581017e-27
3.1445938e-32
7.0141092e-36
1.3844534e-39
2.5717032e-43
4.1888108e-12
9.4940586e-13
6.9595471e-11
2.471395e-11
9.3947525e-13
3.2860984e-11
2.5796632e-11
3.1068599e-11
6.316733e-11
1.5858598e-10
7.9661475e-11
7.9346322e-11
4.2930819e-11
2.5437829e-11
2.4062863e-11
4.6928797e-12
1.3289411e-16
5.4884814e-14
1.3394791e-11
1.8256996e-14
4.5722281e-05
4.3560143e-05
4.3393709e-05
4.3432007e-05
4.3467794e-05
4.3487305e-05
4.3497594e-05
4.3503824e-05
4.3507564e-05
4.35094e-05
4.3509344e-05
4.3507565e-05
4.3503815e-05
4.3497569e-05
4.3487266e-05
4.3467756e-05
4.3431937e-05
4.3393614e-05
4.3560106e-05
4.5722256e-05
0.00025904142
0.00024255558
0.0002410873
0.0002412341
0.00024142904
0.00024155672
0.00024165692
0.00024172343
0.00024177082
0.00024179384
0.00024179376
0.00024177075
0.00024172329
0.00024165672
0.00024155645
0.00024142873
0.00024123371
0.00024108691
0.00024255523
0.00025904106
0.0011203229
0.0010201695
0.0010086822
0.0010075252
0.0010079724
0.0010086844
0.0010093676
0.0010099728
0.0010103834
0.0010105895
0.0010105893
0.0010103829
0.0010099719
0.0010093664
0.0010086828
0.0010079706
0.0010075231
0.0010086799
0.0010201671
0.00112032
0.0064910333
0.0055530736
0.0054182708
0.0053930545
0.0053921613
0.0053988155
0.0054059486
0.005412902
0.0054174863
0.0054200168
0.0054200153
0.0054174827
0.0054128954
0.0054059386
0.0053988022
0.0053921454
0.0053930356
0.0054182508
0.0055530518
0.006491003
0.10406562
0.082715849
0.079316324
0.078735079
0.078710109
0.078884113
0.079069796
0.079241172
0.079354442
0.079417382
0.079417355
0.079354372
0.079241046
0.079069595
0.078883838
0.07870977
0.078734675
0.0793159
0.082715361
0.10406497
0.68343767
0.63525815
0.62627902
0.62487184
0.62489905
0.62543981
0.62598677
0.6264747
0.62679501
0.62697165
0.62697158
0.62679483
0.62647437
0.62598624
0.62543907
0.62489814
0.62487076
0.62627788
0.63525693
0.68343642
0.97631622
0.96826903
0.96654145
0.96636624
0.96642261
0.96655038
0.96666531
0.9667612
0.96682293
0.96685647
0.96685646
0.9668229
0.96676114
0.96666522
0.96655026
0.96642245
0.96636605
0.96654126
0.96826883
0.97631604
0.99973084
0.99951184
0.99944931
0.99944849
0.99945397
0.99946029
0.99946512
0.99946867
0.99947087
0.99947201
0.99947201
0.99947087
0.99946867
0.99946511
0.99946028
0.99945396
0.99944848
0.99944931
0.99951184
0.99973083
0.99999975
0.99999908
0.99999877
0.99999877
0.99999881
0.99999885
0.99999888
0.9999989
0.99999891
0.99999891
0.99999891
0.99999891
0.9999989
0.99999888
0.99999885
0.99999881
0.99999877
0.99999877
0.99999908
0.99999975
1
1
1
1
1
1
1
1
1
1
1
1
1
1
1
1
1
1
1
1
1
1
1
1
1
1
1
1
1
1
1
1
1
1
1
1
1
1
1
1
1
1
1
1
1
1
1
1
1
1
1
1
1
1
1
1
1
1
1
1
1
1
1
1
1
1
1
1
1
1
1
1
1
1
1
1
1
1
1
1
1
1
1
1
1
1
1
1
1
1
1
1
1
1
1
1
1
1
1
1
1
1
1
1
1
1
1
1
1
1
1
1
1
1
1
1
1
1
1
1
1
1
1
1
1
1
1
1
1
1
1
1
1
1
1
1
1
1
1
1
1
1
1
1
1
1
1
1
1
1
1
1
1
1
1
1
1
1
1
1
1
1
1
1
1
1
1
1
1
1
1
1
1
1
1
1
1
1
1
1
1
1
1
1
1
1
1
1
1
1
1
1
1
1
1
1
1
1
1
1
1
1
1
1
1
1
1
1
1
1
1
1
1
1
1
1
1
1
1
1
1
1
1
1
1
1
1
1
1
1
1
1
1
1
1
1
1
1
1
1
1
1
1
1
1
1
1
1
1
1
1
1
1
1
1
1
1
1
1
1
1
1
1
1
1
1
1
1
1
1
1
1
1
1
1
1
1
1
1
1
1
1
1
1
1
1
1
1
1
1
1
1
1
1
1
1
1
1
1
1
1
1
1
1
1
1
1
1
1
1
1
1
1
1
1
1
1
1
1
1
1
1
1
1
1
1
1
1
1
1
1
1
1
1
1
1
1
1
1
1
1
1
1
1
1
1
1
1
1
1
1
1
1
1
1
1
1
1
1
1
1
1
1
1
1
1
1
1
1
1
1
1
1
1
1
1
1
1
1
1
1
1
1
1
1
1
1
1
1
1
1
1
1
1
1
1
1
1
1
1
1
1
1
1
1
1
1
1
1
1
1
1
1
1
1
1
1
1
1
1
1
1
1
1
1
1
1
1
1
1
1
1
1
1
1
1
1
1
1
1
1
1
1
1
1
1
1
1
1
1
1
1
1
1
1
1
1
1
1
1
1
1
1
1
1
1
1
1
1
1
1
1
1
1
1
1
1
1
1
1
1
1
1
1
1
1
1
1
1
1
1
1
1
1
1
1
1
1
1
1
1
1
1
1
1
1
1
1
1
1
1
1
1
1
1
1
1
1
1
1
1
1
1
1
1
1
1
1
1
1
1
1
1
1
1
1
1
1
1
1
1
1
1
1
1
1
1
1
1
1
1
1
1
1
1
1
1
1
1
1
1
1
1
1
1
1
1
1
1
1
1
1
1
1
1
1
1
1
1
1
)
;

boundaryField
{
    Wall
    {
        type            zeroGradient;
    }
    frontAndBack
    {
        type            empty;
    }
    atmosphere
    {
        type            zeroGradient;
    }
}


// ************************************************************************* //
