/*--------------------------------*- C++ -*----------------------------------*\
| =========                 |                                                 |
| \\      /  F ield         | OpenFOAM: The Open Source CFD Toolbox           |
|  \\    /   O peration     | Version:  3.0.1                                 |
|   \\  /    A nd           | Web:      www.OpenFOAM.org                      |
|    \\/     M anipulation  |                                                 |
\*---------------------------------------------------------------------------*/
FoamFile
{
    version     2.0;
    format      ascii;
    class       volScalarField;
    location    "17";
    object      M3;
}
// * * * * * * * * * * * * * * * * * * * * * * * * * * * * * * * * * * * * * //

dimensions      [0 0 0 0 0 0 0];

internalField   nonuniform List<scalar> 
800
(
1.8523421e-25
1.852445e-25
1.8524367e-25
1.8524261e-25
1.852418e-25
1.8524115e-25
1.8524067e-25
1.8524032e-25
1.8524009e-25
1.8523998e-25
1.8523998e-25
1.8524009e-25
1.8524032e-25
1.8524067e-25
1.8524115e-25
1.852418e-25
1.8524261e-25
1.8524368e-25
1.852445e-25
1.8523421e-25
1.6108824e-25
1.6178434e-25
1.6185544e-25
1.6186536e-25
1.6186995e-25
1.6187712e-25
1.6188473e-25
1.6189102e-25
1.6189529e-25
1.6189742e-25
1.6189742e-25
1.6189529e-25
1.6189101e-25
1.6188473e-25
1.6187712e-25
1.6186995e-25
1.6186536e-25
1.6185544e-25
1.6178435e-25
1.6108824e-25
1.4585991e-25
1.4664355e-25
1.4711564e-25
1.4714216e-25
1.4715553e-25
1.4717043e-25
1.471845e-25
1.471957e-25
1.4720323e-25
1.4720698e-25
1.4720699e-25
1.4720323e-25
1.471957e-25
1.471845e-25
1.4717044e-25
1.4715554e-25
1.4714217e-25
1.4711565e-25
1.4664356e-25
1.4585991e-25
1.2490852e-25
1.2617234e-25
1.2676279e-25
1.267985e-25
1.2681848e-25
1.2683886e-25
1.2685727e-25
1.2687166e-25
1.2688128e-25
1.2688606e-25
1.2688606e-25
1.2688127e-25
1.2687166e-25
1.2685726e-25
1.2683887e-25
1.2681848e-25
1.267985e-25
1.267628e-25
1.2617235e-25
1.2490851e-25
9.965434e-26
1.008318e-25
1.0136326e-25
1.0140957e-25
1.014398e-25
1.0146653e-25
1.0148858e-25
1.0150487e-25
1.0151543e-25
1.015206e-25
1.015206e-25
1.0151543e-25
1.0150486e-25
1.0148857e-25
1.0146653e-25
1.014398e-25
1.0140957e-25
1.0136326e-25
1.008318e-25
9.9654328e-26
7.7400025e-26
7.8746792e-26
7.9168846e-26
7.9232648e-26
7.92766e-26
7.9311107e-26
7.9336662e-26
7.9354289e-26
7.9365263e-26
7.9370547e-26
7.9370546e-26
7.9365259e-26
7.9354283e-26
7.9336655e-26
7.9311102e-26
7.9276595e-26
7.9232644e-26
7.9168843e-26
7.8746788e-26
7.7400013e-26
5.1698082e-26
5.3501576e-26
5.3997351e-26
5.4074545e-26
5.4127503e-26
5.4165418e-26
5.4191076e-26
5.4207784e-26
5.4217755e-26
5.4222486e-26
5.4222485e-26
5.4217751e-26
5.4207778e-26
5.4191069e-26
5.4165412e-26
5.4127498e-26
5.407454e-26
5.3997348e-26
5.3501573e-26
5.1698073e-26
2.4651468e-26
2.5904781e-26
2.6253833e-26
2.6315813e-26
2.6356938e-26
2.6383493e-26
2.6399899e-26
2.6409982e-26
2.6415681e-26
2.6418388e-26
2.6418387e-26
2.6415678e-26
2.6409979e-26
2.6399895e-26
2.6383491e-26
2.6356936e-26
2.6315811e-26
2.6253834e-26
2.5904782e-26
2.4651466e-26
9.8011501e-27
1.0587238e-26
1.0788238e-26
1.08215e-26
1.0841776e-26
1.0853575e-26
1.0860208e-26
1.0863877e-26
1.0865766e-26
1.0866625e-26
1.0866625e-26
1.0865765e-26
1.0863876e-26
1.0860207e-26
1.0853575e-26
1.0841777e-26
1.0821501e-26
1.0788241e-26
1.0587242e-26
9.8011523e-27
3.020634e-27
3.612175e-27
3.7317264e-27
3.7358546e-27
3.7304653e-27
3.7258236e-27
3.7226347e-27
3.7205604e-27
3.7193008e-27
3.7186637e-27
3.7186634e-27
3.7193003e-27
3.7205598e-27
3.7226342e-27
3.7258238e-27
3.730466e-27
3.7358554e-27
3.7317279e-27
3.6121771e-27
3.0206365e-27
6.2478199e-28
1.0336474e-27
1.1330195e-27
1.140718e-27
1.1304837e-27
1.1193894e-27
1.1108607e-27
1.105079e-27
1.101577e-27
1.0998909e-27
1.0998908e-27
1.1015766e-27
1.1050785e-27
1.1108602e-27
1.1193893e-27
1.1304839e-27
1.1407184e-27
1.1330201e-27
1.0336483e-27
6.2478301e-28
8.5245233e-29
2.445616e-28
3.03628e-28
3.1535946e-28
3.1228974e-28
3.0611339e-28
3.004822e-28
2.9632447e-28
2.9368871e-28
2.9240396e-28
2.9240388e-28
2.9368848e-28
2.9632414e-28
3.0048191e-28
3.0611327e-28
3.1228979e-28
3.1535956e-28
3.0362816e-28
2.4456184e-28
8.5245404e-29
8.2853803e-30
4.8282973e-29
7.1947282e-29
7.9367497e-29
7.963271e-29
7.7638269e-29
7.5383506e-29
7.3569656e-29
7.2369372e-29
7.1774346e-29
7.1774309e-29
7.2369265e-29
7.3569513e-29
7.5383373e-29
7.7638197e-29
7.9632694e-29
7.9367512e-29
7.1947306e-29
4.8283013e-29
8.2853942e-30
6.2496801e-31
8.11041e-30
1.5172282e-29
1.8230957e-29
1.8810907e-29
1.8381938e-29
1.7709427e-29
1.7115993e-29
1.6706999e-29
1.6500925e-29
1.6500912e-29
1.6706961e-29
1.7115943e-29
1.7709379e-29
1.8381908e-29
1.8810893e-29
1.8230956e-29
1.5172283e-29
8.1104142e-30
6.2496851e-31
3.913613e-32
1.1847077e-30
2.8727185e-30
3.8348038e-30
4.1219461e-30
4.0694688e-30
3.907296e-30
3.7478117e-30
3.6332982e-30
3.5746892e-30
3.5746853e-30
3.6332868e-30
3.7477964e-30
3.9072814e-30
4.0694591e-30
4.1219408e-30
3.8348026e-30
2.8727179e-30
1.184708e-30
3.9136123e-32
2.1329666e-33
1.5358388e-31
4.929549e-31
7.417163e-31
8.3900839e-31
8.4268826e-31
8.0997443e-31
7.7310676e-31
7.4545474e-31
7.3107633e-31
7.3107527e-31
7.4545182e-31
7.7310268e-31
8.0997052e-31
8.4268548e-31
8.3900683e-31
7.4171595e-31
4.9295484e-31
1.535839e-31
2.1329653e-33
1.043313e-34
1.7971877e-32
7.7340674e-32
1.3250022e-31
1.5891913e-31
1.6328008e-31
1.5772663e-31
1.5020534e-31
1.4428518e-31
1.4115519e-31
1.4115494e-31
1.4428451e-31
1.5020438e-31
1.577257e-31
1.6327939e-31
1.5891877e-31
1.3250015e-31
7.7340687e-32
1.7971886e-32
1.0433127e-34
4.6692521e-36
1.9230297e-33
1.1178683e-32
2.1954992e-32
2.8069377e-32
2.9623429e-32
2.8850077e-32
2.7475204e-32
2.6332003e-32
2.5716688e-32
2.5716634e-32
2.6331859e-32
2.7474996e-32
2.8849874e-32
2.9623281e-32
2.8069303e-32
2.1954986e-32
1.1178693e-32
1.9230324e-33
4.6692561e-36
1.9352068e-37
1.8995477e-34
1.4977988e-33
3.3873756e-33
4.6332445e-33
5.0375181e-33
4.9580909e-33
4.7308041e-33
4.5294032e-33
4.4188727e-33
4.4188619e-33
4.5293752e-33
4.730763e-33
4.9580506e-33
5.0374893e-33
4.6332316e-33
3.3873763e-33
1.4978018e-33
1.8995534e-34
1.9352125e-37
7.4849345e-39
1.7440774e-35
1.869595e-34
4.8828199e-34
7.162674e-34
8.0394604e-34
8.0108117e-34
7.6691963e-34
7.3428528e-34
7.1598981e-34
7.1598793e-34
7.3428028e-34
7.6691225e-34
8.0107393e-34
8.039409e-34
7.1626534e-34
4.8828236e-34
1.8696013e-34
1.744086e-35
7.4849757e-39
2.7152107e-40
1.4959037e-36
2.1826344e-35
6.59506e-35
1.0392161e-34
1.2058179e-34
1.2179381e-34
1.1711566e-34
1.1222249e-34
1.0941433e-34
1.0941402e-34
1.1222165e-34
1.1711443e-34
1.217926e-34
1.2058095e-34
1.0392131e-34
6.5950699e-35
2.1826451e-35
1.4959143e-36
2.7152319e-40
9.2692647e-42
1.2030647e-37
2.390716e-36
8.3675872e-36
1.4178447e-35
1.7022728e-35
1.744375e-35
1.6860792e-35
1.6178718e-35
1.5777061e-35
1.5777011e-35
1.6178589e-35
1.6860602e-35
1.7443563e-35
1.7022602e-35
1.4178407e-35
8.3676069e-36
2.390732e-36
1.2030759e-37
9.2693568e-42
2.9851062e-43
9.098813e-39
2.4633143e-37
9.9947118e-37
1.8223827e-36
2.2652982e-36
2.3564267e-36
2.2907171e-36
2.2020043e-36
2.1482544e-36
2.1482473e-36
2.2019855e-36
2.2906895e-36
2.3563997e-36
2.265281e-36
1.822378e-36
9.9947443e-37
2.4633356e-37
9.0989175e-39
2.9851409e-43
9.0852829e-45
6.4865348e-40
2.3928341e-38
1.1260939e-37
2.2104507e-37
2.8458911e-37
3.006274e-37
2.9402338e-37
2.8322629e-37
2.7647473e-37
2.7647376e-37
2.8322373e-37
2.9401964e-37
3.0062379e-37
2.8458688e-37
2.2104455e-37
1.1260987e-37
2.3928595e-38
6.4866247e-40
9.0854045e-45
2.6171141e-46
4.3674842e-41
2.195504e-39
1.1988692e-38
2.5342164e-38
3.3801526e-38
3.6268732e-38
3.5696381e-38
3.4463927e-38
3.3665728e-38
3.3665604e-38
3.4463601e-38
3.5695906e-38
3.6268274e-38
3.3801256e-38
2.5342113e-38
1.1988757e-38
2.1955319e-39
4.3675556e-41
2.6171553e-46
7.1444001e-48
2.7821721e-42
1.9059714e-40
1.2079509e-39
2.7502476e-39
3.8008598e-39
4.1431162e-39
4.104145e-39
3.9719792e-39
3.8829583e-39
3.8829433e-39
3.9719403e-39
4.1040878e-39
4.1430615e-39
3.8008288e-39
2.7502429e-39
1.207959e-39
1.9059998e-40
2.7822256e-42
7.144531e-48
1.8504154e-49
1.6793067e-43
1.5678895e-41
1.1535456e-40
2.8292038e-40
4.0516055e-40
4.4870188e-40
4.4740089e-40
4.3406953e-40
4.2468553e-40
4.2468385e-40
4.3406509e-40
4.4739438e-40
4.486957e-40
4.0515713e-40
2.8291997e-40
1.1535546e-40
1.5679164e-41
1.6793441e-43
1.8504556e-49
4.5520009e-51
9.6175395e-45
1.2238457e-42
1.0454521e-41
2.762347e-41
4.0993226e-41
4.6126121e-41
4.6296859e-41
4.5031125e-41
4.4094614e-41
4.4094432e-41
4.5030647e-41
4.6296157e-41
4.6125459e-41
4.0992867e-41
2.7623435e-41
1.0454614e-41
1.2238693e-42
9.6177852e-45
4.5521192e-51
1.0646617e-52
5.2327263e-46
9.0759851e-44
9.0030123e-43
2.5629006e-42
3.9413373e-42
4.5059857e-42
4.5527206e-42
4.4395848e-42
4.3509752e-42
4.3509565e-42
4.4395356e-42
4.5526484e-42
4.5059176e-42
3.9413008e-42
2.5628971e-42
9.0031002e-43
9.076178e-44
5.2328773e-46
1.0646942e-52
2.3698733e-54
2.7078219e-47
6.4020029e-45
7.3752241e-44
2.2620684e-43
3.6049204e-43
4.1874859e-43
4.2590708e-43
4.163912e-43
4.0843291e-43
4.0843108e-43
4.1638636e-43
4.259e-43
4.1874194e-43
3.6048845e-43
2.2620648e-43
7.3753015e-44
6.4021502e-45
2.7079083e-47
2.3699557e-54
5.0253001e-56
1.3341341e-48
4.2998418e-46
5.7533178e-45
1.9012815e-44
3.1398603e-44
3.7057425e-44
3.7941652e-44
3.7189434e-44
3.6510262e-44
3.6510091e-44
3.7188982e-44
3.7940991e-44
3.7056806e-44
3.1398261e-44
1.9012774e-44
5.75338e-45
4.2999473e-46
1.3341804e-48
5.0254899e-56
1.0163203e-57
6.2645621e-50
2.7525007e-47
4.2779441e-46
1.5232371e-45
2.6067453e-45
3.1258206e-45
3.2216696e-45
3.1659202e-45
3.1107951e-45
3.1107799e-45
3.1658801e-45
3.2216106e-45
3.1257652e-45
2.606714e-45
1.5232324e-45
4.2779897e-46
2.7525706e-47
6.264795e-50
1.01634e-57
1.303318e-58
2.8059939e-51
1.680861e-48
3.0346706e-47
1.1642658e-46
2.0646298e-46
2.5153599e-46
2.6096844e-46
2.5711072e-46
2.5285216e-46
2.5285088e-46
2.571073e-46
2.6096341e-46
2.5153125e-46
2.0646023e-46
1.1642608e-46
3.0347013e-47
1.6809048e-48
2.8061039e-51
1.0654664e-58
6.5758673e-60
1.1999168e-52
9.8000199e-50
2.0554391e-48
8.4967912e-48
1.5613306e-47
1.9325764e-47
2.0183181e-47
1.9935718e-47
1.9622393e-47
1.962229e-47
1.9935441e-47
2.018277e-47
1.9325375e-47
1.5613075e-47
8.4967428e-48
2.0554579e-48
9.800275e-50
1.1999655e-52
5.0409049e-60
1.2893145e-61
4.9025283e-54
5.4594173e-51
1.3302829e-49
5.9252115e-49
1.128195e-48
1.418734e-48
1.4914644e-48
1.4769361e-48
1.454969e-48
1.4549611e-48
1.4769147e-48
1.4914323e-48
1.4187034e-48
1.1281764e-48
5.9251673e-49
1.3302929e-49
5.4595557e-51
4.9027294e-54
6.0273806e-62
1.1562474e-63
1.9151558e-55
2.9080195e-52
8.2325405e-51
3.950952e-50
7.7949403e-50
9.9585435e-50
1.0538058e-49
1.0461944e-49
1.0315127e-49
1.0315067e-49
1.0461785e-49
1.0537819e-49
9.9583136e-50
7.7947968e-50
3.9509146e-50
8.2325861e-51
2.9080897e-52
1.9152335e-55
5.1038513e-64
1.0095256e-65
7.1579568e-57
1.4820518e-53
4.8747776e-52
2.5207405e-51
5.1530012e-51
6.6880714e-51
7.123813e-51
7.0902852e-51
6.9967163e-51
6.9966729e-51
7.0901717e-51
7.1236426e-51
6.6879063e-51
5.1528955e-51
2.5207108e-51
4.8747923e-52
1.4820846e-53
7.1582376e-57
5.2159166e-66
1.1222668e-67
2.5611669e-58
7.2311122e-55
2.7635356e-53
1.5397159e-52
3.2612499e-52
4.300055e-52
4.610273e-52
4.6001676e-52
4.5432942e-52
4.5432645e-52
4.6000909e-52
4.6101568e-52
4.2999419e-52
3.2611758e-52
1.5396935e-52
2.7635357e-53
7.2312516e-55
2.5612608e-58
7.1416738e-68
1.7861868e-69
8.7779153e-60
3.3795745e-56
1.5007293e-54
9.0089885e-54
1.9770669e-53
2.6482099e-53
2.8578559e-53
2.8587733e-53
2.8258027e-53
2.8257832e-53
2.8587234e-53
2.8577805e-53
2.6481358e-53
1.9770171e-53
9.0088296e-54
1.5007239e-54
3.3796274e-56
8.7782067e-60
1.3845302e-69
3.5279912e-71
2.88317e-61
1.5137502e-57
7.8106082e-56
5.0518676e-55
1.148655e-54
1.5629813e-54
1.6977407e-54
1.7025493e-54
1.6843214e-54
1.6843093e-54
1.7025182e-54
1.6976935e-54
1.5629345e-54
1.1486229e-54
5.0517612e-55
7.8105481e-56
1.5137668e-57
2.8832526e-61
2.932775e-71
)
;

boundaryField
{
    Wall
    {
        type            zeroGradient;
    }
    frontAndBack
    {
        type            empty;
    }
    atmosphere
    {
        type            zeroGradient;
    }
}


// ************************************************************************* //
