/*--------------------------------*- C++ -*----------------------------------*\
| =========                 |                                                 |
| \\      /  F ield         | OpenFOAM: The Open Source CFD Toolbox           |
|  \\    /   O peration     | Version:  3.0.1                                 |
|   \\  /    A nd           | Web:      www.OpenFOAM.org                      |
|    \\/     M anipulation  |                                                 |
\*---------------------------------------------------------------------------*/
FoamFile
{
    version     2.0;
    format      ascii;
    class       volScalarField;
    location    "17";
    object      mOne;
}
// * * * * * * * * * * * * * * * * * * * * * * * * * * * * * * * * * * * * * //

dimensions      [0 0 0 0 0 0 0];

internalField   nonuniform List<scalar> 
800
(
5.0926904
5.0927481
5.0927204
5.0926996
5.0926839
5.0926713
5.0926619
5.0926551
5.0926507
5.0926486
5.0926486
5.0926507
5.0926551
5.0926619
5.0926714
5.0926839
5.0926996
5.0927204
5.0927481
5.0926904
4.7134678
4.7242045
4.7252833
4.7254837
4.7256006
4.72574
4.7258746
4.7259821
4.726054
4.7260898
4.7260898
4.726054
4.725982
4.7258746
4.72574
4.7256006
4.7254838
4.7252834
4.7242046
4.7134678
4.2426175
4.2566251
4.2631589
4.2636646
4.2639065
4.2641613
4.2643945
4.2645778
4.2647004
4.2647615
4.2647615
4.2647004
4.2645778
4.2643945
4.2641613
4.2639066
4.2636646
4.263159
4.2566252
4.2426174
3.6111414
3.6336234
3.6415444
3.6421396
3.6424519
3.6427653
3.6430428
3.6432571
3.6433988
3.643469
3.643469
3.6433988
3.643257
3.6430428
3.6427653
3.6424519
3.6421397
3.6415444
3.6336235
3.6111412
2.8943585
2.9199624
2.9272707
2.9280345
2.9284795
2.9288575
2.9291553
2.9293681
2.9295024
2.9295673
2.9295673
2.9295024
2.9293681
2.9291553
2.9288575
2.9284795
2.9280346
2.9272708
2.9199625
2.8943583
2.1920864
2.226002
2.2325514
2.2337985
2.2344924
2.2349652
2.2352786
2.2354685
2.23558
2.2356315
2.2356315
2.23558
2.2354685
2.2352786
2.2349653
2.2344925
2.2337987
2.2325516
2.2260021
2.1920864
1.4573833
1.5008012
1.5105299
1.5123417
1.5132761
1.5138004
1.5140946
1.5142446
1.5143237
1.5143547
1.5143547
1.5143237
1.5142446
1.5140946
1.5138005
1.5132763
1.5123419
1.5105301
1.5008014
1.4573834
0.79484634
0.82928076
0.83763852
0.83938465
0.84014936
0.84046913
0.84059126
0.84062955
0.8406358
0.84062934
0.84062934
0.84063578
0.84062953
0.84059129
0.84046922
0.84014952
0.83938485
0.83763875
0.82928105
0.79484659
0.38951409
0.4202049
0.42864978
0.43011562
0.43031074
0.43017798
0.42999876
0.4298612
0.42976633
0.42971041
0.4297104
0.42976632
0.42986117
0.42999879
0.43017809
0.4303109
0.43011584
0.42865001
0.42020518
0.38951437
0.16009966
0.19505351
0.20530957
0.2069644
0.20649785
0.20572051
0.20508044
0.20466008
0.20440526
0.2042751
0.20427507
0.20440523
0.20466002
0.20508044
0.20572057
0.20649796
0.20696456
0.20530972
0.19505369
0.16009988
0.048515897
0.082192544
0.093558532
0.09608969
0.09568626
0.094624536
0.09365195
0.092969596
0.092547542
0.092339178
0.092339151
0.092547499
0.092969518
0.093651917
0.094624557
0.095686317
0.096089782
0.093558608
0.082192643
0.048516002
0.010536853
0.030756913
0.03997179
0.042842305
0.042978522
0.042238886
0.041406231
0.040766573
0.040352835
0.040147192
0.040147169
0.040352794
0.0407665
0.041406188
0.042238882
0.042978543
0.042842349
0.039971821
0.030756952
0.010536881
0.0017098938
0.010165446
0.01585135
0.018169077
0.01860128
0.018268853
0.017757395
0.017325322
0.01703287
0.016885315
0.016885298
0.017032838
0.017325269
0.017757358
0.01826884
0.01860128
0.018169096
0.015851359
0.010165456
0.0017098985
0.00022129167
0.002981186
0.0058242962
0.0072938441
0.0077169096
0.0076271846
0.0073751807
0.0071389295
0.0069717719
0.0068860993
0.0068860891
0.0069717516
0.0071388963
0.0073751563
0.007627173
0.0077169033
0.0072938497
0.0058242975
0.0029811877
0.00022129223
2.4280421e-05
0.00078503406
0.001989489
0.0027703389
0.0030610874
0.0030650765
0.0029603932
0.0028493433
0.0027671572
0.002724386
0.0027243805
0.0027671459
0.0028493248
0.0029603789
0.0030650685
0.0030610815
0.00277034
0.0019894888
0.00078503405
2.428048e-05
2.3640186e-06
0.00018848965
0.00063566835
0.00099777137
0.0011608611
0.0011841117
0.001146847
0.0011004576
0.0010644395
0.0010454079
0.0010454052
0.0010644339
0.0011004483
0.0011468394
0.001184107
0.0011608572
0.00099777119
0.00063566819
0.00018848955
2.3640256e-06
2.1049254e-07
4.1893866e-05
0.00019137254
0.00034199929
0.00042145671
0.0004397903
0.00042858023
0.00041102405
0.00039664349
0.00038892435
0.00038892316
0.00039664089
0.00041101979
0.00042857656
0.00043978789
0.00042145467
0.00034199899
0.00019137249
4.1893834e-05
2.1049347e-07
1.7469693e-08
8.7324607e-06
5.468387e-05
0.00011202167
0.00014680361
0.00015718704
0.00015454442
0.00014845872
0.00014315347
0.00014025702
0.00014025652
0.00014315235
0.00014845689
0.00015454277
0.00015718591
0.00014680265
0.00011202148
5.4683861e-05
8.7324546e-06
1.7469811e-08
1.3678989e-09
1.725369e-06
1.4930255e-05
3.5206276e-05
4.9181655e-05
5.4142501e-05
5.3816602e-05
5.187468e-05
5.0049027e-05
4.9033206e-05
4.9033013e-05
5.0048566e-05
5.1873946e-05
5.3815913e-05
5.4142011e-05
4.9181248e-05
3.5206175e-05
1.4930256e-05
1.7253685e-06
1.3679125e-09
1.0186678e-10
3.2597095e-07
3.9176114e-06
1.0655672e-05
1.5886001e-05
1.800228e-05
1.8117025e-05
1.7547022e-05
1.6957269e-05
1.6621853e-05
1.6621783e-05
1.695709e-05
1.7546743e-05
1.8116754e-05
1.8002079e-05
1.5885841e-05
1.0655626e-05
3.9176123e-06
3.2597102e-07
1.0186818e-10
7.2565539e-12
5.9320221e-08
9.9275527e-07
3.1158125e-06
4.9584493e-06
5.7875942e-06
5.9029515e-06
5.7503474e-06
5.5707893e-06
5.4659676e-06
5.4659426e-06
5.5707232e-06
5.7502463e-06
5.9028495e-06
5.7875158e-06
4.9583903e-06
3.115794e-06
9.9275554e-07
5.9320256e-08
7.2566806e-12
4.9678722e-13
1.0463608e-08
2.439339e-07
8.8256916e-07
1.4984681e-06
1.8018082e-06
1.8635992e-06
1.8271851e-06
1.7755548e-06
1.7444337e-06
1.7444251e-06
1.7755314e-06
1.82715e-06
1.8635625e-06
1.8017791e-06
1.4984475e-06
8.8256225e-07
2.4393389e-07
1.0463616e-08
4.9679767e-13
3.2825782e-14
1.7987997e-09
5.8304713e-08
2.4268836e-07
4.391732e-07
5.4392354e-07
5.7066664e-07
5.6338603e-07
5.4936499e-07
5.4056446e-07
5.4056164e-07
5.4935701e-07
5.6337428e-07
5.7065401e-07
5.439132e-07
4.3916631e-07
2.4268595e-07
5.8304671e-08
1.7988007e-09
3.2826577e-14
2.1028346e-15
3.0278201e-10
1.3589685e-08
6.4894437e-08
1.2499712e-07
1.5939676e-07
1.696488e-07
1.6868293e-07
1.6509545e-07
1.6272156e-07
1.6272066e-07
1.6509284e-07
1.6867912e-07
1.6964462e-07
1.5939322e-07
1.249949e-07
6.4893642e-08
1.3589659e-08
3.02782e-10
2.1028914e-15
1.312668e-16
5.0092262e-11
3.094391e-09
1.6896147e-08
3.4587405e-08
4.5388704e-08
4.9000043e-08
4.9073988e-08
4.8214314e-08
4.7603223e-08
4.7602942e-08
4.8213489e-08
4.9072793e-08
4.8998703e-08
4.5387544e-08
3.4586711e-08
1.6895899e-08
3.09438e-09
5.0092207e-11
1.3127064e-16
8.0336343e-18
8.1682918e-12
6.8918934e-10
4.2875776e-09
9.3127144e-09
1.2568699e-08
1.3759854e-08
1.3880091e-08
1.3689512e-08
1.3539503e-08
1.3539417e-08
1.368926e-08
1.3879727e-08
1.3759438e-08
1.2568332e-08
9.3125026e-09
4.2875031e-09
6.891855e-10
8.1682709e-12
8.0338758e-18
4.8556977e-19
1.3152003e-12
1.5025627e-10
1.0611895e-09
2.4416902e-09
3.3869007e-09
3.7589198e-09
3.81873e-09
3.7806436e-09
3.7456092e-09
3.7455838e-09
3.7805688e-09
3.8186219e-09
3.758795e-09
3.3867884e-09
2.4416271e-09
1.0611679e-09
1.5025507e-10
1.3151943e-12
4.8558393e-19
2.9230006e-20
2.0926732e-13
3.2079927e-11
2.5630823e-10
6.2376985e-10
8.8867201e-10
9.994956e-10
1.0224532e-09
1.0160157e-09
1.0082669e-09
1.0082596e-09
1.0159941e-09
1.022422e-09
9.9945924e-10
8.8863885e-10
6.2375152e-10
2.5630215e-10
3.2079573e-11
2.0926583e-13
2.9230761e-20
1.7680375e-21
3.2903279e-14
6.7082071e-12
6.0436286e-11
1.5534787e-10
2.2716382e-10
2.5881499e-10
2.665459e-10
2.6581791e-10
2.6420877e-10
2.6420671e-10
2.6581188e-10
2.6653712e-10
2.588047e-10
2.2715436e-10
1.5534268e-10
6.0434631e-11
6.7081101e-12
3.2902944e-14
1.7680717e-21
1.0831919e-22
5.1087125e-15
1.3738808e-12
1.3916871e-11
3.7734422e-11
5.6599345e-11
6.5298496e-11
6.7687712e-11
6.773516e-11
6.7426507e-11
6.7425941e-11
6.7733512e-11
6.7685306e-11
6.5295669e-11
5.6596731e-11
3.7732986e-11
1.3916435e-11
1.3738556e-12
5.1086421e-15
1.0832019e-22
7.6799957e-24
7.8245556e-16
2.7556537e-13
3.1305397e-12
8.9435999e-12
1.3751991e-11
1.6059567e-11
1.6751909e-11
1.6818738e-11
1.6765927e-11
1.6765775e-11
1.6818301e-11
1.6751267e-11
1.6058814e-11
1.3751292e-11
8.9432137e-12
3.1304272e-12
2.7555914e-13
7.8244159e-16
7.6379712e-24
9.7424896e-25
1.1807543e-16
5.4123882e-14
6.8809631e-13
2.0692514e-12
3.2599088e-12
3.8520616e-12
4.0424678e-12
4.0712904e-12
4.0639474e-12
4.0639081e-12
4.0711778e-12
4.0423013e-12
3.8518659e-12
3.2597271e-12
2.0691504e-12
6.8806814e-13
5.4122394e-14
1.1807277e-16
9.3856897e-25
1.653453e-24
1.7534652e-17
1.0408962e-14
1.4782624e-13
4.6754353e-13
7.542823e-13
9.0155994e-13
9.5163849e-13
9.6127269e-13
9.6074837e-13
9.6073847e-13
9.6124441e-13
9.5159644e-13
9.0151056e-13
7.5423652e-13
4.6751785e-13
1.4781936e-13
1.0408621e-14
1.7534166e-17
1.2635298e-24
3.3367749e-25
2.5598716e-18
1.960045e-15
3.1049285e-14
1.0320971e-13
1.7043341e-13
2.0599334e-13
2.1865512e-13
2.2149221e-13
2.2163357e-13
2.2163116e-13
2.2148531e-13
2.1864477e-13
2.0598121e-13
1.7042219e-13
1.0320338e-13
3.1047651e-14
1.9599689e-15
2.5597854e-18
2.3968229e-25
2.1201749e-26
3.6707324e-19
3.6138975e-16
6.3779744e-15
2.2268561e-14
3.7624682e-14
4.5971182e-14
4.9060423e-14
4.983022e-14
4.9917514e-14
4.991694e-14
4.9828578e-14
4.9057945e-14
4.5968278e-14
3.7622006e-14
2.2267045e-14
6.3775959e-15
3.6137327e-16
3.6705832e-19
1.0764982e-26
9.3741421e-28
5.1668055e-20
6.5249031e-17
1.2817003e-15
4.698098e-15
8.1188421e-15
1.0025581e-14
1.0754995e-14
1.095158e-14
1.0982248e-14
1.0982114e-14
1.0951199e-14
1.0754417e-14
1.0024905e-14
8.1182206e-15
4.6977447e-15
1.2816149e-15
6.5245564e-17
5.1665537e-20
5.9157605e-28
5.5484658e-29
7.1356659e-21
1.1537794e-17
2.5206468e-16
9.6961012e-16
1.7132661e-15
2.1376781e-15
2.3047292e-15
2.3525449e-15
2.3614579e-15
2.3614275e-15
2.3524586e-15
2.3045979e-15
2.1375245e-15
1.7131254e-15
9.6953005e-16
2.520459e-16
1.1537082e-17
7.1352512e-21
3.8725038e-29
3.3740233e-30
9.6666164e-22
1.998508e-18
4.8530552e-17
1.9584178e-16
3.5372918e-16
4.4586169e-16
4.8303969e-16
4.9420005e-16
4.9653353e-16
4.9652682e-16
4.9418102e-16
4.8301062e-16
4.4582769e-16
3.5369808e-16
1.9582408e-16
4.8526522e-17
1.9983656e-18
9.6659492e-22
2.3701723e-30
1.8606615e-31
1.2843708e-22
3.3917679e-19
9.1507708e-18
3.8728896e-17
7.1488641e-17
9.1011745e-17
9.9064772e-17
1.0157708e-16
1.0214631e-16
1.0214487e-16
1.0157297e-16
9.9058496e-17
9.1004397e-17
7.1481928e-17
3.8725083e-17
9.1499252e-18
3.3914894e-19
1.2842661e-22
1.2799137e-31
9.1193599e-33
1.6737204e-23
5.6415982e-20
1.6904611e-18
7.5019601e-18
1.4149008e-17
1.8190538e-17
1.9890529e-17
2.0437963e-17
2.0569578e-17
2.0569275e-17
2.0437098e-17
1.9889204e-17
1.8188984e-17
1.4147591e-17
7.5011583e-18
1.6902879e-18
5.6410665e-20
1.6735602e-23
6.1159981e-33
)
;

boundaryField
{
    Wall
    {
        type            zeroGradient;
    }
    frontAndBack
    {
        type            empty;
    }
    atmosphere
    {
        type            zeroGradient;
    }
}


// ************************************************************************* //
