/*--------------------------------*- C++ -*----------------------------------*\
| =========                 |                                                 |
| \\      /  F ield         | OpenFOAM: The Open Source CFD Toolbox           |
|  \\    /   O peration     | Version:  3.0.1                                 |
|   \\  /    A nd           | Web:      www.OpenFOAM.org                      |
|    \\/     M anipulation  |                                                 |
\*---------------------------------------------------------------------------*/
FoamFile
{
    version     2.0;
    format      ascii;
    class       volScalarField;
    location    "17";
    object      mThree;
}
// * * * * * * * * * * * * * * * * * * * * * * * * * * * * * * * * * * * * * //

dimensions      [0 0 0 0 0 0 0];

internalField   nonuniform List<scalar> 
800
(
1.1285747e-24
1.1286481e-24
1.1286379e-24
1.1286276e-24
1.1286197e-24
1.1286135e-24
1.1286088e-24
1.1286054e-24
1.1286032e-24
1.1286021e-24
1.1286021e-24
1.1286032e-24
1.1286054e-24
1.1286088e-24
1.1286135e-24
1.1286197e-24
1.1286276e-24
1.1286379e-24
1.1286481e-24
1.1285747e-24
9.2037249e-25
9.2608667e-25
9.2666822e-25
9.2675746e-25
9.2680268e-25
9.268663e-25
9.2693165e-25
9.2698505e-25
9.2702116e-25
9.2703916e-25
9.2703917e-25
9.2702116e-25
9.2698504e-25
9.2693165e-25
9.2686632e-25
9.2680271e-25
9.2675752e-25
9.2666829e-25
9.2608672e-25
9.2037248e-25
7.6468772e-25
7.7085015e-25
7.74293e-25
7.74507e-25
7.7461296e-25
7.7472889e-25
7.7483725e-25
7.749232e-25
7.7498088e-25
7.7500967e-25
7.7500968e-25
7.7498088e-25
7.749232e-25
7.7483726e-25
7.7472892e-25
7.74613e-25
7.7450706e-25
7.7429307e-25
7.7085021e-25
7.646877e-25
5.7597083e-25
5.8463513e-25
5.8837513e-25
5.8861632e-25
5.887487e-25
5.8888308e-25
5.8900372e-25
5.8909774e-25
5.8916036e-25
5.8919149e-25
5.8919149e-25
5.8916035e-25
5.8909772e-25
5.8900371e-25
5.8888309e-25
5.8874872e-25
5.8861635e-25
5.8837517e-25
5.8463515e-25
5.7597078e-25
3.8808972e-25
3.9525688e-25
3.9808097e-25
3.983403e-25
3.9850418e-25
3.9864755e-25
3.9876438e-25
3.9885e-25
3.9890513e-25
3.9893203e-25
3.9893203e-25
3.9890512e-25
3.9884997e-25
3.9876436e-25
3.9864755e-25
3.9850418e-25
3.983403e-25
3.9808098e-25
3.9525688e-25
3.8808966e-25
2.4706757e-25
2.5403731e-25
2.5591737e-25
2.5622242e-25
2.5641956e-25
2.5656867e-25
2.5667621e-25
2.567483e-25
2.5679266e-25
2.5681384e-25
2.5681384e-25
2.5679264e-25
2.5674828e-25
2.5667618e-25
2.5656866e-25
2.5641955e-25
2.5622242e-25
2.5591737e-25
2.540373e-25
2.4706753e-25
1.27042e-25
1.3379681e-25
1.3556197e-25
1.3585374e-25
1.3603736e-25
1.3616105e-25
1.3624149e-25
1.3629163e-25
1.3632099e-25
1.3633456e-25
1.3633456e-25
1.3632097e-25
1.3629161e-25
1.3624147e-25
1.3616104e-25
1.3603735e-25
1.3585373e-25
1.3556197e-25
1.3379681e-25
1.2704199e-25
4.4245597e-26
4.7387117e-26
4.8245056e-26
4.8404902e-26
4.8500703e-26
4.8558005e-26
4.8591423e-26
4.8610994e-26
4.8621647e-26
4.8626459e-26
4.8626458e-26
4.8621643e-26
4.8610987e-26
4.8591417e-26
4.8558003e-26
4.8500704e-26
4.8404905e-26
4.8245063e-26
4.7387127e-26
4.42456e-26
1.3618836e-26
1.5036048e-26
1.5412614e-26
1.5475996e-26
1.5507109e-26
1.5522544e-26
1.5530084e-26
1.5533836e-26
1.5535506e-26
1.5536127e-26
1.5536127e-26
1.5535504e-26
1.5533834e-26
1.5530082e-26
1.5522545e-26
1.5507112e-26
1.5476e-26
1.541262e-26
1.5036055e-26
1.3618842e-26
3.5042365e-27
4.3167424e-27
4.4978856e-27
4.5090435e-27
4.5007983e-27
4.4923019e-27
4.4860742e-27
4.4820106e-27
4.4795454e-27
4.478294e-27
4.4782937e-27
4.4795447e-27
4.4820096e-27
4.4860736e-27
4.4923024e-27
4.5007997e-27
4.5090451e-27
4.4978879e-27
4.3167456e-27
3.5042401e-27
6.5509385e-28
1.1186055e-27
1.2390232e-27
1.2503292e-27
1.2386554e-27
1.2253111e-27
1.2148949e-27
1.2078178e-27
1.2035252e-27
1.2014539e-27
1.2014537e-27
1.2035247e-27
1.2078171e-27
1.2148944e-27
1.2253111e-27
1.2386558e-27
1.2503297e-27
1.2390239e-27
1.1186066e-27
6.5509499e-28
8.6143449e-29
2.5208356e-28
3.1576456e-28
3.2887018e-28
3.2571149e-28
3.1904328e-28
3.1292403e-28
3.0840461e-28
3.0553988e-28
3.0414316e-28
3.0414307e-28
3.0553963e-28
3.0840424e-28
3.1292372e-28
3.1904315e-28
3.2571155e-28
3.2887031e-28
3.1576474e-28
2.5208382e-28
8.6143624e-29
8.2995474e-30
4.8773791e-29
7.3087743e-29
8.0809531e-29
8.111398e-29
7.9056631e-29
7.6722121e-29
7.4844274e-29
7.360203e-29
7.2986278e-29
7.298624e-29
7.3601919e-29
7.4844124e-29
7.6721983e-29
7.9056557e-29
8.1113965e-29
8.0809547e-29
7.3087769e-29
4.8773832e-29
8.2995614e-30
6.2510631e-31
8.1345887e-30
1.526065e-29
1.8363931e-29
1.8956069e-29
1.852214e-29
1.7840038e-29
1.7238183e-29
1.6823476e-29
1.6614552e-29
1.6614539e-29
1.6823437e-29
1.7238132e-29
1.7839989e-29
1.852211e-29
1.8956055e-29
1.836393e-29
1.5260651e-29
8.1345929e-30
6.2510681e-31
3.913708e-32
1.1856378e-30
2.8784337e-30
3.8454275e-30
4.1345638e-30
4.0819421e-30
3.9188632e-30
3.7584905e-30
3.6433521e-30
3.5844281e-30
3.5844241e-30
3.6433407e-30
3.7584751e-30
3.9188484e-30
4.0819323e-30
4.1345584e-30
3.8454263e-30
2.8784332e-30
1.185638e-30
3.9137073e-32
2.1329717e-33
1.5361282e-31
4.9326826e-31
7.4245636e-31
8.3998236e-31
8.4368609e-31
8.1090334e-31
7.7395753e-31
7.4624823e-31
7.318406e-31
7.3183954e-31
7.4624531e-31
7.7395343e-31
8.1089943e-31
8.4368331e-31
8.399808e-31
7.4245601e-31
4.9326819e-31
1.5361285e-31
2.1329703e-33
1.0433132e-34
1.797263e-32
7.7355475e-32
1.3254553e-31
1.5898611e-31
1.6335189e-31
1.5779423e-31
1.5026708e-31
1.4434241e-31
1.4121009e-31
1.4120984e-31
1.4434174e-31
1.5026611e-31
1.577933e-31
1.633512e-31
1.5898575e-31
1.3254547e-31
7.7355488e-32
1.7972639e-32
1.0433129e-34
4.6692521e-36
1.9230464e-33
1.1179295e-32
2.1957452e-32
2.8073498e-32
2.9628085e-32
2.8854535e-32
2.7479283e-32
2.6335772e-32
2.5720295e-32
2.5720241e-32
2.6335628e-32
2.7479074e-32
2.8854332e-32
2.9627937e-32
2.8073423e-32
2.1957446e-32
1.1179305e-32
1.9230492e-33
4.6692562e-36
1.9352068e-37
1.899551e-34
1.4978212e-33
3.3874949e-33
4.6334724e-33
5.0377909e-33
4.9583577e-33
4.7310495e-33
4.5296299e-33
4.4190894e-33
4.4190786e-33
4.5296019e-33
4.7310084e-33
4.9583174e-33
5.037762e-33
4.6334595e-33
3.3874955e-33
1.4978241e-33
1.8995567e-34
1.9352125e-37
7.4849345e-39
1.744078e-35
1.8696023e-34
4.8828719e-34
7.1627878e-34
8.0396052e-34
8.0109569e-34
7.6693309e-34
7.3429773e-34
7.1600171e-34
7.1599983e-34
7.3429273e-34
7.669257e-34
8.0108844e-34
8.0395538e-34
7.1627672e-34
4.8828757e-34
1.8696086e-34
1.7440866e-35
7.4849757e-39
2.7152107e-40
1.4959038e-36
2.1826365e-35
6.5950805e-35
1.0392213e-34
1.2058249e-34
1.2179453e-34
1.1711633e-34
1.1222311e-34
1.0941493e-34
1.0941462e-34
1.1222228e-34
1.171151e-34
1.2179332e-34
1.2058165e-34
1.0392183e-34
6.5950905e-35
2.1826473e-35
1.4959144e-36
2.7152319e-40
9.2692647e-42
1.2030647e-37
2.3907165e-36
8.3675946e-36
1.4178468e-35
1.7022758e-35
1.7443782e-35
1.6860822e-35
1.6178747e-35
1.5777088e-35
1.5777039e-35
1.6178618e-35
1.6860632e-35
1.7443595e-35
1.7022633e-35
1.4178428e-35
8.3676143e-36
2.3907326e-36
1.2030759e-37
9.2693568e-42
2.9851062e-43
9.098813e-39
2.4633144e-37
9.9947142e-37
1.8223835e-36
2.2652995e-36
2.356428e-36
2.2907184e-36
2.2020055e-36
2.1482555e-36
2.1482484e-36
2.2019868e-36
2.2906908e-36
2.3564011e-36
2.2652822e-36
1.8223788e-36
9.9947467e-37
2.4633357e-37
9.0989175e-39
2.9851409e-43
9.0852829e-45
6.4865348e-40
2.3928342e-38
1.126094e-37
2.210451e-37
2.8458916e-37
3.0062745e-37
2.9402343e-37
2.8322633e-37
2.7647478e-37
2.7647381e-37
2.8322378e-37
2.9401969e-37
3.0062384e-37
2.8458693e-37
2.2104458e-37
1.1260988e-37
2.3928595e-38
6.4866247e-40
9.0854045e-45
2.6171141e-46
4.3674842e-41
2.195504e-39
1.1988692e-38
2.5342165e-38
3.3801527e-38
3.6268734e-38
3.5696383e-38
3.4463929e-38
3.366573e-38
3.3665606e-38
3.4463603e-38
3.5695907e-38
3.6268276e-38
3.3801258e-38
2.5342114e-38
1.1988758e-38
2.1955319e-39
4.3675556e-41
2.6171553e-46
7.1444001e-48
2.7821721e-42
1.9059714e-40
1.2079509e-39
2.7502476e-39
3.8008599e-39
4.1431163e-39
4.1041451e-39
3.9719792e-39
3.8829584e-39
3.8829434e-39
3.9719404e-39
4.1040878e-39
4.1430615e-39
3.8008288e-39
2.750243e-39
1.207959e-39
1.9059998e-40
2.7822256e-42
7.144531e-48
1.8504154e-49
1.6793067e-43
1.5678895e-41
1.1535456e-40
2.8292038e-40
4.0516055e-40
4.4870188e-40
4.4740089e-40
4.3406953e-40
4.2468553e-40
4.2468385e-40
4.3406509e-40
4.4739438e-40
4.486957e-40
4.0515713e-40
2.8291997e-40
1.1535546e-40
1.5679164e-41
1.6793441e-43
1.8504556e-49
4.5520009e-51
9.6175395e-45
1.2238457e-42
1.0454521e-41
2.762347e-41
4.0993226e-41
4.6126121e-41
4.629686e-41
4.5031125e-41
4.4094614e-41
4.4094432e-41
4.5030647e-41
4.6296157e-41
4.6125459e-41
4.0992867e-41
2.7623435e-41
1.0454614e-41
1.2238693e-42
9.6177852e-45
4.5521192e-51
1.0646617e-52
5.2327263e-46
9.0759851e-44
9.0030123e-43
2.5629006e-42
3.9413373e-42
4.5059857e-42
4.5527206e-42
4.4395848e-42
4.3509752e-42
4.3509565e-42
4.4395356e-42
4.5526484e-42
4.5059176e-42
3.9413008e-42
2.5628971e-42
9.0031002e-43
9.076178e-44
5.2328773e-46
1.0646942e-52
2.3698733e-54
2.7078219e-47
6.4020029e-45
7.3752241e-44
2.2620684e-43
3.6049204e-43
4.1874859e-43
4.2590708e-43
4.163912e-43
4.0843291e-43
4.0843108e-43
4.1638636e-43
4.259e-43
4.1874194e-43
3.6048845e-43
2.2620648e-43
7.3753015e-44
6.4021502e-45
2.7079083e-47
2.3699557e-54
5.0253001e-56
1.3341341e-48
4.2998418e-46
5.7533178e-45
1.9012815e-44
3.1398603e-44
3.7057425e-44
3.7941652e-44
3.7189434e-44
3.6510262e-44
3.6510091e-44
3.7188982e-44
3.7940991e-44
3.7056806e-44
3.1398261e-44
1.9012774e-44
5.75338e-45
4.2999473e-46
1.3341804e-48
5.0254899e-56
1.0163203e-57
6.2645621e-50
2.7525007e-47
4.2779441e-46
1.5232371e-45
2.6067453e-45
3.1258206e-45
3.2216696e-45
3.1659202e-45
3.1107951e-45
3.1107799e-45
3.1658801e-45
3.2216106e-45
3.1257652e-45
2.606714e-45
1.5232324e-45
4.2779897e-46
2.7525706e-47
6.264795e-50
1.01634e-57
1.303318e-58
2.8059939e-51
1.680861e-48
3.0346706e-47
1.1642658e-46
2.0646298e-46
2.5153599e-46
2.6096844e-46
2.5711072e-46
2.5285216e-46
2.5285088e-46
2.571073e-46
2.6096341e-46
2.5153125e-46
2.0646023e-46
1.1642608e-46
3.0347013e-47
1.6809048e-48
2.8061039e-51
1.0654664e-58
6.5758673e-60
1.1999168e-52
9.8000199e-50
2.0554391e-48
8.4967912e-48
1.5613306e-47
1.9325764e-47
2.0183181e-47
1.9935718e-47
1.9622393e-47
1.962229e-47
1.9935441e-47
2.018277e-47
1.9325375e-47
1.5613075e-47
8.4967428e-48
2.0554579e-48
9.800275e-50
1.1999655e-52
5.0409049e-60
1.2893145e-61
4.9025283e-54
5.4594173e-51
1.3302829e-49
5.9252115e-49
1.128195e-48
1.418734e-48
1.4914644e-48
1.4769361e-48
1.454969e-48
1.4549611e-48
1.4769147e-48
1.4914323e-48
1.4187034e-48
1.1281764e-48
5.9251673e-49
1.3302929e-49
5.4595557e-51
4.9027294e-54
6.0273806e-62
1.1562474e-63
1.9151558e-55
2.9080195e-52
8.2325405e-51
3.950952e-50
7.7949403e-50
9.9585435e-50
1.0538058e-49
1.0461944e-49
1.0315127e-49
1.0315067e-49
1.0461785e-49
1.0537819e-49
9.9583136e-50
7.7947968e-50
3.9509146e-50
8.2325861e-51
2.9080897e-52
1.9152335e-55
5.1038513e-64
1.0095256e-65
7.1579568e-57
1.4820518e-53
4.8747776e-52
2.5207405e-51
5.1530012e-51
6.6880714e-51
7.123813e-51
7.0902852e-51
6.9967163e-51
6.9966729e-51
7.0901717e-51
7.1236426e-51
6.6879063e-51
5.1528955e-51
2.5207108e-51
4.8747923e-52
1.4820846e-53
7.1582376e-57
5.2159166e-66
1.1222668e-67
2.5611669e-58
7.2311122e-55
2.7635356e-53
1.5397159e-52
3.2612499e-52
4.300055e-52
4.610273e-52
4.6001676e-52
4.5432942e-52
4.5432645e-52
4.6000909e-52
4.6101568e-52
4.2999419e-52
3.2611758e-52
1.5396935e-52
2.7635357e-53
7.2312516e-55
2.5612608e-58
7.1416738e-68
1.7861868e-69
8.7779153e-60
3.3795745e-56
1.5007293e-54
9.0089885e-54
1.9770669e-53
2.6482099e-53
2.8578559e-53
2.8587733e-53
2.8258027e-53
2.8257832e-53
2.8587234e-53
2.8577805e-53
2.6481358e-53
1.9770171e-53
9.0088296e-54
1.5007239e-54
3.3796274e-56
8.7782067e-60
1.3845302e-69
3.5279912e-71
2.88317e-61
1.5137502e-57
7.8106082e-56
5.0518676e-55
1.148655e-54
1.5629813e-54
1.6977407e-54
1.7025493e-54
1.6843214e-54
1.6843093e-54
1.7025182e-54
1.6976935e-54
1.5629345e-54
1.1486229e-54
5.0517612e-55
7.8105481e-56
1.5137668e-57
2.8832526e-61
2.932775e-71
)
;

boundaryField
{
    Wall
    {
        type            zeroGradient;
    }
    frontAndBack
    {
        type            empty;
    }
    atmosphere
    {
        type            zeroGradient;
    }
}


// ************************************************************************* //
