/*--------------------------------*- C++ -*----------------------------------*\
| =========                 |                                                 |
| \\      /  F ield         | OpenFOAM: The Open Source CFD Toolbox           |
|  \\    /   O peration     | Version:  3.0.1                                 |
|   \\  /    A nd           | Web:      www.OpenFOAM.org                      |
|    \\/     M anipulation  |                                                 |
\*---------------------------------------------------------------------------*/
FoamFile
{
    version     2.0;
    format      ascii;
    class       volScalarField;
    location    "17";
    object      mTwo;
}
// * * * * * * * * * * * * * * * * * * * * * * * * * * * * * * * * * * * * * //

dimensions      [0 0 0 0 0 0 0];

internalField   nonuniform List<scalar> 
800
(
2.5894352e-12
2.5894937e-12
2.5894654e-12
2.5894442e-12
2.5894282e-12
2.5894154e-12
2.5894059e-12
2.589399e-12
2.5893945e-12
2.5893923e-12
2.5893923e-12
2.5893945e-12
2.5893989e-12
2.5894059e-12
2.5894155e-12
2.5894282e-12
2.5894443e-12
2.5894655e-12
2.5894937e-12
2.5894353e-12
2.2328481e-12
2.2424483e-12
2.2434099e-12
2.2435774e-12
2.2436717e-12
2.2437904e-12
2.2439075e-12
2.2440018e-12
2.2440652e-12
2.2440967e-12
2.2440967e-12
2.2440652e-12
2.2440018e-12
2.2439075e-12
2.2437904e-12
2.2436717e-12
2.2435775e-12
2.24341e-12
2.2424484e-12
2.2328481e-12
1.9146405e-12
1.925808e-12
1.9312609e-12
1.9316585e-12
1.9318615e-12
1.9320753e-12
1.9322711e-12
1.9324251e-12
1.932528e-12
1.9325793e-12
1.9325793e-12
1.932528e-12
1.9324251e-12
1.9322711e-12
1.9320753e-12
1.9318615e-12
1.9316586e-12
1.931261e-12
1.9258081e-12
1.9146404e-12
1.5295151e-12
1.5456493e-12
1.5518972e-12
1.552358e-12
1.5526166e-12
1.5528726e-12
1.5530985e-12
1.553273e-12
1.5533886e-12
1.5534459e-12
1.5534459e-12
1.5533886e-12
1.553273e-12
1.5530985e-12
1.5528726e-12
1.5526166e-12
1.5523581e-12
1.5518973e-12
1.5456494e-12
1.529515e-12
1.1291822e-12
1.1444447e-12
1.1496514e-12
1.1501866e-12
1.1505228e-12
1.1508126e-12
1.1510451e-12
1.1512139e-12
1.1513218e-12
1.1513743e-12
1.1513743e-12
1.1513218e-12
1.1512138e-12
1.151045e-12
1.1508126e-12
1.1505228e-12
1.1501866e-12
1.1496514e-12
1.1444447e-12
1.1291821e-12
7.8909091e-13
8.0603112e-13
8.0999593e-13
8.1070664e-13
8.1114834e-13
8.1147302e-13
8.1170208e-13
8.1185218e-13
8.1194357e-13
8.1198694e-13
8.1198693e-13
8.1194355e-13
8.1185214e-13
8.1170205e-13
8.11473e-13
8.1114834e-13
8.1070665e-13
8.0999595e-13
8.0603114e-13
7.8909084e-13
4.6812743e-13
4.8690638e-13
4.9150847e-13
4.923255e-13
4.9280837e-13
4.9311773e-13
4.9331181e-13
4.9342795e-13
4.9349468e-13
4.9352473e-13
4.9352472e-13
4.9349465e-13
4.9342791e-13
4.9331178e-13
4.9311771e-13
4.9280837e-13
4.9232551e-13
4.915085e-13
4.8690641e-13
4.6812741e-13
2.1279645e-13
2.2422996e-13
2.271513e-13
2.277442e-13
2.2806772e-13
2.2824543e-13
2.2834149e-13
2.2839362e-13
2.2842034e-13
2.2843129e-13
2.2843129e-13
2.2842032e-13
2.283936e-13
2.2834147e-13
2.2824543e-13
2.2806774e-13
2.2774423e-13
2.2715135e-13
2.2423001e-13
2.1279648e-13
8.8259986e-14
9.5788816e-14
9.7762774e-14
9.8094166e-14
9.8199846e-14
9.8229542e-14
9.8232747e-14
9.8229163e-14
9.8224192e-14
9.8220143e-14
9.822014e-14
9.8224185e-14
9.8229152e-14
9.8232745e-14
9.8229554e-14
9.8199871e-14
9.8094197e-14
9.7762813e-14
9.5788866e-14
8.8260027e-14
3.1349519e-14
3.8115367e-14
3.9862827e-14
4.0057414e-14
3.9959948e-14
3.983859e-14
3.9745274e-14
3.9684469e-14
3.9647989e-14
3.9629483e-14
3.9629479e-14
3.9647983e-14
3.9684458e-14
3.974527e-14
3.9838598e-14
3.9959964e-14
4.0057434e-14
3.9862849e-14
3.8115396e-14
3.1349552e-14
8.3493424e-15
1.3996494e-14
1.5718289e-14
1.6013222e-14
1.5903601e-14
1.5726528e-14
1.5576673e-14
1.5473049e-14
1.5409656e-14
1.5378675e-14
1.5378671e-14
1.5409649e-14
1.5473038e-14
1.5576667e-14
1.5726529e-14
1.5903607e-14
1.6013233e-14
1.57183e-14
1.3996507e-14
8.3493568e-15
1.6177669e-15
4.6126028e-15
5.8845893e-15
6.2287964e-15
6.2131428e-15
6.0969434e-15
5.978308e-15
5.888727e-15
5.8313644e-15
5.8030722e-15
5.8030696e-15
5.8313588e-15
5.888718e-15
5.9783019e-15
6.0969422e-15
6.213145e-15
6.228801e-15
5.884593e-15
4.6126075e-15
1.6177703e-15
2.3718437e-16
1.3536772e-15
2.0633435e-15
2.3277045e-15
2.363165e-15
2.3135562e-15
2.2475419e-15
2.1929397e-15
2.1563674e-15
2.1380314e-15
2.1380297e-15
2.1563637e-15
2.1929339e-15
2.2475377e-15
2.3135546e-15
2.3631651e-15
2.3277063e-15
2.0633444e-15
1.3536783e-15
2.3718483e-16
2.8018027e-17
3.5515213e-16
6.7479232e-16
8.2940498e-16
8.6835127e-16
8.5425326e-16
8.2479894e-16
7.9791324e-16
7.7910933e-16
7.6952424e-16
7.695233e-16
7.7910726e-16
7.9791007e-16
8.2479651e-16
8.5425211e-16
8.6835085e-16
8.2940556e-16
6.7479253e-16
3.5515234e-16
2.8018067e-17
2.8296442e-18
8.4226835e-17
2.0618493e-16
2.8108211e-16
3.0686994e-16
3.0547779e-16
2.9432683e-16
2.829124e-16
2.7457485e-16
2.702566e-16
2.7025614e-16
2.7457384e-16
2.8291082e-16
2.9432559e-16
3.0547713e-16
3.0686958e-16
2.8108229e-16
2.0618496e-16
8.422686e-17
2.829647e-18
2.5538397e-19
1.8311682e-17
5.9143107e-17
9.0664587e-17
1.041183e-16
1.0549612e-16
1.0183458e-16
9.7508004e-17
9.4199691e-17
9.2459134e-17
9.2458928e-17
9.4199251e-17
9.7507293e-17
1.0183401e-16
1.0549578e-16
1.0411809e-16
9.0664643e-17
5.9143128e-17
1.8311686e-17
2.5538427e-19
2.1205638e-20
3.6991515e-18
1.6021851e-17
2.7902165e-17
3.3922735e-17
3.5144829e-17
3.4104972e-17
3.2611123e-17
3.1409937e-17
3.0767794e-17
3.076771e-17
3.1409757e-17
3.2610828e-17
3.4104727e-17
3.5144681e-17
3.3922635e-17
2.7902182e-17
1.6021864e-17
3.6991533e-18
2.1205687e-20
1.6495652e-21
7.0216361e-19
4.1238875e-18
8.2188456e-18
1.0626889e-17
1.1294978e-17
1.1049435e-17
1.0573982e-17
1.0169167e-17
9.9490968e-18
9.9490648e-18
1.0169098e-17
1.0573867e-17
1.1049337e-17
1.1294918e-17
1.0626846e-17
8.218851e-18
4.1238937e-18
7.0216449e-19
1.6495724e-21
1.2156232e-22
1.2633894e-19
1.0141102e-18
2.3248923e-18
3.206859e-18
3.5049244e-18
3.4638413e-18
3.3234253e-18
3.1955662e-18
3.1247898e-18
3.1247784e-18
3.1955408e-18
3.3233836e-18
3.4638049e-18
3.5049018e-18
3.206843e-18
2.3248938e-18
1.0141128e-18
1.2633927e-19
1.2156322e-22
8.5464261e-24
2.1694022e-20
2.3941291e-19
6.3358084e-19
9.3414508e-19
1.0514894e-18
1.0514796e-18
1.0129119e-18
9.7481067e-19
9.5329465e-19
9.5329088e-19
9.748019e-19
1.0128975e-18
1.0514668e-18
1.0514813e-18
9.3413935e-19
6.3358113e-19
2.394138e-19
2.1694112e-20
8.5465218e-24
5.7585783e-25
3.5742548e-21
5.448911e-20
1.6683312e-19
2.6321822e-19
3.0543346e-19
3.0940831e-19
2.995804e-19
2.8881903e-19
2.8260335e-19
2.8260213e-19
2.8881611e-19
2.995757e-19
3.0940401e-19
3.0543067e-19
2.632163e-19
1.6683313e-19
5.4489381e-20
3.5742756e-21
5.7586654e-25
3.7305657e-26
5.6757833e-22
1.1999059e-20
4.2558341e-20
7.1885903e-20
8.6036915e-20
8.8363529e-20
8.6062093e-20
8.3172777e-20
8.1459725e-20
8.145935e-20
8.3171847e-20
8.6060621e-20
8.8362139e-20
8.6035997e-20
7.188529e-20
4.2558321e-20
1.1999133e-20
5.6758265e-22
3.7306375e-26
2.3292111e-27
8.721322e-23
2.5647085e-21
1.0541837e-20
1.9062604e-20
2.3537198e-20
2.4521753e-20
2.4037948e-20
2.3299422e-20
2.2847727e-20
2.2847617e-20
2.3299136e-20
2.4037503e-20
2.4521321e-20
2.3536906e-20
1.9062418e-20
1.0541823e-20
2.564727e-21
8.7214029e-23
2.3292656e-27
1.4043893e-28
1.3015059e-23
5.3357178e-22
2.5407056e-21
4.9162017e-21
6.2621012e-21
6.6201411e-21
6.5341988e-21
6.3544871e-21
6.2403126e-21
6.2402808e-21
6.3544019e-21
6.534069e-21
6.620012e-21
6.2620106e-21
4.916147e-21
2.5406994e-21
5.3357595e-22
1.3015201e-23
1.4044287e-28
8.1923294e-30
1.89293e-24
1.083107e-22
5.9683339e-22
1.2347964e-21
1.6222223e-21
1.7405012e-21
1.7301719e-21
1.6886136e-21
1.6609147e-21
1.6609059e-21
1.6885891e-21
1.7301351e-21
1.7404636e-21
1.622195e-21
1.2347809e-21
5.9683114e-22
1.0831158e-22
1.8929533e-24
8.1926003e-30
4.6319459e-31
2.6922293e-25
2.1497557e-23
1.3685206e-22
3.0241433e-22
4.096262e-22
4.4603965e-22
4.4662161e-22
4.3752735e-22
4.310751e-22
4.3107267e-22
4.3752052e-22
4.4661147e-22
4.4602901e-22
4.0961819e-22
3.0240999e-22
1.3685131e-22
2.1497728e-23
2.692266e-25
4.6321226e-31
2.5433658e-32
3.756487e-26
4.1794484e-24
3.0667665e-23
7.2292712e-23
1.0091352e-22
1.1150963e-22
1.12474e-22
1.1060635e-22
1.0916374e-22
1.0916309e-22
1.1060449e-22
1.1247127e-22
1.115067e-22
1.0091123e-22
7.2291524e-23
3.0667431e-23
4.1794792e-24
3.7565416e-26
2.5434766e-32
1.3592977e-33
5.15768e-27
7.9706221e-25
6.7232002e-24
1.6882834e-23
2.4273592e-23
2.7213899e-23
2.7649969e-23
2.7295794e-23
2.6986649e-23
2.6986479e-23
2.7295302e-23
2.7649252e-23
2.7213114e-23
2.4272958e-23
1.6882516e-23
6.7231319e-24
7.9706704e-25
5.1577571e-27
1.3593643e-33
7.0898662e-35
6.9871339e-28
1.4928028e-25
1.4430688e-24
3.8545037e-24
5.7046752e-24
6.4873591e-24
6.6389839e-24
6.5790735e-24
6.515759e-24
6.5157151e-24
6.5789461e-24
6.6387992e-24
6.4871534e-24
5.7045048e-24
3.8544197e-24
1.4430499e-24
1.4928089e-25
6.9872363e-28
7.0902469e-35
3.6207937e-36
9.360335e-29
2.7479851e-26
3.0345283e-25
8.608513e-25
1.3106563e-24
1.5113714e-24
1.5576897e-24
1.5494518e-24
1.5371221e-24
1.537111e-24
1.5494196e-24
1.5576431e-24
1.5113188e-24
1.3106117e-24
8.6082954e-25
3.0344784e-25
2.7479891e-26
9.3604611e-29
3.6210006e-36
1.9015628e-37
1.2421298e-29
4.9748301e-27
6.2547117e-26
1.8816969e-25
2.945272e-25
3.4427387e-25
3.5729061e-25
3.567073e-25
3.5444491e-25
3.5444217e-25
3.5669936e-25
3.5727911e-25
3.4426081e-25
2.9451589e-25
1.8816417e-25
6.2545844e-26
4.974821e-27
1.2421439e-29
1.8978666e-37
1.368216e-38
1.6345395e-30
8.8602936e-28
1.2641785e-26
4.027436e-26
6.4764274e-26
7.6710274e-26
8.0149363e-26
8.0303412e-26
7.9918859e-26
7.9918195e-26
8.0301502e-26
8.0146586e-26
7.6707097e-26
6.4761484e-26
4.027299e-26
1.2641472e-26
8.8602409e-28
1.6345529e-30
1.3375346e-38
1.8853681e-38
2.1339375e-31
1.5527533e-28
2.5063048e-27
8.4438221e-27
1.3941128e-26
1.6726142e-26
1.7590803e-26
1.7685096e-26
1.7626685e-26
1.7626529e-26
1.7684646e-26
1.7590147e-26
1.6725388e-26
1.394046e-26
8.4434906e-27
2.5062301e-27
1.5527367e-28
2.1339459e-31
1.441988e-38
3.3850814e-39
2.7637296e-32
2.6777229e-29
4.8752837e-28
1.7347618e-27
2.9388745e-27
3.5702666e-27
3.778716e-27
3.8114888e-27
3.8042939e-27
3.8042581e-27
3.8113858e-27
3.7785643e-27
3.5700917e-27
2.9387188e-27
1.7346839e-27
4.8751113e-28
2.6776793e-29
2.7637257e-32
2.4358519e-39
1.9547986e-40
3.5491337e-33
4.5438801e-30
9.3069636e-29
3.493655e-28
6.0694154e-28
7.4633637e-28
7.9476884e-28
8.0419108e-28
8.0375358e-28
8.0374558e-28
8.0416801e-28
7.947346e-28
7.4629677e-28
6.0690618e-28
3.4934762e-28
9.3065764e-29
4.5437768e-30
3.5491048e-33
9.7034452e-41
7.6219657e-42
4.5156878e-34
7.5867702e-31
1.7440208e-29
6.899259e-29
1.2284395e-28
1.5284907e-28
1.637348e-28
1.6617547e-28
1.6629664e-28
1.6629488e-28
1.6617041e-28
1.6372724e-28
1.5284033e-28
1.2283612e-28
6.8988595e-29
1.7439364e-29
7.5865424e-31
4.5156142e-34
4.6417441e-42
4.0713129e-43
5.6871946e-35
1.2462957e-31
3.2086414e-30
1.3364311e-29
2.4375775e-29
3.0679629e-29
3.3053046e-29
3.3642292e-29
3.3707366e-29
3.3706984e-29
3.3641207e-29
3.3051417e-29
3.0677741e-29
2.4374085e-29
1.3363442e-29
3.2084622e-30
1.2462478e-31
5.6870476e-35
2.8135625e-43
2.3531056e-44
7.0831944e-36
2.0141338e-32
5.7970503e-31
2.5400961e-30
4.7436943e-30
6.0375593e-30
6.5406406e-30
6.6755217e-30
6.696044e-30
6.695964e-30
6.6752947e-30
6.5402977e-30
6.0371615e-30
4.7433378e-30
2.5399113e-30
5.7966791e-31
2.0140376e-32
7.0829325e-36
1.6637393e-44
1.2654001e-45
8.7161426e-37
3.2021222e-33
1.028732e-31
4.7386033e-31
9.0569958e-31
1.1653643e-30
1.2692178e-30
1.2987847e-30
1.3041779e-30
1.3041616e-30
1.2987382e-30
1.2691472e-30
1.1652823e-30
9.0562604e-31
4.7382204e-31
1.0286569e-31
3.2019352e-33
8.7157098e-37
8.816122e-46
6.1011824e-47
1.0588573e-37
5.0079896e-34
1.7935088e-32
8.6792955e-32
1.6971338e-31
2.2070677e-31
2.4161728e-31
2.4786387e-31
2.4914602e-31
2.4914274e-31
2.4785452e-31
2.4160306e-31
2.2069021e-31
1.6969852e-31
8.67852e-32
1.7933602e-32
5.0076373e-34
1.0587895e-37
4.1537801e-47
)
;

boundaryField
{
    Wall
    {
        type            zeroGradient;
    }
    frontAndBack
    {
        type            empty;
    }
    atmosphere
    {
        type            zeroGradient;
    }
}


// ************************************************************************* //
