/*--------------------------------*- C++ -*----------------------------------*\
| =========                 |                                                 |
| \\      /  F ield         | OpenFOAM: The Open Source CFD Toolbox           |
|  \\    /   O peration     | Version:  3.0.1                                 |
|   \\  /    A nd           | Web:      www.OpenFOAM.org                      |
|    \\/     M anipulation  |                                                 |
\*---------------------------------------------------------------------------*/
FoamFile
{
    version     2.0;
    format      ascii;
    class       volScalarField;
    location    "17";
    object      mZero;
}
// * * * * * * * * * * * * * * * * * * * * * * * * * * * * * * * * * * * * * //

dimensions      [0 0 0 0 0 0 0];

internalField   nonuniform List<scalar> 
800
(
1e+13
1e+13
1e+13
1e+13
1e+13
1e+13
1e+13
1e+13
1e+13
1e+13
1e+13
1e+13
1e+13
1e+13
1e+13
1e+13
1e+13
1e+13
1e+13
1e+13
1e+13
1e+13
1e+13
1e+13
1e+13
1e+13
1e+13
1e+13
1e+13
1e+13
1e+13
1e+13
1e+13
1e+13
1e+13
1e+13
1e+13
1e+13
1e+13
1e+13
9.4976468e+12
9.5028223e+12
9.5036492e+12
9.5037956e+12
9.5037784e+12
9.5037873e+12
9.5038068e+12
9.5038264e+12
9.5038408e+12
9.5038486e+12
9.5038485e+12
9.5038408e+12
9.5038264e+12
9.5038067e+12
9.5037872e+12
9.5037783e+12
9.5037956e+12
9.5036491e+12
9.5028222e+12
9.4976466e+12
8.6720515e+12
8.685008e+12
8.6866519e+12
8.686738e+12
8.6866697e+12
8.6866525e+12
8.6866553e+12
8.6866624e+12
8.6866673e+12
8.6866699e+12
8.6866699e+12
8.6866673e+12
8.6866624e+12
8.6866553e+12
8.6866526e+12
8.6866698e+12
8.686738e+12
8.686652e+12
8.685008e+12
8.6720514e+12
7.6329041e+12
7.6592148e+12
7.6621703e+12
7.6623441e+12
7.6622565e+12
7.6621854e+12
7.6621183e+12
7.6620594e+12
7.6620147e+12
7.6619911e+12
7.6619911e+12
7.6620148e+12
7.6620596e+12
7.6621184e+12
7.6621857e+12
7.6622568e+12
7.6623445e+12
7.6621707e+12
7.6592152e+12
7.6329044e+12
6.443961e+12
6.4936102e+12
6.5006311e+12
6.5018287e+12
6.5019458e+12
6.5018078e+12
6.5016151e+12
6.5014027e+12
6.5012532e+12
6.5011742e+12
6.5011743e+12
6.5012533e+12
6.5014029e+12
6.5016155e+12
6.5018084e+12
6.5019465e+12
6.5018294e+12
6.5006318e+12
6.493611e+12
6.4439619e+12
5.1751142e+12
5.2606419e+12
5.2792363e+12
5.2835415e+12
5.284282e+12
5.2839954e+12
5.2835503e+12
5.2830894e+12
5.2827727e+12
5.2825888e+12
5.2825889e+12
5.2827729e+12
5.2830897e+12
5.2835509e+12
5.2839961e+12
5.284283e+12
5.2835426e+12
5.2792375e+12
5.2606432e+12
5.1751157e+12
3.8449982e+12
3.9890071e+12
4.0337217e+12
4.044941e+12
4.0466787e+12
4.0458101e+12
4.0445865e+12
4.0436356e+12
4.0429729e+12
4.0425758e+12
4.0425758e+12
4.042973e+12
4.0436357e+12
4.044587e+12
4.0458109e+12
4.0466798e+12
4.0449427e+12
4.0337231e+12
3.9890088e+12
3.8450005e+12
2.4631292e+12
2.6876757e+12
2.7779819e+12
2.8028501e+12
2.8059582e+12
2.803331e+12
2.8001302e+12
2.7979761e+12
2.7965493e+12
2.7957457e+12
2.7957456e+12
2.7965492e+12
2.7979757e+12
2.8001304e+12
2.8033317e+12
2.8059593e+12
2.8028518e+12
2.7779831e+12
2.6876776e+12
2.463132e+12
1.2639043e+12
1.5931837e+12
1.7324327e+12
1.7765579e+12
1.7821408e+12
1.7763317e+12
1.7693109e+12
1.764474e+12
1.761411e+12
1.7598183e+12
1.7598179e+12
1.7614106e+12
1.7644729e+12
1.7693105e+12
1.7763319e+12
1.7821413e+12
1.776559e+12
1.7324334e+12
1.5931851e+12
1.2639067e+12
4.6293918e+11
8.3325351e+11
9.9615144e+11
1.0544069e+12
1.0639336e+12
1.0562499e+12
1.0456424e+12
1.0376599e+12
1.032522e+12
1.0299359e+12
1.0299354e+12
1.0325212e+12
1.0376583e+12
1.0456414e+12
1.0562496e+12
1.0639335e+12
1.0544074e+12
9.961515e+11
8.3325415e+11
4.6294047e+11
1.1842854e+11
3.8183098e+11
5.2725881e+11
5.8802004e+11
6.020762e+11
5.965991e+11
5.8624283e+11
5.776156e+11
5.7182948e+11
5.6891049e+11
5.6890995e+11
5.7182859e+11
5.7761392e+11
5.8624164e+11
5.9659844e+11
6.0207565e+11
5.8801996e+11
5.2725848e+11
3.8183103e+11
1.1842894e+11
2.2194202e+10
1.5324414e+11
2.5644418e+11
3.0763042e+11
3.2303935e+11
3.2108698e+11
3.1364651e+11
3.0673706e+11
3.018896e+11
2.9941434e+11
2.9941391e+11
3.0188878e+11
3.0673564e+11
3.1364539e+11
3.2108623e+11
3.2303861e+11
3.076301e+11
2.5644374e+11
1.5324396e+11
2.219428e+10
3.2697892e+09
5.4216267e+10
1.1489077e+11
1.509879e+11
1.6422585e+11
1.6468176e+11
1.6041483e+11
1.5592574e+11
1.5262936e+11
1.5092247e+11
1.5092216e+11
1.5262874e+11
1.5592471e+11
1.6041395e+11
1.6468111e+11
1.6422517e+11
1.5098753e+11
1.1489043e+11
5.4216105e+10
3.2698001e+09
4.0430316e+08
1.7146265e+10
4.7673941e+10
6.966693e+10
7.9129205e+10
8.0476472e+10
7.845499e+10
7.5962372e+10
7.4042719e+10
7.3034382e+10
7.3034196e+10
7.4042305e+10
7.5961706e+10
7.8454384e+10
8.0475994e+10
7.9128698e+10
6.9666632e+10
4.7673727e+10
1.7146175e+10
4.0430443e+08
44068981
4.9352635e+09
1.8454696e+10
3.031976e+10
3.6181998e+10
3.7480953e+10
3.6693629e+10
3.5475035e+10
3.4485932e+10
3.3958535e+10
3.3958431e+10
3.4485684e+10
3.5474646e+10
3.6693255e+10
3.7480644e+10
3.6181676e+10
3.0319565e+10
1.8454586e+10
4.9352254e+09
44069124
4378308
1.3159902e+09
6.7157747e+09
1.2494196e+10
1.5729895e+10
1.6649922e+10
1.6415568e+10
1.588223e+10
1.5421977e+10
1.5172478e+10
1.5172424e+10
1.5421841e+10
1.5882022e+10
1.6415357e+10
1.6649742e+10
1.5729715e+10
1.2494086e+10
6.7157245e+09
1.3159769e+09
4378324.6
405517.01
3.3003213e+08
2.3139103e+09
4.8936044e+09
6.5157737e+09
7.0627387e+09
7.0280075e+09
6.8173905e+09
6.6213939e+09
6.5130988e+09
6.5130728e+09
6.6213247e+09
6.8172873e+09
7.0278979e+09
7.0626424e+09
6.5156827e+09
4.8935488e+09
2.3138895e+09
3.3002808e+08
405518.84
35583.249
78771207
7.5939903e+08
1.8280336e+09
2.5771951e+09
2.8646877e+09
2.8815911e+09
2.806539e+09
2.7294912e+09
2.6859335e+09
2.6859217e+09
2.7294583e+09
2.8064907e+09
2.8815382e+09
2.86464e+09
2.5771529e+09
1.828008e+09
7.5939107e+08
78770089
35583.431
2996.313
18051210
2.3851912e+08
6.532121e+08
9.7532365e+08
1.1125958e+09
1.132496e+09
1.1086042e+09
1.0804927e+09
1.0641437e+09
1.0641386e+09
1.080478e+09
1.108583e+09
1.132472e+09
1.1125736e+09
9.7530543e+08
6.5320119e+08
2.3851624e+08
18050922
2996.3278
244.89142
3996334.7
71953316
2.2382047e+08
3.5380959e+08
4.1434411e+08
4.2703931e+08
4.2044488e+08
4.1089882e+08
4.0514358e+08
4.0514148e+08
4.1089264e+08
4.2043599e+08
4.2702907e+08
4.1433443e+08
3.5380217e+08
2.2381613e+08
71952325
3996263.6
244.89217
19.636696
858233.4
20901675
73687039
1.2323307e+08
1.4816126e+08
1.5465832e+08
1.5321384e+08
1.5019648e+08
1.4828982e+08
1.4828898e+08
1.5019401e+08
1.532103e+08
1.5465416e+08
1.4815727e+08
1.232302e+08
73685418
20901347
858216.55
19.63668
1.560339
179224.57
5857755.5
23347897
41273087
50935102
53853477
53692652
52807766
52212068
52211752
52806822
53691301
53851874
50933547
41272022
23347323
5857651.9
179220.7
1.5603283
0.12390384
36440.422
1585997.5
7129816.5
13309916
16855526
18049149
18111829
17873110
17697467
17697352
17872766
18111334
18048559
16854949
13309536
7129622.5
1585965.8
36439.561
0.12390203
0.0098881686
7217.1837
415294.21
2100939.7
4138031.2
5375529.5
5828704.2
5886607.8
5828479.4
5779648.6
5779608.2
5828359.2
5886434
5828496
5375325.3
4137900.8
2100877.1
415284.92
7216.9976
0.0098879369
0.00079464998
1392.3875
105261.19
598042.15
1241736
1654042.4
1815635
1845280.2
1833066.1
1820305.6
1820291.9
1833025.8
1845221.5
1815564.5
1653973.2
1241692.7
598022.69
105258.57
1392.3486
0.00079462386
6.4204763e-05
261.62761
25844.642
164617.66
360049.74
491581.22
546124.73
558471.35
556545.21
553431.48
553427.02
556532.17
558452.23
546101.75
491558.73
360035.79
164611.81
25843.931
261.61971
6.4202087e-05
5.19363e-06
47.868325
6151.3671
43859.908
100984.12
141263.5
158789.46
163354.11
163291.19
162591.04
162589.64
163287.12
163348.1
158782.25
141256.47
100979.79
43858.204
6151.1794
47.866763
5.193373e-06
4.1837967e-07
8.5269487
1420.2765
11321.649
27424.785
39291.664
44675.551
46227.126
46345.543
46204.443
46204.018
46344.314
46225.302
44673.365
39289.544
27423.48
11321.168
1420.2286
8.5266481
4.183561e-07
3.3387964e-08
1.4787989
318.32804
2833.9617
7218.707
10588.721
12175.272
12669.006
12737.263
12713.5
12713.375
12736.904
12668.471
12174.633
10588.104
7218.3273
2833.8302
318.31617
1.4787425
3.3385856e-08
3.0253697e-09
0.24971162
69.307512
688.49663
1843.3749
2767.4708
3217.2049
3365.8862
3393.1294
3390.5863
3390.5509
3393.028
3365.7345
3217.0242
2767.2975
1843.268
688.46155
69.304656
0.24970127
3.007065e-09
4.4568025e-10
0.041065574
14.668781
162.48166
457.09235
702.14934
825.06496
867.73853
877.00965
877.27874
877.269
876.98197
867.69686
825.0155
702.10217
457.0632
162.47257
14.668111
0.041063718
4.2981917e-10
6.513547e-10
0.0065790869
3.0201029
37.278864
110.15757
173.09297
205.54715
217.27995
220.1403
220.42795
220.42536
220.13295
217.26886
205.53403
173.08054
110.14988
37.276573
3.0199502
0.006578761
4.9952519e-10
1.3903208e-10
0.0010272489
0.60529701
8.3219976
25.823502
41.496877
49.789629
52.891601
53.713577
53.834649
53.833986
53.711694
52.88874
49.786251
41.493696
25.821538
8.3214353
0.60526297
0.0010271927
9.996883e-11
9.305403e-12
0.00015638952
0.11817797
1.809002
5.8933601
9.6829049
11.7367
12.527678
12.75093
12.79113
12.790965
12.750461
12.526962
11.735855
9.6821143
5.8928733
1.8088677
0.11817056
0.00015638
4.7997611e-12
4.395242e-13
2.3226254e-05
0.022491759
0.38320026
1.3103909
2.2009189
2.694595
2.8895954
2.9474198
2.9592286
2.9591886
2.947306
2.8894213
2.6943901
2.2007278
1.3102737
0.38316905
0.022490186
2.3224665e-05
2.8231389e-13
2.7294117e-14
3.3668157e-06
0.0041756197
0.079159883
0.28409156
0.48769709
0.60301414
0.64958637
0.66395485
0.66715447
0.66714501
0.66392799
0.64954522
0.60296575
0.48765215
0.28406418
0.079152818
0.0041752928
3.3665553e-06
1.9123326e-14
1.6986844e-15
4.7661049e-07
0.00075668243
0.015958165
0.060096881
0.10543132
0.13163745
0.14243158
0.14587158
0.14668754
0.14668537
0.14586542
0.14242213
0.13162634
0.10542102
0.060090645
0.015956605
0.00075661605
4.765686e-07
1.189471e-15
9.4890285e-17
6.592492e-08
0.0001339302
0.0031416215
0.012413247
0.022252276
0.028052193
0.030483644
0.03127973
0.031477838
0.031477356
0.031278353
0.030481529
0.028049704
0.022249973
0.012411864
0.0031412853
0.00013391701
6.5918318e-08
6.4920784e-17
4.7007223e-18
8.9148762e-09
2.316781e-05
0.00060436839
0.0025052457
0.0045884213
0.0058397348
0.0063727403
0.0065512722
0.0065974013
0.0065972965
0.0065509719
0.0063722786
0.0058391908
0.0045879186
0.0025049465
0.0006042977
2.3165249e-05
8.9138573e-09
3.1341887e-18
)
;

boundaryField
{
    Wall
    {
        type            zeroGradient;
    }
    frontAndBack
    {
        type            empty;
    }
    atmosphere
    {
        type            zeroGradient;
    }
}


// ************************************************************************* //
