/*--------------------------------*- C++ -*----------------------------------*\
| =========                 |                                                 |
| \\      /  F ield         | OpenFOAM: The Open Source CFD Toolbox           |
|  \\    /   O peration     | Version:  3.0.1                                 |
|   \\  /    A nd           | Web:      www.OpenFOAM.org                      |
|    \\/     M anipulation  |                                                 |
\*---------------------------------------------------------------------------*/
FoamFile
{
    version     2.0;
    format      ascii;
    class       surfaceScalarField;
    location    "17";
    object      phi;
}
// * * * * * * * * * * * * * * * * * * * * * * * * * * * * * * * * * * * * * //

dimensions      [0 3 -1 0 0 0 0];

internalField   nonuniform List<scalar> 
1540
(
2.6336871e-10
2.2206509e-08
2.7467202e-10
2.247378e-08
2.3751496e-10
2.2523335e-08
1.9744988e-10
2.2526735e-08
1.634887e-10
2.252119e-08
1.3235212e-10
2.251884e-08
1.0114224e-10
2.251926e-08
6.86235e-11
2.2520797e-08
3.4727267e-11
2.2522305e-08
1.9912328e-14
2.2523171e-08
-3.4693605e-11
2.252317e-08
-6.8605726e-11
2.2522302e-08
-1.01141e-10
2.2520793e-08
-1.3235816e-10
2.2519256e-08
-1.6348576e-10
2.2518838e-08
-1.9742297e-10
2.2521191e-08
-2.3745901e-10
2.2526739e-08
-2.7458674e-10
2.2523341e-08
-2.6328323e-10
2.2473781e-08
2.2206489e-08
1.3460388e-10
4.5061212e-08
1.8604141e-10
4.5383224e-08
1.8684545e-10
4.5502753e-08
1.6981902e-10
4.55231e-08
1.474148e-10
4.5521722e-08
1.2222716e-10
4.55214e-08
9.4571969e-11
4.5523799e-08
6.4585196e-11
4.552735e-08
3.2800776e-11
4.5530462e-08
1.6064158e-14
4.5532233e-08
-3.2773828e-11
4.5532231e-08
-6.4570774e-11
4.5530457e-08
-9.4570212e-11
4.5527342e-08
-1.2223003e-10
4.5523792e-08
-1.4740912e-10
4.5521394e-08
-1.6979244e-10
4.5521717e-08
-1.8679344e-10
4.5523093e-08
-1.8597181e-10
4.5502739e-08
-1.3454489e-10
4.5383189e-08
4.5061132e-08
1.8658633e-10
6.9780609e-08
1.856767e-10
7.0272749e-08
1.6412268e-10
7.0378138e-08
1.4922666e-10
7.0389425e-08
1.3395348e-10
7.0386438e-08
1.1437721e-10
7.0388702e-08
9.0259712e-11
7.0394362e-08
6.2331404e-11
7.0400823e-08
3.1814076e-11
7.0405959e-08
1.2429297e-14
7.0408736e-08
-3.1793317e-11
7.0408733e-08
-6.2320318e-11
7.0405952e-08
-9.0258125e-11
7.0400814e-08
-1.143783e-10
7.0394351e-08
-1.3394698e-10
7.038869e-08
-1.492045e-10
7.0386424e-08
-1.6408324e-10
7.0389402e-08
-1.8563149e-10
7.0378098e-08
-1.8656303e-10
7.0272679e-08
6.9780488e-08
9.4140659e-11
9.7943112e-08
1.1971419e-10
9.8482211e-08
1.2524906e-10
9.8577889e-08
1.3011247e-10
9.8588233e-08
1.2663251e-10
9.8590497e-08
1.1325744e-10
9.8599926e-08
9.1510857e-11
9.8611831e-08
6.390587e-11
9.8622676e-08
3.2790933e-11
9.8630404e-08
8.6336675e-15
9.8634407e-08
-3.2776391e-11
9.8634404e-08
-6.3898166e-11
9.8630396e-08
-9.1509754e-11
9.8622664e-08
-1.1325838e-10
9.8611817e-08
-1.2662928e-10
9.8599909e-08
-1.3010097e-10
9.8590475e-08
-1.2523138e-10
9.85882e-08
-1.1970377e-10
9.8577838e-08
-9.4156442e-11
9.8482132e-08
9.7942996e-08
-9.6230359e-12
1.2311565e-07
3.5647624e-11
1.2376012e-07
9.2721824e-11
1.2387258e-07
1.2743691e-10
1.2390865e-07
1.3681528e-10
1.2393436e-07
1.2602079e-10
1.2396173e-07
1.0256725e-10
1.239847e-07
7.1587494e-11
1.2400187e-07
3.6679477e-11
1.2401287e-07
5.1204942e-15
1.2401834e-07
-3.66711e-11
1.2401833e-07
-7.1583361e-11
1.2401286e-07
-1.0256737e-10
1.2400185e-07
-1.2602251e-10
1.2398468e-07
-1.368159e-10
1.2396171e-07
-1.2743623e-10
1.2393434e-07
-9.2723999e-11
1.2390862e-07
-3.5664785e-11
1.2387254e-07
9.5841777e-12
1.2376006e-07
1.2311558e-07
-8.117788e-11
1.4581064e-07
1.8824014e-12
1.4636051e-07
1.1604663e-10
1.4660338e-07
1.7477948e-10
1.4669639e-07
1.8412813e-10
1.4676876e-07
1.6458427e-10
1.4682327e-07
1.3049485e-10
1.4686029e-07
8.9373129e-11
1.4688468e-07
4.5317792e-11
1.4689894e-07
1.0265707e-15
1.469058e-07
-4.531637e-11
1.4690579e-07
-8.9373791e-11
1.4689893e-07
-1.3049741e-10
1.4688466e-07
-1.6458768e-10
1.4686026e-07
-1.8413215e-10
1.4682324e-07
-1.7478564e-10
1.4676873e-07
-1.160575e-10
1.4669636e-07
-1.9043098e-12
1.4660335e-07
8.1138911e-11
1.4636048e-07
1.4581063e-07
-1.9403986e-11
1.7149515e-07
1.514376e-10
1.719047e-07
2.7766501e-10
1.7214204e-07
3.1384857e-10
1.723248e-07
2.8941331e-10
1.7244964e-07
2.3901511e-10
1.7252369e-07
1.8087317e-10
1.7256465e-07
1.2021512e-10
1.7258949e-07
6.0096902e-11
1.7260208e-07
-3.8732466e-15
1.7260825e-07
-6.0104307e-11
1.7260824e-07
-1.202228e-10
1.7260206e-07
-1.8088094e-10
1.7258947e-07
-2.390221e-10
1.7256463e-07
-2.8942038e-10
1.7252367e-07
-3.1385753e-10
1.7244961e-07
-2.7767595e-10
1.7232478e-07
-1.514555e-10
1.7214203e-07
1.9380371e-11
1.719047e-07
1.7149518e-07
1.1307847e-09
1.7127545e-07
1.030003e-09
1.7432991e-07
8.1824286e-10
1.7496002e-07
6.3794929e-10
1.7515228e-07
4.8863492e-10
1.7524061e-07
3.6595534e-10
1.7526885e-07
2.6076625e-10
1.7527436e-07
1.6746165e-10
1.75272e-07
8.1853944e-11
1.7526701e-07
-6.9483316e-15
1.7526405e-07
-8.1866387e-11
1.7526404e-07
-1.6747284e-10
1.75267e-07
-2.6077588e-10
1.7527198e-07
-3.6596234e-10
1.7527435e-07
-4.8864109e-10
1.7526884e-07
-6.379563e-10
1.7524061e-07
-8.182479e-10
1.7515229e-07
-1.0300081e-09
1.7496005e-07
-1.1307894e-09
1.7432997e-07
1.7127554e-07
8.6488387e-09
1.6024801e-07
6.3392525e-09
1.7398613e-07
4.1456641e-09
1.7446818e-07
2.7426641e-09
1.7386073e-07
1.8607164e-09
1.7342309e-07
1.2752808e-09
1.7315353e-07
8.5507069e-10
1.7299392e-07
5.281838e-10
1.7289908e-07
2.5165822e-10
1.7284446e-07
-1.3293654e-14
1.728171e-07
-2.5168305e-10
1.7281709e-07
-5.2820427e-10
1.7284444e-07
-8.550898e-10
1.7289904e-07
-1.2752902e-09
1.7299389e-07
-1.8607226e-09
1.731535e-07
-2.7426698e-09
1.7342307e-07
-4.1456677e-09
1.7386072e-07
-6.3392481e-09
1.744682e-07
-8.6488274e-09
1.7398619e-07
1.6024816e-07
3.1406866e-08
1.2869235e-07
3.1574978e-08
1.736118e-07
2.5297155e-08
1.805316e-07
1.8867322e-08
1.8007623e-07
1.3642021e-08
1.7843432e-07
9.6227886e-09
1.7695913e-07
6.5210812e-09
1.7588242e-07
4.0391076e-09
1.7516825e-07
1.9311887e-09
1.7473984e-07
-8.1362272e-14
1.7453599e-07
-1.9313241e-09
1.7453598e-07
-4.0392264e-09
1.747398e-07
-6.5211772e-09
1.7516818e-07
-9.6228665e-09
1.7588236e-07
-1.3642074e-08
1.7695907e-07
-1.8867385e-08
1.7843429e-07
-2.5297234e-08
1.8007621e-07
-3.1575065e-08
1.8053162e-07
-3.1406943e-08
1.7361188e-07
1.2869252e-07
2.902196e-08
9.9669592e-08
3.8881349e-08
1.6375051e-07
3.7128968e-08
1.8228184e-07
3.115039e-08
1.8605267e-07
2.4388631e-08
1.8519396e-07
1.8135966e-08
1.832097e-07
1.2714088e-08
1.8130223e-07
8.0404358e-09
1.7983985e-07
3.8893662e-09
1.7888889e-07
-1.1878786e-13
1.7842344e-07
-3.8895893e-09
1.7842341e-07
-8.0406436e-09
1.788888e-07
-1.2714255e-08
1.7983974e-07
-1.8136101e-08
1.8130211e-07
-2.4388726e-08
1.8320959e-07
-3.11505e-08
1.851939e-07
-3.7129083e-08
1.8605263e-07
-3.8881471e-08
1.8228181e-07
-2.9022048e-08
1.6375057e-07
9.9669733e-08
1.9719459e-08
7.9950262e-08
3.2040755e-08
1.5142937e-07
3.4824772e-08
1.7949795e-07
3.2036749e-08
1.8884088e-07
2.6806094e-08
1.9042476e-07
2.0904898e-08
1.8911099e-07
1.5147711e-08
1.8705956e-07
9.7882703e-09
1.851994e-07
4.7925236e-09
1.8388479e-07
-1.3604247e-13
1.8321622e-07
-4.792786e-09
1.832162e-07
-9.7884888e-09
1.8388467e-07
-1.5147898e-08
1.8519927e-07
-2.0905049e-08
1.8705939e-07
-2.6806193e-08
1.8911085e-07
-3.2036831e-08
1.9042465e-07
-3.4824868e-08
1.8884078e-07
-3.2040798e-08
1.7949789e-07
-1.9719479e-08
1.5142936e-07
7.9950312e-08
1.2113191e-08
6.7837295e-08
2.3029098e-08
1.4051363e-07
2.7810285e-08
1.7471695e-07
2.7627122e-08
1.8902422e-07
2.4484656e-08
1.9356744e-07
1.9932653e-08
1.9366315e-07
1.4900544e-08
1.9209183e-07
9.8341726e-09
1.9026595e-07
4.8745788e-09
1.8884456e-07
-1.0311727e-13
1.8809107e-07
-4.8747858e-09
1.8809104e-07
-9.8343568e-09
1.8884443e-07
-1.4900719e-08
1.9026579e-07
-1.9932789e-08
1.9209164e-07
-2.4484737e-08
1.9366298e-07
-2.7627199e-08
1.9356728e-07
-2.7810323e-08
1.8902411e-07
-2.3029102e-08
1.7471686e-07
-1.2113156e-08
1.4051358e-07
6.7837239e-08
7.0993176e-09
6.0738152e-08
1.54567e-08
1.3215643e-07
2.0419739e-08
1.6975402e-07
2.1666525e-08
1.8777758e-07
2.019099e-08
1.9504314e-07
1.7081313e-08
1.9677298e-07
1.3139256e-08
1.9603404e-07
8.8450333e-09
1.945603e-07
4.4356268e-09
1.932541e-07
-6.0066665e-14
1.9252693e-07
-4.435768e-09
1.9252689e-07
-8.8451502e-09
1.9325397e-07
-1.3139351e-08
1.9456015e-07
-1.7081406e-08
1.9603386e-07
-2.0191052e-08
1.967728e-07
-2.1666569e-08
1.9504299e-07
-2.0419753e-08
1.8777749e-07
-1.5456649e-08
1.6975394e-07
-7.0992637e-09
1.3215634e-07
6.0738062e-08
4.0937299e-09
5.6644564e-08
9.9924114e-09
1.2625786e-07
1.4250859e-08
1.6549566e-07
1.6006264e-08
1.8602227e-07
1.558875e-08
1.9546076e-07
1.3648492e-08
1.9871332e-07
1.0774415e-08
1.9890815e-07
7.3860071e-09
1.9794882e-07
3.7438964e-09
1.968963e-07
-1.9027702e-14
1.9627093e-07
-3.7439206e-09
1.9627088e-07
-7.3860769e-09
1.9689617e-07
-1.077447e-08
1.9794867e-07
-1.3648522e-08
1.98908e-07
-1.5588756e-08
1.9871315e-07
-1.6006268e-08
1.9546062e-07
-1.4250849e-08
1.8602219e-07
-9.9923614e-09
1.6549559e-07
-4.0936662e-09
1.2625778e-07
5.6644442e-08
2.3735341e-09
5.4271071e-08
6.3405385e-09
1.2229088e-07
9.6324244e-09
1.6220378e-07
1.1358572e-08
1.8429613e-07
1.1498393e-08
1.9532094e-07
1.0380312e-08
1.9983143e-07
8.3886404e-09
2.0089983e-07
5.8464868e-09
2.0049099e-07
2.9927214e-09
1.9975006e-07
1.7150617e-14
1.9926358e-07
-2.9926822e-09
1.9926355e-07
-5.8464377e-09
1.9974997e-07
-8.3886149e-09
2.0049084e-07
-1.0380287e-08
2.0089965e-07
-1.1498362e-08
1.9983129e-07
-1.1358574e-08
1.9532085e-07
-9.6324063e-09
1.842961e-07
-6.3405115e-09
1.6220378e-07
-2.3734965e-09
1.2229086e-07
5.427098e-08
1.3961645e-09
5.287487e-08
3.9918571e-09
1.1969515e-07
6.380493e-09
1.5981509e-07
7.8401083e-09
1.828365e-07
8.2089052e-09
1.9495211e-07
7.6152282e-09
2.0042507e-07
6.285153e-09
2.0222985e-07
4.4466205e-09
2.0232947e-07
2.2965486e-09
2.0190008e-07
5.0594247e-14
2.0156004e-07
-2.2964442e-09
2.0156e-07
-4.4465586e-09
2.0189998e-07
-6.2850899e-09
2.0232936e-07
-7.6151662e-09
2.0222975e-07
-8.2088628e-09
2.0042496e-07
-7.8400777e-09
1.9495204e-07
-6.380472e-09
1.8283651e-07
-3.991842e-09
1.5981515e-07
-1.3961527e-09
1.196952e-07
5.2874856e-08
8.3413998e-10
5.2040656e-08
2.5078434e-09
1.1802138e-07
4.1738837e-09
1.5814896e-07
5.3090967e-09
1.817012e-07
5.7239468e-09
1.9453716e-07
5.4394988e-09
2.0070948e-07
4.5748814e-09
2.0309442e-07
3.2806117e-09
2.0362367e-07
1.7080532e-09
2.0347256e-07
5.5955297e-14
2.0326794e-07
-1.7079347e-09
2.0326791e-07
-3.2804984e-09
2.0347249e-07
-4.5747773e-09
2.036236e-07
-5.4394279e-09
2.0309431e-07
-5.7239138e-09
2.007094e-07
-5.3090698e-09
1.9453719e-07
-4.1738567e-09
1.817013e-07
-2.5078293e-09
1.5814911e-07
-8.3414377e-10
1.1802154e-07
5.2040722e-08
5.0510821e-10
5.153547e-08
1.5767479e-09
1.1694966e-07
2.7103046e-09
1.5701533e-07
3.5487305e-09
1.8086271e-07
3.9239987e-09
1.9416181e-07
3.8088298e-09
2.0082456e-07
3.2575154e-09
2.0364565e-07
2.3642708e-09
2.0451685e-07
1.2398887e-09
2.0459685e-07
8.109694e-14
2.0450769e-07
-1.2397521e-09
2.0450769e-07
-2.3641609e-09
2.0459679e-07
-3.2574359e-09
2.0451677e-07
-3.8087798e-09
2.0364557e-07
-3.9239543e-09
2.0082452e-07
-3.5487075e-09
1.9416189e-07
-2.7102873e-09
1.8086287e-07
-1.5767605e-09
1.5701556e-07
-5.0513462e-10
1.1694988e-07
5.1535612e-08
3.0890137e-10
5.122653e-08
9.9317611e-10
1.162653e-07
1.7526395e-09
1.5625583e-07
2.3514146e-09
1.8026392e-07
2.6573462e-09
1.9385587e-07
2.6276023e-09
2.0085424e-07
2.2807493e-09
2.0399249e-07
1.6731253e-09
2.0512441e-07
8.8310358e-10
2.0538685e-07
6.6539345e-14
2.053907e-07
-8.8300331e-10
2.0539068e-07
-1.6730241e-09
2.0538678e-07
-2.2806653e-09
2.0512434e-07
-2.6275548e-09
2.0399244e-07
-2.6572984e-09
2.0085421e-07
-2.3514016e-09
1.9385596e-07
-1.7526488e-09
1.8026409e-07
-9.9319914e-10
1.5625607e-07
-3.0891225e-10
1.1626556e-07
5.1226679e-08
1.8995105e-10
5.1036559e-08
6.2657425e-10
1.1582866e-07
1.1306087e-09
1.5575177e-07
1.5487852e-09
1.7984574e-07
1.783562e-09
1.936211e-07
1.7923673e-09
2.008454e-07
1.5760886e-09
2.0420876e-07
1.1671356e-09
2.0553332e-07
6.1954986e-10
2.0593442e-07
4.3517824e-14
2.0601019e-07
-6.1947342e-10
2.0601016e-07
-1.167063e-09
2.0593437e-07
-1.5760162e-09
2.0553327e-07
-1.7923419e-09
2.0420869e-07
-1.7835195e-09
2.008454e-07
-1.5487877e-09
1.9362118e-07
-1.1306191e-09
1.7984594e-07
-6.2660033e-10
1.5575205e-07
-1.8996469e-10
1.1582894e-07
5.103673e-08
1.1693931e-10
5.0919606e-08
3.9543238e-10
1.1555017e-07
7.27962e-10
1.5541926e-07
1.0155922e-09
1.7955812e-07
1.1889911e-09
1.9344772e-07
1.2119263e-09
2.0082246e-07
1.0779033e-09
2.043428e-07
8.0485303e-10
2.0580638e-07
4.2937879e-10
2.0630991e-07
1.7047428e-14
2.0643955e-07
-4.2934413e-10
2.0643954e-07
-8.0481662e-10
2.0630986e-07
-1.0778735e-09
2.0580632e-07
-1.2118926e-09
2.0434276e-07
-1.1889853e-09
2.0082247e-07
-1.0156252e-09
1.9344781e-07
-7.2798345e-10
1.7955832e-07
-3.9546259e-10
1.5541953e-07
-1.1695682e-10
1.1555047e-07
5.0919783e-08
7.178538e-11
5.0847823e-08
2.4923516e-10
1.1537274e-07
4.6768246e-10
1.5520081e-07
6.6344621e-10
1.7936236e-07
7.882439e-10
1.9332297e-07
8.1359902e-10
2.0079711e-07
7.3094228e-10
2.0442547e-07
5.497944e-10
2.0598753e-07
2.9459182e-10
2.0656513e-07
6.4991779e-15
2.0673419e-07
-2.9459424e-10
2.0673416e-07
-5.4978044e-10
2.0656508e-07
-7.3093996e-10
2.0598748e-07
-8.136113e-10
2.0442546e-07
-7.8827463e-10
2.0079715e-07
-6.6348443e-10
1.9332306e-07
-4.6771687e-10
1.7936258e-07
-2.4924582e-10
1.5520111e-07
-7.1792481e-11
1.1537303e-07
5.0847991e-08
4.37188e-11
5.0804123e-08
1.5654418e-10
1.1525999e-07
2.9955124e-10
1.5505778e-07
4.3177716e-10
1.7923018e-07
5.1995757e-10
1.9323479e-07
5.4282016e-10
2.007743e-07
4.9204376e-10
2.0447625e-07
3.7252175e-10
2.0610708e-07
2.003806e-10
2.0673728e-07
-2.311267e-14
2.069346e-07
-2.0042971e-10
2.0693458e-07
-3.7255513e-10
2.0673723e-07
-4.9206902e-10
2.0610705e-07
-5.4284321e-10
2.0447622e-07
-5.1999477e-10
2.0077432e-07
-4.3179933e-10
1.932349e-07
-2.995728e-10
1.7923039e-07
-1.5655163e-10
1.5505808e-07
-4.3719053e-11
1.1526026e-07
5.0804271e-08
2.6317066e-11
5.0777809e-08
9.7732761e-11
1.1518858e-07
1.9106148e-10
1.5496449e-07
2.7977269e-10
1.7914144e-07
3.4130099e-10
1.9317326e-07
3.6005619e-10
2.0075552e-07
3.2908987e-10
2.0450723e-07
2.5060557e-10
2.0618556e-07
1.3527469e-10
2.0685259e-07
-4.2571188e-14
2.0706992e-07
-1.3533457e-10
2.0706991e-07
-2.5066666e-10
2.0685256e-07
-3.2913703e-10
2.0618552e-07
-3.601051e-10
2.045072e-07
-3.4135272e-10
2.0075557e-07
-2.7980861e-10
1.9317337e-07
-1.9105352e-10
1.7914165e-07
-9.7743069e-11
1.5496477e-07
-2.6333824e-11
1.1518887e-07
5.0777964e-08
1.5546894e-11
5.0762282e-08
6.0485526e-11
1.1514363e-07
1.2111382e-10
1.5490383e-07
1.8033725e-10
1.790822e-07
2.228418e-10
1.9313074e-07
2.3748152e-10
2.0074091e-07
2.1872231e-10
2.0452596e-07
1.6746409e-10
2.0623684e-07
9.0675944e-11
2.069294e-07
-4.4519944e-14
2.0716067e-07
-9.0783967e-11
2.0716064e-07
-1.6755125e-10
2.0692935e-07
-2.1879222e-10
2.0623681e-07
-2.3753334e-10
2.0452595e-07
-2.2290699e-10
2.0074094e-07
-1.8038916e-10
1.9313085e-07
-1.2110391e-10
1.7908241e-07
-6.0473447e-11
1.5490415e-07
-1.5550253e-11
1.1514393e-07
5.0762442e-08
8.9253725e-12
5.0753341e-08
3.6971846e-11
1.1511561e-07
7.6173403e-11
1.5486463e-07
1.1551641e-10
1.7904284e-07
1.4467089e-10
1.9310161e-07
1.5571512e-10
2.0072985e-07
1.4448952e-10
2.0453718e-07
1.1119931e-10
2.0627011e-07
6.0392523e-11
2.0698019e-07
-6.5367532e-14
2.0722108e-07
-6.0489168e-11
2.0722107e-07
-1.1129472e-10
2.0698017e-07
-1.4457409e-10
2.0627006e-07
-1.557725e-10
2.0453716e-07
-1.4471838e-10
2.0072986e-07
-1.1557147e-10
1.9310169e-07
-7.6192561e-11
1.7904303e-07
-3.6957295e-11
1.5486493e-07
-8.9317127e-12
1.151159e-07
5.0753534e-08
4.9189229e-12
5.0748421e-08
2.2194474e-11
1.150983e-07
4.7413575e-11
1.5483945e-07
7.3434101e-11
1.7901678e-07
9.3284066e-11
1.9308174e-07
1.014708e-10
2.0072167e-07
9.4845862e-11
2.045438e-07
7.3377508e-11
2.062916e-07
3.9952029e-11
2.070136e-07
-5.6039054e-14
2.0726108e-07
-4.0073477e-11
2.0726107e-07
-7.3489289e-11
2.0701357e-07
-9.4951271e-11
2.0629154e-07
-1.0155148e-10
2.0454375e-07
-9.3361328e-11
2.0072167e-07
-7.3489025e-11
1.930818e-07
-4.7437135e-11
1.7901696e-07
-2.2215632e-11
1.5483971e-07
-4.923442e-12
1.150986e-07
5.0748603e-08
2.5227943e-12
5.0745895e-08
1.3030483e-11
1.1508781e-07
2.9112535e-11
1.5482336e-07
4.6265899e-11
1.7899968e-07
5.9711577e-11
1.9306831e-07
6.5668258e-11
2.0071574e-07
6.1894491e-11
2.045476e-07
4.8091672e-11
2.0630535e-07
2.6250057e-11
2.0703544e-07
-7.4779867e-14
2.072874e-07
-2.640097e-11
2.0728737e-07
-4.8234959e-11
2.0703537e-07
-6.1994395e-11
2.0630529e-07
-6.5787193e-11
2.0454752e-07
-5.9802652e-11
2.0071568e-07
-4.6321898e-11
1.9306834e-07
-2.9173727e-11
1.7899983e-07
-1.3053387e-11
1.5482359e-07
-2.545281e-12
1.1508808e-07
5.0746077e-08
1.1554411e-12
5.0744765e-08
7.427659e-12
1.1508155e-07
1.7603145e-11
1.5481317e-07
2.8826422e-11
1.7898846e-07
3.7907297e-11
1.9305925e-07
4.2196325e-11
2.0071147e-07
4.0093817e-11
2.0454975e-07
3.1320764e-11
2.0631415e-07
1.7134746e-11
2.0704966e-07
-1.0456663e-13
2.0730464e-07
-1.7310507e-11
2.073046e-07
-3.1484133e-11
2.0704958e-07
-4.0244894e-11
2.0631407e-07
-4.2348758e-11
2.0454966e-07
-3.8029079e-11
2.007114e-07
-2.8929108e-11
1.9305924e-07
-1.766712e-11
1.7898855e-07
-7.4450509e-12
1.548134e-07
-1.163713e-12
1.1508181e-07
5.0744929e-08
3.8417691e-13
5.0744402e-08
4.0369502e-12
1.1507794e-07
1.0453078e-11
1.548068e-07
1.7780547e-11
1.7898116e-07
2.388084e-11
1.9305318e-07
2.693681e-11
2.0070845e-07
2.581469e-11
2.045509e-07
2.0272619e-11
2.063197e-07
1.1108331e-11
2.0705883e-07
-1.1582969e-13
2.0731587e-07
-1.132449e-11
2.0731584e-07
-2.0488482e-11
2.0705878e-07
-2.6016027e-11
2.0631962e-07
-2.7123866e-11
2.0455081e-07
-2.4039914e-11
2.0070834e-07
-1.7896403e-11
1.9305311e-07
-1.0529536e-11
1.7898122e-07
-4.0865068e-12
1.5480695e-07
-4.0221053e-13
1.1507814e-07
5.0744547e-08
9.5102246e-15
5.0744409e-08
2.0734596e-12
1.1507589e-07
6.0988156e-12
1.5480281e-07
1.0885863e-11
1.7897644e-07
1.4986797e-11
1.9304912e-07
1.7135668e-11
2.007063e-07
1.6559218e-11
2.0455151e-07
1.3065031e-11
2.0632324e-07
7.1419605e-12
2.0706479e-07
-1.3765701e-13
2.0732316e-07
-7.4299911e-12
2.0732314e-07
-1.3318136e-11
2.0706472e-07
-1.6808275e-11
2.0632313e-07
-1.7356965e-11
2.045514e-07
-1.516417e-11
2.0070619e-07
-1.1037049e-11
1.9304901e-07
-6.2158732e-12
1.7897643e-07
-2.1512698e-12
1.548029e-07
-1.8901955e-14
1.1507603e-07
5.0744536e-08
-1.4454473e-13
5.074462e-08
1.0454244e-12
1.1507471e-07
3.5702872e-12
1.5480031e-07
6.6929588e-12
1.7897336e-07
9.4482626e-12
1.9304641e-07
1.0952718e-11
2.0070485e-07
1.0645948e-11
2.0455185e-07
8.4206048e-12
2.0632549e-07
4.5825002e-12
2.0706867e-07
-1.5934683e-13
2.0732798e-07
-4.8973245e-12
2.0732797e-07
-8.757883e-12
2.070686e-07
-1.0957307e-11
2.0632538e-07
-1.1213136e-11
2.0455171e-07
-9.689075e-12
2.0070468e-07
-6.8998076e-12
1.9304626e-07
-3.7227002e-12
1.7897325e-07
-1.1225181e-12
1.5480029e-07
1.3303905e-13
1.1507481e-07
5.0744668e-08
-1.672576e-13
5.0744795e-08
5.8904782e-13
1.1507404e-07
2.2320787e-12
1.5479869e-07
4.3097631e-12
1.7897134e-07
6.1528376e-12
1.9304463e-07
7.1675221e-12
2.0070389e-07
6.9850799e-12
2.0455208e-07
5.5015594e-12
2.0632702e-07
2.9651257e-12
2.0707127e-07
-1.7042825e-13
2.0733118e-07
-3.3204371e-12
2.0733117e-07
-5.8808966e-12
2.0707118e-07
-7.337633e-12
2.063269e-07
-7.5003023e-12
2.045519e-07
-6.4608152e-12
2.0070369e-07
-4.5594509e-12
1.9304442e-07
-2.4284118e-12
1.7897118e-07
-6.7624061e-13
1.5479861e-07
1.4131048e-13
1.1507404e-07
5.0744852e-08
-5.8487795e-14
5.0744931e-08
5.3162517e-13
1.1507349e-07
1.7068703e-12
1.5479754e-07
3.1477007e-12
1.7896997e-07
4.3626992e-12
1.9304345e-07
4.9818057e-12
2.0070331e-07
4.8085506e-12
2.0455231e-07
3.7529545e-12
2.0632812e-07
1.9746919e-12
2.070731e-07
-2.1210648e-13
2.073334e-07
-2.3867676e-12
2.0733338e-07
-4.1521891e-12
2.0707301e-07
-5.209012e-12
2.0632798e-07
-5.3689892e-12
2.0455211e-07
-4.7011311e-12
2.0070305e-07
-3.4273085e-12
1.9304319e-07
-1.9317946e-12
1.7896971e-07
-6.4238897e-13
1.5479736e-07
1.9112741e-14
1.1507337e-07
5.0744892e-08
1.2743491e-13
5.0744837e-08
8.1746293e-13
1.1507287e-07
1.8183202e-12
1.547966e-07
2.8282375e-12
1.7896899e-07
3.6228239e-12
1.9304273e-07
3.909814e-12
2.0070305e-07
3.6530659e-12
2.0455264e-07
2.7512975e-12
2.0632903e-07
1.3953699e-12
2.070745e-07
-2.2643653e-13
2.073351e-07
-1.845822e-12
2.0733504e-07
-3.207113e-12
2.0707439e-07
-4.0891619e-12
2.0632886e-07
-4.3429195e-12
2.0455239e-07
-3.981347e-12
2.0070273e-07
-3.1633746e-12
1.9304239e-07
-2.0475324e-12
1.7896861e-07
-9.5617095e-13
1.5479628e-07
-1.613631e-13
1.1507263e-07
5.0744736e-08
4.6197096e-13
5.0744386e-08
1.4549897e-12
1.1507194e-07
2.4473047e-12
1.5479568e-07
3.2007457e-12
1.7896828e-07
3.6300065e-12
1.9304238e-07
3.5922426e-12
2.007031e-07
3.1574693e-12
2.0455314e-07
2.2799156e-12
2.0632994e-07
1.1255781e-12
2.0707572e-07
-2.4579119e-13
2.0733648e-07
-1.5934691e-12
2.0733642e-07
-2.8018268e-12
2.0707559e-07
-3.6505561e-12
2.0632976e-07
-4.073047e-12
2.0455286e-07
-4.0312896e-12
2.0070273e-07
-3.5653923e-12
1.9304193e-07
-2.6935057e-12
1.7896778e-07
-1.6060264e-12
1.5479519e-07
-5.0455878e-13
1.1507154e-07
5.0744237e-08
1.1150826e-12
5.0743313e-08
2.5804868e-12
1.1507046e-07
3.6002559e-12
1.5479469e-07
4.1064966e-12
1.7896781e-07
4.1686855e-12
1.9304237e-07
3.8193514e-12
2.0070346e-07
3.1106649e-12
2.0455384e-07
2.1597071e-12
2.0633096e-07
1.0006172e-12
2.0707693e-07
-2.7155788e-13
2.0733777e-07
-1.5529243e-12
2.0733772e-07
-2.7108332e-12
2.0707678e-07
-3.6787074e-12
2.0633075e-07
-4.3429796e-12
2.0455355e-07
-4.6330697e-12
2.0070303e-07
-4.5114661e-12
1.9304182e-07
-3.8816775e-12
1.7896719e-07
-2.7329813e-12
1.5479404e-07
-1.1475063e-12
1.1506995e-07
5.0743085e-08
1.9805934e-12
5.0741334e-08
4.007135e-12
1.1506845e-07
4.9783427e-12
1.5479373e-07
5.2268051e-12
1.7896759e-07
4.9158765e-12
1.9304265e-07
4.2718038e-12
2.0070415e-07
3.3278454e-12
2.0455482e-07
2.1945316e-12
2.0633209e-07
9.4661656e-13
2.0707817e-07
-3.1541623e-13
2.0733908e-07
-1.5988682e-12
2.0733901e-07
-2.8029283e-12
2.0707801e-07
-3.9159867e-12
2.0633186e-07
-4.8333177e-12
2.0455445e-07
-5.4290162e-12
2.0070364e-07
-5.6333882e-12
1.9304203e-07
-5.2920502e-12
1.7896687e-07
-4.1914673e-12
1.5479294e-07
-2.0432936e-12
1.1506781e-07
5.0741052e-08
2.4937109e-12
4.6213266e-12
5.53186e-12
5.6877206e-12
5.2449495e-12
4.4441809e-12
3.3876692e-12
2.1755359e-12
9.3815412e-13
-3.441521e-13
-1.6198712e-12
-2.8538124e-12
-4.028157e-12
-5.0233357e-12
-5.760728e-12
-6.1046593e-12
-5.9044295e-12
-4.8213903e-12
-2.5500617e-12
)
;

boundaryField
{
    Wall
    {
        type            calculated;
        value           uniform 0;
    }
    frontAndBack
    {
        type            empty;
        value           nonuniform 0();
    }
    atmosphere
    {
        type            calculated;
        value           nonuniform List<scalar> 
20
(
5.0738853e-08
1.1506634e-07
1.5479277e-07
1.7896748e-07
1.9304306e-07
2.0070497e-07
2.0455587e-07
2.063333e-07
2.0707941e-07
2.0734034e-07
2.0734029e-07
2.0707929e-07
2.0633304e-07
2.0455547e-07
2.0070438e-07
1.930424e-07
1.7896664e-07
1.5479188e-07
1.1506555e-07
5.0738479e-08
)
;
    }
}


// ************************************************************************* //
