/*--------------------------------*- C++ -*----------------------------------*\
| =========                 |                                                 |
| \\      /  F ield         | OpenFOAM: The Open Source CFD Toolbox           |
|  \\    /   O peration     | Version:  3.0.1                                 |
|   \\  /    A nd           | Web:      www.OpenFOAM.org                      |
|    \\/     M anipulation  |                                                 |
\*---------------------------------------------------------------------------*/
FoamFile
{
    version     2.0;
    format      ascii;
    class       volScalarField;
    location    "17";
    object      Psi2;
}
// * * * * * * * * * * * * * * * * * * * * * * * * * * * * * * * * * * * * * //

dimensions      [0 -2 2 0 0 0 0];

internalField   nonuniform List<scalar> 
800
(
0.001828356
0.0018283395
0.0018283479
0.0018283541
0.0018283588
0.0018283625
0.0018283653
0.0018283673
0.0018283686
0.0018283693
0.0018283693
0.0018283686
0.0018283673
0.0018283653
0.0018283625
0.0018283588
0.0018283541
0.0018283479
0.0018283395
0.001828356
0.0019492453
0.0019456177
0.0019452547
0.0019451868
0.0019451467
0.0019450992
0.0019450536
0.0019450173
0.001944993
0.0019449809
0.0019449809
0.001944993
0.0019450173
0.0019450536
0.0019450992
0.0019451466
0.0019451867
0.0019452547
0.0019456177
0.0019492453
0.0021244037
0.0021187781
0.0021161568
0.0021159545
0.0021158569
0.0021157546
0.0021156612
0.002115588
0.0021155391
0.0021155147
0.0021155147
0.0021155391
0.002115588
0.0021156612
0.0021157546
0.0021158569
0.0021159545
0.0021161568
0.0021187781
0.0021244037
0.002416138
0.0024044921
0.0024004171
0.0024001101
0.0023999474
0.0023997853
0.0023996425
0.0023995326
0.00239946
0.0023994241
0.0023994241
0.0023994601
0.0023995326
0.0023996425
0.0023997853
0.0023999474
0.00240011
0.002400417
0.0024044921
0.0024161381
0.0028578621
0.0028393156
0.0028340985
0.0028335469
0.0028332243
0.0028329524
0.0028327395
0.002832588
0.0028324927
0.0028324467
0.0028324467
0.0028324927
0.0028325881
0.0028327395
0.0028329524
0.0028332243
0.0028335469
0.0028340984
0.0028393155
0.0028578621
0.0034861132
0.0034494309
0.0034425318
0.0034412013
0.0034404618
0.0034399617
0.0034396324
0.0034394343
0.0034393184
0.003439265
0.003439265
0.0034393184
0.0034394343
0.0034396324
0.0034399617
0.0034404617
0.0034412011
0.0034425317
0.0034494307
0.0034861132
0.0045328901
0.0044539914
0.0044366641
0.0044334707
0.0044318316
0.004430919
0.0044304111
0.0044301548
0.0044300205
0.0044299686
0.0044299686
0.0044300206
0.0044301548
0.0044304111
0.0044309189
0.0044318314
0.0044334705
0.0044366637
0.004453991
0.0045328899
0.0061930466
0.0060766204
0.0060490271
0.0060433292
0.0060408706
0.0060398669
0.0060394992
0.0060393954
0.0060393881
0.0060394161
0.0060394161
0.0060393881
0.0060393955
0.0060394991
0.0060398666
0.00604087
0.0060433286
0.0060490263
0.0060766194
0.0061930457
0.0079724252
0.0078007393
0.0077548073
0.0077469887
0.0077460713
0.0077468897
0.0077479238
0.0077487048
0.0077492384
0.0077495511
0.0077495512
0.0077492384
0.0077487049
0.0077479237
0.0077468891
0.0077460704
0.0077469875
0.0077548061
0.0078007378
0.0079724236
0.0095112204
0.0092342016
0.0091561791
0.0091437399
0.0091473788
0.0091533686
0.0091583014
0.0091615417
0.0091635056
0.0091645076
0.0091645078
0.0091635058
0.0091615421
0.0091583014
0.0091533681
0.009147378
0.0091437388
0.009156178
0.0092342002
0.0095112186
0.010485038
0.010166401
0.010062634
0.010039626
0.010043176
0.01005275
0.010061573
0.010067783
0.010071632
0.010073533
0.010073533
0.010071632
0.010067784
0.010061573
0.010052749
0.010043175
0.010039625
0.010062633
0.0101664
0.010485037
0.010857845
0.010653489
0.010561974
0.010533567
0.010532101
0.010539305
0.010547482
0.010553783
0.010557868
0.0105599
0.0105599
0.010557868
0.010553784
0.010547482
0.010539305
0.010532101
0.010533567
0.010561974
0.010653489
0.010857845
0.010947042
0.010860299
0.010802
0.010778245
0.010773751
0.010777087
0.01078228
0.01078668
0.010789664
0.01079117
0.01079117
0.010789664
0.010786681
0.010782281
0.010777087
0.010773751
0.010778244
0.010802
0.010860299
0.010947042
0.01096205
0.010933785
0.010904416
0.01088919
0.010884775
0.010885671
0.010888259
0.010890691
0.010892414
0.010893298
0.010893298
0.010892414
0.010890691
0.010888259
0.010885672
0.010884775
0.01088919
0.010904416
0.010933785
0.01096205
0.01096402
0.010956275
0.01094386
0.010935768
0.01093274
0.010932685
0.01093376
0.010934904
0.010935752
0.010936193
0.010936193
0.010935752
0.010934904
0.01093376
0.010932685
0.01093274
0.010935768
0.01094386
0.010956275
0.01096402
0.010964238
0.010962355
0.01095777
0.010954032
0.010952342
0.010952096
0.010952477
0.010952954
0.010953324
0.010953519
0.010953519
0.010953324
0.010952954
0.010952477
0.010952096
0.010952342
0.010954032
0.01095777
0.010962355
0.010964238
0.010964259
0.01096384
0.010962316
0.01096077
0.010959951
0.01095976
0.010959874
0.010960053
0.0109602
0.010960279
0.010960279
0.0109602
0.010960053
0.010959874
0.01095976
0.010959951
0.01096077
0.010962316
0.01096384
0.010964259
0.010964261
0.010964174
0.010963708
0.010963122
0.010962766
0.010962659
0.010962686
0.010962747
0.010962801
0.010962831
0.010962831
0.010962801
0.010962748
0.010962686
0.010962659
0.010962766
0.010963122
0.010963708
0.010964174
0.010964261
0.010964261
0.010964244
0.010964111
0.010963905
0.010963762
0.010963712
0.010963715
0.010963734
0.010963753
0.010963763
0.010963763
0.010963753
0.010963734
0.010963715
0.010963712
0.010963762
0.010963905
0.010964111
0.010964244
0.010964261
0.010964261
0.010964258
0.010964222
0.010964154
0.010964101
0.010964079
0.010964078
0.010964084
0.01096409
0.010964093
0.010964093
0.01096409
0.010964084
0.010964078
0.010964079
0.010964101
0.010964154
0.010964222
0.010964258
0.010964261
0.010964261
0.01096426
0.010964251
0.01096423
0.010964211
0.010964203
0.010964202
0.010964203
0.010964205
0.010964206
0.010964206
0.010964205
0.010964203
0.010964202
0.010964203
0.010964211
0.01096423
0.010964251
0.01096426
0.010964261
0.010964261
0.010964261
0.010964259
0.010964252
0.010964246
0.010964243
0.010964242
0.010964243
0.010964243
0.010964244
0.010964244
0.010964243
0.010964243
0.010964242
0.010964243
0.010964246
0.010964252
0.010964259
0.010964261
0.010964261
0.010964261
0.010964261
0.01096426
0.010964259
0.010964257
0.010964256
0.010964255
0.010964255
0.010964256
0.010964256
0.010964256
0.010964256
0.010964255
0.010964255
0.010964256
0.010964257
0.010964259
0.01096426
0.010964261
0.010964261
0.010964261
0.010964261
0.010964261
0.01096426
0.01096426
0.010964259
0.010964259
0.010964259
0.010964259
0.010964259
0.010964259
0.010964259
0.010964259
0.010964259
0.010964259
0.01096426
0.01096426
0.010964261
0.010964261
0.010964261
0.010964261
0.010964261
0.010964261
0.010964261
0.010964261
0.010964261
0.010964261
0.010964261
0.010964261
0.010964261
0.010964261
0.010964261
0.010964261
0.010964261
0.010964261
0.010964261
0.010964261
0.010964261
0.010964261
0.010964261
0.010964261
0.010964261
0.010964261
0.010964261
0.010964261
0.010964261
0.010964261
0.010964261
0.010964261
0.010964261
0.010964261
0.010964261
0.010964261
0.010964261
0.010964261
0.010964261
0.010964261
0.010964261
0.010964261
0.010964261
0.010964261
0.010964261
0.010964261
0.010964261
0.010964261
0.010964261
0.010964261
0.010964261
0.010964261
0.010964261
0.010964261
0.010964261
0.010964261
0.010964261
0.010964261
0.010964261
0.010964261
0.010964261
0.010964261
0.010964261
0.010964261
0.010964261
0.010964261
0.010964261
0.010964261
0.010964261
0.010964261
0.010964261
0.010964261
0.010964261
0.010964261
0.010964261
0.010964261
0.010964261
0.010964261
0.010964261
0.010964261
0.010964261
0.010964261
0.010964261
0.010964261
0.010964261
0.010964261
0.010964261
0.010964261
0.010964261
0.010964261
0.010964261
0.010964261
0.010964261
0.010964261
0.010964261
0.010964261
0.010964261
0.010964261
0.010964261
0.010964261
0.010964261
0.010964261
0.010964261
0.010964261
0.010964261
0.010964261
0.010964261
0.010964261
0.010964261
0.010964261
0.010964261
0.010964261
0.010964261
0.010964261
0.010964261
0.010964261
0.010964261
0.010964261
0.010964261
0.010964261
0.010964261
0.010964261
0.010964261
0.010964261
0.010964261
0.010964261
0.010964261
0.010964261
0.010964261
0.010964261
0.010964261
0.010964261
0.010964261
0.010964261
0.010964261
0.010964261
0.010964261
0.010964261
0.010964261
0.010964261
0.010964261
0.010964261
0.010964261
0.010964261
0.010964261
0.010964261
0.010964261
0.010964261
0.010964261
0.010964261
0.010964261
0.010964261
0.010964261
0.010964261
0.010964261
0.010964261
0.010964261
0.010964261
0.010964261
0.010964261
0.010964261
0.010964261
0.010964261
0.010964261
0.010964261
0.010964261
0.010964261
0.010964261
0.010964261
0.010964261
0.010964261
0.010964261
0.010964261
0.010964261
0.010964261
0.010964261
0.010964261
0.010964261
0.010964261
0.010964261
0.010964261
0.010964261
0.010964261
0.010964261
0.010964261
0.010964261
0.010964261
0.010964261
0.010964261
0.010964261
0.010964261
0.010964261
0.010964261
0.010964261
0.010964261
0.010964261
0.010964261
0.010964261
0.010964261
0.010964261
0.010964261
0.010964261
0.010964261
0.010964261
0.010964261
0.010964261
0.010964261
0.010964261
0.010964261
0.010964261
0.010964261
0.010964261
0.010964261
0.010964261
0.010964261
0.010964261
0.010964261
0.010964261
0.010964261
0.010964261
0.010964261
0.010964261
0.010964261
0.010964261
0.010964261
0.010964261
0.010964261
0.010964261
0.010964261
0.010964261
0.010964261
0.010964261
0.010964261
0.010964261
0.010964261
0.010964261
0.010964261
0.010964261
0.010964261
0.010964261
0.010964261
0.010964261
0.010964261
0.010964261
0.010964261
0.010964261
0.010964261
0.010964261
0.010964261
0.010964261
0.010964261
0.010964261
0.010964261
0.010964261
0.010964261
0.010964261
0.010964261
0.010964261
0.010964261
0.010964261
0.010964261
0.010964261
0.010964261
0.010964261
0.010964261
0.010964261
0.010964261
0.010964261
0.010964261
0.010964261
0.010964261
0.010964261
0.010964261
0.010964261
0.010964261
0.010964261
0.010964261
0.010964261
0.010964261
0.010964261
0.010964261
0.010964261
0.010964261
0.010964261
0.010964261
0.010964261
0.010964261
0.010964261
0.010964261
0.010964261
0.010964261
0.010964261
0.010964261
0.010964261
0.010964261
0.010964261
0.010964261
0.010964261
0.010964261
0.010964261
0.010964261
0.010964261
0.010964261
0.010964261
0.010964261
0.010964261
0.010964261
0.010964261
0.010964261
0.010964261
0.010964261
0.010964261
0.010964261
0.010964261
0.010964261
0.010964261
0.010964261
0.010964261
0.010964261
0.010964261
0.010964261
0.010964261
0.010964261
)
;

boundaryField
{
    Wall
    {
        type            calculated;
        value           nonuniform List<scalar> 
100
(
9.9999998e-21
9.9999998e-21
9.9999998e-21
9.9999998e-21
9.9999998e-21
9.9999999e-21
9.9999999e-21
1e-20
1e-20
1e-20
1e-20
1e-20
1e-20
1e-20
1e-20
1e-20
1e-20
1e-20
1e-20
1e-20
1e-20
1e-20
1e-20
1e-20
1e-20
1e-20
1e-20
1e-20
1e-20
1e-20
1e-20
1e-20
1e-20
1e-20
1e-20
1e-20
1e-20
1e-20
1e-20
1e-20
9.9999998e-21
9.9999998e-21
9.9999998e-21
9.9999998e-21
9.9999998e-21
9.9999999e-21
9.9999999e-21
1e-20
1e-20
1e-20
1e-20
1e-20
1e-20
1e-20
1e-20
1e-20
1e-20
1e-20
1e-20
1e-20
1e-20
1e-20
1e-20
1e-20
1e-20
1e-20
1e-20
1e-20
1e-20
1e-20
1e-20
1e-20
1e-20
1e-20
1e-20
1e-20
1e-20
1e-20
1e-20
1e-20
9.9999998e-21
9.9999998e-21
9.9999998e-21
9.9999998e-21
9.9999998e-21
9.9999998e-21
9.9999998e-21
9.9999998e-21
9.9999998e-21
9.9999998e-21
9.9999998e-21
9.9999998e-21
9.9999998e-21
9.9999998e-21
9.9999998e-21
9.9999998e-21
9.9999998e-21
9.9999998e-21
9.9999998e-21
9.9999998e-21
)
;
    }
    frontAndBack
    {
        type            empty;
    }
    atmosphere
    {
        type            calculated;
        value           uniform 1e-20;
    }
}


// ************************************************************************* //
