/*--------------------------------*- C++ -*----------------------------------*\
| =========                 |                                                 |
| \\      /  F ield         | OpenFOAM: The Open Source CFD Toolbox           |
|  \\    /   O peration     | Version:  3.0.1                                 |
|   \\  /    A nd           | Web:      www.OpenFOAM.org                      |
|    \\/     M anipulation  |                                                 |
\*---------------------------------------------------------------------------*/
FoamFile
{
    version     2.0;
    format      ascii;
    class       volScalarField;
    location    "17";
    object      rho;
}
// * * * * * * * * * * * * * * * * * * * * * * * * * * * * * * * * * * * * * //

dimensions      [1 -3 0 0 0 0 0];

internalField   nonuniform List<scalar> 
800
(
182.8356
182.83396
182.83479
182.83541
182.83588
182.83625
182.83653
182.83674
182.83687
182.83693
182.83693
182.83687
182.83674
182.83653
182.83625
182.83588
182.83541
182.83479
182.83396
182.8356
194.92453
194.56177
194.52548
194.51868
194.51467
194.50993
194.50536
194.50173
194.4993
194.49809
194.49809
194.4993
194.50173
194.50536
194.50992
194.51467
194.51868
194.52547
194.56177
194.92454
212.43071
211.86864
211.60655
211.58632
211.57655
211.56631
211.55698
211.54965
211.54476
211.54232
211.54232
211.54476
211.54965
211.55698
211.56631
211.57655
211.58631
211.60655
211.86863
212.43072
241.55153
240.39118
239.98413
239.9534
239.93709
239.92086
239.90656
239.89555
239.88829
239.88469
239.88469
239.88829
239.89556
239.90656
239.92086
239.93709
239.9534
239.98413
240.39118
241.55154
285.46738
283.64313
283.12519
283.07042
283.03806
283.0107
282.98924
282.97394
282.9643
282.95965
282.95965
282.9643
282.97394
282.98924
283.0107
283.03806
283.07041
283.12519
283.64313
285.46739
346.35627
343.03426
342.39443
342.27074
342.19751
342.14548
342.11028
342.0882
342.0751
342.06892
342.06892
342.0751
342.0882
342.11029
342.14548
342.1975
342.27074
342.39442
343.03425
346.35628
406.24209
408.65683
408.5716
408.53459
408.39462
408.23366
408.10483
408.00551
407.9431
407.91052
407.91053
407.94314
408.00557
408.10492
408.23377
408.39475
408.53475
408.57176
408.65701
406.24237
196.86865
222.40208
226.81637
227.45214
227.34351
226.9799
226.63644
226.33847
226.14513
226.03971
226.03975
226.14524
226.33867
226.63676
226.98033
227.34404
227.45277
226.81702
222.40279
196.8694
20.053298
25.914426
27.106309
27.215679
27.168994
27.072911
26.987461
26.91588
26.869891
26.844976
26.844985
26.869914
26.915923
26.98753
27.073007
27.169113
27.215819
27.106456
25.91458
20.053432
1.4556831
1.6501876
1.703559
1.703626
1.698823
1.6933711
1.6892203
1.6861396
1.6842339
1.6832392
1.6832394
1.6842345
1.6861407
1.6892222
1.6933739
1.6988265
1.7036302
1.7035634
1.6501919
1.455686
1.2002578
1.2009369
1.2012328
1.2012311
1.201195
1.2011571
1.2011295
1.2011106
1.2010992
1.2010935
1.2010935
1.2010992
1.2011106
1.2011295
1.2011571
1.201195
1.2012311
1.2012328
1.2009369
1.2002578
1.2000009
1.2000008
1.2000009
1.2000009
1.2000009
1.2000009
1.200001
1.200001
1.2000009
1.2000009
1.2000009
1.2000009
1.200001
1.200001
1.2000009
1.2000009
1.2000009
1.2000009
1.2000008
1.2000009
1.2000003
1.2000007
1.2000008
1.2000009
1.2000009
1.2000009
1.2000009
1.2000009
1.2000009
1.2000009
1.2000009
1.2000009
1.2000009
1.2000009
1.2000009
1.2000009
1.2000009
1.2000008
1.2000007
1.2000003
1.2
1.2000003
1.2000006
1.2000007
1.2000007
1.2000007
1.2000007
1.2000007
1.2000007
1.2000007
1.2000007
1.2000007
1.2000007
1.2000007
1.2000007
1.2000007
1.2000007
1.2000006
1.2000003
1.2
1.2
1.2000001
1.2000003
1.2000004
1.2000005
1.2000005
1.2000005
1.2000005
1.2000005
1.2000005
1.2000005
1.2000005
1.2000005
1.2000005
1.2000005
1.2000005
1.2000004
1.2000003
1.2000001
1.2
1.2
1.2000001
1.2000002
1.2000002
1.2000003
1.2000003
1.2000003
1.2000003
1.2000003
1.2000003
1.2000003
1.2000003
1.2000003
1.2000003
1.2000003
1.2000003
1.2000002
1.2000002
1.2000001
1.2
1.2
1.2
1.2000001
1.2000001
1.2000001
1.2000001
1.2000001
1.2000001
1.2000001
1.2000001
1.2000001
1.2000001
1.2000001
1.2000001
1.2000001
1.2000001
1.2000001
1.2000001
1.2
1.2
1.2
1.2
1.2
1.2000001
1.2000001
1.2000001
1.2000001
1.2000001
1.2000001
1.2000001
1.2000001
1.2000001
1.2000001
1.2000001
1.2000001
1.2000001
1.2000001
1.2
1.2
1.2
1.2
1.2
1.2
1.2
1.2
1.2
1.2
1.2
1.2
1.2
1.2
1.2
1.2
1.2
1.2
1.2
1.2
1.2
1.2
1.2
1.2
1.2
1.2
1.2
1.2
1.2
1.2
1.2
1.2
1.2
1.2
1.2
1.2
1.2
1.2
1.2
1.2
1.2
1.2
1.2
1.2
1.2
1.2
1.2
1.2
1.2
1.2
1.2
1.2
1.2
1.2
1.2
1.2
1.2
1.2
1.2
1.2
1.2
1.2
1.2
1.2
1.2
1.2
1.2
1.2
1.2
1.2
1.2
1.2
1.2
1.2
1.2
1.2
1.2
1.2
1.2
1.2
1.2
1.2
1.2
1.2
1.2
1.2
1.2
1.2
1.2
1.2
1.2
1.2
1.2
1.2
1.2
1.2
1.2
1.2
1.2
1.2
1.2
1.2
1.2
1.2
1.2
1.2
1.2
1.2
1.2
1.2
1.2
1.2
1.2
1.2
1.2
1.2
1.2
1.2
1.2
1.2
1.2
1.2
1.2
1.2
1.2
1.2
1.2
1.2
1.2
1.2
1.2
1.2
1.2
1.2
1.2
1.2
1.2
1.2
1.2
1.2
1.2
1.2
1.2
1.2
1.2
1.2
1.2
1.2
1.2
1.2
1.2
1.2
1.2
1.2
1.2
1.2
1.2
1.2
1.2
1.2
1.2
1.2
1.2
1.2
1.2
1.2
1.2
1.2
1.2
1.2
1.2
1.2
1.2
1.2
1.2
1.2
1.2
1.2
1.2
1.2
1.2
1.2
1.2
1.2
1.2
1.2
1.2
1.2
1.2
1.2
1.2
1.2
1.2
1.2
1.2
1.2
1.2
1.2
1.2
1.2
1.2
1.2
1.2
1.2
1.2
1.2
1.2
1.2
1.2
1.2
1.2
1.2
1.2
1.2
1.2
1.2
1.2
1.2
1.2
1.2
1.2
1.2
1.2
1.2
1.2
1.2
1.2
1.2
1.2
1.2
1.2
1.2
1.2
1.2
1.2
1.2
1.2
1.2
1.2
1.2
1.2
1.2
1.2
1.2
1.2
1.2
1.2
1.2
1.2
1.2
1.2
1.2
1.2
1.2
1.2
1.2
1.2
1.2
1.2
1.2
1.2
1.2
1.2
1.2
1.2
1.2
1.2
1.2
1.2
1.2
1.2
1.2
1.2
1.2
1.2
1.2
1.2
1.2
1.2
1.2
1.2
1.2
1.2
1.2
1.2
1.2
1.2
1.2
1.2
1.2
1.2
1.2
1.2
1.2
1.2
1.2
1.2
1.2
1.2
1.2
1.2
1.2
1.2
1.2
1.2
1.2
1.2
1.2
1.2
1.2
1.2
1.2
1.2
1.2
1.2
1.2
1.2
1.2
1.2
1.2
1.2
1.2
1.2
1.2
1.2
1.2
1.2
1.2
1.2
1.2
1.2
1.2
1.2
1.2
1.2
1.2
1.2
1.2
1.2
1.2
1.2
1.2
1.2
1.2
1.2
1.2
1.2
1.2
1.2
1.2
1.2
1.2
1.2
1.2
1.2
1.2
1.2
1.2
1.2
1.2
1.2
1.2
1.2
1.2
1.2
1.2
1.2
1.2
1.2
1.2
1.2
1.2
1.2
1.2
1.2
1.2
1.2
1.2
1.2
1.2
1.2
1.2
1.2
1.2
1.2
1.2
1.2
1.2
1.2
1.2
1.2
1.2
1.2
1.2
1.2
1.2
1.2
1.2
1.2
1.2
1.2
1.2
1.2
1.2
1.2
1.2
1.2
1.2
1.2
1.2
1.2
1.2
1.2
1.2
1.2
1.2
1.2
1.2
1.2
1.2
1.2
1.2
1.2
1.2
1.2
1.2
1.2
1.2
1.2
1.2
1.2
1.2
1.2
1.2
1.2
1.2
1.2
1.2
1.2
1.2
1.2
1.2
1.2
)
;

boundaryField
{
    Wall
    {
        type            calculated;
        value           nonuniform List<scalar> 
100
(
1e-15
5.027573e-12
5.4866737e-05
0.0003108497
0.0013443875
0.0077892399
0.12487874
0.8201252
1.1715795
1.199677
1.1999997
1.2
1.2
1.2
1.2
1.2
1.2
1.2
1.2
1.2
1.2
1.2
1.2
1.2
1.2
1.2
1.2
1.2
1.2
1.2
1.2
1.2
1.2
1.2
1.2
1.2
1.2
1.2
1.2
1.2
1e-15
2.2908395e-14
5.4866707e-05
0.00031084927
0.001344384
0.0077892036
0.12487796
0.8201237
1.1715793
1.199677
1.1999997
1.2
1.2
1.2
1.2
1.2
1.2
1.2
1.2
1.2
1.2
1.2
1.2
1.2
1.2
1.2
1.2
1.2
1.2
1.2
1.2
1.2
1.2
1.2
1.2
1.2
1.2
1.2
1.2
1.2
1e-15
1e-15
1.0000005e-15
1.000001e-15
1e-15
1.0000013e-15
1.0000011e-15
1.0000001e-15
1e-15
1e-15
1e-15
1e-15
1e-15
1.0000001e-15
1.0000001e-15
1e-15
1e-15
1e-15
1e-15
1e-15
)
;
    }
    frontAndBack
    {
        type            empty;
    }
    atmosphere
    {
        type            calculated;
        value           nonuniform List<scalar> 
20
(
1.2
1.2
1.2
1.2
1.2
1.2
1.2
1.2
1.2
1.2
1.2
1.2
1.2
1.2
1.2
1.2
1.2
1.2
1.2
1.2
)
;
    }
}


// ************************************************************************* //
