/*--------------------------------*- C++ -*----------------------------------*\
| =========                 |                                                 |
| \\      /  F ield         | OpenFOAM: The Open Source CFD Toolbox           |
|  \\    /   O peration     | Version:  3.0.1                                 |
|   \\  /    A nd           | Web:      www.OpenFOAM.org                      |
|    \\/     M anipulation  |                                                 |
\*---------------------------------------------------------------------------*/
FoamFile
{
    version     2.0;
    format      ascii;
    class       volScalarField;
    location    "17";
    object      rho_foam;
}
// * * * * * * * * * * * * * * * * * * * * * * * * * * * * * * * * * * * * * //

dimensions      [1 -3 0 0 0 0 0];

internalField   nonuniform List<scalar> 
800
(
182.8356
182.83396
182.83479
182.83541
182.83588
182.83625
182.83653
182.83674
182.83687
182.83693
182.83693
182.83687
182.83674
182.83653
182.83625
182.83588
182.83541
182.83479
182.83396
182.8356
194.92453
194.56177
194.52548
194.51868
194.51467
194.50993
194.50536
194.50173
194.4993
194.49809
194.49809
194.4993
194.50173
194.50536
194.50992
194.51467
194.51868
194.52547
194.56177
194.92454
212.44037
211.87781
211.61569
211.59545
211.58569
211.57546
211.56613
211.5588
211.55391
211.55147
211.55147
211.55391
211.5588
211.56613
211.57546
211.58569
211.59545
211.61568
211.87781
212.44038
241.61381
240.44921
240.04171
240.01101
239.99474
239.97854
239.96426
239.95327
239.94601
239.94241
239.94241
239.94601
239.95327
239.96426
239.97854
239.99474
240.01101
240.04171
240.44921
241.61381
285.78621
283.93156
283.40985
283.3547
283.32243
283.29524
283.27395
283.25881
283.24928
283.24468
283.24468
283.24928
283.25881
283.27395
283.29524
283.32243
283.35469
283.40985
283.93156
285.78622
348.61133
344.94309
344.25319
344.12013
344.04619
343.99618
343.96324
343.94344
343.93184
343.9265
343.9265
343.93184
343.94344
343.96324
343.99617
344.04618
344.12012
344.25317
344.94308
348.61132
453.28902
445.39914
443.66641
443.34708
443.18316
443.09191
443.04112
443.01548
443.00206
442.99687
442.99687
443.00206
443.01549
443.04111
443.0919
443.18314
443.34705
443.66638
445.3991
453.28899
619.30466
607.66204
604.90271
604.33293
604.08706
603.98669
603.94992
603.93954
603.93881
603.94161
603.94161
603.93881
603.93955
603.94991
603.98666
604.08701
604.33286
604.90263
607.66194
619.30457
797.24252
780.07393
775.48073
774.69887
774.60713
774.68897
774.79238
774.87048
774.92384
774.95511
774.95512
774.92384
774.87049
774.79237
774.68891
774.60704
774.69875
775.48061
780.07378
797.24237
951.12204
923.42017
915.61791
914.37399
914.73788
915.33686
915.83014
916.15417
916.35056
916.45076
916.45078
916.35058
916.15421
915.83014
915.33681
914.7378
914.37388
915.6178
923.42002
951.12186
1048.5038
1016.6401
1006.2634
1003.9626
1004.3176
1005.275
1006.1573
1006.7783
1007.1632
1007.3533
1007.3533
1007.1632
1006.7784
1006.1573
1005.2749
1004.3175
1003.9625
1006.2633
1016.6401
1048.5037
1085.7845
1065.3489
1056.1974
1053.3567
1053.2101
1053.9305
1054.7482
1055.3783
1055.7868
1055.99
1055.99
1055.7868
1055.3784
1054.7482
1053.9305
1053.2101
1053.3567
1056.1974
1065.3489
1085.7845
1094.7042
1086.0299
1080.2
1077.8245
1077.3751
1077.7087
1078.228
1078.668
1078.9664
1079.117
1079.117
1078.9664
1078.6681
1078.2281
1077.7087
1077.3751
1077.8244
1080.2
1086.0299
1094.7042
1096.205
1093.3785
1090.4416
1088.919
1088.4775
1088.5671
1088.8259
1089.0691
1089.2414
1089.3298
1089.3298
1089.2414
1089.0691
1088.8259
1088.5672
1088.4775
1088.919
1090.4416
1093.3785
1096.205
1096.402
1095.6275
1094.386
1093.5768
1093.274
1093.2685
1093.376
1093.4904
1093.5752
1093.6193
1093.6193
1093.5752
1093.4904
1093.376
1093.2685
1093.274
1093.5768
1094.386
1095.6275
1096.402
1096.4238
1096.2355
1095.777
1095.4032
1095.2342
1095.2096
1095.2477
1095.2954
1095.3324
1095.3519
1095.3519
1095.3324
1095.2954
1095.2477
1095.2096
1095.2342
1095.4032
1095.777
1096.2355
1096.4238
1096.4259
1096.384
1096.2316
1096.077
1095.9951
1095.976
1095.9874
1096.0053
1096.02
1096.0279
1096.0279
1096.02
1096.0053
1095.9874
1095.976
1095.9951
1096.077
1096.2316
1096.384
1096.4259
1096.4261
1096.4174
1096.3708
1096.3122
1096.2766
1096.2659
1096.2686
1096.2747
1096.2801
1096.2831
1096.2831
1096.2801
1096.2748
1096.2686
1096.2659
1096.2766
1096.3122
1096.3708
1096.4174
1096.4261
1096.4261
1096.4244
1096.4111
1096.3905
1096.3762
1096.3712
1096.3715
1096.3734
1096.3753
1096.3763
1096.3763
1096.3753
1096.3734
1096.3715
1096.3712
1096.3762
1096.3905
1096.4111
1096.4244
1096.4261
1096.4261
1096.4258
1096.4222
1096.4154
1096.4101
1096.4079
1096.4078
1096.4084
1096.409
1096.4093
1096.4093
1096.409
1096.4084
1096.4078
1096.4079
1096.4101
1096.4154
1096.4222
1096.4258
1096.4261
1096.4261
1096.426
1096.4251
1096.423
1096.4211
1096.4203
1096.4202
1096.4203
1096.4205
1096.4206
1096.4206
1096.4205
1096.4203
1096.4202
1096.4203
1096.4211
1096.423
1096.4251
1096.426
1096.4261
1096.4261
1096.4261
1096.4259
1096.4252
1096.4246
1096.4243
1096.4242
1096.4243
1096.4243
1096.4244
1096.4244
1096.4243
1096.4243
1096.4242
1096.4243
1096.4246
1096.4252
1096.4259
1096.4261
1096.4261
1096.4261
1096.4261
1096.426
1096.4259
1096.4257
1096.4256
1096.4255
1096.4255
1096.4256
1096.4256
1096.4256
1096.4256
1096.4255
1096.4255
1096.4256
1096.4257
1096.4259
1096.426
1096.4261
1096.4261
1096.4261
1096.4261
1096.4261
1096.426
1096.426
1096.4259
1096.4259
1096.4259
1096.4259
1096.4259
1096.4259
1096.4259
1096.4259
1096.4259
1096.4259
1096.426
1096.426
1096.4261
1096.4261
1096.4261
1096.4261
1096.4261
1096.4261
1096.4261
1096.4261
1096.4261
1096.4261
1096.4261
1096.4261
1096.4261
1096.4261
1096.4261
1096.4261
1096.4261
1096.4261
1096.4261
1096.4261
1096.4261
1096.4261
1096.4261
1096.4261
1096.4261
1096.4261
1096.4261
1096.4261
1096.4261
1096.4261
1096.4261
1096.4261
1096.4261
1096.4261
1096.4261
1096.4261
1096.4261
1096.4261
1096.4261
1096.4261
1096.4261
1096.4261
1096.4261
1096.4261
1096.4261
1096.4261
1096.4261
1096.4261
1096.4261
1096.4261
1096.4261
1096.4261
1096.4261
1096.4261
1096.4261
1096.4261
1096.4261
1096.4261
1096.4261
1096.4261
1096.4261
1096.4261
1096.4261
1096.4261
1096.4261
1096.4261
1096.4261
1096.4261
1096.4261
1096.4261
1096.4261
1096.4261
1096.4261
1096.4261
1096.4261
1096.4261
1096.4261
1096.4261
1096.4261
1096.4261
1096.4261
1096.4261
1096.4261
1096.4261
1096.4261
1096.4261
1096.4261
1096.4261
1096.4261
1096.4261
1096.4261
1096.4261
1096.4261
1096.4261
1096.4261
1096.4261
1096.4261
1096.4261
1096.4261
1096.4261
1096.4261
1096.4261
1096.4261
1096.4261
1096.4261
1096.4261
1096.4261
1096.4261
1096.4261
1096.4261
1096.4261
1096.4261
1096.4261
1096.4261
1096.4261
1096.4261
1096.4261
1096.4261
1096.4261
1096.4261
1096.4261
1096.4261
1096.4261
1096.4261
1096.4261
1096.4261
1096.4261
1096.4261
1096.4261
1096.4261
1096.4261
1096.4261
1096.4261
1096.4261
1096.4261
1096.4261
1096.4261
1096.4261
1096.4261
1096.4261
1096.4261
1096.4261
1096.4261
1096.4261
1096.4261
1096.4261
1096.4261
1096.4261
1096.4261
1096.4261
1096.4261
1096.4261
1096.4261
1096.4261
1096.4261
1096.4261
1096.4261
1096.4261
1096.4261
1096.4261
1096.4261
1096.4261
1096.4261
1096.4261
1096.4261
1096.4261
1096.4261
1096.4261
1096.4261
1096.4261
1096.4261
1096.4261
1096.4261
1096.4261
1096.4261
1096.4261
1096.4261
1096.4261
1096.4261
1096.4261
1096.4261
1096.4261
1096.4261
1096.4261
1096.4261
1096.4261
1096.4261
1096.4261
1096.4261
1096.4261
1096.4261
1096.4261
1096.4261
1096.4261
1096.4261
1096.4261
1096.4261
1096.4261
1096.4261
1096.4261
1096.4261
1096.4261
1096.4261
1096.4261
1096.4261
1096.4261
1096.4261
1096.4261
1096.4261
1096.4261
1096.4261
1096.4261
1096.4261
1096.4261
1096.4261
1096.4261
1096.4261
1096.4261
1096.4261
1096.4261
1096.4261
1096.4261
1096.4261
1096.4261
1096.4261
1096.4261
1096.4261
1096.4261
1096.4261
1096.4261
1096.4261
1096.4261
1096.4261
1096.4261
1096.4261
1096.4261
1096.4261
1096.4261
1096.4261
1096.4261
1096.4261
1096.4261
1096.4261
1096.4261
1096.4261
1096.4261
1096.4261
1096.4261
1096.4261
1096.4261
1096.4261
1096.4261
1096.4261
1096.4261
1096.4261
1096.4261
1096.4261
1096.4261
1096.4261
1096.4261
1096.4261
1096.4261
1096.4261
1096.4261
1096.4261
1096.4261
1096.4261
1096.4261
1096.4261
1096.4261
1096.4261
1096.4261
1096.4261
1096.4261
1096.4261
1096.4261
1096.4261
1096.4261
1096.4261
1096.4261
1096.4261
1096.4261
1096.4261
1096.4261
1096.4261
1096.4261
1096.4261
1096.4261
1096.4261
1096.4261
1096.4261
1096.4261
1096.4261
1096.4261
1096.4261
1096.4261
1096.4261
1096.4261
1096.4261
1096.4261
1096.4261
1096.4261
1096.4261
1096.4261
1096.4261
1096.4261
1096.4261
1096.4261
1096.4261
1096.4261
1096.4261
1096.4261
1096.4261
1096.4261
1096.4261
1096.4261
1096.4261
1096.4261
1096.4261
1096.4261
1096.4261
1096.4261
1096.4261
)
;

boundaryField
{
    Wall
    {
        type            zeroGradient;
    }
    frontAndBack
    {
        type            empty;
    }
    atmosphere
    {
        type            zeroGradient;
    }
}


// ************************************************************************* //
