/*--------------------------------*- C++ -*----------------------------------*\
| =========                 |                                                 |
| \\      /  F ield         | OpenFOAM: The Open Source CFD Toolbox           |
|  \\    /   O peration     | Version:  3.0.1                                 |
|   \\  /    A nd           | Web:      www.OpenFOAM.org                      |
|    \\/     M anipulation  |                                                 |
\*---------------------------------------------------------------------------*/
FoamFile
{
    version     2.0;
    format      ascii;
    class       volScalarField;
    location    "17";
    object      thermalDiff_gas;
}
// * * * * * * * * * * * * * * * * * * * * * * * * * * * * * * * * * * * * * //

dimensions      [0 2 -1 0 0 0 0];

internalField   nonuniform List<scalar> 
800
(
0.00026646133
0.00026646453
0.00026646487
0.00026646492
0.00026646494
0.00026646496
0.00026646498
0.000266465
0.000266465
0.00026646501
0.00026646501
0.000266465
0.000266465
0.00026646498
0.00026646496
0.00026646494
0.00026646492
0.00026646487
0.00026646453
0.00026646133
0.00026097271
0.00026108354
0.0002610979
0.00026110018
0.00026110119
0.00026110248
0.0002611038
0.00026110489
0.00026110563
0.000261106
0.000261106
0.00026110563
0.00026110489
0.0002611038
0.00026110248
0.00026110119
0.00026110019
0.0002610979
0.00026108354
0.00026097271
0.00025681535
0.0002569795
0.00025701054
0.000257016
0.00025701751
0.00025701902
0.00025702055
0.00025702183
0.00025702273
0.00025702319
0.00025702319
0.00025702273
0.00025702183
0.00025702055
0.00025701902
0.00025701752
0.00025701601
0.00025701055
0.0002569795
0.00025681535
0.0002534465
0.00025367396
0.00025372776
0.00025373791
0.00025373994
0.00025374088
0.00025374186
0.00025374261
0.0002537432
0.00025374349
0.00025374349
0.0002537432
0.00025374261
0.00025374187
0.00025374089
0.00025373994
0.00025373792
0.00025372776
0.00025367396
0.0002534465
0.00024965059
0.00024996678
0.00025006129
0.000250082
0.00025008673
0.00025008778
0.00025008839
0.00025008852
0.00025008871
0.00025008875
0.00025008875
0.00025008872
0.00025008852
0.0002500884
0.00025008779
0.00025008674
0.000250082
0.0002500613
0.00024996679
0.0002496506
0.00024419012
0.00024454294
0.00024467001
0.00024470711
0.00024472054
0.00024472624
0.0002447295
0.00024473118
0.00024473227
0.00024473267
0.00024473267
0.00024473227
0.00024473119
0.00024472951
0.00024472625
0.00024472055
0.00024470711
0.00024467002
0.00024454295
0.00024419012
0.00023997491
0.00023996939
0.0002399701
0.00023998288
0.0002399956
0.00024000677
0.00024001587
0.00024002267
0.00024002716
0.00024002939
0.00024002939
0.00024002716
0.00024002267
0.00024001586
0.00024000677
0.0002399956
0.00023998288
0.0002399701
0.00023996938
0.00023997491
0.0002380292
0.00023802317
0.00023802494
0.00023803332
0.0002380439
0.00023805429
0.00023806323
0.00023807015
0.00023807482
0.00023807716
0.00023807716
0.00023807482
0.00023807015
0.00023806323
0.00023805429
0.0002380439
0.00023803332
0.00023802494
0.00023802317
0.0002380292
0.00023696342
0.00023696608
0.0002369726
0.0002369823
0.00023699315
0.00023700353
0.00023701243
0.00023701931
0.00023702395
0.00023702628
0.00023702628
0.00023702395
0.00023701931
0.00023701243
0.00023700353
0.00023699315
0.0002369823
0.0002369726
0.00023696608
0.00023696342
0.00023597282
0.000235982
0.00023599348
0.00023600587
0.000236018
0.00023602892
0.00023603802
0.00023604495
0.00023604959
0.00023605191
0.00023605191
0.00023604959
0.00023604495
0.00023603802
0.00023602892
0.000236018
0.00023600587
0.00023599348
0.00023598199
0.00023597281
0.00023505906
0.00023507549
0.00023509302
0.00023510916
0.00023512332
0.00023513522
0.00023514472
0.00023515177
0.00023515642
0.00023515872
0.00023515872
0.00023515642
0.00023515177
0.00023514471
0.00023513522
0.00023512332
0.00023510916
0.00023509301
0.00023507548
0.00023505905
0.00023422602
0.00023424752
0.00023427081
0.00023429129
0.00023430816
0.00023432155
0.00023433178
0.00023433914
0.00023434389
0.00023434622
0.00023434622
0.00023434389
0.00023433914
0.00023433178
0.00023432155
0.00023430816
0.00023429128
0.00023427081
0.00023424752
0.00023422601
0.00023347344
0.00023349737
0.00023352474
0.00023354903
0.00023356874
0.00023358395
0.00023359523
0.00023360314
0.00023360815
0.00023361058
0.00023361058
0.00023360815
0.00023360314
0.00023359523
0.00023358395
0.00023356874
0.00023354903
0.00023352474
0.00023349736
0.00023347344
0.00023279723
0.00023282162
0.00023285111
0.00023287807
0.00023290014
0.00023291714
0.0002329296
0.00023293823
0.00023294364
0.00023294623
0.00023294623
0.00023294363
0.00023293823
0.0002329296
0.00023291714
0.00023290014
0.00023287807
0.00023285111
0.00023282161
0.00023279723
0.00023219127
0.00023221497
0.00023224497
0.0002322733
0.00023229697
0.00023231538
0.00023232892
0.00023233829
0.00023234415
0.00023234695
0.00023234695
0.00023234415
0.00023233829
0.00023232892
0.00023231538
0.00023229697
0.00023227331
0.00023224497
0.00023221497
0.00023219127
0.00023164887
0.00023167128
0.00023170069
0.00023172927
0.00023175369
0.00023177298
0.00023178733
0.00023179732
0.00023180359
0.0002318066
0.0002318066
0.00023180359
0.00023179732
0.00023178733
0.00023177298
0.00023175369
0.00023172927
0.00023170069
0.00023167128
0.00023164886
0.00023116351
0.00023118439
0.0002312125
0.0002312405
0.00023126492
0.00023128454
0.00023129933
0.00023130973
0.0002313163
0.00023131947
0.00023131947
0.0002313163
0.00023130973
0.00023129933
0.00023128454
0.00023126492
0.0002312405
0.0002312125
0.00023118439
0.00023116351
0.00023072924
0.0002307485
0.00023077493
0.00023080177
0.0002308256
0.00023084506
0.00023085992
0.00023087049
0.00023087722
0.00023088049
0.00023088049
0.00023087722
0.00023087049
0.00023085992
0.00023084506
0.0002308256
0.00023080177
0.00023077493
0.0002307485
0.00023072924
0.00023034077
0.00023035841
0.00023038297
0.00023040829
0.0002304311
0.00023044999
0.0002304646
0.00023047511
0.00023048185
0.00023048513
0.00023048513
0.00023048185
0.00023047511
0.0002304646
0.00023044999
0.0002304311
0.00023040829
0.00023038297
0.00023035841
0.00023034077
0.0002299934
0.00023000948
0.0002300321
0.0002300557
0.00023007722
0.00023009524
0.00023010934
0.00023011957
0.00023012618
0.00023012941
0.00023012941
0.00023012618
0.00023011957
0.00023010934
0.00023009524
0.00023007722
0.0002300557
0.00023003211
0.00023000948
0.0002299934
0.00022968301
0.00022969761
0.00022971831
0.00022974008
0.00022976014
0.0002297771
0.00022979049
0.00022980028
0.00022980665
0.00022980978
0.00022980978
0.00022980665
0.00022980028
0.00022979049
0.0002297771
0.00022976014
0.00022974008
0.00022971831
0.00022969761
0.00022968301
0.00022940594
0.00022941914
0.00022943797
0.00022945792
0.00022947643
0.00022949222
0.00022950476
0.00022951401
0.00022952004
0.00022952302
0.00022952302
0.00022952004
0.00022951401
0.00022950476
0.00022949222
0.00022947643
0.00022945792
0.00022943797
0.00022941914
0.00022940594
0.00022915892
0.00022917082
0.00022918787
0.00022920603
0.00022922298
0.00022923752
0.00022924916
0.00022925777
0.00022926343
0.00022926622
0.00022926622
0.00022926343
0.00022925777
0.00022924916
0.00022923752
0.00022922298
0.00022920603
0.00022918787
0.00022917082
0.00022915892
0.00022893902
0.00022894971
0.00022896508
0.00022898151
0.00022899693
0.00022901023
0.00022902092
0.00022902887
0.00022903411
0.0002290367
0.0002290367
0.00022903411
0.00022902887
0.00022902092
0.00022901023
0.00022899693
0.00022898151
0.00022896508
0.00022894971
0.00022893902
0.0002287436
0.00022875316
0.00022876696
0.00022878177
0.00022879571
0.00022880778
0.00022881753
0.0002288248
0.00022882961
0.00022883199
0.00022883199
0.00022882961
0.0002288248
0.00022881753
0.00022880778
0.00022879571
0.00022878177
0.00022876696
0.00022875317
0.0002287436
0.00022857025
0.00022857879
0.00022859113
0.00022860442
0.00022861696
0.00022862786
0.00022863668
0.00022864329
0.00022864766
0.00022864983
0.00022864983
0.00022864766
0.00022864329
0.00022863668
0.00022862786
0.00022861696
0.00022860442
0.00022859114
0.00022857879
0.00022857025
0.00022841684
0.00022842444
0.00022843544
0.0002284473
0.00022845853
0.00022846831
0.00022847626
0.00022848222
0.00022848617
0.00022848814
0.00022848814
0.00022848617
0.00022848222
0.00022847626
0.00022846831
0.00022845853
0.0002284473
0.00022843544
0.00022842444
0.00022841684
0.0002282814
0.00022828814
0.00022829791
0.00022830847
0.00022831848
0.00022832722
0.00022833433
0.00022833967
0.00022834323
0.000228345
0.000228345
0.00022834323
0.00022833967
0.00022833433
0.00022832722
0.00022831848
0.00022830847
0.00022829791
0.00022828814
0.0002282814
0.0002281622
0.00022816816
0.0002281768
0.00022818615
0.00022819504
0.00022820281
0.00022820915
0.00022821392
0.00022821709
0.00022821867
0.00022821867
0.00022821709
0.00022821392
0.00022820915
0.00022820281
0.00022819504
0.00022818615
0.0002281768
0.00022816816
0.0002281622
0.00022805767
0.00022806291
0.00022807053
0.00022807878
0.00022808664
0.00022809352
0.00022809913
0.00022810336
0.00022810618
0.00022810759
0.00022810759
0.00022810618
0.00022810336
0.00022809913
0.00022809352
0.00022808664
0.00022807878
0.00022807053
0.00022806291
0.00022805767
0.00022796643
0.00022797102
0.0002279777
0.00022798495
0.00022799186
0.00022799792
0.00022800287
0.00022800661
0.0002280091
0.00022801035
0.00022801035
0.0002280091
0.00022800661
0.00022800287
0.00022799792
0.00022799186
0.00022798495
0.0002279777
0.00022797102
0.00022796643
0.00022788724
0.00022789124
0.00022789707
0.0002279034
0.00022790945
0.00022791476
0.00022791911
0.0002279224
0.00022792459
0.00022792569
0.00022792569
0.00022792459
0.0002279224
0.00022791911
0.00022791476
0.00022790945
0.0002279034
0.00022789707
0.00022789124
0.00022788724
0.00022781905
0.00022782251
0.00022782756
0.00022783307
0.00022783833
0.00022784296
0.00022784676
0.00022784963
0.00022785156
0.00022785252
0.00022785252
0.00022785156
0.00022784963
0.00022784676
0.00022784296
0.00022783833
0.00022783307
0.00022782756
0.00022782251
0.00022781905
0.00022776094
0.00022776392
0.00022776827
0.00022777301
0.00022777757
0.00022778158
0.00022778488
0.00022778739
0.00022778906
0.0002277899
0.0002277899
0.00022778906
0.00022778739
0.00022778488
0.00022778158
0.00022777757
0.00022777301
0.00022776827
0.00022776392
0.00022776094
0.00022771217
0.0002277147
0.00022771841
0.00022772248
0.00022772639
0.00022772985
0.00022773271
0.00022773488
0.00022773634
0.00022773707
0.00022773707
0.00022773634
0.00022773488
0.00022773271
0.00022772985
0.00022772639
0.00022772248
0.00022771841
0.0002277147
0.00022771217
0.00022767214
0.00022767426
0.00022767739
0.00022768085
0.00022768419
0.00022768716
0.00022768962
0.00022769151
0.00022769277
0.0002276934
0.0002276934
0.00022769277
0.00022769151
0.00022768962
0.00022768716
0.00022768419
0.00022768085
0.00022767739
0.00022767426
0.00022767214
0.00022764039
0.00022764215
0.00022764477
0.00022764768
0.00022765052
0.00022765307
0.0002276552
0.00022765683
0.00022765793
0.00022765849
0.00022765849
0.00022765793
0.00022765683
0.0002276552
0.00022765307
0.00022765052
0.00022764768
0.00022764477
0.00022764215
0.00022764039
0.00022761665
0.00022761808
0.00022762025
0.0002276227
0.00022762513
0.00022762733
0.00022762919
0.00022763062
0.00022763159
0.00022763208
0.00022763208
0.00022763159
0.00022763062
0.00022762919
0.00022762733
0.00022762513
0.0002276227
0.00022762025
0.00022761808
0.00022761665
0.00022760076
0.00022760192
0.00022760374
0.00022760584
0.00022760795
0.00022760989
0.00022761155
0.00022761283
0.00022761371
0.00022761416
0.00022761416
0.00022761371
0.00022761283
0.00022761155
0.00022760989
0.00022760795
0.00022760584
0.00022760374
0.00022760192
0.00022760076
0.00022759275
0.00022759374
0.00022759533
0.00022759722
0.00022759915
0.00022760095
0.00022760249
0.0002276037
0.00022760452
0.00022760494
0.00022760494
0.00022760452
0.0002276037
0.00022760249
0.00022760095
0.00022759915
0.00022759722
0.00022759533
0.00022759374
0.00022759275
)
;

boundaryField
{
    Wall
    {
        type            calculated;
        value           uniform 0.1;
    }
    frontAndBack
    {
        type            empty;
    }
    atmosphere
    {
        type            calculated;
        value           uniform 0.1;
    }
}


// ************************************************************************* //
