/*--------------------------------*- C++ -*----------------------------------*\
| =========                 |                                                 |
| \\      /  F ield         | OpenFOAM: The Open Source CFD Toolbox           |
|  \\    /   O peration     | Version:  3.0.1                                 |
|   \\  /    A nd           | Web:      www.OpenFOAM.org                      |
|    \\/     M anipulation  |                                                 |
\*---------------------------------------------------------------------------*/
FoamFile
{
    version     2.0;
    format      ascii;
    class       volScalarField;
    location    "17";
    object      thermalDiff_foam;
}
// * * * * * * * * * * * * * * * * * * * * * * * * * * * * * * * * * * * * * //

dimensions      [0 2 -1 0 0 0 0];

internalField   nonuniform List<scalar> 
800
(
9.1009944e-08
9.101017e-08
9.1010049e-08
9.1009959e-08
9.1009892e-08
9.1009838e-08
9.1009797e-08
9.1009768e-08
9.1009749e-08
9.100974e-08
9.100974e-08
9.1009749e-08
9.1009768e-08
9.1009797e-08
9.1009838e-08
9.1009892e-08
9.1009959e-08
9.1010049e-08
9.101017e-08
9.1009944e-08
8.9409402e-08
8.9453323e-08
8.9457718e-08
8.9458548e-08
8.9459043e-08
8.9459624e-08
8.9460181e-08
8.9460624e-08
8.946092e-08
8.9461066e-08
8.9461066e-08
8.946092e-08
8.9460624e-08
8.9460181e-08
8.9459625e-08
8.9459043e-08
8.9458548e-08
8.9457718e-08
8.9453323e-08
8.9409402e-08
8.7525565e-08
8.757855e-08
8.7603493e-08
8.7605416e-08
8.7606352e-08
8.7607329e-08
8.7608218e-08
8.7608914e-08
8.7609379e-08
8.760961e-08
8.760961e-08
8.7609379e-08
8.7608914e-08
8.7608218e-08
8.7607329e-08
8.7606352e-08
8.7605416e-08
8.7603493e-08
8.757855e-08
8.7525564e-08
8.5275773e-08
8.5347514e-08
8.537291e-08
8.5374836e-08
8.5375867e-08
8.5376888e-08
8.5377784e-08
8.5378471e-08
8.5378925e-08
8.5379149e-08
8.5379149e-08
8.5378925e-08
8.5378471e-08
8.5377784e-08
8.5376888e-08
8.5375867e-08
8.5374836e-08
8.5372911e-08
8.5347514e-08
8.5275773e-08
8.3329727e-08
8.3385463e-08
8.3401391e-08
8.3403104e-08
8.3404112e-08
8.3404956e-08
8.3405613e-08
8.3406079e-08
8.3406372e-08
8.3406512e-08
8.3406512e-08
8.3406371e-08
8.3406079e-08
8.3405613e-08
8.3404956e-08
8.3404112e-08
8.3403104e-08
8.3401391e-08
8.3385463e-08
8.3329727e-08
8.2362815e-08
8.2378353e-08
8.2381701e-08
8.2382373e-08
8.2382748e-08
8.2383002e-08
8.2383168e-08
8.2383268e-08
8.2383326e-08
8.2383352e-08
8.2383352e-08
8.2383326e-08
8.2383268e-08
8.2383168e-08
8.2383002e-08
8.2382748e-08
8.2382373e-08
8.2381701e-08
8.2378354e-08
8.2362815e-08
8.3271257e-08
8.313254e-08
8.3103227e-08
8.3097908e-08
8.3095193e-08
8.3093695e-08
8.3092868e-08
8.3092455e-08
8.309224e-08
8.3092159e-08
8.3092159e-08
8.3092241e-08
8.3092455e-08
8.3092868e-08
8.3093695e-08
8.3095193e-08
8.3097907e-08
8.3103226e-08
8.3132539e-08
8.3271257e-08
0.0002380292
0.00023802317
0.00023802494
0.00023803332
0.0002380439
0.00023805429
0.00023806323
0.00023807015
0.00023807482
0.00023807716
0.00023807716
0.00023807482
0.00023807015
0.00023806323
0.00023805429
0.0002380439
0.00023803332
0.00023802494
0.00023802317
0.0002380292
0.00023696342
0.00023696608
0.0002369726
0.0002369823
0.00023699315
0.00023700353
0.00023701243
0.00023701931
0.00023702395
0.00023702628
0.00023702628
0.00023702395
0.00023701931
0.00023701243
0.00023700353
0.00023699315
0.0002369823
0.0002369726
0.00023696608
0.00023696342
0.00023597282
0.000235982
0.00023599348
0.00023600587
0.000236018
0.00023602892
0.00023603802
0.00023604495
0.00023604959
0.00023605191
0.00023605191
0.00023604959
0.00023604495
0.00023603802
0.00023602892
0.000236018
0.00023600587
0.00023599348
0.00023598199
0.00023597281
0.00023505906
0.00023507549
0.00023509302
0.00023510916
0.00023512332
0.00023513522
0.00023514472
0.00023515177
0.00023515642
0.00023515872
0.00023515872
0.00023515642
0.00023515177
0.00023514471
0.00023513522
0.00023512332
0.00023510916
0.00023509301
0.00023507548
0.00023505905
0.00023422602
0.00023424752
0.00023427081
0.00023429129
0.00023430816
0.00023432155
0.00023433178
0.00023433914
0.00023434389
0.00023434622
0.00023434622
0.00023434389
0.00023433914
0.00023433178
0.00023432155
0.00023430816
0.00023429128
0.00023427081
0.00023424752
0.00023422601
0.00023347344
0.00023349737
0.00023352474
0.00023354903
0.00023356874
0.00023358395
0.00023359523
0.00023360314
0.00023360815
0.00023361058
0.00023361058
0.00023360815
0.00023360314
0.00023359523
0.00023358395
0.00023356874
0.00023354903
0.00023352474
0.00023349736
0.00023347344
0.00023279723
0.00023282162
0.00023285111
0.00023287807
0.00023290014
0.00023291714
0.0002329296
0.00023293823
0.00023294364
0.00023294623
0.00023294623
0.00023294363
0.00023293823
0.0002329296
0.00023291714
0.00023290014
0.00023287807
0.00023285111
0.00023282161
0.00023279723
0.00023219127
0.00023221497
0.00023224497
0.0002322733
0.00023229697
0.00023231538
0.00023232892
0.00023233829
0.00023234415
0.00023234695
0.00023234695
0.00023234415
0.00023233829
0.00023232892
0.00023231538
0.00023229697
0.00023227331
0.00023224497
0.00023221497
0.00023219127
0.00023164887
0.00023167128
0.00023170069
0.00023172927
0.00023175369
0.00023177298
0.00023178733
0.00023179732
0.00023180359
0.0002318066
0.0002318066
0.00023180359
0.00023179732
0.00023178733
0.00023177298
0.00023175369
0.00023172927
0.00023170069
0.00023167128
0.00023164886
0.00023116351
0.00023118439
0.0002312125
0.0002312405
0.00023126492
0.00023128454
0.00023129933
0.00023130973
0.0002313163
0.00023131947
0.00023131947
0.0002313163
0.00023130973
0.00023129933
0.00023128454
0.00023126492
0.0002312405
0.0002312125
0.00023118439
0.00023116351
0.00023072924
0.0002307485
0.00023077493
0.00023080177
0.0002308256
0.00023084506
0.00023085992
0.00023087049
0.00023087722
0.00023088049
0.00023088049
0.00023087722
0.00023087049
0.00023085992
0.00023084506
0.0002308256
0.00023080177
0.00023077493
0.0002307485
0.00023072924
0.00023034077
0.00023035841
0.00023038297
0.00023040829
0.0002304311
0.00023044999
0.0002304646
0.00023047511
0.00023048185
0.00023048513
0.00023048513
0.00023048185
0.00023047511
0.0002304646
0.00023044999
0.0002304311
0.00023040829
0.00023038297
0.00023035841
0.00023034077
0.0002299934
0.00023000948
0.0002300321
0.0002300557
0.00023007722
0.00023009524
0.00023010934
0.00023011957
0.00023012618
0.00023012941
0.00023012941
0.00023012618
0.00023011957
0.00023010934
0.00023009524
0.00023007722
0.0002300557
0.00023003211
0.00023000948
0.0002299934
0.00022968301
0.00022969761
0.00022971831
0.00022974008
0.00022976014
0.0002297771
0.00022979049
0.00022980028
0.00022980665
0.00022980978
0.00022980978
0.00022980665
0.00022980028
0.00022979049
0.0002297771
0.00022976014
0.00022974008
0.00022971831
0.00022969761
0.00022968301
0.00022940594
0.00022941914
0.00022943797
0.00022945792
0.00022947643
0.00022949222
0.00022950476
0.00022951401
0.00022952004
0.00022952302
0.00022952302
0.00022952004
0.00022951401
0.00022950476
0.00022949222
0.00022947643
0.00022945792
0.00022943797
0.00022941914
0.00022940594
0.00022915892
0.00022917082
0.00022918787
0.00022920603
0.00022922298
0.00022923752
0.00022924916
0.00022925777
0.00022926343
0.00022926622
0.00022926622
0.00022926343
0.00022925777
0.00022924916
0.00022923752
0.00022922298
0.00022920603
0.00022918787
0.00022917082
0.00022915892
0.00022893902
0.00022894971
0.00022896508
0.00022898151
0.00022899693
0.00022901023
0.00022902092
0.00022902887
0.00022903411
0.0002290367
0.0002290367
0.00022903411
0.00022902887
0.00022902092
0.00022901023
0.00022899693
0.00022898151
0.00022896508
0.00022894971
0.00022893902
0.0002287436
0.00022875316
0.00022876696
0.00022878177
0.00022879571
0.00022880778
0.00022881753
0.0002288248
0.00022882961
0.00022883199
0.00022883199
0.00022882961
0.0002288248
0.00022881753
0.00022880778
0.00022879571
0.00022878177
0.00022876696
0.00022875317
0.0002287436
0.00022857025
0.00022857879
0.00022859113
0.00022860442
0.00022861696
0.00022862786
0.00022863668
0.00022864329
0.00022864766
0.00022864983
0.00022864983
0.00022864766
0.00022864329
0.00022863668
0.00022862786
0.00022861696
0.00022860442
0.00022859114
0.00022857879
0.00022857025
0.00022841684
0.00022842444
0.00022843544
0.0002284473
0.00022845853
0.00022846831
0.00022847626
0.00022848222
0.00022848617
0.00022848814
0.00022848814
0.00022848617
0.00022848222
0.00022847626
0.00022846831
0.00022845853
0.0002284473
0.00022843544
0.00022842444
0.00022841684
0.0002282814
0.00022828814
0.00022829791
0.00022830847
0.00022831848
0.00022832722
0.00022833433
0.00022833967
0.00022834323
0.000228345
0.000228345
0.00022834323
0.00022833967
0.00022833433
0.00022832722
0.00022831848
0.00022830847
0.00022829791
0.00022828814
0.0002282814
0.0002281622
0.00022816816
0.0002281768
0.00022818615
0.00022819504
0.00022820281
0.00022820915
0.00022821392
0.00022821709
0.00022821867
0.00022821867
0.00022821709
0.00022821392
0.00022820915
0.00022820281
0.00022819504
0.00022818615
0.0002281768
0.00022816816
0.0002281622
0.00022805767
0.00022806291
0.00022807053
0.00022807878
0.00022808664
0.00022809352
0.00022809913
0.00022810336
0.00022810618
0.00022810759
0.00022810759
0.00022810618
0.00022810336
0.00022809913
0.00022809352
0.00022808664
0.00022807878
0.00022807053
0.00022806291
0.00022805767
0.00022796643
0.00022797102
0.0002279777
0.00022798495
0.00022799186
0.00022799792
0.00022800287
0.00022800661
0.0002280091
0.00022801035
0.00022801035
0.0002280091
0.00022800661
0.00022800287
0.00022799792
0.00022799186
0.00022798495
0.0002279777
0.00022797102
0.00022796643
0.00022788724
0.00022789124
0.00022789707
0.0002279034
0.00022790945
0.00022791476
0.00022791911
0.0002279224
0.00022792459
0.00022792569
0.00022792569
0.00022792459
0.0002279224
0.00022791911
0.00022791476
0.00022790945
0.0002279034
0.00022789707
0.00022789124
0.00022788724
0.00022781905
0.00022782251
0.00022782756
0.00022783307
0.00022783833
0.00022784296
0.00022784676
0.00022784963
0.00022785156
0.00022785252
0.00022785252
0.00022785156
0.00022784963
0.00022784676
0.00022784296
0.00022783833
0.00022783307
0.00022782756
0.00022782251
0.00022781905
0.00022776094
0.00022776392
0.00022776827
0.00022777301
0.00022777757
0.00022778158
0.00022778488
0.00022778739
0.00022778906
0.0002277899
0.0002277899
0.00022778906
0.00022778739
0.00022778488
0.00022778158
0.00022777757
0.00022777301
0.00022776827
0.00022776392
0.00022776094
0.00022771217
0.0002277147
0.00022771841
0.00022772248
0.00022772639
0.00022772985
0.00022773271
0.00022773488
0.00022773634
0.00022773707
0.00022773707
0.00022773634
0.00022773488
0.00022773271
0.00022772985
0.00022772639
0.00022772248
0.00022771841
0.0002277147
0.00022771217
0.00022767214
0.00022767426
0.00022767739
0.00022768085
0.00022768419
0.00022768716
0.00022768962
0.00022769151
0.00022769277
0.0002276934
0.0002276934
0.00022769277
0.00022769151
0.00022768962
0.00022768716
0.00022768419
0.00022768085
0.00022767739
0.00022767426
0.00022767214
0.00022764039
0.00022764215
0.00022764477
0.00022764768
0.00022765052
0.00022765307
0.0002276552
0.00022765683
0.00022765793
0.00022765849
0.00022765849
0.00022765793
0.00022765683
0.0002276552
0.00022765307
0.00022765052
0.00022764768
0.00022764477
0.00022764215
0.00022764039
0.00022761665
0.00022761808
0.00022762025
0.0002276227
0.00022762513
0.00022762733
0.00022762919
0.00022763062
0.00022763159
0.00022763208
0.00022763208
0.00022763159
0.00022763062
0.00022762919
0.00022762733
0.00022762513
0.0002276227
0.00022762025
0.00022761808
0.00022761665
0.00022760076
0.00022760192
0.00022760374
0.00022760584
0.00022760795
0.00022760989
0.00022761155
0.00022761283
0.00022761371
0.00022761416
0.00022761416
0.00022761371
0.00022761283
0.00022761155
0.00022760989
0.00022760795
0.00022760584
0.00022760374
0.00022760192
0.00022760076
0.00022759275
0.00022759374
0.00022759533
0.00022759722
0.00022759915
0.00022760095
0.00022760249
0.0002276037
0.00022760452
0.00022760494
0.00022760494
0.00022760452
0.0002276037
0.00022760249
0.00022760095
0.00022759915
0.00022759722
0.00022759533
0.00022759374
0.00022759275
)
;

boundaryField
{
    Wall
    {
        type            calculated;
        value           uniform 4e-05;
    }
    frontAndBack
    {
        type            empty;
    }
    atmosphere
    {
        type            calculated;
        value           uniform 4e-05;
    }
}


// ************************************************************************* //
