/*--------------------------------*- C++ -*----------------------------------*\
| =========                 |                                                 |
| \\      /  F ield         | OpenFOAM: The Open Source CFD Toolbox           |
|  \\    /   O peration     | Version:  3.0.1                                 |
|   \\  /    A nd           | Web:      www.OpenFOAM.org                      |
|    \\/     M anipulation  |                                                 |
\*---------------------------------------------------------------------------*/
FoamFile
{
    version     2.0;
    format      ascii;
    class       volScalarField;
    location    "17";
    object      TS;
}
// * * * * * * * * * * * * * * * * * * * * * * * * * * * * * * * * * * * * * //

dimensions      [0 0 0 1 0 0 0];

internalField   nonuniform List<scalar> 
800
(
323.72487
323.72696
323.72719
323.72722
323.72723
323.72725
323.72726
323.72727
323.72727
323.72728
323.72728
323.72727
323.72727
323.72726
323.72725
323.72723
323.72722
323.72719
323.72696
323.72487
320.1848
320.2567
320.26604
320.26752
320.26817
320.269
320.26985
320.27055
320.27103
320.27128
320.27128
320.27103
320.27055
320.26985
320.269
320.26817
320.26753
320.26605
320.2567
320.1848
317.49389
317.60065
317.62089
317.62444
317.62542
317.6264
317.62739
317.62823
317.62882
317.62912
317.62912
317.62882
317.62823
317.62739
317.6264
317.62542
317.62444
317.62089
317.60065
317.49389
315.31367
315.46168
315.49672
315.50332
315.50463
315.50525
315.5059
315.50639
315.50678
315.50698
315.50698
315.50678
315.50639
315.5059
315.50525
315.50463
315.50332
315.49672
315.46169
315.31368
312.86812
313.07391
313.13555
313.14903
313.1521
313.15278
313.15318
313.15328
313.15341
313.15343
313.15343
313.15341
313.15328
313.15319
313.15278
313.1521
313.14903
313.13556
313.07392
312.86813
309.30538
309.54249
309.62665
309.65099
309.65971
309.66334
309.6654
309.66643
309.6671
309.66735
309.66735
309.6671
309.66643
309.6654
309.66335
309.65971
309.65099
309.62665
309.5425
309.30538
306.41378
306.40978
306.40983
306.41792
306.42606
306.43327
306.43918
306.44364
306.44659
306.44806
306.44806
306.44659
306.44363
306.43918
306.43327
306.42605
306.41792
306.40983
306.40978
306.41378
305.12574
305.12195
305.12301
305.12832
305.1351
305.14179
305.1476
305.15211
305.15516
305.1567
305.1567
305.15516
305.15211
305.1476
305.14179
305.1351
305.12832
305.12301
305.12194
305.12574
304.42398
304.4257
304.42986
304.43608
304.44307
304.44979
304.45557
304.46007
304.46311
304.46464
304.46464
304.46311
304.46007
304.45557
304.44979
304.44307
304.43608
304.42986
304.4257
304.42398
303.76984
303.77577
303.78321
303.79123
303.79911
303.80622
303.81216
303.8167
303.81975
303.82128
303.82128
303.81975
303.8167
303.81216
303.80622
303.7991
303.79123
303.78321
303.77577
303.76983
303.16474
303.1755
303.18695
303.19749
303.20675
303.21454
303.22078
303.22542
303.22848
303.23001
303.23001
303.22848
303.22542
303.22078
303.21454
303.20675
303.19749
303.18695
303.1755
303.16474
302.61169
302.62589
302.64123
302.65469
302.66579
302.67461
302.68135
302.68621
302.68935
302.69089
302.69089
302.68935
302.68621
302.68135
302.67461
302.66579
302.65469
302.64123
302.62589
302.61169
302.11102
302.1269
302.14504
302.16111
302.17413
302.1842
302.19166
302.1969
302.20022
302.20183
302.20183
302.20022
302.1969
302.19166
302.1842
302.17413
302.16111
302.14504
302.1269
302.11102
301.66046
301.67671
301.69633
301.71424
301.72889
301.74017
301.74844
301.75417
301.75776
301.75949
301.75949
301.75776
301.75417
301.74844
301.74017
301.72889
301.71424
301.69633
301.67671
301.66046
301.25628
301.27211
301.29212
301.311
301.32675
301.339
301.34801
301.35425
301.35815
301.36002
301.36002
301.35815
301.35425
301.34801
301.339
301.32675
301.311
301.29212
301.27211
301.25628
300.89424
300.90923
300.92888
300.94796
300.96425
300.97712
300.98669
300.99335
300.99753
300.99953
300.99953
300.99753
300.99335
300.98669
300.97712
300.96425
300.94796
300.92888
300.90923
300.89424
300.57012
300.5841
300.60291
300.62163
300.63795
300.65105
300.66093
300.66788
300.67226
300.67438
300.67438
300.67226
300.66788
300.66093
300.65105
300.63795
300.62163
300.60291
300.5841
300.57012
300.28004
300.29294
300.31064
300.3286
300.34454
300.35756
300.36749
300.37456
300.37906
300.38124
300.38124
300.37906
300.37456
300.36749
300.35756
300.34454
300.3286
300.31064
300.29294
300.28004
300.02048
300.0323
300.04876
300.06571
300.08099
300.09364
300.10342
300.11045
300.11495
300.11715
300.11715
300.11495
300.11045
300.10342
300.09364
300.08099
300.06572
300.04876
300.0323
300.02048
299.78833
299.79911
299.81428
299.83009
299.84451
299.85659
299.86603
299.87288
299.8773
299.87947
299.87947
299.8773
299.87288
299.86603
299.85659
299.84451
299.83009
299.81428
299.79911
299.78833
299.58084
299.59063
299.60451
299.61912
299.63256
299.64394
299.65291
299.65948
299.66374
299.66584
299.66584
299.66374
299.65948
299.65291
299.64394
299.63256
299.61912
299.60451
299.59063
299.58084
299.39558
299.40444
299.41707
299.43045
299.44287
299.45346
299.46188
299.46807
299.47213
299.47412
299.47412
299.47213
299.46807
299.46188
299.45346
299.44287
299.43045
299.41707
299.40444
299.39558
299.23036
299.23835
299.24979
299.26198
299.27336
299.28312
299.29093
299.29671
299.3005
299.30238
299.30238
299.3005
299.29671
299.29093
299.28312
299.27336
299.26198
299.24979
299.23835
299.23036
299.08324
299.09042
299.10074
299.11177
299.12213
299.13105
299.13823
299.14357
299.14709
299.14883
299.14883
299.14709
299.14357
299.13823
299.13105
299.12213
299.11177
299.10074
299.09042
299.08324
298.95245
298.95888
298.96815
298.97809
298.98746
298.99557
299.00212
299.007
299.01023
299.01183
299.01183
299.01023
299.007
299.00212
298.99557
298.98746
298.97809
298.96815
298.95888
298.95245
298.83641
298.84215
298.85044
298.85936
298.86779
298.87512
298.88105
298.88549
298.88843
298.88989
298.88989
298.88843
298.88549
298.88105
298.87512
298.86779
298.85936
298.85044
298.84215
298.83641
298.73367
298.73878
298.74617
298.75415
298.7617
298.76827
298.77362
298.77762
298.78028
298.7816
298.7816
298.78028
298.77762
298.77362
298.76828
298.7617
298.75415
298.74617
298.73878
298.73367
298.64295
298.64748
298.65405
298.66115
298.66788
298.67376
298.67854
298.68214
298.68453
298.68572
298.68572
298.68453
298.68214
298.67854
298.67376
298.66788
298.66115
298.65405
298.64748
298.64295
298.56308
298.56708
298.57289
298.57919
298.58517
298.59039
298.59466
298.59787
298.6
298.60107
298.60107
298.6
298.59787
298.59466
298.59039
298.58517
298.57919
298.5729
298.56708
298.56308
298.49302
298.49654
298.50167
298.50722
298.5125
298.51713
298.52091
298.52376
298.52566
298.52661
298.52661
298.52566
298.52376
298.52091
298.51713
298.5125
298.50722
298.50167
298.49654
298.49302
298.43184
298.43493
298.43943
298.4443
298.44896
298.45303
298.45637
298.45889
298.46057
298.46141
298.46141
298.46057
298.45889
298.45637
298.45303
298.44896
298.44431
298.43943
298.43493
298.43184
298.37873
298.38143
298.38535
298.38962
298.39369
298.39726
298.40019
298.40241
298.40389
298.40462
298.40462
298.40389
298.40241
298.40019
298.39726
298.39369
298.38962
298.38535
298.38143
298.37873
298.33299
298.33532
298.33873
298.34243
298.34598
298.3491
298.35166
298.35359
298.35489
298.35554
298.35554
298.35489
298.35359
298.35166
298.3491
298.34598
298.34243
298.33873
298.33532
298.33299
298.294
298.29601
298.29894
298.30214
298.3052
298.30791
298.31013
298.31182
298.31295
298.31352
298.31352
298.31295
298.31182
298.31013
298.30791
298.3052
298.30214
298.29894
298.29601
298.294
298.26127
298.26298
298.26548
298.26822
298.27085
298.27319
298.27511
298.27658
298.27756
298.27805
298.27805
298.27756
298.27658
298.27511
298.27319
298.27085
298.26822
298.26548
298.26298
298.26127
298.2344
298.23583
298.23794
298.24027
298.24252
298.24453
298.24619
298.24746
298.24831
298.24874
298.24874
298.24831
298.24746
298.24619
298.24453
298.24252
298.24027
298.23794
298.23583
298.2344
298.21309
298.21427
298.21603
298.218
298.21991
298.22163
298.22307
298.22417
298.22491
298.22529
298.22529
298.22491
298.22417
298.22307
298.22163
298.21991
298.218
298.21603
298.21427
298.21309
298.19714
298.1981
298.19957
298.20122
298.20286
298.20435
298.2056
298.20656
298.20722
298.20755
298.20755
298.20722
298.20656
298.2056
298.20435
298.20286
298.20122
298.19957
298.1981
298.19714
298.18647
298.18726
298.18848
298.1899
298.19132
298.19263
298.19375
298.19462
298.19521
298.19551
298.19551
298.19521
298.19462
298.19375
298.19263
298.19132
298.1899
298.18848
298.18726
298.18647
298.18109
298.18176
298.18283
298.18411
298.18541
298.18662
298.18766
298.18848
298.18903
298.18932
298.18932
298.18903
298.18848
298.18766
298.18662
298.18541
298.18411
298.18283
298.18176
298.18109
)
;

boundaryField
{
    Wall
    {
        type            zeroGradient;
    }
    frontAndBack
    {
        type            empty;
    }
    atmosphere
    {
        type            zeroGradient;
    }
}


// ************************************************************************* //
