/*--------------------------------*- C++ -*----------------------------------*\
| =========                 |                                                 |
| \\      /  F ield         | OpenFOAM: The Open Source CFD Toolbox           |
|  \\    /   O peration     | Version:  3.0.1                                 |
|   \\  /    A nd           | Web:      www.OpenFOAM.org                      |
|    \\/     M anipulation  |                                                 |
\*---------------------------------------------------------------------------*/
FoamFile
{
    version     2.0;
    format      ascii;
    class       volVectorField;
    location    "17";
    object      U;
}
// * * * * * * * * * * * * * * * * * * * * * * * * * * * * * * * * * * * * * //

dimensions      [0 1 -1 0 0 0 0];

internalField   nonuniform List<vector> 
800
(
(4.5441228e-06 0.000338887 0)
(5.5475939e-06 0.00034159059 0)
(5.2048119e-06 0.00034223436 0)
(4.3539968e-06 0.00034222811 0)
(3.5921041e-06 0.0003421085 0)
(2.9576939e-06 0.00034206144 0)
(2.3430739e-06 0.00034206925 0)
(1.7067338e-06 0.00034209757 0)
(1.040046e-06 0.00034212524 0)
(3.4984828e-07 0.00034214151 0)
(-3.490964e-07 0.00034214149 0)
(-1.0395325e-06 0.0003421252 0)
(-1.7065464e-06 0.00034209751 0)
(-2.3431254e-06 0.00034206919 0)
(-2.9577267e-06 0.00034206141 0)
(-3.5918035e-06 0.00034210852 0)
(-4.3531571e-06 0.00034222818 0)
(-5.2033795e-06 0.00034223448 0)
(-5.5458343e-06 0.00034159068 0)
(-4.5432406e-06 0.00033888683 0)
(2.4956593e-06 0.00061560744 0)
(3.2601782e-06 0.00062145352 0)
(3.8110215e-06 0.00062317454 0)
(3.5936095e-06 0.00062342386 0)
(3.1671863e-06 0.00062334551 0)
(2.709396e-06 0.00062330466 0)
(2.1836971e-06 0.00062331978 0)
(1.6038547e-06 0.00062336049 0)
(9.8173063e-07 0.00062340008 0)
(3.3090581e-07 0.00062342316 0)
(-3.3030004e-07 0.00062342313 0)
(-9.8131837e-07 0.00062339998 0)
(-1.6036956e-06 0.00062336037 0)
(-2.183712e-06 0.00062331966 0)
(-2.7093707e-06 0.00062330458 0)
(-3.1668643e-06 0.00062334549 0)
(-3.5928185e-06 0.00062342385 0)
(-3.809763e-06 0.00062317449 0)
(-3.2588328e-06 0.00062145321 0)
(-2.4950484e-06 0.00061560642 0)
(2.9293595e-06 0.0011372155 0)
(3.8358764e-06 0.0011459557 0)
(3.5322816e-06 0.0011483154 0)
(3.174608e-06 0.0011486586 0)
(2.8452654e-06 0.0011486041 0)
(2.5127523e-06 0.0011486076 0)
(2.0710213e-06 0.0011486765 0)
(1.5425411e-06 0.00114877 0)
(9.5120182e-07 0.0011488494 0)
(3.2152063e-07 0.0011488936 0)
(-3.2105429e-07 0.0011488936 0)
(-9.5088487e-07 0.0011488493 0)
(-1.5424167e-06 0.0011487699 0)
(-2.0710195e-06 0.0011486763 0)
(-2.512701e-06 0.0011486074 0)
(-2.8449805e-06 0.0011486039 0)
(-3.1739837e-06 0.0011486583 0)
(-3.5314032e-06 0.0011483148 0)
(-3.8352144e-06 0.0011459546 0)
(-2.929179e-06 0.0011372134 0)
(1.2723403e-06 0.0016881579 0)
(2.0926362e-06 0.0016979007 0)
(2.5279614e-06 0.001699828 0)
(2.6528108e-06 0.0016999799 0)
(2.6129257e-06 0.0016999231 0)
(2.4534238e-06 0.0017000144 0)
(2.0824598e-06 0.0017001799 0)
(1.5750601e-06 0.0017003509 0)
(9.7821653e-07 0.0017004805 0)
(3.3158445e-07 0.0017005495 0)
(-3.3125984e-07 0.0017005495 0)
(-9.7799564e-07 0.0017004803 0)
(-1.5749748e-06 0.0017003507 0)
(-2.0824611e-06 0.0017001797 0)
(-2.4533988e-06 0.0017000142 0)
(-2.612776e-06 0.0016999227 0)
(-2.652506e-06 0.0016999794 0)
(-2.5276345e-06 0.001699827 0)
(-2.0927676e-06 0.0016978992 0)
(-1.2726258e-06 0.0016881554 0)
(-5.0912224e-07 0.0022253152 0)
(-8.3297126e-08 0.0022373091 0)
(1.4176539e-06 0.0022392521 0)
(2.4388131e-06 0.0022395946 0)
(2.7370643e-06 0.0022398214 0)
(2.7037518e-06 0.0022401728 0)
(2.3270119e-06 0.0022405213 0)
(1.7637389e-06 0.002240806 0)
(1.0935872e-06 0.002240998 0)
(3.7025182e-07 0.0022410952 0)
(-3.7006428e-07 0.0022410951 0)
(-1.0934641e-06 0.0022409978 0)
(-1.7637017e-06 0.0022408057 0)
(-2.3270321e-06 0.0022405209 0)
(-2.7037725e-06 0.0022401724 0)
(-2.7370637e-06 0.0022398209 0)
(-2.438818e-06 0.0022395939 0)
(-1.4177931e-06 0.0022392512 0)
(8.264705e-08 0.0022373077 0)
(5.085824e-07 0.0022253134 0)
(-1.6780726e-06 0.0026948232 0)
(-1.4527482e-06 0.0027093434 0)
(1.4219429e-06 0.0027131414 0)
(3.3256728e-06 0.0027144499 0)
(3.7190643e-06 0.0027154258 0)
(3.5699756e-06 0.0027162407 0)
(2.9839016e-06 0.0027168388 0)
(2.2122972e-06 0.0027172482 0)
(1.3533509e-06 0.0027174955 0)
(4.5564541e-07 0.0027176135 0)
(-4.5561376e-07 0.0027176134 0)
(-1.3533461e-06 0.0027174953 0)
(-2.2123321e-06 0.0027172479 0)
(-2.9839609e-06 0.0027168384 0)
(-3.5700408e-06 0.0027162402 0)
(-3.7191725e-06 0.0027154253 0)
(-3.325845e-06 0.0027144492 0)
(-1.4222905e-06 0.0027131407 0)
(1.4520228e-06 0.0027093426 0)
(1.6775777e-06 0.0026948225 0)
(-1.6392361e-06 0.0030857276 0)
(5.3427807e-07 0.003106343 0)
(5.1356191e-06 0.0031128173 0)
(6.4339187e-06 0.0031157538 0)
(6.1500855e-06 0.0031176305 0)
(5.3669726e-06 0.0031187783 0)
(4.229811e-06 0.0031194373 0)
(3.0226615e-06 0.0031198186 0)
(1.8098366e-06 0.0031200139 0)
(6.0352958e-07 0.0031200973 0)
(-6.0368949e-07 0.0031200972 0)
(-1.8099927e-06 0.0031200137 0)
(-3.0228182e-06 0.0031198184 0)
(-4.2299581e-06 0.003119437 0)
(-5.3670957e-06 0.003118778 0)
(-6.1502569e-06 0.0031176302 0)
(-6.4341228e-06 0.0031157535 0)
(-5.1358735e-06 0.0031128171 0)
(-5.3472633e-07 0.003106343 0)
(1.6389323e-06 0.0030857279 0)
(1.6174879e-05 0.0034359565 0)
(2.4968633e-05 0.0034541185 0)
(1.8925281e-05 0.00345916 0)
(1.5037386e-05 0.0034626983 0)
(1.1436314e-05 0.0034651116 0)
(8.7128725e-06 0.0034664756 0)
(6.3540204e-06 0.0034671932 0)
(4.3373331e-06 0.0034676136 0)
(2.5246089e-06 0.0034678114 0)
(8.2969275e-07 0.0034679029 0)
(-8.2996485e-07 0.0034679028 0)
(-2.5248519e-06 0.0034678112 0)
(-4.3375457e-06 0.0034676133 0)
(-6.3541906e-06 0.0034671928 0)
(-8.7129806e-06 0.0034664752 0)
(-1.1436462e-05 0.0034651113 0)
(-1.503752e-05 0.003462698 0)
(-1.8925355e-05 0.0034591599 0)
(-2.4968737e-05 0.0034541187 0)
(-1.6174939e-05 0.0034359572 0)
(0.00012291687 0.0035432968 0)
(0.00016880671 0.003651233 0)
(0.00010817426 0.0036562492 0)
(7.0109777e-05 0.0036560466 0)
(4.6661038e-05 0.0036564232 0)
(3.1845997e-05 0.0036567084 0)
(2.159266e-05 0.0036569079 0)
(1.4004547e-05 0.0036570641 0)
(7.8904305e-06 0.0036571467 0)
(2.5528509e-06 0.0036572202 0)
(-2.5533875e-06 0.0036572201 0)
(-7.8908995e-06 0.0036571464 0)
(-1.4004948e-05 0.0036570638 0)
(-2.1592952e-05 0.0036569076 0)
(-3.184613e-05 0.0036567082 0)
(-4.6661175e-05 0.0036564231 0)
(-7.0109889e-05 0.0036560465 0)
(-0.00010817423 0.0036562496 0)
(-0.00016880652 0.0036512339 0)
(-0.00012291667 0.0035432987 0)
(0.00040956429 0.0029552222 0)
(0.00069416309 0.0035652924 0)
(0.00058717734 0.0036055362 0)
(0.00044383431 0.0035790962 0)
(0.00032294967 0.0035551815 0)
(0.00022996649 0.0035394867 0)
(0.00015919804 0.0035300397 0)
(0.00010404295 0.0035245312 0)
(5.8808414e-05 0.0035215461 0)
(1.908944e-05 0.0035202519 0)
(-1.9092476e-05 0.0035202518 0)
(-5.881099e-05 0.0035215455 0)
(-0.00010404514 0.0035245301 0)
(-0.00015919979 0.0035300388 0)
(-0.00022996776 0.0035394859 0)
(-0.00032295082 0.0035551811 0)
(-0.00044383571 0.003579096 0)
(-0.00058717895 0.0036055368 0)
(-0.00069416468 0.0035652943 0)
(-0.00040956519 0.0029552265 0)
(0.00035499731 0.0022505989 0)
(0.00074933786 0.0033719326 0)
(0.00079103034 0.0036250807 0)
(0.00069314404 0.0036479087 0)
(0.00055623565 0.0036146156 0)
(0.00042256977 0.0035753598 0)
(0.00030523296 0.003543476 0)
(0.00020488635 0.0035210735 0)
(0.00011764956 0.0035072038 0)
(3.8526042e-05 0.0035005568 0)
(-3.8530731e-05 0.0035005565 0)
(-0.00011765394 0.0035072026 0)
(-0.0002048901 0.0035210717 0)
(-0.00030523596 0.0035434741 0)
(-0.00042257204 0.0035753581 0)
(-0.00055623764 0.0036146146 0)
(-0.00069314624 0.0036479081 0)
(-0.00079103262 0.0036250806 0)
(-0.00074934 0.0033719341 0)
(-0.00035499831 0.002250602 0)
(0.00021939769 0.0017670662 0)
(0.0005648793 0.003147801 0)
(0.00070200408 0.0036241433 0)
(0.0006862368 0.0037547139 0)
(0.00059493551 0.0037577215 0)
(0.00047784562 0.0037205488 0)
(0.00035902235 0.0036779336 0)
(0.00024748217 0.0036428289 0)
(0.0001444516 0.0036191358 0)
(4.7710693e-05 0.0036073154 0)
(-4.7716083e-05 0.0036073149 0)
(-0.00014445647 0.0036191337 0)
(-0.00024748626 0.0036428264 0)
(-0.00035902571 0.0036779307 0)
(-0.00047784809 0.0037205463 0)
(-0.00059493728 0.0037577198 0)
(-0.00068623854 0.0037547126 0)
(-0.0007020054 0.0036241424 0)
(-0.00056487994 0.0031478015 0)
(-0.00021939793 0.0017670681 0)
(0.00012060538 0.001457321 0)
(0.00037410913 0.0029129346 0)
(0.00053569666 0.0035481206 0)
(0.00057340119 0.0037889527 0)
(0.0005308871 0.0038498665 0)
(0.0004479897 0.0038356384 0)
(0.00034908828 0.003797211 0)
(0.00024689047 0.0037586108 0)
(0.00014648125 0.0037301188 0)
(4.8778009e-05 0.0037153452 0)
(-4.8782222e-05 0.0037153447 0)
(-0.00014648521 0.0037301163 0)
(-0.00024689406 0.0037586079 0)
(-0.00034909138 0.0037972072 0)
(-0.00044799189 0.0038356352 0)
(-0.00053088864 0.0038498638 0)
(-0.00057340227 0.0037889506 0)
(-0.00053569703 0.003548119 0)
(-0.00037410879 0.002912934 0)
(-0.00012060499 0.0014573208 0)
(6.2978009e-05 0.0012725827 0)
(0.00023210191 0.0027169302 0)
(0.00037768319 0.0034441917 0)
(0.00043734652 0.0037729782 0)
(0.00042885558 0.003892933 0)
(0.00037813783 0.0039110151 0)
(0.00030459571 0.0038869127 0)
(0.00022063818 0.0038528165 0)
(0.00013295185 0.0038247001 0)
(4.4598703e-05 0.0038094529 0)
(-4.4601379e-05 0.0038094521 0)
(-0.00013295447 0.0038246975 0)
(-0.00022064031 0.0038528134 0)
(-0.0003045976 0.0038869089 0)
(-0.00037813938 0.0039110116 0)
(-0.00042885661 0.0038929298 0)
(-0.00043734703 0.0037729761 0)
(-0.00037768275 0.0034441898 0)
(-0.00023210081 0.0027169287 0)
(-6.2977418e-05 0.0012725812 0)
(3.2550233e-05 0.0011659827 0)
(0.00013970726 0.0025750619 0)
(0.00025408617 0.0033488091 0)
(0.0003151074 0.0037390275 0)
(0.0003250447 0.0039086617 0)
(0.00029804926 0.0039593848 0)
(0.00024739667 0.0039538736 0)
(0.00018318143 0.0039290917 0)
(0.00011197746 0.0039050462 0)
(3.7806743e-05 0.0038912526 0)
(-3.7807373e-05 0.0038912517 0)
(-0.00011197841 0.0039050437 0)
(-0.00018318268 0.0039290887 0)
(-0.00024739749 0.0039538702 0)
(-0.00029804963 0.0039593812 0)
(-0.00032504476 0.0039086588 0)
(-0.00031510727 0.0037390257 0)
(-0.00025408552 0.0033488075 0)
(-0.00013970606 0.0025750602 0)
(-3.254953e-05 0.0011659806 0)
(1.7172661e-05 0.0011045913 0)
(8.3484297e-05 0.002478691 0)
(0.00016625818 0.003272928 0)
(0.00021864875 0.0037025481 0)
(0.00023580538 0.0039096324 0)
(0.00022390076 0.0039885575 0)
(0.00019095319 0.0040016531 0)
(0.00014424686 0.0039879875 0)
(8.9346139e-05 0.0039699172 0)
(3.0339891e-05 0.0039586916 0)
(-3.0339043e-05 0.0039586909 0)
(-8.9345265e-05 0.0039699151 0)
(-0.00014424613 0.0039879845 0)
(-0.00019095267 0.0040016496 0)
(-0.00022390018 0.0039885543 0)
(-0.00023580505 0.0039096301 0)
(-0.00021864853 0.003702547 0)
(-0.00016625769 0.0032729273 0)
(-8.3483668e-05 0.00247869 0)
(-1.7172292e-05 0.0011045891 0)
(9.3685266e-06 0.0010687853 0)
(5.0116706e-05 0.0024151609 0)
(0.00010709058 0.0032166951 0)
(0.00014793985 0.0036700842 0)
(0.00016585066 0.0039034494 0)
(0.00016243648 0.0040045679 0)
(0.00014195301 0.0040339791 0)
(0.00010919705 0.0040311679 0)
(6.8453694e-05 0.004019542 0)
(2.3366156e-05 0.0040112845 0)
(-2.3364051e-05 0.0040112839 0)
(-6.845203e-05 0.0040195401 0)
(-0.00010919579 0.0040311653 0)
(-0.00014195174 0.0040339762 0)
(-0.00016243539 0.0040045653 0)
(-0.00016584988 0.0039034478 0)
(-0.00014793929 0.003670084 0)
(-0.00010709018 0.0032166957 0)
(-5.0116455e-05 0.0024151612 0)
(-9.3684191e-06 0.0010687843 0)
(5.2813013e-06 0.0010475664 0)
(3.035253e-05 0.0023740283 0)
(6.8416871e-05 0.0031769341 0)
(9.8439538e-05 0.0036440442 0)
(0.000114111 0.0038949813 0)
(0.00011486653 0.0040125196 0)
(0.00010259811 0.0040551123 0)
(8.0226609e-05 0.0040617886 0)
(5.0842788e-05 0.0040561717 0)
(1.7436496e-05 0.0040507981 0)
(-1.7434149e-05 0.0040507975 0)
(-5.0840461e-05 0.00405617 0)
(-8.0224414e-05 0.0040617868 0)
(-0.00010259634 0.0040551101 0)
(-0.00011486546 0.0040125176 0)
(-0.00011411035 0.003894981 0)
(-9.8438953e-05 0.0036440453 0)
(-6.8416415e-05 0.0031769363 0)
(-3.0352466e-05 0.0023740305 0)
(-5.2813617e-06 0.0010475669 0)
(3.0554267e-06 0.0010348032 0)
(1.8552485e-05 0.0023476606 0)
(4.355551e-05 0.0031496783 0)
(6.4802366e-05 0.0036244722 0)
(7.7305238e-05 0.0038867907 0)
(7.9711734e-05 0.0040159789 0)
(7.259397e-05 0.0040686498 0)
(5.7602997e-05 0.0040830486 0)
(3.6863925e-05 0.0040825624 0)
(1.2696694e-05 0.0040797248 0)
(-1.2693688e-05 0.0040797245 0)
(-3.6861431e-05 0.0040825611 0)
(-5.7601082e-05 0.0040830471 0)
(-7.2592662e-05 0.0040686478 0)
(-7.9710738e-05 0.0040159777 0)
(-7.7304526e-05 0.0038867919 0)
(-6.4801933e-05 0.0036244747 0)
(-4.3555412e-05 0.0031496821 0)
(-1.8552942e-05 0.0023476645 0)
(-3.0557402e-06 0.0010348053 0)
(1.7974046e-06 0.0010270338 0)
(1.1425875e-05 0.0023308247 0)
(2.7701464e-05 0.0031313417 0)
(4.2374156e-05 0.0036103455 0)
(5.18066e-05 0.0038798904 0)
(5.4553639e-05 0.0040171118 0)
(5.0541964e-05 0.0040771966 0)
(4.0630468e-05 0.0040975773 0)
(2.6229667e-05 0.0041012191 0)
(9.0690517e-06 0.004100469 0)
(-9.0665626e-06 0.0041004688 0)
(-2.6227625e-05 0.0041012179 0)
(-4.0628583e-05 0.0040975759 0)
(-5.0540641e-05 0.0040771952 0)
(-5.4552656e-05 0.0040171111 0)
(-5.1805955e-05 0.003879892 0)
(-4.23741e-05 0.0036103488 0)
(-2.7701731e-05 0.0031313464 0)
(-1.1426312e-05 0.0023308296 0)
(-1.7975969e-06 0.0010270367 0)
(1.0642776e-06 0.0010222675 0)
(7.0702904e-06 0.0023200861 0)
(1.7617511e-05 0.0031191421 0)
(2.7591016e-05 0.0036004108 0)
(3.4453585e-05 0.0038744901 0)
(3.6951433e-05 0.0040171455 0)
(3.4754232e-05 0.0040825357 0)
(2.8261632e-05 0.0041073864 0)
(1.8386063e-05 0.0041142103 0)
(6.3790604e-06 0.0041150992 0)
(-6.3774354e-06 0.0041150987 0)
(-1.8384543e-05 0.0041142091 0)
(-2.8260144e-05 0.0041073853 0)
(-3.4753235e-05 0.0040825345 0)
(-3.6950725e-05 0.0040171453 0)
(-3.4453164e-05 0.0038744918 0)
(-2.7591124e-05 0.0036004145 0)
(-1.7617836e-05 0.0031191474 0)
(-7.0707825e-06 0.0023200915 0)
(-1.0644871e-06 0.0010222707 0)
(6.2824998e-07 0.001019334 0)
(4.381393e-06 0.0023132382 0)
(1.1200751e-05 0.0031110817 0)
(1.791003e-05 0.0035935452 0)
(2.2782548e-05 0.0038704517 0)
(2.4830362e-05 0.0040167362 0)
(2.3665687e-05 0.0040858476 0)
(1.9440401e-05 0.0041139508 0)
(1.2733583e-05 0.0041231499 0)
(4.4313831e-06 0.0041252811 0)
(-4.4309144e-06 0.0041252806 0)
(-1.2732832e-05 0.0041231488 0)
(-1.9439707e-05 0.0041139497 0)
(-2.3665034e-05 0.0040858465 0)
(-2.482996e-05 0.0040167363 0)
(-2.2782802e-05 0.0038704533 0)
(-1.7910581e-05 0.0035935493 0)
(-1.1201254e-05 0.0031110873 0)
(-4.381881e-06 0.002313244 0)
(-6.2841311e-07 0.0010193375 0)
(3.6637967e-07 0.0010175307 0)
(2.7100274e-06 0.002308874 0)
(7.1116416e-06 0.0031057807 0)
(1.1593217e-05 0.0035888577 0)
(1.4994821e-05 0.0038675213 0)
(1.6577911e-05 0.0040162089 0)
(1.5986869e-05 0.0040878921 0)
(1.3250648e-05 0.0041183144 0)
(8.7315203e-06 0.0041292438 0)
(3.0469564e-06 0.0041322916 0)
(-3.0470324e-06 0.0041322912 0)
(-8.7313869e-06 0.0041292428 0)
(-1.3250451e-05 0.0041183133 0)
(-1.5986932e-05 0.0040878916 0)
(-1.6578338e-05 0.0040162094 0)
(-1.4995525e-05 0.0038675231 0)
(-1.1593938e-05 0.003588862 0)
(-7.1120732e-06 0.0031057864 0)
(-2.7101714e-06 0.0023088798 0)
(-3.6638452e-07 0.0010175342 0)
(2.0836397e-07 0.0010164286 0)
(1.6665421e-06 0.0023060977 0)
(4.5022779e-06 0.0031023065 0)
(7.4804261e-06 0.0035856848 0)
(9.8265368e-06 0.0038654384 0)
(1.1005904e-05 0.004015708 0)
(1.0725773e-05 0.0040891489 0)
(8.9610224e-06 0.0041211988 0)
(5.9364943e-06 0.004133365 0)
(2.0765534e-06 0.0041370751 0)
(-2.0774507e-06 0.0041370746 0)
(-5.9372987e-06 0.0041333641 0)
(-8.9615855e-06 0.0041211979 0)
(-1.0726242e-05 0.0040891484 0)
(-1.1006522e-05 0.0040157087 0)
(-9.8271211e-06 0.0038654404 0)
(-7.4808558e-06 0.0035856892 0)
(-4.5025298e-06 0.0031023124 0)
(-1.6666072e-06 0.0023061033 0)
(-2.0837131e-07 0.0010164317 0)
(1.1409631e-07 0.0010157617 0)
(1.0150194e-06 0.0023043371 0)
(2.8367188e-06 0.0031000373 0)
(4.8070439e-06 0.0035835511 0)
(6.4103401e-06 0.0038639791 0)
(7.267563e-06 0.0040152854 0)
(7.1515157e-06 0.0040899174 0)
(6.0183498e-06 0.0041230956 0)
(4.0061596e-06 0.0041361324 0)
(1.4042448e-06 0.004140313 0)
(-1.4056703e-06 0.0041403127 0)
(-4.0073589e-06 0.0041361315 0)
(-6.019442e-06 0.0041230948 0)
(-7.1524931e-06 0.0040899169 0)
(-7.2685762e-06 0.0040152861 0)
(-6.4111923e-06 0.0038639813 0)
(-4.8072832e-06 0.0035835554 0)
(-2.836683e-06 0.0031000431 0)
(-1.0153111e-06 0.0023043427 0)
(-1.1430055e-07 0.0010157648 0)
(5.8337614e-08 0.0010153645 0)
(6.0919654e-07 0.002303226 0)
(1.7743942e-06 0.0030985604 0)
(3.0723022e-06 0.0035821239 0)
(4.1603523e-06 0.0038629676 0)
(4.7729718e-06 0.0040149506 0)
(4.7398975e-06 0.0040903838 0)
(4.0156553e-06 0.0041243367 0)
(2.684788e-06 0.0041379789 0)
(9.4282521e-07 0.0041424896 0)
(-9.448023e-07 0.0041424892 0)
(-2.6867421e-06 0.0041379781 0)
(-4.0172334e-06 0.004124336 0)
(-4.7411248e-06 0.0040903834 0)
(-4.7741616e-06 0.0040149514 0)
(-4.1615269e-06 0.0038629698 0)
(-3.0726813e-06 0.0035821281 0)
(-1.7740732e-06 0.0030985665 0)
(-6.0909638e-07 0.0023032319 0)
(-5.8386102e-08 0.0010153676 0)
(2.6122009e-08 0.0010151333 0)
(3.578262e-07 0.0023025304 0)
(1.0989494e-06 0.0030976035 0)
(1.9502572e-06 0.0035811742 0)
(2.6844561e-06 0.0038622725 0)
(3.11678e-06 0.0040146955 0)
(3.122848e-06 0.0040906639 0)
(2.6627879e-06 0.0041251443 0)
(1.7877122e-06 0.0041392034 0)
(6.2872048e-07 0.0041439426 0)
(-6.3093034e-07 0.0041439422 0)
(-1.7896486e-06 0.0041392027 0)
(-2.6646056e-06 0.0041251436 0)
(-3.1242909e-06 0.0040906636 0)
(-3.1178531e-06 0.0040146958 0)
(-2.6854883e-06 0.0038622744 0)
(-1.9509443e-06 0.0035811782 0)
(-1.098894e-06 0.0030976097 0)
(-3.5772552e-07 0.0023025363 0)
(-2.6188158e-08 0.0010151368 0)
(8.2632895e-09 0.0010150033 0)
(2.0352707e-07 0.0023020992 0)
(6.7127439e-07 0.0030969874 0)
(1.2272791e-06 0.0035805449 0)
(1.7200312e-06 0.0038617979 0)
(2.0223546e-06 0.0040145052 0)
(2.0447358e-06 0.00409083 0)
(1.7546149e-06 0.0041256665 0)
(1.1827353e-06 0.0041400102 0)
(4.1650673e-07 0.0041449063 0)
(-4.1884423e-07 0.0041449061 0)
(-1.1850967e-06 0.0041400096 0)
(-1.7567974e-06 0.0041256655 0)
(-2.0466171e-06 0.0040908294 0)
(-2.0239617e-06 0.0040145054 0)
(-1.7213498e-06 0.0038617994 0)
(-1.2280519e-06 0.0035805486 0)
(-6.7164296e-07 0.0030969929 0)
(-2.0371281e-07 0.0023021051 0)
(-8.2679028e-09 0.0010150071 0)
(-1.1827013e-09 0.0010149343 0)
(1.1042163e-07 0.0023018356 0)
(4.0280063e-07 0.0030965931 0)
(7.6400105e-07 0.0035801302 0)
(1.0934231e-06 0.0038614759 0)
(1.3031549e-06 0.0040143663 0)
(1.3304159e-06 0.0040909266 0)
(1.1490135e-06 0.004126002 0)
(7.7723318e-07 0.0041405387 0)
(2.7379385e-07 0.0041455418 0)
(-2.767882e-07 0.0041455413 0)
(-7.8019121e-07 0.0041405376 0)
(-1.1514664e-06 0.0041260009 0)
(-1.3326342e-06 0.0040909253 0)
(-1.3052765e-06 0.0040143658 0)
(-1.0949151e-06 0.0038614769 0)
(-7.6515077e-07 0.0035801335 0)
(-4.035872e-07 0.003096598 0)
(-1.1079343e-07 0.0023018414 0)
(1.0488163e-09 0.001014938 0)
(-5.4884593e-09 0.0010149012 0)
(5.5729199e-08 0.0023016774 0)
(2.3647296e-07 0.0030963425 0)
(4.6951261e-07 0.0035798584 0)
(6.8865792e-07 0.0038612588 0)
(8.3344954e-07 0.0040142662 0)
(8.5953662e-07 0.0040909812 0)
(7.4736285e-07 0.0041262162 0)
(5.0753952e-07 0.004140883 0)
(1.7848755e-07 0.0041459585 0)
(-1.8239111e-07 0.0041459577 0)
(-5.1096774e-07 0.0041408815 0)
(-7.5050874e-07 0.0041262148 0)
(-8.6259536e-07 0.0040909796 0)
(-8.3625255e-07 0.004014265 0)
(-6.909172e-07 0.003861259 0)
(-4.7118145e-07 0.0035798608 0)
(-2.3726742e-07 0.0030963471 0)
(-5.5935966e-08 0.0023016828 0)
(5.4391666e-09 0.0010149047 0)
(-7.0750506e-09 0.0010148885 0)
(2.4151151e-08 0.0023015848 0)
(1.3475115e-07 0.0030961849 0)
(2.8474983e-07 0.003579681 0)
(4.3003087e-07 0.0038611128 0)
(5.294034e-07 0.0040141947 0)
(5.5191485e-07 0.0040910111 0)
(4.8322689e-07 0.0041263523 0)
(3.2937874e-07 0.004141106 0)
(1.1546987e-07 0.0041462303 0)
(-1.1999269e-07 0.0041462297 0)
(-3.3370284e-07 0.0041411047 0)
(-4.874104e-07 0.0041263506 0)
(-5.5583017e-07 0.0040910094 0)
(-5.3291582e-07 0.004014193 0)
(-4.328436e-07 0.0038611121 0)
(-2.8668456e-07 0.0035796825 0)
(-1.3597748e-07 0.0030961888 0)
(-2.4731033e-08 0.0023015895 0)
(7.0126893e-09 0.0010148916 0)
(-6.9842369e-09 0.0010148863 0)
(7.3858234e-09 0.0023015321 0)
(7.4331684e-08 0.0030960866 0)
(1.7072277e-07 0.003579566 0)
(2.6717674e-07 0.0038610152 0)
(3.3513506e-07 0.0040141442 0)
(3.5317763e-07 0.0040910268 0)
(3.1122367e-07 0.0041264382 0)
(2.1256516e-07 0.00414125 0)
(7.3807029e-08 0.0041464068 0)
(-7.9453188e-08 0.0041464063 0)
(-2.1800499e-07 0.0041412488 0)
(-3.1628679e-07 0.0041264363 0)
(-3.579127e-07 0.0040910248 0)
(-3.3916003e-07 0.004014142 0)
(-2.7050728e-07 0.0038610135 0)
(-1.7348464e-07 0.0035795665 0)
(-7.6296648e-08 0.0030960891 0)
(-8.194646e-09 0.0023015356 0)
(6.9376824e-09 0.0010148891 0)
(-5.885144e-09 0.0010148895 0)
(1.1986826e-10 0.0023015024 0)
(4.0872923e-08 0.0030960253 0)
(1.0284767e-07 0.0035794916 0)
(1.6676812e-07 0.00386095 0)
(2.1316798e-07 0.0040141091 0)
(2.2680584e-07 0.004091035 0)
(2.0071119e-07 0.0041264928 0)
(1.3707766e-07 0.0041413434 0)
(4.6758305e-08 0.0041465221 0)
(-5.3087385e-08 0.0041465217 0)
(-1.4364284e-07 0.0041413421 0)
(-2.0725549e-07 0.0041264906 0)
(-2.3252886e-07 0.0040910325 0)
(-2.1821028e-07 0.0040141064 0)
(-1.7134565e-07 0.0038609475 0)
(-1.0653701e-07 0.0035794903 0)
(-4.3199675e-08 0.0030960261 0)
(-8.2293955e-10 0.0023015049 0)
(5.9503037e-09 0.0010148913 0)
(-4.5815045e-09 0.001014894 0)
(-1.7459192e-09 0.0023014857 0)
(2.4578925e-08 0.0030959865 0)
(6.5444083e-08 0.0035794429 0)
(1.0817344e-07 0.0038609068 0)
(1.3933703e-07 0.0040140855 0)
(1.4877473e-07 0.00409104 0)
(1.3160974e-07 0.0041265284 0)
(8.9407711e-08 0.0041414049 0)
(2.9659304e-08 0.0041465983 0)
(-3.6616856e-08 0.0041465981 0)
(-9.6806686e-08 0.0041414034 0)
(-1.3897696e-07 0.004126526 0)
(-1.5566304e-07 0.0040910367 0)
(-1.457851e-07 0.0040140818 0)
(-1.1385691e-07 0.0038609033 0)
(-7.0044613e-08 0.0035794401 0)
(-2.7459037e-08 0.0030959856 0)
(8.7345204e-10 0.0023014868 0)
(4.5774358e-09 0.0010148951 0)
(-2.6911425e-09 0.0010148975 0)
(5.699521e-10 0.0023014747 0)
(2.0139702e-08 0.0030959603 0)
(4.8777338e-08 0.0035794103 0)
(7.7661943e-08 0.0038608781 0)
(9.7680868e-08 0.0040140703 0)
(1.0284662e-07 0.0040910438 0)
(9.0179985e-08 0.004126553 0)
(6.0464587e-08 0.0041414468 0)
(1.8767663e-08 0.0041466498 0)
(-2.7155123e-08 0.0041466495 0)
(-6.860921e-08 0.004141445 0)
(-9.8201472e-08 0.0041265504 0)
(-1.1077708e-07 0.00409104 0)
(-1.0501276e-07 0.0040140657 0)
(-8.3948394e-08 0.0038608735 0)
(-5.3976707e-08 0.0035794061 0)
(-2.3568208e-08 0.0030959577 0)
(-1.7393411e-09 0.0023014736 0)
(2.6226002e-09 0.0010148976 0)
(-2.9150541e-10 0.0010148987 0)
(6.6172285e-09 0.0023014644 0)
(2.5429747e-08 0.0030959408 0)
(4.7189187e-08 0.003579388 0)
(6.6645607e-08 0.00386086 0)
(7.8413924e-08 0.0040140622 0)
(7.9060929e-08 0.0040910491 0)
(6.7159193e-08 0.0041265723 0)
(4.3620424e-08 0.0041414778 0)
(1.2426643e-08 0.0041466874 0)
(-2.1518096e-08 0.0041466866 0)
(-5.2693657e-08 0.0041414758 0)
(-7.6093204e-08 0.0041265692 0)
(-8.7821347e-08 0.0040910447 0)
(-8.6437029e-08 0.0040140565 0)
(-7.3700239e-08 0.003860854 0)
(-5.2982828e-08 0.0035793817 0)
(-2.9171907e-08 0.0030959358 0)
(-8.102269e-09 0.0023014608 0)
(1.7203198e-10 0.0010148973 0)
(3.5532595e-09 0.0010148955 0)
(1.7507787e-08 0.0023014526 0)
(3.9533229e-08 0.0030959261 0)
(5.7896872e-08 0.0035793749 0)
(7.0338738e-08 0.0038608529 0)
(7.4649067e-08 0.0040140635 0)
(6.9941204e-08 0.0040910605 0)
(5.6470297e-08 0.0041265933 0)
(3.5485108e-08 0.0041415066 0)
(9.2811986e-09 0.0041467206 0)
(-1.8918374e-08 0.0041467194 0)
(-4.5371614e-08 0.0041415042 0)
(-6.6658007e-08 0.0041265898 0)
(-7.9771804e-08 0.0040910553 0)
(-8.3568115e-08 0.0040140567 0)
(-7.8155096e-08 0.003860845 0)
(-6.4192262e-08 0.0035793661 0)
(-4.3544675e-08 0.003095918 0)
(-1.9156992e-08 0.0023014463 0)
(-3.7178136e-09 0.001014893 0)
(1.1484158e-08 0.0010148802 0)
(3.7188361e-08 0.0023014261 0)
(6.3952582e-08 0.0030959035 0)
(7.9270665e-08 0.0035793592 0)
(8.4860988e-08 0.003860845 0)
(8.1863304e-08 0.0040140631 0)
(7.105067e-08 0.0040910675 0)
(5.4070209e-08 0.0041266073 0)
(3.2464961e-08 0.0041415254 0)
(7.5851898e-09 0.0041467416 0)
(-1.854658e-08 0.0041467405 0)
(-4.3514356e-08 0.0041415226 0)
(-6.5318155e-08 0.0041266034 0)
(-8.2066415e-08 0.004091062 0)
(-9.1864277e-08 0.0040140551 0)
(-9.3696264e-08 0.0038608351 0)
(-8.6302148e-08 0.003579348 0)
(-6.8342444e-08 0.0030958921 0)
(-3.872466e-08 0.0023014171 0)
(-1.1528553e-08 0.0010148765 0)
(2.2150033e-08 0.001014739 0)
(6.2485551e-08 0.0023012736 0)
(9.3762481e-08 0.0030957628 0)
(1.049093e-07 0.0035792296 0)
(1.0357012e-07 0.0038607237 0)
(9.3589982e-08 0.0040139484 0)
(7.7245832e-08 0.0040909579 0)
(5.6048965e-08 0.0041265015 0)
(3.1859947e-08 0.0041414218 0)
(6.4446762e-09 0.0041466393 0)
(-1.9300511e-08 0.0041466381 0)
(-4.4515332e-08 0.0041414187 0)
(-6.8083293e-08 0.004126497 0)
(-8.8854049e-08 0.0040909514 0)
(-1.0442567e-07 0.004013939 0)
(-1.1289623e-07 0.0038607121 0)
(-1.122889e-07 0.0035792161 0)
(-9.879225e-08 0.0030957483 0)
(-6.4669663e-08 0.0023012618 0)
(-2.2544113e-08 0.0010147338 0)
(2.7579217e-08 0.0010148181 0)
(7.5420906e-08 0.0023013671 0)
(1.0633987e-07 0.0030958955 0)
(1.153959e-07 0.003579389 0)
(1.1153456e-07 0.0038609005 0)
(9.8469759e-08 0.0040141385 0)
(7.9297816e-08 0.0040911564 0)
(5.6142155e-08 0.004126705 0)
(3.1348437e-08 0.0041416275 0)
(5.9735372e-09 0.004146846 0)
(-1.970946e-08 0.0041468449 0)
(-4.4991674e-08 0.0041416246 0)
(-6.9430824e-08 0.0041266998 0)
(-9.1607195e-08 0.0040911483 0)
(-1.0949166e-07 0.0040141268 0)
(-1.209592e-07 0.0038608872 0)
(-1.2344855e-07 0.0035793724 0)
(-1.1214986e-07 0.0030958776 0)
(-7.777866e-08 0.0023013515 0)
(-2.7962986e-08 0.001014811 0)
)
;

boundaryField
{
    Wall
    {
        type            fixedValue;
        value           uniform (0 0 0);
    }
    frontAndBack
    {
        type            empty;
    }
    atmosphere
    {
        type            pressureInletOutletVelocity;
        value           nonuniform List<vector> 
20
(
(2.7579217e-08 0.0010148181 0)
(7.5420906e-08 0.0023013671 0)
(1.0633987e-07 0.0030958955 0)
(1.153959e-07 0.003579389 0)
(1.1153456e-07 0.0038609005 0)
(9.8469759e-08 0.0040141385 0)
(7.9297816e-08 0.0040911564 0)
(5.6142155e-08 0.004126705 0)
(3.1348437e-08 0.0041416275 0)
(5.9735372e-09 0.004146846 0)
(-1.970946e-08 0.0041468449 0)
(-4.4991674e-08 0.0041416246 0)
(-6.9430824e-08 0.0041266998 0)
(-9.1607195e-08 0.0040911483 0)
(-1.0949166e-07 0.0040141268 0)
(-1.209592e-07 0.0038608872 0)
(-1.2344855e-07 0.0035793724 0)
(-1.1214986e-07 0.0030958776 0)
(-7.777866e-08 0.0023013515 0)
(-2.7962986e-08 0.001014811 0)
)
;
    }
}


// ************************************************************************* //
