/*--------------------------------*- C++ -*----------------------------------*\
| =========                 |                                                 |
| \\      /  F ield         | OpenFOAM: The Open Source CFD Toolbox           |
|  \\    /   O peration     | Version:  3.0.1                                 |
|   \\  /    A nd           | Web:      www.OpenFOAM.org                      |
|    \\/     M anipulation  |                                                 |
\*---------------------------------------------------------------------------*/
FoamFile
{
    version     2.0;
    format      ascii;
    class       volScalarField;
    location    "17";
    object      wBA_g;
}
// * * * * * * * * * * * * * * * * * * * * * * * * * * * * * * * * * * * * * //

dimensions      [0 0 0 0 0 0 0];

internalField   nonuniform List<scalar> 
800
(
0.030499114
0.030502867
0.030503385
0.030503518
0.030503609
0.03050368
0.030503737
0.030503777
0.030503804
0.030503816
0.030503816
0.030503804
0.030503777
0.030503737
0.03050368
0.030503609
0.030503518
0.030503385
0.030502867
0.030499114
0.030557464
0.03065796
0.03066523
0.030665576
0.030665199
0.030665481
0.030666043
0.030666588
0.030666982
0.030667184
0.030667184
0.030666982
0.030666588
0.030666042
0.03066548
0.030665199
0.030665576
0.03066523
0.030657959
0.030557463
0.025846572
0.025986841
0.026097389
0.026100436
0.026101248
0.026102968
0.026104909
0.026106581
0.02610774
0.02610833
0.02610833
0.02610774
0.02610658
0.026104908
0.026102966
0.026101247
0.026100435
0.026097388
0.02598684
0.025846568
0.01768974
0.017982267
0.018080403
0.018082912
0.0180841
0.0180865
0.01808904
0.018091235
0.018092736
0.018093501
0.018093501
0.018092735
0.018091234
0.018089039
0.018086499
0.018084098
0.01808291
0.018080401
0.017982264
0.017689735
0.0073304028
0.0075146071
0.0075757924
0.0075786541
0.0075805671
0.0075828175
0.0075848845
0.0075865181
0.0075875955
0.0075881326
0.0075881325
0.007587595
0.0075865173
0.0075848836
0.0075828167
0.0075805662
0.0075786532
0.0075757913
0.0075146054
0.0073303997
0.0034064587
0.0034979173
0.0035300089
0.0035328804
0.0035349496
0.0035367864
0.0035382313
0.0035392661
0.0035399157
0.0035402318
0.0035402317
0.0035399154
0.0035392656
0.0035382307
0.0035367859
0.0035349491
0.0035328799
0.0035300084
0.0034979166
0.0034064575
0.0017501519
0.0017981561
0.0018150154
0.001817721
0.0018195454
0.0018208758
0.0018217934
0.0018223928
0.0018227507
0.0018229184
0.0018229184
0.0018227505
0.0018223925
0.0018217931
0.0018208756
0.0018195452
0.0018177208
0.0018150152
0.001798156
0.0017501515
0.00093494718
0.00096823775
0.00097896299
0.00098140891
0.00098273322
0.00098348986
0.00098392584
0.00098418191
0.00098432025
0.00098437714
0.00098437712
0.00098432015
0.00098418175
0.00098392571
0.00098348978
0.0009827332
0.00098140892
0.00097896305
0.00096823785
0.00093494716
0.00045549541
0.00048772244
0.00049773121
0.00049973038
0.00050020814
0.00050024863
0.00050018086
0.00050011874
0.00050006817
0.00050003182
0.0005000318
0.00050006811
0.00050011864
0.00050018082
0.00050024865
0.00050020823
0.00049973053
0.00049773137
0.00048772266
0.0004554956
0.0001848339
0.00022381346
0.00023572845
0.00023780806
0.00023740476
0.00023660471
0.00023593327
0.00023549454
0.00023522844
0.00023509112
0.00023509109
0.00023522838
0.00023549444
0.00023593323
0.00023660474
0.00023740485
0.00023780819
0.00023572858
0.00022381363
0.00018483411
5.4316242e-05
9.243058e-05
0.00010543066
0.00010837494
0.00010795301
0.00010676733
0.00010567597
0.00010491245
0.00010444046
0.00010420699
0.00010420696
0.0001044404
0.00010491235
0.00010567591
0.00010676733
0.00010795305
0.00010837503
0.00010543073
9.2430676e-05
5.4316351e-05
1.1166672e-05
3.3521746e-05
4.3843913e-05
4.7079805e-05
4.7238528e-05
4.6408885e-05
4.5473906e-05
4.4757963e-05
4.4295219e-05
4.4065139e-05
4.406511e-05
4.4295167e-05
4.4757872e-05
4.5473848e-05
4.640887e-05
4.723854e-05
4.7079847e-05
4.3843937e-05
3.3521783e-05
1.1166702e-05
1.6766474e-06
1.0598578e-05
1.6764485e-05
1.9300304e-05
1.977378e-05
1.9407693e-05
1.8845429e-05
1.8372478e-05
1.8052668e-05
1.7891381e-05
1.7891361e-05
1.805263e-05
1.8372415e-05
1.8845384e-05
1.9407675e-05
1.9773775e-05
1.930032e-05
1.676449e-05
1.0598588e-05
1.6766521e-06
1.9697212e-07
2.9323237e-06
5.879562e-06
7.4270188e-06
7.8744609e-06
7.7786699e-06
7.5110177e-06
7.2614662e-06
7.0850981e-06
6.9948062e-06
6.9947948e-06
7.0850754e-06
7.2614284e-06
7.5109893e-06
7.7786552e-06
7.8744514e-06
7.4270229e-06
5.8795614e-06
2.9323247e-06
1.9697264e-07
1.9317364e-08
7.1869947e-07
1.8974016e-06
2.6808555e-06
2.9751432e-06
2.9791227e-06
2.8728821e-06
2.760882e-06
2.678081e-06
2.6350659e-06
2.63506e-06
2.6780691e-06
2.7608621e-06
2.8728664e-06
2.9791134e-06
2.9751357e-06
2.6808557e-06
1.8974006e-06
7.186992e-07
1.9317415e-08
1.6596787e-09
1.5863373e-07
5.67039e-07
9.0971483e-07
1.0661855e-06
1.0886764e-06
1.052934e-06
1.0086955e-06
9.7436911e-07
9.5627386e-07
9.5627115e-07
9.7436348e-07
1.008686e-06
1.0529261e-06
1.0886714e-06
1.066181e-06
9.0971424e-07
5.6703852e-07
1.5863356e-07
1.6596842e-09
1.2894227e-10
3.2054269e-08
1.5816522e-07
2.9130851e-07
3.6289313e-07
3.7958877e-07
3.6955939e-07
3.5388042e-07
3.410332e-07
3.3415639e-07
3.3415526e-07
3.4103075e-07
3.5387632e-07
3.695558e-07
3.7958636e-07
3.6289093e-07
2.9130804e-07
1.5816505e-07
3.2054219e-08
1.2894292e-10
9.2401095e-12
6.0149356e-09
4.1507382e-08
8.8413441e-08
1.17574e-07
1.2639361e-07
1.2423674e-07
1.1919708e-07
1.1479449e-07
1.1239817e-07
1.1239774e-07
1.1479349e-07
1.1919545e-07
1.2423524e-07
1.2639256e-07
1.1757304e-07
8.8413186e-08
4.1507336e-08
6.014925e-09
9.2401818e-12
6.1843768e-13
1.0607203e-09
1.0324601e-08
2.5544386e-08
3.6353635e-08
4.0250095e-08
4.0033318e-08
3.8557948e-08
3.7163658e-08
3.6390172e-08
3.6390017e-08
3.7163279e-08
3.8557343e-08
4.0032737e-08
4.0249673e-08
3.6353261e-08
2.5544272e-08
1.032459e-08
1.0607185e-09
6.1844484e-13
3.8981807e-14
1.775524e-10
2.45008e-09
7.0538373e-09
1.0754944e-08
1.2279282e-08
1.2378099e-08
1.1985596e-08
1.1575044e-08
1.1342119e-08
1.1342067e-08
1.1574908e-08
1.1985385e-08
1.2377888e-08
1.2279123e-08
1.075481e-08
7.0537923e-09
2.4500771e-09
1.7755213e-10
3.8982428e-14
2.3284076e-15
2.8453979e-11
5.5775479e-10
1.8682003e-09
3.0515901e-09
3.5948707e-09
3.6766197e-09
3.5828379e-09
3.4700386e-09
3.4042651e-09
3.4042484e-09
3.4699927e-09
3.5827685e-09
3.6765477e-09
3.5948141e-09
3.0515455e-09
1.8681841e-09
5.5775392e-10
2.8453935e-11
2.3284543e-15
1.3250539e-16
4.3989509e-12
1.2235862e-10
4.7594224e-10
8.3215898e-10
1.0115437e-09
1.0502589e-09
1.0307592e-09
1.0018016e-09
9.8432303e-10
9.8431785e-10
1.0017869e-09
1.0307374e-09
1.0502355e-09
1.0115246e-09
8.3214502e-10
4.7593694e-10
1.2235834e-10
4.3989427e-12
1.3250856e-16
7.2248198e-18
6.6046824e-13
2.5960762e-11
1.1690559e-10
2.1847879e-10
2.7395648e-10
2.8883166e-10
2.8561163e-10
2.7867294e-10
2.7429194e-10
2.7429041e-10
2.7866843e-10
2.8560509e-10
2.8882441e-10
2.7395037e-10
2.1847465e-10
1.1690397e-10
2.5960669e-11
6.6046651e-13
7.2250148e-18
3.7996314e-19
9.6852957e-14
5.3415759e-12
2.7736801e-11
5.5304202e-11
7.1497055e-11
7.6539871e-11
7.6274773e-11
7.4729614e-11
7.3692747e-11
7.3692308e-11
7.4728296e-11
7.6272885e-11
7.6537733e-11
7.1495191e-11
5.5303025e-11
2.7736336e-11
5.3415468e-12
9.6852583e-14
3.7997421e-19
1.9438849e-20
1.3932927e-14
1.0678639e-12
6.365172e-12
1.3513095e-11
1.7998404e-11
1.9559899e-11
1.9644458e-11
1.9327772e-11
1.909611e-11
1.9095989e-11
1.9327403e-11
1.9643933e-11
1.9559293e-11
1.7997861e-11
1.3512773e-11
6.3650465e-12
1.0678555e-12
1.3932848e-14
1.943943e-20
9.7798577e-22
1.9719997e-15
2.0767207e-13
1.4142567e-12
3.190087e-12
4.3739905e-12
4.8236926e-12
4.8819868e-12
4.8234664e-12
4.7746983e-12
4.7746657e-12
4.8233677e-12
4.8818458e-12
4.8235275e-12
4.3738397e-12
3.1900013e-12
1.4142243e-12
2.0766985e-13
1.9719842e-15
9.7801316e-22
4.9024791e-23
2.749834e-16
3.931269e-14
3.044521e-13
7.2816308e-13
1.0268906e-12
1.1486655e-12
1.1713265e-12
1.1620365e-12
1.1524053e-12
1.1523967e-12
1.162011e-12
1.17129e-12
1.1486223e-12
1.0268505e-12
7.281409e-13
3.0444406e-13
3.9312143e-14
2.7498046e-16
4.9025915e-23
2.4828583e-24
3.7778774e-17
7.2456664e-15
6.3533525e-14
1.6080751e-13
2.3304479e-13
2.642745e-13
2.714589e-13
2.7037172e-13
2.6860241e-13
2.6860026e-13
2.7036536e-13
2.7144971e-13
2.6426361e-13
2.3303456e-13
1.6080194e-13
6.3531606e-14
7.2455379e-15
3.7778245e-17
2.4828939e-24
1.2852941e-25
5.1085234e-18
1.300165e-15
1.2857139e-14
3.4377355e-14
5.1152365e-14
5.8776119e-14
6.0798683e-14
6.0784031e-14
6.0486674e-14
6.0486152e-14
6.07825e-14
6.0796453e-14
5.8773467e-14
5.114987e-14
3.4375996e-14
1.2856697e-14
1.3001364e-15
5.1084323e-18
1.2852971e-25
6.8410279e-27
6.7882091e-19
2.2709988e-16
2.5239217e-15
7.117735e-15
1.0865063e-14
1.2643371e-14
1.3166533e-14
1.321054e-14
1.3166435e-14
1.3166312e-14
1.3210184e-14
1.316601e-14
1.2642749e-14
1.0864477e-14
7.1174145e-15
2.5238234e-15
2.2709383e-16
6.7880589e-19
6.8409478e-27
4.3830091e-28
8.8479653e-20
3.8604634e-17
4.8074748e-16
1.4279644e-15
2.2344071e-15
2.631929e-15
2.7584523e-15
2.7770363e-15
2.7718023e-15
2.7717745e-15
2.776956e-15
2.7583337e-15
2.6317885e-15
2.234275e-15
1.4278913e-15
4.8072625e-16
3.860341e-17
8.8477278e-20
4.3535118e-28
5.5194853e-29
1.1293007e-20
6.3853165e-18
8.8876387e-17
2.7771359e-16
4.4512132e-16
5.3048154e-16
5.5938739e-16
5.6494936e-16
5.6465132e-16
5.6464523e-16
5.6493196e-16
5.5936145e-16
5.3045089e-16
4.4509258e-16
2.7769749e-16
8.8871954e-17
6.385078e-18
1.1292645e-20
5.2975386e-29
1.2986565e-28
1.409318e-21
1.0275175e-18
1.5951775e-17
5.2381547e-17
8.5941785e-17
1.0358336e-16
1.0986409e-16
1.1128843e-16
1.1137048e-16
1.113692e-16
1.1128478e-16
1.0985861e-16
1.035769e-16
8.5935766e-17
5.2378131e-17
1.5950877e-17
1.0274728e-18
1.4092645e-21
1.0442635e-28
2.125317e-29
1.7176385e-22
1.608562e-19
2.7804798e-18
9.586487e-18
1.6090383e-17
1.9605359e-17
2.0909431e-17
2.124e-17
2.1280689e-17
2.1280428e-17
2.123926e-17
2.0908311e-17
1.9604043e-17
1.6089164e-17
9.5857896e-18
2.7803037e-18
1.6084811e-19
1.7175622e-22
1.5886025e-29
1.1173967e-30
2.0426965e-23
2.4498628e-20
4.708302e-19
1.7031044e-18
2.9227546e-18
3.5988817e-18
3.858533e-18
3.929869e-18
3.9417116e-18
3.9416606e-18
3.9297238e-18
3.8583122e-18
3.5986227e-18
2.9225162e-18
1.7029671e-18
4.7079675e-19
2.449721e-20
2.0425903e-23
5.4256375e-31
3.2900127e-32
2.3690384e-24
3.630343e-21
7.7481551e-20
2.9385027e-19
5.1536043e-19
6.4107877e-19
6.9079125e-19
7.0530491e-19
7.081521e-19
7.081424e-19
7.0527735e-19
6.9074914e-19
6.410295e-19
5.1531529e-19
2.9382417e-19
7.7475399e-20
3.630102e-21
2.3688943e-24
2.0551491e-32
1.5699921e-33
2.6784515e-25
5.2351661e-22
1.2396118e-20
4.9262623e-20
8.8257342e-20
1.1087865e-19
1.2005104e-19
1.2285876e-19
1.2347202e-19
1.2347023e-19
1.228537e-19
1.2004327e-19
1.1086957e-19
8.8249064e-20
4.9257835e-20
1.2395022e-20
5.2347682e-22
2.6782612e-25
1.1287945e-33
7.8911217e-35
2.9516531e-26
7.3483237e-23
1.9288429e-21
8.0282224e-21
1.4687174e-20
1.8630136e-20
2.0264064e-20
2.0783467e-20
2.090574e-20
2.0905422e-20
2.0782566e-20
2.026268e-20
1.8628518e-20
1.4685702e-20
8.027372e-21
1.9286532e-21
7.3476859e-23
2.9514083e-26
5.5720174e-35
3.3494589e-36
3.170323e-27
1.0042401e-23
2.9201594e-22
1.2724323e-21
2.3762755e-21
3.0426395e-21
3.3240803e-21
3.4163335e-21
3.4392798e-21
3.4392253e-21
3.4161779e-21
3.3238411e-21
3.04236e-21
2.3760214e-21
1.2722861e-21
2.9198411e-22
1.0041407e-23
3.1700169e-27
2.254755e-36
1.1682649e-37
3.3191807e-28
1.3366234e-24
4.3032088e-23
1.9622971e-22
3.7397796e-22
4.8326032e-22
5.301979e-22
5.4597766e-22
5.5007081e-22
5.5006172e-22
5.459516e-22
5.3015783e-22
4.8321338e-22
3.7393535e-22
1.9620535e-22
4.3026905e-23
1.3364728e-24
3.3188085e-28
7.5089149e-38
)
;

boundaryField
{
    Wall
    {
        type            zeroGradient;
    }
    frontAndBack
    {
        type            empty;
    }
    atmosphere
    {
        type            zeroGradient;
    }
}


// ************************************************************************* //
