/*--------------------------------*- C++ -*----------------------------------*\
| =========                 |                                                 |
| \\      /  F ield         | OpenFOAM: The Open Source CFD Toolbox           |
|  \\    /   O peration     | Version:  3.0.1                                 |
|   \\  /    A nd           | Web:      www.OpenFOAM.org                      |
|    \\/     M anipulation  |                                                 |
\*---------------------------------------------------------------------------*/
FoamFile
{
    version     2.0;
    format      ascii;
    class       volScalarField;
    location    "17";
    object      wBA_l_0;
}
// * * * * * * * * * * * * * * * * * * * * * * * * * * * * * * * * * * * * * //

dimensions      [0 0 0 0 0 0 0];

internalField   nonuniform List<scalar> 
800
(
0.05562546
0.05562524
0.055625246
0.055625253
0.055625256
0.055625258
0.05562526
0.055625262
0.055625263
0.055625264
0.055625264
0.055625263
0.055625262
0.05562526
0.055625258
0.055625256
0.055625252
0.055625246
0.05562524
0.055625461
0.055940207
0.05593371
0.05593218
0.055931609
0.055931236
0.055930934
0.055930695
0.05593052
0.055930406
0.05593035
0.055930351
0.055930407
0.05593052
0.055930695
0.055930934
0.055931235
0.055931609
0.05593218
0.055933711
0.055940209
0.053382105
0.053405335
0.053408627
0.053408682
0.053408137
0.053407854
0.053407709
0.053407636
0.053407597
0.053407582
0.053407582
0.053407597
0.053407636
0.053407709
0.053407853
0.053408137
0.053408681
0.053408626
0.053405335
0.053382105
0.048852157
0.048926446
0.048935201
0.048935027
0.048934237
0.048933859
0.048933669
0.048933565
0.0489335
0.048933469
0.048933469
0.0489335
0.048933565
0.048933669
0.04893386
0.048934237
0.048935028
0.048935201
0.048926447
0.048852156
0.043023118
0.043179549
0.043197545
0.043198432
0.043197712
0.043197108
0.043196577
0.04319613
0.043195803
0.043195633
0.043195633
0.043195804
0.043196131
0.043196579
0.043197109
0.043197714
0.043198434
0.043197548
0.043179551
0.043023119
0.036259465
0.036550281
0.036592678
0.036600182
0.036600953
0.036600118
0.036598933
0.036597659
0.036596757
0.03659628
0.03659628
0.036596758
0.03659766
0.036598935
0.036600121
0.036600957
0.036600186
0.036592683
0.036550286
0.036259469
0.028931098
0.029421989
0.0295297
0.029555216
0.02955989
0.029558429
0.029555894
0.029553253
0.029551416
0.029550354
0.029550354
0.029551417
0.029553255
0.029555898
0.029558433
0.029559895
0.029555222
0.029529707
0.029421996
0.028931107
0.021365739
0.022158506
0.022404579
0.022467347
0.022477648
0.022473213
0.02246661
0.022461388
0.022457721
0.022455534
0.022455535
0.022457722
0.022461389
0.022466613
0.022473217
0.022477654
0.022467356
0.022404587
0.022158515
0.021365752
0.013542903
0.014771172
0.015262885
0.015397574
0.015414395
0.015400072
0.01538267
0.015370889
0.015363067
0.015358666
0.015358665
0.015363066
0.015370886
0.015382672
0.015400076
0.015414401
0.015397583
0.015262892
0.014771183
0.013542918
0.0067962342
0.008584244
0.0093349016
0.0095689956
0.0095965187
0.0095638639
0.0095254225
0.0094990513
0.0094823827
0.0094737191
0.0094737168
0.0094823801
0.0094990452
0.0095254203
0.0095638651
0.0095965216
0.0095690019
0.0093349054
0.0085842519
0.0067962475
0.0023876184
0.004363944
0.0052273762
0.0055313071
0.0055773998
0.0055337919
0.0054758957
0.0054326807
0.005404948
0.0053910056
0.0053910026
0.0054049437
0.0054326719
0.0054758907
0.0055337901
0.0055773992
0.0055313097
0.0052273767
0.0043639477
0.0023876254
0.00057292852
0.0019234276
0.0026738418
0.0029846103
0.0030535663
0.0030224078
0.0029669876
0.0029213119
0.0028907788
0.0028753997
0.0028753968
0.002890774
0.002921303
0.0029669812
0.0030224042
0.0030535634
0.00298461
0.0026738401
0.001923428
0.00057293057
9.8713792e-05
0.00073324685
0.0012457037
0.0014998906
0.0015748247
0.0015631685
0.0015245727
0.0014892109
0.0014644934
0.001451898
0.0014518957
0.0014644892
0.0014892036
0.0015245669
0.0015631647
0.0015748209
0.001499889
0.0012457015
0.00073324608
9.8714169e-05
1.3149801e-05
0.00024316396
0.00052956202
0.00070171512
0.00076431409
0.00076553027
0.00074426218
0.00072225591
0.00070616275
0.00069785169
0.00069785018
0.00070615969
0.00072225078
0.00074425781
0.00076552706
0.00076431071
0.00070171333
0.00052956035
0.00024316322
1.314985e-05
1.4500542e-06
7.1183334e-05
0.00020654289
0.00030620409
0.00034910399
0.00035485687
0.00034524802
0.00033363921
0.00032473881
0.00032007889
0.00032007801
0.00032473687
0.00033363606
0.00034524516
0.00035485463
0.00034910158
0.00030620272
0.00020654191
7.1182948e-05
1.4500596e-06
1.3930105e-07
1.8753718e-05
7.4472017e-05
0.00012504758
0.0001502408
0.00015571367
0.00015216812
0.00014681864
0.00014249703
0.00014020144
0.00014020098
0.00014249594
0.00014681691
0.00015216645
0.00015571229
0.00015023935
0.00012504672
7.4471543e-05
1.8753567e-05
1.3930162e-07
1.2068451e-08
4.5329198e-06
2.5030518e-05
4.7984473e-05
6.1034952e-05
6.4725273e-05
6.3729518e-05
6.1540069e-05
5.9659591e-05
5.8644475e-05
5.8644252e-05
5.9659025e-05
6.1539203e-05
6.3728636e-05
6.4724524e-05
6.1034188e-05
4.7984014e-05
2.5030316e-05
4.5328712e-06
1.2068512e-08
9.6511116e-10
1.0219025e-06
7.9035641e-06
1.7371459e-05
2.3456378e-05
2.5512599e-05
2.5370799e-05
2.456888e-05
2.3825884e-05
2.3417166e-05
2.3417066e-05
2.3825616e-05
2.456848e-05
2.5370371e-05
2.5512226e-05
2.3456018e-05
1.7371243e-05
7.9034869e-06
1.021889e-06
9.6511712e-10
7.2443108e-11
2.1768642e-07
2.3599507e-06
5.9547102e-06
8.5461884e-06
9.5480974e-06
9.6062121e-06
9.3435255e-06
9.074705e-06
8.9233971e-06
8.9233552e-06
9.0745871e-06
9.3433532e-06
9.6060216e-06
9.5479265e-06
8.5460349e-06
5.954618e-06
2.3599236e-06
2.1768309e-07
7.2443629e-11
5.1735419e-12
4.424298e-08
6.6977616e-07
1.9386838e-06
2.9579124e-06
3.3973069e-06
3.4618557e-06
3.3857756e-06
3.2962578e-06
3.2444017e-06
3.2443853e-06
3.2962097e-06
3.3857061e-06
3.4617767e-06
3.3972339e-06
2.9578518e-06
1.9386478e-06
6.6976722e-07
4.4242214e-08
5.1735798e-12
3.5587992e-13
8.6372939e-09
1.8135642e-07
6.0097516e-07
9.7426936e-07
1.15073e-06
1.1883942e-06
1.1695555e-06
1.1420557e-06
1.1255241e-06
1.1255179e-06
1.1420372e-06
1.169529e-06
1.1883635e-06
1.150701e-06
9.7424703e-07
6.0096218e-07
1.8135364e-07
8.6371274e-09
3.5588192e-13
2.3863293e-14
1.6266645e-09
4.6974092e-08
1.7773396e-07
3.0587223e-07
3.7151119e-07
3.8894552e-07
3.853457e-07
3.7755702e-07
3.7263908e-07
3.7263686e-07
3.7755033e-07
3.8533619e-07
3.8893424e-07
3.7150032e-07
3.0586446e-07
1.777296e-07
4.6973267e-08
1.6266299e-09
2.3863333e-14
1.5774732e-15
2.9623337e-10
1.1659815e-08
5.0227032e-08
9.1658916e-08
1.1445637e-07
1.2147652e-07
1.2118454e-07
1.1915971e-07
1.1779214e-07
1.1779138e-07
1.1915743e-07
1.2118128e-07
1.2147261e-07
1.1445256e-07
9.1656354e-08
5.0225653e-08
1.1659583e-08
2.9622646e-10
1.5774658e-15
1.0376619e-16
5.2216486e-11
2.7769769e-09
1.3580705e-08
2.6249877e-08
3.3686962e-08
3.6239451e-08
3.6404041e-08
3.5926103e-08
3.5570546e-08
3.5570299e-08
3.5925359e-08
3.6402978e-08
3.6238172e-08
3.3685701e-08
2.6249067e-08
1.3580293e-08
2.7769142e-09
5.2215161e-11
1.0376487e-16
6.8317693e-18
8.909485e-12
6.3516392e-10
3.5172714e-09
7.1927757e-09
9.482041e-09
1.0336555e-08
1.0455071e-08
1.0355103e-08
1.026882e-08
1.0268744e-08
1.0354874e-08
1.0454741e-08
1.0336156e-08
9.4816461e-09
7.1925307e-09
3.5171548e-09
6.3514783e-10
8.9092395e-12
6.8316219e-18
4.50759e-19
1.4709493e-12
1.3961501e-10
8.7340738e-10
1.8877711e-09
2.5551115e-09
2.8216316e-09
2.8732394e-09
2.8558075e-09
2.8363508e-09
2.836328e-09
2.8557402e-09
2.8731413e-09
2.821513e-09
2.5549941e-09
1.8876998e-09
8.733758e-10
1.3961107e-10
1.4709056e-12
4.5074516e-19
2.9717985e-20
2.3485651e-13
2.9510103e-11
2.0813867e-10
4.7504013e-10
6.5981999e-10
7.378774e-10
7.562977e-10
7.5426933e-10
7.5022919e-10
7.5022271e-10
7.5425037e-10
7.5626984e-10
7.3784377e-10
6.5978682e-10
4.7502014e-10
2.0813046e-10
2.9509182e-11
2.3484901e-13
2.9716833e-20
1.9468419e-21
3.6244668e-14
6.001353e-12
4.7642397e-11
1.1472757e-10
1.6344819e-10
1.8503662e-10
1.9085726e-10
1.9096642e-10
1.9020806e-10
1.902063e-10
1.9096131e-10
1.9084969e-10
1.8502751e-10
1.6343925e-10
1.147222e-10
4.7640347e-11
6.0011457e-12
3.6243422e-14
1.9467536e-21
1.2591973e-22
5.4045767e-15
1.1749464e-12
1.0483578e-11
2.6618136e-11
3.8877465e-11
4.4539898e-11
4.6221399e-11
4.6391697e-11
4.6268267e-11
4.6267808e-11
4.6390375e-11
4.6219428e-11
4.453753e-11
3.8875164e-11
2.6616749e-11
1.0483086e-11
1.1749017e-12
5.404377e-15
1.2591335e-22
7.9939853e-24
7.785276e-16
2.215837e-13
2.219549e-12
5.9383339e-12
8.8878284e-12
1.0301081e-11
1.0752748e-11
1.082428e-11
1.0808864e-11
1.0808749e-11
1.0823952e-11
1.0752256e-11
1.0300492e-11
8.887261e-12
5.9379904e-12
2.2194352e-12
2.2157439e-13
7.7849662e-16
7.9935469e-24
6.0151565e-25
1.0833736e-16
4.0279124e-14
4.5249985e-13
1.275038e-12
1.9547069e-12
2.2912664e-12
2.4052339e-12
2.4280314e-12
2.4274011e-12
2.4273736e-12
2.4279531e-12
2.4051161e-12
2.2911263e-12
1.9545728e-12
1.2749564e-12
4.5247442e-13
4.0277262e-14
1.0833271e-16
5.9667163e-25
8.6018709e-26
1.4565991e-17
7.061972e-15
8.8904694e-14
2.6371638e-13
4.1395661e-13
4.9060946e-13
5.1780839e-13
5.2410845e-13
5.2454718e-13
5.2454087e-13
5.2409055e-13
5.1778133e-13
4.9057738e-13
4.1392618e-13
2.6369777e-13
8.889921e-14
7.0616116e-15
1.4565313e-17
8.2381459e-26
1.5433968e-25
1.8926943e-18
1.1949886e-15
1.6847341e-14
5.2587132e-14
8.448965e-14
1.0121883e-13
1.0738845e-13
1.0896973e-13
1.0917349e-13
1.091721e-13
1.089658e-13
1.0738248e-13
1.0121177e-13
8.4483012e-14
5.2583062e-14
1.68462e-14
1.1949214e-15
1.8925982e-18
1.1777879e-25
2.5846646e-26
2.377732e-19
1.9529229e-16
3.0816197e-15
1.0118399e-14
1.6634294e-14
2.0138973e-14
2.147406e-14
2.1842563e-14
2.1904662e-14
2.1904369e-14
2.1841732e-14
2.1472792e-14
2.013748e-14
1.66329e-14
1.0117546e-14
3.0813904e-15
1.9528014e-16
2.3775995e-19
1.8537566e-26
1.3015632e-27
2.8892226e-20
3.0844818e-17
5.4450236e-16
1.8801126e-15
3.1617071e-15
3.867555e-15
4.1439779e-15
4.2247091e-15
4.2405973e-15
4.2405379e-15
4.22454e-15
4.1437191e-15
3.8672508e-15
3.161425e-15
1.8799404e-15
5.4445786e-16
3.0842691e-17
2.8890442e-20
6.2658885e-28
4.3608153e-29
3.3974186e-21
4.7113471e-18
9.3007072e-17
3.376239e-16
5.8063927e-16
7.1749317e-16
7.7238233e-16
7.891405e-16
7.9279213e-16
7.9278044e-16
7.8910734e-16
7.7233147e-16
7.1743351e-16
5.8058423e-16
3.3759047e-16
9.2998742e-17
4.7109863e-18
3.3971843e-21
2.9174458e-29
2.2922582e-30
3.8680676e-22
6.964011e-19
1.53688e-17
5.8638785e-17
1.0310897e-16
1.2868448e-16
1.3915848e-16
1.424724e-16
1.4324838e-16
1.4324616e-16
1.4246612e-16
1.3914884e-16
1.2867318e-16
1.0309859e-16
5.8632537e-17
1.5367292e-17
6.9634169e-19
3.8677676e-22
1.6733509e-30
1.1526084e-31
4.2662835e-23
9.9679262e-20
2.4585169e-18
9.8571678e-18
1.7718049e-17
2.2330199e-17
2.4254142e-17
2.4880898e-17
2.5035706e-17
2.5035304e-17
2.4879754e-17
2.4252382e-17
2.2328137e-17
1.771616e-17
9.8560396e-18
2.4582531e-18
9.9669771e-20
4.2659089e-23
8.1044774e-32
4.7564714e-33
4.5609149e-24
1.3824639e-20
3.8098383e-19
1.6048536e-18
2.9483266e-18
3.7517514e-18
4.0924485e-18
4.2061604e-18
4.2354228e-18
4.2353522e-18
4.2059587e-18
4.0921383e-18
3.7513877e-18
2.9479938e-18
1.6046569e-18
3.8093912e-19
1.3823167e-20
4.5604601e-24
3.1765696e-33
1.599288e-34
4.7286441e-25
1.8589674e-21
5.7229527e-20
2.5323495e-19
4.7541519e-19
6.1073643e-19
6.6897462e-19
6.888128e-19
6.9408559e-19
6.9407361e-19
6.8877839e-19
6.6892168e-19
6.1067427e-19
4.753584e-19
2.5320175e-19
5.7222197e-20
1.8587459e-21
4.7281073e-25
1.0194582e-34
)
;

boundaryField
{
    Wall
    {
        type            zeroGradient;
    }
    frontAndBack
    {
        type            empty;
    }
    atmosphere
    {
        type            zeroGradient;
    }
}


// ************************************************************************* //
