/*--------------------------------*- C++ -*----------------------------------*\
| =========                 |                                                 |
| \\      /  F ield         | OpenFOAM: The Open Source CFD Toolbox           |
|  \\    /   O peration     | Version:  3.0.1                                 |
|   \\  /    A nd           | Web:      www.OpenFOAM.org                      |
|    \\/     M anipulation  |                                                 |
\*---------------------------------------------------------------------------*/
FoamFile
{
    version     2.0;
    format      ascii;
    class       volScalarField;
    location    "17";
    object      wBA_l;
}
// * * * * * * * * * * * * * * * * * * * * * * * * * * * * * * * * * * * * * //

dimensions      [0 0 0 0 0 0 0];

internalField   nonuniform List<scalar> 
800
(
0.055612477
0.055612256
0.055612262
0.055612268
0.055612272
0.055612274
0.055612276
0.055612278
0.055612279
0.05561228
0.05561228
0.05561228
0.055612278
0.055612276
0.055612274
0.055612271
0.055612268
0.055612261
0.055612256
0.055612479
0.055930415
0.055923845
0.055922311
0.055921741
0.055921369
0.055921068
0.055920829
0.055920654
0.05592054
0.055920484
0.055920484
0.05592054
0.055920654
0.055920829
0.055921068
0.055921369
0.055921741
0.055922311
0.055923846
0.055930417
0.053399659
0.053422688
0.053425976
0.053426033
0.053425489
0.053425204
0.053425059
0.053424985
0.053424947
0.053424932
0.053424932
0.053424947
0.053424985
0.053425059
0.053425204
0.053425488
0.053426033
0.053425976
0.053422688
0.053399659
0.048911019
0.048985026
0.048993789
0.048993625
0.048992834
0.048992459
0.048992274
0.048992175
0.048992115
0.048992086
0.048992087
0.048992115
0.048992176
0.048992274
0.04899246
0.048992835
0.048993626
0.04899379
0.048985026
0.048911018
0.043131444
0.043287002
0.043304951
0.043305829
0.043305111
0.04330452
0.043304009
0.04330358
0.043303266
0.043303104
0.043303104
0.043303267
0.043303581
0.04330401
0.043304522
0.043305113
0.043305832
0.043304953
0.043287004
0.043131444
0.036418072
0.036706439
0.036748421
0.036755809
0.036756576
0.036755781
0.036754641
0.036753409
0.036752535
0.036752072
0.036752072
0.036752536
0.03675341
0.036754643
0.036755784
0.03675658
0.036755813
0.036748425
0.036706444
0.036418076
0.029134413
0.029621164
0.029727474
0.02975263
0.029757294
0.02975592
0.029753467
0.029750892
0.029749096
0.029748058
0.029748059
0.029749097
0.029750893
0.02975347
0.029755924
0.029757299
0.029752636
0.02972748
0.029621171
0.029134421
0.021610917
0.022393821
0.02263573
0.022697544
0.022707835
0.022703602
0.02269719
0.022692089
0.0226885
0.02268636
0.02268636
0.022688501
0.02269209
0.022697193
0.022703606
0.022707841
0.022697553
0.022635738
0.022393831
0.02161093
0.01379866
0.015015012
0.015500857
0.015633898
0.015650719
0.015636779
0.015619745
0.015608177
0.015600486
0.015596155
0.015596154
0.015600486
0.015608175
0.015619746
0.015636782
0.015650725
0.015633907
0.015500864
0.015015023
0.013798675
0.0070023463
0.0087787713
0.0095275768
0.0097610805
0.0097887935
0.0097566287
0.0097186888
0.0096926547
0.0096761964
0.0096676328
0.0096676305
0.0096761938
0.0096926487
0.0097186867
0.0097566299
0.0097887966
0.0097610869
0.0095275808
0.0087787793
0.0070023599
0.0024957685
0.0044926779
0.0053623302
0.0056677556
0.0057138303
0.0056699381
0.0056118645
0.0055685651
0.0055408067
0.0055268493
0.0055268463
0.0055408024
0.0055685564
0.0056118595
0.0056699363
0.0057138299
0.0056677582
0.0053623308
0.0044926818
0.0024957757
0.00060740607
0.0019945302
0.0027579857
0.0030728674
0.0031422413
0.0031102737
0.0030539164
0.0030075368
0.002976569
0.0029609728
0.0029609699
0.0029765642
0.0030075278
0.0030539101
0.0031102702
0.0031422385
0.0030728672
0.002757984
0.0019945307
0.00060740827
0.00010594093
0.00076613705
0.0012923195
0.0015519887
0.0016281069
0.0016158264
0.0015761523
0.0015398687
0.0015145344
0.0015016253
0.001501623
0.0015145301
0.0015398613
0.0015761465
0.0016158225
0.0016281032
0.0015519871
0.0012923173
0.00076613631
0.00010594134
1.4256249e-05
0.0002559795
0.00055256913
0.00072980491
0.00079396183
0.00079497146
0.0007729039
0.00075012752
0.00073348812
0.00072489441
0.00072489287
0.00073348499
0.00075012228
0.00077289945
0.00079496819
0.00079395842
0.00072980311
0.00055256742
0.00025597877
1.4256302e-05
1.5855137e-06
7.5461424e-05
0.00021673755
0.00032009044
0.00036441034
0.00037024377
0.00036018348
0.00034807581
0.00033880236
0.00033394637
0.00033394546
0.00033880038
0.00034807257
0.00036018055
0.00037024148
0.00036440789
0.00032008905
0.00021673654
7.5461027e-05
1.5855194e-06
1.5345411e-07
2.0007143e-05
7.8571113e-05
0.00013137849
0.00015759569
0.00016324501
0.00015949598
0.00015387654
0.00014934186
0.00014693259
0.0001469321
0.00014934073
0.00015387475
0.00015949426
0.0001632436
0.0001575942
0.00013137761
7.8570621e-05
2.0006985e-05
1.5345471e-07
1.3384701e-08
4.8632211e-06
2.6543627e-05
5.0663841e-05
6.4336789e-05
6.818544e-05
6.711779e-05
6.4801857e-05
6.2815354e-05
6.174277e-05
6.1742537e-05
6.2814767e-05
6.4800955e-05
6.7116873e-05
6.8184665e-05
6.4335999e-05
5.0663368e-05
2.6543417e-05
4.8631702e-06
1.3384764e-08
1.0770226e-09
1.1018491e-06
8.4220326e-06
1.8430867e-05
2.4846716e-05
2.7008487e-05
2.6849648e-05
2.5995496e-05
2.5205461e-05
2.477079e-05
2.4770685e-05
2.5205181e-05
2.5995077e-05
2.6849203e-05
2.7008099e-05
2.4846341e-05
1.8430642e-05
8.4219519e-06
1.1018349e-06
1.077029e-09
8.1298426e-11
2.3575823e-07
2.5264277e-06
6.3482848e-06
9.0973489e-06
1.0158142e-05
1.0216482e-05
9.9346609e-06
9.6469684e-06
9.4850256e-06
9.4849815e-06
9.6468445e-06
9.9344796e-06
1.0216282e-05
1.0157963e-05
9.0971878e-06
6.3481886e-06
2.5263992e-06
2.3575469e-07
8.1299012e-11
5.8343818e-12
4.8106966e-08
7.2024544e-07
2.0767175e-06
3.1642854e-06
3.6325454e-06
3.7003423e-06
3.6180732e-06
3.5216488e-06
3.4657976e-06
3.4657803e-06
3.5215978e-06
3.6179996e-06
3.7002589e-06
3.6324686e-06
3.1642214e-06
2.0766797e-06
7.2023604e-07
4.8106151e-08
5.8344264e-12
4.0292375e-13
9.4260973e-09
1.9588371e-07
6.4685126e-07
1.0474608e-06
1.236685e-06
1.2767856e-06
1.2562177e-06
1.2264012e-06
1.208484e-06
1.2084774e-06
1.2263815e-06
1.2561896e-06
1.276753e-06
1.2366542e-06
1.0474371e-06
6.4683753e-07
1.9588077e-07
9.4259193e-09
4.0292623e-13
2.7093368e-14
1.7814188e-09
5.0960431e-08
1.9222555e-07
3.3051683e-07
4.0132903e-07
4.2006126e-07
4.1607102e-07
4.0756898e-07
4.0220522e-07
4.0220284e-07
4.0756181e-07
4.1606083e-07
4.2004921e-07
4.0131747e-07
3.3050853e-07
1.9222091e-07
5.0959556e-08
1.7813817e-09
2.7093438e-14
1.7937874e-15
3.2553382e-10
1.2705504e-08
5.458785e-08
9.9552847e-08
1.2429327e-07
1.318939e-07
1.315479e-07
1.2932193e-07
1.2782089e-07
1.2782008e-07
1.2931947e-07
1.315444e-07
1.3188971e-07
1.2428919e-07
9.9550094e-08
5.4586373e-08
1.2705256e-08
3.2552638e-10
1.7937813e-15
1.1805035e-16
5.7582592e-11
3.0396906e-09
1.4833036e-08
2.8659254e-08
3.6777772e-08
3.9560692e-08
3.9732984e-08
3.9203519e-08
3.8810743e-08
3.8810476e-08
3.9202715e-08
3.9731833e-08
3.955931e-08
3.6776413e-08
2.865838e-08
1.4832593e-08
3.0396234e-09
5.7581157e-11
1.1804902e-16
7.7705159e-18
9.8609388e-12
6.9845849e-10
3.8609845e-09
7.8945416e-09
1.0408259e-08
1.1346127e-08
1.1474557e-08
1.1362823e-08
1.1266878e-08
1.1266795e-08
1.1362574e-08
1.1474198e-08
1.1345693e-08
1.0407831e-08
7.8942762e-09
3.8608582e-09
6.9844114e-10
9.8606717e-12
7.7703599e-18
5.1252291e-19
1.6342759e-12
1.542517e-10
9.6367357e-10
2.0830821e-09
2.8201648e-09
3.114577e-09
3.1712287e-09
3.1515091e-09
3.1297251e-09
3.1297002e-09
3.1514354e-09
3.1711214e-09
3.1144474e-09
2.8200369e-09
2.0830044e-09
9.6363918e-10
1.5424743e-10
1.6342281e-12
5.1250797e-19
3.3792134e-20
2.619869e-13
3.2761071e-11
2.3084627e-10
5.2704371e-10
7.3233915e-10
8.1911441e-10
8.395208e-10
8.3716486e-10
8.3260859e-10
8.3260144e-10
8.3714398e-10
8.3949017e-10
8.1907747e-10
7.3230278e-10
5.2702186e-10
2.3083729e-10
3.2760068e-11
2.6197867e-13
3.3790872e-20
2.2155185e-21
4.060287e-14
6.6953176e-12
5.3119658e-11
1.2798948e-10
1.8244018e-10
2.0659099e-10
2.1308998e-10
2.1319144e-10
2.1232933e-10
2.1232737e-10
2.1318578e-10
2.130816e-10
2.0658092e-10
1.8243032e-10
1.2798357e-10
5.3117405e-11
6.6950907e-12
4.0601499e-14
2.2154209e-21
1.4353484e-22
6.0812114e-15
1.3173983e-12
1.175155e-11
2.9860905e-11
4.3643628e-11
5.0017851e-11
5.1908978e-11
5.2096788e-11
5.1955096e-11
5.1954584e-11
5.2095316e-11
5.1906785e-11
5.001522e-11
4.3641073e-11
2.9859372e-11
1.1751005e-11
1.3173489e-12
6.0809905e-15
1.4352773e-22
9.1347102e-24
8.8001457e-16
2.4971963e-13
2.5015205e-12
6.6993908e-12
1.0035231e-11
1.1636079e-11
1.2147591e-11
1.2227961e-11
1.2209985e-11
1.2209857e-11
1.2227593e-11
1.2147041e-11
1.1635421e-11
1.0034597e-11
6.699009e-12
2.501394e-12
2.4970931e-13
8.7998012e-16
9.1342186e-24
6.7302324e-25
1.2303931e-16
4.5629515e-14
5.1278901e-13
1.4466502e-12
2.2199642e-12
2.6035797e-12
2.7335233e-12
2.7594151e-12
2.7586086e-12
2.7585777e-12
2.7593268e-12
2.7333907e-12
2.6034219e-12
2.2198134e-12
1.4465589e-12
5.1276057e-13
4.5627441e-14
1.2303411e-16
6.6822207e-25
9.1005092e-26
1.6622989e-17
8.0421898e-15
1.013096e-13
3.009327e-13
4.7290422e-13
5.6081998e-13
5.9203873e-13
5.9925593e-13
5.9974572e-13
5.9973857e-13
5.9923563e-13
5.9200807e-13
5.6078366e-13
4.7286978e-13
3.0091176e-13
1.0130344e-13
8.041786e-15
1.6622226e-17
8.7356184e-26
2.0582879e-25
2.1706947e-18
1.3681154e-15
1.9305691e-14
6.0356489e-14
9.7094634e-14
1.1640186e-13
1.2353009e-13
1.2535565e-13
1.2558914e-13
1.2558756e-13
1.2535116e-13
1.2352328e-13
1.1639382e-13
9.7087077e-14
6.0351878e-14
1.9304401e-14
1.3680397e-15
2.1705861e-18
1.6543282e-25
3.4670448e-26
2.7407503e-19
2.2479154e-16
3.5512517e-15
1.168119e-14
1.9230338e-14
2.3300429e-14
2.4853074e-14
2.528162e-14
2.5353624e-14
2.5353288e-14
2.5280665e-14
2.4851619e-14
2.3298717e-14
1.9228741e-14
1.1680217e-14
3.5509909e-15
2.2477776e-16
2.7406e-19
2.5902016e-26
1.8611087e-27
3.3474147e-20
3.5697319e-17
6.3105784e-16
2.1832677e-15
3.6771461e-15
4.5020091e-15
4.8255754e-15
4.9201243e-15
4.9387119e-15
4.9386431e-15
4.9199288e-15
4.8252765e-15
4.501658e-15
3.6768209e-15
2.1830701e-15
6.3100694e-16
3.5694893e-17
3.3472112e-20
9.0509902e-28
5.5776433e-29
3.9566588e-21
5.4824851e-18
1.0841002e-16
3.9438456e-16
6.7938644e-16
8.4032035e-16
9.0498895e-16
9.2475112e-16
9.2905683e-16
9.2904325e-16
9.2471253e-16
9.0492982e-16
8.4025103e-16
6.7932256e-16
3.9434594e-16
1.0840043e-16
5.4820713e-18
3.9563898e-21
3.4953282e-29
2.6919088e-30
4.5284552e-22
8.1487204e-19
1.8017446e-17
6.8904868e-17
1.2137842e-16
1.5164334e-16
1.6406362e-16
1.679982e-16
1.6891996e-16
1.6891737e-16
1.6799085e-16
1.6405233e-16
1.5163013e-16
1.2136631e-16
6.8897599e-17
1.8015699e-17
8.1480347e-19
4.5281089e-22
1.9393699e-30
1.3631885e-31
5.0211679e-23
1.1728689e-19
2.8989517e-18
1.1652227e-17
2.0984953e-17
2.6477181e-17
2.8773429e-17
2.9522592e-17
2.9707796e-17
2.9707321e-17
2.9521242e-17
2.8771356e-17
2.6474753e-17
2.0982733e-17
1.1650906e-17
2.8986441e-18
1.1727587e-19
5.020733e-23
9.6447043e-32
5.8253532e-33
5.3966743e-24
1.6357955e-20
4.5185868e-19
1.9085209e-18
3.5133906e-18
4.4761675e-18
4.8854294e-18
5.02226e-18
5.0575122e-18
5.0574284e-18
5.0220203e-18
4.8850613e-18
4.4757365e-18
3.5129969e-18
1.908289e-18
4.5180623e-19
1.6356235e-20
5.3961435e-24
3.9297664e-33
2.043883e-34
5.6253351e-25
2.2120366e-21
6.8274358e-20
3.0297165e-19
5.7002481e-19
7.3321235e-19
8.0362422e-19
8.2765485e-19
8.3405072e-19
8.3403638e-19
8.2761372e-19
8.0356101e-19
7.331382e-19
5.699572e-19
3.0293226e-19
6.8265704e-20
2.2117763e-21
5.6247052e-25
1.3168458e-34
)
;

boundaryField
{
    Wall
    {
        type            zeroGradient;
    }
    frontAndBack
    {
        type            empty;
    }
    atmosphere
    {
        type            zeroGradient;
    }
}


// ************************************************************************* //
