/*--------------------------------*- C++ -*----------------------------------*\
| =========                 |                                                 |
| \\      /  F ield         | OpenFOAM: The Open Source CFD Toolbox           |
|  \\    /   O peration     | Version:  3.0.1                                 |
|   \\  /    A nd           | Web:      www.OpenFOAM.org                      |
|    \\/     M anipulation  |                                                 |
\*---------------------------------------------------------------------------*/
FoamFile
{
    version     2.0;
    format      ascii;
    class       volScalarField;
    location    "17";
    object      wCO2_l;
}
// * * * * * * * * * * * * * * * * * * * * * * * * * * * * * * * * * * * * * //

dimensions      [0 0 0 0 0 0 0];

internalField   nonuniform List<scalar> 
800
(
0.0030761563
0.0030761093
0.0030761074
0.0030761086
0.0030761095
0.0030761102
0.0030761107
0.0030761111
0.0030761114
0.0030761115
0.0030761115
0.0030761114
0.0030761111
0.0030761107
0.0030761102
0.0030761095
0.0030761086
0.0030761074
0.0030761093
0.0030761564
0.0031484635
0.0031442754
0.0031440991
0.0031440409
0.0031439728
0.003143918
0.003143878
0.0031438513
0.0031438355
0.0031438282
0.0031438282
0.0031438356
0.0031438514
0.003143878
0.003143918
0.0031439728
0.0031440409
0.0031440991
0.0031442754
0.0031484636
0.0038664278
0.0038522774
0.0038447726
0.0038445475
0.0038444459
0.0038443232
0.0038442139
0.0038441306
0.0038440767
0.00384405
0.00384405
0.0038440767
0.0038441307
0.0038442141
0.0038443233
0.0038444461
0.0038445477
0.0038447728
0.0038522777
0.0038664282
0.0052588462
0.0052260108
0.0052169668
0.0052166704
0.0052164072
0.0052161157
0.0052158707
0.0052156858
0.0052155682
0.0052155103
0.0052155104
0.0052155683
0.0052156861
0.005215871
0.0052161161
0.0052164075
0.0052166708
0.0052169673
0.0052260113
0.005258847
0.0070089367
0.0069652021
0.0069588248
0.0069585925
0.0069581699
0.0069577392
0.0069574074
0.0069571666
0.0069570208
0.0069569495
0.0069569496
0.006957021
0.0069571669
0.0069574078
0.0069577396
0.0069581704
0.0069585931
0.0069588254
0.0069652028
0.0070089375
0.008380889
0.0083684539
0.0083687794
0.0083698466
0.0083700635
0.0083700466
0.008369998
0.008369929
0.0083698903
0.008369868
0.008369868
0.0083698905
0.0083699292
0.0083699983
0.008370047
0.008370064
0.0083698471
0.0083687799
0.0083684544
0.0083808895
0.0082376779
0.0083770837
0.008397343
0.0084026553
0.0084052182
0.0084065601
0.0084072974
0.0084076693
0.0084078704
0.0084079454
0.0084079454
0.0084078704
0.0084076692
0.0084072974
0.0084065603
0.0084052185
0.0084026558
0.0083973435
0.0083770842
0.0082376783
0.0050662846
0.0052846946
0.0053414966
0.0053511694
0.005354568
0.0053555492
0.005355687
0.0053556073
0.0053554738
0.0053553523
0.0053553522
0.0053554738
0.0053556072
0.0053556872
0.0053555497
0.0053545688
0.0053511705
0.0053414977
0.005284696
0.0050662862
0.0027010575
0.0029359669
0.0030094041
0.0030228551
0.0030243058
0.0030227614
0.0030209335
0.0030196481
0.0030187853
0.0030182889
0.0030182888
0.0030187852
0.0030196478
0.0030209337
0.003022762
0.0030243069
0.0030228565
0.0030094054
0.0029359687
0.0027010596
0.0011940027
0.001471438
0.0015652595
0.001585423
0.0015841753
0.0015784281
0.0015731736
0.0015696863
0.0015675429
0.0015664393
0.0015664391
0.0015675426
0.0015696857
0.0015731734
0.0015784285
0.0015841761
0.0015854241
0.0015652605
0.0014714394
0.0011940046
0.00038512719
0.00066616737
0.00077072392
0.0007991753
0.00079908797
0.00079113346
0.0007830247
0.00077723103
0.00077360507
0.00077180151
0.00077180123
0.00077360465
0.00077723019
0.0007830243
0.00079113351
0.0007990883
0.00079917596
0.0007707244
0.00066616811
0.00038512812
8.756937e-05
0.00026699224
0.00035486965
0.00038579783
0.00038977405
0.00038407049
0.00037671532
0.00037093264
0.00036714994
0.0003652592
0.00036525893
0.00036714949
0.00037093181
0.0003767148
0.00038407032
0.00038977406
0.00038579811
0.00035486977
0.0002669925
8.7569642e-05
1.4634111e-05
9.4111605e-05
0.00015130835
0.00017669755
0.00018269873
0.000180192
0.00017538639
0.00017120585
0.00016834176
0.00016689003
0.00016688983
0.00016834138
0.00017120521
0.00017538592
0.00018019176
0.00018269858
0.00017669761
0.00015130832
9.4111642e-05
1.4634159e-05
1.9240406e-06
2.9281677e-05
5.96459e-05
7.6435458e-05
8.1869151e-05
8.1379821e-05
7.8872815e-05
7.6430731e-05
7.4679238e-05
7.3778016e-05
7.3777886e-05
7.4678978e-05
7.6430297e-05
7.8872474e-05
8.1379611e-05
8.186897e-05
7.6435422e-05
5.9645837e-05
2.9281657e-05
1.9240467e-06
2.1222627e-07
8.1405362e-06
2.1816924e-05
3.1220645e-05
3.4989476e-05
3.5278247e-05
3.4186582e-05
3.2965205e-05
3.2047033e-05
3.1567548e-05
3.1567473e-05
3.2046878e-05
3.2964947e-05
3.4186366e-05
3.5278098e-05
3.4989335e-05
3.1220594e-05
2.181688e-05
8.1405191e-06
2.1222694e-07
2.0605115e-08
2.0562468e-06
7.4526163e-06
1.2068181e-05
1.425878e-05
1.4658078e-05
1.4258284e-05
1.3718413e-05
1.3291353e-05
1.3064968e-05
1.3064929e-05
1.3291268e-05
1.3718276e-05
1.4258161e-05
1.4657987e-05
1.4258691e-05
1.2068142e-05
7.4525938e-06
2.0562392e-06
2.0605191e-08
1.8180423e-09
4.7998937e-07
2.3955983e-06
4.429589e-06
5.5461933e-06
5.835545e-06
5.7168181e-06
5.5021681e-06
5.3222036e-06
5.2252683e-06
5.2252502e-06
5.3221612e-06
5.5021006e-06
5.7167542e-06
5.8354957e-06
5.5461453e-06
4.4295665e-06
2.3955886e-06
4.7998683e-07
1.8180517e-09
1.4881125e-10
1.0509735e-07
7.2998299e-07
1.5494712e-06
2.0623635e-06
2.2267873e-06
2.2027127e-06
2.1252709e-06
2.055649e-06
2.0174708e-06
2.0174628e-06
2.0556292e-06
2.1252403e-06
2.2026822e-06
2.2267628e-06
2.0623404e-06
1.54946e-06
7.2997929e-07
1.0509663e-07
1.4881234e-10
1.1457063e-11
2.1850639e-08
2.1222003e-07
5.1826784e-07
7.3441174e-07
8.1504566e-07
8.1560907e-07
7.9021477e-07
7.652787e-07
7.5131505e-07
7.5131177e-07
7.6527008e-07
7.9020172e-07
8.1559551e-07
8.1503441e-07
7.3440171e-07
5.1826279e-07
2.1221871e-07
2.1850463e-08
1.1457177e-11
8.3820016e-13
4.3556492e-09
5.9163575e-08
1.6622356e-07
2.5084966e-07
2.8638949e-07
2.902841e-07
2.8276489e-07
2.7445331e-07
2.6967911e-07
2.6967785e-07
2.7444978e-07
2.8275964e-07
2.9027847e-07
2.8638465e-07
2.5084562e-07
1.6622149e-07
5.9163135e-08
4.355608e-09
8.3821077e-13
5.8777137e-14
8.3863481e-10
1.5876896e-08
5.1233289e-08
8.2297117e-08
9.6686534e-08
9.9339858e-08
9.7370247e-08
9.4785268e-08
9.3252389e-08
9.3251914e-08
9.47839e-08
9.7368249e-08
9.9337647e-08
9.6684574e-08
8.2295594e-08
5.1232507e-08
1.5876754e-08
8.3862558e-10
5.8777975e-14
3.9836222e-15
1.5679924e-10
4.112077e-09
1.5200074e-08
2.5962488e-08
3.1386433e-08
3.2699939e-08
3.2268073e-08
3.1517746e-08
3.1054141e-08
3.105397e-08
3.1517244e-08
3.2267349e-08
3.2699114e-08
3.1385684e-08
2.5961945e-08
1.5199799e-08
4.1120327e-09
1.5679724e-10
3.9836803e-15
2.6323968e-16
2.8567611e-11
1.0296082e-09
4.3460033e-09
7.8831939e-09
9.8036102e-09
1.0357886e-08
1.0292882e-08
1.0090143e-08
9.9578333e-09
9.9577744e-09
1.0089967e-08
1.029263e-08
1.0357594e-08
9.8033395e-09
7.8830096e-09
4.3459118e-09
1.0295949e-09
2.8567191e-11
2.6324311e-16
1.7117113e-17
5.0811637e-12
2.4947302e-10
1.1985586e-09
2.3056281e-09
2.9483162e-09
3.1585459e-09
3.1610464e-09
3.1103978e-09
3.0747468e-09
3.0747272e-09
3.1103391e-09
3.1609624e-09
3.1584475e-09
2.9482233e-09
2.3055681e-09
1.1985299e-09
2.494692e-10
5.0810781e-12
1.7117276e-17
1.1052551e-18
8.8276795e-13
5.8524273e-11
3.1903109e-10
6.4998119e-10
8.5421493e-10
9.2768851e-10
9.3498892e-10
9.2345761e-10
9.1439589e-10
9.1438963e-10
9.2343887e-10
9.3496206e-10
9.2765668e-10
8.5418456e-10
6.4996242e-10
3.1902253e-10
5.8523224e-11
8.8275102e-13
1.1052596e-18
7.141538e-20
1.4974822e-13
1.329558e-11
8.2004206e-11
1.7672824e-10
2.3857321e-10
2.6256776e-10
2.6647226e-10
2.6415427e-10
2.6198748e-10
2.6198555e-10
2.6414854e-10
2.6646398e-10
2.625579e-10
2.3856374e-10
1.7672256e-10
8.2001761e-11
1.3295304e-11
1.4974501e-13
7.1415124e-20
4.639946e-21
2.4780919e-14
2.9253449e-12
2.0364228e-11
4.6372847e-11
6.4268265e-11
7.1655467e-11
7.3213056e-11
7.283488e-11
7.2350197e-11
7.2349622e-11
7.2833192e-11
7.3210605e-11
7.1652538e-11
6.4265442e-11
4.6371181e-11
2.0363556e-11
2.9252757e-12
2.4780328e-14
4.6398885e-21
3.0342544e-22
3.9960958e-15
6.2340664e-13
4.8878935e-12
1.1749844e-11
1.6709281e-11
1.8866384e-11
1.9402841e-11
1.9368691e-11
1.9268351e-11
1.9268187e-11
1.9368213e-11
1.9402141e-11
1.8865547e-11
1.6708474e-11
1.1749372e-11
4.8877152e-12
6.2338987e-13
3.9959906e-15
3.0341894e-22
1.9917552e-23
6.2726888e-16
1.2868558e-13
1.1344785e-12
2.8765557e-12
4.1954638e-12
4.7955463e-12
4.9631195e-12
4.9705815e-12
4.9517643e-12
4.9517191e-12
4.9704507e-12
4.9629268e-12
4.795316e-12
4.1952426e-12
2.8764268e-12
1.1344329e-12
1.2868167e-13
6.2725071e-16
1.9916952e-23
1.3056199e-24
9.5759604e-17
2.5734748e-14
2.5474269e-13
6.8085331e-13
1.0179972e-12
1.1775762e-12
1.2261592e-12
1.2318246e-12
1.2287813e-12
1.2287694e-12
1.2317901e-12
1.226108e-12
1.1775152e-12
1.0179389e-12
6.8081925e-13
2.5473141e-13
2.5733868e-14
9.5756557e-17
1.3055704e-24
9.8885384e-26
1.4208043e-17
4.9870317e-15
5.5368316e-14
1.5590065e-13
2.3886261e-13
2.7953892e-13
2.9278204e-13
2.9500486e-13
2.946413e-13
2.9463823e-13
2.9499607e-13
2.9276894e-13
2.7952336e-13
2.3884781e-13
1.5589197e-13
5.536561e-14
4.9868412e-15
1.4207547e-17
9.8246798e-26
1.3431599e-26
2.047987e-18
9.3676317e-16
1.1654951e-14
3.4556854e-14
5.4235088e-14
6.4195496e-14
6.7617339e-14
6.8322146e-14
6.8317559e-14
6.83168e-14
6.8319989e-14
6.7614106e-14
6.4191669e-14
5.4231466e-14
3.4554719e-14
1.1654323e-14
9.3672312e-16
2.0479083e-18
1.2911232e-26
2.8466337e-26
2.8673106e-19
1.7062592e-16
2.3773587e-15
7.4198241e-15
1.1924533e-14
1.4272012e-14
1.51148e-14
1.5313134e-14
1.5328906e-14
1.5328726e-14
1.5312622e-14
1.5114029e-14
1.4271102e-14
1.1923679e-14
7.4193181e-15
2.3772172e-15
1.7061779e-16
2.867189e-19
2.2848199e-26
5.1689013e-27
3.8991636e-20
3.0149059e-17
4.7018306e-16
1.5442175e-15
2.5405627e-15
3.0739253e-15
3.272596e-15
3.3239616e-15
3.330823e-15
3.3307818e-15
3.3238444e-15
3.2724184e-15
3.0737165e-15
2.5403679e-15
1.5441019e-15
4.7015218e-16
3.0147452e-17
3.8989804e-20
3.8518962e-27
2.9834448e-28
5.1508232e-21
5.1703543e-18
9.0216267e-17
3.1171686e-16
5.2485915e-16
6.4185289e-16
6.8681666e-16
6.9928497e-16
7.0141127e-16
7.0140215e-16
6.9925901e-16
6.8677717e-16
6.418065e-16
5.2481617e-16
3.1169138e-16
9.0209735e-17
5.1700461e-18
5.1505522e-21
1.4639506e-28
1.0091179e-29
6.6114808e-22
8.6099786e-19
1.6803811e-17
6.1070024e-17
1.0521389e-16
1.300211e-16
1.3981569e-16
1.4268262e-16
1.4324823e-16
1.4324627e-16
1.4267705e-16
1.3980719e-16
1.3001114e-16
1.0520471e-16
6.1064595e-17
1.6802473e-17
8.6094045e-19
6.6110884e-22
6.5296001e-30
5.676586e-31
8.2486418e-23
1.3929812e-19
3.0401502e-18
1.1619488e-17
2.0479004e-17
2.5569633e-17
2.7627379e-17
2.8256128e-17
2.8392863e-17
2.8392455e-17
2.8254972e-17
2.7625609e-17
2.5567562e-17
2.0477104e-17
1.161837e-17
3.0398839e-18
1.392877e-19
8.2480867e-23
4.1709407e-31
3.3327929e-32
1.000686e-23
2.1906893e-20
5.3456884e-19
2.1483606e-18
3.8728597e-18
4.8849092e-18
5.3025751e-18
5.4347221e-18
5.4655358e-18
5.4654537e-18
5.4344895e-18
5.3022183e-18
4.8844919e-18
3.8724783e-18
2.1481372e-18
5.3451743e-19
2.1905055e-20
1.0006092e-23
2.4038553e-32
1.6823883e-33
1.1809513e-24
3.3507489e-21
9.1408647e-20
3.8623615e-19
7.1205979e-19
9.071748e-19
9.8919907e-19
1.0159095e-18
1.022472e-18
1.0224561e-18
1.0158641e-18
9.8912937e-19
9.070933e-19
7.1198544e-19
3.8619292e-19
9.1399002e-20
3.3504328e-21
1.1808477e-24
1.1646735e-33
7.1924508e-35
1.3563863e-25
4.9872603e-22
1.5208811e-20
6.7558842e-20
1.2735904e-19
1.6387045e-19
1.7947656e-19
1.8468276e-19
1.8601479e-19
1.8601178e-19
1.8467415e-19
1.7946334e-19
1.6385497e-19
1.2734494e-19
6.7550723e-20
1.5207054e-20
4.9867315e-22
1.3562501e-25
4.7923154e-35
)
;

boundaryField
{
    Wall
    {
        type            zeroGradient;
    }
    frontAndBack
    {
        type            empty;
    }
    atmosphere
    {
        type            zeroGradient;
    }
}


// ************************************************************************* //
