/*--------------------------------*- C++ -*----------------------------------*\
| =========                 |                                                 |
| \\      /  F ield         | OpenFOAM: The Open Source CFD Toolbox           |
|  \\    /   O peration     | Version:  3.0.1                                 |
|   \\  /    A nd           | Web:      www.OpenFOAM.org                      |
|    \\/     M anipulation  |                                                 |
\*---------------------------------------------------------------------------*/
FoamFile
{
    version     2.0;
    format      ascii;
    class       volScalarField;
    location    "17";
    object      wCO2_g;
}
// * * * * * * * * * * * * * * * * * * * * * * * * * * * * * * * * * * * * * //

dimensions      [0 0 0 0 0 0 0];

internalField   nonuniform List<scalar> 
800
(
0.0070936966
0.007094
0.0070940494
0.0070940702
0.0070940852
0.0070940964
0.0070941049
0.0070941109
0.0070941147
0.0070941166
0.0070941166
0.0070941147
0.0070941109
0.0070941049
0.0070940964
0.0070940851
0.0070940702
0.0070940494
0.007094
0.0070936968
0.0068244439
0.0068363728
0.0068374552
0.0068376564
0.0068377811
0.0068379303
0.0068380735
0.0068381872
0.006838263
0.0068383005
0.0068383006
0.006838263
0.0068381872
0.0068380735
0.0068379304
0.006837781
0.0068376564
0.0068374552
0.0068363729
0.0068244439
0.0063334614
0.0063497667
0.0063590466
0.0063596322
0.0063599305
0.0063602503
0.0063605414
0.0063607692
0.0063609207
0.0063609962
0.0063609962
0.0063609207
0.0063607692
0.0063605414
0.0063602503
0.0063599305
0.0063596322
0.0063590467
0.0063497668
0.0063334612
0.0055009556
0.0055316709
0.0055431905
0.0055439207
0.0055443322
0.0055447608
0.0055451406
0.0055454343
0.0055456276
0.0055457235
0.0055457235
0.0055456276
0.0055454342
0.0055451405
0.0055447608
0.0055443322
0.0055439207
0.0055431905
0.0055316709
0.0055009552
0.004458122
0.0044958585
0.0045067353
0.0045077813
0.0045084072
0.0045089477
0.0045093732
0.0045096768
0.0045098675
0.0045099595
0.0045099595
0.0045098674
0.0045096768
0.0045093732
0.0045089477
0.0045084072
0.0045077814
0.0045067354
0.0044958586
0.0044581217
0.0033912189
0.0034434905
0.0034533508
0.0034551821
0.0034562013
0.0034568942
0.0034573491
0.0034576212
0.0034577792
0.0034578517
0.0034578517
0.0034577792
0.0034576212
0.0034573491
0.0034568943
0.0034562014
0.0034551823
0.0034533511
0.0034434908
0.0033912189
0.0022392687
0.0023082905
0.0023234988
0.0023262842
0.0023277068
0.0023284924
0.0023289228
0.0023291347
0.002329243
0.0023292839
0.0023292839
0.002329243
0.0023291347
0.0023289228
0.0023284925
0.0023277069
0.0023262844
0.0023234991
0.0023082909
0.0022392689
0.0011956107
0.0012484908
0.0012611308
0.0012637748
0.0012649547
0.0012654542
0.0012656455
0.0012657046
0.0012657135
0.001265704
0.001265704
0.0012657135
0.0012657045
0.0012656456
0.0012654543
0.001264955
0.0012637751
0.0012611311
0.0012484913
0.0011956111
0.0005712962
0.00061645069
0.00062860591
0.00063072982
0.00063105451
0.00063089219
0.00063064956
0.00063045651
0.00063032142
0.00063024151
0.00063024149
0.0006303214
0.00063045648
0.00063064961
0.00063089234
0.00063105476
0.00063073014
0.00062860625
0.00061645111
0.00057129662
0.00022739538
0.00027672106
0.00029095716
0.00029315588
0.00029247217
0.00029138675
0.00029050155
0.0002899206
0.00028956845
0.00028938813
0.0002893881
0.00028956841
0.00028992053
0.00029050155
0.00029138684
0.00029247233
0.0002931561
0.00029095737
0.00027672133
0.0002273957
6.57265e-05
0.00011212224
0.00012753638
0.00013082917
0.00013018078
0.00012868809
0.00012734553
0.00012640966
0.00012583255
0.00012554776
0.00012554773
0.0001258325
0.00012640955
0.00012734548
0.00012868812
0.00013018086
0.0001308293
0.00012753649
0.00011212239
6.5726649e-05
1.3321843e-05
3.9982729e-05
5.2110007e-05
5.5806069e-05
5.5909297e-05
5.4888103e-05
5.3766731e-05
5.2912301e-05
5.2361555e-05
5.208817e-05
5.2088138e-05
5.2361499e-05
5.2912204e-05
5.3766674e-05
5.4888097e-05
5.5909325e-05
5.5806131e-05
5.2110049e-05
3.9982784e-05
1.3321881e-05
1.9755617e-06
1.2449933e-05
1.9611772e-05
2.2508094e-05
2.3017477e-05
2.257042e-05
2.1907988e-05
2.1353878e-05
2.0980214e-05
2.0792019e-05
2.0791998e-05
2.0980173e-05
2.1353809e-05
2.1907941e-05
2.2570404e-05
2.3017477e-05
2.2508118e-05
1.9611783e-05
1.2449947e-05
1.9755676e-06
2.2954618e-07
3.3975114e-06
6.7798713e-06
8.5352015e-06
9.030836e-06
8.9114705e-06
8.6007505e-06
8.3128479e-06
8.1099346e-06
8.0061689e-06
8.0061564e-06
8.1099097e-06
8.3128068e-06
8.6007201e-06
8.9114558e-06
9.0308278e-06
8.5352083e-06
6.7798724e-06
3.3975134e-06
2.2954681e-07
2.2290721e-08
8.2260754e-07
2.159835e-06
3.0407041e-06
3.3673405e-06
3.3680748e-06
3.2462637e-06
3.1187736e-06
3.0247809e-06
2.9759974e-06
2.9759909e-06
3.0247679e-06
3.1187519e-06
3.2462467e-06
3.3680652e-06
3.3673331e-06
3.0407052e-06
2.1598345e-06
8.2260747e-07
2.229078e-08
1.8981754e-09
1.7965736e-07
6.3823158e-07
1.0201341e-06
1.1930976e-06
1.2169367e-06
1.1763661e-06
1.1265925e-06
1.0880776e-06
1.0677899e-06
1.0677869e-06
1.0880714e-06
1.1265823e-06
1.1763576e-06
1.2169314e-06
1.1930931e-06
1.0201338e-06
6.3823121e-07
1.7965722e-07
1.8981815e-09
1.4629886e-10
3.5986475e-08
1.7637794e-07
3.2362247e-07
4.0233804e-07
4.2042463e-07
4.0912053e-07
3.9165337e-07
3.7737961e-07
3.6974385e-07
3.6974263e-07
3.7737695e-07
3.9164893e-07
4.0911666e-07
4.2042206e-07
4.0233575e-07
3.2362204e-07
1.763778e-07
3.5986428e-08
1.4629958e-10
1.0410413e-11
6.7088678e-09
4.5970351e-08
9.7539727e-08
1.2945967e-07
1.3904595e-07
1.3661971e-07
1.3105056e-07
1.2619783e-07
1.2355766e-07
1.2355718e-07
1.2619674e-07
1.310488e-07
1.366181e-07
1.3904482e-07
1.2945865e-07
9.7539468e-08
4.5970306e-08
6.7088572e-09
1.0410492e-11
6.9263879e-13
1.178641e-09
1.1389497e-08
2.8063561e-08
3.9861581e-08
4.4098776e-08
4.3849213e-08
4.2229222e-08
4.0701563e-08
3.985429e-08
3.9854121e-08
4.0701151e-08
4.2228566e-08
4.3848582e-08
4.4098318e-08
3.986118e-08
2.8063439e-08
1.1389485e-08
1.1786391e-09
6.9264655e-13
4.3460709e-14
1.9723025e-10
2.7011708e-09
7.7410264e-09
1.1778018e-08
1.3437302e-08
1.3543449e-08
1.3114635e-08
1.2666644e-08
1.2412459e-08
1.2412402e-08
1.2666496e-08
1.3114406e-08
1.3543219e-08
1.3437128e-08
1.1777873e-08
7.7409766e-09
2.701167e-09
1.972299e-10
4.3461376e-14
2.5891281e-15
3.1732987e-11
6.1685279e-10
2.0547143e-09
3.3479333e-09
3.9408993e-09
4.0304051e-09
3.9284216e-09
3.8056193e-09
3.7339701e-09
3.7339517e-09
3.8055688e-09
3.9283454e-09
4.0303258e-09
3.9408363e-09
3.3478842e-09
2.054696e-09
6.1685148e-10
3.1732917e-11
2.5891777e-15
1.4737373e-16
4.9503395e-12
1.3628878e-10
5.2637084e-10
9.1743221e-10
1.1141741e-09
1.1568874e-09
1.1358286e-09
1.1043297e-09
1.0852882e-09
1.0852824e-09
1.1043134e-09
1.1358044e-09
1.1568613e-09
1.1141526e-09
9.1741658e-10
5.2636469e-10
1.3628833e-10
4.9503242e-12
1.4737704e-16
8.0721447e-18
7.542323e-13
2.9238346e-11
1.3043563e-10
2.4275764e-10
3.040403e-10
3.2058078e-10
3.1717038e-10
3.0962225e-10
3.0484122e-10
3.048395e-10
3.0961719e-10
3.1716304e-10
3.205726e-10
3.040333e-10
2.4275292e-10
1.3043371e-10
2.9238199e-11
7.5422887e-13
8.0723436e-18
4.2930788e-19
1.1288938e-13
6.1057151e-12
3.1314977e-11
6.2101074e-11
8.0157601e-11
8.5817707e-11
8.5574547e-11
8.3893625e-11
8.2758619e-11
8.2758118e-11
8.3892126e-11
8.5572394e-11
8.5815257e-11
8.0155434e-11
6.2099701e-11
3.1314415e-11
6.1056699e-12
1.1288864e-13
4.2931875e-19
2.2431625e-20
1.6665252e-14
1.2429213e-12
7.2912329e-12
1.5371744e-11
2.0431279e-11
2.2203459e-11
2.2315265e-11
2.1971372e-11
2.1716792e-11
2.171665e-11
2.1970947e-11
2.2314656e-11
2.2202753e-11
2.0430637e-11
1.5371359e-11
7.2910779e-12
1.2429085e-12
1.6665097e-14
2.2432156e-20
1.1684859e-21
2.4312105e-15
2.4679472e-13
1.647374e-12
3.6838017e-12
5.0373073e-12
5.5542299e-12
5.6255249e-12
5.5624579e-12
5.5086469e-12
5.5086082e-12
5.5623419e-12
5.6253582e-12
5.5540341e-12
5.0371261e-12
3.6836969e-12
1.6473332e-12
2.4679134e-13
2.4311803e-15
1.1685075e-21
6.1664916e-23
3.5050005e-16
4.779684e-14
3.6127593e-13
8.5504012e-13
1.2017368e-12
1.3437189e-12
1.3712285e-12
1.3614651e-12
1.3508048e-12
1.3507945e-12
1.3614345e-12
1.3711844e-12
1.3436667e-12
1.2016878e-12
8.5501238e-13
3.6126558e-13
4.7796007e-14
3.5049444e-16
6.1665498e-23
3.3428468e-24
4.9861864e-17
9.024926e-15
7.6907775e-14
1.9226965e-13
2.7749212e-13
3.144724e-13
3.2323996e-13
3.2220913e-13
3.2025035e-13
3.2024772e-13
3.2220136e-13
3.2322866e-13
3.1445898e-13
2.7747941e-13
1.9226253e-13
7.6905255e-14
9.0247305e-15
4.9860868e-17
3.342837e-24
1.8745014e-25
6.9831086e-18
1.6603243e-15
1.5891802e-14
4.1894822e-14
6.2034243e-14
7.1212371e-14
7.3706103e-14
7.3746861e-14
7.3419891e-14
7.3419237e-14
7.3744954e-14
7.3703307e-14
7.1209041e-14
6.2031088e-14
4.189305e-14
1.589121e-14
1.6602807e-15
6.982939e-18
1.8744688e-25
1.0847604e-26
9.6027104e-19
2.9740877e-16
3.1873184e-15
8.8474863e-15
1.3429573e-14
1.5607985e-14
1.6261429e-14
1.6327969e-14
1.628066e-14
1.6280503e-14
1.6327515e-14
1.626076e-14
1.5607189e-14
1.3428818e-14
8.84706e-15
3.1871842e-15
2.973995e-16
9.6024329e-19
1.0847259e-26
7.4713896e-28
1.2934048e-19
5.1839737e-17
6.2046366e-16
1.8112546e-15
2.8161976e-15
3.3120136e-15
3.4723717e-15
3.4981521e-15
3.4930142e-15
3.492978e-15
3.4980481e-15
3.4722172e-15
3.3118302e-15
2.8160245e-15
1.8111556e-15
6.2043412e-16
5.1837848e-17
1.2933611e-19
7.422992e-28
9.5346815e-29
1.702829e-20
8.7884461e-18
1.1723536e-16
3.5953563e-16
5.7222832e-16
6.8068148e-16
7.17898e-16
7.254755e-16
7.2537188e-16
7.2536381e-16
7.2545249e-16
7.1786355e-16
6.8064073e-16
5.7218998e-16
3.5951346e-16
1.1722908e-16
8.7880748e-18
1.7027624e-20
9.1665304e-29
2.0571722e-28
2.1878083e-21
1.4486361e-18
2.1502744e-17
6.9219065e-17
1.1270204e-16
1.3554131e-16
1.4376217e-16
1.4570193e-16
1.4586027e-16
1.4585854e-16
1.45697e-16
1.4375475e-16
1.3553257e-16
1.1269386e-16
6.9214285e-17
2.150145e-17
1.4485659e-18
2.18771e-21
1.6543466e-28
3.4492277e-29
2.7400192e-22
2.3212794e-19
3.8290672e-18
1.2929023e-17
2.1523681e-17
2.6161303e-17
2.7897437e-17
2.8350749e-17
2.8413899e-17
2.8413542e-17
2.8349732e-17
2.7895895e-17
2.6159489e-17
2.1521995e-17
1.2928032e-17
3.8288088e-18
2.3211508e-19
2.7398784e-22
2.5775465e-29
1.8546745e-30
3.3425637e-23
3.6157481e-20
6.6214609e-19
2.3437529e-18
3.9875195e-18
4.8966931e-18
5.2484022e-18
5.3472674e-18
5.3648414e-18
5.36477e-18
5.3470642e-18
5.2480925e-18
4.8963295e-18
3.9871837e-18
2.3435546e-18
6.620962e-19
3.61552e-20
3.3423667e-23
9.0489006e-31
5.632987e-32
3.9700884e-24
5.4752394e-21
1.1122372e-19
4.1250282e-19
7.1693568e-19
8.8921579e-19
9.5773963e-19
9.7811094e-19
9.8228854e-19
9.8227472e-19
9.7807167e-19
9.5767956e-19
8.8914539e-19
7.1687095e-19
4.1246457e-19
1.112144e-19
5.4748472e-21
3.9698194e-24
3.5463168e-32
2.7524001e-33
4.59021e-25
8.0614684e-22
1.8153642e-20
7.0515467e-20
1.2515436e-19
1.5674127e-19
1.6960782e-19
1.7360401e-19
1.7450464e-19
1.7450205e-19
1.7359666e-19
1.6959655e-19
1.5672808e-19
1.2514228e-19
7.0508341e-20
1.8151953e-20
8.0608127e-22
4.5898522e-25
1.978571e-33
1.3976406e-34
5.1662046e-26
1.1543417e-22
2.8800996e-21
1.1712931e-20
2.1222797e-20
2.6831579e-20
2.9163932e-20
2.9914124e-20
3.0094892e-20
3.0094423e-20
2.9912795e-20
2.9161889e-20
2.6829187e-20
2.1220612e-20
1.1711646e-20
2.8798031e-21
1.1542353e-22
5.1657403e-26
9.8404531e-35
5.9700139e-36
5.6606678e-27
1.6080172e-23
4.4431854e-22
1.8912872e-21
3.4974807e-21
4.462847e-21
4.8716117e-21
5.0068869e-21
5.0411423e-21
5.0410607e-21
5.0066535e-21
4.871253e-21
4.4624269e-21
3.4970971e-21
1.891063e-21
4.4426804e-22
1.6078492e-23
5.6600816e-27
4.0065446e-36
2.0950997e-37
6.0396387e-28
2.1798559e-24
6.6680406e-23
2.9699608e-22
5.6041554e-22
7.2159992e-22
7.9095009e-22
8.144466e-22
8.2062781e-22
8.2061396e-22
8.1440688e-22
7.9088901e-22
7.2152821e-22
5.6035014e-22
2.9695814e-22
6.6672063e-23
2.1795983e-24
6.0389184e-28
1.3436209e-37
)
;

boundaryField
{
    Wall
    {
        type            zeroGradient;
    }
    frontAndBack
    {
        type            empty;
    }
    atmosphere
    {
        type            zeroGradient;
    }
}


// ************************************************************************* //
