/*--------------------------------*- C++ -*----------------------------------*\
| =========                 |                                                 |
| \\      /  F ield         | OpenFOAM: The Open Source CFD Toolbox           |
|  \\    /   O peration     | Version:  3.0.1                                 |
|   \\  /    A nd           | Web:      www.OpenFOAM.org                      |
|    \\/     M anipulation  |                                                 |
\*---------------------------------------------------------------------------*/
FoamFile
{
    version     2.0;
    format      ascii;
    class       volScalarField;
    location    "37";
    object      TS;
}
// * * * * * * * * * * * * * * * * * * * * * * * * * * * * * * * * * * * * * //

dimensions      [0 0 0 1 0 0 0];

internalField   nonuniform List<scalar> 
800
(
372.92296
372.93617
372.93952
372.93999
372.93995
372.93987
372.93983
372.93982
372.93983
372.93983
372.93983
372.93983
372.93982
372.93983
372.93987
372.93995
372.94
372.93952
372.93617
372.92296
372.9004
372.93568
372.95127
372.95701
372.95913
372.95985
372.96005
372.96005
372.96002
372.95999
372.95999
372.96001
372.96005
372.96004
372.95985
372.95912
372.95701
372.95127
372.93568
372.90039
372.70575
372.7666
372.79633
372.80781
372.81206
372.81349
372.81385
372.81384
372.81374
372.81368
372.81368
372.81374
372.81383
372.81385
372.81349
372.81206
372.80781
372.79633
372.76659
372.70574
372.53265
372.61258
372.65441
372.67066
372.67657
372.6785
372.67894
372.6789
372.67875
372.67866
372.67866
372.67875
372.6789
372.67894
372.6785
372.67656
372.67065
372.65441
372.61257
372.53263
372.42891
372.52146
372.57276
372.5927
372.59981
372.60208
372.60257
372.6025
372.60233
372.60221
372.60221
372.60232
372.6025
372.60257
372.60208
372.5998
372.5927
372.57275
372.52145
372.4289
372.40709
372.50575
372.56369
372.58613
372.59392
372.59632
372.59678
372.59667
372.59646
372.59633
372.59633
372.59646
372.59667
372.59678
372.59631
372.59391
372.58612
372.56368
372.50573
372.40707
372.47918
372.57663
372.63818
372.66177
372.66961
372.67185
372.67217
372.67197
372.67172
372.67157
372.67157
372.67172
372.67197
372.67217
372.67185
372.6696
372.66176
372.63817
372.57662
372.47916
372.66018
372.74805
372.80988
372.83311
372.84031
372.84205
372.84205
372.84169
372.84135
372.84117
372.84117
372.84135
372.84169
372.84205
372.84205
372.84031
372.83311
372.80987
372.74804
372.66017
372.96632
373.0351
373.09353
373.11482
373.12063
373.12149
373.12098
373.12035
373.1199
373.11967
373.11967
373.1199
373.12035
373.12098
373.12148
373.12063
373.11482
373.09353
373.03509
372.96631
373.41495
373.45416
373.50506
373.52262
373.52621
373.52575
373.5245
373.52348
373.52284
373.52254
373.52254
373.52284
373.52348
373.5245
373.52574
373.52621
373.52262
373.50505
373.45415
373.41493
374.02387
374.02214
374.06085
374.07278
374.07325
374.07099
374.06873
374.06719
374.06629
374.06589
374.06589
374.06629
374.06719
374.06873
374.07099
374.07325
374.07278
374.06084
374.02214
374.02386
374.81033
374.75559
374.77685
374.78115
374.77755
374.773
374.76944
374.7672
374.76598
374.76544
374.76544
374.76598
374.7672
374.76944
374.773
374.77755
374.78115
374.77685
374.75558
374.81033
375.79125
375.67097
375.66886
375.66337
375.6547
375.64725
375.64206
375.63895
375.6373
375.63659
375.63659
375.6373
375.63895
375.64206
375.64725
375.6547
375.66337
375.66886
375.67097
375.79124
376.9836
376.78495
376.75279
376.73527
376.72043
376.70943
376.70223
376.698
376.69582
376.69488
376.69488
376.69582
376.698
376.70223
376.70943
376.72044
376.73528
376.7528
376.78495
376.9836
378.40491
378.11487
378.04526
378.01342
377.99118
377.97584
377.96619
377.96055
377.9577
377.95647
377.95647
377.9577
377.96056
377.9662
377.97585
377.99119
378.01343
378.04527
378.11488
378.40492
380.07517
379.68017
379.5651
379.51651
379.48542
379.46478
379.45206
379.4447
379.44102
379.43945
379.43945
379.44102
379.44471
379.45207
379.46479
379.48543
379.51652
379.56512
379.68018
380.07519
382.00943
381.49613
381.32741
381.2597
381.21802
381.19101
381.17457
381.16515
381.1605
381.1585
381.1585
381.1605
381.16516
381.17458
381.19102
381.21803
381.25971
381.32743
381.49615
382.00945
384.22188
383.57712
383.34689
383.25762
383.20313
383.16864
383.14789
383.13595
383.12996
383.1274
383.12741
383.12996
383.13596
383.1479
383.16865
383.20315
383.25764
383.34691
383.57714
384.22191
386.72778
385.93753
385.63889
385.52543
385.45542
385.41263
385.38719
385.37222
385.36412
385.36082
385.36082
385.36413
385.37223
385.3872
385.41264
385.45544
385.52545
385.63891
385.93755
386.72781
389.54461
388.59442
388.22078
388.08033
387.99218
387.94062
387.91022
387.89182
387.88051
387.87618
387.87618
387.88052
387.89182
387.91023
387.94064
387.9922
388.08035
388.22081
388.59445
389.54465
392.6832
391.55979
391.10463
390.93447
390.82634
390.76524
390.72913
390.70692
390.69094
390.68527
390.68527
390.69094
390.70693
390.72914
390.76526
390.82636
390.9345
391.10466
391.55983
392.68324
396.1591
394.84928
394.30655
394.10442
393.97471
393.90265
393.85944
393.83297
393.80984
393.80255
393.80255
393.80985
393.83298
393.85946
393.90267
393.97474
394.10445
394.30658
394.84931
396.15914
399.99548
398.48474
397.84815
397.61318
397.45952
397.375
397.32299
397.29189
397.25809
397.24882
397.24882
397.2581
397.2919
397.32301
397.37502
397.45955
397.61321
397.84818
398.48478
399.99552
404.2098
402.48447
401.74721
401.47901
401.29844
401.19961
401.13655
401.10059
401.05276
401.04103
401.04104
401.05277
401.1006
401.13657
401.19963
401.29846
401.47903
401.74724
402.48449
404.20983
408.83018
406.8755
406.03076
405.72814
405.51724
405.40186
405.32545
405.28473
405.21969
405.20505
405.20505
405.21969
405.28474
405.32546
405.40188
405.51726
405.72816
406.03079
406.87552
408.83021
413.88996
411.68997
410.72963
410.39086
410.14612
410.01157
409.91999
409.87519
409.78945
409.77179
409.77179
409.78945
409.87519
409.92
410.01158
410.14614
410.39088
410.72965
411.68999
413.88998
419.42194
416.96065
415.87375
415.49781
415.21543
415.05843
414.94998
414.90226
414.79248
414.77245
414.77246
414.79249
414.90226
414.94998
415.05844
415.21545
415.49783
415.87376
416.96066
419.42195
425.46528
422.72696
421.50043
421.08594
420.76095
420.57719
420.45043
420.40173
420.26594
420.24478
420.24478
420.26594
420.40173
420.45043
420.5772
420.76096
421.08595
421.50043
422.72696
425.46527
432.05162
429.02732
427.64858
427.1936
426.82115
426.60556
426.46024
426.41377
426.25288
426.23165
426.23165
426.25288
426.41376
426.46024
426.60556
426.82115
427.19361
427.64857
429.0273
432.05159
439.19479
435.89299
434.35482
433.85913
433.43511
433.18238
433.01991
432.98056
432.79831
432.77828
432.77827
432.7983
432.98056
433.0199
433.18238
433.4351
433.85912
434.3548
435.89296
439.19475
446.85792
443.32522
441.63878
441.10896
440.63227
440.33907
440.16321
440.13665
439.93954
439.92319
439.92318
439.93953
440.13665
440.1632
440.33906
440.63226
441.10895
441.63875
443.32518
446.85788
454.87844
451.24215
449.46995
448.9295
448.40699
448.07632
447.89264
447.88162
447.67942
447.67059
447.67059
447.67942
447.88161
447.89263
448.07631
448.40697
448.92949
449.46992
451.24211
454.87843
462.79509
459.38469
457.70653
457.21642
456.66996
456.3199
456.13532
456.12984
455.93556
455.93919
455.93919
455.93555
456.12983
456.13532
456.3199
456.66995
457.21641
457.70652
459.38469
462.79518
469.5504
467.12415
465.96452
465.66998
465.14713
464.82526
464.63957
464.61414
464.44429
464.46661
464.46661
464.44429
464.61414
464.63958
464.82527
465.14714
465.67
465.96455
467.12428
469.55075
473.13485
473.09092
473.35386
473.58218
473.17977
472.94907
472.76625
472.70355
472.57917
472.62826
472.62826
472.57918
472.70357
472.76628
472.94911
473.17983
473.58226
473.35401
473.09131
473.13571
470.1842
474.66818
478.01594
479.34619
479.36948
479.26657
479.1431
479.08788
479.03887
479.12552
479.12554
479.0389
479.08794
479.14318
479.26668
479.36962
479.34641
478.01631
474.66908
470.18589
458.37116
468.63251
476.68188
479.92178
480.86337
481.16386
481.25356
481.12384
481.18896
481.32644
481.32646
481.18902
481.12396
481.25372
481.16408
480.86367
479.92221
476.68263
468.6341
458.37334
445.64017
454.79379
466.0084
471.51489
473.75869
474.55473
475.11742
475.2729
475.54347
475.75815
475.75819
475.54359
475.27311
475.1177
474.55511
473.7592
471.51561
466.00955
454.7956
445.64128
440.64955
440.62731
447.58328
452.62071
455.21982
457.22954
458.44707
458.74764
459.22296
459.49369
459.49372
459.22306
458.74781
458.4473
457.22986
455.22023
452.62126
447.58402
440.62793
440.6501
434.99299
436.33342
442.55291
447.40805
450.7685
452.68046
454.16125
455.05411
455.63014
455.91894
455.91896
455.63021
455.05423
454.16142
452.68069
450.7688
447.40842
442.5533
436.3338
434.99334
)
;

boundaryField
{
    Wall
    {
        type            zeroGradient;
    }
    frontAndBack
    {
        type            empty;
    }
    atmosphere
    {
        type            zeroGradient;
    }
}


// ************************************************************************* //
