/*--------------------------------*- C++ -*----------------------------------*\
| =========                 |                                                 |
| \\      /  F ield         | OpenFOAM: The Open Source CFD Toolbox           |
|  \\    /   O peration     | Version:  3.0.1                                 |
|   \\  /    A nd           | Web:      www.OpenFOAM.org                      |
|    \\/     M anipulation  |                                                 |
\*---------------------------------------------------------------------------*/
FoamFile
{
    version     2.0;
    format      ascii;
    class       volScalarField;
    location    "15";
    object      alpha.gas;
}
// * * * * * * * * * * * * * * * * * * * * * * * * * * * * * * * * * * * * * //

dimensions      [0 0 0 0 0 0 0];

internalField   nonuniform List<scalar> 
800
(
2.1996836e-28
2.3326791e-25
4.4886409e-22
8.7205455e-22
2.1470065e-24
1.078833e-21
9.3605486e-22
5.4618838e-23
5.2654654e-26
1.6305504e-29
3.0657862e-23
2.990421e-23
9.7942905e-26
6.9470439e-23
6.8663711e-23
1.0174037e-27
3.0785844e-32
5.8305447e-36
1.1511703e-39
2.1387553e-43
5.050052e-12
1.1434583e-12
8.419609e-11
2.9802138e-11
1.1042947e-12
3.9744754e-11
3.1164957e-11
3.7547024e-11
7.6348826e-11
1.9166373e-10
9.6264368e-11
9.5901919e-11
5.1890575e-11
3.0739638e-11
2.9098946e-11
5.6768705e-12
9.2136721e-17
4.7874597e-14
1.6197241e-11
2.2010727e-14
0.00020370464
0.00019527885
0.00019482212
0.00019501669
0.00019516876
0.0001952768
0.0001953575
0.00019541932
0.0001954616
0.00019548305
0.00019548297
0.00019546155
0.00019541923
0.00019535735
0.00019527661
0.00019516855
0.00019501639
0.00019482178
0.00019527857
0.00020370439
0.0014895913
0.0013891342
0.0013799177
0.0013804687
0.0013818374
0.0013831184
0.0013842837
0.001385161
0.0013857699
0.0013860713
0.001386071
0.0013857692
0.0013851599
0.0013842821
0.0013831163
0.001381835
0.0013804659
0.001379915
0.0013891313
0.0014895878
0.01175429
0.010318275
0.010144606
0.010123495
0.010135927
0.010156245
0.010174217
0.010189752
0.010199734
0.010204872
0.010204868
0.010199726
0.010189738
0.010174198
0.01015622
0.010135897
0.010123461
0.010144569
0.010318235
0.011754237
0.20256455
0.17360223
0.16979653
0.16930837
0.1695781
0.17003791
0.17043149
0.17076802
0.17098001
0.17109516
0.1710951
0.17097987
0.17076778
0.17043113
0.17003743
0.16957752
0.16930768
0.16979582
0.17360147
0.20256361
0.79851839
0.77254325
0.76855575
0.76817339
0.76851584
0.76902341
0.76944628
0.7697966
0.77001643
0.77013667
0.77013662
0.7700163
0.76979637
0.76944593
0.76902294
0.76851526
0.7681727
0.76855505
0.77254251
0.79851766
0.98938309
0.98616387
0.98558668
0.98558548
0.98565666
0.98573483
0.98579495
0.9858406
0.98586882
0.98588412
0.98588412
0.98586881
0.98584058
0.98579491
0.98573478
0.98565659
0.9855854
0.9855866
0.98616379
0.98938302
0.99992538
0.99986121
0.9998446
0.99984552
0.99984813
0.99985058
0.99985232
0.99985351
0.99985423
0.99985461
0.99985461
0.99985423
0.99985351
0.99985232
0.99985057
0.99984813
0.99984552
0.9998446
0.99986121
0.99992538
0.99999996
0.99999985
0.99999979
0.9999998
0.9999998
0.99999981
0.99999982
0.99999982
0.99999982
0.99999982
0.99999982
0.99999982
0.99999982
0.99999982
0.99999981
0.9999998
0.9999998
0.99999979
0.99999985
0.99999996
1
1
1
1
1
1
1
1
1
1
1
1
1
1
1
1
1
1
1
1
1
1
1
1
1
1
1
1
1
1
1
1
1
1
1
1
1
1
1
1
1
1
1
1
1
1
1
1
1
1
1
1
1
1
1
1
1
1
1
1
1
1
1
1
1
1
1
1
1
1
1
1
1
1
1
1
1
1
1
1
1
1
1
1
1
1
1
1
1
1
1
1
1
1
1
1
1
1
1
1
1
1
1
1
1
1
1
1
1
1
1
1
1
1
1
1
1
1
1
1
1
1
1
1
1
1
1
1
1
1
1
1
1
1
1
1
1
1
1
1
1
1
1
1
1
1
1
1
1
1
1
1
1
1
1
1
1
1
1
1
1
1
1
1
1
1
1
1
1
1
1
1
1
1
1
1
1
1
1
1
1
1
1
1
1
1
1
1
1
1
1
1
1
1
1
1
1
1
1
1
1
1
1
1
1
1
1
1
1
1
1
1
1
1
1
1
1
1
1
1
1
1
1
1
1
1
1
1
1
1
1
1
1
1
1
1
1
1
1
1
1
1
1
1
1
1
1
1
1
1
1
1
1
1
1
1
1
1
1
1
1
1
1
1
1
1
1
1
1
1
1
1
1
1
1
1
1
1
1
1
1
1
1
1
1
1
1
1
1
1
1
1
1
1
1
1
1
1
1
1
1
1
1
1
1
1
1
1
1
1
1
1
1
1
1
1
1
1
1
1
1
1
1
1
1
1
1
1
1
1
1
1
1
1
1
1
1
1
1
1
1
1
1
1
1
1
1
1
1
1
1
1
1
1
1
1
1
1
1
1
1
1
1
1
1
1
1
1
1
1
1
1
1
1
1
1
1
1
1
1
1
1
1
1
1
1
1
1
1
1
1
1
1
1
1
1
1
1
1
1
1
1
1
1
1
1
1
1
1
1
1
1
1
1
1
1
1
1
1
1
1
1
1
1
1
1
1
1
1
1
1
1
1
1
1
1
1
1
1
1
1
1
1
1
1
1
1
1
1
1
1
1
1
1
1
1
1
1
1
1
1
1
1
1
1
1
1
1
1
1
1
1
1
1
1
1
1
1
1
1
1
1
1
1
1
1
1
1
1
1
1
1
1
1
1
1
1
1
1
1
1
1
1
1
1
1
1
1
1
1
1
1
1
1
1
1
1
1
1
1
1
1
1
1
1
1
1
1
1
1
1
1
1
1
1
1
1
1
1
1
1
1
1
1
1
1
1
1
1
1
1
1
1
1
1
1
1
1
1
1
1
1
1
1
1
1
1
1
1
1
1
1
1
1
1
1
1
1
1
1
1
1
1
1
1
1
1
1
1
1
1
1
1
1
1
1
1
1
1
1
)
;

boundaryField
{
    Wall
    {
        type            zeroGradient;
    }
    frontAndBack
    {
        type            empty;
    }
    atmosphere
    {
        type            zeroGradient;
    }
}


// ************************************************************************* //
