/*--------------------------------*- C++ -*----------------------------------*\
| =========                 |                                                 |
| \\      /  F ield         | OpenFOAM: The Open Source CFD Toolbox           |
|  \\    /   O peration     | Version:  3.0.1                                 |
|   \\  /    A nd           | Web:      www.OpenFOAM.org                      |
|    \\/     M anipulation  |                                                 |
\*---------------------------------------------------------------------------*/
FoamFile
{
    version     2.0;
    format      ascii;
    class       volScalarField;
    location    "15";
    object      M2;
}
// * * * * * * * * * * * * * * * * * * * * * * * * * * * * * * * * * * * * * //

dimensions      [0 0 0 0 0 0 0];

internalField   nonuniform List<scalar> 
800
(
3.2021919e-13
3.2021633e-13
3.2021257e-13
3.2021036e-13
3.2020872e-13
3.202074e-13
3.2020641e-13
3.2020569e-13
3.2020523e-13
3.20205e-13
3.20205e-13
3.2020523e-13
3.2020569e-13
3.2020641e-13
3.2020741e-13
3.2020872e-13
3.2021036e-13
3.2021257e-13
3.2021633e-13
3.2021919e-13
2.8201767e-13
2.8293423e-13
2.8302191e-13
2.8304155e-13
2.8305774e-13
2.8307312e-13
2.8308625e-13
2.8309607e-13
2.8310242e-13
2.8310552e-13
2.8310553e-13
2.8310242e-13
2.8309607e-13
2.8308625e-13
2.8307313e-13
2.8305775e-13
2.8304156e-13
2.8302192e-13
2.8293423e-13
2.8201767e-13
2.4188449e-13
2.430009e-13
2.4359146e-13
2.4363532e-13
2.4366591e-13
2.4369307e-13
2.4371512e-13
2.4373125e-13
2.4374161e-13
2.4374667e-13
2.4374667e-13
2.4374161e-13
2.4373125e-13
2.4371511e-13
2.4369307e-13
2.4366591e-13
2.4363533e-13
2.4359146e-13
2.4300091e-13
2.4188449e-13
2.0173717e-13
2.0301006e-13
2.0347932e-13
2.0353801e-13
2.0358112e-13
2.0361568e-13
2.0364207e-13
2.0366064e-13
2.0367232e-13
2.0367796e-13
2.0367796e-13
2.0367232e-13
2.0366063e-13
2.0364206e-13
2.0361568e-13
2.0358112e-13
2.0353801e-13
2.0347932e-13
2.0301006e-13
2.0173716e-13
1.6342491e-13
1.6516699e-13
1.6549995e-13
1.6557904e-13
1.6563402e-13
1.656744e-13
1.6570252e-13
1.6572116e-13
1.6573247e-13
1.6573782e-13
1.6573782e-13
1.6573247e-13
1.6572115e-13
1.6570251e-13
1.6567439e-13
1.6563401e-13
1.6557904e-13
1.6549994e-13
1.6516699e-13
1.634249e-13
1.1305806e-13
1.1589973e-13
1.1618225e-13
1.1628637e-13
1.1635183e-13
1.1639457e-13
1.1642137e-13
1.164374e-13
1.1644671e-13
1.1645103e-13
1.1645102e-13
1.1644671e-13
1.1643739e-13
1.1642136e-13
1.1639457e-13
1.1635183e-13
1.1628636e-13
1.1618225e-13
1.1589973e-13
1.1305805e-13
6.0304575e-14
6.2636898e-14
6.2894488e-14
6.2996188e-14
6.3047995e-14
6.3075334e-14
6.3089589e-14
6.3096152e-14
6.3099604e-14
6.3100669e-14
6.3100669e-14
6.3099601e-14
6.3096147e-14
6.3089586e-14
6.3075334e-14
6.3047998e-14
6.2996193e-14
6.2894495e-14
6.2636907e-14
6.0304576e-14
2.6546389e-14
2.8486887e-14
2.8791436e-14
2.8838871e-14
2.884406e-14
2.8839734e-14
2.8833397e-14
2.8828428e-14
2.8824922e-14
2.8822298e-14
2.8822297e-14
2.882492e-14
2.8828424e-14
2.8833396e-14
2.8839738e-14
2.8844068e-14
2.8838882e-14
2.8791446e-14
2.8486899e-14
2.6546397e-14
8.9052754e-15
1.1034976e-14
1.1466315e-14
1.1492107e-14
1.1443506e-14
1.1395074e-14
1.1358821e-14
1.1336488e-14
1.1323079e-14
1.1316e-14
1.1315998e-14
1.1323076e-14
1.1336482e-14
1.1358819e-14
1.1395077e-14
1.1443512e-14
1.1492118e-14
1.1466322e-14
1.1034985e-14
8.9052839e-15
2.0291715e-15
3.6509348e-15
4.1215725e-15
4.2009551e-15
4.1671519e-15
4.1137019e-15
4.0674397e-15
4.0363526e-15
4.0171441e-15
4.0076047e-15
4.0076025e-15
4.0171411e-15
4.0363465e-15
4.0674368e-15
4.1137029e-15
4.1671545e-15
4.2009609e-15
4.1215755e-15
3.6509388e-15
2.0291749e-15
3.2069699e-16
1.0310147e-15
1.3455545e-15
1.4348024e-15
1.4330782e-15
1.4044681e-15
1.3740827e-15
1.3517627e-15
1.3373726e-15
1.3302429e-15
1.3302415e-15
1.3373705e-15
1.3517585e-15
1.3740802e-15
1.404468e-15
1.4330788e-15
1.4348048e-15
1.3455556e-15
1.0310158e-15
3.2069767e-16
3.7925741e-17
2.5184354e-16
4.0115965e-16
4.6029204e-16
4.6966715e-16
4.5970656e-16
4.4561296e-16
4.3432484e-16
4.2674422e-16
4.2295707e-16
4.2295635e-16
4.2674305e-16
4.3432258e-16
4.4561146e-16
4.5970615e-16
4.6966695e-16
4.6029289e-16
4.011599e-16
2.5184368e-16
3.7925836e-17
3.6145459e-18
5.4189807e-17
1.101117e-16
1.3917889e-16
1.4704868e-16
1.447985e-16
1.3955146e-16
1.3494493e-16
1.3172818e-16
1.3010498e-16
1.3010467e-16
1.3172765e-16
1.3494391e-16
1.3955072e-16
1.447982e-16
1.4704842e-16
1.3917912e-16
1.1011175e-16
5.4189804e-17
3.6145572e-18
2.9436953e-19
1.0472669e-17
2.8084295e-17
3.9825333e-17
4.4042452e-17
4.392245e-17
4.2264141e-17
4.0643996e-17
3.946752e-17
3.8867818e-17
3.8867702e-17
3.9467301e-17
4.064359e-17
4.2263826e-17
4.3922298e-17
4.4042295e-17
3.9825372e-17
2.8084307e-17
1.0472663e-17
2.9437086e-19
2.1341142e-20
1.8518901e-18
6.7197345e-18
1.0835329e-17
1.2642359e-17
1.2837684e-17
1.2383221e-17
1.187462e-17
1.1489783e-17
1.1291592e-17
1.1291552e-17
1.1489701e-17
1.1874474e-17
1.2383101e-17
1.2837617e-17
1.2642288e-17
1.0835329e-17
6.7197381e-18
1.8518885e-18
2.1341292e-20
1.4144376e-21
3.0455035e-19
1.5223354e-18
2.8171541e-18
3.486625e-18
3.6193437e-18
3.5118195e-18
3.366449e-18
3.2513554e-18
3.1914359e-18
3.1914232e-18
3.2513271e-18
3.3664006e-18
3.5117765e-18
3.6193175e-18
3.4865975e-18
2.81715e-18
1.5223367e-18
3.045501e-19
1.4144524e-21
8.717941e-23
4.7220584e-20
3.2931017e-19
7.0339245e-19
9.2641231e-19
9.8576698e-19
9.6474422e-19
9.2648315e-19
8.9456942e-19
8.7775355e-19
8.777497e-19
8.9456021e-19
9.2646804e-19
9.6472994e-19
9.8575745e-19
9.2640293e-19
7.033901e-19
3.2931054e-19
4.7220572e-20
8.7180722e-23
5.0541448e-24
6.9830052e-21
6.8523935e-20
1.6940643e-19
2.3779408e-19
2.5980543e-19
2.5697199e-19
2.4764855e-19
2.3936774e-19
2.3494289e-19
2.349418e-19
2.3936491e-19
2.4764406e-19
2.5696748e-19
2.5980217e-19
2.3779117e-19
1.6940547e-19
6.8524023e-20
6.9830094e-21
5.0542472e-24
2.7786681e-25
9.9477181e-22
1.3801309e-20
3.9503775e-20
5.9106937e-20
6.6365329e-20
6.6428422e-20
6.4324562e-20
6.2301501e-20
6.1201956e-20
6.1201658e-20
6.2300667e-20
6.4323282e-20
6.6427072e-20
6.6364271e-20
5.9106089e-20
3.9503454e-20
1.3801323e-20
9.9477321e-22
2.7787417e-25
1.4583251e-26
1.3771991e-22
2.7040738e-21
8.9459512e-21
1.4255269e-20
1.6452831e-20
1.6678522e-20
1.6241629e-20
1.5774456e-20
1.5515087e-20
1.5515006e-20
1.5774221e-20
1.6241277e-20
1.6678134e-20
1.6452505e-20
1.4255034e-20
8.9458534e-21
2.7040741e-21
1.3772019e-22
1.4583725e-26
7.3517287e-28
1.8673187e-23
5.1737506e-22
1.9718555e-21
3.3410266e-21
3.9628851e-21
4.069713e-21
3.9876354e-21
3.8854587e-21
3.8271616e-21
3.82714e-21
3.8853946e-21
3.9875414e-21
4.069606e-21
3.9627895e-21
3.3409634e-21
1.9718278e-21
5.1737432e-22
1.8673228e-23
7.3520105e-28
3.5838303e-29
2.4958092e-24
9.6931813e-23
4.237223e-22
7.6181812e-22
9.2812629e-22
9.6555428e-22
9.5218454e-22
9.3101504e-22
9.1849732e-22
9.1849167e-22
9.3099828e-22
9.5216017e-22
9.6552577e-22
9.2809975e-22
7.618016e-22
4.2371501e-22
9.6931456e-23
2.4958131e-24
3.5839839e-29
1.7030541e-30
3.3047463e-25
1.7813733e-23
8.8861024e-23
1.6914382e-22
2.1149269e-22
2.2282276e-22
2.211667e-22
2.1701999e-22
2.1444813e-22
2.144467e-22
2.1701575e-22
2.2116054e-22
2.2281541e-22
2.1148564e-22
1.6913959e-22
8.8859196e-23
1.7813617e-23
3.3047468e-25
1.7031319e-30
7.970493e-32
4.3490381e-26
3.2141687e-24
1.8199494e-23
3.6590404e-23
4.6912548e-23
5.0033189e-23
4.9979427e-23
4.9215295e-23
4.8709371e-23
4.8709019e-23
4.9214252e-23
4.9977911e-23
5.0031354e-23
4.6910754e-23
3.658934e-23
1.8199053e-23
3.2141365e-24
4.3490283e-26
7.9708624e-32
3.7217427e-33
5.6961713e-27
5.6955683e-25
3.6416951e-24
7.7160981e-24
1.0133801e-23
1.0935028e-23
1.0991012e-23
1.0859877e-23
1.0764631e-23
1.0764546e-23
1.0859629e-23
1.0990648e-23
1.0934584e-23
1.0133364e-23
7.7158377e-24
3.6415925e-24
5.6954883e-25
5.6961392e-27
3.7219025e-33
1.7604448e-34
7.4237347e-28
9.9108688e-26
7.1212086e-25
1.5868235e-24
2.1326595e-24
2.3270485e-24
2.3528325e-24
2.3323007e-24
2.3151694e-24
2.3151496e-24
2.3322434e-24
2.3527476e-24
2.3269447e-24
2.1325563e-24
1.5867615e-24
7.1209771e-25
9.9106851e-26
7.423662e-28
1.7605068e-34
8.5652314e-36
9.6144322e-29
1.6929563e-26
1.3610876e-25
3.1836639e-25
4.3743819e-25
4.8238631e-25
4.9047324e-25
4.8767578e-25
4.8474232e-25
4.8473784e-25
4.8766288e-25
4.9045395e-25
4.8236269e-25
4.3741474e-25
3.1835203e-25
1.3610366e-25
1.6929165e-26
9.6142932e-29
8.5654271e-36
4.3350727e-37
1.2348606e-29
2.8376281e-27
2.5431289e-26
6.2338903e-26
8.7488084e-26
9.7451557e-26
9.9610327e-26
9.9323854e-26
9.8848713e-26
9.8847727e-26
9.9321033e-26
9.9606073e-26
9.7446353e-26
8.7482926e-26
6.2335681e-26
2.5430198e-26
2.8375463e-27
1.2348361e-29
4.3351032e-37
2.290341e-38
1.5694648e-30
4.6651225e-28
4.6459474e-27
1.1917765e-26
1.7069526e-26
1.9195753e-26
1.9718622e-26
1.9713775e-26
1.9641829e-26
1.9641618e-26
1.9713176e-26
1.971771e-26
1.919464e-26
1.7068427e-26
1.1917064e-26
4.6457199e-27
4.664961e-28
1.5694246e-30
2.2903053e-38
1.2567454e-39
1.96981e-31
7.5200628e-29
8.3002481e-28
2.2254187e-27
3.2504914e-27
3.6887259e-27
3.8068774e-27
3.8152208e-27
3.805269e-27
3.8052255e-27
3.815097e-27
3.8066876e-27
3.6884948e-27
3.2502638e-27
2.2252712e-27
8.2997861e-28
7.5197543e-29
1.9697471e-31
1.2565886e-39
7.0889653e-41
2.4370581e-32
1.1883003e-29
1.450515e-28
4.0606432e-28
6.0444207e-28
6.9190176e-28
7.1718438e-28
7.2037273e-28
7.1918075e-28
7.1917205e-28
7.2034787e-28
7.1714597e-28
6.9185504e-28
6.043963e-28
4.0603425e-28
1.4504237e-28
1.1882432e-29
2.436963e-32
7.082578e-41
4.0711045e-42
2.9679957e-33
1.840425e-30
2.4802017e-29
7.2432776e-29
1.0981636e-28
1.2675247e-28
1.3192247e-28
1.3278368e-28
1.3267986e-28
1.3267816e-28
1.3277882e-28
1.3191492e-28
1.2674329e-28
1.0980739e-28
7.2426839e-29
2.4800259e-29
1.8403221e-30
2.9678559e-33
4.0510394e-42
2.3749654e-43
3.5543301e-34
2.793706e-31
4.1506717e-30
1.2636537e-29
1.9503695e-29
2.2691386e-29
2.3707812e-29
2.39082e-29
2.3908591e-29
2.3908269e-29
2.3907275e-29
2.3706369e-29
2.2689633e-29
1.9501983e-29
1.2635399e-29
4.1503416e-30
2.793525e-31
3.5541296e-34
2.3264419e-43
1.4256857e-44
4.1824071e-35
4.1565664e-32
6.8008064e-31
2.1571064e-30
3.3879303e-30
3.9719643e-30
4.1649164e-30
4.2075318e-30
4.2106736e-30
4.2106142e-30
4.2073602e-30
4.1646479e-30
3.9716379e-30
3.3876121e-30
2.1568945e-30
6.8002029e-31
4.1562554e-32
4.1821242e-35
1.330804e-44
9.1053872e-46
4.8334508e-36
6.0622244e-33
1.0913539e-31
3.6046589e-31
5.7590047e-31
6.8019353e-31
7.1567603e-31
7.2417864e-31
7.2520357e-31
7.251929e-31
7.2414762e-31
7.1562731e-31
6.801343e-31
5.7584268e-31
3.6042746e-31
1.0912462e-31
6.0617022e-33
4.8330597e-36
7.5419516e-46
6.4572853e-47
5.4843763e-37
8.6686086e-34
1.7159012e-32
5.8993419e-32
9.5847121e-32
1.1401973e-31
1.2035639e-31
1.2197052e-31
1.2221789e-31
1.22216e-31
1.2196503e-31
1.2034778e-31
1.1400924e-31
9.5836883e-32
5.898662e-32
1.7157138e-32
8.6677507e-34
5.4838459e-37
4.2198683e-47
5.168036e-48
6.1091435e-38
1.2155784e-34
2.6442505e-33
9.4598736e-33
1.5625979e-32
1.8718831e-32
1.9820022e-32
2.0114082e-32
2.0166189e-32
2.0165861e-32
2.0113135e-32
1.9818535e-32
1.8717015e-32
1.5624206e-32
9.4587003e-33
2.6439314e-33
1.2154407e-34
6.1084393e-38
2.326163e-48
4.5153403e-49
6.6805411e-39
1.672028e-35
3.9954034e-34
1.4869696e-33
2.496685e-33
3.0112862e-33
3.1978133e-33
3.2495149e-33
3.259614e-33
3.2595584e-33
3.2493546e-33
3.1975618e-33
3.0109787e-33
2.4963842e-33
1.4867715e-33
3.9948721e-34
1.6718119e-35
6.6796262e-39
1.2617357e-49
4.0681797e-50
7.1722328e-40
2.2565915e-36
5.9214943e-35
2.292149e-34
3.9114146e-34
4.7491466e-34
5.0575387e-34
5.1456185e-34
5.1640646e-34
5.163972e-34
5.1453534e-34
5.0571223e-34
4.7486359e-34
3.9109146e-34
2.2918211e-34
5.9206282e-35
2.2562598e-36
7.1710696e-40
6.7307107e-51
3.6100962e-51
7.5608519e-41
2.9891092e-37
8.6115159e-36
3.4665105e-35
6.0111303e-35
7.3464414e-35
7.8447104e-35
7.990539e-35
8.0227054e-35
8.0225551e-35
7.9901091e-35
7.8440346e-35
7.3456093e-35
6.0103149e-35
3.4659786e-35
8.6101331e-36
2.9886114e-37
7.5594075e-41
3.5353104e-52
)
;

boundaryField
{
    Wall
    {
        type            zeroGradient;
    }
    frontAndBack
    {
        type            empty;
    }
    atmosphere
    {
        type            zeroGradient;
    }
}


// ************************************************************************* //
