/*--------------------------------*- C++ -*----------------------------------*\
| =========                 |                                                 |
| \\      /  F ield         | OpenFOAM: The Open Source CFD Toolbox           |
|  \\    /   O peration     | Version:  3.0.1                                 |
|   \\  /    A nd           | Web:      www.OpenFOAM.org                      |
|    \\/     M anipulation  |                                                 |
\*---------------------------------------------------------------------------*/
FoamFile
{
    version     2.0;
    format      ascii;
    class       volScalarField;
    location    "15";
    object      M3;
}
// * * * * * * * * * * * * * * * * * * * * * * * * * * * * * * * * * * * * * //

dimensions      [0 0 0 0 0 0 0];

internalField   nonuniform List<scalar> 
800
(
9.041757e-26
9.0420557e-26
9.041973e-26
9.0419085e-26
9.0418602e-26
9.0418212e-26
9.0417917e-26
9.0417704e-26
9.0417566e-26
9.0417496e-26
9.0417497e-26
9.0417566e-26
9.0417704e-26
9.0417918e-26
9.0418213e-26
9.0418602e-26
9.0419086e-26
9.0419731e-26
9.0420558e-26
9.0417571e-26
7.4599697e-26
7.5017475e-26
7.5058253e-26
7.5065022e-26
7.5070564e-26
7.5076281e-26
7.5081385e-26
7.5085273e-26
7.5087799e-26
7.5089034e-26
7.5089035e-26
7.5087799e-26
7.5085273e-26
7.5081385e-26
7.5076283e-26
7.5070567e-26
7.5065026e-26
7.5058258e-26
7.501748e-26
7.4599698e-26
5.8075761e-26
5.8522544e-26
5.8861678e-26
5.887759e-26
5.8888267e-26
5.8898239e-26
5.8906589e-26
5.891279e-26
5.8916796e-26
5.8918757e-26
5.8918757e-26
5.8916796e-26
5.891279e-26
5.890659e-26
5.889824e-26
5.8888269e-26
5.8877594e-26
5.8861683e-26
5.8522548e-26
5.8075761e-26
4.2892099e-26
4.3339415e-26
4.3563492e-26
4.3583304e-26
4.3597785e-26
4.3609607e-26
4.3618794e-26
4.3625319e-26
4.3629446e-26
4.3631441e-26
4.3631441e-26
4.3629445e-26
4.3625317e-26
4.3618792e-26
4.3609606e-26
4.3597784e-26
4.3583304e-26
4.3563493e-26
4.3339415e-26
4.2892096e-26
3.1146391e-26
3.1697223e-26
3.1820727e-26
3.1845548e-26
3.1862927e-26
3.1875816e-26
3.1884895e-26
3.1890954e-26
3.1894651e-26
3.1896404e-26
3.1896404e-26
3.1894649e-26
3.1890952e-26
3.1884892e-26
3.1875814e-26
3.1862925e-26
3.1845546e-26
3.1820727e-26
3.1697223e-26
3.1146387e-26
1.7225579e-26
1.7986792e-26
1.8059508e-26
1.8084695e-26
1.8101335e-26
1.8112568e-26
1.8119769e-26
1.8124219e-26
1.8126824e-26
1.8128043e-26
1.8128042e-26
1.8126823e-26
1.8124217e-26
1.8119767e-26
1.8112567e-26
1.8101334e-26
1.8084694e-26
1.8059508e-26
1.7986791e-26
1.7225576e-26
5.9423039e-27
6.3374489e-27
6.3731776e-27
6.3885604e-27
6.3974143e-27
6.4027065e-27
6.4056905e-27
6.4073541e-27
6.4082583e-27
6.4086516e-27
6.4086514e-27
6.4082577e-27
6.4073532e-27
6.4056897e-27
6.402706e-27
6.3974142e-27
6.3885604e-27
6.3731781e-27
6.3374496e-27
5.9423034e-27
1.5771915e-27
1.7387085e-27
1.7554334e-27
1.7595184e-27
1.7615099e-27
1.762576e-27
1.763045e-27
1.7632402e-27
1.7633144e-27
1.7633181e-27
1.763318e-27
1.7633141e-27
1.7632399e-27
1.7630448e-27
1.7625761e-27
1.7615102e-27
1.7595188e-27
1.7554339e-27
1.7387091e-27
1.5771917e-27
3.0522968e-28
3.8515388e-28
3.9494576e-28
3.9416119e-28
3.9254504e-28
3.9135617e-28
3.905588e-28
3.9006389e-28
3.8977789e-28
3.8963145e-28
3.896314e-28
3.8977779e-28
3.9006372e-28
3.9055871e-28
3.9135622e-28
3.9254519e-28
3.9416138e-28
3.9494594e-28
3.8515414e-28
3.0522986e-28
3.8223223e-29
6.9820308e-29
7.6724794e-29
7.7096345e-29
7.6148452e-29
7.5166451e-29
7.440829e-29
7.3899138e-29
7.3593503e-29
7.3446203e-29
7.3446175e-29
7.3593452e-29
7.3899061e-29
7.4408238e-29
7.5166448e-29
7.6148481e-29
7.7096397e-29
7.6724833e-29
6.9820372e-29
3.8223261e-29
3.1688476e-30
1.0262098e-29
1.2925154e-29
1.3447678e-29
1.3287757e-29
1.2982297e-29
1.2703311e-29
1.2499605e-29
1.2371769e-29
1.2309881e-29
1.2309872e-29
1.2371751e-29
1.2499578e-29
1.270329e-29
1.298229e-29
1.328776e-29
1.3447687e-29
1.292516e-29
1.0262107e-29
3.1688502e-30
1.8783833e-31
1.2338935e-30
1.8867699e-30
2.0945253e-30
2.1006869e-30
2.0420127e-30
1.9760455e-30
1.9238728e-30
1.8898432e-30
1.8731745e-30
1.8731725e-30
1.8898386e-30
1.9238659e-30
1.9760397e-30
2.04201e-30
2.1006864e-30
2.0945264e-30
1.8867704e-30
1.2338939e-30
1.8783835e-31
8.576899e-33
1.2362808e-31
2.3964677e-31
2.9116098e-31
3.0077488e-31
2.9306069e-31
2.8131346e-31
2.7121848e-31
2.6439861e-31
2.610174e-31
2.6101699e-31
2.6439771e-31
2.7121706e-31
2.813122e-31
2.9306e-31
3.0077464e-31
2.9116106e-31
2.3964678e-31
1.2362806e-31
8.5768934e-33
3.2003701e-34
1.0544176e-32
2.6693455e-32
3.6191188e-32
3.898681e-32
3.8357654e-32
3.6671502e-32
3.5080942e-32
3.3968997e-32
3.341111e-32
3.3411044e-32
3.3968843e-32
3.50807e-32
3.6671279e-32
3.835752e-32
3.8986749e-32
3.6191185e-32
2.6693457e-32
1.0544173e-32
3.2003664e-34
1.0174578e-35
7.811866e-34
2.6325207e-33
4.0387765e-33
4.5804557e-33
4.579271e-33
4.3778026e-33
4.1654253e-33
4.0116222e-33
3.9335223e-33
3.9335128e-33
4.0115996e-33
4.1653903e-33
4.3777695e-33
4.5792495e-33
4.5804449e-33
4.0387756e-33
2.6325216e-33
7.8118672e-34
1.017457e-35
2.833178e-37
5.1134318e-35
2.3207387e-34
4.067291e-34
4.8900223e-34
4.9923264e-34
4.7892104e-34
4.5430718e-34
4.3579532e-34
4.2627691e-34
4.2627573e-34
4.3579245e-34
4.543027e-34
4.7891671e-34
4.9922974e-34
4.8900076e-34
4.0672906e-34
2.3207415e-34
5.113438e-35
2.8331791e-37
7.0365875e-39
2.9966119e-36
1.8444953e-35
3.7160153e-35
4.75909e-35
4.9799525e-35
4.8074529e-35
4.5559276e-35
4.3587495e-35
4.2560153e-35
4.2560016e-35
4.3587167e-35
4.5558771e-35
4.8074034e-35
4.9799188e-35
4.7590735e-35
3.7160164e-35
1.8444997e-35
2.9966211e-36
7.0366051e-39
1.5780847e-40
1.5879945e-37
1.3311819e-36
3.0954303e-36
4.236727e-36
4.5561264e-36
4.4356704e-36
4.2065616e-36
4.0184607e-36
3.9190629e-36
3.919049e-36
4.0184272e-36
4.2065099e-36
4.4356191e-36
4.5560914e-36
4.2367111e-36
3.0954329e-36
1.3311875e-36
1.5880033e-37
1.5780932e-40
3.2237721e-42
7.6671296e-39
8.7748774e-38
2.3612454e-37
3.4614862e-37
3.8326735e-37
3.769129e-37
3.5816605e-37
3.4195114e-37
3.3325215e-37
3.3325091e-37
3.4194805e-37
3.5816125e-37
3.7690812e-37
3.8326412e-37
3.4614725e-37
2.3612494e-37
8.7749313e-38
7.6671935e-39
3.2238015e-42
6.0374492e-44
3.3920653e-40
5.3080513e-39
1.6556852e-38
2.6033729e-38
2.9717109e-38
2.9554881e-38
2.8169367e-38
2.6897614e-38
2.6204179e-38
2.6204076e-38
2.6897354e-38
2.8168962e-38
2.9554479e-38
2.9716838e-38
2.6033624e-38
1.6556896e-38
5.3080948e-39
3.3921041e-40
6.037527e-44
1.0416345e-45
1.3812209e-41
2.9578454e-40
1.0705952e-39
1.8072915e-39
2.1286578e-39
2.14275e-39
2.0499277e-39
1.9586873e-39
1.9080632e-39
1.9080552e-39
1.9586671e-39
2.0498964e-39
2.142719e-39
2.128637e-39
1.8072841e-39
1.0705992e-39
2.957876e-40
1.381241e-41
1.041652e-45
1.6618421e-47
5.1944707e-43
1.5230396e-41
6.4012433e-41
1.1608414e-40
1.411588e-40
1.4390181e-40
1.3825416e-40
1.3224077e-40
1.2884126e-40
1.2884069e-40
1.3223934e-40
1.3825195e-40
1.4389962e-40
1.4115735e-40
1.1608366e-40
6.4012723e-41
1.5230584e-41
5.1945625e-43
1.661875e-47
2.4590169e-49
1.8092869e-44
7.2652374e-43
3.5472611e-42
6.9130835e-42
8.6821401e-42
8.9670072e-42
8.6549193e-42
8.2895936e-42
8.0788722e-42
8.0788348e-42
8.2895e-42
8.6547749e-42
8.9668633e-42
8.6820458e-42
6.9130547e-42
3.5472801e-42
7.2653423e-43
1.8093246e-44
2.4590722e-49
3.3825466e-51
5.8497789e-46
3.2174109e-44
1.8253905e-43
3.8238835e-43
4.9611431e-43
5.1925152e-43
5.0362358e-43
4.8310922e-43
4.7101799e-43
4.7101573e-43
4.8310354e-43
5.036148e-43
5.1924277e-43
4.9610862e-43
3.8238666e-43
1.8254016e-43
3.2174636e-44
5.8499193e-46
3.3826331e-51
4.3334924e-53
1.7588735e-47
1.3250737e-45
8.7370441e-45
1.9676193e-44
2.6375552e-44
2.7979864e-44
2.7274697e-44
2.6207613e-44
2.556388e-44
2.5563752e-44
2.6207292e-44
2.7274203e-44
2.797937e-44
2.6375237e-44
1.9676101e-44
8.7371033e-45
1.3250981e-45
1.7589213e-47
4.3336129e-53
5.1781809e-55
4.9254328e-49
5.0825209e-47
3.895095e-46
9.4308672e-46
1.3062587e-45
1.4046429e-45
1.376303e-45
1.3247973e-45
1.2929386e-45
1.2929318e-45
1.3247804e-45
1.3762771e-45
1.4046168e-45
1.3062421e-45
9.4308197e-46
3.8951238e-46
5.0826247e-47
4.9255834e-49
5.1783397e-55
5.7777587e-57
1.2861743e-50
1.8177849e-48
1.6192554e-47
4.2151891e-47
6.0329099e-47
6.5763003e-47
6.4772868e-47
6.2462897e-47
6.0994988e-47
6.0994658e-47
6.2462062e-47
6.4771597e-47
6.5761717e-47
6.0328285e-47
4.2151657e-47
1.6192678e-47
1.8178255e-48
1.2862186e-50
5.7779534e-57
6.0251977e-59
3.1349436e-52
6.0680977e-50
6.2829918e-49
1.758473e-48
2.6006433e-48
2.8738614e-48
2.8454941e-48
2.7491349e-48
2.6860908e-48
2.6860758e-48
2.7490966e-48
2.845436e-48
2.8738021e-48
2.6006056e-48
1.758462e-48
6.2830414e-49
6.0682441e-50
3.1350634e-52
6.0254226e-59
5.8763311e-61
7.1379464e-54
1.892111e-51
2.2771993e-50
6.8521971e-50
1.0471416e-49
1.1730704e-49
1.1676285e-49
1.1302156e-49
1.1049531e-49
1.1049468e-49
1.1301992e-49
1.1676035e-49
1.173045e-49
1.0471253e-49
6.852148e-50
2.277217e-50
1.8921601e-51
7.1382476e-54
5.8765751e-61
5.3626186e-63
1.5191124e-55
5.514227e-53
7.7139024e-52
2.4954586e-51
3.9404596e-51
4.4750374e-51
4.4778387e-51
4.3425766e-51
4.2480591e-51
4.2480337e-51
4.3425104e-51
4.4777382e-51
4.474935e-51
3.9403927e-51
2.4954378e-51
7.7139599e-52
5.5143789e-53
1.5191826e-55
5.3628658e-63
4.5806141e-65
3.0231932e-57
1.5026391e-54
2.4432693e-53
8.4972881e-53
1.3863893e-52
1.5961e-52
1.6055416e-52
1.5599974e-52
1.5269626e-52
1.5269533e-52
1.5599728e-52
1.6055038e-52
1.5960611e-52
1.3863638e-52
8.4972045e-53
2.4432857e-53
1.5026823e-54
3.0233438e-57
4.5808473e-65
3.6628675e-67
5.6275419e-59
3.8298071e-56
7.2378818e-55
2.7060603e-54
4.5618058e-54
5.3238814e-54
5.3836353e-54
5.2408291e-54
5.1329341e-54
5.1329013e-54
5.2407433e-54
5.3835016e-54
5.3237444e-54
4.5617144e-54
2.7060296e-54
7.2379231e-55
3.8299201e-56
5.6278396e-59
3.6630712e-67
2.742088e-69
9.7994166e-61
9.1307435e-58
2.0056218e-56
8.0607586e-56
1.4039614e-55
1.6609394e-55
1.6884232e-55
1.6467406e-55
1.6138044e-55
1.6137939e-55
1.6467127e-55
1.6883793e-55
1.6608942e-55
1.4039309e-55
8.0606526e-56
2.0056305e-56
9.1310142e-58
9.7999578e-61
2.7422511e-69
1.9215659e-71
1.5962396e-62
2.0362599e-59
5.1984608e-58
2.2458818e-57
4.0413964e-57
4.8464862e-57
4.9525436e-57
4.8393635e-57
4.745395e-57
4.7453634e-57
4.8392784e-57
4.9524096e-57
4.8463468e-57
4.0413016e-57
2.2458478e-57
5.1984743e-58
2.036319e-59
1.5963294e-62
1.9216858e-71
1.2601831e-73
2.4318462e-64
4.2470258e-61
1.2601322e-59
5.8519191e-59
1.0879126e-58
1.3224405e-58
1.3584524e-58
1.3298921e-58
1.3048395e-58
1.3048307e-58
1.329868e-58
1.358414e-58
1.3224003e-58
1.087885e-58
5.8518176e-59
1.2601325e-59
4.2471425e-61
2.4319823e-64
1.2602638e-73
7.7311794e-76
3.4639648e-66
8.2817765e-63
2.8558534e-61
1.4255222e-60
2.7378355e-60
3.3733839e-60
3.4833257e-60
3.4164419e-60
3.354048e-60
3.3540246e-60
3.4163774e-60
3.4832229e-60
3.3732761e-60
2.73776e-60
1.4254938e-60
2.8558465e-61
8.281983e-63
3.4641531e-66
7.7316755e-76
4.4346344e-78
4.6110838e-68
1.5091929e-64
6.0482692e-63
3.244978e-62
6.4382806e-62
8.0407183e-62
8.3459592e-62
8.2008706e-62
8.0557793e-62
8.0557209e-62
8.20071e-62
8.345703e-62
8.0404472e-62
6.4380883e-62
3.2449039e-62
6.0482332e-63
1.509225e-64
4.6113199e-68
4.4349107e-78
2.3766681e-80
5.7325571e-70
2.5684743e-66
1.1962703e-64
6.8982738e-64
1.4138762e-63
1.7897546e-63
1.8673307e-63
1.8382495e-63
1.8067676e-63
1.8067543e-63
1.838212e-63
1.8672709e-63
1.7896913e-63
1.4138306e-63
6.8980934e-64
1.1962581e-64
2.568517e-66
5.7328236e-70
2.3768072e-80
1.1890628e-82
6.6505931e-72
4.0791422e-68
2.2079318e-66
1.3684101e-65
2.8972699e-65
3.7172283e-65
3.8984028e-65
3.8447248e-65
3.7810399e-65
3.7810106e-65
3.8446435e-65
3.8982729e-65
3.7170894e-65
2.897168e-65
1.3683692e-65
2.2078988e-66
4.0791866e-68
6.650858e-72
1.1891263e-82
5.5477266e-85
7.1930337e-74
6.039517e-70
3.7990732e-68
2.5305653e-67
5.5345404e-67
7.1970015e-67
7.5866922e-67
7.4958724e-67
7.375887e-67
7.3758274e-67
7.4957083e-67
7.5864289e-67
7.1967162e-67
5.5343287e-67
2.5304792e-67
3.7989949e-68
6.0395406e-70
7.193261e-74
5.5479823e-85
)
;

boundaryField
{
    Wall
    {
        type            zeroGradient;
    }
    frontAndBack
    {
        type            empty;
    }
    atmosphere
    {
        type            zeroGradient;
    }
}


// ************************************************************************* //
