/*--------------------------------*- C++ -*----------------------------------*\
| =========                 |                                                 |
| \\      /  F ield         | OpenFOAM: The Open Source CFD Toolbox           |
|  \\    /   O peration     | Version:  3.0.1                                 |
|   \\  /    A nd           | Web:      www.OpenFOAM.org                      |
|    \\/     M anipulation  |                                                 |
\*---------------------------------------------------------------------------*/
FoamFile
{
    version     2.0;
    format      ascii;
    class       volScalarField;
    location    "15";
    object      mOne;
}
// * * * * * * * * * * * * * * * * * * * * * * * * * * * * * * * * * * * * * //

dimensions      [0 0 0 0 0 0 0];

internalField   nonuniform List<scalar> 
800
(
4.0085019
4.0084724
4.0084333
4.0084103
4.0083932
4.0083795
4.0083692
4.0083617
4.0083568
4.0083544
4.0083545
4.0083568
4.0083617
4.0083692
4.0083795
4.0083932
4.0084103
4.0084333
4.0084725
4.0085019
3.5718261
3.5825311
3.5835701
3.5838273
3.5840358
3.5842268
3.5843867
3.5845055
3.5845821
3.5846195
3.5846195
3.5845821
3.5845055
3.5843867
3.5842268
3.5840358
3.5838274
3.5835702
3.5825312
3.5718261
2.9401562
2.9532854
2.9597127
2.9602351
2.960571
2.9608664
2.9611034
2.9612753
2.9613851
2.9614386
2.9614386
2.961385
2.9612753
2.9611033
2.9608664
2.960571
2.9602351
2.9597127
2.9532854
2.9401561
2.2749584
2.2902029
2.2947669
2.2953248
2.2957066
2.2960048
2.2962264
2.2963779
2.2964713
2.2965158
2.2965158
2.2964713
2.2963779
2.2962263
2.2960048
2.2957066
2.2953249
2.2947669
2.2902029
2.2749583
1.6439375
1.6650668
1.6681484
1.6688115
1.6692063
1.6694683
1.6696287
1.6697229
1.6697748
1.6697979
1.6697979
1.6697748
1.6697229
1.6696287
1.6694683
1.6692064
1.6688116
1.6681485
1.665067
1.6439375
0.9900843
1.0189642
1.0216936
1.0225828
1.0230053
1.0232119
1.0233074
1.0233348
1.0233447
1.0233465
1.0233465
1.0233447
1.0233348
1.0233075
1.023212
1.0230054
1.0225829
1.0216938
1.0189643
0.99008442
0.47879966
0.49934373
0.50207371
0.50290977
0.50317528
0.50322178
0.50320453
0.50315658
0.50312238
0.50309699
0.503097
0.50312238
0.50315659
0.50320458
0.50322187
0.50317542
0.50290996
0.50207389
0.49934394
0.47879984
0.20461953
0.22191109
0.22554657
0.22611419
0.22604916
0.22586552
0.2256944
0.22557974
0.22550348
0.22545515
0.22545515
0.22550348
0.22557972
0.22569443
0.2258656
0.22604928
0.22611438
0.22554672
0.22191128
0.2046197
0.070708978
0.089772145
0.094654969
0.095336602
0.09498338
0.09450738
0.094118142
0.093878369
0.093730097
0.093651098
0.093651076
0.093730077
0.09387831
0.094118136
0.094507427
0.094983454
0.095336731
0.094655052
0.089772254
0.070709098
0.017370204
0.032334838
0.037348717
0.038491977
0.038319678
0.037841061
0.037388233
0.037082793
0.036890342
0.036793728
0.036793703
0.036890314
0.037082727
0.037388205
0.037841075
0.038319705
0.038492044
0.03734875
0.032334883
0.017370251
0.0030167076
0.010151216
0.013637896
0.014786302
0.014876726
0.014614634
0.014302389
0.014070582
0.013918705
0.01384294
0.013842923
0.013918682
0.014070531
0.01430236
0.014614631
0.014876727
0.01478633
0.013637905
0.010151227
0.0030167181
0.00039104087
0.0027750243
0.0045814436
0.0053688365
0.0055359913
0.0054434021
0.0052857161
0.0051568769
0.0050690119
0.0050249245
0.0050249149
0.005068997
0.0051568466
0.0052856956
0.005443395
0.005535984
0.0053688441
0.0045814443
0.0027750249
0.00039104254
4.0504561e-05
0.00066840321
0.0014207027
0.0018405395
0.0019696343
0.0019519751
0.001887627
0.0018292213
0.0017877914
0.0017668275
0.001766823
0.0017877833
0.0018292061
0.0018876153
0.0019519695
0.0019696277
0.0018405402
0.001420702
0.00066840247
4.0504776e-05
3.5578895e-06
0.00014454124
0.00041003013
0.00059739026
0.00066994817
0.00067330101
0.00065114912
0.0006283067
0.0006114399
0.00060282661
0.00060282473
0.00061143608
0.00062829989
0.00065114342
0.00067329767
0.0006699442
0.00059738942
0.00041002962
0.00014454086
3.5579144e-06
2.7670906e-07
2.8653956e-05
0.00011126253
0.00018443988
0.00021820581
0.00022344299
0.00021694262
0.0002089911
0.00020286024
0.00019969805
0.00019969733
0.0002028586
0.00020898835
0.00021694011
0.0002234413
0.00021820389
0.00018443919
0.00011126229
2.8653839e-05
2.767117e-07
1.9618149e-08
5.3104975e-06
2.8676353e-05
5.4448203e-05
6.8219205e-05
7.1410206e-05
6.9824159e-05
6.7316443e-05
6.5285172e-05
6.4225476e-05
6.4225218e-05
6.5284521e-05
6.7315411e-05
6.9823141e-05
7.1409453e-05
6.8218412e-05
5.4447841e-05
2.8676266e-05
5.3104684e-06
1.9618398e-08
1.2937571e-09
9.3596296e-07
7.0835297e-06
1.5442404e-05
2.0523444e-05
2.2005386e-05
2.1718672e-05
2.0995477e-05
2.0373803e-05
2.0045009e-05
2.0044919e-05
2.0373562e-05
2.0995111e-05
2.1718287e-05
2.2005075e-05
2.0523149e-05
1.5442251e-05
7.0834989e-06
9.359567e-07
1.293778e-09
8.0598671e-11
1.5912898e-07
1.6891102e-06
4.224175e-06
5.9546177e-06
6.5462895e-06
6.5313157e-06
6.340102e-06
6.1628092e-06
6.0674225e-06
6.0673932e-06
6.1627256e-06
6.3399783e-06
6.5311784e-06
6.5461701e-06
5.9545167e-06
4.2241182e-06
1.6891e-06
1.5912772e-07
8.0600236e-11
4.8100459e-12
2.6395491e-08
3.9086493e-07
1.1176883e-06
1.6690734e-06
1.8818919e-06
1.8995475e-06
1.8534072e-06
1.8060328e-06
1.7799783e-06
1.779969e-06
1.8060052e-06
1.8533669e-06
1.899501e-06
1.881849e-06
1.6690406e-06
1.1176693e-06
3.9086166e-07
2.6395238e-08
4.8101519e-12
2.7908735e-13
4.3068451e-09
8.8070448e-08
2.8661832e-07
4.5255958e-07
5.2319489e-07
5.3443282e-07
5.2443172e-07
5.1253507e-07
5.0580184e-07
5.0579896e-07
5.1252636e-07
5.2441912e-07
5.3441787e-07
5.231804e-07
4.5254934e-07
2.866124e-07
8.806946e-08
4.3067944e-09
2.7909354e-13
1.6014141e-14
6.9466763e-10
1.9358514e-08
7.1321725e-08
1.1881123e-07
1.4075317e-07
1.4548855e-07
1.4362004e-07
1.4081043e-07
1.391587e-07
1.3915782e-07
1.408078e-07
1.4361622e-07
1.4548394e-07
1.4074856e-07
1.1880814e-07
7.1319985e-08
1.9358231e-08
6.9465748e-10
1.6014443e-14
9.2628974e-16
1.1096749e-10
4.153934e-09
1.7233728e-08
3.0221423e-08
3.665961e-08
3.8332416e-08
3.8067921e-08
3.7445039e-08
3.7059651e-08
3.7059393e-08
3.7444276e-08
3.8066808e-08
3.8331056e-08
3.6658224e-08
3.0220517e-08
1.7233243e-08
4.1538574e-09
1.1096549e-10
9.262996e-16
5.5012219e-17
1.7546055e-11
8.7012808e-10
4.045245e-09
7.4521237e-09
9.2479285e-09
9.7778024e-09
9.7676318e-09
9.6386984e-09
9.5531033e-09
9.5530308e-09
9.6384848e-09
9.7673179e-09
9.7774162e-09
9.2475316e-09
7.4518655e-09
4.0451154e-09
8.7010844e-10
1.7545667e-11
5.5012101e-17
3.3966831e-18
2.7405292e-12
1.7785648e-10
9.2261727e-10
1.7822055e-09
2.2606078e-09
2.4156072e-09
2.4268022e-09
2.4021678e-09
2.3840794e-09
2.3840597e-09
2.4021102e-09
2.4267167e-09
2.4155017e-09
2.2604993e-09
1.7821342e-09
9.2258387e-10
1.7785168e-10
2.7404562e-12
3.396623e-18
2.184985e-19
4.2168805e-13
3.5456526e-11
2.0450088e-10
4.1357013e-10
5.3572924e-10
5.7827191e-10
5.8409103e-10
5.7985089e-10
5.7622094e-10
5.7621576e-10
5.7983592e-10
5.8406858e-10
5.7824417e-10
5.3570081e-10
4.1355117e-10
2.0449257e-10
3.5455404e-11
4.216748e-13
2.1849105e-19
1.4525881e-20
6.3751436e-14
6.8906729e-12
4.4061898e-11
9.3167585e-11
1.2315249e-10
1.3421612e-10
1.3625821e-10
1.3563854e-10
1.3494959e-10
1.3494828e-10
1.3563478e-10
1.362525e-10
1.3420909e-10
1.2314532e-10
9.3162724e-11
4.4059891e-11
6.8904211e-12
6.3749119e-14
1.4525176e-20
9.846413e-22
9.4480446e-15
1.3050417e-12
9.2310062e-12
2.038593e-11
2.747766e-11
3.0221737e-11
3.0828615e-11
3.076624e-11
3.0643501e-11
3.064318e-11
3.0765322e-11
3.0827218e-11
3.0220016e-11
2.7475916e-11
2.038473e-11
9.2305348e-12
1.3049873e-12
9.4476548e-15
9.8458214e-22
6.7132756e-23
1.3702254e-15
2.4083261e-13
1.8810758e-12
4.3349903e-12
5.9543589e-12
6.6065345e-12
6.7694904e-12
6.7716291e-12
6.7513948e-12
6.7513189e-12
6.771413e-12
6.7691594e-12
6.6061279e-12
5.9539493e-12
4.3347048e-12
1.8809685e-12
2.4082126e-13
1.3701618e-15
6.7128139e-23
4.5542393e-24
1.9423016e-16
4.3304828e-14
3.7300716e-13
8.9638316e-13
1.254016e-12
1.4030718e-12
1.4437381e-12
1.4473159e-12
1.4443187e-12
1.4443014e-12
1.4472667e-12
1.4436623e-12
1.4029789e-12
1.2539229e-12
8.9631766e-13
3.7298343e-13
4.3302535e-14
1.9422011e-16
4.5538525e-24
3.0517188e-25
2.6890098e-17
7.588427e-15
7.2009204e-14
1.8034926e-13
2.5685437e-13
2.8970689e-13
2.9928277e-13
3.0062203e-13
3.0025169e-13
3.0024788e-13
3.0061117e-13
2.9926597e-13
2.8968635e-13
2.5683388e-13
1.8033475e-13
7.2004113e-14
7.5879762e-15
2.688855e-17
3.0510328e-25
2.0118943e-26
3.6345829e-18
1.2962136e-15
1.3540789e-14
3.5328464e-14
5.1202809e-14
5.8201549e-14
6.0349019e-14
6.0730392e-14
6.0702149e-14
6.0701337e-14
6.0728071e-14
6.0345411e-14
5.8197143e-14
5.1198433e-14
3.5325354e-14
1.3539728e-14
1.2961273e-15
3.6343498e-18
2.0095305e-26
1.3049732e-27
4.795772e-19
2.1590603e-16
2.4815523e-15
6.7422277e-15
9.9410203e-15
1.1384919e-14
1.1846425e-14
1.1941502e-14
1.194432e-14
1.1944153e-14
1.1941021e-14
1.1845674e-14
1.1384003e-14
9.9401117e-15
6.7415832e-15
2.4813376e-15
2.1588994e-16
4.7954276e-19
1.2976535e-27
8.3819878e-29
6.1779805e-20
3.5083199e-17
4.4347931e-16
1.2543825e-15
1.8810611e-15
2.1700195e-15
2.2654877e-15
2.2872538e-15
2.2892608e-15
2.2892271e-15
2.2871569e-15
2.2653361e-15
2.1698345e-15
1.8808778e-15
1.254253e-15
4.4343702e-16
3.508027e-17
6.1774811e-20
8.2039382e-29
5.4261485e-30
7.7718159e-21
5.5639428e-18
7.7329491e-17
2.2765782e-16
3.4714328e-16
4.0331797e-16
4.2239119e-16
4.2707056e-16
4.2769635e-16
4.276898e-16
4.270516e-16
4.2236146e-16
4.0328164e-16
3.4710732e-16
2.2763252e-16
7.7321396e-17
5.5634211e-18
7.7711016e-21
5.0746391e-30
3.6561949e-31
9.5506385e-22
8.6165033e-19
1.3164114e-17
4.033069e-17
6.252314e-17
7.3145121e-17
7.6835016e-17
7.7791614e-17
7.7947587e-17
7.7946347e-17
7.7788003e-17
7.6829339e-17
7.3138182e-17
6.2516263e-17
4.0325882e-17
1.3162604e-17
8.6155956e-19
9.5496335e-22
3.0706403e-31
2.6655571e-32
1.146965e-22
1.3036714e-19
2.1890938e-18
6.9784452e-18
1.0997225e-17
1.2953029e-17
1.3645736e-17
1.3833153e-17
1.3867761e-17
1.386753e-17
1.3832481e-17
1.3644681e-17
1.2951737e-17
1.0995944e-17
6.9775545e-18
2.1888194e-18
1.3035169e-19
1.146826e-22
1.8177577e-32
2.1429827e-33
1.3466897e-23
1.9280623e-20
3.55805e-19
1.1800892e-18
1.8902147e-18
2.2412482e-18
2.3676623e-18
2.4030399e-18
2.4101541e-18
2.4101121e-18
2.4029183e-18
2.3674711e-18
2.2410136e-18
1.8899818e-18
1.1799284e-18
3.5575628e-19
1.9278056e-20
1.3465011e-23
1.0530272e-33
1.8604405e-34
1.5466307e-24
2.7888023e-21
5.6556023e-20
1.9514638e-19
3.1768098e-19
3.7915386e-19
4.0161335e-19
4.080721e-19
4.0945357e-19
4.0944611e-19
4.0805054e-19
4.015795e-19
3.7911222e-19
3.1763961e-19
1.9511798e-19
5.6547577e-20
2.7883857e-21
1.54638e-24
5.9716466e-35
1.6660345e-35
1.7382612e-25
3.9471586e-22
8.7963791e-21
3.1575087e-20
5.2237277e-20
6.2749741e-20
6.6639503e-20
6.7783216e-20
6.8039459e-20
6.8038159e-20
6.7779486e-20
6.663364e-20
6.2742508e-20
5.2230083e-20
3.1570182e-20
8.7949472e-21
3.9464975e-22
1.7379347e-25
3.3169937e-36
1.4759079e-36
1.9127711e-26
5.4694781e-23
1.3394327e-21
5.0015932e-21
8.4086632e-21
1.0165603e-20
1.082304e-20
1.1019927e-20
1.1065646e-20
1.1065426e-20
1.1019295e-20
1.0822046e-20
1.0164372e-20
8.4074385e-21
5.0007637e-21
1.3391953e-21
5.4684535e-23
1.9123557e-26
1.8077868e-37
)
;

boundaryField
{
    Wall
    {
        type            zeroGradient;
    }
    frontAndBack
    {
        type            empty;
    }
    atmosphere
    {
        type            zeroGradient;
    }
}


// ************************************************************************* //
