/*--------------------------------*- C++ -*----------------------------------*\
| =========                 |                                                 |
| \\      /  F ield         | OpenFOAM: The Open Source CFD Toolbox           |
|  \\    /   O peration     | Version:  3.0.1                                 |
|   \\  /    A nd           | Web:      www.OpenFOAM.org                      |
|    \\/     M anipulation  |                                                 |
\*---------------------------------------------------------------------------*/
FoamFile
{
    version     2.0;
    format      ascii;
    class       volScalarField;
    location    "15";
    object      mThree;
}
// * * * * * * * * * * * * * * * * * * * * * * * * * * * * * * * * * * * * * //

dimensions      [0 0 0 0 0 0 0];

internalField   nonuniform List<scalar> 
800
(
4.5285657e-25
4.5286887e-25
4.5286118e-25
4.5285587e-25
4.5285191e-25
4.5284872e-25
4.5284631e-25
4.5284457e-25
4.5284343e-25
4.5284287e-25
4.5284288e-25
4.5284343e-25
4.5284456e-25
4.5284631e-25
4.5284873e-25
4.5285191e-25
4.5285588e-25
4.5286119e-25
4.5286887e-25
4.5285657e-25
3.4105684e-25
3.4376992e-25
3.4403476e-25
3.4408509e-25
3.4412615e-25
3.4416669e-25
3.442021e-25
3.4422885e-25
3.4424618e-25
3.4425465e-25
3.4425466e-25
3.4424618e-25
3.4422885e-25
3.442021e-25
3.4416671e-25
3.4412617e-25
3.4408512e-25
3.440348e-25
3.4376994e-25
3.4105685e-25
2.2882757e-25
2.3135632e-25
2.3307533e-25
2.331691e-25
2.3323116e-25
2.3328805e-25
2.3333509e-25
2.3336978e-25
2.3339212e-25
2.3340304e-25
2.3340304e-25
2.3339211e-25
2.3336978e-25
2.3333509e-25
2.3328806e-25
2.3323117e-25
2.3316911e-25
2.3307535e-25
2.3135633e-25
2.2882756e-25
1.4046984e-25
1.4259547e-25
1.4353155e-25
1.4362114e-25
1.4368551e-25
1.4373747e-25
1.4377742e-25
1.4380554e-25
1.4382322e-25
1.4383173e-25
1.4383173e-25
1.4382321e-25
1.4380553e-25
1.4377741e-25
1.4373747e-25
1.436855e-25
1.4362115e-25
1.4353155e-25
1.4259547e-25
1.4046983e-25
8.2349109e-26
8.4475218e-26
8.4902421e-26
8.4989765e-26
8.5048726e-26
8.5091478e-26
8.512083e-26
8.5140011e-26
8.5151535e-26
8.5156953e-26
8.5156953e-26
8.5151531e-26
8.5140004e-26
8.5120823e-26
8.5091475e-26
8.5048723e-26
8.4989765e-26
8.4902424e-26
8.4475221e-26
8.23491e-26
3.4280355e-26
3.6314688e-26
3.6510792e-26
3.6577793e-26
3.6619097e-26
3.6645564e-26
3.6661863e-26
3.6671364e-26
3.6676814e-26
3.6679311e-26
3.667931e-26
3.6676811e-26
3.6671359e-26
3.6661859e-26
3.6645562e-26
3.6619096e-26
3.6577792e-26
3.6510795e-26
3.6314691e-26
3.4280351e-26
8.7874769e-27
9.5020143e-27
9.5729826e-27
9.6014299e-27
9.616435e-27
9.6246878e-27
9.6290629e-27
9.6312565e-27
9.6323965e-27
9.6328249e-27
9.6328247e-27
9.6323955e-27
9.6312552e-27
9.629062e-27
9.6246878e-27
9.6164358e-27
9.6014311e-27
9.5729844e-27
9.5020167e-27
8.7874773e-27
1.8999156e-27
2.1245471e-27
2.1513654e-27
2.1573705e-27
2.1596977e-27
2.1606812e-27
2.1609544e-27
2.1609914e-27
2.1609479e-27
2.1608673e-27
2.1608672e-27
2.1609476e-27
2.160991e-27
2.1609542e-27
2.1606814e-27
2.1596983e-27
2.1573713e-27
2.1513662e-27
2.1245483e-27
1.8999161e-27
3.2681216e-28
4.1972997e-28
4.3232934e-28
4.3173918e-28
4.2983029e-28
4.2834222e-28
4.2731747e-28
4.2668245e-28
4.2631181e-28
4.2612087e-28
4.2612081e-28
4.2631169e-28
4.2668225e-28
4.2731737e-28
4.2834229e-28
4.2983048e-28
4.3173944e-28
4.3232957e-28
4.1973029e-28
3.2681239e-28
3.8887168e-29
7.2077936e-29
7.9590366e-29
8.0063935e-29
7.9066436e-29
7.8010829e-29
7.7190284e-29
7.6639524e-29
7.6308392e-29
7.6148562e-29
7.6148532e-29
7.6308338e-29
7.663944e-29
7.7190229e-29
7.8010827e-29
7.9066469e-29
8.0063995e-29
7.959041e-29
7.2078005e-29
3.8887209e-29
3.1784071e-30
1.0366271e-29
1.3101426e-29
1.3646519e-29
1.3485436e-29
1.3172028e-29
1.2884998e-29
1.2675481e-29
1.2543968e-29
1.2480286e-29
1.2480277e-29
1.254395e-29
1.2675453e-29
1.2884977e-29
1.3172022e-29
1.3485439e-29
1.3646529e-29
1.3101432e-29
1.036628e-29
3.1784097e-30
1.8791178e-31
1.2373176e-30
1.895414e-30
2.1057704e-30
2.1123163e-30
2.0531282e-30
1.9864903e-30
1.933794e-30
1.8994228e-30
1.8825871e-30
1.882585e-30
1.8994182e-30
1.9337869e-30
1.9864844e-30
2.0531255e-30
2.1123158e-30
2.1057716e-30
1.8954145e-30
1.237318e-30
1.8791181e-31
8.5772464e-33
1.2371071e-31
2.3998724e-31
2.9169687e-31
3.0136729e-31
2.9363274e-31
2.8184448e-31
2.717146e-31
2.648713e-31
2.6147858e-31
2.6147816e-31
2.648704e-31
2.7171317e-31
2.8184321e-31
2.9363205e-31
3.0136705e-31
2.9169695e-31
2.3998725e-31
1.237107e-31
8.5772408e-33
3.2003815e-34
1.05457e-32
2.67044e-32
3.6212808e-32
3.9012929e-32
3.838348e-32
3.669538e-32
3.5102983e-32
3.3989767e-32
3.3431252e-32
3.3431185e-32
3.3989613e-32
3.5102741e-32
3.6695157e-32
3.8383346e-32
3.9012868e-32
3.6212806e-32
2.6704402e-32
1.0545697e-32
3.2003778e-34
1.0174581e-35
7.8120898e-34
2.6328136e-33
4.0395214e-33
4.5814552e-33
4.5802942e-33
4.3787523e-33
4.1662958e-33
4.012436e-33
3.9343078e-33
3.9342983e-33
4.0124134e-33
4.1662608e-33
4.3787192e-33
4.5802726e-33
4.5814444e-33
4.0395205e-33
2.6328145e-33
7.8120911e-34
1.0174573e-35
2.8331781e-37
5.1134589e-35
2.3208053e-34
4.0675125e-34
4.8903559e-34
4.9926829e-34
4.7895448e-34
4.5433776e-34
4.3582377e-34
4.2630429e-34
4.2630311e-34
4.358209e-34
4.5433329e-34
4.7895015e-34
4.9926539e-34
4.8903412e-34
4.0675121e-34
2.3208081e-34
5.1134651e-35
2.8331792e-37
7.0365875e-39
2.9966147e-36
1.8445083e-35
3.7160727e-35
4.7591877e-35
4.9800621e-35
4.8075573e-35
4.5560232e-35
4.3588383e-35
4.2561006e-35
4.2560869e-35
4.3588055e-35
4.5559727e-35
4.8075078e-35
4.9800284e-35
4.7591712e-35
3.7160738e-35
1.8445128e-35
2.9966239e-36
7.0366051e-39
1.5780847e-40
1.5879948e-37
1.3311842e-36
3.0954433e-36
4.2367523e-36
4.5561562e-36
4.4356994e-36
4.2065883e-36
4.0184854e-36
3.9190867e-36
3.9190728e-36
4.0184519e-36
4.2065366e-36
4.4356481e-36
4.5561213e-36
4.2367363e-36
3.095446e-36
1.3311898e-36
1.5880036e-37
1.5780932e-40
3.2237721e-42
7.6671298e-39
8.7748809e-38
2.361248e-37
3.4614919e-37
3.8326807e-37
3.7691362e-37
3.5816671e-37
3.4195176e-37
3.3325274e-37
3.332515e-37
3.4194867e-37
3.5816192e-37
3.7690884e-37
3.8326485e-37
3.4614783e-37
2.361252e-37
8.7749347e-38
7.6671937e-39
3.2238015e-42
6.0374492e-44
3.3920654e-40
5.3080517e-39
1.6556856e-38
2.6033741e-38
2.9717124e-38
2.9554897e-38
2.8169382e-38
2.6897628e-38
2.6204192e-38
2.6204089e-38
2.6897367e-38
2.8168977e-38
2.9554494e-38
2.9716854e-38
2.6033636e-38
1.6556901e-38
5.3080952e-39
3.3921041e-40
6.037527e-44
1.0416345e-45
1.3812209e-41
2.9578454e-40
1.0705953e-39
1.8072917e-39
2.1286581e-39
2.1427503e-39
2.049928e-39
1.9586876e-39
1.9080635e-39
1.9080555e-39
1.9586674e-39
2.0498967e-39
2.1427193e-39
2.1286373e-39
1.8072843e-39
1.0705992e-39
2.9578761e-40
1.381241e-41
1.041652e-45
1.6618421e-47
5.1944707e-43
1.5230396e-41
6.4012434e-41
1.1608414e-40
1.4115881e-40
1.4390182e-40
1.3825417e-40
1.3224078e-40
1.2884127e-40
1.2884069e-40
1.3223935e-40
1.3825196e-40
1.4389962e-40
1.4115735e-40
1.1608366e-40
6.4012724e-41
1.5230584e-41
5.1945625e-43
1.661875e-47
2.4590169e-49
1.8092869e-44
7.2652374e-43
3.5472611e-42
6.9130835e-42
8.6821402e-42
8.9670073e-42
8.6549194e-42
8.2895937e-42
8.0788723e-42
8.0788348e-42
8.2895001e-42
8.654775e-42
8.9668634e-42
8.6820459e-42
6.9130548e-42
3.5472802e-42
7.2653423e-43
1.8093246e-44
2.4590722e-49
3.3825466e-51
5.8497789e-46
3.2174109e-44
1.8253905e-43
3.8238835e-43
4.9611431e-43
5.1925152e-43
5.0362358e-43
4.8310922e-43
4.7101799e-43
4.7101573e-43
4.8310354e-43
5.036148e-43
5.1924277e-43
4.9610862e-43
3.8238667e-43
1.8254016e-43
3.2174636e-44
5.8499193e-46
3.3826331e-51
4.3334924e-53
1.7588735e-47
1.3250737e-45
8.7370441e-45
1.9676193e-44
2.6375552e-44
2.7979864e-44
2.7274697e-44
2.6207613e-44
2.556388e-44
2.5563752e-44
2.6207292e-44
2.7274203e-44
2.797937e-44
2.6375237e-44
1.9676101e-44
8.7371033e-45
1.3250981e-45
1.7589213e-47
4.3336129e-53
5.1781809e-55
4.9254328e-49
5.0825209e-47
3.895095e-46
9.4308672e-46
1.3062587e-45
1.4046429e-45
1.376303e-45
1.3247973e-45
1.2929386e-45
1.2929318e-45
1.3247804e-45
1.3762771e-45
1.4046168e-45
1.3062421e-45
9.4308197e-46
3.8951238e-46
5.0826247e-47
4.9255834e-49
5.1783397e-55
5.7777587e-57
1.2861743e-50
1.8177849e-48
1.6192554e-47
4.2151891e-47
6.0329099e-47
6.5763003e-47
6.4772868e-47
6.2462897e-47
6.0994988e-47
6.0994658e-47
6.2462062e-47
6.4771597e-47
6.5761717e-47
6.0328285e-47
4.2151657e-47
1.6192678e-47
1.8178255e-48
1.2862186e-50
5.7779534e-57
6.0251977e-59
3.1349436e-52
6.0680977e-50
6.2829918e-49
1.758473e-48
2.6006433e-48
2.8738614e-48
2.8454941e-48
2.7491349e-48
2.6860908e-48
2.6860758e-48
2.7490966e-48
2.845436e-48
2.8738021e-48
2.6006056e-48
1.758462e-48
6.2830414e-49
6.0682441e-50
3.1350634e-52
6.0254226e-59
5.8763311e-61
7.1379464e-54
1.892111e-51
2.2771993e-50
6.8521971e-50
1.0471416e-49
1.1730704e-49
1.1676285e-49
1.1302156e-49
1.1049531e-49
1.1049468e-49
1.1301992e-49
1.1676035e-49
1.173045e-49
1.0471253e-49
6.852148e-50
2.277217e-50
1.8921601e-51
7.1382476e-54
5.8765751e-61
5.3626186e-63
1.5191124e-55
5.514227e-53
7.7139024e-52
2.4954586e-51
3.9404596e-51
4.4750374e-51
4.4778387e-51
4.3425766e-51
4.2480591e-51
4.2480337e-51
4.3425104e-51
4.4777382e-51
4.474935e-51
3.9403927e-51
2.4954378e-51
7.7139599e-52
5.5143789e-53
1.5191826e-55
5.3628658e-63
4.5806141e-65
3.0231932e-57
1.5026391e-54
2.4432693e-53
8.4972881e-53
1.3863893e-52
1.5961e-52
1.6055416e-52
1.5599974e-52
1.5269626e-52
1.5269533e-52
1.5599728e-52
1.6055038e-52
1.5960611e-52
1.3863638e-52
8.4972045e-53
2.4432857e-53
1.5026823e-54
3.0233438e-57
4.5808473e-65
3.6628675e-67
5.6275419e-59
3.8298071e-56
7.2378818e-55
2.7060603e-54
4.5618058e-54
5.3238814e-54
5.3836353e-54
5.2408291e-54
5.1329341e-54
5.1329013e-54
5.2407433e-54
5.3835016e-54
5.3237444e-54
4.5617144e-54
2.7060296e-54
7.2379231e-55
3.8299201e-56
5.6278396e-59
3.6630712e-67
2.742088e-69
9.7994166e-61
9.1307435e-58
2.0056218e-56
8.0607586e-56
1.4039614e-55
1.6609394e-55
1.6884232e-55
1.6467406e-55
1.6138044e-55
1.6137939e-55
1.6467127e-55
1.6883793e-55
1.6608942e-55
1.4039309e-55
8.0606526e-56
2.0056305e-56
9.1310142e-58
9.7999578e-61
2.7422511e-69
1.9215659e-71
1.5962396e-62
2.0362599e-59
5.1984608e-58
2.2458818e-57
4.0413964e-57
4.8464862e-57
4.9525436e-57
4.8393635e-57
4.745395e-57
4.7453634e-57
4.8392784e-57
4.9524096e-57
4.8463468e-57
4.0413016e-57
2.2458478e-57
5.1984743e-58
2.036319e-59
1.5963294e-62
1.9216858e-71
1.2601831e-73
2.4318462e-64
4.2470258e-61
1.2601322e-59
5.8519191e-59
1.0879126e-58
1.3224405e-58
1.3584524e-58
1.3298921e-58
1.3048395e-58
1.3048307e-58
1.329868e-58
1.358414e-58
1.3224003e-58
1.087885e-58
5.8518176e-59
1.2601325e-59
4.2471425e-61
2.4319823e-64
1.2602638e-73
7.7311794e-76
3.4639648e-66
8.2817765e-63
2.8558534e-61
1.4255222e-60
2.7378355e-60
3.3733839e-60
3.4833257e-60
3.4164419e-60
3.354048e-60
3.3540246e-60
3.4163774e-60
3.4832229e-60
3.3732761e-60
2.73776e-60
1.4254938e-60
2.8558465e-61
8.281983e-63
3.4641531e-66
7.7316755e-76
4.4346344e-78
4.6110838e-68
1.5091929e-64
6.0482692e-63
3.244978e-62
6.4382806e-62
8.0407183e-62
8.3459592e-62
8.2008706e-62
8.0557793e-62
8.0557209e-62
8.20071e-62
8.345703e-62
8.0404472e-62
6.4380883e-62
3.2449039e-62
6.0482332e-63
1.509225e-64
4.6113199e-68
4.4349107e-78
2.3766681e-80
5.7325571e-70
2.5684743e-66
1.1962703e-64
6.8982738e-64
1.4138762e-63
1.7897546e-63
1.8673307e-63
1.8382495e-63
1.8067676e-63
1.8067543e-63
1.838212e-63
1.8672709e-63
1.7896913e-63
1.4138306e-63
6.8980934e-64
1.1962581e-64
2.568517e-66
5.7328236e-70
2.3768072e-80
1.1890628e-82
6.6505931e-72
4.0791422e-68
2.2079318e-66
1.3684101e-65
2.8972699e-65
3.7172283e-65
3.8984028e-65
3.8447248e-65
3.7810399e-65
3.7810106e-65
3.8446435e-65
3.8982729e-65
3.7170894e-65
2.897168e-65
1.3683692e-65
2.2078988e-66
4.0791866e-68
6.650858e-72
1.1891263e-82
5.5477266e-85
7.1930337e-74
6.039517e-70
3.7990732e-68
2.5305653e-67
5.5345404e-67
7.1970015e-67
7.5866922e-67
7.4958724e-67
7.375887e-67
7.3758274e-67
7.4957083e-67
7.5864289e-67
7.1967162e-67
5.5343287e-67
2.5304792e-67
3.7989949e-68
6.0395406e-70
7.193261e-74
5.5479823e-85
)
;

boundaryField
{
    Wall
    {
        type            zeroGradient;
    }
    frontAndBack
    {
        type            empty;
    }
    atmosphere
    {
        type            zeroGradient;
    }
}


// ************************************************************************* //
