/*--------------------------------*- C++ -*----------------------------------*\
| =========                 |                                                 |
| \\      /  F ield         | OpenFOAM: The Open Source CFD Toolbox           |
|  \\    /   O peration     | Version:  3.0.1                                 |
|   \\  /    A nd           | Web:      www.OpenFOAM.org                      |
|    \\/     M anipulation  |                                                 |
\*---------------------------------------------------------------------------*/
FoamFile
{
    version     2.0;
    format      ascii;
    class       volScalarField;
    location    "15";
    object      mTwo;
}
// * * * * * * * * * * * * * * * * * * * * * * * * * * * * * * * * * * * * * //

dimensions      [0 0 0 0 0 0 0];

internalField   nonuniform List<scalar> 
800
(
1.6038184e-12
1.6037947e-12
1.6037633e-12
1.6037449e-12
1.6037312e-12
1.6037202e-12
1.6037119e-12
1.6037059e-12
1.603702e-12
1.6037001e-12
1.6037001e-12
1.603702e-12
1.6037059e-12
1.6037119e-12
1.6037202e-12
1.6037312e-12
1.6037449e-12
1.6037633e-12
1.6037947e-12
1.6038184e-12
1.2893357e-12
1.2965549e-12
1.2972508e-12
1.2974136e-12
1.2975468e-12
1.2976714e-12
1.2977768e-12
1.2978555e-12
1.2979063e-12
1.2979311e-12
1.2979311e-12
1.2979063e-12
1.2978555e-12
1.2977768e-12
1.2976714e-12
1.2975469e-12
1.2974137e-12
1.2972508e-12
1.296555e-12
1.2893357e-12
9.5306267e-13
9.6065191e-13
9.6455218e-13
9.6485315e-13
9.6505613e-13
9.6523568e-13
9.6538077e-13
9.6548659e-13
9.6555437e-13
9.6558744e-13
9.6558744e-13
9.6555436e-13
9.6548656e-13
9.6538075e-13
9.6523568e-13
9.6505613e-13
9.6485317e-13
9.6455222e-13
9.6065194e-13
9.5306263e-13
6.6068085e-13
6.6794428e-13
6.7041691e-13
6.7072386e-13
6.7094365e-13
6.7111826e-13
6.7125035e-13
6.7134243e-13
6.7139996e-13
6.7142761e-13
6.7142761e-13
6.7139994e-13
6.713424e-13
6.7125032e-13
6.7111825e-13
6.7094364e-13
6.7072386e-13
6.7041692e-13
6.6794428e-13
6.606808e-13
4.3208524e-13
4.4018107e-13
4.4157841e-13
4.4189926e-13
4.4211136e-13
4.4226254e-13
4.423642e-13
4.4242958e-13
4.4246838e-13
4.424865e-13
4.4248649e-13
4.4246836e-13
4.4242955e-13
4.4236418e-13
4.4226254e-13
4.4211136e-13
4.4189927e-13
4.4157843e-13
4.4018109e-13
4.3208522e-13
2.2499508e-13
2.339974e-13
2.3488491e-13
2.351988e-13
2.3538037e-13
2.3549089e-13
2.3555622e-13
2.3559184e-13
2.3561185e-13
2.3562077e-13
2.3562077e-13
2.3561183e-13
2.3559182e-13
2.3555621e-13
2.3549089e-13
2.3538038e-13
2.3519881e-13
2.3488493e-13
2.3399742e-13
2.2499507e-13
8.9178385e-14
9.3914241e-14
9.4472157e-14
9.4677587e-14
9.4772188e-14
9.4816217e-14
9.4836556e-14
9.4843395e-14
9.4846428e-14
9.4846426e-14
9.4846425e-14
9.4846422e-14
9.4843388e-14
9.4836554e-14
9.4816222e-14
9.4772201e-14
9.4677607e-14
9.4472178e-14
9.3914268e-14
8.9178398e-14
3.1978299e-14
3.4808443e-14
3.5285246e-14
3.5359749e-14
3.5364235e-14
3.5353636e-14
3.5340933e-14
3.5331538e-14
3.5325043e-14
3.5320433e-14
3.5320432e-14
3.5325039e-14
3.5331532e-14
3.5340933e-14
3.5353643e-14
3.5364248e-14
3.5359768e-14
3.5285262e-14
3.4808464e-14
3.1978313e-14
9.5349583e-15
1.202561e-14
1.2551659e-14
1.2587726e-14
1.2530449e-14
1.2471992e-14
1.2427892e-14
1.2400739e-14
1.2384392e-14
1.2375756e-14
1.2375754e-14
1.2384389e-14
1.2400731e-14
1.2427889e-14
1.2471997e-14
1.2530456e-14
1.2587739e-14
1.2551667e-14
1.2025621e-14
9.5349685e-15
2.0644186e-15
3.7689872e-15
4.2755079e-15
4.3626582e-15
4.3268358e-15
4.2693687e-15
4.2195141e-15
4.1860318e-15
4.1653379e-15
4.1550594e-15
4.155057e-15
4.1653346e-15
4.1860253e-15
4.2195109e-15
4.2693699e-15
4.3268386e-15
4.3626645e-15
4.2755112e-15
3.7689915e-15
2.0644221e-15
3.2166444e-16
1.0414808e-15
1.3639051e-15
1.4560178e-15
1.4543977e-15
1.4249939e-15
1.3937354e-15
1.3707828e-15
1.3559871e-15
1.3486574e-15
1.3486559e-15
1.3559849e-15
1.3707784e-15
1.3937328e-15
1.4249937e-15
1.4543983e-15
1.4560203e-15
1.3639061e-15
1.0414818e-15
3.2166513e-16
3.7940572e-17
2.5254241e-16
4.0299754e-16
4.6276327e-16
4.7226723e-16
4.6220893e-16
4.4796834e-16
4.365646e-16
4.2890739e-16
4.250824e-16
4.2508167e-16
4.2890621e-16
4.3656231e-16
4.4796682e-16
4.6220851e-16
4.7226702e-16
4.6276413e-16
4.0299779e-16
2.5254256e-16
3.7940667e-17
3.6146923e-18
5.4226028e-17
1.1026813e-16
1.3943506e-16
1.4733831e-16
1.4508114e-16
1.3981488e-16
1.3519177e-16
1.3196368e-16
1.3033485e-16
1.3033454e-16
1.3196315e-16
1.3519075e-16
1.3981414e-16
1.4508084e-16
1.4733805e-16
1.3943528e-16
1.1026818e-16
5.4226025e-17
3.6147036e-18
2.9437058e-19
1.0474183e-17
2.809581e-17
3.9849124e-17
4.4071958e-17
4.3952023e-17
4.2291661e-17
4.0669533e-17
3.9491652e-17
3.8891249e-17
3.8891133e-17
3.9491432e-17
4.0669127e-17
4.2291346e-17
4.395187e-17
4.4071801e-17
3.9849164e-17
2.8095823e-17
1.0474177e-17
2.9437191e-19
2.1341148e-20
1.8519432e-18
6.7204822e-18
1.0837328e-17
1.2645118e-17
1.2840553e-17
1.2385908e-17
1.1877101e-17
1.1492114e-17
1.1293847e-17
1.1293807e-17
1.1492032e-17
1.1876956e-17
1.2385787e-17
1.2840486e-17
1.2645046e-17
1.0837328e-17
6.7204857e-18
1.8519416e-18
2.1341298e-20
1.4144376e-21
3.0455197e-19
1.5223791e-18
2.8173075e-18
3.4868629e-18
3.6196021e-18
3.5120647e-18
3.3666756e-18
3.2515677e-18
3.1916409e-18
3.1916282e-18
3.2515394e-18
3.3666272e-18
3.5120217e-18
3.6195759e-18
3.4868353e-18
2.8173034e-18
1.5223804e-18
3.0455172e-19
1.4144525e-21
8.717941e-23
4.7220629e-20
3.2931251e-19
7.0340331e-19
9.2643132e-19
9.8578867e-19
9.6476517e-19
9.265026e-19
8.9458765e-19
8.7777114e-19
8.7776729e-19
8.9457844e-19
9.2648749e-19
9.6475089e-19
9.8577914e-19
9.2642195e-19
7.0340097e-19
3.2931287e-19
4.7220616e-20
8.7180722e-23
5.0541448e-24
6.9830063e-21
6.8524051e-20
1.6940714e-19
2.3779549e-19
2.5980713e-19
2.5697366e-19
2.4765012e-19
2.3936922e-19
2.3494432e-19
2.3494322e-19
2.3936638e-19
2.4764563e-19
2.5696916e-19
2.5980387e-19
2.3779258e-19
1.6940619e-19
6.8524139e-20
6.9830105e-21
5.0542472e-24
2.7786681e-25
9.9477184e-22
1.3801314e-20
3.9503819e-20
5.9107036e-20
6.6365454e-20
6.6428548e-20
6.4324681e-20
6.2301614e-20
6.1202065e-20
6.1201767e-20
6.230078e-20
6.4323401e-20
6.6427198e-20
6.6364396e-20
5.9106188e-20
3.9503498e-20
1.3801328e-20
9.9477324e-22
2.7787417e-25
1.4583251e-26
1.3771991e-22
2.704074e-21
8.9459537e-21
1.4255276e-20
1.645284e-20
1.6678531e-20
1.6241638e-20
1.5774464e-20
1.5515095e-20
1.5515014e-20
1.5774229e-20
1.6241285e-20
1.6678143e-20
1.6452513e-20
1.425504e-20
8.9458559e-21
2.7040743e-21
1.3772019e-22
1.4583725e-26
7.3517287e-28
1.8673187e-23
5.1737507e-22
1.9718556e-21
3.341027e-21
3.9628856e-21
4.0697135e-21
3.987636e-21
3.8854592e-21
3.8271622e-21
3.8271405e-21
3.8853952e-21
3.987542e-21
4.0696065e-21
3.9627901e-21
3.3409638e-21
1.971828e-21
5.1737433e-22
1.8673228e-23
7.3520105e-28
3.5838303e-29
2.4958092e-24
9.6931813e-23
4.2372231e-22
7.6181815e-22
9.2812633e-22
9.6555432e-22
9.5218457e-22
9.3101508e-22
9.1849736e-22
9.184917e-22
9.3099831e-22
9.5216021e-22
9.655258e-22
9.2809979e-22
7.6180162e-22
4.2371502e-22
9.6931457e-23
2.4958131e-24
3.5839839e-29
1.7030541e-30
3.3047463e-25
1.7813733e-23
8.8861025e-23
1.6914382e-22
2.1149269e-22
2.2282276e-22
2.211667e-22
2.1702e-22
2.1444813e-22
2.144467e-22
2.1701575e-22
2.2116054e-22
2.2281541e-22
2.1148564e-22
1.6913959e-22
8.8859197e-23
1.7813617e-23
3.3047468e-25
1.7031319e-30
7.970493e-32
4.3490381e-26
3.2141687e-24
1.8199494e-23
3.6590404e-23
4.6912548e-23
5.0033189e-23
4.9979427e-23
4.9215295e-23
4.8709371e-23
4.8709019e-23
4.9214252e-23
4.9977911e-23
5.0031355e-23
4.6910754e-23
3.658934e-23
1.8199053e-23
3.2141365e-24
4.3490283e-26
7.9708624e-32
3.7217427e-33
5.6961713e-27
5.6955683e-25
3.6416951e-24
7.7160981e-24
1.0133801e-23
1.0935028e-23
1.0991012e-23
1.0859877e-23
1.0764631e-23
1.0764546e-23
1.0859629e-23
1.0990648e-23
1.0934584e-23
1.0133364e-23
7.7158377e-24
3.6415925e-24
5.6954883e-25
5.6961392e-27
3.7219025e-33
1.7604448e-34
7.4237347e-28
9.9108688e-26
7.1212086e-25
1.5868235e-24
2.1326595e-24
2.3270485e-24
2.3528325e-24
2.3323007e-24
2.3151694e-24
2.3151496e-24
2.3322434e-24
2.3527476e-24
2.3269447e-24
2.1325563e-24
1.5867615e-24
7.1209771e-25
9.9106851e-26
7.423662e-28
1.7605068e-34
8.5652314e-36
9.6144322e-29
1.6929563e-26
1.3610876e-25
3.1836639e-25
4.3743819e-25
4.8238631e-25
4.9047324e-25
4.8767578e-25
4.8474232e-25
4.8473784e-25
4.8766288e-25
4.9045395e-25
4.8236269e-25
4.3741474e-25
3.1835203e-25
1.3610366e-25
1.6929165e-26
9.6142932e-29
8.5654271e-36
4.3350727e-37
1.2348606e-29
2.8376281e-27
2.5431289e-26
6.2338903e-26
8.7488084e-26
9.7451557e-26
9.9610327e-26
9.9323854e-26
9.8848713e-26
9.8847727e-26
9.9321033e-26
9.9606073e-26
9.7446353e-26
8.7482926e-26
6.2335681e-26
2.5430198e-26
2.8375463e-27
1.2348361e-29
4.3351032e-37
2.290341e-38
1.5694648e-30
4.6651225e-28
4.6459474e-27
1.1917765e-26
1.7069526e-26
1.9195753e-26
1.9718622e-26
1.9713775e-26
1.9641829e-26
1.9641618e-26
1.9713176e-26
1.971771e-26
1.919464e-26
1.7068427e-26
1.1917064e-26
4.6457199e-27
4.664961e-28
1.5694246e-30
2.2903053e-38
1.2567454e-39
1.96981e-31
7.5200628e-29
8.3002481e-28
2.2254187e-27
3.2504914e-27
3.6887259e-27
3.8068774e-27
3.8152208e-27
3.805269e-27
3.8052255e-27
3.815097e-27
3.8066876e-27
3.6884948e-27
3.2502638e-27
2.2252712e-27
8.2997861e-28
7.5197543e-29
1.9697471e-31
1.2565886e-39
7.0889653e-41
2.4370581e-32
1.1883003e-29
1.450515e-28
4.0606432e-28
6.0444207e-28
6.9190176e-28
7.1718438e-28
7.2037273e-28
7.1918075e-28
7.1917205e-28
7.2034787e-28
7.1714597e-28
6.9185504e-28
6.043963e-28
4.0603425e-28
1.4504237e-28
1.1882432e-29
2.436963e-32
7.082578e-41
4.0711045e-42
2.9679957e-33
1.840425e-30
2.4802017e-29
7.2432776e-29
1.0981636e-28
1.2675247e-28
1.3192247e-28
1.3278368e-28
1.3267986e-28
1.3267816e-28
1.3277882e-28
1.3191492e-28
1.2674329e-28
1.0980739e-28
7.2426839e-29
2.4800259e-29
1.8403221e-30
2.9678559e-33
4.0510394e-42
2.3749654e-43
3.5543301e-34
2.793706e-31
4.1506717e-30
1.2636537e-29
1.9503695e-29
2.2691386e-29
2.3707812e-29
2.39082e-29
2.3908591e-29
2.3908269e-29
2.3907275e-29
2.3706369e-29
2.2689633e-29
1.9501983e-29
1.2635399e-29
4.1503416e-30
2.793525e-31
3.5541296e-34
2.3264419e-43
1.4256857e-44
4.1824071e-35
4.1565664e-32
6.8008064e-31
2.1571064e-30
3.3879303e-30
3.9719643e-30
4.1649164e-30
4.2075318e-30
4.2106736e-30
4.2106142e-30
4.2073602e-30
4.1646479e-30
3.9716379e-30
3.3876121e-30
2.1568945e-30
6.8002029e-31
4.1562554e-32
4.1821242e-35
1.330804e-44
9.1053872e-46
4.8334508e-36
6.0622244e-33
1.0913539e-31
3.6046589e-31
5.7590047e-31
6.8019353e-31
7.1567603e-31
7.2417864e-31
7.2520357e-31
7.251929e-31
7.2414762e-31
7.1562731e-31
6.801343e-31
5.7584268e-31
3.6042746e-31
1.0912462e-31
6.0617022e-33
4.8330597e-36
7.5419516e-46
6.4572853e-47
5.4843763e-37
8.6686086e-34
1.7159012e-32
5.8993419e-32
9.5847121e-32
1.1401973e-31
1.2035639e-31
1.2197052e-31
1.2221789e-31
1.22216e-31
1.2196503e-31
1.2034778e-31
1.1400924e-31
9.5836883e-32
5.898662e-32
1.7157138e-32
8.6677507e-34
5.4838459e-37
4.2198683e-47
5.168036e-48
6.1091435e-38
1.2155784e-34
2.6442505e-33
9.4598736e-33
1.5625979e-32
1.8718831e-32
1.9820022e-32
2.0114082e-32
2.0166189e-32
2.0165861e-32
2.0113135e-32
1.9818535e-32
1.8717015e-32
1.5624206e-32
9.4587003e-33
2.6439314e-33
1.2154407e-34
6.1084393e-38
2.326163e-48
4.5153403e-49
6.6805411e-39
1.672028e-35
3.9954034e-34
1.4869696e-33
2.496685e-33
3.0112862e-33
3.1978133e-33
3.2495149e-33
3.259614e-33
3.2595584e-33
3.2493546e-33
3.1975618e-33
3.0109787e-33
2.4963842e-33
1.4867715e-33
3.9948721e-34
1.6718119e-35
6.6796262e-39
1.2617357e-49
4.0681797e-50
7.1722328e-40
2.2565915e-36
5.9214943e-35
2.292149e-34
3.9114146e-34
4.7491466e-34
5.0575387e-34
5.1456185e-34
5.1640646e-34
5.163972e-34
5.1453534e-34
5.0571223e-34
4.7486359e-34
3.9109146e-34
2.2918211e-34
5.9206282e-35
2.2562598e-36
7.1710696e-40
6.7307107e-51
3.6100962e-51
7.5608519e-41
2.9891092e-37
8.6115159e-36
3.4665105e-35
6.0111303e-35
7.3464414e-35
7.8447104e-35
7.990539e-35
8.0227054e-35
8.0225551e-35
7.9901091e-35
7.8440346e-35
7.3456093e-35
6.0103149e-35
3.4659786e-35
8.6101331e-36
2.9886114e-37
7.5594075e-41
3.5353104e-52
)
;

boundaryField
{
    Wall
    {
        type            zeroGradient;
    }
    frontAndBack
    {
        type            empty;
    }
    atmosphere
    {
        type            zeroGradient;
    }
}


// ************************************************************************* //
