/*--------------------------------*- C++ -*----------------------------------*\
| =========                 |                                                 |
| \\      /  F ield         | OpenFOAM: The Open Source CFD Toolbox           |
|  \\    /   O peration     | Version:  3.0.1                                 |
|   \\  /    A nd           | Web:      www.OpenFOAM.org                      |
|    \\/     M anipulation  |                                                 |
\*---------------------------------------------------------------------------*/
FoamFile
{
    version     2.0;
    format      ascii;
    class       volScalarField;
    location    "15";
    object      mZero;
}
// * * * * * * * * * * * * * * * * * * * * * * * * * * * * * * * * * * * * * //

dimensions      [0 0 0 0 0 0 0];

internalField   nonuniform List<scalar> 
800
(
1e+13
1e+13
1e+13
1e+13
1e+13
1e+13
1e+13
1e+13
1e+13
1e+13
1e+13
1e+13
1e+13
1e+13
1e+13
1e+13
1e+13
1e+13
1e+13
1e+13
1e+13
1e+13
1e+13
1e+13
1e+13
1e+13
1e+13
1e+13
1e+13
1e+13
1e+13
1e+13
1e+13
1e+13
1e+13
1e+13
1e+13
1e+13
1e+13
1e+13
9.2699653e+12
9.2757649e+12
9.2764874e+12
9.2766269e+12
9.2766222e+12
9.2766315e+12
9.2766391e+12
9.2766426e+12
9.2766432e+12
9.2766433e+12
9.2766433e+12
9.2766432e+12
9.2766426e+12
9.2766391e+12
9.2766314e+12
9.2766221e+12
9.2766269e+12
9.2764873e+12
9.2757648e+12
9.2699652e+12
8.0923926e+12
8.1072553e+12
8.1088902e+12
8.1088948e+12
8.1087983e+12
8.1087063e+12
8.1086194e+12
8.1085428e+12
8.1084865e+12
8.1084571e+12
8.1084571e+12
8.1084865e+12
8.1085429e+12
8.1086195e+12
8.1087065e+12
8.1087985e+12
8.1088951e+12
8.1088905e+12
8.1072556e+12
8.0923928e+12
6.6482242e+12
6.6821787e+12
6.6855807e+12
6.6856944e+12
6.6854206e+12
6.6850902e+12
6.6847607e+12
6.6844853e+12
6.6842927e+12
6.6841943e+12
6.6841944e+12
6.6842929e+12
6.6844856e+12
6.6847611e+12
6.6850908e+12
6.6854213e+12
6.6856952e+12
6.6855815e+12
6.6821796e+12
6.6482251e+12
5.0951497e+12
5.1685505e+12
5.180119e+12
5.1820821e+12
5.1818702e+12
5.1811297e+12
5.180422e+12
5.1797718e+12
5.1793508e+12
5.1791343e+12
5.1791344e+12
5.1793511e+12
5.1797723e+12
5.1804227e+12
5.1811307e+12
5.1818713e+12
5.1820834e+12
5.1801204e+12
5.1685519e+12
5.0951514e+12
3.4922824e+12
3.6325142e+12
3.6682723e+12
3.6761825e+12
3.6766536e+12
3.6752642e+12
3.6739274e+12
3.6728069e+12
3.6720897e+12
3.6716669e+12
3.671667e+12
3.6720898e+12
3.6728073e+12
3.6739282e+12
3.6752652e+12
3.676655e+12
3.6761843e+12
3.668274e+12
3.632516e+12
3.4922849e+12
1.9865046e+12
2.2014712e+12
2.2782646e+12
2.2975821e+12
2.2992238e+12
2.296702e+12
2.2938985e+12
2.2921548e+12
2.2909596e+12
2.2902309e+12
2.2902307e+12
2.2909595e+12
2.2921544e+12
2.2938988e+12
2.2967026e+12
2.2992248e+12
2.297584e+12
2.2782656e+12
2.2014729e+12
1.9865073e+12
8.6281028e+11
1.154915e+12
1.2668524e+12
1.2997552e+12
1.3028479e+12
1.2980016e+12
1.2924025e+12
1.2889027e+12
1.2866004e+12
1.2853557e+12
1.2853552e+12
1.2865999e+12
1.2889013e+12
1.2924019e+12
1.2980017e+12
1.3028481e+12
1.2997563e+12
1.2668525e+12
1.1549159e+12
8.628123e+11
2.5670107e+11
5.247619e+11
6.4244487e+11
6.8335544e+11
6.8956926e+11
6.842995e+11
6.7707203e+11
6.7199165e+11
6.6863947e+11
6.669357e+11
6.6693508e+11
6.6863875e+11
6.7198985e+11
6.7707091e+11
6.8429906e+11
6.8956871e+11
6.833557e+11
6.4244437e+11
5.2476195e+11
2.5670196e+11
5.254044e+10
2.0559868e+11
2.9704922e+11
3.3540568e+11
3.4420041e+11
3.4117921e+11
3.3525162e+11
3.3056396e+11
3.2737604e+11
3.2577541e+11
3.257749e+11
3.2737529e+11
3.3056235e+11
3.3525043e+11
3.4117852e+11
3.4419951e+11
3.3540538e+11
2.9704858e+11
2.0559833e+11
5.2540665e+10
7.8822178e+09
6.989207e+10
1.2558646e+11
1.5383783e+11
1.6231794e+11
1.615387e+11
1.5795954e+11
1.5476648e+11
1.5251585e+11
1.5138291e+11
1.5138258e+11
1.5251524e+11
1.5476533e+11
1.5795858e+11
1.6153805e+11
1.6231707e+11
1.5383737e+11
1.2558596e+11
6.9891743e+10
7.8822555e+09
9.358224e+08
2.0951676e+10
4.8895691e+10
6.609379e+10
7.235555e+10
7.2683868e+10
7.096132e+10
6.9197223e+10
6.7906091e+10
6.7251537e+10
6.7251351e+10
6.7905686e+10
6.9196537e+10
7.096068e+10
7.2683384e+10
7.2354927e+10
6.6093393e+10
4.8895386e+10
2.0951499e+10
9.3582701e+08
94069631
5.6640912e+09
1.768762e+10
2.6691749e+10
3.051427e+10
3.1078734e+10
3.039829e+10
2.9565982e+10
2.8931396e+10
2.8606701e+10
2.8606609e+10
2.8931161e+10
2.9565615e+10
3.0397917e+10
3.1078427e+10
3.05139e+10
2.6691491e+10
1.7687467e+10
5.6640198e+09
94070071
8431889.9
1.4131624e+09
5.9976492e+09
1.0170898e+10
1.2190523e+10
1.2630293e+10
1.24129e+10
1.2067882e+10
1.1792104e+10
1.1649378e+10
1.1649335e+10
1.1791982e+10
1.2067703e+10
1.2412706e+10
1.263012e+10
1.2190334e+10
1.0170759e+10
5.9975809e+09
1.4131389e+09
8431920.7
700974.25
3.3177634e+08
1.9209807e+09
3.669876e+09
4.620611e+09
4.88078e+09
4.8303796e+09
4.7027929e+09
4.5947329e+09
4.5379998e+09
4.5379806e+09
4.5946763e+09
4.7027117e+09
4.8302865e+09
4.8806925e+09
4.6205247e+09
3.6698107e+09
1.9209533e+09
3.3176954e+08
700974.87
55799.954
74332330
5.84588e+08
1.2577063e+09
1.6643387e+09
1.7948016e+09
1.7913817e+09
1.7490288e+09
1.7103726e+09
1.6897012e+09
1.689693e+09
1.7103483e+09
1.7489943e+09
1.7913407e+09
1.794761e+09
1.6643027e+09
1.2576789e+09
5.8457783e+08
74330552
55799.704
4370.0183
16031654
1.697338e+08
4.1042559e+08
5.7063401e+08
6.2865931e+08
6.3336543e+08
6.2077116e+08
6.0804521e+08
6.0107618e+08
6.0107295e+08
6.0803546e+08
6.2075727e+08
6.3334851e+08
6.2864196e+08
5.7062e+08
4.1041504e+08
1.6973031e+08
16031222
4369.9607
343.97978
3343563.1
47151687
1.2779533e+08
1.8652797e+08
2.0997954e+08
2.136365e+08
2.1032806e+08
2.0645398e+08
2.0426572e+08
2.0426451e+08
2.0645031e+08
2.1032277e+08
2.1362997e+08
2.0997267e+08
1.8652279e+08
1.2779158e+08
47150556
3343462.4
343.9714
27.558586
675474.45
12556329
38035060
58221704
66964753
68811475
68073613
66980671
66337746
66337308
66979359
68071703
68809103
66962221
58219869
38033809
12555985
675452.01
27.557558
2.2517648
132202.16
3209702.7
10837329
17380204
20417810
21188931
21066021
20780447
20603143
20602992
20780003
21065366
21188116
20416935
17379582
10836933
3209602.9
132197.34
2.2516522
0.18639618
25054.618
788485.54
2960494.5
4969581.8
5960473.9
6245723.4
6240318.3
6171507.6
6125525.9
6125476.6
6171364.3
6240104.8
6245457.7
5960189.6
4969379.7
2960375.7
788458.08
25053.621
0.18638477
0.015465198
4595.3275
186336.99
776463.23
1363128.3
1668377.8
1764764.1
1771796.5
1756668.1
1745447.9
1745432.6
1756624
1771730.2
1764681.7
1668290.2
1363065.5
776429.14
186329.79
4595.1283
0.015464114
0.0012726855
815.40246
42405.765
195789.34
359212.16
448425.61
478683.34
482842.62
479879.6
477305.9
477301.41
479866.64
482822.97
478658.95
448399.95
359193.48
195779.94
42403.958
815.36407
0.0012725879
0.00010303591
139.96728
9303.0037
47528.528
91073.802
115906.29
124825.32
126474.54
125987.85
125434.64
125433.37
125984.21
126468.97
124818.42
115899.11
91068.507
47526.033
9302.5686
139.96015
0.00010302746
8.1616257e-06
23.247257
1969.4982
11122.195
22247.29
28851.744
31338.655
31888.297
31834.515
31723.825
31723.48
31833.53
31886.785
31336.787
28849.815
22245.855
11121.556
1969.3974
23.24598
8.1609235e-06
6.3046194e-07
3.7376356
402.80022
2512.2126
5243.1762
6926.2295
7585.7527
7750.1024
7752.7648
7732.4214
7732.3318
7752.509
7749.7086
7585.267
6925.7324
5242.804
2512.0544
402.77774
3.7374153
6.3040567e-07
4.7411195e-08
0.58205489
79.669799
548.3951
1193.7556
1605.7267
1772.784
1818.1635
1822.2427
1818.905
1818.8825
1822.1788
1818.0649
1772.6627
1605.6033
1193.663
548.35728
79.66495
0.58201807
4.7406833e-08
3.4683962e-09
0.087858412
15.255664
115.83078
262.89724
359.96668
400.52232
412.276
413.93293
413.47843
413.47303
413.91757
412.25223
400.49314
359.93717
262.87509
115.82203
15.254651
0.087852446
3.4680319e-09
2.4683337e-10
0.012864605
2.8311064
23.699995
56.069623
78.128433
87.591255
90.475022
90.988672
90.950451
90.949203
90.98511
90.469495
87.584481
78.121607
56.064513
23.69804
2.8309009
0.012863664
2.4677257e-10
1.7104289e-11
0.0018287777
0.50969534
4.7026766
11.594092
16.437113
18.564388
19.239088
19.378135
19.382126
19.381848
19.377337
19.237846
18.562867
16.435586
11.592955
4.7022533
0.5096548
0.0018286327
1.7084138e-11
1.1574807e-12
0.00025260425
0.089108973
0.90588046
2.3269408
3.3558198
3.8175281
3.9687911
4.0032347
4.0063732
4.0063133
4.0030621
3.9685215
3.8171981
3.3554889
2.3266961
0.90579163
0.089101185
0.00025258235
1.1512654e-12
7.7079802e-14
3.3931149e-05
0.015142557
0.16957424
0.453755
0.66556341
0.76249156
0.79510814
0.80309149
0.80415011
0.80413759
0.80305529
0.79505148
0.76242215
0.66549386
0.45370401
0.16955614
0.015141098
3.3927906e-05
7.5561298e-14
5.1351078e-15
4.4360045e-06
0.0025034433
0.030876267
0.086053775
0.12836126
0.14807542
0.15485979
0.15661315
0.15689704
0.15689451
0.15660579
0.15484824
0.14806125
0.12834708
0.086043458
0.030872689
0.0025031763
4.4355315e-06
4.8333371e-15
3.5216599e-16
5.6489694e-07
0.0004030079
0.0054734073
0.015886694
0.02409598
0.027986302
0.029350875
0.029718709
0.029786212
0.029785714
0.029717254
0.029348588
0.027983495
0.024093165
0.015884666
0.0054727186
0.00040296024
5.6482915e-07
3.0151734e-16
2.5749003e-17
7.0124164e-08
6.3224625e-05
0.00094543367
0.0028575506
0.0044066747
0.0051525128
0.0054184507
0.005492569
0.0055073885
0.0055072924
0.0054922888
0.0054180107
0.0051519715
0.0044061316
0.0028571622
0.00094530474
6.321631e-05
7.0114618e-08
1.8356571e-17
2.0497618e-18
8.4920551e-09
9.6738367e-06
0.00015925693
0.00050120209
0.00078578157
0.00092486499
0.00097517031
0.00098957279
0.00099263672
0.00099261862
0.00098952029
0.00097508781
0.00092476329
0.00078567951
0.00050112968
0.00015923338
9.6724215e-06
8.490737e-09
1.0913862e-18
1.7543196e-19
1.0039618e-09
1.4447009e-06
2.6181556e-05
8.5789367e-05
0.00013673072
0.00016198604
0.00017123624
0.00017394348
0.00017454688
0.00017454355
0.00017393387
0.00017122115
0.0001619674
0.000136712
8.5776183e-05
2.6177359e-05
1.4444658e-06
1.0037835e-09
6.3410331e-20
1.5534745e-20
1.1595268e-10
2.1073449e-07
4.2037978e-06
1.4341061e-05
2.3234554e-05
2.7704613e-05
2.9360262e-05
2.9853717e-05
2.9967732e-05
2.9967136e-05
2.9852002e-05
2.9357565e-05
2.7701275e-05
2.3231198e-05
1.4338715e-05
4.2030671e-06
2.1069636e-07
1.1592907e-10
3.6030939e-21
1.3681375e-21
1.3091577e-11
3.0044851e-08
6.5969278e-07
2.3429637e-06
3.8585123e-06
4.630408e-06
4.9191942e-06
5.0065855e-06
5.0273592e-06
5.027255e-06
5.0062864e-06
4.9187234e-06
4.6298228e-06
3.8579242e-06
2.3425557e-06
6.5956853e-07
3.0038814e-08
1.3088523e-11
2.0058058e-22
)
;

boundaryField
{
    Wall
    {
        type            zeroGradient;
    }
    frontAndBack
    {
        type            empty;
    }
    atmosphere
    {
        type            zeroGradient;
    }
}


// ************************************************************************* //
