/*--------------------------------*- C++ -*----------------------------------*\
| =========                 |                                                 |
| \\      /  F ield         | OpenFOAM: The Open Source CFD Toolbox           |
|  \\    /   O peration     | Version:  3.0.1                                 |
|   \\  /    A nd           | Web:      www.OpenFOAM.org                      |
|    \\/     M anipulation  |                                                 |
\*---------------------------------------------------------------------------*/
FoamFile
{
    version     2.0;
    format      ascii;
    class       surfaceScalarField;
    location    "15";
    object      phi;
}
// * * * * * * * * * * * * * * * * * * * * * * * * * * * * * * * * * * * * * //

dimensions      [0 3 -1 0 0 0 0];

internalField   nonuniform List<scalar> 
1540
(
2.2752771e-10
2.4256822e-08
2.103003e-10
2.4522188e-08
1.8250805e-10
2.45357e-08
1.5270953e-10
2.4538563e-08
1.2964062e-10
2.4532881e-08
1.0752372e-10
2.4532637e-08
8.3627895e-11
2.4534885e-08
5.7367036e-11
2.4537549e-08
2.9200279e-11
2.4539628e-08
1.3718756e-14
2.4540726e-08
-2.9175318e-11
2.4540725e-08
-5.7347037e-11
2.4539624e-08
-8.361258e-11
2.4537544e-08
-1.0750903e-10
2.453488e-08
-1.2962126e-10
2.4532632e-08
-1.5268314e-10
2.4532877e-08
-1.8247807e-10
2.4538558e-08
-2.1027849e-10
2.4535693e-08
-2.27528e-10
2.4522175e-08
2.4256801e-08
1.0920123e-10
4.9362933e-08
1.1994426e-10
4.9671571e-08
1.2601725e-10
4.971858e-08
1.2006889e-10
4.973149e-08
1.0970233e-10
4.9728219e-08
9.4382228e-11
4.9731363e-08
7.4831128e-11
4.9736646e-08
5.1860928e-11
4.9741853e-08
2.6541883e-11
4.974571e-08
9.2721804e-15
4.9747738e-08
-2.6524848e-11
4.9747736e-08
-5.1847571e-11
4.9745704e-08
-7.482065e-11
4.9741845e-08
-9.4371174e-11
4.9736637e-08
-1.0968703e-10
4.9731353e-08
-1.2004818e-10
4.9728208e-08
-1.2599483e-10
4.9731477e-08
-1.1993034e-10
4.9718561e-08
-1.0920754e-10
4.9671545e-08
4.9362893e-08
1.0469485e-10
7.788968e-08
8.5319172e-11
7.8269627e-08
8.9845688e-11
7.8326301e-08
1.0098967e-10
7.8329388e-08
9.9668013e-11
7.833433e-08
8.9246342e-11
7.8343379e-08
7.2053534e-11
7.8353102e-08
5.0269081e-11
7.8361275e-08
2.5769301e-11
7.8366833e-08
6.1103106e-15
7.8369631e-08
-2.5758069e-11
7.8369629e-08
-5.0259908e-11
7.8366827e-08
-7.2045769e-11
7.8361266e-08
-8.9237295e-11
7.835309e-08
-9.9655513e-11
7.8343366e-08
-1.0097374e-10
7.8334314e-08
-8.9830574e-11
7.8329369e-08
-8.5312715e-11
7.8326276e-08
-1.0470459e-10
7.8269595e-08
7.7889638e-08
2.2523784e-11
1.0284764e-07
1.8866297e-11
1.033318e-07
6.9043205e-11
1.0344232e-07
9.9476257e-11
1.0346345e-07
1.060787e-10
1.0348815e-07
9.6691127e-11
1.0351014e-07
7.8010956e-11
1.0352697e-07
5.412207e-11
1.0353889e-07
2.7626931e-11
1.0354617e-07
3.8149921e-15
1.0354967e-07
-2.7619883e-11
1.0354967e-07
-5.4115734e-11
1.0354616e-07
-7.8004695e-11
1.0353888e-07
-9.6683467e-11
1.0352696e-07
-1.0606856e-10
1.0351013e-07
-9.9465317e-11
1.0348813e-07
-6.9034844e-11
1.0346343e-07
-1.8866132e-11
1.0344229e-07
-2.2534984e-11
1.0333177e-07
1.0284761e-07
-4.9414445e-11
1.2581571e-07
8.0361397e-12
1.2617095e-07
1.0096423e-10
1.2631312e-07
1.4119639e-10
1.2638481e-07
1.4358554e-10
1.2644624e-07
1.2532837e-10
1.2648914e-07
9.783098e-11
1.265164e-07
6.6344062e-11
1.2653341e-07
3.3484913e-11
1.2654298e-07
1.8239034e-15
1.2654763e-07
-3.3481207e-11
1.2654763e-07
-6.6339928e-11
1.2654297e-07
-9.7825595e-11
1.2653339e-07
-1.2532149e-10
1.2651638e-07
-1.4357735e-10
1.2648912e-07
-1.4118874e-10
1.2644621e-07
-1.0095941e-10
1.2638479e-07
-8.0378355e-12
1.2631309e-07
4.9404464e-11
1.2617092e-07
1.2581568e-07
-3.0792956e-12
1.4910405e-07
1.4284813e-10
1.501239e-07
2.6249358e-10
1.5048004e-07
2.7412423e-10
1.5067346e-07
2.418158e-10
1.5076861e-07
1.9365824e-10
1.5081208e-07
1.4372873e-10
1.5082907e-07
9.4254621e-11
1.5083552e-07
4.6567084e-11
1.5083706e-07
-1.3777365e-15
1.5083703e-07
-4.6568771e-11
1.5083702e-07
-9.4254696e-11
1.5083705e-07
-1.4372577e-10
1.5083551e-07
-1.9365296e-10
1.5082906e-07
-2.4180906e-10
1.5081207e-07
-2.7411987e-10
1.507686e-07
-2.6249154e-10
1.5067345e-07
-1.4284877e-10
1.5048003e-07
3.0731873e-12
1.501239e-07
1.4910405e-07
1.6730429e-09
1.4602402e-07
1.3368664e-09
1.4953985e-07
9.241784e-10
1.5005988e-07
6.5978002e-10
1.5011043e-07
4.7914145e-10
1.5011266e-07
3.4513019e-10
1.5009804e-07
2.4105936e-10
1.5007584e-07
1.5272828e-10
1.5005936e-07
7.4041801e-11
1.5004673e-07
-3.6306115e-15
1.500396e-07
-7.4046633e-11
1.500396e-07
-1.5273001e-10
1.5004672e-07
-2.4105443e-10
1.5005934e-07
-3.4512071e-10
1.5007583e-07
-4.7913385e-10
1.5009804e-07
-6.5977611e-10
1.5011267e-07
-9.2417414e-10
1.5011043e-07
-1.3368631e-09
1.5005988e-07
-1.6730437e-09
1.4953986e-07
1.4602404e-07
1.1003113e-08
1.3388184e-07
8.5347133e-09
1.507255e-07
5.7546355e-09
1.515444e-07
3.8430267e-09
1.5072354e-07
2.6083055e-09
1.500487e-07
1.7824874e-09
1.4962627e-07
1.1919851e-09
1.4936994e-07
7.3597896e-10
1.4922025e-07
3.5141294e-10
1.4913702e-07
-1.8788892e-14
1.4909721e-07
-3.5144667e-10
1.490972e-07
-7.3600224e-10
1.49137e-07
-1.1919923e-09
1.4922022e-07
-1.782484e-09
1.4936991e-07
-2.6082988e-09
1.4962626e-07
-3.8430199e-09
1.500487e-07
-5.7546265e-09
1.5072354e-07
-8.5346974e-09
1.515444e-07
-1.1003096e-08
1.5072551e-07
1.338819e-07
2.8917275e-08
1.049269e-07
3.1313509e-08
1.4827577e-07
2.6319873e-08
1.5648282e-07
2.0273641e-08
1.5671493e-07
1.4976553e-08
1.5529135e-07
1.0718855e-08
1.5382978e-07
7.3377945e-09
1.5269706e-07
4.5776348e-09
1.519266e-07
2.199044e-09
1.5146191e-07
-8.5589675e-14
1.512427e-07
-2.1992033e-09
1.5124267e-07
-4.5777927e-09
1.5146187e-07
-7.3379066e-09
1.5192652e-07
-1.0718956e-08
1.5269698e-07
-1.4976594e-08
1.5382972e-07
-2.0273682e-08
1.5529132e-07
-2.6319924e-08
1.5671491e-07
-3.1313541e-08
1.5648281e-07
-2.8917291e-08
1.482758e-07
1.0492694e-07
2.3390252e-08
8.1536626e-08
3.2896346e-08
1.3876949e-07
3.2459097e-08
1.5691983e-07
2.7843754e-08
1.6133006e-07
2.2129205e-08
1.6100571e-07
1.6630529e-08
1.5932824e-07
1.1749848e-08
1.5757756e-07
7.4734165e-09
1.5620285e-07
3.6284443e-09
1.5530671e-07
-1.3568947e-13
1.5487109e-07
-3.6287047e-09
1.5487104e-07
-7.4736688e-09
1.553066e-07
-1.1750033e-08
1.562027e-07
-1.6630692e-08
1.5757741e-07
-2.2129313e-08
1.5932813e-07
-2.7843839e-08
1.6100562e-07
-3.2459178e-08
1.6133001e-07
-3.2896402e-08
1.569198e-07
-2.3390275e-08
1.3876946e-07
8.1536631e-08
1.5097719e-08
6.6438994e-08
2.5640986e-08
1.282263e-07
2.8615267e-08
1.5394565e-07
2.6766447e-08
1.6317901e-07
2.264054e-08
1.6513169e-07
1.7792458e-08
1.6417639e-07
1.2968408e-08
1.624017e-07
8.4178158e-09
1.6075354e-07
4.133792e-09
1.5959084e-07
-1.2258757e-13
1.5900505e-07
-4.1340262e-09
1.59005e-07
-8.4180381e-09
1.595907e-07
-1.2968594e-08
1.6075334e-07
-1.7792638e-08
1.6240152e-07
-2.2640643e-08
1.6417623e-07
-2.6766503e-08
1.6513157e-07
-2.861532e-08
1.6317893e-07
-2.5641047e-08
1.5394558e-07
-1.5097704e-08
1.2822625e-07
6.6438941e-08
9.0274686e-09
5.7411591e-08
1.7825764e-08
1.1942809e-07
2.1979476e-08
1.4979201e-07
2.2097565e-08
1.6306097e-07
1.972879e-08
1.6750052e-07
1.6145353e-08
1.6775992e-07
1.2120209e-08
1.6642695e-07
8.0261507e-09
1.6484769e-07
3.9872909e-09
1.6362975e-07
-6.8729752e-14
1.6299246e-07
-3.9873974e-09
1.6299242e-07
-8.0262655e-09
1.6362962e-07
-1.2120317e-08
1.6484748e-07
-1.6145455e-08
1.6642672e-07
-1.9728842e-08
1.6775971e-07
-2.209759e-08
1.6750041e-07
-2.1979468e-08
1.6306088e-07
-1.7825771e-08
1.4979192e-07
-9.0274374e-09
1.19428e-07
5.7411553e-08
5.2079774e-09
5.2203687e-08
1.1691344e-08
1.1294479e-07
1.5680483e-08
1.4580292e-07
1.6766558e-08
1.6197497e-07
1.5694758e-08
1.6857241e-07
1.3322142e-08
1.7013257e-07
1.0277932e-08
1.694712e-07
6.9361515e-09
1.6818953e-07
3.4841673e-09
1.6708183e-07
9.8324208e-15
1.6647667e-07
-3.4841523e-09
1.6647662e-07
-6.9361327e-09
1.6708168e-07
-1.0277903e-08
1.6818929e-07
-1.3322134e-08
1.6947098e-07
-1.569472e-08
1.7013238e-07
-1.6766508e-08
1.6857224e-07
-1.5680403e-08
1.6197486e-07
-1.1691302e-08
1.4580287e-07
-5.2079257e-09
1.1294474e-07
5.2203636e-08
2.9881072e-09
4.9215629e-08
7.4518738e-09
1.0848103e-07
1.0722108e-08
1.4253269e-07
1.2085974e-08
1.6061114e-07
1.1793686e-08
1.6886469e-07
1.034491e-08
1.7158138e-07
8.1829723e-09
1.7163316e-07
5.6199729e-09
1.7075257e-07
2.8522735e-09
1.6984954e-07
8.5236082e-14
1.6932891e-07
-2.8521392e-09
1.6932884e-07
-5.619829e-09
1.6984939e-07
-8.1828396e-09
1.7075234e-07
-1.0344804e-08
1.7163292e-07
-1.1793595e-08
1.7158117e-07
-1.2085854e-08
1.6886454e-07
-1.0722023e-08
1.6061106e-07
-7.4517872e-09
1.4253267e-07
-2.9880613e-09
1.0848101e-07
4.9215577e-08
1.7403043e-09
4.74753e-08
4.7049133e-09
1.0551638e-07
7.1644504e-09
1.4007312e-07
8.4434096e-09
1.5933218e-07
8.5431337e-09
1.6876496e-07
7.7157516e-09
1.7240872e-07
6.2424358e-09
1.7310645e-07
4.3561706e-09
1.7263879e-07
2.2318632e-09
1.719738e-07
1.2074723e-13
1.7156061e-07
-2.2316298e-09
1.7156055e-07
-4.3559689e-09
1.7197367e-07
-6.2422586e-09
1.726386e-07
-7.7155828e-09
1.7310623e-07
-8.5429914e-09
1.7240854e-07
-8.4432617e-09
1.6876483e-07
-7.164324e-09
1.5933214e-07
-4.7048424e-09
1.4007316e-07
-1.7402808e-09
1.0551642e-07
4.7475275e-08
1.0368835e-09
4.6438352e-08
2.974547e-09
1.0357866e-07
4.7357352e-09
1.3831189e-07
5.7912344e-09
1.5827662e-07
6.0449247e-09
1.6851118e-07
5.6012198e-09
1.7285237e-07
4.6233122e-09
1.7408434e-07
3.2726643e-09
1.7398939e-07
1.6910519e-09
1.7355536e-07
1.3380596e-13
1.7325146e-07
-1.6907807e-09
1.7325142e-07
-3.2724115e-09
1.7355526e-07
-4.6231005e-09
1.7398922e-07
-5.6010332e-09
1.7408414e-07
-6.0447385e-09
1.7285221e-07
-5.7910815e-09
1.685111e-07
-4.7355966e-09
1.5827665e-07
-2.9744689e-09
1.3831201e-07
-1.0368736e-09
1.0357879e-07
4.6438375e-08
6.319979e-10
4.5806298e-08
1.8927368e-09
1.0231789e-07
3.1195594e-09
1.3708501e-07
3.9323502e-09
1.5746379e-07
4.2144603e-09
1.6822898e-07
3.9926394e-09
1.7307413e-07
3.3537046e-09
1.7472319e-07
2.4039133e-09
1.7493911e-07
1.2515007e-09
1.7470771e-07
1.4023822e-13
1.7450277e-07
-1.2512449e-09
1.7450274e-07
-2.4036699e-09
1.7470762e-07
-3.3535088e-09
1.7493896e-07
-3.9924386e-09
1.7472303e-07
-4.2142807e-09
1.7307401e-07
-3.9321878e-09
1.6822894e-07
-3.119426e-09
1.5746382e-07
-1.8926724e-09
1.3708518e-07
-6.3199233e-10
1.0231806e-07
4.5806358e-08
3.9274701e-10
4.5413495e-08
1.2141496e-09
1.0149639e-07
2.056074e-09
1.3624303e-07
2.6568412e-09
1.5686292e-07
2.9113135e-09
1.6797441e-07
2.8107569e-09
1.7317462e-07
2.3967548e-09
1.7513709e-07
1.7367555e-09
1.7559905e-07
9.1008926e-10
1.755343e-07
1.366116e-13
1.7541269e-07
-9.098781e-10
1.7541268e-07
-1.7365273e-09
1.7553423e-07
-2.3965716e-09
1.7559894e-07
-2.8105556e-09
1.7513697e-07
-2.9111331e-09
1.7317454e-07
-2.6567047e-09
1.6797441e-07
-2.0559531e-09
1.5686305e-07
-1.2140987e-09
1.3624325e-07
-3.9271507e-10
1.0149664e-07
4.541362e-08
2.4759603e-10
4.5165824e-08
7.8485617e-10
1.0095909e-07
1.358245e-09
1.3566956e-07
1.7911809e-09
1.564299e-07
1.9994578e-09
1.6776604e-07
1.9615262e-09
1.7321248e-07
1.6942389e-09
1.7540432e-07
1.2391385e-09
1.7605407e-07
6.5300769e-10
1.7612036e-07
9.7339371e-14
1.7606551e-07
-6.5280831e-10
1.7606551e-07
-1.2389589e-09
1.7612031e-07
-1.6940726e-09
1.7605397e-07
-1.9613844e-09
1.7540423e-07
-1.9993329e-09
1.7321242e-07
-1.7910686e-09
1.6776609e-07
-1.3581647e-09
1.5643008e-07
-7.8478375e-10
1.3566985e-07
-2.4760999e-10
1.0095937e-07
4.5165979e-08
1.5762124e-10
4.5008135e-08
5.1049496e-10
1.0060614e-07
8.9958981e-10
1.3528041e-07
1.2066146e-09
1.5612283e-07
1.3680039e-09
1.6760459e-07
1.3602527e-09
1.7322012e-07
1.1877212e-09
1.7557679e-07
8.7558008e-10
1.7636615e-07
4.6363843e-10
1.7653229e-07
8.0032548e-14
1.7652902e-07
-4.6347808e-10
1.7652901e-07
-8.7543272e-10
1.7653223e-07
-1.1876086e-09
1.7636608e-07
-1.3601646e-09
1.7557673e-07
-1.3678974e-09
1.7322011e-07
-1.20656e-09
1.6760465e-07
-8.9953116e-10
1.5612304e-07
-5.1045974e-10
1.3528072e-07
-1.5762116e-10
1.0060647e-07
4.5008338e-08
1.0089673e-10
4.490721e-08
3.334991e-10
1.0037346e-07
5.9711448e-10
1.3501676e-07
8.1254941e-10
1.5590737e-07
9.3341233e-10
1.6748367e-07
9.3875081e-10
1.7321472e-07
8.272488e-10
1.7568826e-07
6.1395153e-10
1.765794e-07
3.2640947e-10
1.7681977e-07
5.0634055e-14
1.7685532e-07
-3.2629394e-10
1.7685531e-07
-6.1383302e-10
1.7681973e-07
-8.2715385e-10
1.7657935e-07
-9.386888e-10
1.7568818e-07
-9.3335624e-10
1.7321472e-07
-8.1251016e-10
1.6748377e-07
-5.9709673e-10
1.5590759e-07
-3.3348953e-10
1.350171e-07
-1.0090201e-10
1.0037383e-07
4.4907404e-08
6.4712994e-11
4.4842469e-08
2.1845152e-10
1.0021969e-07
3.969221e-10
1.3483826e-07
5.4698542e-10
1.5575722e-07
6.354741e-10
1.6739515e-07
6.4536002e-10
1.7320479e-07
5.7313768e-10
1.7576041e-07
4.2779653e-10
1.7672471e-07
2.2820925e-10
1.7701928e-07
4.2440881e-14
1.7708346e-07
-2.2815325e-10
1.7708345e-07
-4.2772831e-10
1.7701925e-07
-5.7310074e-10
1.7672467e-07
-6.4529759e-10
1.7576036e-07
-6.3544711e-10
1.7320479e-07
-5.4695901e-10
1.6739525e-07
-3.9687921e-10
1.5575744e-07
-2.1844146e-10
1.3483859e-07
-6.4725e-11
1.0022003e-07
4.4842675e-08
4.1469235e-11
4.4800971e-08
1.4323577e-10
1.001179e-07
2.6397911e-10
1.3471751e-07
3.6798622e-10
1.5565318e-07
4.317564e-10
1.6733134e-07
4.4216525e-10
1.7319436e-07
3.9531974e-10
1.7580719e-07
2.9648774e-10
1.768235e-07
1.5864007e-10
1.7715711e-07
1.4829001e-14
1.7724209e-07
-1.5859115e-10
1.7724207e-07
-2.964806e-10
1.7715707e-07
-3.9531439e-10
1.7682347e-07
-4.4212457e-10
1.7580716e-07
-4.3172823e-10
1.7319439e-07
-3.6796802e-10
1.6733142e-07
-2.6392758e-10
1.556534e-07
-1.4320262e-10
1.3471783e-07
-4.1456518e-11
1.0011826e-07
4.480118e-08
2.647543e-11
4.4774457e-08
9.3870346e-11
1.0005054e-07
1.7545683e-10
1.3463586e-07
2.4728906e-10
1.5558133e-07
2.9275847e-10
1.6728586e-07
3.0205216e-10
1.7318508e-07
2.7160608e-10
1.7583758e-07
2.0457958e-10
1.7689052e-07
1.0972939e-10
1.7725193e-07
-1.1535227e-14
1.7735182e-07
-1.0974091e-10
1.773518e-07
-2.045735e-10
1.7725191e-07
-2.716266e-10
1.7689047e-07
-3.0201912e-10
1.7583754e-07
-2.9276162e-10
1.7318508e-07
-2.4727488e-10
1.6728594e-07
-1.7544525e-10
1.5558153e-07
-9.3835842e-11
1.3463618e-07
-2.6488427e-11
1.0005088e-07
4.4774658e-08
1.683395e-11
4.4757628e-08
6.1387903e-11
1.0000595e-07
1.1649741e-10
1.3458069e-07
1.6595094e-10
1.5553191e-07
1.9809871e-10
1.672537e-07
2.0571913e-10
1.7317744e-07
1.8596066e-10
1.7585732e-07
1.4057439e-10
1.7693592e-07
7.5585076e-11
1.7731693e-07
-3.5798879e-15
1.774274e-07
-7.5598873e-11
1.7742736e-07
-1.4060271e-10
1.7731689e-07
-1.8598973e-10
1.7693584e-07
-2.0573371e-10
1.7585728e-07
-1.9808015e-10
1.731774e-07
-1.6592204e-10
1.6725375e-07
-1.1647709e-10
1.5553207e-07
-6.1345361e-11
1.3458103e-07
-1.6827776e-11
1.000063e-07
4.4757831e-08
1.0587304e-11
4.4747036e-08
4.0026672e-11
9.9976515e-08
7.720188e-11
1.3454353e-07
1.1112795e-10
1.5549798e-07
1.3370917e-10
1.6723111e-07
1.3972866e-10
1.7317142e-07
1.2691286e-10
1.7587015e-07
9.6240743e-11
1.7696654e-07
5.1837613e-11
1.7736135e-07
-2.5838053e-14
1.7747924e-07
-5.1898517e-11
1.7747923e-07
-9.6291431e-11
1.773613e-07
-1.2692988e-10
1.7696646e-07
-1.3975029e-10
1.7587007e-07
-1.3371315e-10
1.7317137e-07
-1.1111846e-10
1.6723113e-07
-7.7174787e-11
1.5549811e-07
-3.9988275e-11
1.3454384e-07
-1.0578723e-11
9.9976906e-08
4.4747242e-08
6.5904458e-12
4.474043e-08
2.597404e-11
9.9957161e-08
5.10033e-11
1.3451851e-07
7.4249791e-11
1.5547477e-07
9.0029799e-11
1.6721534e-07
9.4629908e-11
1.7316683e-07
8.6333677e-11
1.7587846e-07
6.5667969e-11
1.7698719e-07
3.5403182e-11
1.7739161e-07
-3.6366565e-14
1.7751471e-07
-3.5494768e-11
1.7751469e-07
-6.5728094e-11
1.7739155e-07
-8.6366322e-11
1.7698714e-07
-9.4668021e-11
1.7587839e-07
-9.0045556e-11
1.7316676e-07
-7.4239898e-11
1.6721532e-07
-5.0985494e-11
1.5547486e-07
-2.5945411e-11
1.3451877e-07
-6.5819996e-12
9.9957523e-08
4.4740642e-08
4.060562e-12
4.4736389e-08
1.6758856e-11
9.9944466e-08
3.3597427e-11
1.3450168e-07
4.9456247e-11
1.554589e-07
6.0462323e-11
1.6720437e-07
6.3909244e-11
1.7316339e-07
5.85273e-11
1.7588386e-07
4.4668875e-11
1.7700112e-07
2.4112979e-11
1.7741217e-07
-5.8250905e-14
1.7753891e-07
-2.4210265e-11
1.7753887e-07
-4.4753004e-11
1.7741209e-07
-5.8624527e-11
1.7700101e-07
-6.3984167e-11
1.7588375e-07
-6.0521193e-11
1.7316329e-07
-4.9485531e-11
1.6720429e-07
-3.3593638e-11
1.5545896e-07
-1.6760678e-11
1.3450193e-07
-4.0349382e-12
9.9944821e-08
4.4736613e-08
2.4445788e-12
4.4733983e-08
1.0730298e-11
9.9936169e-08
2.2039777e-11
1.3449043e-07
3.2875373e-11
1.554481e-07
4.0486737e-11
1.6719674e-07
4.3052421e-11
1.7316085e-07
3.9571832e-11
1.7588735e-07
3.0282007e-11
1.7701046e-07
1.6341863e-11
1.774261e-07
-8.8633771e-14
1.7755534e-07
-1.6507526e-11
1.7755533e-07
-3.0411146e-11
1.7742604e-07
-3.9718765e-11
1.7701033e-07
-4.3166967e-11
1.7588721e-07
-4.0592288e-11
1.7316072e-07
-3.2933784e-11
1.6719665e-07
-2.2058967e-11
1.5544814e-07
-1.0749245e-11
1.3449065e-07
-2.4194005e-12
9.9936514e-08
4.4734177e-08
1.437883e-12
4.4732582e-08
6.8303631e-12
9.9930802e-08
1.4401811e-11
1.3448289e-07
2.1771403e-11
1.5544074e-07
2.7048938e-11
1.6719148e-07
2.8943197e-11
1.7315901e-07
2.6708623e-11
1.7588961e-07
2.0472993e-11
1.7701672e-07
1.1028301e-11
1.7743553e-07
-1.0979594e-13
1.7756654e-07
-1.1252053e-11
1.7756651e-07
-2.067512e-11
1.7743546e-07
-2.688894e-11
1.7701658e-07
-2.9085763e-11
1.7588946e-07
-2.7200053e-11
1.7315885e-07
-2.1886018e-11
1.6719135e-07
-1.4465845e-11
1.5544072e-07
-6.868758e-12
1.3448305e-07
-1.4422859e-12
9.9931071e-08
4.4732732e-08
8.0558436e-13
4.4731795e-08
4.312993e-12
9.992733e-08
9.3975149e-12
1.3447786e-07
1.4425428e-11
1.5543578e-07
1.8081827e-11
1.6718786e-07
1.9432493e-11
1.7315768e-07
1.7998593e-11
1.7589106e-07
1.3823064e-11
1.7702094e-07
7.4462176e-12
1.7744193e-07
-1.4841274e-13
1.775741e-07
-7.7139788e-12
1.7757409e-07
-1.4078901e-11
1.7744184e-07
-1.8246678e-11
1.7702079e-07
-1.9677151e-11
1.7589089e-07
-1.8293886e-11
1.7315749e-07
-1.4585301e-11
1.6718768e-07
-9.518781e-12
1.5543566e-07
-4.3901707e-12
1.3447793e-07
-8.3007639e-13
9.992753e-08
4.4731936e-08
4.5173989e-13
4.4731392e-08
2.7485258e-12
9.9925065e-08
6.1474411e-12
1.3447447e-07
9.5831479e-12
1.5543237e-07
1.2117951e-11
1.6718536e-07
1.3103102e-11
1.7315676e-07
1.2167794e-11
1.7589205e-07
9.3336283e-12
1.770238e-07
4.9779097e-12
1.7744631e-07
-1.5918458e-13
1.7757932e-07
-5.3236496e-12
1.7757928e-07
-9.6483711e-12
1.7744624e-07
-1.2472932e-11
1.7702365e-07
-1.339095e-11
1.7589186e-07
-1.2405106e-11
1.7315652e-07
-9.8319182e-12
1.6718513e-07
-6.3394782e-12
1.554322e-07
-2.8343708e-12
1.3447448e-07
-4.743826e-13
9.9925195e-08
4.473148e-08
2.4630149e-13
4.4731172e-08
1.7562216e-12
9.9923595e-08
4.1128645e-12
1.3447219e-07
6.5055409e-12
1.5543002e-07
8.2392303e-12
1.6718364e-07
8.938015e-12
1.7315611e-07
8.2993593e-12
1.7589274e-07
6.3385908e-12
1.7702579e-07
3.3801065e-12
1.7744933e-07
-1.8681385e-13
1.775829e-07
-3.7350577e-12
1.7758289e-07
-6.7309115e-12
1.7744922e-07
-8.6648711e-12
1.7702563e-07
-9.2887048e-12
1.7589252e-07
-8.5672624e-12
1.7315586e-07
-6.7910385e-12
1.6718336e-07
-4.3483219e-12
1.5542979e-07
-1.9098487e-12
1.3447205e-07
-2.7809655e-13
9.9923563e-08
4.4731181e-08
1.6924151e-13
4.4731031e-08
1.2248781e-12
9.9922548e-08
2.9213299e-12
1.3447057e-07
4.5851261e-12
1.554284e-07
5.8306239e-12
1.6718244e-07
6.2603006e-12
1.731557e-07
5.7988828e-12
1.7589324e-07
4.3931177e-12
1.770272e-07
2.28027e-12
1.7745145e-07
-2.2609178e-13
1.7758545e-07
-2.708678e-12
1.7758542e-07
-4.8117924e-12
1.7745136e-07
-6.205387e-12
1.7702704e-07
-6.6690841e-12
1.7589301e-07
-6.2066854e-12
1.7315539e-07
-4.9547163e-12
1.6718213e-07
-3.1866931e-12
1.5542808e-07
-1.4183579e-12
1.3447032e-07
-2.0942568e-13
9.9922417e-08
4.4730993e-08
1.7791206e-13
4.4730876e-08
1.0654336e-12
9.99217e-08
2.3293974e-12
1.3446936e-07
3.5386515e-12
1.554272e-07
4.4106993e-12
1.6718166e-07
4.6405205e-12
1.7315546e-07
4.2365322e-12
1.7589369e-07
3.1735438e-12
1.770283e-07
1.5940662e-12
1.7745305e-07
-2.5216087e-13
1.7758732e-07
-2.06318e-12
1.7758729e-07
-3.6309358e-12
1.7745295e-07
-4.706975e-12
1.7702814e-07
-5.1208947e-12
1.7589345e-07
-4.8361059e-12
1.7315515e-07
-3.9612634e-12
1.6718125e-07
-2.6561898e-12
1.554268e-07
-1.2620461e-12
1.3446895e-07
-2.346757e-13
9.9921411e-08
4.4730751e-08
3.0107553e-13
4.4730601e-08
1.1758985e-12
9.9920842e-08
2.2497079e-12
1.3446829e-07
3.1629457e-12
1.5542632e-07
3.7279697e-12
1.6718112e-07
3.8013898e-12
1.7315544e-07
3.3547758e-12
1.7589415e-07
2.4336413e-12
1.7702923e-07
1.172989e-12
1.7745435e-07
-2.8057382e-13
1.7758878e-07
-1.720171e-12
1.7758874e-07
-2.9707198e-12
1.7745423e-07
-3.8657499e-12
1.7702905e-07
-4.3196162e-12
1.7589389e-07
-4.2066272e-12
1.7315509e-07
-3.6280987e-12
1.6718067e-07
-2.6183352e-12
1.5542577e-07
-1.3752969e-12
1.3446777e-07
-3.5009056e-13
9.9920406e-08
4.4730401e-08
5.1374368e-13
4.4730118e-08
1.5678828e-12
9.9919806e-08
2.5978069e-12
1.3446725e-07
3.3503707e-12
1.5542559e-07
3.6656801e-12
1.6718084e-07
3.5046792e-12
1.7315559e-07
2.9549009e-12
1.7589474e-07
2.0467816e-12
1.7703015e-07
9.412776e-13
1.7745549e-07
-3.1137046e-13
1.7759003e-07
-1.5416551e-12
1.7759001e-07
-2.6599772e-12
1.7745536e-07
-3.5015296e-12
1.7702995e-07
-4.0693738e-12
1.7589445e-07
-4.1938921e-12
1.7315522e-07
-3.8227199e-12
1.6718033e-07
-2.9739663e-12
1.5542499e-07
-1.7985722e-12
1.3446658e-07
-5.7490247e-13
9.9919215e-08
4.4729834e-08
9.8678776e-13
4.472915e-08
2.3394436e-12
9.9918455e-08
3.3852546e-12
1.344662e-07
3.9439474e-12
1.5542504e-07
3.9883449e-12
1.6718081e-07
3.6029991e-12
1.7315601e-07
2.8738444e-12
1.7589547e-07
1.8922326e-12
1.770311e-07
8.0938951e-13
1.7745658e-07
-3.3215889e-13
1.7759119e-07
-1.4826034e-12
1.7759115e-07
-2.5687298e-12
1.7745646e-07
-3.517413e-12
1.770309e-07
-4.1972975e-12
1.7589517e-07
-4.5527983e-12
1.7315556e-07
-4.4395286e-12
1.6718023e-07
-3.7695618e-12
1.5542433e-07
-2.5462406e-12
1.344654e-07
-1.0324256e-12
9.9917712e-08
4.4728801e-08
1.7300095e-12
4.4727428e-08
3.4140817e-12
9.9916812e-08
4.356678e-12
1.3446529e-07
4.6744482e-12
1.5542472e-07
4.4545388e-12
1.6718102e-07
3.8291845e-12
1.7315667e-07
2.9035631e-12
1.758964e-07
1.8511202e-12
1.7703216e-07
7.4067242e-13
1.7745768e-07
-3.6576773e-13
1.7759231e-07
-1.4870973e-12
1.7759227e-07
-2.5818631e-12
1.7745754e-07
-3.6260017e-12
1.7703196e-07
-4.4835229e-12
1.7589604e-07
-5.0682777e-12
1.7315616e-07
-5.1964356e-12
1.6718036e-07
-4.7480114e-12
1.5542386e-07
-3.633564e-12
1.3446431e-07
-1.8061614e-12
9.9915884e-08
4.4726981e-08
2.0526052e-12
3.7370515e-12
4.5940278e-12
4.7994075e-12
4.501372e-12
3.7753934e-12
2.8219794e-12
1.7492394e-12
6.6138147e-13
-3.8234132e-13
-1.4658662e-12
-2.5393428e-12
-3.6014536e-12
-4.4982269e-12
-5.1406305e-12
-5.3501275e-12
-4.9966412e-12
-3.9790323e-12
-2.1432561e-12
)
;

boundaryField
{
    Wall
    {
        type            calculated;
        value           uniform 0;
    }
    frontAndBack
    {
        type            empty;
        value           nonuniform 0();
    }
    atmosphere
    {
        type            calculated;
        value           nonuniform List<scalar> 
20
(
4.4725377e-08
9.9915144e-08
1.3446444e-07
1.5542446e-07
1.671813e-07
1.7315737e-07
1.7589737e-07
1.7703325e-07
1.7745872e-07
1.7759337e-07
1.7759333e-07
1.774586e-07
1.7703301e-07
1.7589695e-07
1.7315681e-07
1.671806e-07
1.5542351e-07
1.344633e-07
9.9914011e-08
4.4724842e-08
)
;
    }
}


// ************************************************************************* //
