/*--------------------------------*- C++ -*----------------------------------*\
| =========                 |                                                 |
| \\      /  F ield         | OpenFOAM: The Open Source CFD Toolbox           |
|  \\    /   O peration     | Version:  3.0.1                                 |
|   \\  /    A nd           | Web:      www.OpenFOAM.org                      |
|    \\/     M anipulation  |                                                 |
\*---------------------------------------------------------------------------*/
FoamFile
{
    version     2.0;
    format      ascii;
    class       volScalarField;
    location    "15";
    object      Psi2;
}
// * * * * * * * * * * * * * * * * * * * * * * * * * * * * * * * * * * * * * //

dimensions      [0 -2 2 0 0 0 0];

internalField   nonuniform List<scalar> 
800
(
0.0022199703
0.002219984
0.0022200014
0.0022200115
0.0022200191
0.0022200251
0.0022200297
0.002220033
0.0022200351
0.0022200362
0.0022200361
0.0022200351
0.002220033
0.0022200297
0.0022200251
0.0022200191
0.0022200115
0.0022200013
0.002219984
0.0022199703
0.0024319442
0.0024262888
0.0024257403
0.0024256038
0.0024254927
0.0024253914
0.0024253068
0.002425244
0.0024252036
0.0024251839
0.0024251839
0.0024252036
0.002425244
0.0024253068
0.0024253914
0.0024254927
0.0024256038
0.0024257402
0.0024262888
0.0024319442
0.0028227068
0.0028133768
0.0028088713
0.0028085012
0.0028082618
0.0028080525
0.002807885
0.0028077638
0.0028076865
0.0028076488
0.0028076488
0.0028076865
0.0028077638
0.0028078851
0.0028080525
0.0028082618
0.0028085012
0.0028088713
0.0028133768
0.0028227068
0.0033923927
0.0033767402
0.0033722036
0.0033716334
0.0033712434
0.0033709403
0.003370716
0.0033705631
0.003370469
0.0033704243
0.0033704243
0.003370469
0.0033705631
0.0033707161
0.0033709403
0.0033712434
0.0033716333
0.0033722035
0.0033767402
0.0033923928
0.0042020227
0.0041686521
0.0041639723
0.0041629407
0.0041623303
0.0041619278
0.0041616831
0.0041615406
0.0041614624
0.0041614278
0.0041614278
0.0041614624
0.0041615406
0.0041616831
0.0041619277
0.0041623302
0.0041629405
0.0041639721
0.0041686519
0.0042020226
0.0055874142
0.0055074348
0.0055001342
0.0054977357
0.0054966084
0.0054960647
0.005495818
0.0054957527
0.0054957311
0.0054957289
0.0054957289
0.0054957311
0.0054957526
0.0054958179
0.0054960644
0.0054966081
0.0054977354
0.0055001337
0.0055074343
0.0055874138
0.0074948055
0.0073930824
0.007379765
0.0073757381
0.0073744955
0.0073743092
0.0073744181
0.0073746682
0.0073748438
0.0073749729
0.0073749729
0.0073748438
0.0073746682
0.0073744178
0.0073743087
0.0073744948
0.0073757372
0.0073797641
0.0073930813
0.0074948045
0.009163336
0.0090349857
0.0090083259
0.0090042531
0.009004806
0.009006202
0.009007487
0.00900834
0.0090089063
0.0090092649
0.009009265
0.0090089064
0.0090083401
0.0090074868
0.0090062014
0.0090048051
0.0090042517
0.0090083248
0.0090349843
0.0091633347
0.010274158
0.01009696
0.010052438
0.010046191
0.010049394
0.010053744
0.010057314
0.010059513
0.010060874
0.010061599
0.0100616
0.010060875
0.010059513
0.010057314
0.010053743
0.010049393
0.010046189
0.010052437
0.010096959
0.010274157
0.010788637
0.010637493
0.010587367
0.010575858
0.010577483
0.010582208
0.010586711
0.010589753
0.010591673
0.010592638
0.010592638
0.010591674
0.010589753
0.010586711
0.010582208
0.010577483
0.010575857
0.010587366
0.010637492
0.010788636
0.010933761
0.010860356
0.010824403
0.0108125
0.0108115
0.010814157
0.010817353
0.010819729
0.010821289
0.010822068
0.010822068
0.010821289
0.01081973
0.010817353
0.010814157
0.0108115
0.010812499
0.010824403
0.010860356
0.010933761
0.010960346
0.010935891
0.010917168
0.010908959
0.01090719
0.010908129
0.010909753
0.010911082
0.01091199
0.010912446
0.010912446
0.01091199
0.010911082
0.010909753
0.010908129
0.01090719
0.010908959
0.010917168
0.010935891
0.010960346
0.01096386
0.010957468
0.010949702
0.010945338
0.010943986
0.01094416
0.010944821
0.010945422
0.010945849
0.010946065
0.010946065
0.010945849
0.010945422
0.010944821
0.01094416
0.010943986
0.010945338
0.010949702
0.010957468
0.01096386
0.010964226
0.010962802
0.010960079
0.010958143
0.010957389
0.010957351
0.010957577
0.010957811
0.010957984
0.010958072
0.010958072
0.010957984
0.010957811
0.010957577
0.010957351
0.010957389
0.010958143
0.010960079
0.010962802
0.010964226
0.010964258
0.010963974
0.010963131
0.01096238
0.010962032
0.010961977
0.010962043
0.010962124
0.010962186
0.010962218
0.010962218
0.010962186
0.010962124
0.010962043
0.010961977
0.010962032
0.01096238
0.010963131
0.010963974
0.010964258
0.010964261
0.010964208
0.010963971
0.010963708
0.010963567
0.010963534
0.01096355
0.010963575
0.010963596
0.010963607
0.010963607
0.010963596
0.010963575
0.01096355
0.010963534
0.010963567
0.010963708
0.010963971
0.010964208
0.010964261
0.010964261
0.010964252
0.01096419
0.010964105
0.010964053
0.010964038
0.010964041
0.010964048
0.010964054
0.010964058
0.010964058
0.010964054
0.010964048
0.010964041
0.010964038
0.010964053
0.010964105
0.01096419
0.010964252
0.010964261
0.010964261
0.010964259
0.010964244
0.010964218
0.010964201
0.010964195
0.010964195
0.010964197
0.010964199
0.0109642
0.0109642
0.010964199
0.010964197
0.010964195
0.010964195
0.010964201
0.010964218
0.010964244
0.010964259
0.010964261
0.010964261
0.010964261
0.010964257
0.01096425
0.010964244
0.010964242
0.010964242
0.010964242
0.010964243
0.010964243
0.010964243
0.010964243
0.010964242
0.010964242
0.010964242
0.010964244
0.01096425
0.010964257
0.010964261
0.010964261
0.010964261
0.010964261
0.01096426
0.010964258
0.010964256
0.010964256
0.010964256
0.010964256
0.010964256
0.010964256
0.010964256
0.010964256
0.010964256
0.010964256
0.010964256
0.010964256
0.010964258
0.01096426
0.010964261
0.010964261
0.010964261
0.010964261
0.010964261
0.01096426
0.01096426
0.01096426
0.01096426
0.01096426
0.01096426
0.01096426
0.01096426
0.01096426
0.01096426
0.01096426
0.01096426
0.01096426
0.01096426
0.010964261
0.010964261
0.010964261
0.010964261
0.010964261
0.010964261
0.010964261
0.010964261
0.010964261
0.010964261
0.010964261
0.010964261
0.010964261
0.010964261
0.010964261
0.010964261
0.010964261
0.010964261
0.010964261
0.010964261
0.010964261
0.010964261
0.010964261
0.010964261
0.010964261
0.010964261
0.010964261
0.010964261
0.010964261
0.010964261
0.010964261
0.010964261
0.010964261
0.010964261
0.010964261
0.010964261
0.010964261
0.010964261
0.010964261
0.010964261
0.010964261
0.010964261
0.010964261
0.010964261
0.010964261
0.010964261
0.010964261
0.010964261
0.010964261
0.010964261
0.010964261
0.010964261
0.010964261
0.010964261
0.010964261
0.010964261
0.010964261
0.010964261
0.010964261
0.010964261
0.010964261
0.010964261
0.010964261
0.010964261
0.010964261
0.010964261
0.010964261
0.010964261
0.010964261
0.010964261
0.010964261
0.010964261
0.010964261
0.010964261
0.010964261
0.010964261
0.010964261
0.010964261
0.010964261
0.010964261
0.010964261
0.010964261
0.010964261
0.010964261
0.010964261
0.010964261
0.010964261
0.010964261
0.010964261
0.010964261
0.010964261
0.010964261
0.010964261
0.010964261
0.010964261
0.010964261
0.010964261
0.010964261
0.010964261
0.010964261
0.010964261
0.010964261
0.010964261
0.010964261
0.010964261
0.010964261
0.010964261
0.010964261
0.010964261
0.010964261
0.010964261
0.010964261
0.010964261
0.010964261
0.010964261
0.010964261
0.010964261
0.010964261
0.010964261
0.010964261
0.010964261
0.010964261
0.010964261
0.010964261
0.010964261
0.010964261
0.010964261
0.010964261
0.010964261
0.010964261
0.010964261
0.010964261
0.010964261
0.010964261
0.010964261
0.010964261
0.010964261
0.010964261
0.010964261
0.010964261
0.010964261
0.010964261
0.010964261
0.010964261
0.010964261
0.010964261
0.010964261
0.010964261
0.010964261
0.010964261
0.010964261
0.010964261
0.010964261
0.010964261
0.010964261
0.010964261
0.010964261
0.010964261
0.010964261
0.010964261
0.010964261
0.010964261
0.010964261
0.010964261
0.010964261
0.010964261
0.010964261
0.010964261
0.010964261
0.010964261
0.010964261
0.010964261
0.010964261
0.010964261
0.010964261
0.010964261
0.010964261
0.010964261
0.010964261
0.010964261
0.010964261
0.010964261
0.010964261
0.010964261
0.010964261
0.010964261
0.010964261
0.010964261
0.010964261
0.010964261
0.010964261
0.010964261
0.010964261
0.010964261
0.010964261
0.010964261
0.010964261
0.010964261
0.010964261
0.010964261
0.010964261
0.010964261
0.010964261
0.010964261
0.010964261
0.010964261
0.010964261
0.010964261
0.010964261
0.010964261
0.010964261
0.010964261
0.010964261
0.010964261
0.010964261
0.010964261
0.010964261
0.010964261
0.010964261
0.010964261
0.010964261
0.010964261
0.010964261
0.010964261
0.010964261
0.010964261
0.010964261
0.010964261
0.010964261
0.010964261
0.010964261
0.010964261
0.010964261
0.010964261
0.010964261
0.010964261
0.010964261
0.010964261
0.010964261
0.010964261
0.010964261
0.010964261
0.010964261
0.010964261
0.010964261
0.010964261
0.010964261
0.010964261
0.010964261
0.010964261
0.010964261
0.010964261
0.010964261
0.010964261
0.010964261
0.010964261
0.010964261
0.010964261
0.010964261
0.010964261
0.010964261
0.010964261
0.010964261
0.010964261
0.010964261
0.010964261
0.010964261
0.010964261
0.010964261
0.010964261
0.010964261
0.010964261
0.010964261
0.010964261
0.010964261
0.010964261
0.010964261
0.010964261
0.010964261
0.010964261
0.010964261
0.010964261
0.010964261
0.010964261
0.010964261
0.010964261
0.010964261
0.010964261
0.010964261
0.010964261
0.010964261
0.010964261
0.010964261
0.010964261
0.010964261
0.010964261
0.010964261
0.010964261
0.010964261
0.010964261
0.010964261
0.010964261
0.010964261
0.010964261
0.010964261
0.010964261
0.010964261
0.010964261
0.010964261
0.010964261
0.010964261
0.010964261
0.010964261
0.010964261
0.010964261
0.010964261
0.010964261
0.010964261
0.010964261
0.010964261
0.010964261
0.010964261
0.010964261
0.010964261
0.010964261
0.010964261
0.010964261
0.010964261
0.010964261
0.010964261
0.010964261
0.010964261
0.010964261
0.010964261
0.010964261
0.010964261
0.010964261
0.010964261
0.010964261
0.010964261
0.010964261
0.010964261
0.010964261
0.010964261
0.010964261
0.010964261
0.010964261
0.010964261
0.010964261
0.010964261
0.010964261
0.010964261
0.010964261
0.010964261
0.010964261
0.010964261
0.010964261
0.010964261
0.010964261
0.010964261
0.010964261
0.010964261
0.010964261
0.010964261
0.010964261
0.010964261
0.010964261
0.010964261
0.010964261
0.010964261
0.010964261
0.010964261
0.010964261
0.010964261
0.010964261
0.010964261
0.010964261
0.010964261
0.010964261
0.010964261
0.010964261
0.010964261
0.010964261
)
;

boundaryField
{
    Wall
    {
        type            calculated;
        value           nonuniform List<scalar> 
100
(
9.9999999e-21
9.9999998e-21
9.9999998e-21
9.9999998e-21
9.9999999e-21
9.9999999e-21
1e-20
1e-20
1e-20
1e-20
1e-20
1e-20
1e-20
1e-20
1e-20
1e-20
1e-20
1e-20
1e-20
1e-20
1e-20
1e-20
1e-20
1e-20
1e-20
1e-20
1e-20
1e-20
1e-20
1e-20
1e-20
1e-20
1e-20
1e-20
1e-20
1e-20
1e-20
1e-20
1e-20
1e-20
9.9999999e-21
9.9999998e-21
9.9999998e-21
9.9999998e-21
9.9999999e-21
9.9999999e-21
1e-20
1e-20
1e-20
1e-20
1e-20
1e-20
1e-20
1e-20
1e-20
1e-20
1e-20
1e-20
1e-20
1e-20
1e-20
1e-20
1e-20
1e-20
1e-20
1e-20
1e-20
1e-20
1e-20
1e-20
1e-20
1e-20
1e-20
1e-20
1e-20
1e-20
1e-20
1e-20
1e-20
1e-20
9.9999999e-21
9.9999999e-21
9.9999999e-21
9.9999999e-21
9.9999999e-21
9.9999999e-21
9.9999999e-21
9.9999999e-21
9.9999999e-21
9.9999999e-21
9.9999999e-21
9.9999999e-21
9.9999999e-21
9.9999999e-21
9.9999999e-21
9.9999999e-21
9.9999999e-21
9.9999999e-21
9.9999999e-21
9.9999999e-21
)
;
    }
    frontAndBack
    {
        type            empty;
    }
    atmosphere
    {
        type            calculated;
        value           uniform 1e-20;
    }
}


// ************************************************************************* //
