/*--------------------------------*- C++ -*----------------------------------*\
| =========                 |                                                 |
| \\      /  F ield         | OpenFOAM: The Open Source CFD Toolbox           |
|  \\    /   O peration     | Version:  3.0.1                                 |
|   \\  /    A nd           | Web:      www.OpenFOAM.org                      |
|    \\/     M anipulation  |                                                 |
\*---------------------------------------------------------------------------*/
FoamFile
{
    version     2.0;
    format      ascii;
    class       volScalarField;
    location    "15";
    object      rho;
}
// * * * * * * * * * * * * * * * * * * * * * * * * * * * * * * * * * * * * * //

dimensions      [1 -3 0 0 0 0 0];

internalField   nonuniform List<scalar> 
800
(
221.99703
221.9984
222.00014
222.00115
222.00191
222.00251
222.00297
222.0033
222.00351
222.00362
222.00362
222.00351
222.0033
222.00297
222.00251
222.00191
222.00115
222.00014
221.9984
221.99703
243.19442
242.62889
242.57403
242.56039
242.54927
242.53914
242.53068
242.52441
242.52036
242.51839
242.51839
242.52036
242.52441
242.53068
242.53914
242.54927
242.56038
242.57402
242.62888
243.19442
282.21343
281.28298
280.83264
280.79559
280.77161
280.75065
280.73389
280.72175
280.71401
280.71024
280.71024
280.71401
280.72175
280.73389
280.75065
280.77161
280.79559
280.83264
281.28298
282.21343
338.73573
337.20662
336.75668
336.69956
336.66015
336.62945
336.60667
336.5911
336.5815
336.57693
336.57693
336.5815
336.5911
336.60667
336.62945
336.66015
336.69955
336.75668
337.20662
338.73574
415.2772
412.57627
412.18522
412.09187
412.02629
411.97801
411.94634
411.92578
411.9139
411.90834
411.90834
411.91391
411.92579
411.94635
411.97802
412.02629
412.09187
412.18522
412.57626
415.27721
445.80329
455.34151
456.82681
456.89548
456.65389
456.35658
456.12027
455.93031
455.81227
455.74895
455.74898
455.81235
455.93044
456.12047
456.35682
456.65418
456.89583
456.82716
455.34189
445.80379
151.96477
169.0877
171.72269
171.91104
171.63011
171.2521
170.94329
170.69113
170.53331
170.44775
170.44778
170.5334
170.6913
170.94354
171.25244
171.63052
171.91153
171.72318
169.08823
151.96529
10.91589
13.684321
14.166695
14.161904
14.09869
14.030378
13.978138
13.938277
13.913691
13.900427
13.900431
13.913702
13.938297
13.978171
14.030423
14.098746
14.161972
14.166762
13.684392
10.915953
1.2765775
1.3399694
1.3560311
1.3550072
1.3524331
1.3500487
1.3483498
1.347183
1.3464814
1.3461156
1.3461156
1.3464815
1.3471832
1.3483503
1.3500495
1.3524341
1.3550085
1.3560324
1.3399707
1.2765783
1.2000388
1.2001619
1.200217
1.2002163
1.2002079
1.2001993
1.2001932
1.2001893
1.2001869
1.2001857
1.2001857
1.2001869
1.2001893
1.2001932
1.2001993
1.2002079
1.2002163
1.200217
1.2001619
1.2000388
1.2000009
1.200001
1.2000009
1.200001
1.200001
1.2000011
1.200001
1.200001
1.200001
1.200001
1.200001
1.200001
1.200001
1.200001
1.2000011
1.200001
1.200001
1.2000009
1.200001
1.2000009
1.2000002
1.2000006
1.2000008
1.2000009
1.2000009
1.2000009
1.2000009
1.2000009
1.2000009
1.2000009
1.2000009
1.2000009
1.2000009
1.2000009
1.2000009
1.2000009
1.2000009
1.2000008
1.2000006
1.2000002
1.2
1.2000003
1.2000004
1.2000005
1.2000006
1.2000006
1.2000006
1.2000006
1.2000006
1.2000006
1.2000006
1.2000006
1.2000006
1.2000006
1.2000006
1.2000006
1.2000005
1.2000004
1.2000003
1.2
1.2
1.2000001
1.2000002
1.2000003
1.2000003
1.2000003
1.2000003
1.2000003
1.2000003
1.2000003
1.2000003
1.2000003
1.2000003
1.2000003
1.2000003
1.2000003
1.2000003
1.2000002
1.2000001
1.2
1.2
1.2
1.2000001
1.2000001
1.2000002
1.2000002
1.2000002
1.2000002
1.2000002
1.2000001
1.2000001
1.2000002
1.2000002
1.2000002
1.2000002
1.2000002
1.2000001
1.2000001
1.2
1.2
1.2
1.2
1.2
1.2000001
1.2000001
1.2000001
1.2000001
1.2000001
1.2000001
1.2000001
1.2000001
1.2000001
1.2000001
1.2000001
1.2000001
1.2000001
1.2000001
1.2
1.2
1.2
1.2
1.2
1.2
1.2
1.2
1.2
1.2
1.2
1.2
1.2
1.2
1.2
1.2
1.2
1.2
1.2
1.2
1.2
1.2
1.2
1.2
1.2
1.2
1.2
1.2
1.2
1.2
1.2
1.2
1.2
1.2
1.2
1.2
1.2
1.2
1.2
1.2
1.2
1.2
1.2
1.2
1.2
1.2
1.2
1.2
1.2
1.2
1.2
1.2
1.2
1.2
1.2
1.2
1.2
1.2
1.2
1.2
1.2
1.2
1.2
1.2
1.2
1.2
1.2
1.2
1.2
1.2
1.2
1.2
1.2
1.2
1.2
1.2
1.2
1.2
1.2
1.2
1.2
1.2
1.2
1.2
1.2
1.2
1.2
1.2
1.2
1.2
1.2
1.2
1.2
1.2
1.2
1.2
1.2
1.2
1.2
1.2
1.2
1.2
1.2
1.2
1.2
1.2
1.2
1.2
1.2
1.2
1.2
1.2
1.2
1.2
1.2
1.2
1.2
1.2
1.2
1.2
1.2
1.2
1.2
1.2
1.2
1.2
1.2
1.2
1.2
1.2
1.2
1.2
1.2
1.2
1.2
1.2
1.2
1.2
1.2
1.2
1.2
1.2
1.2
1.2
1.2
1.2
1.2
1.2
1.2
1.2
1.2
1.2
1.2
1.2
1.2
1.2
1.2
1.2
1.2
1.2
1.2
1.2
1.2
1.2
1.2
1.2
1.2
1.2
1.2
1.2
1.2
1.2
1.2
1.2
1.2
1.2
1.2
1.2
1.2
1.2
1.2
1.2
1.2
1.2
1.2
1.2
1.2
1.2
1.2
1.2
1.2
1.2
1.2
1.2
1.2
1.2
1.2
1.2
1.2
1.2
1.2
1.2
1.2
1.2
1.2
1.2
1.2
1.2
1.2
1.2
1.2
1.2
1.2
1.2
1.2
1.2
1.2
1.2
1.2
1.2
1.2
1.2
1.2
1.2
1.2
1.2
1.2
1.2
1.2
1.2
1.2
1.2
1.2
1.2
1.2
1.2
1.2
1.2
1.2
1.2
1.2
1.2
1.2
1.2
1.2
1.2
1.2
1.2
1.2
1.2
1.2
1.2
1.2
1.2
1.2
1.2
1.2
1.2
1.2
1.2
1.2
1.2
1.2
1.2
1.2
1.2
1.2
1.2
1.2
1.2
1.2
1.2
1.2
1.2
1.2
1.2
1.2
1.2
1.2
1.2
1.2
1.2
1.2
1.2
1.2
1.2
1.2
1.2
1.2
1.2
1.2
1.2
1.2
1.2
1.2
1.2
1.2
1.2
1.2
1.2
1.2
1.2
1.2
1.2
1.2
1.2
1.2
1.2
1.2
1.2
1.2
1.2
1.2
1.2
1.2
1.2
1.2
1.2
1.2
1.2
1.2
1.2
1.2
1.2
1.2
1.2
1.2
1.2
1.2
1.2
1.2
1.2
1.2
1.2
1.2
1.2
1.2
1.2
1.2
1.2
1.2
1.2
1.2
1.2
1.2
1.2
1.2
1.2
1.2
1.2
1.2
1.2
1.2
1.2
1.2
1.2
1.2
1.2
1.2
1.2
1.2
1.2
1.2
1.2
1.2
1.2
1.2
1.2
1.2
1.2
1.2
1.2
1.2
1.2
1.2
1.2
1.2
1.2
1.2
1.2
1.2
1.2
1.2
1.2
1.2
1.2
1.2
1.2
1.2
1.2
1.2
1.2
1.2
1.2
1.2
1.2
1.2
1.2
1.2
1.2
1.2
1.2
1.2
1.2
1.2
1.2
1.2
1.2
1.2
1.2
1.2
1.2
1.2
1.2
1.2
1.2
1.2
1.2
1.2
1.2
1.2
1.2
1.2
1.2
1.2
1.2
1.2
1.2
1.2
1.2
1.2
1.2
1.2
1.2
1.2
1.2
1.2
1.2
1.2
1.2
1.2
1.2
1.2
1.2
1.2
1.2
1.2
1.2
1.2
1.2
1.2
1.2
1.2
1.2
1.2
1.2
1.2
1.2
1.2
1.2
1.2
1.2
1.2
1.2
1.2
1.2
1.2
1.2
1.2
1.2
1.2
1.2
1.2
1.2
1.2
1.2
1.2
1.2
1.2
1.2
1.2
1.2
1.2
)
;

boundaryField
{
    Wall
    {
        type            calculated;
        value           nonuniform List<scalar> 
100
(
1e-15
6.0610624e-12
0.00024444557
0.0017875096
0.014105148
0.24307746
0.95822206
1.1872597
1.1999105
1.2
1.2
1.2
1.2
1.2
1.2
1.2
1.2
1.2
1.2
1.2
1.2
1.2
1.2
1.2
1.2
1.2
1.2
1.2
1.2
1.2
1.2
1.2
1.2
1.2
1.2
1.2
1.2
1.2
1.2
1.2
1e-15
2.7412873e-14
0.00024444527
0.0017875053
0.014105084
0.24307633
0.9582212
1.1872596
1.1999105
1.2
1.2
1.2
1.2
1.2
1.2
1.2
1.2
1.2
1.2
1.2
1.2
1.2
1.2
1.2
1.2
1.2
1.2
1.2
1.2
1.2
1.2
1.2
1.2
1.2
1.2
1.2
1.2
1.2
1.2
1.2
1e-15
1e-15
1.0000005e-15
1.000001e-15
1e-15
1.0000013e-15
1.0000011e-15
1.0000001e-15
1e-15
1e-15
1e-15
1e-15
1e-15
1.0000001e-15
1.0000001e-15
1e-15
1e-15
1e-15
1e-15
1e-15
)
;
    }
    frontAndBack
    {
        type            empty;
    }
    atmosphere
    {
        type            calculated;
        value           nonuniform List<scalar> 
20
(
1.2
1.2
1.2
1.2
1.2
1.2
1.2
1.2
1.2
1.2
1.2
1.2
1.2
1.2
1.2
1.2
1.2
1.2
1.2
1.2
)
;
    }
}


// ************************************************************************* //
