/*--------------------------------*- C++ -*----------------------------------*\
| =========                 |                                                 |
| \\      /  F ield         | OpenFOAM: The Open Source CFD Toolbox           |
|  \\    /   O peration     | Version:  3.0.1                                 |
|   \\  /    A nd           | Web:      www.OpenFOAM.org                      |
|    \\/     M anipulation  |                                                 |
\*---------------------------------------------------------------------------*/
FoamFile
{
    version     2.0;
    format      ascii;
    class       volScalarField;
    location    "15";
    object      rho_foam;
}
// * * * * * * * * * * * * * * * * * * * * * * * * * * * * * * * * * * * * * //

dimensions      [1 -3 0 0 0 0 0];

internalField   nonuniform List<scalar> 
800
(
221.99703
221.9984
222.00014
222.00115
222.00191
222.00251
222.00297
222.0033
222.00351
222.00362
222.00362
222.00351
222.0033
222.00297
222.00251
222.00191
222.00115
222.00014
221.9984
221.99703
243.19442
242.62889
242.57403
242.56039
242.54927
242.53914
242.53068
242.52441
242.52036
242.51839
242.51839
242.52036
242.52441
242.53068
242.53914
242.54927
242.56038
242.57402
242.62888
243.19442
282.27068
281.33768
280.88713
280.85013
280.82619
280.80525
280.78851
280.77638
280.76865
280.76489
280.76489
280.76865
280.77639
280.78851
280.80525
280.82619
280.85013
280.88713
281.33768
282.27069
339.23927
337.67403
337.22036
337.16334
337.12434
337.09403
337.07161
337.05631
337.04691
337.04243
337.04243
337.04691
337.05632
337.07161
337.09404
337.12434
337.16334
337.22036
337.67402
339.23928
420.20227
416.86521
416.39723
416.29407
416.23303
416.19278
416.16832
416.15406
416.14624
416.14278
416.14278
416.14625
416.15406
416.16832
416.19277
416.23302
416.29406
416.39722
416.86519
420.20226
558.74142
550.74348
550.01343
549.77358
549.66084
549.60647
549.5818
549.57527
549.57311
549.5729
549.5729
549.57311
549.57527
549.58179
549.60645
549.66081
549.77354
550.01338
550.74343
558.74138
749.48055
739.30824
737.9765
737.57381
737.44955
737.43092
737.44181
737.46683
737.48438
737.49729
737.49729
737.48438
737.46682
737.44178
737.43087
737.44948
737.57372
737.97641
739.30813
749.48045
916.3336
903.49857
900.83259
900.42531
900.4806
900.6202
900.7487
900.834
900.89063
900.92649
900.9265
900.89064
900.83401
900.74868
900.62014
900.48051
900.42517
900.83248
903.49843
916.33347
1027.4158
1009.696
1005.2438
1004.6191
1004.9394
1005.3744
1005.7314
1005.9513
1006.0874
1006.1599
1006.16
1006.0875
1005.9513
1005.7314
1005.3743
1004.9393
1004.6189
1005.2437
1009.6959
1027.4157
1078.8637
1063.7493
1058.7367
1057.5858
1057.7483
1058.2208
1058.6711
1058.9753
1059.1673
1059.2638
1059.2638
1059.1674
1058.9753
1058.6711
1058.2208
1057.7483
1057.5857
1058.7366
1063.7492
1078.8636
1093.3761
1086.0356
1082.4403
1081.25
1081.15
1081.4157
1081.7353
1081.9729
1082.1289
1082.2068
1082.2068
1082.1289
1081.973
1081.7353
1081.4157
1081.15
1081.2499
1082.4403
1086.0356
1093.3761
1096.0346
1093.5891
1091.7168
1090.8959
1090.719
1090.8129
1090.9753
1091.1082
1091.199
1091.2446
1091.2446
1091.199
1091.1082
1090.9753
1090.8129
1090.719
1090.8959
1091.7168
1093.5891
1096.0346
1096.386
1095.7468
1094.9702
1094.5338
1094.3986
1094.416
1094.4821
1094.5422
1094.5849
1094.6065
1094.6065
1094.5849
1094.5422
1094.4821
1094.416
1094.3986
1094.5338
1094.9702
1095.7468
1096.386
1096.4226
1096.2802
1096.0079
1095.8143
1095.7389
1095.7351
1095.7577
1095.7811
1095.7984
1095.8072
1095.8072
1095.7984
1095.7811
1095.7577
1095.7351
1095.7389
1095.8143
1096.0079
1096.2802
1096.4226
1096.4258
1096.3974
1096.3131
1096.238
1096.2032
1096.1977
1096.2043
1096.2124
1096.2186
1096.2218
1096.2218
1096.2186
1096.2124
1096.2043
1096.1977
1096.2032
1096.238
1096.3131
1096.3974
1096.4258
1096.4261
1096.4208
1096.3971
1096.3708
1096.3567
1096.3534
1096.355
1096.3575
1096.3596
1096.3607
1096.3607
1096.3596
1096.3575
1096.355
1096.3534
1096.3567
1096.3708
1096.3971
1096.4208
1096.4261
1096.4261
1096.4252
1096.419
1096.4105
1096.4053
1096.4038
1096.4041
1096.4048
1096.4054
1096.4058
1096.4058
1096.4054
1096.4048
1096.4041
1096.4038
1096.4053
1096.4105
1096.419
1096.4252
1096.4261
1096.4261
1096.4259
1096.4244
1096.4218
1096.4201
1096.4195
1096.4195
1096.4197
1096.4199
1096.42
1096.42
1096.4199
1096.4197
1096.4195
1096.4195
1096.4201
1096.4218
1096.4244
1096.4259
1096.4261
1096.4261
1096.4261
1096.4257
1096.425
1096.4244
1096.4242
1096.4242
1096.4242
1096.4243
1096.4243
1096.4243
1096.4243
1096.4242
1096.4242
1096.4242
1096.4244
1096.425
1096.4257
1096.4261
1096.4261
1096.4261
1096.4261
1096.426
1096.4258
1096.4256
1096.4256
1096.4256
1096.4256
1096.4256
1096.4256
1096.4256
1096.4256
1096.4256
1096.4256
1096.4256
1096.4256
1096.4258
1096.426
1096.4261
1096.4261
1096.4261
1096.4261
1096.4261
1096.426
1096.426
1096.426
1096.426
1096.426
1096.426
1096.426
1096.426
1096.426
1096.426
1096.426
1096.426
1096.426
1096.426
1096.4261
1096.4261
1096.4261
1096.4261
1096.4261
1096.4261
1096.4261
1096.4261
1096.4261
1096.4261
1096.4261
1096.4261
1096.4261
1096.4261
1096.4261
1096.4261
1096.4261
1096.4261
1096.4261
1096.4261
1096.4261
1096.4261
1096.4261
1096.4261
1096.4261
1096.4261
1096.4261
1096.4261
1096.4261
1096.4261
1096.4261
1096.4261
1096.4261
1096.4261
1096.4261
1096.4261
1096.4261
1096.4261
1096.4261
1096.4261
1096.4261
1096.4261
1096.4261
1096.4261
1096.4261
1096.4261
1096.4261
1096.4261
1096.4261
1096.4261
1096.4261
1096.4261
1096.4261
1096.4261
1096.4261
1096.4261
1096.4261
1096.4261
1096.4261
1096.4261
1096.4261
1096.4261
1096.4261
1096.4261
1096.4261
1096.4261
1096.4261
1096.4261
1096.4261
1096.4261
1096.4261
1096.4261
1096.4261
1096.4261
1096.4261
1096.4261
1096.4261
1096.4261
1096.4261
1096.4261
1096.4261
1096.4261
1096.4261
1096.4261
1096.4261
1096.4261
1096.4261
1096.4261
1096.4261
1096.4261
1096.4261
1096.4261
1096.4261
1096.4261
1096.4261
1096.4261
1096.4261
1096.4261
1096.4261
1096.4261
1096.4261
1096.4261
1096.4261
1096.4261
1096.4261
1096.4261
1096.4261
1096.4261
1096.4261
1096.4261
1096.4261
1096.4261
1096.4261
1096.4261
1096.4261
1096.4261
1096.4261
1096.4261
1096.4261
1096.4261
1096.4261
1096.4261
1096.4261
1096.4261
1096.4261
1096.4261
1096.4261
1096.4261
1096.4261
1096.4261
1096.4261
1096.4261
1096.4261
1096.4261
1096.4261
1096.4261
1096.4261
1096.4261
1096.4261
1096.4261
1096.4261
1096.4261
1096.4261
1096.4261
1096.4261
1096.4261
1096.4261
1096.4261
1096.4261
1096.4261
1096.4261
1096.4261
1096.4261
1096.4261
1096.4261
1096.4261
1096.4261
1096.4261
1096.4261
1096.4261
1096.4261
1096.4261
1096.4261
1096.4261
1096.4261
1096.4261
1096.4261
1096.4261
1096.4261
1096.4261
1096.4261
1096.4261
1096.4261
1096.4261
1096.4261
1096.4261
1096.4261
1096.4261
1096.4261
1096.4261
1096.4261
1096.4261
1096.4261
1096.4261
1096.4261
1096.4261
1096.4261
1096.4261
1096.4261
1096.4261
1096.4261
1096.4261
1096.4261
1096.4261
1096.4261
1096.4261
1096.4261
1096.4261
1096.4261
1096.4261
1096.4261
1096.4261
1096.4261
1096.4261
1096.4261
1096.4261
1096.4261
1096.4261
1096.4261
1096.4261
1096.4261
1096.4261
1096.4261
1096.4261
1096.4261
1096.4261
1096.4261
1096.4261
1096.4261
1096.4261
1096.4261
1096.4261
1096.4261
1096.4261
1096.4261
1096.4261
1096.4261
1096.4261
1096.4261
1096.4261
1096.4261
1096.4261
1096.4261
1096.4261
1096.4261
1096.4261
1096.4261
1096.4261
1096.4261
1096.4261
1096.4261
1096.4261
1096.4261
1096.4261
1096.4261
1096.4261
1096.4261
1096.4261
1096.4261
1096.4261
1096.4261
1096.4261
1096.4261
1096.4261
1096.4261
1096.4261
1096.4261
1096.4261
1096.4261
1096.4261
1096.4261
1096.4261
1096.4261
1096.4261
1096.4261
1096.4261
1096.4261
1096.4261
1096.4261
1096.4261
1096.4261
1096.4261
1096.4261
1096.4261
1096.4261
1096.4261
1096.4261
1096.4261
1096.4261
1096.4261
1096.4261
1096.4261
1096.4261
1096.4261
1096.4261
1096.4261
1096.4261
1096.4261
1096.4261
1096.4261
1096.4261
1096.4261
1096.4261
1096.4261
1096.4261
1096.4261
1096.4261
1096.4261
1096.4261
1096.4261
1096.4261
1096.4261
1096.4261
1096.4261
1096.4261
1096.4261
1096.4261
1096.4261
1096.4261
1096.4261
1096.4261
1096.4261
1096.4261
1096.4261
1096.4261
1096.4261
1096.4261
1096.4261
1096.4261
1096.4261
1096.4261
1096.4261
1096.4261
1096.4261
1096.4261
1096.4261
1096.4261
1096.4261
1096.4261
1096.4261
1096.4261
1096.4261
1096.4261
1096.4261
1096.4261
1096.4261
1096.4261
1096.4261
1096.4261
1096.4261
1096.4261
1096.4261
1096.4261
1096.4261
1096.4261
1096.4261
1096.4261
1096.4261
1096.4261
1096.4261
1096.4261
1096.4261
1096.4261
1096.4261
1096.4261
1096.4261
1096.4261
1096.4261
1096.4261
1096.4261
1096.4261
1096.4261
1096.4261
1096.4261
1096.4261
1096.4261
1096.4261
1096.4261
1096.4261
1096.4261
1096.4261
1096.4261
1096.4261
1096.4261
1096.4261
1096.4261
1096.4261
1096.4261
1096.4261
1096.4261
1096.4261
1096.4261
1096.4261
)
;

boundaryField
{
    Wall
    {
        type            zeroGradient;
    }
    frontAndBack
    {
        type            empty;
    }
    atmosphere
    {
        type            zeroGradient;
    }
}


// ************************************************************************* //
