/*--------------------------------*- C++ -*----------------------------------*\
| =========                 |                                                 |
| \\      /  F ield         | OpenFOAM: The Open Source CFD Toolbox           |
|  \\    /   O peration     | Version:  3.0.1                                 |
|   \\  /    A nd           | Web:      www.OpenFOAM.org                      |
|    \\/     M anipulation  |                                                 |
\*---------------------------------------------------------------------------*/
FoamFile
{
    version     2.0;
    format      ascii;
    class       volScalarField;
    location    "15";
    object      thermalDiffusivity;
}
// * * * * * * * * * * * * * * * * * * * * * * * * * * * * * * * * * * * * * //

dimensions      [0 2 -1 0 0 0 0];

internalField   nonuniform List<scalar> 
800
(
8.6712438e-08
8.6712319e-08
8.6712176e-08
8.6712093e-08
8.6712031e-08
8.6711981e-08
8.6711944e-08
8.6711917e-08
8.6711899e-08
8.671189e-08
8.6711891e-08
8.6711899e-08
8.6711917e-08
8.6711944e-08
8.6711981e-08
8.6712031e-08
8.6712093e-08
8.6712176e-08
8.6712319e-08
8.6712438e-08
8.5211425e-08
8.5245546e-08
8.5248897e-08
8.5249716e-08
8.525039e-08
8.5251019e-08
8.5251532e-08
8.5251915e-08
8.5252171e-08
8.525232e-08
8.5252296e-08
8.5252176e-08
8.5251919e-08
8.5251532e-08
8.5251016e-08
8.5250392e-08
8.5249708e-08
8.5248876e-08
8.524555e-08
8.5211424e-08
1.3426297e-07
1.3222351e-07
1.3212976e-07
1.3218063e-07
1.3221974e-07
1.3224768e-07
1.3226863e-07
1.3228466e-07
1.322956e-07
1.3230115e-07
1.3230113e-07
1.3229559e-07
1.3228464e-07
1.322686e-07
1.3224764e-07
1.3221969e-07
1.3218056e-07
1.3212968e-07
1.3222344e-07
1.3426291e-07
4.472151e-07
4.2296698e-07
4.2078846e-07
4.2093984e-07
4.2127934e-07
4.2159449e-07
4.2188097e-07
4.2209639e-07
4.2224599e-07
4.2232003e-07
4.2231996e-07
4.2224584e-07
4.2209612e-07
4.2188059e-07
4.2159398e-07
4.2127877e-07
4.2093916e-07
4.207878e-07
4.2296626e-07
4.4721423e-07
2.9030703e-06
2.5603646e-06
2.5192564e-06
2.5143611e-06
2.5174179e-06
2.5223349e-06
2.5266774e-06
2.530425e-06
2.5328341e-06
2.5340733e-06
2.5340726e-06
2.5328322e-06
2.5304217e-06
2.5266727e-06
2.5223287e-06
2.5174108e-06
2.514353e-06
2.5192476e-06
2.5603553e-06
2.9030576e-06
4.8160114e-05
4.1286235e-05
4.0385104e-05
4.0271147e-05
4.0336795e-05
4.0447275e-05
4.0541748e-05
4.0622404e-05
4.0673229e-05
4.0700813e-05
4.07008e-05
4.0673198e-05
4.0622347e-05
4.0541662e-05
4.0447161e-05
4.0336658e-05
4.0270984e-05
4.0384936e-05
4.1286055e-05
4.8159889e-05
0.00023583174
0.00023582769
0.00023583233
0.00023584044
0.00023584908
0.00023585688
0.00023586325
0.00023586803
0.00023587118
0.00023587275
0.00023587275
0.00023587118
0.00023586803
0.00023586325
0.00023585688
0.00023584908
0.00023584044
0.00023583232
0.00023582769
0.00023583174
0.0002349171
0.00023492016
0.00023492684
0.00023493532
0.00023494393
0.00023495163
0.00023495793
0.00023496264
0.00023496576
0.0002349673
0.0002349673
0.00023496576
0.00023496264
0.00023495793
0.00023495163
0.00023494393
0.00023493532
0.00023492684
0.00023492016
0.0002349171
0.00023408463
0.00023409266
0.00023410241
0.00023411238
0.00023412163
0.00023412957
0.00023413593
0.00023414064
0.00023414373
0.00023414526
0.00023414526
0.00023414373
0.00023414064
0.00023413593
0.00023412957
0.00023412163
0.00023411238
0.00023410241
0.00023409266
0.00023408463
0.00023333164
0.00023334454
0.00023335831
0.00023337071
0.00023338123
0.00023338976
0.00023339635
0.00023340112
0.0002334042
0.00023340572
0.00023340572
0.0002334042
0.00023340112
0.00023339635
0.00023338976
0.00023338123
0.00023337071
0.0002333583
0.00023334453
0.00023333164
0.00023265608
0.00023267196
0.00023268935
0.00023270455
0.00023271684
0.00023272637
0.00023273346
0.00023273844
0.00023274161
0.00023274315
0.00023274315
0.00023274161
0.00023273844
0.00023273345
0.00023272637
0.00023271684
0.00023270454
0.00023268935
0.00023267196
0.00023265608
0.00023205258
0.00023206963
0.00023208939
0.00023210695
0.00023212107
0.00023213181
0.00023213962
0.00023214501
0.00023214838
0.00023214999
0.00023214999
0.00023214837
0.00023214501
0.00023213962
0.00023213181
0.00023212107
0.00023210695
0.00023208939
0.00023206963
0.00023205258
0.00023151406
0.00023153109
0.00023155192
0.00023157103
0.00023158662
0.00023159849
0.0002316071
0.00023161299
0.00023161665
0.0002316184
0.0002316184
0.00023161665
0.00023161299
0.0002316071
0.00023159849
0.00023158661
0.00023157103
0.00023155192
0.00023153109
0.00023151406
0.00023103332
0.00023104968
0.00023107058
0.00023109038
0.00023110688
0.00023111962
0.00023112892
0.00023113531
0.00023113928
0.00023114117
0.00023114117
0.00023113927
0.00023113531
0.00023112892
0.00023111962
0.00023110688
0.00023109038
0.00023107058
0.00023104968
0.00023103332
0.00023060384
0.00023061921
0.00023063952
0.00023065929
0.00023067614
0.00023068938
0.00023069916
0.00023070593
0.00023071017
0.0002307122
0.0002307122
0.00023071017
0.00023070593
0.00023069916
0.00023068938
0.00023067614
0.00023065929
0.00023063952
0.00023061921
0.00023060383
0.00023022001
0.00023023427
0.00023025356
0.00023027278
0.00023028949
0.00023030284
0.00023031285
0.00023031986
0.00023032427
0.0002303264
0.0002303264
0.00023032427
0.00023031986
0.00023031285
0.00023030284
0.00023028949
0.00023027278
0.00023025356
0.00023023427
0.00023022001
0.00022987708
0.00022989019
0.00022990824
0.00022992654
0.00022994272
0.00022995586
0.00022996583
0.0002299729
0.00022997739
0.00022997957
0.00022997957
0.00022997739
0.0002299729
0.00022996583
0.00022995586
0.00022994272
0.00022992654
0.00022990824
0.00022989019
0.00022987708
0.00022957096
0.00022958293
0.00022959961
0.00022961678
0.00022963216
0.00022964482
0.00022965455
0.00022966152
0.00022966598
0.00022966815
0.00022966815
0.00022966598
0.00022966152
0.00022965455
0.00022964482
0.00022963216
0.00022961677
0.00022959961
0.00022958293
0.00022957096
0.00022929806
0.00022930893
0.00022932422
0.00022934012
0.00022935453
0.00022936652
0.00022937584
0.00022938257
0.00022938691
0.00022938903
0.00022938903
0.00022938691
0.00022938257
0.00022937584
0.00022936652
0.00022935453
0.00022934012
0.00022932422
0.00022930893
0.00022929806
0.00022905521
0.00022906502
0.00022907894
0.00022909352
0.00022910686
0.00022911806
0.00022912684
0.00022913323
0.00022913737
0.00022913941
0.00022913941
0.00022913737
0.00022913323
0.00022912684
0.00022911806
0.00022910686
0.00022909352
0.00022907894
0.00022906502
0.00022905521
0.0002288395
0.00022884833
0.0002288609
0.00022887417
0.0002288864
0.00022889674
0.0002289049
0.00022891089
0.00022891478
0.0002289167
0.0002289167
0.00022891478
0.00022891089
0.0002289049
0.00022889674
0.0002288864
0.00022887417
0.0002288609
0.00022884833
0.0002288395
0.0002286483
0.00022865619
0.0002286675
0.0002286795
0.00022869061
0.00022870006
0.00022870757
0.00022871311
0.00022871673
0.00022871851
0.00022871851
0.00022871673
0.00022871311
0.00022870757
0.00022870006
0.00022869061
0.0002286795
0.0002286675
0.00022865619
0.0002286483
0.00022847916
0.0002284862
0.00022849633
0.0002285071
0.00022851713
0.00022852571
0.00022853255
0.00022853762
0.00022854094
0.00022854259
0.00022854259
0.00022854094
0.00022853762
0.00022853255
0.00022852571
0.00022851713
0.0002285071
0.00022849633
0.0002284862
0.00022847916
0.00022832987
0.00022833613
0.00022834515
0.00022835479
0.00022836379
0.00022837151
0.0002283777
0.0002283823
0.00022838532
0.00022838682
0.00022838682
0.00022838532
0.0002283823
0.0002283777
0.00022837151
0.00022836379
0.00022835479
0.00022834515
0.00022833613
0.00022832987
0.0002281984
0.00022820395
0.00022821195
0.00022822053
0.00022822856
0.00022823548
0.00022824103
0.00022824517
0.00022824791
0.00022824926
0.00022824926
0.00022824791
0.00022824517
0.00022824103
0.00022823548
0.00022822856
0.00022822053
0.00022821195
0.00022820395
0.0002281984
0.00022808289
0.00022808779
0.00022809487
0.00022810247
0.0002281096
0.00022811576
0.00022812073
0.00022812443
0.00022812688
0.00022812809
0.00022812809
0.00022812688
0.00022812443
0.00022812073
0.00022811576
0.0002281096
0.00022810247
0.00022809487
0.00022808779
0.00022808289
0.00022798167
0.00022798598
0.00022799222
0.00022799892
0.00022800523
0.00022801069
0.0002280151
0.0002280184
0.00022802058
0.00022802166
0.00022802166
0.00022802058
0.0002280184
0.0002280151
0.00022801069
0.00022800523
0.00022799892
0.00022799222
0.00022798598
0.00022798167
0.00022789321
0.00022789699
0.00022790247
0.00022790837
0.00022791392
0.00022791874
0.00022792263
0.00022792555
0.00022792748
0.00022792845
0.00022792845
0.00022792748
0.00022792555
0.00022792263
0.00022791874
0.00022791392
0.00022790837
0.00022790247
0.00022789699
0.00022789321
0.00022781616
0.00022781947
0.00022782426
0.00022782942
0.00022783429
0.00022783852
0.00022784195
0.00022784452
0.00022784622
0.00022784707
0.00022784707
0.00022784622
0.00022784452
0.00022784195
0.00022783852
0.00022783429
0.00022782942
0.00022782426
0.00022781947
0.00022781616
0.0002277493
0.00022775217
0.00022775635
0.00022776085
0.00022776511
0.00022776881
0.00022777181
0.00022777406
0.00022777555
0.0002277763
0.0002277763
0.00022777555
0.00022777406
0.00022777181
0.00022776881
0.00022776511
0.00022776085
0.00022775635
0.00022775217
0.0002277493
0.00022769154
0.00022769403
0.00022769765
0.00022770156
0.00022770526
0.00022770848
0.0002277111
0.00022771306
0.00022771437
0.00022771502
0.00022771502
0.00022771437
0.00022771306
0.0002277111
0.00022770848
0.00022770526
0.00022770156
0.00022769765
0.00022769403
0.00022769154
0.00022764194
0.00022764409
0.00022764721
0.00022765059
0.00022765379
0.00022765658
0.00022765884
0.00022766055
0.00022766168
0.00022766225
0.00022766225
0.00022766168
0.00022766055
0.00022765884
0.00022765658
0.00022765379
0.00022765059
0.00022764721
0.00022764409
0.00022764194
0.00022759966
0.00022760149
0.00022760417
0.00022760708
0.00022760983
0.00022761223
0.00022761419
0.00022761567
0.00022761665
0.00022761714
0.00022761714
0.00022761665
0.00022761566
0.00022761419
0.00022761223
0.00022760983
0.00022760708
0.00022760417
0.00022760149
0.00022759966
0.00022756399
0.00022756555
0.00022756783
0.0002275703
0.00022757266
0.00022757472
0.0002275764
0.00022757767
0.00022757852
0.00022757894
0.00022757894
0.00022757852
0.00022757767
0.0002275764
0.00022757472
0.00022757266
0.0002275703
0.00022756783
0.00022756555
0.00022756399
0.00022753433
0.00022753564
0.00022753756
0.00022753966
0.00022754166
0.00022754342
0.00022754486
0.00022754595
0.00022754668
0.00022754704
0.00022754704
0.00022754668
0.00022754595
0.00022754486
0.00022754342
0.00022754166
0.00022753966
0.00022753756
0.00022753564
0.00022753433
0.00022751019
0.00022751128
0.00022751289
0.00022751465
0.00022751635
0.00022751784
0.00022751907
0.00022752
0.00022752063
0.00022752094
0.00022752094
0.00022752063
0.00022752
0.00022751907
0.00022751784
0.00022751635
0.00022751465
0.00022751289
0.00022751128
0.00022751019
0.00022749121
0.0002274921
0.00022749343
0.0002274949
0.00022749633
0.0002274976
0.00022749865
0.00022749946
0.0002275
0.00022750027
0.00022750027
0.0002275
0.00022749946
0.00022749865
0.0002274976
0.00022749633
0.0002274949
0.00022749343
0.0002274921
0.00022749121
0.0002274771
0.00022747783
0.00022747892
0.00022748015
0.00022748136
0.00022748245
0.00022748336
0.00022748405
0.00022748453
0.00022748477
0.00022748477
0.00022748453
0.00022748405
0.00022748336
0.00022748245
0.00022748136
0.00022748015
0.00022747892
0.00022747783
0.0002274771
0.00022746772
0.00022746831
0.00022746922
0.00022747026
0.0002274713
0.00022747226
0.00022747306
0.00022747369
0.00022747412
0.00022747433
0.00022747433
0.00022747412
0.00022747369
0.00022747306
0.00022747226
0.0002274713
0.00022747026
0.00022746922
0.00022746831
0.00022746772
0.00022746301
0.00022746351
0.0002274643
0.00022746524
0.00022746619
0.00022746707
0.00022746782
0.0002274684
0.0002274688
0.000227469
0.000227469
0.0002274688
0.0002274684
0.00022746782
0.00022746707
0.00022746619
0.00022746524
0.0002274643
0.00022746351
0.00022746301
)
;

boundaryField
{
    Wall
    {
        type            calculated;
        value           uniform 4e-05;
    }
    frontAndBack
    {
        type            empty;
    }
    atmosphere
    {
        type            calculated;
        value           uniform 4e-05;
    }
}


// ************************************************************************* //
