/*--------------------------------*- C++ -*----------------------------------*\
| =========                 |                                                 |
| \\      /  F ield         | OpenFOAM: The Open Source CFD Toolbox           |
|  \\    /   O peration     | Version:  3.0.1                                 |
|   \\  /    A nd           | Web:      www.OpenFOAM.org                      |
|    \\/     M anipulation  |                                                 |
\*---------------------------------------------------------------------------*/
FoamFile
{
    version     2.0;
    format      ascii;
    class       volScalarField;
    location    "15";
    object      TS;
}
// * * * * * * * * * * * * * * * * * * * * * * * * * * * * * * * * * * * * * //

dimensions      [0 0 0 1 0 0 0];

internalField   nonuniform List<scalar> 
800
(
320.15817
320.15959
320.15972
320.15973
320.15974
320.15975
320.15975
320.15976
320.15976
320.15976
320.15976
320.15976
320.15976
320.15975
320.15975
320.15974
320.15973
320.15972
320.15959
320.15817
315.93256
316.00446
316.01339
316.01511
316.01626
316.01739
316.01838
316.01914
316.01964
316.01989
316.01989
316.01964
316.01914
316.01838
316.01739
316.01626
316.01511
316.01339
316.00446
315.93256
312.74916
312.85824
312.87763
312.88129
312.88248
312.88344
312.8843
312.88497
312.88543
312.88566
312.88566
312.88543
312.88497
312.8843
312.88344
312.88248
312.88129
312.87764
312.85824
312.74916
309.78608
309.94787
309.98478
309.9923
309.994
309.99438
309.99465
309.99474
309.99485
309.99489
309.99489
309.99485
309.99474
309.99465
309.99438
309.994
309.99231
309.98478
309.94787
309.78608
306.51621
306.64112
306.68074
306.69227
306.69683
306.69912
306.70071
306.70169
306.70238
306.70268
306.70268
306.70238
306.70169
306.70071
306.69912
306.69684
306.69227
306.68074
306.64112
306.51621
304.7254
304.72402
304.73163
304.7388
304.74501
304.75017
304.75423
304.75723
304.75919
304.76016
304.76016
304.75919
304.75723
304.75423
304.75016
304.74501
304.7388
304.73163
304.72402
304.72539
303.67326
303.67036
303.67314
303.67828
303.68385
303.68893
303.69312
303.69627
303.69836
303.6994
303.6994
303.69836
303.69627
303.69311
303.68893
303.68384
303.67828
303.67314
303.67036
303.67326
303.06914
303.071
303.07521
303.08065
303.08623
303.09127
303.09541
303.09853
303.1006
303.10162
303.10162
303.1006
303.09853
303.09541
303.09127
303.08623
303.08065
303.07521
303.071
303.06914
302.51724
302.52243
302.52874
302.53522
302.54126
302.54648
302.55068
302.5538
302.55586
302.55688
302.55688
302.55586
302.5538
302.55068
302.54648
302.54126
302.53522
302.52874
302.52242
302.51724
302.01648
302.02496
302.034
302.04214
302.04907
302.0547
302.05906
302.06223
302.06428
302.06529
302.06529
302.06428
302.06223
302.05906
302.0547
302.04907
302.04214
302.034
302.02496
302.01648
301.56619
301.57673
301.58824
301.59829
301.60642
301.61273
301.61744
301.62076
301.62287
301.62389
301.62389
301.62287
301.62075
301.61744
301.61273
301.60642
301.59829
301.58824
301.57672
301.56619
301.16337
301.17474
301.18788
301.19955
301.20893
301.21606
301.22126
301.22485
301.22709
301.22817
301.22817
301.22709
301.22485
301.22126
301.21606
301.20893
301.19955
301.18788
301.17474
301.16337
300.80368
300.81506
300.82896
300.8417
300.85208
300.85999
300.86572
300.86965
300.87209
300.87325
300.87325
300.87209
300.86965
300.86572
300.85999
300.85208
300.8417
300.82896
300.81506
300.80368
300.48251
300.49346
300.50743
300.52065
300.53166
300.54016
300.54637
300.55063
300.55327
300.55454
300.55454
300.55327
300.55063
300.54637
300.54016
300.53166
300.52065
300.50743
300.49346
300.48251
300.19558
300.20588
300.21947
300.23269
300.24395
300.25279
300.25932
300.26385
300.26667
300.26803
300.26803
300.26667
300.26385
300.25932
300.25279
300.24395
300.23269
300.21947
300.20588
300.19558
299.93917
299.94872
299.96164
299.9745
299.98568
299.9946
300.00129
300.00598
300.00893
300.01035
300.01035
300.00893
300.00598
300.00129
299.9946
299.98567
299.9745
299.96164
299.94872
299.93917
299.71006
299.71885
299.73094
299.7432
299.75403
299.76282
299.7695
299.77423
299.77723
299.77868
299.77868
299.77723
299.77423
299.7695
299.76282
299.75403
299.7432
299.73094
299.71885
299.71006
299.50552
299.51355
299.52473
299.53623
299.54653
299.55501
299.56153
299.5662
299.56918
299.57064
299.57064
299.56918
299.5662
299.56153
299.55501
299.54653
299.53623
299.52473
299.51355
299.50552
299.32314
299.33042
299.34068
299.35134
299.361
299.36903
299.37528
299.37979
299.38269
299.38412
299.38412
299.38269
299.37979
299.37528
299.36903
299.361
299.35134
299.34068
299.33042
299.32314
299.16078
299.16736
299.17669
299.18647
299.19542
299.20293
299.20882
299.21311
299.21589
299.21725
299.21725
299.21589
299.21311
299.20882
299.20293
299.19542
299.18647
299.17669
299.16736
299.16078
299.01651
299.02243
299.03087
299.03978
299.04798
299.05492
299.0604
299.06442
299.06703
299.06832
299.06832
299.06703
299.06441
299.0604
299.05492
299.04798
299.03978
299.03087
299.02243
299.01651
298.88857
298.89388
298.90147
298.90952
298.91699
298.92334
298.92838
298.93209
298.93453
298.93573
298.93573
298.93453
298.93209
298.92838
298.92334
298.91699
298.90952
298.90147
298.89388
298.88857
298.77536
298.7801
298.78689
298.79413
298.80087
298.80663
298.81123
298.81464
298.81687
298.81798
298.81798
298.81687
298.81464
298.81123
298.80663
298.80087
298.79413
298.78689
298.7801
298.77536
298.6754
298.6796
298.68567
298.69214
298.69819
298.70338
298.70754
298.71063
298.71267
298.71368
298.71368
298.71267
298.71063
298.70754
298.70338
298.69819
298.69214
298.68567
298.6796
298.6754
298.58733
298.59105
298.59644
298.6022
298.6076
298.61226
298.61599
298.61878
298.62062
298.62153
298.62153
298.62062
298.61878
298.61599
298.61226
298.6076
298.6022
298.59644
298.59105
298.58733
298.50992
298.51321
298.51798
298.52309
298.52789
298.53203
298.53537
298.53786
298.53951
298.54033
298.54033
298.53951
298.53786
298.53537
298.53203
298.52789
298.52309
298.51798
298.51321
298.50992
298.44206
298.44496
298.44916
298.45367
298.45792
298.46159
298.46456
298.46678
298.46825
298.46898
298.46898
298.46825
298.46678
298.46456
298.46159
298.45792
298.45367
298.44916
298.44496
298.44206
298.38274
298.38529
298.38897
298.39294
298.39669
298.39993
298.40255
298.40452
298.40582
298.40647
298.40647
298.40582
298.40452
298.40255
298.39993
298.39669
298.39294
298.38897
298.38529
298.38274
298.33106
298.33328
298.33651
298.33998
298.34327
298.34611
298.34842
298.35015
298.3513
298.35187
298.35187
298.3513
298.35015
298.34842
298.34611
298.34327
298.33998
298.33651
298.33328
298.33106
298.28619
298.28812
298.29093
298.29397
298.29684
298.29933
298.30135
298.30287
298.30388
298.30438
298.30438
298.30388
298.30287
298.30135
298.29933
298.29684
298.29397
298.29093
298.28812
298.28619
298.24742
298.24909
298.25153
298.25417
298.25666
298.25883
298.26059
298.26192
298.2628
298.26324
298.26324
298.2628
298.26192
298.26059
298.25883
298.25666
298.25417
298.25153
298.24909
298.24742
298.21411
298.21555
298.21766
298.21994
298.22209
298.22397
298.2255
298.22665
298.22742
298.2278
298.2278
298.22742
298.22665
298.2255
298.22397
298.22209
298.21994
298.21766
298.21555
298.21411
298.18571
298.18695
298.18875
298.19071
298.19257
298.19419
298.19551
298.1965
298.19717
298.1975
298.1975
298.19717
298.1965
298.19551
298.19419
298.19257
298.19071
298.18875
298.18695
298.18571
298.16174
298.16279
298.16433
298.166
298.16759
298.16898
298.17012
298.17097
298.17154
298.17183
298.17183
298.17154
298.17097
298.17012
298.16898
298.16759
298.166
298.16433
298.16279
298.16174
298.14181
298.14269
298.14399
298.14541
298.14676
298.14794
298.14892
298.14965
298.15014
298.15039
298.15039
298.15014
298.14965
298.14892
298.14794
298.14676
298.14541
298.14399
298.14269
298.14181
298.12558
298.12632
298.1274
298.12859
298.12974
298.13075
298.13158
298.13221
298.13263
298.13284
298.13284
298.13263
298.13221
298.13158
298.13075
298.12974
298.12859
298.1274
298.12632
298.12558
298.11282
298.11342
298.11432
298.11531
298.11628
298.11713
298.11784
298.11839
298.11875
298.11894
298.11894
298.11875
298.11839
298.11784
298.11713
298.11628
298.11531
298.11432
298.11342
298.11282
298.10333
298.10382
298.10456
298.10539
298.10621
298.10694
298.10755
298.10803
298.10835
298.10851
298.10851
298.10835
298.10803
298.10755
298.10694
298.10621
298.10539
298.10456
298.10382
298.10333
298.09702
298.09742
298.09803
298.09874
298.09944
298.10009
298.10063
298.10105
298.10134
298.10149
298.10149
298.10134
298.10105
298.10063
298.10009
298.09944
298.09874
298.09803
298.09742
298.09702
298.09386
298.09419
298.09472
298.09536
298.096
298.09659
298.0971
298.09749
298.09777
298.0979
298.0979
298.09777
298.09749
298.0971
298.09659
298.096
298.09536
298.09472
298.09419
298.09386
)
;

boundaryField
{
    Wall
    {
        type            zeroGradient;
    }
    frontAndBack
    {
        type            empty;
    }
    atmosphere
    {
        type            zeroGradient;
    }
}


// ************************************************************************* //
