/*--------------------------------*- C++ -*----------------------------------*\
| =========                 |                                                 |
| \\      /  F ield         | OpenFOAM: The Open Source CFD Toolbox           |
|  \\    /   O peration     | Version:  3.0.1                                 |
|   \\  /    A nd           | Web:      www.OpenFOAM.org                      |
|    \\/     M anipulation  |                                                 |
\*---------------------------------------------------------------------------*/
FoamFile
{
    version     2.0;
    format      ascii;
    class       volVectorField;
    location    "15";
    object      U;
}
// * * * * * * * * * * * * * * * * * * * * * * * * * * * * * * * * * * * * * //

dimensions      [0 1 -1 0 0 0 0];

internalField   nonuniform List<vector> 
800
(
(3.9326643e-06 0.00036147607 0)
(4.6347031e-06 0.00036445447 0)
(3.875559e-06 0.00036477139 0)
(3.3474621e-06 0.00036482981 0)
(2.8229133e-06 0.00036475564 0)
(2.381707e-06 0.00036476724 0)
(1.9236284e-06 0.00036482046 0)
(1.4203613e-06 0.00036487795 0)
(8.7249079e-07 0.00036492183 0)
(2.9447307e-07 0.00036494526 0)
(-2.9394752e-07 0.00036494525 0)
(-8.7204215e-07 0.00036492179 0)
(-1.4200084e-06 0.00036487789 0)
(-1.9233281e-06 0.00036482039 0)
(-2.3813658e-06 0.00036476719 0)
(-2.8224541e-06 0.0003647556 0)
(-3.3468935e-06 0.00036482978 0)
(-3.8750358e-06 0.00036477134 0)
(-4.6345001e-06 0.00036445437 0)
(-3.9327081e-06 0.00036147585 0)
(2.0289205e-06 0.00067611594 0)
(2.3076824e-06 0.00068150328 0)
(2.3346187e-06 0.00068195863 0)
(2.5712416e-06 0.00068205483 0)
(2.3133023e-06 0.00068191275 0)
(2.0633591e-06 0.00068190381 0)
(1.7110686e-06 0.00068195527 0)
(1.2800697e-06 0.00068201882 0)
(7.9173052e-07 0.00068206938 0)
(2.6803378e-07 0.00068209662 0)
(-2.676771e-07 0.00068209659 0)
(-7.9142765e-07 0.00068206928 0)
(-1.2798323e-06 0.00068201867 0)
(-1.7108539e-06 0.0006819551 0)
(-2.0630953e-06 0.00068190365 0)
(-2.3129374e-06 0.00068191258 0)
(-2.5708039e-06 0.00068205463 0)
(-2.3342412e-06 0.00068195835 0)
(-2.3076008e-06 0.00068150287 0)
(-2.0289949e-06 0.00067611529 0)
(2.0209553e-06 0.0012761725 0)
(1.8421932e-06 0.0012840158 0)
(1.434171e-06 0.001284936 0)
(2.1404549e-06 0.0012850532 0)
(2.0260568e-06 0.0012850418 0)
(1.9265974e-06 0.0012851505 0)
(1.6376337e-06 0.0012852965 0)
(1.2375365e-06 0.0012854302 0)
(7.6795918e-07 0.0012855251 0)
(2.6013473e-07 0.0012855736 0)
(-2.5990017e-07 0.0012855736 0)
(-7.6775624e-07 0.001285525 0)
(-1.2373685e-06 0.00128543 0)
(-1.6374665e-06 0.0012852962 0)
(-1.9263809e-06 0.0012851502 0)
(-2.0257734e-06 0.0012850415 0)
(-2.1401461e-06 0.0012850529 0)
(-1.4339412e-06 0.0012849356 0)
(-1.8422525e-06 0.0012840152 0)
(-2.0210856e-06 0.0012761716 0)
(5.8780187e-07 0.001827962 0)
(1.8208031e-07 0.0018366526 0)
(6.3922678e-07 0.001838252 0)
(1.9832711e-06 0.0018384636 0)
(2.1147338e-06 0.0018387409 0)
(2.0760291e-06 0.0018390566 0)
(1.7718077e-06 0.0018393322 0)
(1.333942e-06 0.0018395434 0)
(8.2336866e-07 0.0018396789 0)
(2.7803102e-07 0.0018397456 0)
(-2.7788537e-07 0.0018397456 0)
(-8.2323616e-07 0.0018396788 0)
(-1.3338178e-06 0.0018395432 0)
(-1.7716687e-06 0.001839332 0)
(-2.075847e-06 0.0018390563 0)
(-2.1145223e-06 0.0018387406 0)
(-1.9830751e-06 0.0018384631 0)
(-6.3911567e-07 0.0018382515 0)
(-1.8223366e-07 0.001836652 0)
(-5.8796885e-07 0.0018279613 0)
(-9.0597858e-07 0.0022943824 0)
(-8.1135444e-07 0.0023047008 0)
(1.1941042e-06 0.0023074238 0)
(2.6963118e-06 0.0023083643 0)
(2.931755e-06 0.0023092208 0)
(2.7345464e-06 0.0023098601 0)
(2.2461389e-06 0.0023102892 0)
(1.6480313e-06 0.0023105646 0)
(1.0007805e-06 0.0023107228 0)
(3.3550847e-07 0.0023107983 0)
(-3.3543854e-07 0.0023107982 0)
(-1.0007056e-06 0.0023107227 0)
(-1.6479389e-06 0.0023105644 0)
(-2.2460091e-06 0.0023102889 0)
(-2.7343795e-06 0.0023098597 0)
(-2.9316036e-06 0.0023092204 0)
(-2.696199e-06 0.0023083638 0)
(-1.1940492e-06 0.0023074233 0)
(8.1121016e-07 0.0023047003 0)
(9.0583145e-07 0.0022943818 0)
(-8.7715695e-07 0.0026536894 0)
(1.0086795e-06 0.0026717013 0)
(4.5788784e-06 0.0026767723 0)
(5.522746e-06 0.0026791097 0)
(5.1737889e-06 0.002680476 0)
(4.3385327e-06 0.0026812026 0)
(3.3360069e-06 0.0026815639 0)
(2.3521706e-06 0.002681734 0)
(1.4018131e-06 0.0026818062 0)
(4.6675098e-07 0.00268183 0)
(-4.668034e-07 0.0026818299 0)
(-1.4018361e-06 0.0026818061 0)
(-2.3521444e-06 0.0026817338 0)
(-3.3359129e-06 0.0026815637 0)
(-4.3383899e-06 0.0026812024 0)
(-5.1737349e-06 0.0026804758 0)
(-5.5227049e-06 0.0026791096 0)
(-4.5788074e-06 0.0026767721 0)
(-1.0087971e-06 0.0026717012 0)
(8.7702303e-07 0.0026536893 0)
(2.4035109e-05 0.002998339 0)
(3.5144129e-05 0.0030271359 0)
(2.2578528e-05 0.0030335182 0)
(1.6008801e-05 0.0030368772 0)
(1.1508849e-05 0.0030385518 0)
(8.3349493e-06 0.0030393123 0)
(5.8969324e-06 0.0030395849 0)
(3.9544015e-06 0.0030396909 0)
(2.2920309e-06 0.0030397038 0)
(7.4889891e-07 0.0030396907 0)
(-7.4905711e-07 0.0030396907 0)
(-2.2921235e-06 0.0030397037 0)
(-3.9543637e-06 0.0030396907 0)
(-5.8967897e-06 0.0030395847 0)
(-8.3347221e-06 0.0030393122 0)
(-1.1508752e-05 0.0030385517 0)
(-1.6008752e-05 0.0030368771 0)
(-2.2578392e-05 0.0030335181 0)
(-3.5144121e-05 0.0030271359 0)
(-2.4035149e-05 0.0029983391 0)
(0.00015233424 0.0030060639 0)
(0.00022027152 0.0031502783 0)
(0.00014769123 0.0031544429 0)
(9.7111967e-05 0.0031501156 0)
(6.4973933e-05 0.0031476835 0)
(4.415228e-05 0.0031465198 0)
(2.9854696e-05 0.0031458655 0)
(1.9339067e-05 0.0031455728 0)
(1.0910435e-05 0.003145424 0)
(3.5290559e-06 0.0031453774 0)
(-3.5298066e-06 0.0031453772 0)
(-1.0911042e-05 0.0031454238 0)
(-1.9339362e-05 0.0031455725 0)
(-2.985473e-05 0.0031458653 0)
(-4.4152119e-05 0.0031465198 0)
(-6.4973801e-05 0.0031476837 0)
(-9.7111851e-05 0.0031501157 0)
(-0.00014769094 0.003154443 0)
(-0.00022027116 0.0031502786 0)
(-0.000152334 0.0030060646 0)
(0.00036702544 0.0024079203 0)
(0.00066640708 0.0030545914 0)
(0.00059691255 0.0031201826 0)
(0.00046935723 0.0030964329 0)
(0.00035070109 0.0030689089 0)
(0.0002540758 0.0030493443 0)
(0.00017804316 0.0030367893 0)
(0.0001173906 0.0030292467 0)
(6.6757912e-05 0.0030250685 0)
(2.1731161e-05 0.0030232172 0)
(-2.1734581e-05 0.0030232167 0)
(-6.6761177e-05 0.0030250679 0)
(-0.00011739333 0.0030292457 0)
(-0.00017804527 0.003036788 0)
(-0.00025407718 0.0030493437 0)
(-0.00035070187 0.0030689086 0)
(-0.00046935812 0.0030964326 0)
(-0.00059691337 0.0031201825 0)
(-0.0006664075 0.0030545919 0)
(-0.00036702562 0.0024079216 0)
(0.00027900607 0.0018381232 0)
(0.0006202593 0.0028692216 0)
(0.00068201634 0.0031342903 0)
(0.00061402106 0.0031740598 0)
(0.00050164787 0.0031503614 0)
(0.0003857566 0.0031150894 0)
(0.00028113871 0.0030843169 0)
(0.00019000872 0.0030620702 0)
(0.00010962839 0.003048203 0)
(3.5969232e-05 0.0030415893 0)
(-3.5974683e-05 0.0030415885 0)
(-0.00010963362 0.0030482015 0)
(-0.00019001312 0.0030620679 0)
(-0.00028114215 0.0030843145 0)
(-0.00038575929 0.0031150878 0)
(-0.0005016497 0.0031503603 0)
(-0.00061402267 0.0031740591 0)
(-0.00068201771 0.00313429 0)
(-0.00062026009 0.0028692217 0)
(-0.00027900635 0.0018381237 0)
(0.00016399569 0.0014566789 0)
(0.00044232801 0.0026652427 0)
(0.00057056922 0.0031140212 0)
(0.00056975832 0.0032517423 0)
(0.00050039404 0.0032656196 0)
(0.00040541713 0.0032363233 0)
(0.00030662333 0.0031987071 0)
(0.00021249076 0.0031669127 0)
(0.00012450001 0.0031454188 0)
(4.1169278e-05 0.0031347832 0)
(-4.117414e-05 0.0031347822 0)
(-0.00012450468 0.0031454163 0)
(-0.00021249488 0.003166909 0)
(-0.00030662694 0.0031987036 0)
(-0.00040541998 0.0032363206 0)
(-0.00050039558 0.0032656176 0)
(-0.00056975931 0.0032517409 0)
(-0.00057057034 0.0031140202 0)
(-0.00044232848 0.0026652418 0)
(-0.00016399554 0.0014566784 0)
(8.7913446e-05 0.0012225326 0)
(0.0002835252 0.0024692731 0)
(0.00041972252 0.0030403976 0)
(0.00045664927 0.0032698372 0)
(0.00042656427 0.0033342634 0)
(0.00036205105 0.0033261373 0)
(0.00028343766 0.003293526 0)
(0.00020125846 0.0032599447 0)
(0.00011975481 0.0032352589 0)
(3.9897203e-05 0.0032225957 0)
(-3.9899701e-05 0.0032225947 0)
(-0.0001197571 0.0032352562 0)
(-0.00020126072 0.0032599403 0)
(-0.00028343972 0.0032935218 0)
(-0.00036205264 0.0033261335 0)
(-0.00042656501 0.003334261 0)
(-0.00045664935 0.0032698353 0)
(-0.00041972249 0.003040396 0)
(-0.00028352492 0.0024692716 0)
(-8.791309e-05 0.0012225316 0)
(4.5411837e-05 0.0010862956 0)
(0.00017241997 0.0023150778 0)
(0.00028817688 0.0029542957 0)
(0.00033752273 0.0032534074 0)
(0.00033276042 0.0033657125 0)
(0.00029443995 0.0033841078 0)
(0.0002379341 0.0033635814 0)
(0.00017286119 0.0033342198 0)
(0.00010439235 0.0033103634 0)
(3.5018843e-05 0.0032976208 0)
(-3.5018487e-05 0.0032976199 0)
(-0.00010439202 0.0033103605 0)
(-0.00017286075 0.0033342153 0)
(-0.0002379337 0.0033635768 0)
(-0.00029443953 0.0033841037 0)
(-0.00033275953 0.0033657097 0)
(-0.00033752132 0.0032534053 0)
(-0.0002881756 0.0029542942 0)
(-0.00017241901 0.0023150763 0)
(-4.5411317e-05 0.0010862946 0)
(2.3523762e-05 0.0010084605 0)
(0.00010287687 0.0022070511 0)
(0.00019045972 0.0028800168 0)
(0.00023765615 0.0032262654 0)
(0.00024568085 0.0033769879 0)
(0.00022564346 0.00342063 0)
(0.0001876884 0.0034146097 0)
(0.0001392761 0.0033927284 0)
(8.5282362e-05 0.0033723265 0)
(2.8787311e-05 0.003360892 0)
(-2.8784247e-05 0.0033608908 0)
(-8.5279593e-05 0.0033723235 0)
(-0.00013927335 0.0033927237 0)
(-0.00018768598 0.003414605 0)
(-0.00022564152 0.0034206258 0)
(-0.00024567875 0.0033769847 0)
(-0.00023765399 0.0032262634 0)
(-0.00019045793 0.002880016 0)
(-0.00010287558 0.0022070503 0)
(-2.3523353e-05 0.0010084594 0)
(1.2573084e-05 0.00096360465 0)
(6.1571713e-05 0.0021348458 0)
(0.00012358265 0.0028228343 0)
(0.0001626134 0.0031988016 0)
(0.00017517773 0.0033775802 0)
(0.00016630399 0.003442232 0)
(0.00014198238 0.0034501399 0)
(0.00010741117 0.0034367243 0)
(6.6611587e-05 0.0034209837 0)
(2.2612481e-05 0.0034115875 0)
(-2.260769e-05 0.0034115862 0)
(-6.6607208e-05 0.003420981 0)
(-0.00010740738 0.0034367201 0)
(-0.00014197892 0.0034501354 0)
(-0.00016630088 0.0034422279 0)
(-0.00017517478 0.0033775774 0)
(-0.00016261058 0.0031988003 0)
(-0.0001235806 0.0028228345 0)
(-6.1570834e-05 0.0021348459 0)
(-1.2572942e-05 0.00096360386 0)
(7.0039881e-06 0.0009372016 0)
(3.7362387e-05 0.0020874916 0)
(7.970453e-05 0.002781233 0)
(0.0001095329 0.0031751225 0)
(0.00012223028 0.0033732477 0)
(0.00011945234 0.003454058 0)
(0.00010437049 0.0034738782 0)
(8.0332672e-05 0.003468487 0)
(5.039235e-05 0.003457579 0)
(1.7193853e-05 0.003450428 0)
(-1.7188406e-05 0.003450427 0)
(-5.0387083e-05 0.0034575767 0)
(-8.0328051e-05 0.0034684834 0)
(-0.0001043665 0.0034738741 0)
(-0.00011944856 0.0034540545 0)
(-0.00012222686 0.0033732455 0)
(-0.00010952991 0.0031751223 0)
(-7.970227e-05 0.0027812347 0)
(-3.7361619e-05 0.0020874932 0)
(-7.0040317e-06 0.00093720157 0)
(4.0549591e-06 0.00092128855 0)
(2.3054295e-05 0.0020566814 0)
(5.1455162e-05 0.0027520052 0)
(7.3230076e-05 0.0031564393 0)
(8.4184561e-05 0.0033674571 0)
(8.435708e-05 0.0034600984 0)
(7.5212218e-05 0.0034894141 0)
(5.8776414e-05 0.0034909155 0)
(3.7245395e-05 0.0034844105 0)
(1.2765752e-05 0.0034793828 0)
(-1.276031e-05 0.003479382 0)
(-3.724036e-05 0.0034844085 0)
(-5.8772009e-05 0.0034909124 0)
(-7.5208261e-05 0.0034894105 0)
(-8.4353233e-05 0.0034600956 0)
(-8.4181086e-05 0.0033674558 0)
(-7.322708e-05 0.0031564399 0)
(-5.1453108e-05 0.0027520082 0)
(-2.3053715e-05 0.0020566844 0)
(-4.0550525e-06 0.0009212894 0)
(2.419767e-06 0.00091148905 0)
(1.4448988e-05 0.0020366481 0)
(3.3362077e-05 0.0027318749 0)
(4.8832431e-05 0.0031424498 0)
(5.7547184e-05 0.0033619034 0)
(5.8909101e-05 0.0034629443 0)
(5.3445632e-05 0.0034994906 0)
(4.2320505e-05 0.0035065537 0)
(2.705541e-05 0.0035037583 0)
(9.3101823e-06 0.0035005682 0)
(-9.305258e-06 0.0035005676 0)
(-2.7050992e-05 0.0035037568 0)
(-4.2316398e-05 0.0035065511 0)
(-5.3441781e-05 0.0034994878 0)
(-5.8905204e-05 0.0034629423 0)
(-5.7543988e-05 0.0033619029 0)
(-4.8829855e-05 0.0031424514 0)
(-3.3360297e-05 0.0027318788 0)
(-1.444822e-05 0.0020366524 0)
(-2.4195086e-06 0.00091149092 0)
(1.4730602e-06 0.0009053499 0)
(9.1694933e-06 0.0020235769 0)
(2.1745555e-05 0.0027181454 0)
(3.2561446e-05 0.0031322907 0)
(3.9172133e-05 0.0033572193 0)
(4.0828501e-05 0.0034641111 0)
(3.7595785e-05 0.0035059968 0)
(3.0108426e-05 0.0035173606 0)
(1.939506e-05 0.0035175315 0)
(6.6972114e-06 0.0035158409 0)
(-6.6932575e-06 0.0035158408 0)
(-1.9391236e-05 0.0035175303 0)
(-3.0104936e-05 0.0035173585 0)
(-3.7592714e-05 0.0035059948 0)
(-4.0825797e-05 0.0034641098 0)
(-3.9169717e-05 0.0033572197 0)
(-3.2559516e-05 0.0031322938 0)
(-2.1744001e-05 0.0027181506 0)
(-9.1690138e-06 0.0020235823 0)
(-1.4733413e-06 0.00090535273 0)
(9.0665593e-07 0.00090145741 0)
(5.8711888e-06 0.0020150097 0)
(1.4242104e-05 0.0027088239 0)
(2.1732454e-05 0.0031250514 0)
(2.65996e-05 0.0033535255 0)
(2.8148587e-05 0.0034644458 0)
(2.6247252e-05 0.0035101913 0)
(2.1223245e-05 0.0035247824 0)
(1.3760543e-05 0.0035272394 0)
(4.7658321e-06 0.0035267234 0)
(-4.7626326e-06 0.0035267233 0)
(-1.3757427e-05 0.0035272382 0)
(-2.1220624e-05 0.0035247808 0)
(-2.6245237e-05 0.0035101899 0)
(-2.8146622e-05 0.0034644451 0)
(-2.6597975e-05 0.0033535267 0)
(-2.1731324e-05 0.0031250553 0)
(-1.4241114e-05 0.0027088301 0)
(-5.8709004e-06 0.0020150159 0)
(-9.0675758e-07 0.00090146102 0)
(5.5982013e-07 0.00089897139 0)
(3.7802228e-06 0.0020093714 0)
(9.36239e-06 0.0027025086 0)
(1.4520132e-05 0.003119956 0)
(1.8033654e-05 0.0033507285 0)
(1.9330523e-05 0.0034644036 0)
(1.8217496e-05 0.0035128981 0)
(1.4851445e-05 0.0035298583 0)
(9.6824238e-06 0.0035340301 0)
(3.3618106e-06 0.0035344068 0)
(-3.3596347e-06 0.0035344065 0)
(-9.6800332e-06 0.0035340291 0)
(-1.4849284e-05 0.0035298571 0)
(-1.8215937e-05 0.0035128968 0)
(-1.9329341e-05 0.0034644035 0)
(-1.8032695e-05 0.0033507302 0)
(-1.4519577e-05 0.0031199603 0)
(-9.3620759e-06 0.0027025152 0)
(-3.7802544e-06 0.0020093784 0)
(-5.5997627e-07 0.00089897537 0)
(3.4438071e-07 0.0008973782 0)
(2.4404227e-06 0.0020056495 0)
(6.1696652e-06 0.0026982337 0)
(9.7083636e-06 0.0031163985 0)
(1.2210555e-05 0.0033486658 0)
(1.3233283e-05 0.0034642171 0)
(1.2584718e-05 0.0035146481 0)
(1.0330848e-05 0.0035333194 0)
(6.7667643e-06 0.0035387513 0)
(2.3545388e-06 0.0035397911 0)
(-2.3532201e-06 0.0035397909 0)
(-6.7654822e-06 0.0035387506 0)
(-1.0329785e-05 0.0035333185 0)
(-1.2583736e-05 0.0035146469 0)
(-1.3232403e-05 0.0034642171 0)
(-1.2210024e-05 0.0033486678 0)
(-9.7076617e-06 0.0031164029 0)
(-6.1690988e-06 0.0026982403 0)
(-2.4405076e-06 0.0020056566 0)
(-3.4457813e-07 0.0008973822 0)
(2.0981018e-07 0.00089635665 0)
(1.5757958e-06 0.0020031877 0)
(4.0700834e-06 0.0026953415 0)
(6.4919575e-06 0.003113929 0)
(8.257071e-06 0.0033471716 0)
(9.0342318e-06 0.0034639975 0)
(8.6586799e-06 0.0035157815 0)
(7.1501658e-06 0.0035356737 0)
(4.7021107e-06 0.0035420177 0)
(1.6391053e-06 0.0035435417 0)
(-1.6384583e-06 0.0035435414 0)
(-4.7015297e-06 0.003542017 0)
(-7.1500378e-06 0.003535673 0)
(-8.6582353e-06 0.0035157809 0)
(-9.0335702e-06 0.0034639978 0)
(-8.2566096e-06 0.0033471734 0)
(-6.4912302e-06 0.0031139334 0)
(-4.069172e-06 0.002695348 0)
(-1.5753934e-06 0.0020031948 0)
(-2.0976671e-07 0.00089636079 0)
(1.2573018e-07 0.00089570312 0)
(1.0154465e-06 0.0020015585 0)
(2.6841786e-06 0.002693386 0)
(4.3382703e-06 0.0031122221 0)
(5.575282e-06 0.0033461027 0)
(6.1521247e-06 0.0034637932 0)
(5.9366028e-06 0.003516517 0)
(4.9276589e-06 0.0035372718 0)
(3.2517783e-06 0.0035442679 0)
(1.1351578e-06 0.0035461407 0)
(-1.1355058e-06 0.0035461404 0)
(-3.2518402e-06 0.0035442673 0)
(-4.9278159e-06 0.003537271 0)
(-5.93649e-06 0.0035165164 0)
(-6.1518497e-06 0.0034637935 0)
(-5.5751809e-06 0.0033461044 0)
(-4.3379945e-06 0.0031122263 0)
(-2.6836194e-06 0.0026933925 0)
(-1.0152334e-06 0.0020015654 0)
(-1.2592297e-07 0.00089570722 0)
(7.3806686e-08 0.00089528713 0)
(6.5188581e-07 0.0020004804 0)
(1.7679082e-06 0.0026920647 0)
(2.8960042e-06 0.0031110464 0)
(3.7582531e-06 0.0033453451 0)
(4.1788549e-06 0.0034636213 0)
(4.0569192e-06 0.0035169947 0)
(3.382824e-06 0.0035383546 0)
(2.2391747e-06 0.0035458121 0)
(7.8298964e-07 0.0035479334 0)
(-7.8314548e-07 0.0035479329 0)
(-2.2396031e-06 0.0035458116 0)
(-3.3834115e-06 0.0035383533 0)
(-4.0573666e-06 0.0035169938 0)
(-4.1788412e-06 0.0034636208 0)
(-3.7577993e-06 0.0033453464 0)
(-2.8954865e-06 0.00311105 0)
(-1.7671843e-06 0.0026920713 0)
(-6.5137745e-07 0.0020004872 0)
(-7.3775283e-08 0.00089529117 0)
(4.1514405e-08 0.00089502441 0)
(4.1578662e-07 0.0019997679 0)
(1.1618306e-06 0.0026911733 0)
(1.9295808e-06 0.003110239 0)
(2.5277275e-06 0.0033448117 0)
(2.831119e-06 0.0034634841 0)
(2.7641147e-06 0.0035173048 0)
(2.3142165e-06 0.0035390863 0)
(1.5357001e-06 0.0035468685 0)
(5.3737715e-07 0.0035491649 0)
(-5.3852379e-07 0.0035491643 0)
(-1.5368644e-06 0.0035468675 0)
(-2.3149052e-06 0.0035390847 0)
(-2.7645023e-06 0.0035173035 0)
(-2.8314103e-06 0.0034634832 0)
(-2.5276943e-06 0.0033448124 0)
(-1.9291771e-06 0.0031102419 0)
(-1.1610571e-06 0.0026911798 0)
(-4.1528531e-07 0.0019997753 0)
(-4.1456063e-08 0.0008950285 0)
(2.2067309e-08 0.00089486001 0)
(2.6301825e-07 0.0019992987 0)
(7.6069483e-07 0.0026905734 0)
(1.2825081e-06 0.0031096859 0)
(1.6962714e-06 0.0033444386 0)
(1.9129889e-06 0.0034633782 0)
(1.8774728e-06 0.003517506 0)
(1.5778927e-06 0.0035395795 0)
(1.0493639e-06 0.0035475888 0)
(3.6725763e-07 0.0035500079 0)
(-3.6887844e-07 0.0035500075 0)
(-1.0509158e-06 0.0035475877 0)
(-1.5788526e-06 0.0035395782 0)
(-1.8781819e-06 0.0035175044 0)
(-1.9135686e-06 0.0034633771 0)
(-1.6963594e-06 0.0033444386 0)
(-1.2821756e-06 0.0031096882 0)
(-7.6011985e-07 0.0026905791 0)
(-2.6257081e-07 0.0019993062 0)
(-2.1963636e-08 0.00089486421 0)
(1.0749437e-08 0.00089475857 0)
(1.647961e-07 0.0019989907 0)
(4.9607365e-07 0.0026901699 0)
(8.4993886e-07 0.003109308 0)
(1.1352263e-06 0.0033441787 0)
(1.2892025e-06 0.0034632986 0)
(1.271304e-06 0.0035176364 0)
(1.072303e-06 0.0035399119 0)
(7.1486934e-07 0.0035480786 0)
(2.500409e-07 0.0035505835 0)
(-2.5222455e-07 0.0035505828 0)
(-7.1672261e-07 0.0035480771 0)
(-1.0741382e-06 0.0035399102 0)
(-1.2730582e-06 0.0035176345 0)
(-1.2905734e-06 0.0034632969 0)
(-1.1361193e-06 0.0033441778 0)
(-8.5016192e-07 0.0031093096 0)
(-4.9598139e-07 0.002690175 0)
(-1.6445323e-07 0.0019989979 0)
(-1.043983e-08 0.00089476296 0)
(4.0802532e-09 0.00089469742 0)
(1.0164435e-07 0.0019987892 0)
(3.217251e-07 0.0026898993 0)
(5.616884e-07 0.0031090502 0)
(7.5788973e-07 0.0033439981 0)
(8.6651077e-07 0.0034632396 0)
(8.5865257e-07 0.0035177208 0)
(7.2653802e-07 0.0035401354 0)
(4.8510323e-07 0.0035484106 0)
(1.6921758e-07 0.003550975 0)
(-1.7258894e-07 0.0035509745 0)
(-4.8809373e-07 0.0035484093 0)
(-7.29356e-07 0.0035401329 0)
(-8.6128092e-07 0.0035177182 0)
(-8.6874883e-07 0.0034632372 0)
(-7.5956131e-07 0.0033439965 0)
(-5.6245109e-07 0.0031090512 0)
(-3.2205379e-07 0.002689904 0)
(-1.014845e-07 0.0019987963 0)
(-3.7615817e-09 0.00089470165 0)
(4.9594365e-10 0.00089466156 0)
(6.1786477e-08 0.0019986583 0)
(2.0763852e-07 0.0026897184 0)
(3.6982202e-07 0.0031088748 0)
(5.0455759e-07 0.0033438732 0)
(5.8119105e-07 0.0034631964 0)
(5.7885203e-07 0.0035177754 0)
(4.9122609e-07 0.0035402851 0)
(3.2811566e-07 0.0035486354 0)
(1.138102e-07 0.003551241 0)
(-1.182486e-07 0.0035512407 0)
(-3.3242244e-07 0.0035486341 0)
(-4.9510059e-07 0.0035402823 0)
(-5.8210893e-07 0.0035177723 0)
(-5.8415615e-07 0.0034631935 0)
(-5.0725081e-07 0.003343871 0)
(-3.7163641e-07 0.0031088749 0)
(-2.0866781e-07 0.0026897223 0)
(-6.211631e-08 0.0019986645 0)
(-4.4934096e-10 0.00089466506 0)
(-1.3963403e-09 0.00089464117 0)
(3.6678617e-08 0.0019985737 0)
(1.3349978e-07 0.0026895976 0)
(2.4344699e-07 0.0031087559 0)
(3.3608987e-07 0.0033437871 0)
(3.8970005e-07 0.0034631652 0)
(3.8970464e-07 0.0035178104 0)
(3.3164685e-07 0.0035403855 0)
(2.2178994e-07 0.0035487876 0)
(7.6189316e-08 0.0035514216 0)
(-8.1843795e-08 0.0035514211 0)
(-2.2706656e-07 0.003548786 0)
(-3.367336e-07 0.0035403826 0)
(-3.9465705e-07 0.0035178071 0)
(-3.9430144e-07 0.0034631617 0)
(-3.3988971e-07 0.003343784 0)
(-2.4633563e-07 0.0031087545 0)
(-1.3552294e-07 0.0026895999 0)
(-3.7517987e-08 0.0019985786 0)
(1.34779e-09 0.00089464412 0)
(-1.976313e-09 0.00089463025 0)
(2.1874705e-08 0.001998519 0)
(8.6227889e-08 0.0026895167 0)
(1.6070774e-07 0.0031086751 0)
(2.2450301e-07 0.0033437278 0)
(2.62204e-07 0.0034631431 0)
(2.6333067e-07 0.0035178335 0)
(2.2432292e-07 0.0035404533 0)
(1.4943726e-07 0.0035488911 0)
(5.0418694e-08 0.0035515445 0)
(-5.7054201e-08 0.003551544 0)
(-1.5604885e-07 0.0035488896 0)
(-2.3055057e-07 0.0035404504 0)
(-2.6930927e-07 0.0035178298 0)
(-2.6802164e-07 0.0034631388 0)
(-2.2995011e-07 0.0033437237 0)
(-1.6522364e-07 0.0031086724 0)
(-8.9096417e-08 0.0026895176 0)
(-2.2775177e-08 0.0019985224 0)
(1.9634273e-09 0.00089463259 0)
(-2.0415422e-09 0.00089462471 0)
(1.2894226e-08 0.0019984835 0)
(5.6673941e-08 0.0026894623 0)
(1.0845467e-07 0.0031086197 0)
(1.5262863e-07 0.0033436869 0)
(1.7871928e-07 0.0034631277 0)
(1.7975101e-07 0.0035178494 0)
(1.5284615e-07 0.0035404998 0)
(1.0157735e-07 0.0035489622 0)
(3.348371e-08 0.0035516291 0)
(-4.0761147e-08 0.0035516286 0)
(-1.0905405e-07 0.0035489605 0)
(-1.6045086e-07 0.0035404967 0)
(-1.8695445e-07 0.0035178452 0)
(-1.8556715e-07 0.0034631228 0)
(-1.588777e-07 0.0033436818 0)
(-1.1384178e-07 0.0031086157 0)
(-6.0683346e-08 0.0026894611 0)
(-1.4553948e-08 0.0019984846 0)
(1.9442679e-09 0.00089462573 0)
(-1.4672485e-09 0.0008946216 0)
(8.8859204e-09 0.0019984597 0)
(4.0052584e-08 0.002689425 0)
(7.6742746e-08 0.0031085814 0)
(1.0787063e-07 0.0033436586 0)
(1.258177e-07 0.0034631172 0)
(1.2578776e-07 0.0035178606 0)
(1.0643142e-07 0.0035405324 0)
(6.9791952e-08 0.0035490116 0)
(2.1618196e-08 0.003551688 0)
(-3.0449096e-08 0.0035516875 0)
(-7.8272451e-08 0.0035490096 0)
(-1.14703e-07 0.0035405291 0)
(-1.3397662e-07 0.003517856 0)
(-1.3374384e-07 0.0034631116 0)
(-1.1546863e-07 0.0033436527 0)
(-8.3294801e-08 0.0031085759 0)
(-4.4809749e-08 0.0026894211 0)
(-1.0995046e-08 0.0019984581 0)
(1.3346526e-09 0.00089462134 0)
(-5.9481957e-10 0.00089461892 0)
(8.7233489e-09 0.0019984415 0)
(3.3170903e-08 0.0026893976 0)
(6.0138675e-08 0.0031085539 0)
(8.2341627e-08 0.0033436392 0)
(9.4126744e-08 0.0034631106 0)
(9.248009e-08 0.0035178693 0)
(7.7275721e-08 0.0035405562 0)
(4.9812173e-08 0.0035490472 0)
(1.4157452e-08 0.0035517303 0)
(-2.3910029e-08 0.0035517297 0)
(-5.9067645e-08 0.0035490452 0)
(-8.6575172e-08 0.003540553 0)
(-1.020333e-07 0.0035178647 0)
(-1.0326277e-07 0.0034631044 0)
(-9.0970516e-08 0.003343632 0)
(-6.7873238e-08 0.0031085468 0)
(-3.8577958e-08 0.002689391 0)
(-1.1038507e-08 0.0019984373 0)
(2.9193038e-10 0.00089461732 0)
(1.1388873e-09 0.00089461541 0)
(1.2070505e-08 0.0019984257 0)
(3.4173667e-08 0.0026893759 0)
(5.5691608e-08 0.003108534 0)
(7.135924e-08 0.0033436265 0)
(7.8087921e-08 0.0034631082 0)
(7.426362e-08 0.0035178782 0)
(6.0128389e-08 0.003540576 0)
(3.7544237e-08 0.0035490753 0)
(9.4220804e-09 0.0035517627 0)
(-2.0538121e-08 0.003551762 0)
(-4.8378111e-08 0.0035490731 0)
(-7.0620889e-08 0.0035405725 0)
(-8.4614691e-08 0.0035178733 0)
(-8.8146437e-08 0.0034631016 0)
(-8.0946785e-08 0.003343618 0)
(-6.4268468e-08 0.0031085246 0)
(-4.0053083e-08 0.0026893665 0)
(-1.4334368e-08 0.0019984184 0)
(-1.3722963e-09 0.00089461217 0)
(3.5815713e-09 0.00089461035 0)
(1.8855108e-08 0.0019984112 0)
(4.2468279e-08 0.0026893593 0)
(6.1457442e-08 0.003108522 0)
(7.2503882e-08 0.0033436223 0)
(7.4035618e-08 0.0034631132 0)
(6.6606629e-08 0.0035178924 0)
(5.1547178e-08 0.0035405979 0)
(3.0851999e-08 0.003549103 0)
(6.6193605e-09 0.0035517931 0)
(-1.8877939e-08 0.0035517925 0)
(-4.3005427e-08 0.0035491006 0)
(-6.3196303e-08 0.0035405941 0)
(-7.7765649e-08 0.0035178869 0)
(-8.5025849e-08 0.003463106 0)
(-8.2682907e-08 0.0033436128 0)
(-7.0195002e-08 0.0031085107 0)
(-4.8706816e-08 0.0026893473 0)
(-2.1558998e-08 0.001998401 0)
(-3.9320933e-09 0.00089460552 0)
(9.4212839e-09 0.00089459422 0)
(3.2638429e-08 0.0019983831 0)
(5.9058966e-08 0.002689334 0)
(7.5780614e-08 0.0031085049 0)
(8.1769771e-08 0.0033436144 0)
(7.7948292e-08 0.0034631137 0)
(6.6241749e-08 0.0035179 0)
(4.8629404e-08 0.0035406107 0)
(2.7558467e-08 0.0035491194 0)
(4.9361095e-09 0.0035518112 0)
(-1.8340924e-08 0.0035518105 0)
(-4.109549e-08 0.0035491169 0)
(-6.187949e-08 0.0035406069 0)
(-7.8700926e-08 0.0035178941 0)
(-8.9629291e-08 0.0034631055 0)
(-9.2509545e-08 0.0033436035 0)
(-8.4813733e-08 0.0031084919 0)
(-6.5135345e-08 0.0026893194 0)
(-3.4901744e-08 0.0019983698 0)
(-9.5808058e-09 0.00089458794 0)
(1.8640092e-08 0.0008945086 0)
(5.2581165e-08 0.0019982831 0)
(8.0608988e-08 0.0026892391 0)
(9.3188376e-08 0.0031084192 0)
(9.3780329e-08 0.0033435378 0)
(8.4667502e-08 0.0034630445 0)
(6.8408035e-08 0.0035178353 0)
(4.8051659e-08 0.0035405486 0)
(2.6111774e-08 0.0035490584 0)
(3.8017004e-09 0.0035517509 0)
(-1.8589883e-08 0.00355175 0)
(-4.0926598e-08 0.0035490558 0)
(-6.26881e-08 0.0035405446 0)
(-8.2281531e-08 0.0035178286 0)
(-9.743096e-08 0.0034630349 0)
(-1.0529254e-07 0.0033435253 0)
(-1.0253905e-07 0.0031084034 0)
(-8.6865406e-08 0.0026892212 0)
(-5.5265649e-08 0.0019982662 0)
(-1.9096498e-08 0.00089450055 0)
(2.2270123e-08 0.00089453146 0)
(6.0359776e-08 0.0019983266 0)
(8.6592886e-08 0.0026893126 0)
(9.6944649e-08 0.0031085132 0)
(9.5569314e-08 0.0033436501 0)
(8.4481017e-08 0.0034631715 0)
(6.6800518e-08 0.0035179712 0)
(4.5948418e-08 0.0035406886 0)
(2.4097384e-08 0.0035491986 0)
(2.7669939e-09 0.0035518914 0)
(-1.8461964e-08 0.0035518906 0)
(-4.008984e-08 0.0035491961 0)
(-6.1756353e-08 0.0035406841 0)
(-8.1957243e-08 0.0035179628 0)
(-9.8197929e-08 0.0034631599 0)
(-1.0758104e-07 0.0033436356 0)
(-1.0671311e-07 0.003108494 0)
(-9.3221271e-08 0.0026892899 0)
(-6.3418006e-08 0.0019983043 0)
(-2.2879574e-08 0.00089452075 0)
)
;

boundaryField
{
    Wall
    {
        type            fixedValue;
        value           uniform (0 0 0);
    }
    frontAndBack
    {
        type            empty;
    }
    atmosphere
    {
        type            pressureInletOutletVelocity;
        value           nonuniform List<vector> 
20
(
(2.2270123e-08 0.00089453146 0)
(6.0359776e-08 0.0019983266 0)
(8.6592886e-08 0.0026893126 0)
(9.6944649e-08 0.0031085132 0)
(9.5569314e-08 0.0033436501 0)
(8.4481017e-08 0.0034631715 0)
(6.6800518e-08 0.0035179712 0)
(4.5948418e-08 0.0035406886 0)
(2.4097384e-08 0.0035491986 0)
(2.7669939e-09 0.0035518914 0)
(-1.8461964e-08 0.0035518906 0)
(-4.008984e-08 0.0035491961 0)
(-6.1756353e-08 0.0035406841 0)
(-8.1957243e-08 0.0035179628 0)
(-9.8197929e-08 0.0034631599 0)
(-1.0758104e-07 0.0033436356 0)
(-1.0671311e-07 0.003108494 0)
(-9.3221271e-08 0.0026892899 0)
(-6.3418006e-08 0.0019983043 0)
(-2.2879574e-08 0.00089452075 0)
)
;
    }
}


// ************************************************************************* //
