/*--------------------------------*- C++ -*----------------------------------*\
| =========                 |                                                 |
| \\      /  F ield         | OpenFOAM: The Open Source CFD Toolbox           |
|  \\    /   O peration     | Version:  3.0.1                                 |
|   \\  /    A nd           | Web:      www.OpenFOAM.org                      |
|    \\/     M anipulation  |                                                 |
\*---------------------------------------------------------------------------*/
FoamFile
{
    version     2.0;
    format      ascii;
    class       volScalarField;
    location    "15";
    object      wBA_l;
}
// * * * * * * * * * * * * * * * * * * * * * * * * * * * * * * * * * * * * * //

dimensions      [0 0 0 0 0 0 0];

internalField   nonuniform List<scalar> 
800
(
0.05605738
0.056057194
0.056057191
0.056057195
0.056057194
0.056057194
0.056057196
0.056057197
0.056057198
0.056057199
0.056057199
0.056057198
0.056057197
0.056057196
0.056057194
0.056057194
0.056057195
0.056057191
0.056057195
0.056057381
0.056242651
0.056238779
0.056237272
0.056236661
0.056236239
0.056235919
0.056235679
0.056235508
0.056235399
0.056235345
0.056235345
0.056235399
0.056235508
0.056235679
0.056235919
0.056236239
0.056236661
0.056237272
0.056238779
0.056242651
0.052289054
0.052320442
0.052323323
0.052323418
0.052322971
0.05232273
0.052322564
0.052322438
0.052322349
0.052322304
0.052322304
0.052322349
0.052322438
0.052322564
0.05232273
0.052322971
0.052323418
0.052323323
0.052320442
0.052289053
0.045730739
0.045821249
0.045829536
0.045829101
0.045828221
0.045827474
0.045826822
0.04582628
0.045825892
0.045825692
0.045825692
0.045825893
0.045826281
0.045826823
0.045827475
0.045828223
0.045829103
0.045829538
0.045821251
0.04573074
0.037552484
0.037758775
0.037780803
0.037781989
0.037780415
0.037778412
0.037776428
0.037774763
0.037773602
0.037773009
0.037773009
0.037773603
0.037774765
0.037776431
0.037778415
0.037780419
0.037781993
0.037780808
0.03775878
0.037552489
0.028637521
0.029057835
0.029127001
0.02913979
0.029139192
0.029135217
0.029131242
0.029127603
0.029125225
0.029123998
0.029123999
0.029125227
0.029127606
0.029131246
0.029135222
0.029139198
0.029139797
0.029127009
0.029057843
0.028637531
0.019588334
0.020357633
0.020555915
0.020601556
0.020605096
0.020597817
0.020590497
0.020584325
0.020580332
0.020577989
0.02057799
0.020580333
0.020584327
0.020590501
0.020597822
0.020605104
0.020601566
0.020555924
0.020357643
0.019588348
0.011055411
0.012219042
0.012633637
0.012738344
0.012747571
0.012733981
0.012718835
0.012709264
0.012702695
0.012698716
0.012698715
0.012702695
0.012709262
0.012718836
0.012733984
0.012747576
0.012738354
0.012633642
0.012219051
0.011055426
0.0047190558
0.0062849524
0.0068813332
0.0070544922
0.0070695456
0.0070428076
0.0070125199
0.0069935775
0.0069811453
0.0069744271
0.0069744245
0.0069811428
0.0069935699
0.0070125167
0.0070428079
0.0070695467
0.0070544985
0.0068813341
0.0062849575
0.0047190671
0.0013535993
0.002772478
0.003389543
0.0036012011
0.0036311597
0.0036016036
0.0035624565
0.0035351081
0.0035171186
0.0035079836
0.0035079802
0.0035171147
0.0035350984
0.0035624505
0.0036016011
0.0036311569
0.0036012027
0.0033895405
0.0027724786
0.0013536042
0.00026087981
0.001041171
0.0015080166
0.0017025137
0.0017455882
0.0017285349
0.0016970155
0.0016723397
0.001655602
0.0016472099
0.0016472071
0.001655598
0.0016723312
0.0016970093
0.0017285313
0.0017455835
0.0017025123
0.0015080133
0.0010411694
0.00026088101
3.60218e-05
0.00033423416
0.00060708075
0.00074578194
0.00078675028
0.00078202716
0.00076361255
0.0007474033
0.00073600479
0.0007302777
0.00073027599
0.00073600174
0.00074739749
0.00076360771
0.00078202388
0.00078674594
0.00074577973
0.00060707825
0.00033423266
3.602199e-05
3.8564381e-06
9.3187833e-05
0.00022265773
0.00030334022
0.00033257046
0.00033375435
0.00032527572
0.00031673407
0.00031049798
0.00030734398
0.00030734307
0.00031049605
0.00031673074
0.00032527264
0.00033375203
0.00033256747
0.00030333838
0.00022265629
9.3187047e-05
3.8564608e-06
3.432943e-07
2.3106395e-05
7.5093354e-05
0.00011496409
0.00013194878
0.00013434871
0.00013117566
0.00012736883
0.00012447503
0.00012299847
0.00012299805
0.00012447397
0.00012736715
0.00013117397
0.00013434733
0.00013194708
0.00011496294
7.509268e-05
2.3106099e-05
3.4329642e-07
2.6812944e-08
5.2249281e-06
2.3512092e-05
4.0759134e-05
4.9196167e-05
5.10073e-05
5.0055167e-05
4.8578192e-05
4.7401953e-05
4.6795102e-05
4.6794918e-05
4.7401438e-05
4.8577428e-05
5.0054338e-05
5.1006574e-05
4.9195351e-05
4.0758546e-05
2.3511812e-05
5.2248383e-06
2.68131e-08
1.914075e-09
1.100918e-06
6.8921235e-06
1.3568866e-05
1.72623e-05
1.8270372e-05
1.8064279e-05
1.7557798e-05
1.7130643e-05
1.6907135e-05
1.690706e-05
1.7130419e-05
1.7557479e-05
1.8063911e-05
1.827003e-05
1.7261955e-05
1.3568609e-05
6.8920201e-06
1.1008945e-06
1.9140824e-09
1.2913162e-10
2.1956913e-07
1.9036689e-06
4.2549889e-06
5.709152e-06
6.1776079e-06
6.1640052e-06
6.0095952e-06
5.8692599e-06
5.7944745e-06
5.7944455e-06
5.8691714e-06
6.0094706e-06
6.163856e-06
6.1774613e-06
5.70902e-06
4.2548894e-06
1.9036338e-06
2.1956367e-07
1.2913153e-10
8.4756332e-12
4.1855557e-08
4.9767564e-07
1.2600635e-06
1.7823841e-06
1.9732474e-06
1.9888988e-06
1.9471677e-06
1.9051296e-06
1.8821829e-06
1.8821724e-06
1.9050973e-06
1.947122e-06
1.9888427e-06
1.9731899e-06
1.7823376e-06
1.2600286e-06
4.9766469e-07
4.1854381e-08
8.4755585e-12
5.5417232e-13
7.6630381e-09
1.2349905e-07
3.530974e-07
5.2603847e-07
5.95977e-07
6.0708203e-07
5.9723858e-07
5.8570487e-07
5.7920619e-07
5.792026e-07
5.8569386e-07
5.9722285e-07
6.0706249e-07
5.9595636e-07
5.2602303e-07
3.5308625e-07
1.2349587e-07
7.662799e-09
5.5416137e-13
3.6622638e-14
1.3495004e-09
2.9142222e-08
9.3780347e-08
1.469719e-07
1.7038032e-07
1.7541657e-07
1.7347773e-07
1.7057455e-07
1.6886823e-07
1.6886707e-07
1.7057104e-07
1.7347263e-07
1.754102e-07
1.7037346e-07
1.4696704e-07
9.377703e-08
2.9141361e-08
1.3494541e-09
3.6621443e-14
2.4528672e-15
2.2852887e-10
6.5469597e-09
2.3640511e-08
3.8927688e-08
4.615886e-08
4.802752e-08
4.7752477e-08
4.7082957e-08
4.6666419e-08
4.6666061e-08
4.7081899e-08
4.7750919e-08
4.8025575e-08
4.6156752e-08
3.892623e-08
2.3639584e-08
6.5467403e-09
2.285203e-10
2.4527567e-15
1.6531195e-16
3.7177588e-11
1.4015572e-09
5.663647e-09
9.7880393e-09
1.1865353e-08
1.2473675e-08
1.2468688e-08
1.2328017e-08
1.2233345e-08
1.2233242e-08
1.2327716e-08
1.246824e-08
1.2473115e-08
1.186475e-08
9.7876223e-09
5.6634034e-09
1.4015045e-09
3.7176071e-11
1.6530273e-16
1.107951e-17
5.8045215e-12
2.8615283e-10
1.2911573e-09
2.3396477e-09
2.8978182e-09
3.0770116e-09
3.0918395e-09
3.0652623e-09
3.0452295e-09
3.0452015e-09
3.0651815e-09
3.0917176e-09
3.0768599e-09
2.8976561e-09
2.3395343e-09
1.2910966e-09
2.8614091e-10
5.8042646e-12
1.1078804e-17
7.3000056e-19
8.6916175e-13
5.5766239e-11
2.8044722e-10
5.3238449e-10
6.7331966e-10
7.218996e-10
7.2901829e-10
7.2463583e-10
7.2069641e-10
7.2068925e-10
7.2461524e-10
7.2898699e-10
7.2186072e-10
6.7327864e-10
5.3235524e-10
2.8043283e-10
5.5763678e-11
8.6912018e-13
7.299501e-19
4.6867705e-20
1.2478251e-13
1.0383018e-11
5.8110749e-11
1.1548268e-10
1.4905104e-10
1.6130174e-10
1.6367101e-10
1.6308875e-10
1.6237198e-10
1.6237025e-10
1.6308378e-10
1.6366339e-10
1.612923e-10
1.4904121e-10
1.1547554e-10
5.8107495e-11
1.0382495e-11
1.2477607e-13
4.6864287e-20
2.9149466e-21
1.7177005e-14
1.8487185e-12
1.1501029e-11
2.3911714e-11
3.1478596e-11
3.4373399e-11
3.5036269e-11
3.4992513e-11
3.4872917e-11
3.4872516e-11
3.4991371e-11
3.5034508e-11
3.4371227e-11
3.1476358e-11
2.3910068e-11
1.1500324e-11
1.8486168e-12
1.7176053e-14
2.9147274e-21
1.750198e-22
2.2678987e-15
3.1509818e-13
2.1768383e-12
4.7323667e-12
6.3512059e-12
6.9956475e-12
7.1610665e-12
7.1675816e-12
7.1496067e-12
7.1495191e-12
7.1673315e-12
7.16068e-12
6.9951716e-12
6.3507212e-12
4.7320067e-12
2.1766922e-12
3.1507932e-13
2.2677645e-15
1.7500641e-22
1.0126195e-23
2.8734988e-16
5.1462491e-14
3.9450071e-13
8.9634143e-13
1.2258457e-12
1.3615772e-12
1.3994021e-12
1.4034884e-12
1.4011515e-12
1.4011332e-12
1.4034363e-12
1.3993214e-12
1.3614781e-12
1.2257456e-12
8.9626673e-13
3.944717e-13
5.145914e-14
2.8733172e-16
1.0125415e-23
5.6410693e-25
3.4962015e-17
8.0621106e-15
6.8534469e-14
1.6267817e-13
2.2662725e-13
2.5376584e-13
2.6181006e-13
2.6306358e-13
2.6283001e-13
2.6282636e-13
2.6305322e-13
2.6179399e-13
2.5374615e-13
2.2660748e-13
1.6266342e-13
6.8528947e-14
8.0615405e-15
3.4959657e-17
5.6406274e-25
3.0252768e-26
4.0879268e-18
1.2127136e-15
1.1426132e-14
2.8324172e-14
4.0180898e-14
4.5346642e-14
4.6952787e-14
4.7259013e-14
4.7250821e-14
4.7250132e-14
4.7257047e-14
4.694973e-14
4.5342906e-14
4.0177164e-14
2.8321396e-14
1.1425125e-14
1.2126203e-15
4.087632e-18
3.0249904e-26
1.5623874e-27
4.5969969e-19
1.7532675e-16
1.8301535e-15
4.736373e-15
6.8401819e-15
7.7785339e-15
8.081561e-15
8.1472844e-15
8.1512158e-15
8.1510911e-15
8.1469277e-15
8.0810054e-15
7.777855e-15
6.8395059e-15
4.7358741e-15
1.8299775e-15
1.7531202e-16
4.5966403e-19
1.5620347e-27
7.7771618e-29
4.9757826e-20
2.438567e-17
2.8191756e-16
7.6148394e-16
1.1192824e-15
1.2822847e-15
1.3365637e-15
1.349435e-15
1.3508977e-15
1.3508762e-15
1.3493731e-15
1.3364669e-15
1.2821666e-15
1.119165e-15
7.6139813e-16
2.8188803e-16
2.4383428e-17
4.9753639e-20
7.7697959e-29
3.739796e-30
5.1882008e-21
3.2660215e-18
4.1805156e-17
1.1782682e-16
1.7623555e-16
2.0336337e-16
2.1262768e-16
2.1497211e-16
2.153237e-16
2.1532013e-16
2.149618e-16
2.1261154e-16
2.0334365e-16
1.7621595e-16
1.1781267e-16
4.1800396e-17
3.265692e-18
5.1877232e-21
3.7249071e-30
1.7471789e-31
5.2154013e-22
4.215862e-19
5.9733284e-18
1.7563699e-17
2.6727713e-17
3.1060208e-17
3.2571291e-17
3.2972908e-17
3.3043533e-17
3.3042966e-17
3.2971257e-17
3.2568705e-17
3.1057045e-17
2.6724571e-17
1.7561454e-17
5.9725909e-18
4.2153929e-19
5.2148688e-22
1.7221499e-31
8.0343897e-33
5.0583996e-23
5.2493451e-20
8.231275e-19
2.5244927e-18
3.9079885e-18
4.5729506e-18
4.809049e-18
4.8742279e-18
4.8869388e-18
4.8868519e-18
4.873974e-18
4.8086504e-18
4.5724626e-18
3.9075031e-18
2.5241499e-18
8.2301746e-19
5.2486996e-20
5.0578217e-23
7.6833739e-33
3.7302867e-34
4.7371949e-24
6.3099674e-21
1.0948325e-19
3.5018337e-19
5.5138351e-19
6.4959528e-19
6.8500287e-19
6.9507548e-19
6.9718668e-19
6.9717379e-19
6.9503781e-19
6.8494375e-19
6.4952276e-19
5.5131132e-19
3.5013288e-19
1.0946742e-19
6.3091073e-21
4.7365836e-24
3.310077e-34
1.8163595e-35
4.2867534e-25
7.328037e-22
1.4067121e-20
4.6917744e-20
7.5132483e-20
8.9107637e-20
9.4213189e-20
9.570102e-20
9.602973e-20
9.6027876e-20
9.569563e-20
9.4204724e-20
8.9097234e-20
7.5122122e-20
4.6910567e-20
1.4064921e-20
7.3269292e-22
4.2861249e-25
1.3778673e-35
9.6015565e-37
3.750928e-26
8.2282259e-23
1.7473067e-21
6.07627e-21
9.8950855e-21
1.1813087e-20
1.2521976e-20
1.2732647e-20
1.2781079e-20
1.2780821e-20
1.2731901e-20
1.2520804e-20
1.1811645e-20
9.8936485e-21
6.0752832e-21
1.7470114e-21
8.2268455e-23
3.7503008e-26
5.5453953e-37
5.5293192e-38
3.1757275e-27
8.9389649e-24
2.0996772e-22
7.6122975e-22
1.2605351e-21
1.5146753e-21
1.609576e-21
1.638238e-21
1.6450329e-21
1.6449982e-21
1.6381382e-21
1.6094192e-21
1.5144817e-21
1.260342e-21
7.6109831e-22
2.0992932e-22
8.9373005e-24
3.1751205e-27
2.1591338e-38
3.3551649e-39
2.603285e-28
9.4020307e-25
2.4426049e-23
9.2316e-23
1.5543258e-22
1.8797334e-22
2.0023706e-22
2.0399097e-22
2.0490273e-22
2.0489822e-22
2.0397805e-22
2.0021674e-22
1.8794814e-22
1.5540747e-22
9.2299035e-23
2.4421213e-23
9.4000884e-25
2.6027163e-28
8.1381598e-40
)
;

boundaryField
{
    Wall
    {
        type            zeroGradient;
    }
    frontAndBack
    {
        type            empty;
    }
    atmosphere
    {
        type            zeroGradient;
    }
}


// ************************************************************************* //
