/*--------------------------------*- C++ -*----------------------------------*\
| =========                 |                                                 |
| \\      /  F ield         | OpenFOAM: The Open Source CFD Toolbox           |
|  \\    /   O peration     | Version:  3.0.1                                 |
|   \\  /    A nd           | Web:      www.OpenFOAM.org                      |
|    \\/     M anipulation  |                                                 |
\*---------------------------------------------------------------------------*/
FoamFile
{
    version     2.0;
    format      ascii;
    class       volScalarField;
    location    "15";
    object      wBA_g;
}
// * * * * * * * * * * * * * * * * * * * * * * * * * * * * * * * * * * * * * //

dimensions      [0 0 0 0 0 0 0];

internalField   nonuniform List<scalar> 
800
(
0.024546815
0.0245498
0.024550178
0.024550289
0.024550367
0.024550426
0.024550472
0.024550504
0.024550524
0.024550534
0.024550534
0.024550524
0.024550504
0.024550472
0.024550427
0.024550367
0.024550289
0.024550179
0.024549801
0.024546815
0.022610541
0.022737708
0.022746286
0.02274734
0.022748035
0.022749083
0.022750139
0.022750981
0.022751536
0.022751809
0.022751809
0.022751536
0.022750981
0.022750139
0.022749083
0.022748035
0.02274734
0.022746287
0.022737709
0.02261054
0.014698596
0.014834408
0.01498423
0.014987582
0.01498938
0.014991523
0.014993457
0.014994937
0.0149959
0.014996373
0.014996373
0.0149959
0.014994936
0.014993457
0.014991523
0.014989379
0.014987581
0.01498423
0.014834408
0.014698594
0.0055639763
0.0056517569
0.0057182541
0.0057207858
0.0057227251
0.0057244676
0.0057258776
0.0057268964
0.0057275393
0.0057278501
0.00572785
0.005727539
0.0057268959
0.005725877
0.0057244671
0.0057227246
0.0057207854
0.0057182538
0.0056517565
0.0055639751
0.0024524314
0.0025024078
0.0025237438
0.0025257801
0.002527313
0.002528503
0.0025293601
0.0025299379
0.0025302877
0.0025304534
0.0025304533
0.0025302875
0.0025299376
0.0025293597
0.0025285027
0.0025273127
0.0025257799
0.0025237436
0.0025024075
0.0024524308
0.0011921355
0.0012204114
0.00122765
0.0012293071
0.0012303781
0.0012310948
0.0012315577
0.0012318376
0.0012320014
0.0012320769
0.0012320769
0.0012320012
0.0012318375
0.0012315576
0.0012310947
0.001230378
0.001229307
0.00122765
0.0012204114
0.0011921352
0.00058168962
0.00060249531
0.00060687157
0.00060824406
0.00060885398
0.00060913415
0.00060927433
0.00060932853
0.00060935595
0.00060935857
0.00060935856
0.0006093559
0.00060932846
0.00060927429
0.00060913415
0.00060885402
0.00060824415
0.00060687168
0.00060249544
0.00058168967
0.00024819526
0.00026774405
0.00027246436
0.00027336476
0.00027343233
0.00027331023
0.00027317204
0.00027307882
0.00027301435
0.00027296929
0.00027296928
0.00027301433
0.00027307875
0.00027317204
0.00027331028
0.00027343242
0.00027336492
0.00027246448
0.00026774422
0.00024819541
8.4284451e-05
0.00010665369
0.00011258896
0.00011350161
0.00011314796
0.00011262362
0.00011218808
0.00011192131
0.00011175587
0.00011166685
0.00011166682
0.00011175584
0.00011192122
0.00011218805
0.00011262366
0.00011314803
0.00011350174
0.00011258904
0.0001066538
8.428458e-05
1.9906033e-05
3.7377551e-05
4.3293953e-05
4.4669651e-05
4.4487725e-05
4.3937176e-05
4.3412354e-05
4.3059447e-05
4.2836749e-05
4.2724736e-05
4.2724705e-05
4.2836713e-05
4.3059362e-05
4.3412313e-05
4.3937182e-05
4.4487746e-05
4.4669721e-05
4.3293983e-05
3.7377598e-05
1.9906085e-05
3.2437695e-06
1.1268367e-05
1.5257493e-05
1.6585498e-05
1.6695931e-05
1.6398305e-05
1.6041286e-05
1.5777188e-05
1.5603878e-05
1.5517393e-05
1.5517372e-05
1.5603849e-05
1.5777126e-05
1.6041248e-05
1.6398297e-05
1.6695927e-05
1.6585526e-05
1.5257499e-05
1.1268377e-05
3.2437812e-06
3.8562947e-07
2.9148532e-06
4.8945932e-06
5.7694331e-06
5.9574369e-06
5.856112e-06
5.6817304e-06
5.5398545e-06
5.4429246e-06
5.3943211e-06
5.3943099e-06
5.4429073e-06
5.5398188e-06
5.6817058e-06
5.8561021e-06
5.9574261e-06
5.7694399e-06
4.894592e-06
2.9148531e-06
3.8563123e-07
3.5901355e-08
6.5429356e-07
1.4332077e-06
1.8769898e-06
2.0148619e-06
1.9968586e-06
1.9290055e-06
1.8676669e-06
1.8240703e-06
1.8020445e-06
1.8020395e-06
1.8240615e-06
1.8676498e-06
1.9289923e-06
1.9968517e-06
2.0148536e-06
1.8769897e-06
1.4332062e-06
6.5429254e-07
3.5901569e-08
2.7846504e-09
1.2996426e-07
3.8620157e-07
5.7249337e-07
6.4555916e-07
6.4926911e-07
6.2729707e-07
6.0468049e-07
5.8794468e-07
5.7941831e-07
5.7941637e-07
5.8794071e-07
6.0467334e-07
6.2729098e-07
6.4926542e-07
6.4555456e-07
5.7249215e-07
3.862008e-07
1.2996383e-07
2.7846725e-09
1.8825335e-10
2.3363675e-08
9.6799697e-08
1.6447516e-07
1.9622275e-07
2.0128494e-07
1.9531198e-07
1.8797149e-07
1.8229823e-07
1.7938065e-07
1.7937996e-07
1.8229662e-07
1.879688e-07
1.9530948e-07
2.0128323e-07
1.9622071e-07
1.6447434e-07
9.6799395e-08
2.3363552e-08
1.8825541e-10
1.1438388e-11
3.8847436e-09
2.2819206e-08
4.475281e-08
5.6720287e-08
5.9549886e-08
5.8228216e-08
5.6093775e-08
5.4359665e-08
5.3457921e-08
5.3457694e-08
5.4359074e-08
5.6092846e-08
5.8227278e-08
5.954918e-08
5.6719511e-08
4.4752431e-08
2.2819106e-08
3.8847158e-09
1.1438554e-11
6.3838538e-13
6.0914259e-10
5.110251e-09
1.1592598e-08
1.5633547e-08
1.683423e-08
1.6627973e-08
1.6067036e-08
1.5582641e-08
1.5327251e-08
1.5327179e-08
1.558244e-08
1.6066735e-08
1.6627649e-08
1.6833964e-08
1.5633285e-08
1.1592455e-08
5.11022e-09
6.0913719e-10
6.3839715e-13
3.3311118e-14
9.158113e-11
1.0960479e-09
2.8711971e-09
4.1186614e-09
4.5532803e-09
4.5502038e-09
4.4167642e-09
4.2920272e-09
4.2250788e-09
4.2250575e-09
4.2919637e-09
4.416672e-09
4.5500987e-09
4.5531872e-09
4.1185809e-09
2.8711496e-09
1.0960388e-09
9.1580158e-11
3.3311838e-14
1.6539812e-15
1.3377591e-11
2.2648511e-10
6.8215902e-10
1.0391732e-09
1.1797102e-09
1.1936545e-09
1.1651168e-09
1.1353442e-09
1.1189841e-09
1.118978e-09
1.1353253e-09
1.1650898e-09
1.1936226e-09
1.1796801e-09
1.0391499e-09
6.8214494e-10
2.2648257e-10
1.3377421e-11
1.6540199e-15
7.9768597e-17
1.9164466e-12
4.52611e-11
1.5581976e-10
2.5147887e-10
2.9305317e-10
3.0028405e-10
2.9491276e-10
2.8830829e-10
2.845627e-10
2.8456099e-10
2.8830298e-10
2.9490519e-10
3.0027486e-10
2.9304405e-10
2.5147248e-10
1.5581591e-10
4.5260434e-11
1.9164171e-12
7.9770311e-17
3.8309199e-18
2.706422e-13
8.7651463e-12
3.4267728e-11
5.8435308e-11
6.9847757e-11
7.2466123e-11
7.1626297e-11
7.0264612e-11
6.9458532e-11
6.9458068e-11
7.0263192e-11
7.1624257e-11
7.2463618e-11
6.9845184e-11
5.8433614e-11
3.4266741e-11
8.7649815e-12
2.7063714e-13
3.8309761e-18
1.8820328e-19
3.7725358e-14
1.6460571e-12
7.261568e-12
1.3048755e-11
1.5982894e-11
1.6782032e-11
1.669381e-11
1.6433716e-11
1.6270356e-11
1.6270235e-11
1.6433354e-11
1.6693285e-11
1.6781381e-11
1.5982215e-11
1.304832e-11
7.2613289e-12
1.6460187e-12
3.7724503e-14
1.8820363e-19
9.6626978e-21
5.1825545e-15
2.9973213e-13
1.4834099e-12
2.8020267e-12
3.5131537e-12
3.7312021e-12
3.7347041e-12
3.6890544e-12
3.6578685e-12
3.6578386e-12
3.6889664e-12
3.7345744e-12
3.7310409e-12
3.5129848e-12
2.8019185e-12
1.4833548e-12
2.9972371e-13
5.1824134e-15
9.6625532e-21
5.2211345e-22
6.9952898e-16
5.2894215e-14
2.9221926e-13
5.7895112e-13
7.4220532e-13
7.968459e-13
8.0233307e-13
7.9509992e-13
7.8949929e-13
7.8949224e-13
7.9507936e-13
8.0230242e-13
7.9680781e-13
7.4216555e-13
5.7892522e-13
2.9220706e-13
5.2892459e-14
6.9950649e-16
5.2209664e-22
2.9417103e-23
9.2455799e-17
9.0410058e-15
5.5524788e-14
1.1516685e-13
1.5079987e-13
1.6356388e-13
1.6561184e-13
1.6461825e-13
1.6367538e-13
1.6367379e-13
1.6461367e-13
1.656049e-13
1.6355528e-13
1.5079096e-13
1.151609e-13
5.5522197e-14
9.0406578e-15
9.2452335e-17
2.9415711e-23
1.6967524e-24
1.1928635e-17
1.4960523e-15
1.0179417e-14
2.2069106e-14
2.9486013e-14
3.2291558e-14
3.2866749e-14
3.2761686e-14
3.2613898e-14
3.2613553e-14
3.2760701e-14
3.2865244e-14
3.2289701e-14
2.9484106e-14
2.2067803e-14
1.0178886e-14
1.4959865e-15
1.1928124e-17
1.6966529e-24
9.8348796e-26
1.4987134e-18
2.3958601e-16
1.8012419e-15
4.0764436e-15
5.5523842e-15
6.1363148e-15
6.2759415e-15
6.2721018e-15
6.2508111e-15
6.2507401e-15
6.2718988e-15
6.2756294e-15
6.1359305e-15
5.5519938e-15
4.0761712e-15
1.8011368e-15
2.3957409e-16
1.4986412e-18
9.8342257e-26
5.6486333e-27
1.8304628e-19
3.7128471e-17
3.0776555e-16
7.2626984e-16
1.0076704e-15
1.123287e-15
1.1540153e-15
1.1560453e-15
1.1532995e-15
1.1532854e-15
1.1560051e-15
1.1539533e-15
1.1232109e-15
1.0075937e-15
7.2621547e-16
3.0774548e-16
3.7126395e-17
1.8303642e-19
5.6482271e-27
3.1855164e-28
2.1708148e-20
5.5680828e-18
5.0801866e-17
1.2488932e-16
1.763887e-16
1.9824244e-16
2.0451406e-16
2.0531705e-16
2.0501972e-16
2.0501703e-16
2.0530943e-16
2.0450226e-16
1.9822798e-16
1.7637424e-16
1.2487895e-16
5.0798172e-17
5.5677353e-18
2.1706853e-20
3.1852662e-28
1.7544673e-29
2.4981333e-21
8.082432e-19
8.1055973e-18
2.0742501e-17
2.9804274e-17
3.3758819e-17
3.496132e-17
3.5167721e-17
3.514634e-17
3.5145853e-17
3.5166332e-17
3.4959161e-17
3.375618e-17
2.9801649e-17
2.0740608e-17
8.1049421e-18
8.0818699e-19
2.4979687e-21
1.7542531e-29
9.410956e-31
2.7887126e-22
1.1359226e-19
1.2507909e-18
3.3297114e-18
4.8650009e-18
5.5516539e-18
5.7700316e-18
5.8145002e-18
5.8153833e-18
5.8152982e-18
5.8142569e-18
5.7696522e-18
5.5511908e-18
4.8645418e-18
3.3293802e-18
1.2506789e-18
1.1358346e-19
2.7885091e-22
9.4067348e-31
4.9141169e-32
3.0196777e-23
1.5462972e-20
1.8678243e-19
5.1696664e-19
7.6774971e-19
8.8237922e-19
9.2015372e-19
9.287591e-19
9.295372e-19
9.2952295e-19
9.2871807e-19
9.2008958e-19
8.8230097e-19
7.6767226e-19
5.16911e-19
1.8676397e-19
1.5461637e-20
3.0194325e-23
4.9033346e-32
2.5059072e-33
3.1720164e-24
2.0396975e-21
2.7008473e-20
7.76831e-20
1.1722387e-19
1.3565301e-19
1.4190255e-19
1.4344303e-19
1.4365196e-19
1.4364965e-19
1.4343637e-19
1.4189211e-19
1.3564027e-19
1.1721126e-19
7.7674105e-20
2.7005538e-20
2.039501e-21
3.171728e-24
2.4826492e-33
1.2612938e-34
3.2331776e-25
2.6083941e-22
3.783883e-21
1.1305527e-20
1.7329612e-20
2.018722e-20
2.117926e-20
2.1438362e-20
2.1481556e-20
2.1481198e-20
2.1437319e-20
2.1177623e-20
2.0185218e-20
1.7327631e-20
1.1304123e-20
3.7834324e-21
2.608113e-22
3.2328449e-25
1.2206328e-34
6.4193103e-36
3.1987399e-26
3.2354148e-23
5.1393397e-22
1.5945564e-21
2.4822358e-21
2.9101475e-21
3.0616193e-21
3.1029531e-21
3.1107695e-21
3.1107155e-21
3.1027953e-21
3.0613711e-21
2.9098437e-21
2.4819343e-21
1.5943448e-21
5.1386706e-22
3.2350245e-23
3.1983652e-26
5.8277245e-36
3.4387463e-37
3.0728563e-27
3.8945277e-24
6.7711483e-23
2.1809712e-22
3.4472374e-22
4.0667713e-22
4.2896882e-22
4.3526193e-22
4.3655697e-22
4.3654905e-22
4.3523879e-22
4.2893246e-22
4.0663252e-22
3.4467939e-22
2.1806619e-22
6.7701874e-23
3.894001e-24
3.0724438e-27
2.7022792e-37
2.019325e-38
2.8674293e-28
4.5516291e-25
8.6586517e-24
2.894593e-23
4.6446554e-23
5.5127948e-23
5.8295353e-23
5.9213809e-23
5.941451e-23
5.941338e-23
5.9210526e-23
5.8290189e-23
5.5121598e-23
4.6440231e-23
2.8941551e-23
8.657312e-24
4.5509396e-25
2.8669866e-28
1.2173e-38
1.3099892e-39
2.6002317e-29
5.1675381e-26
1.0752555e-24
3.7300055e-24
6.0751612e-24
7.2536853e-24
7.6888384e-24
7.8177536e-24
7.8472002e-24
7.8470441e-24
7.817301e-24
7.6881268e-24
7.252808e-24
6.0742865e-24
3.7294035e-24
1.0750744e-24
5.1666618e-26
2.5997693e-29
5.3290304e-40
9.0531366e-41
2.2923801e-30
5.7019011e-27
1.2974183e-25
4.6694185e-25
7.7186292e-25
9.2698926e-25
9.8486555e-25
1.0023116e-24
1.0064328e-24
1.0064118e-24
1.0022511e-24
9.8477028e-25
9.2687146e-25
7.7174524e-25
4.6686135e-25
1.2971804e-25
5.7008199e-27
2.2919104e-30
2.2680603e-41
6.3298506e-42
1.965647e-31
6.117668e-28
1.521884e-26
5.6817834e-26
9.5311466e-26
1.1512548e-25
1.2258572e-25
1.2486663e-25
1.2541965e-25
1.2541691e-25
1.2485876e-25
1.2257332e-25
1.1511008e-25
9.5296073e-26
5.6807363e-26
1.5215803e-26
6.1163728e-28
1.9651837e-31
9.3907805e-43
)
;

boundaryField
{
    Wall
    {
        type            zeroGradient;
    }
    frontAndBack
    {
        type            empty;
    }
    atmosphere
    {
        type            zeroGradient;
    }
}


// ************************************************************************* //
