/*--------------------------------*- C++ -*----------------------------------*\
| =========                 |                                                 |
| \\      /  F ield         | OpenFOAM: The Open Source CFD Toolbox           |
|  \\    /   O peration     | Version:  3.0.1                                 |
|   \\  /    A nd           | Web:      www.OpenFOAM.org                      |
|    \\/     M anipulation  |                                                 |
\*---------------------------------------------------------------------------*/
FoamFile
{
    version     2.0;
    format      ascii;
    class       volScalarField;
    location    "15";
    object      wBA_l_0;
}
// * * * * * * * * * * * * * * * * * * * * * * * * * * * * * * * * * * * * * //

dimensions      [0 0 0 0 0 0 0];

internalField   nonuniform List<scalar> 
800
(
0.056065728
0.056065542
0.056065537
0.056065541
0.05606554
0.056065541
0.056065542
0.056065543
0.056065544
0.056065545
0.056065545
0.056065544
0.056065543
0.056065542
0.056065541
0.05606554
0.056065541
0.056065537
0.056065542
0.056065728
0.056247838
0.056244022
0.056242515
0.056241903
0.05624148
0.05624116
0.05624092
0.056240749
0.05624064
0.056240587
0.056240587
0.05624064
0.056240749
0.05624092
0.05624116
0.056241481
0.056241903
0.056242516
0.056244022
0.056247839
0.052252595
0.052284134
0.052286966
0.05228706
0.052286617
0.052286376
0.052286207
0.052286078
0.052285986
0.05228594
0.05228594
0.052285986
0.052286077
0.052286207
0.052286376
0.052286617
0.05228706
0.052286966
0.052284134
0.052252594
0.045632993
0.045723879
0.045732147
0.045731701
0.045730809
0.045730042
0.045729371
0.045728812
0.045728413
0.045728207
0.045728207
0.045728413
0.045728813
0.045729371
0.045730044
0.04573081
0.045731703
0.045732149
0.045723881
0.045632994
0.037390776
0.037598674
0.037620821
0.037622008
0.037620381
0.037618315
0.037616278
0.03761457
0.037613381
0.037612774
0.037612775
0.037613382
0.037614572
0.03761628
0.037618319
0.037620385
0.037622013
0.037620826
0.037598679
0.037390781
0.028424884
0.028849504
0.028919537
0.028932481
0.028931808
0.028927721
0.028923659
0.028919949
0.028917529
0.028916281
0.028916281
0.028917531
0.028919952
0.028923663
0.028927726
0.028931814
0.028932488
0.028919544
0.028849512
0.028424893
0.019330775
0.020108837
0.020310143
0.020356388
0.020359882
0.020352428
0.020344979
0.02033872
0.020334676
0.020332299
0.0203323
0.020334676
0.020338722
0.020344983
0.020352433
0.020359889
0.020356398
0.020310152
0.020108847
0.019330789
0.010818524
0.011990086
0.012408291
0.012514058
0.012523338
0.012509576
0.01249424
0.0124846
0.012477978
0.012473963
0.012473962
0.012477978
0.012484598
0.012494241
0.012509579
0.012523343
0.012514069
0.012408297
0.011990095
0.010818539
0.0045594527
0.0061252064
0.0067207172
0.0068940212
0.0069091539
0.0068823614
0.0068519335
0.0068329211
0.0068204275
0.0068136828
0.0068136801
0.0068204249
0.0068329134
0.0068519301
0.0068823617
0.0069091549
0.0068940273
0.006720718
0.0061252113
0.0045594638
0.0012882267
0.0026814313
0.0032911505
0.0035012334
0.0035314184
0.0035024568
0.0034637992
0.0034367782
0.0034189711
0.0034099311
0.0034099277
0.0034189672
0.0034367685
0.0034637931
0.0035024543
0.0035314154
0.0035012348
0.0032911478
0.0026814318
0.0012882314
0.00024467419
0.00099887007
0.0014553811
0.0016465682
0.0016893185
0.0016729473
0.0016422432
0.0016181768
0.0016018258
0.001593629
0.0015936263
0.0016018218
0.0016181684
0.001642237
0.0016729437
0.0016893138
0.0016465668
0.0014553778
0.00099886841
0.00024467533
3.3347712e-05
0.00031809815
0.00058238154
0.00071747236
0.00075761664
0.00075325316
0.0007355122
0.00071986375
0.00070884554
0.00070331134
0.00070330968
0.00070884254
0.00071985805
0.00073550743
0.00075324992
0.00075761233
0.00071747013
0.00058237907
0.00031809665
3.3347893e-05
3.5304013e-06
8.8038725e-05
0.00021237877
0.0002903068
0.00031865742
0.00031991236
0.00031182548
0.00030365041
0.00029767618
0.00029465601
0.00029465514
0.00029767429
0.00030364718
0.00031182246
0.00031991009
0.00031865447
0.00029030498
0.00021237737
8.8037958e-05
3.5304224e-06
3.1128796e-07
2.169135e-05
7.1244484e-05
0.00010946322
0.00012579432
0.00012813996
0.00012514423
0.00012152932
0.00011877922
0.00011737676
0.00011737635
0.00011877819
0.0001215277
0.00012514259
0.00012813862
0.00012579267
0.00010946209
7.124383e-05
2.1691065e-05
3.1128991e-07
2.4121186e-08
4.8791802e-06
2.219612e-05
3.8614294e-05
4.6664161e-05
4.8404455e-05
4.7516293e-05
4.6124278e-05
4.5014816e-05
4.4442737e-05
4.444256e-05
4.501432e-05
4.6123547e-05
4.7515495e-05
4.8403753e-05
4.6663374e-05
3.8613723e-05
2.2195851e-05
4.8790945e-06
2.4121328e-08
1.7114452e-09
1.0236372e-06
6.4758262e-06
1.2790925e-05
1.628985e-05
1.7248418e-05
1.7059949e-05
1.6586156e-05
1.6186147e-05
1.5976946e-05
1.5976875e-05
1.6185933e-05
1.6585852e-05
1.7059597e-05
1.7248089e-05
1.628952e-05
1.2790677e-05
6.475727e-06
1.023615e-06
1.7114516e-09
1.1501189e-10
2.0341274e-07
1.7805518e-06
3.9910293e-06
5.3593711e-06
5.8011046e-06
5.7903453e-06
5.6470061e-06
5.516516e-06
5.4470005e-06
5.446973e-06
5.5164319e-06
5.6468881e-06
5.7902035e-06
5.8009646e-06
5.3592459e-06
3.9909342e-06
1.7805183e-06
2.0340759e-07
1.1501174e-10
7.5380135e-12
3.8647631e-08
4.6338405e-07
1.1759167e-06
1.6642372e-06
1.8428699e-06
1.8580504e-06
1.8196276e-06
1.7808134e-06
1.7596279e-06
1.759618e-06
1.7807829e-06
1.8195845e-06
1.8579975e-06
1.8428154e-06
1.6641933e-06
1.1758837e-06
4.6337366e-07
3.8646528e-08
7.5379382e-12
4.9323959e-13
7.0526146e-09
1.1446106e-07
3.278149e-07
4.8847837e-07
5.5347433e-07
5.6391859e-07
5.5493919e-07
5.4436563e-07
5.38406e-07
5.3840263e-07
5.443553e-07
5.5492443e-07
5.6390023e-07
5.5345486e-07
4.8846387e-07
3.278044e-07
1.1445806e-07
7.0523909e-09
4.9322904e-13
3.2660654e-14
1.2377264e-09
2.6881725e-08
8.6604118e-08
1.3571145e-07
1.5731684e-07
1.6199052e-07
1.6024283e-07
1.5760067e-07
1.5604642e-07
1.5604533e-07
1.5759739e-07
1.6023807e-07
1.6198457e-07
1.5731043e-07
1.3570691e-07
8.6601012e-08
2.6880915e-08
1.2376832e-09
3.2659527e-14
2.1916827e-15
2.0881774e-10
6.0095525e-09
2.1712765e-08
3.5738565e-08
4.2367739e-08
4.4085074e-08
4.3842518e-08
4.3237784e-08
4.2860951e-08
4.2860619e-08
4.3236804e-08
4.3841072e-08
4.4083268e-08
4.2365779e-08
3.5737207e-08
2.1711903e-08
6.0093474e-09
2.0880978e-10
2.1915798e-15
1.4783104e-16
3.3832835e-11
1.2799883e-09
5.1728076e-09
8.9333843e-09
1.0824984e-08
1.1379371e-08
1.1376837e-08
1.125079e-08
1.1165737e-08
1.1165641e-08
1.1250514e-08
1.1376424e-08
1.1378855e-08
1.0824427e-08
8.9329978e-09
5.1725822e-09
1.2799394e-09
3.3831432e-11
1.4782255e-16
9.9015096e-18
5.2591597e-12
2.5996456e-10
1.1725344e-09
2.122574e-09
2.6274375e-09
2.7894792e-09
2.8032662e-09
2.7796594e-09
2.7617898e-09
2.7617642e-09
2.7795855e-09
2.8031546e-09
2.7893402e-09
2.6272889e-09
2.1224695e-09
1.1724786e-09
2.5995355e-10
5.2589232e-12
9.9008647e-18
6.510694e-19
7.8382908e-13
5.038986e-11
2.5320001e-10
4.8004863e-10
6.0666925e-10
6.5027327e-10
6.5672882e-10
6.52876e-10
6.4938771e-10
6.4938121e-10
6.528573e-10
6.5670032e-10
6.5023787e-10
6.0663187e-10
4.8002183e-10
2.5318684e-10
5.0387507e-11
7.8379097e-13
6.5102368e-19
4.1670973e-20
1.1198053e-13
9.330257e-12
5.2154382e-11
1.034867e-10
1.3344307e-10
1.4435929e-10
1.4648074e-10
1.4597631e-10
1.4534645e-10
1.4534489e-10
1.4597182e-10
1.4647386e-10
1.4435076e-10
1.3343418e-10
1.0348021e-10
5.2151422e-11
9.3297796e-12
1.1197465e-13
4.1667896e-20
2.5817329e-21
1.5336262e-14
1.6519203e-12
1.0260154e-11
2.1293709e-11
2.8000971e-11
3.0562011e-11
3.1149766e-11
3.1113435e-11
3.1009182e-11
3.1008823e-11
3.111241e-11
3.1148185e-11
3.0560059e-11
2.7998962e-11
2.1292221e-11
1.0259517e-11
1.651828e-12
1.5335398e-14
2.5815367e-21
1.5433247e-22
2.0142324e-15
2.7994283e-13
1.9301548e-12
4.1875599e-12
5.6128283e-12
6.1789259e-12
6.3243365e-12
6.3304152e-12
6.3148826e-12
6.3148046e-12
6.3301924e-12
6.3239921e-12
6.1785016e-12
5.6123958e-12
4.1872369e-12
1.9300234e-12
2.7992581e-13
2.0141114e-15
1.5432056e-22
8.8868289e-24
2.5383634e-16
4.5455037e-14
3.4764227e-13
7.8808082e-13
1.0762276e-12
1.1946172e-12
1.2275987e-12
1.2312087e-12
1.2292097e-12
1.2291935e-12
1.2311625e-12
1.2275273e-12
1.1945294e-12
1.0761388e-12
7.880143e-13
3.4761636e-13
4.5452033e-14
2.5382004e-16
8.8861388e-24
4.9258468e-25
3.0714868e-17
7.0790517e-15
6.0018629e-14
1.4210742e-13
1.9765198e-13
2.2115661e-13
2.2811633e-13
2.2920641e-13
2.2900958e-13
2.2900638e-13
2.2919731e-13
2.2810221e-13
2.2113931e-13
1.9763459e-13
1.4209438e-13
6.0013727e-14
7.0785438e-15
3.0712765e-17
4.9254568e-25
2.6279882e-26
3.5712873e-18
1.0585001e-15
9.9436205e-15
2.4581755e-14
3.4810467e-14
3.925306e-14
4.0632136e-14
4.0895582e-14
4.0889194e-14
4.0888593e-14
4.0893867e-14
4.0629471e-14
3.9249799e-14
3.4807202e-14
2.4579319e-14
9.9427323e-15
1.0584174e-15
3.5710257e-18
2.6277311e-26
1.3499931e-27
3.9932916e-19
1.5211126e-16
1.5826299e-15
4.0836609e-15
5.8862838e-15
6.6876093e-15
6.9458557e-15
7.0018818e-15
7.0052989e-15
7.0051912e-15
7.0015731e-15
6.9453746e-15
6.6870208e-15
5.8856971e-15
4.0832262e-15
1.5824756e-15
1.5209829e-16
3.9929771e-19
1.3496587e-27
6.6839772e-29
4.2975734e-20
2.1028339e-17
2.422369e-16
6.5221999e-16
9.567096e-16
1.0949314e-15
1.1408479e-15
1.151728e-15
1.1529698e-15
1.1529514e-15
1.1516748e-15
1.1407647e-15
1.0948298e-15
9.5660835e-16
6.5214579e-16
2.422112e-16
2.1026378e-17
4.2972063e-20
6.6768319e-29
3.1976004e-30
4.4550954e-21
2.7991416e-18
3.5690734e-17
1.0025125e-16
1.4961853e-16
1.7246063e-16
1.8024027e-16
1.8220613e-16
1.8250113e-16
1.8249809e-16
1.8219733e-16
1.802265e-16
1.7244379e-16
1.4960176e-16
1.002391e-16
3.5686621e-17
2.798855e-18
4.4546787e-21
3.1831964e-30
1.4874346e-31
4.4522746e-22
3.5909355e-19
5.0667744e-18
1.4844227e-17
2.25367e-17
2.6159091e-17
2.7418773e-17
2.7752914e-17
2.7811618e-17
2.7811139e-17
2.7751517e-17
2.7416582e-17
2.6156409e-17
2.253403e-17
1.4842313e-17
5.0661417e-18
3.5905302e-19
4.4518129e-22
1.4634282e-31
6.8253365e-33
4.2927824e-23
4.4434745e-20
6.9367287e-19
2.1193174e-18
3.2726844e-18
3.8247454e-18
4.0201359e-18
4.0739499e-18
4.0844252e-18
4.0843522e-18
4.0737365e-18
4.0198007e-18
3.8243346e-18
3.2722749e-18
2.1190272e-18
6.9357908e-19
4.4429203e-20
4.2922839e-23
6.4919333e-33
3.1758692e-34
3.9962945e-24
5.3079015e-21
9.166238e-20
2.919998e-19
4.5857777e-19
5.3953991e-19
5.686305e-19
5.7688407e-19
5.7860991e-19
5.7859914e-19
5.7685262e-19
5.6858113e-19
5.3947929e-19
4.5851727e-19
2.9195735e-19
9.1648988e-20
5.3071679e-21
3.9957704e-24
2.7806982e-34
1.5590802e-35
3.5946394e-25
6.1255354e-22
1.170007e-20
3.8857472e-20
6.2055678e-20
7.349495e-20
7.7659318e-20
7.8869341e-20
7.9135943e-20
7.9134404e-20
7.8864873e-20
7.7652299e-20
7.3486312e-20
6.2047057e-20
3.885148e-20
1.1698222e-20
6.1245964e-22
3.5941036e-25
1.1507764e-35
8.3444331e-37
3.1263466e-26
6.8344926e-23
1.4436984e-21
4.9981623e-21
8.1162282e-21
9.6750903e-21
1.0249122e-20
1.0419184e-20
1.0458163e-20
1.045795e-20
1.041857e-20
1.0248158e-20
9.6739012e-21
8.1150405e-21
4.9973438e-21
1.4434517e-21
6.8333303e-23
3.125815e-26
4.6042567e-37
4.859857e-38
2.6308426e-27
7.3775884e-24
1.7233302e-22
6.2188565e-22
1.0267316e-21
1.2318204e-21
1.3081125e-21
1.3310783e-21
1.3365054e-21
1.336477e-21
1.3309968e-21
1.3079843e-21
1.2316618e-21
1.0265732e-21
6.2177736e-22
1.7230116e-22
7.3761955e-24
2.6303311e-27
1.7820811e-38
2.9664391e-39
2.1434276e-28
7.7100942e-25
1.9914187e-23
7.4899507e-23
1.2571807e-22
1.5179149e-22
1.6157924e-22
1.6456493e-22
1.6528765e-22
1.6528399e-22
1.6455444e-22
1.6156273e-22
1.51771e-22
1.2569761e-22
7.4885624e-23
1.9910203e-23
7.70848e-25
2.1429514e-28
6.6769545e-40
)
;

boundaryField
{
    Wall
    {
        type            zeroGradient;
    }
    frontAndBack
    {
        type            empty;
    }
    atmosphere
    {
        type            zeroGradient;
    }
}


// ************************************************************************* //
