/*--------------------------------*- C++ -*----------------------------------*\
| =========                 |                                                 |
| \\      /  F ield         | OpenFOAM: The Open Source CFD Toolbox           |
|  \\    /   O peration     | Version:  3.0.1                                 |
|   \\  /    A nd           | Web:      www.OpenFOAM.org                      |
|    \\/     M anipulation  |                                                 |
\*---------------------------------------------------------------------------*/
FoamFile
{
    version     2.0;
    format      ascii;
    class       volScalarField;
    location    "15";
    object      wCO2_g;
}
// * * * * * * * * * * * * * * * * * * * * * * * * * * * * * * * * * * * * * //

dimensions      [0 0 0 0 0 0 0];

internalField   nonuniform List<scalar> 
800
(
0.0057581374
0.0057583647
0.0057584007
0.0057584184
0.0057584309
0.0057584404
0.0057584475
0.0057584526
0.0057584558
0.0057584574
0.0057584574
0.0057584558
0.0057584526
0.0057584476
0.0057584404
0.0057584309
0.0057584184
0.0057584008
0.0057583647
0.0057581374
0.0053238339
0.0053377065
0.0053389294
0.0053392351
0.0053394907
0.0053397253
0.0053399212
0.0053400664
0.0053401598
0.0053402054
0.0053402054
0.0053401598
0.0053400664
0.0053399212
0.0053397253
0.0053394907
0.0053392352
0.0053389295
0.0053377066
0.0053238338
0.0044968409
0.0045148548
0.0045245066
0.0045251997
0.0045256575
0.0045260637
0.0045263894
0.0045266252
0.0045267753
0.0045268484
0.0045268484
0.0045267753
0.0045266251
0.0045263893
0.0045260636
0.0045256574
0.0045251997
0.0045245066
0.0045148548
0.0044968407
0.0035234105
0.003546146
0.0035529033
0.0035536803
0.003554222
0.0035546484
0.0035549644
0.00355518
0.0035553121
0.0035553749
0.0035553749
0.003555312
0.0035551799
0.0035549644
0.0035546484
0.003554222
0.0035536804
0.0035529033
0.003546146
0.0035234104
0.0025560505
0.0025890521
0.0025936631
0.002594638
0.0025952106
0.0025955855
0.0025958099
0.0025959376
0.0025960061
0.0025960359
0.0025960359
0.002596006
0.0025959376
0.0025958099
0.0025955856
0.0025952107
0.0025946381
0.0025936633
0.0025890523
0.0025560505
0.0015235628
0.0015695085
0.0015737081
0.0015750733
0.0015757114
0.0015760144
0.0015761461
0.0015761765
0.0015761833
0.0015761816
0.0015761817
0.0015761833
0.0015761765
0.0015761461
0.0015760145
0.0015757115
0.0015750735
0.0015737084
0.0015695088
0.001523563
0.0007191945
0.00075065431
0.00075470675
0.00075598643
0.00075639925
0.00075647528
0.00075644819
0.00075637423
0.00075632049
0.00075628162
0.00075628163
0.00075632049
0.00075637425
0.00075644827
0.00075647542
0.00075639946
0.00075598671
0.00075470704
0.00075065465
0.00071919479
0.00029841311
0.00032356834
0.00032873268
0.00032955185
0.00032947097
0.00032921354
0.00032897056
0.00032880379
0.00032869278
0.00032862287
0.00032862287
0.00032869277
0.00032880376
0.00032897061
0.00032921366
0.00032947115
0.00032955212
0.0003287329
0.00032356861
0.00029841338
9.9386421e-05
0.0001260402
0.00013273884
0.00013362001
0.00013310705
0.00013244078
0.0001319017
0.00013156906
0.00013136373
0.00013125422
0.00013125419
0.0001313637
0.00013156898
0.0001319017
0.00013244084
0.00013310715
0.00013362019
0.00013273896
0.00012604035
9.9386595e-05
2.3113283e-05
4.3388908e-05
5.0087314e-05
5.1562154e-05
5.1293171e-05
5.0631232e-05
5.0014622e-05
4.9600371e-05
4.9339967e-05
4.9209301e-05
4.9209268e-05
4.933993e-05
4.9600282e-05
5.0014584e-05
5.063125e-05
5.1293209e-05
5.1562248e-05
5.0087361e-05
4.3388974e-05
2.3113347e-05
3.7164956e-06
1.2873586e-05
1.7356193e-05
1.8811953e-05
1.8907858e-05
1.8557009e-05
1.8147174e-05
1.7844865e-05
1.7647145e-05
1.7548611e-05
1.7548588e-05
1.7647114e-05
1.7844798e-05
1.8147136e-05
1.8557005e-05
1.8907859e-05
1.8811989e-05
1.7356205e-05
1.2873601e-05
3.7165093e-06
4.3664801e-07
3.2827063e-06
5.4842455e-06
6.4431825e-06
6.6412957e-06
6.5225627e-06
6.3257841e-06
6.1663038e-06
6.0576717e-06
6.0032455e-06
6.0032333e-06
6.0576531e-06
6.1662656e-06
6.3257582e-06
6.5225533e-06
6.641286e-06
6.443192e-06
5.4842459e-06
3.2827071e-06
4.3665e-07
4.0231965e-08
7.2797984e-07
1.58552e-06
2.0693666e-06
2.2173508e-06
2.1955483e-06
2.120031e-06
2.052085e-06
2.0039184e-06
1.9795964e-06
1.9795909e-06
2.003909e-06
2.0520668e-06
2.1200169e-06
2.1955412e-06
2.2173425e-06
2.0693671e-06
1.5855187e-06
7.2797892e-07
4.0232199e-08
3.0930104e-09
1.4329227e-07
4.2323489e-07
6.2526248e-07
7.0386157e-07
7.0733187e-07
6.8314077e-07
6.5837421e-07
6.4008762e-07
6.3077399e-07
6.307719e-07
6.4008336e-07
6.5836656e-07
6.8313429e-07
7.0732799e-07
7.0385679e-07
6.2526132e-07
4.2323413e-07
1.4329182e-07
3.0930343e-09
2.076225e-10
2.5631499e-08
1.0554189e-07
1.7871453e-07
2.1286948e-07
2.1821721e-07
2.1169306e-07
2.0372029e-07
1.9756858e-07
1.9440538e-07
1.9440463e-07
1.9756685e-07
2.037174e-07
2.1169039e-07
2.1821538e-07
2.1286732e-07
1.7871367e-07
1.0554156e-07
2.5631366e-08
2.0762469e-10
1.2556243e-11
4.2636498e-09
2.4883021e-08
4.8613217e-08
6.1510549e-08
6.4545246e-08
6.3110356e-08
6.0803246e-08
5.8930561e-08
5.7956699e-08
5.7956452e-08
5.8929922e-08
6.0802243e-08
6.3109343e-08
6.4544479e-08
6.1509715e-08
4.8612804e-08
2.4882907e-08
4.2636183e-09
1.2556417e-11
7.0004688e-13
6.7344505e-10
5.6057087e-09
1.2653636e-08
1.7029543e-08
1.8328571e-08
1.810685e-08
1.7501591e-08
1.6978768e-08
1.6703015e-08
1.6702937e-08
1.6978549e-08
1.7501263e-08
1.8106495e-08
1.8328276e-08
1.7029257e-08
1.2653476e-08
5.6056713e-09
6.734386e-10
7.0005895e-13
3.6710238e-14
1.0281366e-10
1.2167687e-09
3.1650793e-09
4.5273264e-09
5.0021065e-09
5.0002385e-09
4.8561607e-09
4.7211509e-09
4.6486224e-09
4.6485987e-09
4.7210806e-09
4.8560585e-09
5.0001217e-09
5.0020016e-09
4.5272366e-09
3.165025e-09
1.2167573e-09
1.0281243e-10
3.671095e-14
1.8502564e-15
1.5380223e-11
2.5589041e-10
7.6294532e-10
1.1575161e-09
1.312908e-09
1.3289075e-09
1.2980437e-09
1.2656343e-09
1.2477921e-09
1.2477852e-09
1.2656131e-09
1.2980132e-09
1.3288713e-09
1.3128734e-09
1.1574895e-09
7.6292886e-10
2.5588713e-10
1.5379992e-11
1.8502921e-15
9.2028654e-17
2.2738439e-12
5.2294673e-11
1.7750857e-10
2.8486588e-10
3.3151875e-10
3.3980756e-10
3.3400112e-10
3.2675361e-10
3.2262939e-10
3.2262742e-10
3.2674751e-10
3.3399237e-10
3.3979694e-10
3.3150807e-10
2.8485837e-10
1.7750396e-10
5.229379e-11
2.2738016e-12
9.2029962e-17
4.658746e-18
3.3330398e-13
1.0394402e-11
3.9886034e-11
6.7508852e-11
8.0538121e-11
8.3572525e-11
8.2675277e-11
8.1166641e-11
8.0268382e-11
8.0267832e-11
8.1164973e-11
8.2672868e-11
8.3569561e-11
8.0535051e-11
6.7506802e-11
3.988482e-11
1.0394178e-11
3.3329636e-13
4.6587605e-18
2.4694563e-19
4.8380125e-14
2.0084347e-12
8.6555471e-12
1.5408086e-11
1.8823317e-11
1.9763854e-11
1.9676618e-11
1.9385564e-11
1.9200999e-11
1.9200853e-11
1.9385129e-11
1.9675982e-11
1.9763065e-11
1.882249e-11
1.5407544e-11
8.6552453e-12
2.0083816e-12
4.8378793e-14
2.4694222e-19
1.3898634e-20
6.9268431e-15
3.7679325e-13
1.8134814e-12
3.3870293e-12
4.2323345e-12
4.493679e-12
4.5013909e-12
4.449864e-12
4.414102e-12
4.4140649e-12
4.4497554e-12
4.50123e-12
4.493479e-12
4.2321241e-12
3.3868909e-12
1.8134099e-12
3.7678135e-13
6.926617e-15
1.389818e-20
8.2495136e-22
9.7353159e-16
6.8537668e-14
3.66713e-13
7.1711657e-13
9.1554688e-13
9.8236573e-13
9.8978743e-13
9.8159103e-13
9.7507022e-13
9.7506126e-13
9.8156503e-13
9.8974846e-13
9.8231731e-13
9.1549622e-13
7.1708257e-13
3.6669676e-13
6.8535136e-14
9.7349467e-16
8.2491068e-22
5.0578324e-23
1.3371029e-16
1.2072429e-14
7.1551912e-14
1.4625536e-13
1.905816e-13
2.0652774e-13
2.0922311e-13
2.0810811e-13
2.0699421e-13
2.0699214e-13
2.0810216e-13
2.0921407e-13
2.0651654e-13
1.9056999e-13
1.4624738e-13
7.1548372e-14
1.2071916e-14
1.3370448e-16
5.0575175e-23
3.1317122e-24
1.7882749e-17
2.0572604e-15
1.3469487e-14
2.8739598e-14
3.818757e-14
4.1771314e-14
4.2530977e-14
4.2420199e-14
4.2243396e-14
4.2242938e-14
4.2418889e-14
4.2528972e-14
4.1768839e-14
3.8185025e-14
2.8737811e-14
1.3468743e-14
2.0571615e-15
1.7881876e-17
3.1314892e-24
1.9247838e-25
2.3230586e-18
3.3896243e-16
2.4464792e-15
5.4430045e-15
7.3687992e-15
8.1318353e-15
8.3185847e-15
8.3177019e-15
8.2920233e-15
8.2919266e-15
8.3174257e-15
8.3181592e-15
8.1313112e-15
7.3682662e-15
5.442623e-15
2.4463284e-15
3.3894415e-16
2.3229328e-18
1.9246351e-25
1.1614745e-26
2.9264058e-19
5.3982909e-17
4.2883039e-16
9.9396323e-16
1.3700633e-15
1.5246444e-15
1.5664287e-15
1.5698369e-15
1.5665315e-15
1.5665119e-15
1.569781e-15
1.5663424e-15
1.5245383e-15
1.3699562e-15
9.9388559e-16
4.2880094e-16
5.3979662e-17
2.9262311e-19
1.1613798e-26
6.838541e-28
3.5715106e-20
8.3098125e-18
7.2565798e-17
1.751036e-16
2.4559592e-16
2.7549122e-16
2.8417852e-16
2.8538774e-16
2.8504054e-16
2.8503671e-16
2.8537688e-16
2.841617e-16
2.7547062e-16
2.4557526e-16
1.750885e-16
7.2560258e-17
8.3092585e-18
3.571277e-20
6.8379408e-28
3.9159131e-29
4.2211013e-21
1.2366071e-18
1.1859681e-17
2.9775528e-17
4.2474433e-17
4.8008253e-17
4.9706682e-17
5.001232e-17
4.9991639e-17
4.9990931e-17
5.00103e-17
4.9703542e-17
4.8004413e-17
4.2470599e-17
2.977272e-17
1.1858678e-17
1.2365158e-18
4.220799e-21
3.9153953e-29
2.1778518e-30
4.8308251e-22
1.7795794e-19
1.8729768e-18
4.8902311e-18
7.0918986e-18
8.0744749e-18
8.3891185e-18
8.4551775e-18
8.4578073e-18
8.4576811e-18
8.4548163e-18
8.3885553e-18
8.0737866e-18
7.0912138e-18
4.8897304e-18
1.8728021e-18
1.7794337e-19
4.830445e-22
2.1768571e-30
1.176869e-31
5.3543407e-23
2.4776089e-20
2.8599312e-19
7.7621707e-19
1.1440239e-18
1.3116831e-18
1.3672097e-18
1.3801291e-18
1.3814596e-18
1.3814381e-18
1.3800669e-18
1.3671126e-18
1.3115644e-18
1.143906e-18
7.7613137e-19
2.8596378e-19
2.4773839e-20
5.3538753e-23
1.1743511e-31
6.2006968e-33
5.7492928e-24
3.3388185e-21
4.2247527e-20
1.1915334e-19
1.7842498e-19
2.0596123e-19
2.1533226e-19
2.176774e-19
2.1801544e-19
2.1801188e-19
2.1766712e-19
2.1531615e-19
2.0594153e-19
1.784054e-19
1.1913922e-19
4.2242777e-20
3.3384819e-21
5.7487369e-24
6.1462745e-33
3.2168859e-34
5.9830726e-25
4.3574406e-22
6.0413709e-21
1.7700527e-20
2.6923525e-20
3.1282784e-20
3.2799772e-20
3.3200399e-20
3.32696e-20
3.3269036e-20
3.3198756e-20
3.2797195e-20
3.1279629e-20
2.6920388e-20
1.7698283e-20
6.040629e-21
4.3569511e-22
5.9824218e-25
3.1212464e-34
1.6784524e-35
6.0372559e-26
5.5105296e-23
8.3680997e-22
2.5462997e-21
3.9333842e-21
4.5994227e-21
4.8355398e-21
4.9005031e-21
4.9130727e-21
4.9129861e-21
4.9002501e-21
4.8351419e-21
4.5989349e-21
3.9328979e-21
2.5459551e-21
8.3669795e-22
5.5098393e-23
6.0365124e-26
1.5384108e-35
9.1180975e-37
5.9098947e-27
6.7565959e-24
1.1234222e-22
3.5494314e-22
5.567422e-22
6.5506641e-22
6.9047259e-22
7.005292e-22
7.0263133e-22
7.026184e-22
7.0049143e-22
6.9041323e-22
6.5499347e-22
5.5666937e-22
3.5489188e-22
1.1232587e-22
6.7556503e-24
5.9090647e-27
7.3622456e-37
5.3493328e-38
5.6152868e-28
8.0368409e-25
1.4626773e-23
4.7974523e-23
7.639802e-23
9.0437339e-23
9.5560721e-23
9.7053087e-23
9.7382809e-23
9.7380932e-23
9.7047631e-23
9.5552139e-23
9.0426771e-23
7.6387454e-23
4.7967141e-23
1.4624456e-23
8.0355849e-25
5.6143839e-28
3.4223944e-38
3.4284268e-39
5.1813865e-29
9.2792636e-26
1.8480032e-24
6.2912195e-24
1.0170163e-23
1.2110907e-23
1.2827341e-23
1.3040293e-23
1.3089321e-23
1.3089057e-23
1.3039528e-23
1.2826138e-23
1.2109422e-23
1.0168677e-23
6.2901873e-24
1.8476851e-24
9.2776447e-26
5.1804307e-29
1.5460773e-39
2.3367332e-40
4.6454855e-30
1.040534e-26
2.2670387e-25
8.0092709e-25
1.3141953e-24
1.5741544e-24
1.6710881e-24
1.7003776e-24
1.7073363e-24
1.7073002e-24
1.7002736e-24
1.6709243e-24
1.5739516e-24
1.313992e-24
8.0078681e-25
2.2666145e-25
1.0403315e-26
4.6445016e-30
6.7908841e-41
1.6188094e-41
4.0490631e-31
1.1338433e-27
2.7018668e-26
9.9046323e-26
1.6494401e-25
1.9871208e-25
2.1141562e-25
2.1530618e-25
2.1625339e-25
2.162486e-25
2.1529243e-25
2.1139396e-25
1.9868514e-25
1.6491699e-25
9.9027788e-26
2.7013172e-26
1.1335975e-27
4.0480797e-31
2.9021432e-42
)
;

boundaryField
{
    Wall
    {
        type            zeroGradient;
    }
    frontAndBack
    {
        type            empty;
    }
    atmosphere
    {
        type            zeroGradient;
    }
}


// ************************************************************************* //
