/*--------------------------------*- C++ -*----------------------------------*\
| =========                 |                                                 |
| \\      /  F ield         | OpenFOAM: The Open Source CFD Toolbox           |
|  \\    /   O peration     | Version:  3.0.1                                 |
|   \\  /    A nd           | Web:      www.OpenFOAM.org                      |
|    \\/     M anipulation  |                                                 |
\*---------------------------------------------------------------------------*/
FoamFile
{
    version     2.0;
    format      ascii;
    class       volScalarField;
    location    "15";
    object      wCO2_l;
}
// * * * * * * * * * * * * * * * * * * * * * * * * * * * * * * * * * * * * * //

dimensions      [0 0 0 0 0 0 0];

internalField   nonuniform List<scalar> 
800
(
0.0030412018
0.0030411548
0.0030411552
0.0030411579
0.0030411597
0.0030411613
0.0030411625
0.0030411634
0.003041164
0.0030411643
0.0030411643
0.003041164
0.0030411634
0.0030411625
0.0030411613
0.0030411597
0.0030411579
0.0030411552
0.0030411548
0.0030412018
0.0032397032
0.003232626
0.0032321779
0.0032320637
0.0032319515
0.003231862
0.0032317939
0.0032317461
0.0032317164
0.0032317021
0.0032317021
0.0032317164
0.0032317461
0.0032317939
0.003231862
0.0032319515
0.0032320637
0.0032321779
0.003232626
0.0032397032
0.0043424074
0.0043243088
0.0043161535
0.0043158781
0.0043157003
0.0043155353
0.0043154075
0.0043153184
0.0043152639
0.0043152378
0.0043152379
0.004315264
0.0043153186
0.0043154076
0.0043155355
0.0043157005
0.0043158784
0.0043161537
0.004324309
0.0043424077
0.0058737176
0.0058521168
0.0058475275
0.0058472018
0.0058468744
0.0058466024
0.0058464101
0.005846282
0.0058462068
0.0058461714
0.0058461715
0.0058462069
0.0058462822
0.0058464103
0.0058466027
0.0058468747
0.0058472021
0.0058475278
0.0058521172
0.0058737181
0.0070832588
0.0070770545
0.0070774372
0.0070777051
0.0070776674
0.0070775733
0.0070774853
0.0070774125
0.0070773672
0.0070773441
0.0070773442
0.0070773673
0.0070774127
0.0070774856
0.0070775736
0.0070776678
0.0070777055
0.0070774377
0.007077055
0.0070832592
0.0065065048
0.0066535618
0.0066620979
0.0066651682
0.0066664687
0.0066669953
0.0066671962
0.0066671975
0.0066671817
0.0066671641
0.0066671641
0.0066671817
0.0066671976
0.0066671964
0.0066669956
0.0066664692
0.0066651687
0.0066620985
0.0066535624
0.0065065054
0.0035239735
0.0036974887
0.0037190829
0.0037249261
0.0037261881
0.003725945
0.0037254595
0.0037249187
0.0037245608
0.0037243246
0.0037243246
0.0037245609
0.0037249189
0.0037254599
0.0037259456
0.003726189
0.0037249274
0.0037190841
0.0036974901
0.0035239751
0.0016594523
0.0018245542
0.0018643369
0.0018721889
0.0018721301
0.0018703882
0.0018686848
0.0018675819
0.0018668416
0.0018663831
0.001866383
0.0018668416
0.0018675817
0.001868685
0.0018703888
0.001872131
0.0018721904
0.001864338
0.0018245556
0.001659454
0.00062666482
0.00081204318
0.00086803985
0.00087994537
0.00087858586
0.00087459699
0.00087095365
0.00086869991
0.00086727238
0.00086650654
0.0008665063
0.00086727216
0.00086869924
0.0008709535
0.00087459729
0.00087858636
0.00087994644
0.0008680404
0.00081204407
0.00062666608
0.00016607886
0.00032019679
0.00037808797
0.00039445947
0.00039477034
0.00039057088
0.0003860987
0.00038304449
0.00038108583
0.00038009661
0.00038009631
0.0003810855
0.00038304368
0.00038609828
0.00039057086
0.0003947704
0.00039445998
0.00037808808
0.00032019712
0.00016607938
3.0584579e-05
0.00010966682
0.0001519419
0.00016765367
0.00017011365
0.00016773019
0.00016439725
0.00016187011
0.00016018908
0.00015934768
0.00015934746
0.00016018877
0.00016186943
0.0001643968
0.00016773003
0.00017011346
0.0001676538
0.00015194183
0.00010966683
3.0584705e-05
4.1359378e-06
3.2613385e-05
5.6108062e-05
6.7201126e-05
7.0057539e-05
6.925561e-05
6.7437916e-05
6.5904162e-05
6.4842936e-05
6.4309548e-05
6.4309411e-05
6.4842711e-05
6.5903718e-05
6.7437581e-05
6.9255427e-05
7.0057312e-05
6.7201089e-05
5.6107964e-05
3.2613329e-05
4.1359582e-06
4.411217e-07
8.5308078e-06
1.9122865e-05
2.538873e-05
2.7506084e-05
2.7439531e-05
2.6644818e-05
2.5888092e-05
2.5343408e-05
2.506758e-05
2.5067511e-05
2.5343274e-05
2.5887848e-05
2.6644611e-05
2.7439396e-05
2.7505915e-05
2.5388658e-05
1.91228e-05
8.5307699e-06
4.411243e-07
3.9534727e-08
2.0039965e-06
6.0657609e-06
9.0616299e-06
1.028771e-05
1.0413593e-05
1.0124653e-05
9.8042909e-06
9.5640173e-06
9.441256e-06
9.441225e-06
9.5639463e-06
9.8041725e-06
1.0124543e-05
1.0413512e-05
1.028761e-05
9.061576e-06
6.0657287e-06
2.0039811e-06
3.9535008e-08
3.1222888e-09
4.3265377e-07
1.8075604e-06
3.0658162e-06
3.6664581e-06
3.7811291e-06
3.6939108e-06
3.574085e-06
3.4800192e-06
3.4314562e-06
3.4314432e-06
3.4799858e-06
3.5740328e-06
3.6938579e-06
3.7810865e-06
3.6664096e-06
3.0657863e-06
1.8075467e-06
4.3264897e-07
3.1223155e-09
2.2487928e-10
8.7664483e-08
5.1035779e-07
9.8655083e-07
1.2460461e-06
1.3126913e-06
1.2920955e-06
1.2518799e-06
1.2185564e-06
1.2011326e-06
1.2011275e-06
1.2185421e-06
1.2518586e-06
1.2920724e-06
1.3126713e-06
1.2460254e-06
9.865371e-07
5.1035264e-07
8.7663206e-08
2.2488145e-10
1.5169929e-11
1.6948796e-08
1.3743508e-07
3.0277385e-07
4.0414154e-07
4.3560369e-07
4.3280805e-07
4.2061731e-07
4.0980501e-07
4.040599e-07
4.0405797e-07
4.0979937e-07
4.2060916e-07
4.3279872e-07
4.3559507e-07
4.0413355e-07
3.0276835e-07
1.374333e-07
1.6948494e-08
1.5170075e-11
9.8117935e-13
3.1625472e-09
3.5454913e-08
8.8796633e-08
1.2518674e-07
1.3815409e-07
1.387131e-07
1.3537885e-07
1.3214139e-07
1.3038493e-07
1.3038424e-07
1.3213932e-07
1.3537589e-07
1.3870958e-07
1.3815067e-07
1.2518389e-07
8.8794638e-08
3.5454339e-08
3.162481e-09
9.8118628e-13
6.2219762e-14
5.7321047e-10
8.7841273e-09
2.4917967e-08
3.7057579e-08
4.1879393e-08
4.2514017e-08
4.1700021e-08
4.0801554e-08
4.0300588e-08
4.0300354e-08
4.080084e-08
4.1698999e-08
4.2512776e-08
4.1878135e-08
3.705662e-08
2.4917307e-08
8.783954e-09
5.7319667e-10
6.2219861e-14
3.9477343e-15
1.0115877e-10
2.0924696e-09
6.6961197e-09
1.0489041e-08
1.2136318e-08
1.2458086e-08
1.2285872e-08
1.205435e-08
1.1920507e-08
1.192043e-08
1.2054118e-08
1.2285537e-08
1.2457673e-08
1.2135888e-08
1.0488734e-08
6.6959165e-09
2.0924205e-09
1.0115601e-10
3.9477032e-15
2.5435242e-16
1.7375853e-11
4.7940727e-10
1.724157e-09
2.8404411e-09
3.3633919e-09
3.4907543e-09
3.4617355e-09
3.4063807e-09
3.372795e-09
3.3727709e-09
3.4063088e-09
3.4616308e-09
3.4906248e-09
3.3632548e-09
2.8403467e-09
1.7240981e-09
4.7939415e-10
1.737532e-11
2.5434729e-16
1.6733319e-17
2.8997896e-12
1.0563984e-10
4.255855e-10
7.3638158e-10
8.9185785e-10
9.3561528e-10
9.3300612e-10
9.2077461e-10
9.1284823e-10
9.1284105e-10
9.2075353e-10
9.3297505e-10
9.3557668e-10
8.9181689e-10
7.3635375e-10
4.2556933e-10
1.0563653e-10
2.8996906e-12
1.6732755e-17
1.1191942e-18
4.6915753e-13
2.2386987e-11
1.007574e-10
1.8289295e-10
2.2642797e-10
2.4001786e-10
2.4065018e-10
2.38175e-10
2.3641532e-10
2.3641329e-10
2.3816911e-10
2.4064139e-10
2.4000695e-10
2.2641642e-10
1.8288508e-10
1.0075319e-10
2.2386193e-11
4.6913983e-13
1.1191427e-18
7.5299805e-20
7.3443765e-14
4.562673e-12
2.2893056e-11
4.3552435e-11
5.5083939e-11
5.8978257e-11
5.9443319e-11
5.8993433e-11
5.8626398e-11
5.8625854e-11
5.899186e-11
5.9440954e-11
5.8975322e-11
5.5080858e-11
4.3550308e-11
2.2892004e-11
4.5624921e-12
7.3440729e-14
7.5295615e-20
5.0351449e-21
1.1108189e-14
8.9450255e-13
4.9953102e-12
9.9523165e-12
1.2851926e-11
1.3894141e-11
1.4073717e-11
1.4003526e-11
1.3931822e-11
1.3931682e-11
1.4003125e-11
1.4073109e-11
1.3893388e-11
1.2851144e-11
9.9517683e-12
4.9950588e-12
8.9446326e-13
1.1107688e-14
5.0348287e-21
3.3122314e-22
1.621766e-15
1.6874841e-13
1.0475726e-12
2.1843899e-12
2.8785826e-12
3.1411553e-12
3.1968656e-12
3.1886942e-12
3.1756535e-12
3.1756192e-12
3.1885965e-12
3.1967163e-12
3.1409711e-12
2.878393e-12
2.1842552e-12
1.0475148e-12
1.6874026e-13
1.621687e-15
3.3120079e-22
2.1278746e-23
2.2845662e-16
3.0648983e-14
2.1131386e-13
4.6093942e-13
6.1957623e-13
6.8220387e-13
6.9742796e-13
6.9723448e-13
6.9505188e-13
6.9504389e-13
6.9721167e-13
6.9739292e-13
6.8216074e-13
6.195323e-13
4.6090786e-13
2.1130107e-13
3.0647361e-14
2.2844468e-16
2.1277251e-23
1.3288306e-24
3.1050579e-17
5.3627058e-15
4.1036726e-14
9.3602383e-14
1.2828154e-13
1.4248383e-13
1.4628436e-13
1.4655524e-13
1.4622684e-13
1.4622505e-13
1.4655013e-13
1.462765e-13
1.4247417e-13
1.2827178e-13
9.3595322e-14
4.1034002e-14
5.3623957e-15
3.1048839e-17
1.3287354e-24
8.0450915e-26
4.0727524e-18
9.0459284e-16
7.6790596e-15
1.8309773e-14
2.5576198e-14
2.8648686e-14
2.9531664e-14
2.9645019e-14
2.960299e-14
2.9602603e-14
2.9643923e-14
2.9529971e-14
2.8646613e-14
2.5574119e-14
1.8308262e-14
7.6785008e-15
9.0453585e-16
4.0725085e-18
8.0445001e-26
4.7157174e-27
5.1575826e-19
1.4721677e-16
1.3858868e-15
3.4534453e-15
4.9153502e-15
5.5512063e-15
5.7442468e-15
5.776944e-15
5.7731463e-15
5.7730672e-15
5.7767182e-15
5.7438967e-15
5.5507789e-15
4.9149239e-15
3.4531355e-15
1.3857764e-15
1.4720665e-16
5.157252e-19
4.7152875e-27
2.6750622e-28
6.3094097e-20
2.3133614e-17
2.4144824e-16
6.2865067e-16
9.1149506e-16
1.0376702e-15
1.0776741e-15
1.0856742e-15
1.085723e-15
1.0857073e-15
1.0856295e-15
1.0776045e-15
1.0375854e-15
9.1141094e-16
6.2858973e-16
2.4142721e-16
2.3131875e-17
6.3089743e-20
2.6744636e-28
1.4691616e-29
7.4609787e-21
3.5128883e-18
4.0642764e-17
1.1054957e-16
1.6325172e-16
1.8730661e-16
1.9520531e-16
1.9697062e-16
1.9710725e-16
1.9710428e-16
1.969621e-16
1.9519203e-16
1.8729043e-16
1.6323572e-16
1.1053805e-16
4.06389e-17
3.512599e-18
7.4604201e-21
1.4678245e-29
7.8256406e-31
8.5343037e-22
5.1590775e-19
6.6158043e-18
1.8796953e-17
2.8266526e-17
3.268028e-17
3.4172015e-17
3.453296e-17
3.4577627e-17
3.4577084e-17
3.4531398e-17
3.4169573e-17
3.2677306e-17
2.8263588e-17
1.8794858e-17
6.6151194e-18
5.1586109e-19
8.5336046e-22
7.7972048e-31
4.0612784e-32
9.4496614e-23
7.3335485e-20
1.0422903e-18
3.0929949e-18
4.7357647e-18
5.5164283e-18
5.7867172e-18
5.856108e-18
5.8669353e-18
5.8668399e-18
5.8558313e-18
5.7862841e-18
5.5159004e-18
4.7352442e-18
3.0926271e-18
1.0421731e-18
7.3328166e-20
9.4488024e-23
4.0107359e-32
2.0743269e-33
1.0135687e-23
1.0097886e-20
1.5905803e-19
4.9294305e-19
7.6839829e-19
9.0168158e-19
9.4878292e-19
9.6143926e-19
9.6371241e-19
9.6369618e-19
9.6139199e-19
9.4870875e-19
9.0159114e-19
7.6830903e-19
4.9288069e-19
1.5903862e-19
1.0096771e-20
1.0134656e-23
1.9987742e-33
1.0628372e-34
1.0538754e-24
1.3478799e-21
2.3530138e-20
7.6153561e-20
1.208427e-19
1.4283607e-19
1.5074639e-19
1.5294972e-19
1.5338468e-19
1.5338199e-19
1.5294189e-19
1.5073411e-19
1.4282108e-19
1.208279e-19
7.614332e-20
2.3527028e-20
1.3477149e-21
1.0537542e-24
9.6563513e-35
5.6239322e-36
1.0629891e-25
1.7454029e-22
3.3769397e-21
1.1412876e-20
1.8434666e-20
2.1946318e-20
2.3228839e-20
2.3596538e-20
2.3674196e-20
2.3673764e-20
2.3595283e-20
2.3226871e-20
2.1943911e-20
1.843229e-20
1.1411248e-20
3.3764564e-21
1.7451657e-22
1.06285e-25
4.5251846e-36
3.1674729e-37
1.0408016e-26
2.1941775e-23
4.7050766e-22
1.6604764e-21
2.7299734e-21
3.2730893e-21
3.4741359e-21
3.5331499e-21
3.5462568e-21
3.5461895e-21
3.5329546e-21
3.4738298e-21
3.2727143e-21
2.7296032e-21
1.6602252e-21
4.7043483e-22
2.1938463e-23
1.0406461e-26
2.0582535e-37
1.9220509e-38
9.8990496e-28
2.6796352e-24
6.3687833e-23
2.3469857e-22
3.9273746e-22
4.7418084e-22
5.0469228e-22
5.1382442e-22
5.1593257e-22
5.1592233e-22
5.1379494e-22
5.0464605e-22
4.7412406e-22
3.9268139e-22
2.3466089e-22
6.3677168e-23
2.6791859e-24
9.8973569e-28
9.0921123e-39
1.2351496e-39
9.1513082e-29
3.1812143e-25
8.3807364e-24
3.2249446e-23
5.4924365e-23
6.6776335e-23
7.1264514e-23
7.2629846e-23
7.2954743e-23
7.2953235e-23
7.2625521e-23
7.1257726e-23
6.6767968e-23
5.4916105e-23
3.2243946e-23
8.379218e-24
3.180622e-25
9.1495171e-29
3.9031842e-40
)
;

boundaryField
{
    Wall
    {
        type            zeroGradient;
    }
    frontAndBack
    {
        type            empty;
    }
    atmosphere
    {
        type            zeroGradient;
    }
}


// ************************************************************************* //
