/*--------------------------------*- C++ -*----------------------------------*\
| =========                 |                                                 |
| \\      /  F ield         | OpenFOAM: The Open Source CFD Toolbox           |
|  \\    /   O peration     | Version:  3.0.1                                 |
|   \\  /    A nd           | Web:      www.OpenFOAM.org                      |
|    \\/     M anipulation  |                                                 |
\*---------------------------------------------------------------------------*/
FoamFile
{
    version     2.0;
    format      ascii;
    class       volScalarField;
    location    "48";
    object      alpha.gas;
}
// * * * * * * * * * * * * * * * * * * * * * * * * * * * * * * * * * * * * * //

dimensions      [0 0 0 0 0 0 0];

internalField   nonuniform List<scalar> 
800
(
2.0189592e-28
2.2241556e-25
4.2547772e-22
8.4312464e-22
2.9675633e-23
1.0334323e-21
9.2434504e-22
6.8110355e-23
7.2057238e-25
3.3119362e-27
3.0178724e-23
2.9125885e-23
1.2236144e-24
6.8357269e-23
6.5744974e-23
1.5140051e-27
6.2423028e-32
2.6977879e-35
5.3074111e-39
9.9232302e-43
1.0492304e-12
2.4773558e-13
1.6384491e-11
6.2924576e-12
3.984414e-13
7.7149248e-12
6.2387683e-12
7.4541705e-12
1.5114883e-11
3.8029705e-11
1.9162811e-11
1.8995659e-11
1.0261525e-11
6.1114011e-12
5.671687e-12
1.097264e-12
1.9558787e-15
1.0663002e-13
3.2135415e-12
4.5731093e-15
9.2301084e-09
8.6994724e-09
8.3909091e-09
8.3362226e-09
8.2755477e-09
8.2701094e-09
8.2703114e-09
8.2772775e-09
8.2903044e-09
8.3171234e-09
8.2972736e-09
8.2944045e-09
8.2802593e-09
8.270216e-09
8.2680147e-09
8.2763492e-09
8.3297045e-09
8.374025e-09
8.7026945e-09
9.2292381e-09
1.7506764e-08
1.6677143e-08
1.6264321e-08
1.6116996e-08
1.6129903e-08
1.6095403e-08
1.6088942e-08
1.6096133e-08
1.5961083e-08
1.5982305e-08
1.596816e-08
1.5964028e-08
1.6098303e-08
1.6088925e-08
1.6093978e-08
1.6130565e-08
1.611245e-08
1.6252481e-08
1.6679661e-08
1.7506384e-08
3.2009483e-08
2.7680397e-08
2.5839578e-08
2.5172265e-08
2.4884986e-08
2.4788173e-08
2.4755767e-08
2.4752358e-08
2.4780919e-08
2.4795892e-08
2.4786539e-08
2.4782901e-08
2.4753853e-08
2.4755835e-08
2.4787339e-08
2.488557e-08
2.5169381e-08
2.5831896e-08
2.7682573e-08
3.2009599e-08
7.1650235e-08
6.1898476e-08
5.7290055e-08
5.5674346e-08
5.4988129e-08
5.4760348e-08
5.4684231e-08
5.4672753e-08
5.476801e-08
5.478643e-08
5.477733e-08
5.4770016e-08
5.4674342e-08
5.4684463e-08
5.4759762e-08
5.4989019e-08
5.5671816e-08
5.7282882e-08
6.1901506e-08
7.1651072e-08
1.3109259e-07
1.1448858e-07
1.056956e-07
1.0277025e-07
1.0165387e-07
1.0125558e-07
1.0112958e-07
1.0111494e-07
1.0117777e-07
1.012045e-07
1.0119454e-07
1.0118007e-07
1.0111685e-07
1.0113004e-07
1.0125522e-07
1.0165522e-07
1.0276783e-07
1.056883e-07
1.1449291e-07
1.3109437e-07
2.1316155e-07
1.87281e-07
1.7201263e-07
1.6705753e-07
1.6532685e-07
1.6470385e-07
1.6451369e-07
1.6449515e-07
1.6453511e-07
1.6457192e-07
1.6456143e-07
1.6453765e-07
1.6449739e-07
1.6451446e-07
1.6470383e-07
1.6532874e-07
1.6705544e-07
1.7200574e-07
1.8728679e-07
2.1316453e-07
3.2206259e-07
2.8448613e-07
2.6005474e-07
2.5165122e-07
2.4902459e-07
2.481264e-07
2.4786131e-07
2.4783919e-07
2.4788796e-07
2.4794103e-07
2.4793036e-07
2.4789071e-07
2.4784179e-07
2.4786249e-07
2.481269e-07
2.4902715e-07
2.5164973e-07
2.6004889e-07
2.8449355e-07
3.2206713e-07
4.618757e-07
4.1267634e-07
3.7436045e-07
3.5949371e-07
3.5574532e-07
3.5450904e-07
3.5411448e-07
3.540953e-07
3.5419075e-07
3.5427284e-07
3.5426214e-07
3.541937e-07
3.5409832e-07
3.5411634e-07
3.5451017e-07
3.5574869e-07
3.5949307e-07
3.7435622e-07
4.1268591e-07
4.6188194e-07
6.393479e-07
5.8026802e-07
5.1437458e-07
4.9287024e-07
4.8863485e-07
4.8690569e-07
4.8636824e-07
4.8651862e-07
4.8679575e-07
4.8672726e-07
4.867169e-07
4.8680001e-07
4.8651987e-07
4.8636961e-07
4.8690549e-07
4.8863885e-07
4.9287054e-07
5.1437203e-07
5.8028072e-07
6.3935583e-07
8.5861943e-07
7.6398774e-07
6.7405587e-07
6.5730991e-07
6.5070805e-07
6.4785434e-07
6.4907505e-07
6.4845954e-07
6.4753271e-07
6.4668791e-07
6.4668048e-07
6.4752643e-07
6.4846072e-07
6.4906676e-07
6.478727e-07
6.5071261e-07
6.5730798e-07
6.7405259e-07
7.6399975e-07
8.586291e-07
1.0989854e-06
9.4828169e-07
8.8805275e-07
8.801532e-07
8.3606957e-07
8.3095831e-07
8.33658e-07
8.3258395e-07
8.2479863e-07
8.3016163e-07
8.3013079e-07
8.2471082e-07
8.3270773e-07
8.3376724e-07
8.3114882e-07
8.361164e-07
8.8018977e-07
8.8805161e-07
9.48292e-07
1.0989949e-06
1.3775682e-06
1.2757656e-06
1.3780438e-06
1.1317447e-06
1.0763985e-06
1.0919831e-06
1.0151442e-06
1.0325196e-06
1.0634607e-06
1.1073321e-06
1.1071462e-06
1.0645592e-06
1.0324492e-06
1.0153506e-06
1.0892623e-06
1.0759665e-06
1.1317571e-06
1.3780226e-06
1.2758088e-06
1.3775843e-06
1.7161803e-06
1.9790966e-06
1.9718938e-06
1.3049016e-06
1.442662e-06
1.7978701e-06
1.7633745e-06
1.4650552e-06
1.9402403e-06
1.8815436e-06
1.8827605e-06
1.9358074e-06
1.4630271e-06
1.7433212e-06
1.7945704e-06
1.4429658e-06
1.3048589e-06
1.9719048e-06
1.9791073e-06
1.7161964e-06
2.1661151e-06
2.1882556e-06
1.7086415e-06
1.6107754e-06
1.6874502e-06
2.0717801e-06
5.8371388e-06
4.1333037e-06
3.5208163e-06
1.9028539e-06
1.9042229e-06
3.5227412e-06
4.1166943e-06
5.8299991e-06
2.0748171e-06
1.6878815e-06
1.610865e-06
1.7086851e-06
2.188273e-06
2.1661327e-06
2.604485e-06
2.119484e-06
1.7120766e-06
1.9398178e-06
2.0061682e-06
2.3213833e-06
6.1292154e-06
6.1298299e-06
2.9831125e-06
1.8170648e-06
1.8177021e-06
2.9889118e-06
6.1486845e-06
6.1480685e-06
2.325047e-06
2.0062743e-06
1.9398881e-06
1.7121229e-06
2.1194913e-06
2.6045066e-06
3.3435064e-06
2.999311e-06
2.1705961e-06
2.3844111e-06
3.2692062e-06
4.057025e-06
5.4343479e-06
5.3217218e-06
2.5321802e-06
1.8247261e-06
1.8215677e-06
2.5360504e-06
5.3352345e-06
5.464643e-06
4.0608879e-06
3.2695081e-06
2.3843788e-06
2.1706205e-06
2.9993692e-06
3.3435591e-06
4.6797017e-06
1.6043938e-05
5.7270057e-06
6.7345749e-06
1.1636835e-05
1.1037807e-05
3.9876346e-06
2.568464e-06
2.5372454e-06
2.6826907e-06
2.6801543e-06
2.541045e-06
2.5726148e-06
4.0106556e-06
1.1012951e-05
1.1643118e-05
6.7320181e-06
5.7269119e-06
1.6044654e-05
4.6797614e-06
2.0404242e-05
3.3082292e-05
2.8731304e-05
3.0464599e-05
3.0860016e-05
2.0195489e-05
5.8711795e-06
2.5515171e-06
2.5437264e-06
2.9496091e-06
2.9511566e-06
2.5474527e-06
2.5551698e-06
5.8586549e-06
2.0192714e-05
3.0857032e-05
3.0461437e-05
2.8731034e-05
3.3082467e-05
2.0404386e-05
3.3082267e-05
3.3082204e-05
3.3082225e-05
3.3082038e-05
2.1612421e-05
1.4294569e-05
5.8434954e-06
2.9623649e-06
2.6826605e-06
3.4254146e-06
3.4237208e-06
2.6808036e-06
2.9582661e-06
5.7730888e-06
1.4323999e-05
2.1610247e-05
3.3082213e-05
3.30824e-05
3.3082378e-05
3.3082441e-05
3.308224e-05
3.3082337e-05
3.3082204e-05
2.9970526e-05
6.1807165e-06
4.5248073e-06
3.0084636e-06
2.9833039e-06
1.0997822e-05
1.077932e-05
1.075714e-05
1.0986944e-05
2.9784242e-06
3.0026852e-06
4.5298192e-06
6.1724686e-06
2.9975415e-05
3.3082378e-05
3.3082511e-05
3.3082415e-05
3.3082343e-05
3.3082304e-05
3.3082312e-05
1.1592244e-05
3.1447746e-06
3.1105116e-06
3.0848232e-06
3.026752e-06
1.3477889e-05
1.3478622e-05
1.3477958e-05
1.3478625e-05
3.007615e-06
3.0604655e-06
3.086979e-06
3.1221826e-06
1.1579459e-05
3.3082486e-05
3.3082478e-05
3.3082517e-05
3.3082322e-05
3.3082388e-05
3.1136717e-05
4.019586e-06
3.4566286e-06
3.7022324e-06
9.0159781e-06
1.147336e-05
1.2263807e-05
1.3478047e-05
1.3478598e-05
1.2274033e-05
1.148618e-05
9.0679875e-06
3.6936757e-06
3.4498534e-06
4.0210131e-06
3.1138156e-05
3.3082563e-05
3.3082497e-05
3.308233e-05
3.308229e-05
1.4154365e-05
4.5427063e-06
1.360499e-05
1.5522133e-05
1.8736761e-05
1.8735533e-05
1.0577604e-05
1.2226519e-05
1.2222867e-05
1.0577493e-05
1.8743352e-05
1.8744581e-05
1.5519827e-05
1.3629881e-05
4.543711e-06
1.4155635e-05
3.3082465e-05
3.3082505e-05
3.308222e-05
3.3082292e-05
1.2725645e-05
1.6207933e-05
1.8735542e-05
1.8736692e-05
1.8735861e-05
1.8736674e-05
1.0577012e-05
1.0576461e-05
1.0576349e-05
1.0576901e-05
1.8744495e-05
1.8743682e-05
1.8744513e-05
1.8743362e-05
1.6199422e-05
1.2727838e-05
3.3082466e-05
3.3082395e-05
3.3082183e-05
2.9574756e-05
1.7726605e-05
1.4925874e-05
1.8736579e-05
1.8735711e-05
1.8736692e-05
1.8735593e-05
1.7301527e-05
1.0576006e-05
1.0575895e-05
1.7279033e-05
1.8743417e-05
1.8744512e-05
1.8743534e-05
1.8744402e-05
1.4948981e-05
1.7721211e-05
2.9572367e-05
3.3082358e-05
1.4792862e-05
1.1457536e-05
1.941379e-05
1.1237542e-05
1.8735562e-05
1.8736569e-05
1.8735566e-05
1.8736569e-05
1.8735284e-05
1.0576146e-05
1.0576085e-05
1.8743061e-05
1.8744392e-05
1.8743386e-05
1.8744392e-05
1.8743385e-05
1.1237846e-05
1.9410373e-05
1.1457279e-05
1.479542e-05
1.123882e-05
1.1238625e-05
1.9426608e-05
1.1236016e-05
1.8736483e-05
1.8735375e-05
1.8736569e-05
1.873534e-05
1.620951e-05
1.3448464e-05
1.3487295e-05
1.6225423e-05
1.8743118e-05
1.8744392e-05
1.8743194e-05
1.8744307e-05
1.1236318e-05
1.9423444e-05
1.1238938e-05
1.1239123e-05
1.1237873e-05
1.1237142e-05
1.5182971e-05
1.1235136e-05
1.3915002e-05
1.7093439e-05
1.8735274e-05
1.4354409e-05
1.1239425e-05
1.5217916e-05
1.5216548e-05
1.1239737e-05
1.431418e-05
1.8743056e-05
1.7101647e-05
1.388703e-05
1.1235439e-05
1.5188529e-05
1.1237445e-05
1.1238175e-05
1.1236923e-05
1.1236196e-05
1.1235104e-05
1.1234251e-05
1.1234462e-05
1.1235201e-05
1.1827056e-05
1.1236914e-05
1.1237879e-05
1.5216479e-05
1.5217836e-05
1.1238181e-05
1.1237216e-05
1.180538e-05
1.1235503e-05
1.1234763e-05
1.1234555e-05
1.1235406e-05
1.1236499e-05
1.1237225e-05
1.1235948e-05
1.1235072e-05
1.1234223e-05
1.1233452e-05
1.1233622e-05
1.1234239e-05
1.1235148e-05
1.1236e-05
1.1236972e-05
1.1690961e-05
1.1693032e-05
1.1237274e-05
1.1236302e-05
1.123545e-05
1.1234541e-05
1.1233925e-05
1.1233755e-05
1.1234526e-05
1.1235374e-05
1.123625e-05
1.1235072e-05
1.1234224e-05
1.1233452e-05
1.1232758e-05
1.1232802e-05
1.1233419e-05
1.1234239e-05
1.1235147e-05
1.1236007e-05
1.1236889e-05
1.1237191e-05
1.123631e-05
1.1235449e-05
1.1234541e-05
1.1233721e-05
1.1233104e-05
1.123306e-05
1.1233755e-05
1.1234526e-05
1.1235374e-05
1.123452e-05
1.1233604e-05
1.1232777e-05
1.1232027e-05
1.1232058e-05
1.1232673e-05
1.1233419e-05
1.1234239e-05
1.1235147e-05
1.1236091e-05
1.1236393e-05
1.1235449e-05
1.1234542e-05
1.1233721e-05
1.1232975e-05
1.123236e-05
1.1232329e-05
1.1233079e-05
1.1233906e-05
1.1234822e-05
1.1234738e-05
1.1233732e-05
1.1232822e-05
1.1231981e-05
1.1231749e-05
1.1232233e-05
1.1233061e-05
1.1233951e-05
1.1234858e-05
1.1235846e-05
1.1236149e-05
1.1235161e-05
1.1234253e-05
1.1233363e-05
1.1232535e-05
1.1232051e-05
1.1232284e-05
1.1233125e-05
1.1234034e-05
1.1235041e-05
3.797889e-05
1.169689e-05
1.1233639e-05
1.1232709e-05
1.1232239e-05
1.1232583e-05
1.123345e-05
1.1234347e-05
1.1235341e-05
1.123631e-05
1.1236612e-05
1.1235643e-05
1.1234649e-05
1.1233752e-05
1.1232885e-05
1.1232541e-05
1.1233012e-05
1.1233941e-05
1.1695906e-05
3.7969784e-05
0.00051226221
8.055135e-05
1.4394494e-05
1.1233639e-05
1.1233166e-05
1.1233504e-05
1.1234336e-05
1.1235341e-05
1.123631e-05
1.1237388e-05
1.123769e-05
1.1236612e-05
1.1235643e-05
1.1234638e-05
1.1233806e-05
1.1233468e-05
1.1233941e-05
1.4393707e-05
8.0531794e-05
0.00051210355
0.012082547
0.0010344062
0.00014252329
6.8558002e-05
5.1148747e-05
4.4922049e-05
4.2906914e-05
4.2006908e-05
4.1453058e-05
4.1205217e-05
4.1205146e-05
4.145266e-05
4.2006065e-05
4.2905799e-05
4.4920384e-05
5.1146142e-05
6.8552912e-05
0.00014250605
0.0010341618
0.012077499
0.28500471
0.021714148
0.0033645801
0.0015844674
0.0010879698
0.00089759952
0.00082040579
0.00077821611
0.00075403283
0.0007433269
0.00074332202
0.00075401814
0.00077818903
0.00082036965
0.00089754855
0.0010878855
0.0015843058
0.0033640732
0.021709219
0.28493979
0.8674487
0.51605426
0.33393586
0.28652371
0.27153131
0.2625857
0.25762216
0.25435699
0.25232704
0.25143047
0.25143009
0.25232585
0.2543548
0.25761934
0.26258202
0.27152659
0.28651716
0.33392308
0.51602416
0.86742069
)
;

boundaryField
{
    Wall
    {
        type            zeroGradient;
    }
    frontAndBack
    {
        type            empty;
    }
    atmosphere
    {
        type            zeroGradient;
    }
}


// ************************************************************************* //
