/*--------------------------------*- C++ -*----------------------------------*\
| =========                 |                                                 |
| \\      /  F ield         | OpenFOAM: The Open Source CFD Toolbox           |
|  \\    /   O peration     | Version:  3.0.1                                 |
|   \\  /    A nd           | Web:      www.OpenFOAM.org                      |
|    \\/     M anipulation  |                                                 |
\*---------------------------------------------------------------------------*/
FoamFile
{
    version     2.0;
    format      ascii;
    class       volScalarField;
    location    "48";
    object      g1_BA;
}
// * * * * * * * * * * * * * * * * * * * * * * * * * * * * * * * * * * * * * //

dimensions      [0 0 0 0 0 0 0];

internalField   nonuniform List<scalar> 
800
(
0.48888956
0.48886266
0.48885849
0.48885806
0.48885807
0.48885805
0.48885798
0.4888579
0.48885784
0.48885781
0.48885781
0.48885784
0.4888579
0.48885798
0.48885805
0.48885807
0.48885806
0.4888585
0.48886266
0.48888956
0.49401333
0.49371956
0.49363347
0.49360041
0.49358618
0.49357952
0.49357622
0.49357453
0.49357367
0.49357332
0.49357332
0.49357367
0.49357453
0.49357623
0.49357953
0.49358619
0.49360042
0.49363349
0.49371958
0.49401336
0.49692761
0.49657682
0.49648205
0.49645404
0.49644456
0.49644058
0.49643835
0.49643685
0.49643588
0.49643539
0.49643539
0.49643588
0.49643686
0.49643835
0.49644059
0.49644457
0.49645405
0.49648206
0.49657684
0.49692763
0.49592145
0.49565618
0.49560562
0.49560303
0.49560613
0.49560752
0.49560704
0.49560576
0.49560452
0.49560381
0.4956038
0.49560452
0.49560576
0.49560703
0.49560751
0.49560613
0.49560302
0.49560562
0.49565617
0.49592145
0.49169757
0.49164646
0.49168199
0.49172094
0.49174334
0.4917527
0.49175487
0.49175401
0.49175247
0.49175148
0.49175148
0.49175247
0.491754
0.49175485
0.49175268
0.49174332
0.49172091
0.49168196
0.49164642
0.49169753
0.48474067
0.48501102
0.4851662
0.48525962
0.48530684
0.48532645
0.48533217
0.48533206
0.48533032
0.48532906
0.48532906
0.48533031
0.48533204
0.48533214
0.48532642
0.4853068
0.48525956
0.48516613
0.48501095
0.48474057
0.47542989
0.47610837
0.47640929
0.47656675
0.4766426
0.47667405
0.47668398
0.4766849
0.47668305
0.47668156
0.47668156
0.47668303
0.47668487
0.47668393
0.47667399
0.47664253
0.47656667
0.47640919
0.47610826
0.47542975
0.46411701
0.46526908
0.46573489
0.46596289
0.46606953
0.46611365
0.46612818
0.46613031
0.46612844
0.46612675
0.46612674
0.46612841
0.46613026
0.46612812
0.46611357
0.46606944
0.46596277
0.46573476
0.46526894
0.46411683
0.45116982
0.45285494
0.45349533
0.45379636
0.45393351
0.45398974
0.45400847
0.45401156
0.45400953
0.45400758
0.45400757
0.45400949
0.45401151
0.4540084
0.45398964
0.45393339
0.45379622
0.45349517
0.45285477
0.4511696
0.43662825
0.4389225
0.43977085
0.44015199
0.44032313
0.44039316
0.44041692
0.44042139
0.44041939
0.44041727
0.44041726
0.44041935
0.44042133
0.44041683
0.44039305
0.44032299
0.44015183
0.43977067
0.4389223
0.43662801
0.42064624
0.42362307
0.42470043
0.42516261
0.42536584
0.42544865
0.42547709
0.42548273
0.42548058
0.42547821
0.42547819
0.42548054
0.42548265
0.42547699
0.42544852
0.42536569
0.42516243
0.42470022
0.42362285
0.42064597
0.40483466
0.40695671
0.40829626
0.40884149
0.40907246
0.40916609
0.40919972
0.40920689
0.40920473
0.40920216
0.40920215
0.40920468
0.40920681
0.40919961
0.40916595
0.40907229
0.4088413
0.40829605
0.40695648
0.40483439
0.38793549
0.3920382
0.39348226
0.39408408
0.3943381
0.39443844
0.39447142
0.39447735
0.39447409
0.39447087
0.39447085
0.39447403
0.39447726
0.39447131
0.3944383
0.39433793
0.39408389
0.39348204
0.39203797
0.38793523
0.37070565
0.37537685
0.37703211
0.37770416
0.37798111
0.37808873
0.37812387
0.37812983
0.37812589
0.37812216
0.37812214
0.37812584
0.37812974
0.37812376
0.37808858
0.37798093
0.37770397
0.37703189
0.37537662
0.37070539
0.35333034
0.35856756
0.3604345
0.36117485
0.36147232
0.36158567
0.36162253
0.36162826
0.36162354
0.36161923
0.36161921
0.36162349
0.36162816
0.3616224
0.36158552
0.36147214
0.36117464
0.36043427
0.35856732
0.35333007
0.33601447
0.34181326
0.34389257
0.34469983
0.34501577
0.34513322
0.34517069
0.34517563
0.34516989
0.34516486
0.34516484
0.34516983
0.34517554
0.34517057
0.34513307
0.3450156
0.34469965
0.34389236
0.34181305
0.33601422
0.31887516
0.32522369
0.32751893
0.32839468
0.32872901
0.3288499
0.32888701
0.32889087
0.32888405
0.32887829
0.32887827
0.32888399
0.32889078
0.32888689
0.32884976
0.32872883
0.32839449
0.32751872
0.32522348
0.31887492
0.30201924
0.30890691
0.31142397
0.31237099
0.31272409
0.31284743
0.31288264
0.31288478
0.31287669
0.3128701
0.31287008
0.31287664
0.31288469
0.31288253
0.31284729
0.31272393
0.31237082
0.31142377
0.30890671
0.30201903
0.28551549
0.29293324
0.29568062
0.29670404
0.29707744
0.29720231
0.29723403
0.29723366
0.29722406
0.29721647
0.29721645
0.29722401
0.29723358
0.29723391
0.29720218
0.29707728
0.29670387
0.29568043
0.29293304
0.28551528
0.26944555
0.27738862
0.28037992
0.28148785
0.28188422
0.28200989
0.28203661
0.2820328
0.28202142
0.28201264
0.28201263
0.28202138
0.28203272
0.28203651
0.28200977
0.28188409
0.2814877
0.28037976
0.27738846
0.26944538
0.25381687
0.26227695
0.26553074
0.26673491
0.26715839
0.26728451
0.2673047
0.26729611
0.26728247
0.26727216
0.26727214
0.26728243
0.26729603
0.26730461
0.2672844
0.26715826
0.26673477
0.26553058
0.2622768
0.25381672
0.23863901
0.24761524
0.25115446
0.25246942
0.25292526
0.25305181
0.25306393
0.253049
0.25303257
0.25302034
0.25302033
0.25303254
0.25304894
0.25306385
0.25305171
0.25292515
0.25246931
0.25115434
0.24761512
0.2386389
0.22394092
0.23343367
0.23728793
0.23873399
0.2392304
0.23935851
0.2393612
0.23933812
0.23931813
0.2393035
0.23930348
0.23931809
0.23933806
0.23936112
0.23935842
0.2392303
0.23873389
0.23728783
0.23343357
0.22394083
0.20966944
0.21968563
0.22388782
0.22548813
0.2260356
0.22616725
0.22615916
0.2261259
0.22610128
0.22608369
0.22608368
0.22610125
0.22612585
0.2261591
0.22616718
0.22603552
0.22548805
0.22388774
0.21968556
0.20966938
0.19581242
0.20636004
0.21095183
0.21273683
0.21334875
0.21348704
0.2134667
0.21342065
0.21338976
0.21336835
0.21336834
0.21338973
0.21342061
0.21346664
0.21348698
0.21334869
0.21273678
0.21095177
0.20636
0.19581239
0.18233823
0.19343144
0.19845984
0.20046527
0.20115964
0.20131003
0.20127682
0.20121544
0.20117644
0.20115033
0.20115032
0.20117641
0.20121539
0.20127677
0.20130998
0.2011596
0.20046523
0.19845981
0.19343143
0.18233823
0.16917312
0.18082972
0.18634639
0.18861259
0.18941182
0.18958181
0.18953543
0.18945583
0.18940629
0.18937423
0.18937422
0.18940627
0.18945579
0.18953539
0.18958178
0.18941179
0.18861257
0.18634638
0.18082974
0.16917315
0.15628907
0.16853077
0.17459264
0.17716784
0.17809965
0.17829935
0.17824002
0.1781389
0.17807565
0.17803598
0.17803597
0.17807563
0.17813886
0.17823998
0.17829932
0.17809963
0.17716783
0.17459265
0.16853081
0.15628914
0.14360855
0.15645904
0.16313
0.16607061
0.16716984
0.16741373
0.16734356
0.16721794
0.16713763
0.16708845
0.16708845
0.16713762
0.16721791
0.16734353
0.16741371
0.16716983
0.16607063
0.16313004
0.15645911
0.14360866
0.13106303
0.14454538
0.15189472
0.15526456
0.15657265
0.15687931
0.1568018
0.15664839
0.15654678
0.15648554
0.15648553
0.15654677
0.15664837
0.15680178
0.1568793
0.15657266
0.15526459
0.15189478
0.14454549
0.13106319
0.11857911
0.13271348
0.14081608
0.14468847
0.14625587
0.14665053
0.14657237
0.14638855
0.14626093
0.14618454
0.14618454
0.14626091
0.14638852
0.14657236
0.14665053
0.14625589
0.14468852
0.14081617
0.13271364
0.11857932
0.10608063
0.12087743
0.12980975
0.134267
0.13615466
0.13667081
0.1366031
0.13638767
0.13622884
0.13613362
0.13613361
0.13622883
0.13638765
0.13660309
0.13667082
0.1361547
0.13426707
0.12980988
0.12087766
0.10608091
0.093502375
0.10894979
0.11878336
0.12391448
0.12619597
0.12687852
0.12683877
0.12659245
0.12639685
0.12627839
0.12627838
0.12639684
0.12659243
0.12683878
0.12687854
0.12619601
0.12391458
0.11878353
0.10895009
0.093502749
0.080802911
0.096850055
0.10763606
0.11353377
0.11629852
0.11720875
0.11722346
0.11694916
0.11671133
0.11656447
0.11656446
0.11671132
0.11694915
0.11722347
0.11720877
0.11629857
0.11353388
0.10763627
0.096850438
0.080803388
0.067989397
0.084512913
0.096258217
0.10301681
0.10636972
0.10758998
0.10769839
0.10740414
0.10711928
0.10693804
0.10693803
0.10711928
0.10740413
0.10769841
0.10759001
0.10636979
0.10301694
0.096258474
0.084513384
0.067989993
0.055148303
0.071896385
0.084541156
0.092238845
0.096306049
0.097940722
0.09820282
0.097910148
0.097575195
0.097352626
0.09735262
0.097575191
0.097910146
0.098202836
0.09794076
0.096306127
0.092239002
0.084541454
0.071896929
0.055149028
0.042482037
0.05902365
0.072382455
0.081055277
0.085981838
0.088175728
0.088684227
0.088423619
0.088039227
0.087767437
0.087767433
0.088039225
0.088423621
0.088684248
0.088175773
0.085981928
0.081055456
0.072382789
0.059024255
0.042482881
0.030256825
0.045976961
0.059693514
0.069316593
0.07526454
0.078201878
0.079093697
0.078927037
0.078499549
0.078169445
0.078169442
0.078499552
0.078927046
0.079093726
0.078201933
0.075264646
0.069316799
0.059693885
0.045977621
0.030257764
0.019247295
0.032891477
0.046458869
0.056907195
0.064029096
0.067938329
0.06940183
0.069420759
0.068967421
0.06856882
0.068568819
0.06896743
0.069420779
0.06940187
0.067938401
0.064029232
0.056907441
0.046459292
0.032892194
0.019248185
0
0
0.028068236
0.035724034
0.041576111
0.045097785
0.046519731
0.046508992
0.045974058
0.045497672
0.045497663
0.045974042
0.046508967
0.046519701
0.045097762
0.041576117
0.035724087
0.028068369
0
0
)
;

boundaryField
{
    Wall
    {
        type            zeroGradient;
    }
    frontAndBack
    {
        type            empty;
    }
    atmosphere
    {
        type            zeroGradient;
    }
}


// ************************************************************************* //
