/*--------------------------------*- C++ -*----------------------------------*\
| =========                 |                                                 |
| \\      /  F ield         | OpenFOAM: The Open Source CFD Toolbox           |
|  \\    /   O peration     | Version:  3.0.1                                 |
|   \\  /    A nd           | Web:      www.OpenFOAM.org                      |
|    \\/     M anipulation  |                                                 |
\*---------------------------------------------------------------------------*/
FoamFile
{
    version     2.0;
    format      ascii;
    class       volScalarField;
    location    "48";
    object      mThree;
}
// * * * * * * * * * * * * * * * * * * * * * * * * * * * * * * * * * * * * * //

dimensions      [0 0 0 0 0 0 0];

internalField   nonuniform List<scalar> 
800
(
1.0841423e-22
1.0844071e-22
1.0844224e-22
1.084409e-22
1.0843986e-22
1.0843927e-22
1.0843897e-22
1.0843884e-22
1.0843879e-22
1.0843877e-22
1.0843877e-22
1.0843879e-22
1.0843884e-22
1.0843897e-22
1.0843927e-22
1.0843986e-22
1.084409e-22
1.0844225e-22
1.0844072e-22
1.0841423e-22
1.0822564e-22
1.0835022e-22
1.0838304e-22
1.0839172e-22
1.0839323e-22
1.0839279e-22
1.0839203e-22
1.083914e-22
1.08391e-22
1.0839081e-22
1.0839081e-22
1.08391e-22
1.083914e-22
1.0839202e-22
1.0839279e-22
1.0839323e-22
1.0839172e-22
1.0838304e-22
1.0835021e-22
1.0822562e-22
1.0795766e-22
1.0815592e-22
1.0822225e-22
1.0824026e-22
1.0824379e-22
1.0824326e-22
1.0824197e-22
1.082409e-22
1.082402e-22
1.0823987e-22
1.0823987e-22
1.082402e-22
1.0824089e-22
1.0824197e-22
1.0824326e-22
1.0824378e-22
1.0824025e-22
1.0822224e-22
1.0815591e-22
1.0795763e-22
1.0803605e-22
1.0827237e-22
1.0836471e-22
1.0838873e-22
1.0839292e-22
1.0839187e-22
1.0839e-22
1.0838853e-22
1.0838762e-22
1.083872e-22
1.083872e-22
1.0838762e-22
1.0838853e-22
1.0838999e-22
1.0839186e-22
1.0839291e-22
1.0838872e-22
1.083647e-22
1.0827235e-22
1.0803602e-22
1.0859828e-22
1.0883637e-22
1.0894451e-22
1.0897091e-22
1.0897402e-22
1.0897182e-22
1.0896919e-22
1.0896734e-22
1.0896626e-22
1.0896578e-22
1.0896578e-22
1.0896626e-22
1.0896734e-22
1.0896919e-22
1.0897181e-22
1.0897401e-22
1.089709e-22
1.089445e-22
1.0883635e-22
1.0859824e-22
1.0973274e-22
1.099336e-22
1.1004541e-22
1.1007001e-22
1.1006981e-22
1.1006552e-22
1.1006178e-22
1.1005944e-22
1.1005817e-22
1.1005764e-22
1.1005764e-22
1.1005817e-22
1.1005944e-22
1.1006177e-22
1.1006552e-22
1.100698e-22
1.1007e-22
1.100454e-22
1.0993359e-22
1.0973271e-22
1.1152918e-22
1.1164961e-22
1.1175072e-22
1.1176861e-22
1.1176238e-22
1.1175475e-22
1.1174935e-22
1.1174632e-22
1.1174479e-22
1.1174418e-22
1.1174418e-22
1.1174479e-22
1.1174632e-22
1.1174935e-22
1.1175475e-22
1.1176237e-22
1.1176861e-22
1.1175071e-22
1.116496e-22
1.1152916e-22
1.1408559e-22
1.1407707e-22
1.141501e-22
1.1415552e-22
1.1414008e-22
1.1412758e-22
1.1411981e-22
1.1411575e-22
1.1411382e-22
1.141131e-22
1.141131e-22
1.1411382e-22
1.1411576e-22
1.1411982e-22
1.1412759e-22
1.1414009e-22
1.1415552e-22
1.141501e-22
1.1407707e-22
1.1408558e-22
1.1752041e-22
1.1732462e-22
1.1734726e-22
1.1733332e-22
1.1730511e-22
1.1728591e-22
1.1727488e-22
1.1726937e-22
1.1726686e-22
1.1726596e-22
1.1726596e-22
1.1726687e-22
1.1726938e-22
1.1727488e-22
1.1728592e-22
1.1730512e-22
1.1733333e-22
1.1734727e-22
1.1732463e-22
1.1752041e-22
1.2198352e-22
1.2153664e-22
1.2148035e-22
1.2143866e-22
1.2139382e-22
1.2136584e-22
1.2135038e-22
1.2134286e-22
1.2133951e-22
1.2133832e-22
1.2133833e-22
1.2133952e-22
1.2134287e-22
1.2135039e-22
1.2136585e-22
1.2139384e-22
1.2143869e-22
1.2148037e-22
1.2153666e-22
1.2198353e-22
1.2760793e-22
1.2684646e-22
1.2667773e-22
1.2659868e-22
1.265337e-22
1.2649489e-22
1.2647354e-22
1.2646323e-22
1.264587e-22
1.2645707e-22
1.2645708e-22
1.2645871e-22
1.2646325e-22
1.2647356e-22
1.2649491e-22
1.2653373e-22
1.2659871e-22
1.2667777e-22
1.2684649e-22
1.2760796e-22
1.3449396e-22
1.3337449e-22
1.3305525e-22
1.3292816e-22
1.3284044e-22
1.3278932e-22
1.3276046e-22
1.327465e-22
1.3274042e-22
1.3273821e-22
1.3273821e-22
1.3274044e-22
1.3274652e-22
1.3276049e-22
1.3278936e-22
1.3284048e-22
1.3292821e-22
1.330553e-22
1.3337455e-22
1.3449401e-22
1.4275186e-22
1.41192e-22
1.4068234e-22
1.4049528e-22
1.4038246e-22
1.4031788e-22
1.4027958e-22
1.4026093e-22
1.4025297e-22
1.4024996e-22
1.4024997e-22
1.4025298e-22
1.4026096e-22
1.4027962e-22
1.4031793e-22
1.4038251e-22
1.4049534e-22
1.406824e-22
1.4119207e-22
1.4275193e-22
1.5251381e-22
1.5044129e-22
1.4969695e-22
1.4943506e-22
1.4929486e-22
1.4921572e-22
1.4916563e-22
1.4914079e-22
1.4913052e-22
1.4912644e-22
1.4912644e-22
1.4913054e-22
1.4914082e-22
1.4916567e-22
1.4921577e-22
1.4929493e-22
1.4943513e-22
1.4969703e-22
1.5044138e-22
1.5251389e-22
1.6393626e-22
1.6128371e-22
1.6025841e-22
1.5990339e-22
1.5973372e-22
1.5963916e-22
1.5957419e-22
1.5954109e-22
1.595279e-22
1.595224e-22
1.5952241e-22
1.5952792e-22
1.5954113e-22
1.5957424e-22
1.5963922e-22
1.5973379e-22
1.5990348e-22
1.6025851e-22
1.6128381e-22
1.6393637e-22
1.7719105e-22
1.7389206e-22
1.7254104e-22
1.720711e-22
1.718704e-22
1.7175979e-22
1.7167535e-22
1.7163125e-22
1.7161401e-22
1.7160698e-22
1.7160699e-22
1.7161404e-22
1.716313e-22
1.7167542e-22
1.7175987e-22
1.7187049e-22
1.7207121e-22
1.7254116e-22
1.7389218e-22
1.7719119e-22
1.9238867e-22
1.8838921e-22
1.8667382e-22
1.8606615e-22
1.8583514e-22
1.8570814e-22
1.8559784e-22
1.8553966e-22
1.8551658e-22
1.855088e-22
1.8550882e-22
1.8551661e-22
1.8553971e-22
1.8559791e-22
1.8570822e-22
1.8583524e-22
1.8606627e-22
1.8667395e-22
1.8838935e-22
1.9238882e-22
2.0961182e-22
2.048768e-22
2.0276677e-22
2.0199895e-22
2.0174066e-22
2.0159534e-22
2.0144968e-22
2.0137383e-22
2.0134187e-22
2.0133585e-22
2.0133586e-22
2.013419e-22
2.0137388e-22
2.0144976e-22
2.0159544e-22
2.0174077e-22
2.0199907e-22
2.0276691e-22
2.0487694e-22
2.0961198e-22
2.2893863e-22
2.2345443e-22
2.2092767e-22
2.1997974e-22
2.1969971e-22
2.1953052e-22
2.1933585e-22
2.1923803e-22
2.1919207e-22
2.1919289e-22
2.191929e-22
2.1919211e-22
2.1923808e-22
2.1933593e-22
2.1953062e-22
2.1969982e-22
2.1997987e-22
2.2092781e-22
2.2345459e-22
2.289388e-22
2.50454e-22
2.442315e-22
2.4127432e-22
2.4013136e-22
2.3983775e-22
2.3963362e-22
2.393716e-22
2.3924683e-22
2.3917868e-22
2.3919473e-22
2.3919475e-22
2.3917871e-22
2.3924689e-22
2.3937169e-22
2.3963373e-22
2.3983788e-22
2.4013151e-22
2.4127449e-22
2.4423167e-22
2.5045419e-22
2.7417913e-22
2.6726759e-22
2.6387491e-22
2.6252949e-22
2.6223259e-22
2.6197605e-22
2.6162409e-22
2.6146667e-22
2.6136421e-22
2.6140738e-22
2.6140739e-22
2.6136424e-22
2.6146673e-22
2.6162417e-22
2.6197615e-22
2.6223271e-22
2.6252963e-22
2.6387506e-22
2.6726775e-22
2.741793e-22
3.0013287e-22
2.9262982e-22
2.8880801e-22
2.872606e-22
2.8697142e-22
2.866387e-22
2.8617145e-22
2.8597526e-22
2.8582292e-22
2.8590834e-22
2.8590835e-22
2.8582296e-22
2.8597531e-22
2.8617153e-22
2.866388e-22
2.8697154e-22
2.8726073e-22
2.8880816e-22
2.9262997e-22
3.0013302e-22
3.2833103e-22
3.2038957e-22
3.1616165e-22
3.1442051e-22
3.1415116e-22
3.1371316e-22
3.1310387e-22
3.1286253e-22
3.1264333e-22
3.127886e-22
3.1278861e-22
3.1264335e-22
3.1286258e-22
3.1310393e-22
3.1371324e-22
3.1415126e-22
3.1442063e-22
3.1616177e-22
3.2038969e-22
3.2833114e-22
3.5867058e-22
3.5052711e-22
3.4594235e-22
3.4402124e-22
3.4378685e-22
3.4320952e-22
3.4243065e-22
3.4213789e-22
3.4183776e-22
3.4206167e-22
3.4206168e-22
3.4183778e-22
3.4213792e-22
3.424307e-22
3.4320958e-22
3.4378693e-22
3.4402133e-22
3.4594244e-22
3.505272e-22
3.5867066e-22
3.9101414e-22
3.8299997e-22
3.7814923e-22
3.7606836e-22
3.7589167e-22
3.7513597e-22
3.7415823e-22
3.7380808e-22
3.7342092e-22
3.7374234e-22
3.7374235e-22
3.7342092e-22
3.7380811e-22
3.7415826e-22
3.7513601e-22
3.7589173e-22
3.7606843e-22
3.7814929e-22
3.8300002e-22
3.9101417e-22
4.2508056e-22
4.1765954e-22
4.1268916e-22
4.1047912e-22
4.1039291e-22
4.0941808e-22
4.0821071e-22
4.0779911e-22
4.0733197e-22
4.0776906e-22
4.0776907e-22
4.0733196e-22
4.0779911e-22
4.0821072e-22
4.0941809e-22
4.1039293e-22
4.1047914e-22
4.1268918e-22
4.1765953e-22
4.2508054e-22
4.6035636e-22
4.5417888e-22
4.4931035e-22
4.4702836e-22
4.4707309e-22
4.4584177e-22
4.4437534e-22
4.4390016e-22
4.433762e-22
4.4394543e-22
4.4394544e-22
4.4337618e-22
4.4390014e-22
4.4437532e-22
4.4584175e-22
4.4707308e-22
4.4702833e-22
4.4931032e-22
4.5417882e-22
4.6035629e-22
4.9607565e-22
4.9204801e-22
4.8760796e-22
4.8536064e-22
4.855798e-22
4.8406673e-22
4.8231877e-22
4.8178019e-22
4.8123911e-22
4.8195443e-22
4.8195443e-22
4.8123909e-22
4.8178016e-22
4.8231872e-22
4.8406668e-22
4.8557975e-22
4.8536058e-22
4.8760788e-22
4.9204791e-22
4.9607554e-22
5.3104542e-22
5.3042656e-22
5.2689916e-22
5.2487562e-22
5.2531625e-22
5.2352583e-22
5.2149188e-22
5.2089444e-22
5.203909e-22
5.2126367e-22
5.2126367e-22
5.2039087e-22
5.208944e-22
5.2149182e-22
5.2352575e-22
5.2531616e-22
5.2487553e-22
5.2689904e-22
5.3042644e-22
5.3104534e-22
5.6351731e-22
5.6801643e-22
5.6612942e-22
5.6462758e-22
5.6535309e-22
5.633321e-22
5.6103235e-22
5.6038371e-22
5.5998157e-22
5.6101965e-22
5.6101964e-22
5.5998153e-22
5.6038366e-22
5.6103227e-22
5.63332e-22
5.6535299e-22
5.6462746e-22
5.6612929e-22
5.6801634e-22
5.6351735e-22
5.9097089e-22
6.0283743e-22
6.0367955e-22
6.0313803e-22
6.0427704e-22
6.0212958e-22
5.9959926e-22
5.9890862e-22
5.9867364e-22
5.9988057e-22
5.9988057e-22
5.9867361e-22
5.9890857e-22
5.9959918e-22
6.0212948e-22
6.0427693e-22
6.0313792e-22
6.0367945e-22
6.0283746e-22
5.9097119e-22
6.0990483e-22
6.3197035e-22
6.37139e-22
6.3818052e-22
6.3997248e-22
6.3788657e-22
6.3516375e-22
6.3441316e-22
6.344033e-22
6.357761e-22
6.357761e-22
6.3440328e-22
6.3441313e-22
6.3516369e-22
6.378865e-22
6.3997241e-22
6.3818048e-22
6.3713901e-22
6.3197066e-22
6.0990562e-22
6.1567716e-22
6.5139057e-22
6.6308826e-22
6.6658255e-22
6.693872e-22
6.6766415e-22
6.648085e-22
6.6390174e-22
6.6415681e-22
6.6568252e-22
6.6568253e-22
6.6415682e-22
6.6390176e-22
6.648085e-22
6.6766414e-22
6.6938723e-22
6.6658265e-22
6.6308852e-22
6.5139138e-22
6.1567877e-22
6.0287461e-22
6.5594901e-22
6.7691708e-22
6.8403717e-22
6.883325e-22
6.8738558e-22
6.8445875e-22
6.8328219e-22
6.8381387e-22
6.8546496e-22
6.8546498e-22
6.8381393e-22
6.8328228e-22
6.8445885e-22
6.873857e-22
6.883327e-22
6.8403753e-22
6.7691775e-22
6.5595065e-22
6.028774e-22
5.6664559e-22
6.3981136e-22
6.7291071e-22
6.850833e-22
6.9146325e-22
6.9166179e-22
6.8880516e-22
6.8738978e-22
6.8817235e-22
6.899013e-22
6.8990134e-22
6.8817246e-22
6.8738997e-22
6.888054e-22
6.9166209e-22
6.914637e-22
6.8508402e-22
6.7291198e-22
6.3981413e-22
5.6664987e-22
5.0490332e-22
5.9799737e-22
6.4505766e-22
6.6346226e-22
6.7272522e-22
6.7427992e-22
6.7181589e-22
6.7042263e-22
6.7139053e-22
6.7312587e-22
6.7312593e-22
6.7139072e-22
6.7042295e-22
6.718163e-22
6.7428045e-22
6.7272599e-22
6.6346345e-22
6.4505964e-22
5.9800133e-22
5.0490899e-22
4.2182796e-22
5.2941834e-22
5.8903136e-22
6.1392196e-22
6.2651067e-22
6.297893e-22
6.2812994e-22
6.2696786e-22
6.2802047e-22
6.296674e-22
6.2966749e-22
6.2802073e-22
6.2696831e-22
6.2813052e-22
6.2979006e-22
6.2651175e-22
6.139236e-22
5.89034e-22
5.2942316e-22
4.2183428e-22
3.271251e-22
4.3859833e-22
5.0521519e-22
5.3528674e-22
5.5084112e-22
5.5600065e-22
5.5541709e-22
5.5501119e-22
5.5605035e-22
5.5751211e-22
5.5751222e-22
5.5605066e-22
5.5501174e-22
5.5541779e-22
5.5600158e-22
5.5084242e-22
5.3528865e-22
5.0521815e-22
4.386033e-22
3.2713104e-22
2.3233816e-22
3.3539584e-22
4.0088865e-22
4.3307979e-22
4.5034932e-22
4.5714133e-22
4.5760823e-22
4.5869971e-22
4.5964101e-22
4.6083692e-22
4.6083703e-22
4.5964132e-22
4.5870026e-22
4.5760893e-22
4.5714227e-22
4.5035061e-22
4.3308166e-22
4.0089145e-22
3.3540031e-22
2.3234325e-22
1.6331835e-22
2.286462e-22
2.7829471e-22
3.0454122e-22
3.1740423e-22
3.2463412e-22
3.2506423e-22
3.2675145e-22
3.2721289e-22
3.279081e-22
3.2790816e-22
3.2721306e-22
3.2675174e-22
3.2506459e-22
3.2463463e-22
3.1740493e-22
3.0454228e-22
2.7829635e-22
2.2864912e-22
1.6332259e-22
)
;

boundaryField
{
    Wall
    {
        type            zeroGradient;
    }
    frontAndBack
    {
        type            empty;
    }
    atmosphere
    {
        type            zeroGradient;
    }
}


// ************************************************************************* //
