/*--------------------------------*- C++ -*----------------------------------*\
| =========                 |                                                 |
| \\      /  F ield         | OpenFOAM: The Open Source CFD Toolbox           |
|  \\    /   O peration     | Version:  3.0.1                                 |
|   \\  /    A nd           | Web:      www.OpenFOAM.org                      |
|    \\/     M anipulation  |                                                 |
\*---------------------------------------------------------------------------*/
FoamFile
{
    version     2.0;
    format      ascii;
    class       volScalarField;
    location    "48";
    object      wBA_l;
}
// * * * * * * * * * * * * * * * * * * * * * * * * * * * * * * * * * * * * * //

dimensions      [0 0 0 0 0 0 0];

internalField   nonuniform List<scalar> 
800
(
0.037727264
0.037725398
0.037725095
0.037725062
0.037725063
0.037725063
0.037725058
0.037725053
0.037725049
0.037725047
0.037725047
0.037725049
0.037725053
0.037725058
0.037725063
0.037725063
0.037725062
0.037725095
0.037725398
0.037727264
0.038054778
0.038035663
0.038029996
0.038027819
0.038026884
0.03802645
0.038026236
0.038026127
0.038026073
0.038026051
0.038026051
0.038026073
0.038026128
0.038026237
0.03802645
0.038026885
0.03802782
0.038029997
0.038035664
0.03805478
0.038362684
0.038335103
0.038326423
0.038323501
0.038322418
0.038321974
0.038321767
0.038321657
0.038321597
0.038321569
0.038321569
0.038321597
0.038321658
0.038321767
0.038321974
0.038322419
0.038323502
0.038326424
0.038335105
0.038362686
0.038533468
0.038502396
0.038492484
0.038489455
0.038488435
0.03848804
0.038487847
0.038487732
0.038487659
0.038487624
0.038487624
0.03848766
0.038487732
0.038487848
0.038488041
0.038488435
0.038489456
0.038492486
0.038502397
0.038533471
0.038589862
0.038560328
0.038550852
0.038548344
0.038547639
0.038547388
0.038547237
0.038547119
0.038547032
0.038546986
0.038546986
0.038547032
0.038547119
0.038547237
0.038547388
0.03854764
0.038548344
0.038550852
0.038560329
0.038589864
0.03854434
0.038521041
0.038513515
0.038512128
0.038512005
0.038512008
0.038511943
0.038511838
0.03851174
0.038511684
0.038511684
0.03851174
0.038511838
0.038511943
0.038512008
0.038512005
0.038512128
0.038513515
0.038521041
0.03854434
0.038404565
0.038391807
0.0383876
0.038387861
0.03838855
0.038388911
0.038388977
0.038388906
0.038388804
0.038388741
0.038388741
0.038388804
0.038388906
0.038388976
0.03838891
0.038388549
0.03838786
0.038387599
0.038391806
0.038404564
0.038177337
0.03817893
0.038179282
0.038181645
0.038183339
0.038184145
0.038184384
0.038184366
0.038184271
0.038184204
0.038184203
0.03818427
0.038184365
0.038184383
0.038184144
0.038183338
0.038181643
0.03817928
0.038178927
0.038177334
0.037871391
0.037890519
0.037896472
0.037901249
0.037904041
0.037905312
0.037905721
0.037905748
0.037905651
0.037905577
0.037905576
0.03790565
0.037905747
0.037905719
0.037905309
0.037904038
0.037901246
0.037896468
0.037890515
0.037871387
0.037495904
0.037535055
0.037547575
0.037555102
0.037559131
0.037560942
0.037561563
0.037561665
0.037561583
0.03756151
0.037561509
0.037561582
0.037561663
0.037561561
0.037560939
0.037559128
0.037555098
0.03754757
0.03753505
0.037495897
0.037060941
0.037122188
0.037141883
0.037152255
0.037157498
0.037159802
0.037160587
0.037160728
0.037160639
0.037160556
0.037160555
0.037160638
0.037160726
0.037160584
0.037159798
0.037157494
0.03715225
0.037141878
0.037122182
0.037060933
0.036570599
0.036662044
0.036689592
0.036702964
0.036709487
0.036712305
0.036713248
0.036713427
0.036713331
0.036713237
0.036713236
0.03671333
0.036713425
0.036713245
0.036712301
0.036709482
0.036702958
0.036689586
0.036662037
0.036570591
0.036034673
0.03614993
0.036186672
0.036203261
0.036211058
0.036214379
0.036215489
0.03621571
0.036215609
0.036215503
0.036215503
0.036215608
0.036215707
0.036215485
0.036214374
0.036211052
0.036203255
0.036186665
0.036149923
0.036034664
0.035460673
0.035600933
0.035647512
0.035667361
0.035676336
0.035680074
0.035681328
0.035681572
0.035681458
0.035681335
0.035681335
0.035681457
0.035681569
0.035681324
0.035680069
0.03567633
0.035667354
0.035647505
0.035600925
0.035460664
0.03485514
0.035022048
0.035078963
0.035102135
0.035112207
0.035116284
0.035117669
0.035117917
0.035117787
0.035117643
0.035117642
0.035117784
0.035117914
0.035117664
0.035116278
0.0351122
0.035102127
0.035078955
0.035022039
0.034855129
0.034229089
0.03442419
0.034491878
0.034518399
0.034529458
0.034533762
0.034535203
0.034535406
0.034535234
0.034535061
0.03453506
0.034535232
0.034535403
0.034535199
0.034533757
0.034529452
0.034518392
0.034491871
0.034424182
0.03422908
0.033585509
0.033810087
0.033889184
0.033919313
0.033931419
0.033935944
0.033937397
0.033937544
0.033937329
0.033937131
0.03393713
0.033937327
0.03393754
0.033937392
0.033935938
0.033931412
0.033919305
0.033889175
0.033810078
0.033585498
0.032927878
0.033183585
0.033274891
0.033308934
0.033322157
0.033326861
0.03332824
0.033328298
0.033328025
0.033327799
0.033327798
0.033328023
0.033328295
0.033328236
0.033326856
0.03332215
0.033308926
0.033274883
0.033183576
0.032927869
0.032258406
0.032547149
0.032651637
0.032690017
0.032704489
0.032709337
0.032710554
0.032710483
0.03271013
0.032709867
0.032709866
0.032710128
0.032710479
0.032710549
0.032709331
0.032704482
0.032690009
0.032651628
0.03254714
0.032258396
0.031582603
0.031906616
0.032025632
0.032068934
0.032084841
0.032089801
0.032090777
0.032090536
0.032090084
0.032089772
0.032089771
0.032090082
0.032090533
0.032090773
0.032089796
0.032084835
0.032068928
0.032025625
0.031906609
0.031582595
0.030898413
0.031259857
0.031395164
0.031444232
0.031461856
0.031466926
0.031467582
0.031467101
0.031466515
0.031466127
0.031466126
0.031466513
0.031467098
0.031467578
0.03146692
0.03146185
0.031444225
0.031395156
0.031259849
0.030898405
0.030205451
0.03060734
0.030761092
0.030816929
0.03083658
0.030841755
0.030842007
0.030841206
0.030840456
0.030839964
0.030839963
0.030840455
0.030841203
0.030842004
0.03084175
0.030836575
0.030816923
0.030761085
0.030607334
0.030205446
0.029507354
0.029952661
0.030127627
0.030191689
0.030213884
0.030219234
0.030219004
0.030217783
0.030216829
0.030216198
0.030216197
0.030216827
0.03021778
0.030219001
0.030219229
0.030213879
0.030191684
0.030127621
0.029952655
0.029507349
0.02879841
0.029291195
0.02949056
0.029564519
0.029589911
0.029595541
0.029594737
0.029592973
0.029591757
0.029590948
0.029590947
0.029591755
0.02959297
0.029594734
0.029595537
0.029589907
0.029564515
0.029490555
0.029291191
0.028798406
0.028078416
0.028622955
0.028850911
0.028937134
0.02896657
0.028972633
0.028971119
0.028968628
0.028967041
0.028965992
0.028965991
0.028967039
0.028968625
0.028971116
0.028972629
0.028966567
0.028937131
0.028850908
0.028622953
0.028078415
0.027345353
0.027946857
0.02820835
0.028309723
0.028344441
0.028351265
0.02834897
0.028345578
0.028343508
0.028342164
0.028342163
0.028343506
0.028345576
0.028348968
0.028351263
0.028344439
0.028309721
0.028208347
0.027946856
0.027345353
0.026591492
0.027256318
0.027557168
0.02767716
0.027718773
0.02772683
0.02772368
0.02771917
0.027716454
0.027714732
0.027714731
0.027716452
0.027719167
0.027723678
0.027726827
0.02771877
0.027677159
0.027557167
0.027256319
0.026591493
0.025814426
0.026549936
0.026897067
0.027039974
0.027090577
0.027100494
0.027096403
0.027090482
0.027086882
0.027084662
0.027084662
0.027086881
0.027090479
0.027096401
0.027100492
0.027090575
0.027039973
0.026897067
0.026549938
0.02581443
0.02500541
0.02582048
0.026222339
0.026393596
0.026456049
0.026468831
0.026463852
0.026456245
0.026451512
0.026448657
0.026448657
0.026451511
0.026456243
0.026463851
0.02646883
0.026456049
0.026393597
0.02622234
0.025820484
0.025005417
0.024155825
0.025061062
0.02552759
0.025733816
0.025811703
0.025828674
0.025822909
0.025813252
0.025807031
0.025803333
0.025803333
0.02580703
0.02581325
0.025822908
0.025828673
0.025811703
0.025733817
0.025527593
0.025061069
0.024155836
0.023255054
0.024263134
0.024806425
0.02505586
0.025153838
0.025176924
0.02517071
0.025158642
0.025150507
0.025145698
0.025145698
0.025150506
0.025158641
0.025170709
0.025176924
0.025153839
0.025055863
0.024806431
0.024263145
0.02325507
0.022289422
0.023415329
0.024049941
0.024352782
0.024476906
0.024508846
0.024502856
0.02448808
0.024477508
0.024471239
0.024471238
0.024477507
0.024488078
0.024502856
0.024508846
0.024476908
0.024352787
0.02404995
0.023415346
0.022289446
0.02124252
0.022503734
0.023246909
0.02361561
0.023773789
0.023818524
0.023813962
0.023796237
0.023782594
0.023774407
0.023774407
0.023782594
0.023796236
0.023813962
0.023818525
0.023773792
0.023615617
0.023246921
0.022503757
0.021242553
0.020095207
0.021511751
0.022383279
0.022832975
0.023035632
0.023099031
0.02309788
0.023076967
0.023059514
0.02304882
0.023048819
0.023059513
0.023076966
0.023097881
0.023099033
0.023035636
0.022832983
0.022383295
0.021511783
0.020095252
0.018826697
0.020419685
0.021441151
0.02199056
0.022251129
0.022341796
0.022347236
0.02232317
0.022301088
0.022287131
0.022287131
0.022301088
0.022323169
0.022347236
0.022341798
0.022251134
0.021990571
0.021441173
0.020419729
0.01882676
0.017415792
0.019203346
0.020397998
0.021069276
0.021406106
0.02153572
0.021553221
0.021527474
0.021499929
0.021481737
0.021481737
0.021499929
0.021527473
0.021553222
0.021535722
0.021406112
0.021069289
0.020398025
0.019203401
0.017415877
0.015843126
0.017836413
0.019224593
0.020042739
0.0204808
0.020667539
0.020706813
0.020681472
0.020647797
0.020624123
0.020624123
0.020647797
0.020681472
0.020706814
0.020667542
0.020480807
0.020042755
0.019224626
0.01783648
0.015843238
0.014081128
0.016283885
0.017880109
0.018875413
0.019449782
0.019719903
0.019797381
0.019778748
0.019738635
0.019707821
0.019707821
0.019738635
0.019778749
0.019797383
0.019719907
0.019449791
0.018875432
0.017880148
0.016283966
0.014081272
0.012186147
0.014476177
0.016302174
0.017516877
0.018278998
0.018674617
0.018817093
0.018815296
0.018769427
0.018729221
0.01872922
0.018769428
0.018815297
0.018817096
0.018674622
0.01827901
0.017516901
0.016302223
0.014476276
0.012186299
0.010326796
0.011870679
0.013078981
0.01403425
0.014699246
0.015062592
0.01519026
0.015165835
0.015093292
0.015033238
0.015033237
0.015093289
0.015165831
0.015190254
0.015062585
0.014699239
0.014034245
0.013078982
0.011870708
0.010326922
)
;

boundaryField
{
    Wall
    {
        type            zeroGradient;
    }
    frontAndBack
    {
        type            empty;
    }
    atmosphere
    {
        type            zeroGradient;
    }
}


// ************************************************************************* //
