/*--------------------------------*- C++ -*----------------------------------*\
| =========                 |                                                 |
| \\      /  F ield         | OpenFOAM: The Open Source CFD Toolbox           |
|  \\    /   O peration     | Version:  3.0.1                                 |
|   \\  /    A nd           | Web:      www.OpenFOAM.org                      |
|    \\/     M anipulation  |                                                 |
\*---------------------------------------------------------------------------*/
FoamFile
{
    version     2.0;
    format      ascii;
    class       volScalarField;
    location    "48";
    object      wCO2_l;
}
// * * * * * * * * * * * * * * * * * * * * * * * * * * * * * * * * * * * * * //

dimensions      [0 0 0 0 0 0 0];

internalField   nonuniform List<scalar> 
800
(
0.0037460675
0.0037462485
0.0037463443
0.0037463693
0.0037463752
0.0037463766
0.0037463771
0.0037463774
0.0037463777
0.0037463779
0.0037463779
0.0037463777
0.0037463774
0.0037463771
0.0037463766
0.0037463752
0.0037463693
0.0037463443
0.0037462486
0.0037460675
0.0037740173
0.0037732364
0.0037734885
0.0037737045
0.003773836
0.0037739019
0.0037739292
0.0037739371
0.0037739376
0.0037739366
0.0037739366
0.0037739376
0.0037739371
0.0037739291
0.0037739019
0.003773836
0.0037737045
0.0037734885
0.0037732363
0.0037740171
0.0038260459
0.0038242056
0.0038240197
0.0038242512
0.0038244256
0.0038245206
0.0038245622
0.0038245752
0.0038245766
0.0038245751
0.0038245751
0.0038245766
0.0038245752
0.0038245622
0.0038245206
0.0038244256
0.0038242511
0.0038240196
0.0038242056
0.0038260458
0.00390701
0.0039026414
0.0039014245
0.0039014195
0.0039015033
0.0039015633
0.0039015914
0.0039015993
0.0039015989
0.0039015969
0.0039015969
0.0039015989
0.0039015993
0.0039015915
0.0039015634
0.0039015034
0.0039014196
0.0039014246
0.0039026415
0.00390701
0.0040186477
0.0040103165
0.0040076314
0.0040071351
0.0040070309
0.0040070124
0.0040070083
0.0040070039
0.0040069997
0.0040069967
0.0040069967
0.0040069997
0.004007004
0.0040070085
0.0040070127
0.0040070312
0.0040071355
0.0040076318
0.0040103169
0.0040186481
0.0041607013
0.0041469066
0.0041423591
0.0041410829
0.0041407033
0.0041405684
0.0041405159
0.004140493
0.0041404831
0.0041404787
0.0041404787
0.0041404833
0.0041404933
0.0041405162
0.0041405689
0.0041407039
0.0041410836
0.0041423598
0.0041469074
0.0041607022
0.0043338698
0.0043128765
0.0043060533
0.0043036808
0.0043029351
0.0043026454
0.0043025283
0.0043024806
0.0043024631
0.0043024568
0.0043024569
0.0043024634
0.0043024811
0.0043025289
0.0043026461
0.004302936
0.0043036819
0.0043060544
0.0043128777
0.0043338712
0.0045399955
0.0045097282
0.0045001339
0.0044963389
0.004495134
0.0044946494
0.0044944505
0.0044943713
0.0044943439
0.004494335
0.0044943351
0.0044943443
0.0044943719
0.0044944514
0.0044946505
0.0044951353
0.0044963404
0.0045001355
0.0045097299
0.0045399974
0.0047823783
0.0047402813
0.0047272389
0.0047216752
0.0047198898
0.0047191577
0.0047188509
0.0047187272
0.0047186843
0.0047186705
0.0047186707
0.0047186848
0.0047187281
0.0047188521
0.0047191591
0.0047198915
0.0047216771
0.004727241
0.0047402835
0.0047823809
0.005065576
0.0050086219
0.0049912309
0.0049835647
0.0049810606
0.004980033
0.0049796016
0.004979428
0.0049793695
0.0049793512
0.0049793515
0.0049793702
0.0049794291
0.0049796031
0.0049800349
0.0049810628
0.0049835672
0.0049912336
0.0050086248
0.0050655793
0.0053952649
0.005319862
0.0052968761
0.0052867212
0.0052832714
0.0052818465
0.0052812486
0.0052810035
0.0052809198
0.005280893
0.0052808933
0.0052809207
0.0052810049
0.0052812506
0.0052818488
0.0052832741
0.0052867243
0.0052968795
0.0053198655
0.005395269
0.0057728249
0.0056801641
0.0056500775
0.0056370732
0.0056324041
0.0056304576
0.0056296602
0.0056293298
0.0056292195
0.0056291836
0.0056291839
0.0056292206
0.0056293315
0.0056296626
0.0056304605
0.0056324075
0.005637077
0.0056500815
0.0056801684
0.0057728297
0.0062051679
0.0060845797
0.0060463239
0.0060302382
0.0060239345
0.0060212761
0.0060202685
0.0060198519
0.0060197174
0.0060196745
0.0060196749
0.0060197186
0.0060198539
0.0060202713
0.0060212795
0.0060239385
0.0060302427
0.0060463287
0.0060845847
0.0062051734
0.0066977035
0.0065444699
0.0064961767
0.0064766416
0.0064680558
0.0064643791
0.0064631291
0.0064626083
0.0064624277
0.0064623785
0.006462379
0.0064624291
0.0064626106
0.0064631323
0.006464383
0.0064680604
0.0064766468
0.0064961822
0.0065444757
0.0066977097
0.0072567567
0.0070657726
0.0070052476
0.0069818557
0.0069701366
0.0069650775
0.0069635526
0.006962907
0.0069626068
0.0069625515
0.006962552
0.0069626084
0.0069629095
0.0069635561
0.0069650817
0.0069701415
0.0069818612
0.0070052535
0.0070657787
0.0072567636
0.0078911986
0.0076564052
0.0075811239
0.0075533434
0.0075374269
0.0075305762
0.0075287132
0.0075279098
0.0075273126
0.0075272349
0.0075272356
0.0075273146
0.007527913
0.0075287175
0.0075305815
0.0075374331
0.0075533504
0.0075811313
0.0076564129
0.0078912076
0.0086057412
0.0083205962
0.0082278179
0.0081950752
0.0081738635
0.0081648761
0.0081626278
0.0081616637
0.0081604714
0.0081603227
0.0081603233
0.0081604734
0.008161667
0.0081626322
0.0081648816
0.0081738698
0.0081950824
0.0082278256
0.0083206042
0.0086057505
0.0094047544
0.009062553
0.008949296
0.0089108334
0.0088832005
0.0088717669
0.0088690683
0.0088679518
0.0088657137
0.0088653705
0.0088653713
0.0088657158
0.0088679553
0.008869073
0.0088717728
0.0088832072
0.0089108411
0.0089493042
0.0090625617
0.0094047642
0.010293128
0.0098868836
0.0097498299
0.009704655
0.009669497
0.0096553695
0.0096521418
0.0096508984
0.009647023
0.0096462595
0.0096462603
0.0096470251
0.0096509019
0.0096521466
0.0096553753
0.0096695038
0.0097046627
0.0097498382
0.0098868924
0.010293138
0.011278984
0.010801171
0.010636601
0.010583452
0.010539663
0.010522652
0.010518804
0.010517486
0.010511284
0.010509766
0.010509766
0.010511287
0.01051749
0.010518809
0.010522659
0.010539671
0.010583461
0.010636611
0.010801181
0.011278997
0.012365983
0.011808946
0.011612678
0.011550101
0.011496567
0.011476537
0.011471962
0.011470646
0.011461392
0.011458691
0.011458691
0.011461394
0.01147065
0.011471967
0.011476543
0.011496575
0.01155011
0.011612687
0.011808955
0.012365994
0.013560206
0.01291636
0.012683637
0.01260989
0.012545303
0.012522085
0.012516666
0.012515466
0.012502473
0.012498126
0.012498127
0.012502476
0.01251547
0.012516671
0.012522092
0.012545311
0.0126099
0.012683646
0.01291637
0.013560218
0.014873977
0.014134467
0.013859812
0.013772891
0.013695682
0.013669035
0.01366265
0.01366171
0.013644377
0.013637939
0.013637939
0.013644379
0.013661714
0.013662655
0.013669042
0.013695689
0.013772899
0.013859821
0.014134476
0.014873988
0.016314225
0.015470141
0.015147176
0.015044477
0.014952756
0.014922237
0.014914717
0.014914204
0.014892091
0.014883201
0.014883202
0.014892093
0.014914207
0.014914721
0.014922243
0.014952762
0.015044484
0.015147184
0.015470149
0.016314234
0.017896759
0.016937147
0.016558544
0.016436806
0.016328324
0.016293134
0.016284198
0.016284284
0.016257147
0.016245567
0.016245568
0.016257149
0.016284287
0.016284203
0.016293139
0.01632833
0.016436813
0.01655855
0.016937153
0.017896766
0.019640934
0.018552584
0.018109205
0.017963979
0.017836192
0.017795118
0.017784452
0.017785409
0.01775331
0.017738985
0.017738985
0.017753311
0.017785411
0.017784455
0.017795122
0.017836197
0.017963984
0.018109209
0.018552586
0.019640937
0.021566177
0.02033368
0.019814041
0.019639712
0.019489679
0.019440972
0.019428313
0.019430503
0.01939385
0.019376935
0.019376935
0.01939385
0.019430505
0.019428315
0.019440975
0.019489682
0.019639715
0.019814042
0.020333679
0.021566175
0.023702118
0.022306393
0.021695568
0.021485067
0.021308991
0.021250153
0.021235326
0.021239156
0.021198704
0.021179538
0.021179538
0.021198704
0.021239157
0.021235327
0.021250154
0.021308991
0.021485067
0.021695566
0.022306387
0.023702109
0.026081653
0.024500132
0.023779654
0.023524806
0.02331811
0.023246267
0.023229638
0.023235787
0.023192789
0.02317195
0.02317195
0.023192788
0.023235787
0.023229638
0.023246266
0.023318108
0.023524802
0.023779648
0.024500119
0.026081635
0.028747737
0.026953366
0.02610052
0.025791595
0.025548786
0.025460523
0.025442845
0.025452124
0.025408221
0.025386453
0.025386452
0.02540822
0.025452122
0.025442843
0.02546052
0.025548781
0.025791587
0.026100507
0.026953345
0.02874771
0.031751053
0.029712074
0.028700797
0.028326557
0.028042634
0.027934459
0.027915988
0.027929125
0.027886304
0.027864521
0.02786452
0.027886303
0.027929123
0.027915983
0.027934453
0.028042625
0.028326545
0.028700778
0.029712042
0.031751015
0.03514014
0.032823801
0.031629591
0.031178004
0.030849057
0.030718978
0.030698525
0.030713687
0.030674084
0.030653345
0.030653344
0.030674082
0.030713683
0.030698519
0.03071897
0.030849045
0.031177986
0.031629564
0.032823758
0.035140091
0.038927232
0.036329034
0.034938117
0.034399988
0.03402192
0.033872051
0.033847269
0.033855367
0.033821132
0.033802619
0.033802618
0.033821128
0.033855362
0.033847262
0.033872041
0.034021905
0.034399964
0.034938082
0.03632898
0.038927179
0.043031051
0.040228123
0.038660782
0.038039845
0.037608109
0.037446162
0.037409399
0.037397426
0.037370783
0.037355855
0.037355855
0.03737078
0.037397421
0.03740939
0.03744615
0.037608092
0.03803982
0.038660744
0.040228067
0.043031014
0.047171102
0.04439646
0.042765559
0.042098627
0.041616592
0.041442844
0.041388114
0.041351657
0.041335038
0.041325318
0.041325318
0.041335035
0.041351652
0.041388107
0.041442834
0.041616576
0.042098604
0.042765527
0.044396425
0.047171128
0.050586915
0.048432527
0.047046
0.046411515
0.045940897
0.045739568
0.045678849
0.045629271
0.045624839
0.045622114
0.045622114
0.045624838
0.045629269
0.045678846
0.045739563
0.045940891
0.046411505
0.047045993
0.048432556
0.050587076
0.052036335
0.051609604
0.050931356
0.050490927
0.050132405
0.049954329
0.049923113
0.049825876
0.049835763
0.049841583
0.049841584
0.049835767
0.049825882
0.04992312
0.049954339
0.050132419
0.050490949
0.050931404
0.051609752
0.052036679
0.050405159
0.052760291
0.053332439
0.053367147
0.053249018
0.05311911
0.053169439
0.053088369
0.053115951
0.053131343
0.053131347
0.053115961
0.053088388
0.053169464
0.053119145
0.053249065
0.053367219
0.053332566
0.052760569
0.050405652
0.042755288
0.05009591
0.052564019
0.053445786
0.053768706
0.053968058
0.054146423
0.054021553
0.054069065
0.054092004
0.05409201
0.054069084
0.054021585
0.054146467
0.053968116
0.053768785
0.053445904
0.052564211
0.050096269
0.042755731
0.030839889
0.036260346
0.041155798
0.04235154
0.042745389
0.042970526
0.042986737
0.043018638
0.042971168
0.042939632
0.042939632
0.04297117
0.043018643
0.042986741
0.042970531
0.042745389
0.042351542
0.041155791
0.03626042
0.030840204
)
;

boundaryField
{
    Wall
    {
        type            zeroGradient;
    }
    frontAndBack
    {
        type            empty;
    }
    atmosphere
    {
        type            zeroGradient;
    }
}


// ************************************************************************* //
