/*--------------------------------*- C++ -*----------------------------------*\
| =========                 |                                                 |
| \\      /  F ield         | OpenFOAM: The Open Source CFD Toolbox           |
|  \\    /   O peration     | Version:  3.0.1                                 |
|   \\  /    A nd           | Web:      www.OpenFOAM.org                      |
|    \\/     M anipulation  |                                                 |
\*---------------------------------------------------------------------------*/
FoamFile
{
    version     2.0;
    format      ascii;
    class       volScalarField;
    location    "48";
    object      XW;
}
// * * * * * * * * * * * * * * * * * * * * * * * * * * * * * * * * * * * * * //

dimensions      [0 0 0 0 0 0 0];

internalField   nonuniform List<scalar> 
800
(
0.8788091
0.87885261
0.87886064
0.8788612
0.87886084
0.87886059
0.87886052
0.87886055
0.87886059
0.87886062
0.87886063
0.87886059
0.87886054
0.87886052
0.87886059
0.87886084
0.8788612
0.87886064
0.87885261
0.8788091
0.87466756
0.87494769
0.87503495
0.87506542
0.87507658
0.87508067
0.8750821
0.87508256
0.87508268
0.8750827
0.8750827
0.87508268
0.87508255
0.87508209
0.87508066
0.87507657
0.87506541
0.87503494
0.87494768
0.87466753
0.8698667
0.87034611
0.87051953
0.87058077
0.87060295
0.87061081
0.87061337
0.87061408
0.87061421
0.87061419
0.87061419
0.8706142
0.87061407
0.87061336
0.87061079
0.87060293
0.87058075
0.8705195
0.87034607
0.86986664
0.86537585
0.86602904
0.86627942
0.8663677
0.86639937
0.86641042
0.86641394
0.86641487
0.866415
0.86641496
0.86641496
0.86641499
0.86641485
0.86641393
0.8664104
0.86639934
0.86636767
0.86627938
0.86602899
0.86537577
0.86129174
0.86209798
0.8624162
0.86252775
0.86256731
0.86258096
0.8625853
0.86258646
0.86258664
0.86258661
0.86258661
0.86258663
0.86258644
0.86258529
0.86258093
0.86256727
0.86252771
0.86241615
0.86209792
0.86129165
0.85762156
0.85855891
0.85893677
0.85906775
0.85911332
0.85912871
0.85913353
0.85913479
0.859135
0.85913497
0.85913497
0.85913499
0.85913478
0.85913351
0.85912868
0.85911328
0.85906771
0.85893672
0.85855884
0.85762146
0.85438583
0.85543018
0.8558596
0.85600611
0.8560556
0.85607163
0.8560764
0.85607752
0.85607764
0.85607757
0.85607757
0.85607763
0.8560775
0.85607638
0.8560716
0.85605556
0.85600607
0.85585955
0.85543011
0.85438573
0.85161462
0.85274028
0.85321267
0.85337073
0.85342195
0.8534374
0.85344149
0.85344212
0.853442
0.85344183
0.85344183
0.85344199
0.85344211
0.85344146
0.85343737
0.85342191
0.85337069
0.85321262
0.85274021
0.85161452
0.84933703
0.85051744
0.85102337
0.85118913
0.85124002
0.85125373
0.85125652
0.85125636
0.85125584
0.85125551
0.8512555
0.85125583
0.85125634
0.8512565
0.8512537
0.85123998
0.85118909
0.85102332
0.85051738
0.84933694
0.84758435
0.84879274
0.84932146
0.84949088
0.84953917
0.84954979
0.8495505
0.84954909
0.84954794
0.84954734
0.84954733
0.84954794
0.84954908
0.84955048
0.84954977
0.84953914
0.84949084
0.84932142
0.84879268
0.84758427
0.8463842
0.84759426
0.84813403
0.84830347
0.84834722
0.84835358
0.84835156
0.84834853
0.84834657
0.84834561
0.84834561
0.84834657
0.84834852
0.84835154
0.84835356
0.84834719
0.84830344
0.84813399
0.84759422
0.84638414
0.84575832
0.8469454
0.84748299
0.84764891
0.84768614
0.84768702
0.84768153
0.84767647
0.84767348
0.84767207
0.84767207
0.84767348
0.84767646
0.84768152
0.847687
0.84768612
0.84764889
0.84748296
0.84694537
0.84575827
0.84572638
0.84686774
0.84738893
0.84754811
0.84757684
0.84757101
0.84756135
0.8475538
0.84754959
0.84754762
0.84754762
0.84754959
0.8475538
0.84756134
0.847571
0.84757683
0.8475481
0.84738892
0.84686772
0.84572635
0.84630282
0.84737798
0.84786838
0.84801802
0.84803615
0.84802249
0.84800797
0.84799752
0.84799184
0.84798921
0.84798922
0.84799184
0.84799752
0.84800796
0.84802248
0.84803614
0.84801802
0.84786837
0.84737797
0.84630281
0.84749854
0.84848915
0.84893515
0.84907291
0.84907797
0.84905543
0.84903542
0.84902166
0.84901413
0.84901077
0.84901077
0.84901413
0.84902166
0.84903542
0.84905543
0.84907797
0.84907291
0.84893516
0.84848916
0.84749854
0.84931583
0.85020592
0.85059589
0.85071985
0.85070895
0.85067661
0.85065057
0.8506332
0.85062309
0.85061891
0.85061892
0.85062309
0.8506332
0.85065058
0.85067662
0.85070897
0.85071986
0.8505959
0.85020594
0.84931586
0.85174827
0.8525252
0.85285084
0.85295961
0.85292946
0.85288666
0.85285416
0.85283296
0.8528189
0.85281381
0.85281381
0.8528189
0.85283297
0.85285417
0.85288667
0.85292948
0.85295963
0.85285087
0.85252523
0.85174831
0.85477857
0.85543356
0.85569096
0.85578392
0.85573119
0.85567781
0.85563845
0.85561332
0.85559289
0.85558678
0.85558678
0.85559289
0.85561333
0.85563846
0.85567783
0.85573122
0.85578396
0.855691
0.85543361
0.85477862
0.85837998
0.85890898
0.85909888
0.8591766
0.85909877
0.85903531
0.8589885
0.85895952
0.85892911
0.85892184
0.85892184
0.85892911
0.85895953
0.85898852
0.85903533
0.85909881
0.85917664
0.85909893
0.85890905
0.85838004
0.86251356
0.86291925
0.86304662
0.86311163
0.86300799
0.86293508
0.86287981
0.86284744
0.8628022
0.86279362
0.86279363
0.86280221
0.86284745
0.86287983
0.86293511
0.86300803
0.86311169
0.86304668
0.86291932
0.86251364
0.86712211
0.86741656
0.86749052
0.86754833
0.86742016
0.86733809
0.86727262
0.86723772
0.86717172
0.86716176
0.86716176
0.86717173
0.86723773
0.86727264
0.86733813
0.8674202
0.86754839
0.86749059
0.86741664
0.8671222
0.87213966
0.87234514
0.87237922
0.8724391
0.87228895
0.87219773
0.87211987
0.87208373
0.87198998
0.87197873
0.87197874
0.87198998
0.87208374
0.8721199
0.87219776
0.872289
0.87243917
0.87237929
0.87234523
0.87213975
0.87748821
0.87763865
0.87765125
0.8777266
0.87755763
0.87745729
0.877365
0.87732952
0.87720066
0.87718845
0.87718845
0.87720067
0.87732953
0.87736503
0.87745733
0.87755768
0.87772666
0.87765132
0.87763873
0.8774883
0.88306604
0.8832104
0.88322625
0.88333335
0.88314948
0.88304017
0.88293207
0.88289983
0.88272986
0.88271721
0.88271722
0.88272986
0.88289984
0.88293209
0.88304021
0.88314953
0.88333341
0.88322632
0.88321048
0.88306613
0.88875854
0.88896236
0.88901469
0.88917195
0.88897869
0.88886067
0.88873656
0.88871105
0.88849632
0.8884842
0.8884842
0.88849632
0.88871106
0.88873658
0.8888607
0.88897873
0.88917201
0.88901476
0.88896244
0.88875863
0.89442235
0.89477295
0.8949057
0.89513378
0.89493937
0.89481316
0.89467425
0.89466
0.89440002
0.89439012
0.89439012
0.89440002
0.89466
0.89467426
0.89481319
0.89493942
0.89513384
0.89490577
0.89477303
0.89442245
0.89987278
0.90048847
0.9007601
0.90108337
0.90089959
0.90076603
0.90061498
0.90061751
0.90031577
0.90031068
0.90031068
0.90031577
0.90061751
0.90061499
0.90076606
0.90089963
0.90108343
0.90076017
0.90048856
0.89987288
0.90486718
0.90591517
0.90640638
0.90685667
0.90669956
0.90656058
0.90640222
0.90642816
0.90609279
0.90609567
0.90609567
0.90609279
0.90642816
0.90640223
0.90656061
0.9066996
0.90685673
0.90640645
0.90591526
0.9048673
0.90906541
0.91079364
0.91162194
0.91224578
0.91213681
0.91199759
0.91184049
0.91189788
0.91154159
0.9115559
0.9115559
0.91154159
0.91189788
0.9118405
0.91199762
0.91213686
0.91224584
0.91162202
0.91079376
0.90906558
0.91196095
0.91475493
0.91610515
0.91697516
0.91694389
0.91681569
0.91667452
0.916773
0.91641199
0.91644175
0.91644175
0.91641199
0.91677301
0.91667453
0.91681573
0.91694395
0.91697524
0.91610526
0.91475509
0.9119612
0.91274153
0.91723371
0.91941467
0.92064912
0.9207439
0.92064745
0.92054326
0.92069604
0.92034897
0.92039931
0.92039931
0.92034898
0.92069606
0.92054329
0.9206475
0.92074397
0.92064923
0.91941481
0.91723397
0.91274194
0.91001538
0.91729817
0.92085654
0.92265603
0.92296493
0.92293758
0.92289613
0.92312116
0.92280888
0.92288662
0.92288662
0.9228089
0.92312118
0.92289618
0.92293766
0.92296503
0.92265619
0.92085677
0.91729858
0.91001607
0.90120803
0.91331206
0.91925933
0.92198179
0.92266567
0.92277847
0.92283901
0.92315137
0.92289733
0.92301199
0.923012
0.92289736
0.92315142
0.9228391
0.92277859
0.92266583
0.92198203
0.9192597
0.91331278
0.90120925
0.88131715
0.90222609
0.91248655
0.91680706
0.91816448
0.91856817
0.91879105
0.91919977
0.91903183
0.9191976
0.91919762
0.91903188
0.91919986
0.9187912
0.91856836
0.91816474
0.91680744
0.91248718
0.90222737
0.88131936
0.84089854
0.87818344
0.8964036
0.90366451
0.90623988
0.90724031
0.90772639
0.90825808
0.90821403
0.90845287
0.9084529
0.90821412
0.90825824
0.90772662
0.90724064
0.90624032
0.90366516
0.89640468
0.87818574
0.84090245
0.76509618
0.83049523
0.86292327
0.8757021
0.88054704
0.88268239
0.88363002
0.88445966
0.88461062
0.88495832
0.88495837
0.88461078
0.88445994
0.88363043
0.88268294
0.88054778
0.87570321
0.86292511
0.8304991
0.76510233
0.64060477
0.74327704
0.79771653
0.82006642
0.8290954
0.83333067
0.83510355
0.83674072
0.83719755
0.83770267
0.83770276
0.83719782
0.8367412
0.83510421
0.83333157
0.82909662
0.8200682
0.79771944
0.74328256
0.64061159
0.45225999
0.60438901
0.68304155
0.71830181
0.73382822
0.74186765
0.7448458
0.74819133
0.7491446
0.74985813
0.74985826
0.74914498
0.74819202
0.74484673
0.74186892
0.73382993
0.71830423
0.68304524
0.6043945
0.45226441
0.16160871
0.41439529
0.51357549
0.55962995
0.58123948
0.59152098
0.5955507
0.6051911
0.60661455
0.60747883
0.60747894
0.6066149
0.60519172
0.59555153
0.59152213
0.581241
0.55963202
0.51357831
0.41439858
0.16160859
1e-150
1e-150
0.19383504
0.26628877
0.2751993
0.30658108
0.30846055
0.31335585
0.31401044
0.31437796
0.31437795
0.31401042
0.31335584
0.30846056
0.30658115
0.27519923
0.26628887
0.19383467
1e-150
1e-150
)
;

boundaryField
{
    Wall
    {
        type            zeroGradient;
    }
    frontAndBack
    {
        type            empty;
    }
    atmosphere
    {
        type            zeroGradient;
    }
}


// ************************************************************************* //
