/*--------------------------------*- C++ -*----------------------------------*\
| =========                 |                                                 |
| \\      /  F ield         | OpenFOAM: The Open Source CFD Toolbox           |
|  \\    /   O peration     | Version:  3.0.1                                 |
|   \\  /    A nd           | Web:      www.OpenFOAM.org                      |
|    \\/     M anipulation  |                                                 |
\*---------------------------------------------------------------------------*/
FoamFile
{
    version     2.0;
    format      ascii;
    class       volScalarField;
    location    "11";
    object      M0;
}
// * * * * * * * * * * * * * * * * * * * * * * * * * * * * * * * * * * * * * //

dimensions      [0 0 0 0 0 0 0];

internalField   nonuniform List<scalar> 
800
(
3.1990172e+12
3.1991648e+12
3.1992223e+12
3.1992513e+12
3.1992728e+12
3.1992898e+12
3.1993029e+12
3.1993122e+12
3.1993183e+12
3.1993213e+12
3.1993213e+12
3.1993183e+12
3.1993122e+12
3.1993028e+12
3.1992898e+12
3.1992727e+12
3.1992513e+12
3.1992223e+12
3.1991648e+12
3.1990172e+12
3.9534567e+12
3.9417393e+12
3.9403177e+12
3.9395273e+12
3.9389175e+12
3.9384535e+12
3.9381098e+12
3.9378676e+12
3.9377137e+12
3.9376388e+12
3.9376388e+12
3.9377137e+12
3.9378676e+12
3.9381098e+12
3.9384536e+12
3.9389176e+12
3.9395273e+12
3.9403176e+12
3.9417393e+12
3.9534567e+12
4.0895918e+12
4.0825638e+12
4.0814052e+12
4.0806496e+12
4.0800902e+12
4.0796729e+12
4.0793689e+12
4.0791568e+12
4.0790226e+12
4.0789575e+12
4.0789575e+12
4.0790226e+12
4.0791569e+12
4.079369e+12
4.0796731e+12
4.0800904e+12
4.0806498e+12
4.0814054e+12
4.082564e+12
4.0895921e+12
3.792179e+12
3.7880816e+12
3.7870033e+12
3.785995e+12
3.7852342e+12
3.784652e+12
3.7842234e+12
3.7839217e+12
3.7837296e+12
3.7836362e+12
3.7836363e+12
3.7837298e+12
3.783922e+12
3.7842239e+12
3.7846526e+12
3.7852349e+12
3.7859958e+12
3.787004e+12
3.7880825e+12
3.7921799e+12
2.814868e+12
2.8715439e+12
2.8755667e+12
2.8742266e+12
2.872434e+12
2.8709195e+12
2.8697675e+12
2.8689476e+12
2.8684251e+12
2.8681697e+12
2.8681699e+12
2.8684255e+12
2.8689484e+12
2.8697686e+12
2.8709208e+12
2.8724354e+12
2.8742282e+12
2.8755682e+12
2.8715455e+12
2.8148701e+12
1.3447133e+12
1.5241149e+12
1.5594181e+12
1.5649226e+12
1.5639732e+12
1.5617937e+12
1.5600987e+12
1.5586482e+12
1.5577424e+12
1.5572919e+12
1.5572921e+12
1.5577428e+12
1.5586489e+12
1.5600995e+12
1.5617946e+12
1.5639741e+12
1.5649237e+12
1.5594194e+12
1.5241158e+12
1.3447158e+12
3.8942652e+11
6.0701691e+11
6.7723864e+11
6.9597509e+11
6.9977393e+11
6.9927445e+11
6.9807257e+11
6.9750244e+11
6.9702083e+11
6.9669156e+11
6.9669164e+11
6.9702042e+11
6.975018e+11
6.9807257e+11
6.992735e+11
6.9977368e+11
6.9597599e+11
6.7723847e+11
6.0701668e+11
3.8942944e+11
6.4114769e+10
1.9548114e+11
2.5822495e+11
2.7962412e+11
2.8493145e+11
2.8593596e+11
2.8487478e+11
2.8475138e+11
2.8429808e+11
2.839662e+11
2.8396579e+11
2.8429803e+11
2.847503e+11
2.848737e+11
2.8593533e+11
2.8492991e+11
2.7962361e+11
2.5822256e+11
1.9548076e+11
6.4115878e+10
7.2271516e+09
5.5035371e+10
9.0841651e+10
1.0539688e+11
1.0946379e+11
1.1029547e+11
1.1015068e+11
1.0997178e+11
1.0972606e+11
1.0964416e+11
1.0964397e+11
1.0972579e+11
1.0997092e+11
1.1014992e+11
1.1029477e+11
1.0946252e+11
1.0539588e+11
9.0840974e+10
5.5034286e+10
7.2273586e+09
7.046624e+08
1.4368622e+10
2.9996186e+10
3.740079e+10
3.9841277e+10
4.032927e+10
4.0353484e+10
4.0255177e+10
4.0189003e+10
4.014911e+10
4.0149024e+10
4.0188724e+10
4.0254802e+10
4.0352998e+10
4.0328808e+10
3.9840571e+10
3.7400147e+10
2.9995661e+10
1.4368325e+10
7.0466762e+08
69253626
3.554857e+09
9.3009502e+09
1.2477894e+10
1.3614869e+10
1.3867886e+10
1.3898414e+10
1.3862785e+10
1.3841252e+10
1.3831232e+10
1.3831202e+10
1.3841085e+10
1.3862598e+10
1.3898169e+10
1.3867663e+10
1.3614537e+10
1.2477541e+10
9.3007678e+09
3.5547282e+09
69251231
7111032.1
8.3036615e+08
2.6978153e+09
3.8922251e+09
4.341899e+09
4.4534696e+09
4.4703402e+09
4.4598529e+09
4.4502707e+09
4.4474508e+09
4.4474279e+09
4.4502119e+09
4.4597695e+09
4.4702317e+09
4.4533477e+09
4.3417758e+09
3.8921009e+09
2.6977265e+09
8.3033727e+08
7110648.1
730348.28
1.8233236e+08
7.3060907e+08
1.1297974e+09
1.288338e+09
1.3315684e+09
1.3384393e+09
1.3358207e+09
1.3327184e+09
1.3313143e+09
1.3313062e+09
1.3326965e+09
1.3357877e+09
1.3383971e+09
1.3315159e+09
1.2883006e+09
1.129753e+09
7.3057874e+08
1.8232356e+08
730289.6
73094.436
37574440
1.8453515e+08
3.053439e+08
3.5583575e+08
3.7052349e+08
3.7302934e+08
3.7247614e+08
3.7161968e+08
3.7115753e+08
3.7115484e+08
3.716121e+08
3.7246449e+08
3.730145e+08
3.7050599e+08
3.5582108e+08
3.0532958e+08
1.8452619e+08
37572200
73087.269
7005.5378
7263577.8
43542208
77010379
91709350
96156896
96984021
96893306
96683107
96558848
96558016
96680721
96889616
96979339
96151553
91704394
77006113
43539767
7263077
7004.7682
638.47909
1319447.2
9628589.1
18186747
22128001
23354140
23600495
23592570
23545837
23516350
23516113
23545156
23591513
23599157
23352633
22126540
18185567
9627967.3
1319344
638.40186
55.268614
225882.65
2002644.4
4036982.3
5017032.2
5329100.3
5395813.9
5397381.3
5387875.1
5381494
5381432.9
5387697.8
5397105.2
5395464.7
5328709.9
5016655.3
4036673.5
2002495.1
225862.66
55.261296
4.5491703
36558.27
393202.03
845390.92
1072991.5
1146844.4
1163492.9
1164571.7
1162792.2
1161511
1161496.4
1162749.7
1164505.6
1163409.1
1146751.2
1072893.1
845327.08
393168.27
36554.643
4.5485166
0.35672275
5611.0487
73127.535
167602.56
217259.35
233632.18
237476.48
237843.65
237535.2
237293.76
237290.53
237525.81
237828.96
237457.78
233611.18
217237.77
167587.54
73120.526
5610.4327
0.35666764
0.026706543
819.16161
12921.858
31570.584
41777.792
45204.124
46033.614
46132.201
46082.564
46039.494
46038.831
46080.623
46129.16
46029.722
45199.728
41773.399
31567.197
12920.607
819.06018
0.026702158
0.0019128838
114.0345
2176.2319
5666.3915
7653.2796
8332.1634
8500.5138
8523.5714
8516.1656
8508.8487
8508.7197
8515.7879
8522.9782
8499.752
8331.2973
7652.422
5665.7421
2175.9911
114.02031
0.0019125736
0.00013136487
15.180429
350.25888
971.6485
1339.3396
1467.1237
1499.4367
1504.3238
1503.3053
1502.1158
1502.0919
1503.2355
1504.2137
1499.2949
1466.9616
1339.1795
971.52912
350.21552
15.178314
0.00013134073
8.6707767e-06
1.9370155
54.002745
159.57389
224.47107
247.39404
253.28609
254.2446
254.11709
253.9316
253.92735
254.10469
254.22501
253.26077
247.36501
224.44237
159.55276
53.995379
1.9367132
8.6690164e-06
5.5106588e-07
0.237406
7.993517
25.156139
36.111208
40.041659
41.066216
41.242319
41.228326
41.200475
41.199749
41.226197
41.23895
41.061843
40.036637
36.106242
25.152525
7.9923172
0.23736499
5.5094489e-07
3.3779451e-08
0.028002962
1.138241
3.8146168
5.5877164
6.2335512
6.4040057
6.4345703
6.4333555
6.4293176
6.4291967
6.4330013
6.4340081
6.4032733
6.2327085
5.5868825
3.8140169
1.1380523
0.027997624
3.3771447e-08
2.0004263e-09
0.0031846182
0.15621219
0.55744557
0.8332205
0.93515682
0.96236054
0.96740617
0.96735892
0.9667928
0.96677326
0.96730161
0.96731497
0.96224136
0.93501933
0.83308434
0.55734878
0.15618339
0.0031839459
1.9999125e-09
1.1462856e-10
0.00034977021
0.0206979
0.078641402
0.11994265
0.13543016
0.13960483
0.14040108
0.14041247
0.14033565
0.14033259
0.14040347
0.14038672
0.13958601
0.13540837
0.11992107
0.078626244
0.020693639
0.00034968815
1.145964e-10
6.3661025e-12
3.7158402e-05
0.0026518953
0.010727288
0.016694366
0.01896375
0.019581073
0.019701619
0.019705651
0.019695533
0.019695069
0.019704283
0.01969943
0.019578196
0.01896041
0.016691055
0.010724991
0.0026512857
3.7148719e-05
6.3630302e-12
4.0577411e-13
3.8239047e-06
0.00032903408
0.0014169603
0.0022500354
0.0025712993
0.0026594292
0.0026769873
0.0026778529
0.0026765605
0.0026764925
0.0026776524
0.0026766655
0.0026590047
0.0025708046
0.0022495452
0.0014166245
0.00032894998
3.8228008e-06
3.4283104e-13
4.6843711e-14
3.8169579e-07
3.958844e-05
0.00018148703
0.00029405204
0.00033805992
0.00035022749
0.00035269407
0.00035284865
0.00035268848
0.00035267891
0.00035282032
0.00035264852
0.00035016719
0.00033798945
0.00029398217
0.0001814398
3.957728e-05
3.8157192e-07
1.7946019e-14
6.2037147e-15
3.7002461e-08
4.6247165e-06
2.2568456e-05
3.7309843e-05
4.3151616e-05
4.4778772e-05
4.5113681e-05
4.51385e-05
4.5119246e-05
4.5117947e-05
4.5134653e-05
4.5107483e-05
4.4770547e-05
4.3141968e-05
3.7300276e-05
2.2562075e-05
4.623293e-06
3.6988705e-08
9.137737e-16
7.2636085e-16
3.4877914e-09
5.2516901e-07
2.7279473e-06
4.6014762e-06
5.3539397e-06
5.5650047e-06
5.6090367e-06
5.6127369e-06
5.6104903e-06
5.6103211e-06
5.6122353e-06
5.6082268e-06
5.5639265e-06
5.3526712e-06
4.6002189e-06
2.7271202e-06
5.2499462e-07
3.4862915e-09
4.5307232e-17
7.4365928e-17
3.1999724e-10
5.8034202e-08
3.2086535e-07
5.5223099e-07
6.4639583e-07
6.7298651e-07
6.7860121e-07
6.7912198e-07
6.788675e-07
6.7884629e-07
6.7905913e-07
6.784995e-07
6.7285068e-07
6.4623568e-07
5.520723e-07
3.207624e-07
5.8013681e-08
3.1983829e-10
2.1897703e-18
6.8501459e-18
2.8605929e-11
6.2471573e-09
3.676257e-08
6.4556203e-08
7.6017998e-08
7.9275513e-08
7.9970913e-08
8.0040789e-08
8.0012798e-08
8.0010237e-08
8.0033203e-08
7.9958616e-08
7.9259056e-08
7.5998547e-08
6.4536955e-08
3.6750259e-08
6.2448365e-09
2.8589666e-11
1.0326333e-19
5.6030353e-19
2.4939592e-12
6.5570537e-10
4.1067678e-09
7.3580735e-09
8.7165093e-09
9.1049901e-09
9.1887512e-09
9.197748e-09
9.1947571e-09
9.1944598e-09
9.1968659e-09
9.1873186e-09
9.1030679e-09
8.7142348e-09
7.3558261e-09
4.1053515e-09
6.5545284e-10
2.4923631e-12
4.7555148e-21
3.9009802e-20
2.1224036e-13
6.7166297e-11
4.4770808e-10
8.1844338e-10
9.7536388e-10
1.02051e-09
1.0303336e-09
1.0314501e-09
1.0311399e-09
1.0311064e-09
1.031351e-09
1.0301725e-09
1.0202935e-09
9.7510736e-10
8.1819034e-10
4.4755104e-10
6.7139833e-11
2.1209149e-13
2.1404979e-22
2.0564292e-21
1.7645256e-14
6.7200895e-12
4.7671157e-11
8.8915456e-11
1.0659936e-10
1.1171682e-10
1.1283981e-10
1.1297381e-10
1.1294254e-10
1.1293891e-10
1.1296303e-10
1.1282227e-10
1.1169323e-10
1.0657141e-10
8.8887947e-11
4.7654346e-11
6.7174153e-12
1.7632212e-14
9.4240262e-24
8.3574885e-23
1.4342447e-15
6.5723703e-13
4.961648e-12
9.4422173e-12
1.1388083e-11
1.1954396e-11
1.2079647e-11
1.2095238e-11
1.2092178e-11
1.2091796e-11
1.2094102e-11
1.2077797e-11
1.1951909e-11
1.1385134e-11
9.4393246e-12
4.9599079e-12
6.5697609e-13
1.4331809e-15
4.0614229e-25
9.7670994e-24
1.1405987e-16
6.2880042e-14
5.0515937e-13
9.8085023e-13
1.1900874e-12
1.2513211e-12
1.2649628e-12
1.266725e-12
1.2664343e-12
1.2663952e-12
1.2666088e-12
1.2647735e-12
1.2510664e-12
1.1897857e-12
9.8055534e-13
5.0498498e-13
6.2855416e-14
1.1397811e-16
9.3653841e-25
4.1072704e-25
8.8808734e-18
5.889074e-15
5.0346126e-14
9.9739648e-14
1.2174315e-13
1.2821751e-13
1.2966967e-13
1.2986349e-13
1.2983669e-13
1.2983281e-13
1.2985194e-13
1.2965082e-13
1.2819216e-13
1.2171315e-13
9.971046e-14
5.0329162e-14
5.8868219e-15
8.8748536e-18
2.9676752e-26
)
;

boundaryField
{
    Wall
    {
        type            zeroGradient;
    }
    frontAndBack
    {
        type            empty;
    }
    atmosphere
    {
        type            zeroGradient;
    }
}


// ************************************************************************* //
