/*--------------------------------*- C++ -*----------------------------------*\
| =========                 |                                                 |
| \\      /  F ield         | OpenFOAM: The Open Source CFD Toolbox           |
|  \\    /   O peration     | Version:  3.0.1                                 |
|   \\  /    A nd           | Web:      www.OpenFOAM.org                      |
|    \\/     M anipulation  |                                                 |
\*---------------------------------------------------------------------------*/
FoamFile
{
    version     2.0;
    format      ascii;
    class       volScalarField;
    location    "11";
    object      M1;
}
// * * * * * * * * * * * * * * * * * * * * * * * * * * * * * * * * * * * * * //

dimensions      [0 0 0 0 0 0 0];

internalField   nonuniform List<scalar> 
800
(
0.68009828
0.68008352
0.68007777
0.68007487
0.68007272
0.68007102
0.68006971
0.68006878
0.68006817
0.68006787
0.68006787
0.68006817
0.68006878
0.68006972
0.68007102
0.68007273
0.68007487
0.68007777
0.68008352
0.68009828
0.60465433
0.60582607
0.60596823
0.60604727
0.60610825
0.60615465
0.60618902
0.60621324
0.60622863
0.60623612
0.60623612
0.60622863
0.60621324
0.60618902
0.60615464
0.60610824
0.60604727
0.60596824
0.60582607
0.60465433
0.50282601
0.50414839
0.50434437
0.50444099
0.5045036
0.50454766
0.5045782
0.50459879
0.50461155
0.50461768
0.50461768
0.50461154
0.50459878
0.50457818
0.50454765
0.50450358
0.50444096
0.50434434
0.50414837
0.50282597
0.34611856
0.34906148
0.34921421
0.34926301
0.34928339
0.34929032
0.349291
0.34928929
0.34928746
0.34928641
0.34928641
0.34928747
0.3492893
0.34929101
0.34929034
0.34928341
0.34926303
0.34921424
0.34906151
0.34611858
0.16135464
0.16455057
0.16465628
0.16460815
0.16453032
0.16445785
0.16439811
0.16435355
0.16432479
0.16431054
0.16431055
0.16432482
0.1643536
0.16439818
0.16445794
0.16453041
0.16460826
0.16465638
0.16455068
0.16135477
0.053172452
0.057842887
0.058586544
0.058646612
0.058551696
0.05842717
0.058337501
0.058257978
0.058208888
0.058184286
0.058184299
0.058208924
0.058258036
0.058337573
0.058427253
0.058551788
0.058646715
0.058586681
0.057843006
0.053172626
0.011508502
0.016037068
0.017433474
0.017787679
0.017841557
0.01779916
0.01774766
0.017724634
0.017705276
0.017691921
0.017691929
0.017705272
0.017724629
0.017747688
0.017799156
0.017841588
0.017787768
0.017433529
0.016037122
0.011508639
0.0014415365
0.0036411245
0.0046955932
0.0050663565
0.0051534727
0.0051662557
0.0051330931
0.0051295238
0.0051169906
0.0051076831
0.0051076743
0.0051169966
0.005129505
0.0051330793
0.005166257
0.005153455
0.0050663744
0.0046955624
0.003641144
0.0014415784
0.00011746266
0.00072047158
0.0011949637
0.0014000106
0.0014571409
0.0014680846
0.0014633458
0.0014598032
0.0014548346
0.0014530769
0.0014530742
0.001454833
0.0014597911
0.0014633374
0.0014680795
0.0014571259
0.0014000036
0.0011949619
0.00072046249
0.00011746929
7.5289617e-06
0.00013383265
0.00029383296
0.00037628601
0.00040452288
0.00040994212
0.00040986064
0.00040840337
0.00040738741
0.00040680426
0.00040680343
0.00040738474
0.00040839981
0.0004098562
0.00040993862
0.00040451623
0.00037628109
0.00029382976
0.00013383099
7.5293538e-06
4.5849964e-07
2.4411604e-05
7.0251564e-05
9.836577e-05
0.00010900947
0.00011135595
0.00011160518
0.00011120314
0.00011096395
0.00011085247
0.00011085228
0.00011096257
0.00011120175
0.00011160335
0.00011135454
0.00010900697
9.8363246e-05
7.0250741e-05
2.4410935e-05
4.585065e-07
3.0432503e-08
4.4007098e-06
1.6284834e-05
2.4838932e-05
2.826731e-05
2.9128098e-05
2.9257279e-05
2.9165667e-05
2.9086601e-05
2.9063431e-05
2.9063284e-05
2.908622e-05
2.9165153e-05
2.9256605e-05
2.9127365e-05
2.8266579e-05
2.4838218e-05
1.6284407e-05
4.4006014e-06
3.0431911e-08
2.2334411e-09
7.7945232e-07
3.6430777e-06
6.0075587e-06
7.0091664e-06
7.28875e-06
7.3339506e-06
7.315875e-06
7.2951142e-06
7.2860875e-06
7.286044e-06
7.2949983e-06
7.3157029e-06
7.3337295e-06
7.2884699e-06
7.0089921e-06
6.0073435e-06
3.6429464e-06
7.7942239e-07
2.2333149e-09
1.747314e-10
1.3450412e-07
7.8193142e-07
1.3869446e-06
1.6567005e-06
1.7374359e-06
1.7515239e-06
1.7484584e-06
1.7437003e-06
1.7411815e-06
1.7411692e-06
1.743666e-06
1.7484058e-06
1.7514566e-06
1.7373557e-06
1.6566391e-06
1.3868845e-06
7.8189735e-07
1.3449721e-07
1.7471684e-10
1.3949766e-11
2.2433591e-08
1.605019e-07
3.0516495e-07
3.7287699e-07
3.9398797e-07
3.9800453e-07
3.9760372e-07
3.9661556e-07
3.9603372e-07
3.9603041e-07
3.966061e-07
3.9758905e-07
3.9798587e-07
3.9396663e-07
3.728581e-07
3.0514915e-07
1.6049366e-07
2.2432203e-08
1.3948374e-11
1.104844e-12
3.5993283e-09
3.1473781e-08
6.3988716e-08
7.9919766e-08
8.5023747e-08
8.6071885e-08
8.6049977e-08
8.5860645e-08
8.574053e-08
8.5739692e-08
8.5858233e-08
8.6046222e-08
8.6067128e-08
8.5018395e-08
7.9914711e-08
6.3984792e-08
3.1471893e-08
3.5990699e-09
1.1047192e-12
8.5541681e-14
5.5435517e-10
5.8969568e-09
1.279786e-08
1.6327317e-08
1.7483003e-08
1.7735172e-08
1.7743823e-08
1.7710096e-08
1.7687165e-08
1.7686969e-08
1.7709528e-08
1.7742936e-08
1.773405e-08
1.7481753e-08
1.6326133e-08
1.2796923e-08
5.8965428e-09
5.5430945e-10
8.553094e-14
6.4268618e-15
8.1903745e-11
1.0565147e-09
2.4444173e-09
3.1842955e-09
3.4307781e-09
3.4873902e-09
3.4916118e-09
3.48601e-09
3.4818932e-09
3.4818505e-09
3.4858855e-09
3.4914175e-09
3.487144e-09
3.4305055e-09
3.1840095e-09
2.4442423e-09
1.0564283e-09
8.1896083e-11
6.4259777e-15
4.6685232e-16
1.1610525e-11
1.8121516e-10
4.4654872e-10
5.9390088e-10
6.4370235e-10
6.555972e-10
6.568367e-10
6.559667e-10
6.552645e-10
6.5525577e-10
6.5594126e-10
6.5679685e-10
6.5554645e-10
6.4364561e-10
5.9384291e-10
4.4651048e-10
1.8119851e-10
1.1609314e-11
4.6678281e-16
3.2737411e-17
1.5804614e-12
2.9794041e-11
7.8176731e-11
1.0609319e-10
1.1568328e-10
1.1804155e-10
1.1833998e-10
1.1821368e-10
1.1809911e-10
1.1809744e-10
1.1820879e-10
1.183323e-10
1.1803172e-10
1.1567221e-10
1.0608223e-10
7.8168601e-11
2.9791286e-11
1.5802737e-12
3.2732206e-17
2.2149934e-18
2.0674226e-13
4.7034832e-12
1.3136303e-11
1.8185826e-11
1.9949031e-11
2.0392558e-11
2.045632e-11
2.0439277e-11
2.0421312e-11
2.0421007e-11
2.0438384e-11
2.0454916e-11
2.0390754e-11
1.9946987e-11
1.8183822e-11
1.3134836e-11
4.7029832e-12
2.0671758e-13
2.2146454e-18
1.446471e-19
2.6028829e-14
7.1406656e-13
2.1219978e-12
2.9964453e-12
3.3066374e-12
3.3861058e-12
3.398604e-12
3.3964913e-12
3.3937741e-12
3.3937207e-12
3.3963356e-12
3.3983582e-12
3.3857894e-12
3.3062767e-12
2.9960927e-12
2.121743e-12
7.1398106e-13
2.6025337e-14
1.4462123e-19
9.127716e-21
3.158147e-15
1.04406e-13
3.300526e-13
4.7536005e-13
5.2769264e-13
5.4130577e-13
5.4359339e-13
5.4335855e-13
5.4296172e-13
5.4295273e-13
5.4333238e-13
5.4355197e-13
5.4125223e-13
5.2763141e-13
4.7530013e-13
3.300098e-13
1.0439215e-13
3.1576692e-15
9.1259011e-21
5.5704459e-22
3.6975284e-16
1.472333e-14
4.9505699e-14
7.2721214e-14
8.1205846e-14
8.344201e-14
8.3837109e-14
8.381534e-14
8.3759201e-14
8.3757741e-14
8.3811062e-14
8.3830332e-14
8.3433215e-14
8.1195769e-14
7.2711342e-14
4.9498721e-14
1.4721173e-14
3.6969062e-16
5.5692437e-22
3.290864e-23
4.1826025e-17
2.0053584e-15
7.1713131e-15
1.0743998e-14
1.2068474e-14
1.2421613e-14
1.2486463e-14
1.2485189e-14
1.2477481e-14
1.2477249e-14
1.2484509e-14
1.2485383e-14
1.2420206e-14
1.2066858e-14
1.0742414e-14
7.1702045e-15
2.005033e-15
4.181823e-17
3.2900959e-23
1.8840556e-24
4.5770987e-18
2.6416372e-16
1.0046599e-15
1.5351364e-15
1.7345588e-15
1.7882837e-15
1.7984584e-15
1.7985355e-15
1.7975076e-15
1.7974716e-15
1.79843e-15
1.7982905e-15
1.7880643e-15
1.7343062e-15
1.5348884e-15
1.0044882e-15
2.6411595e-16
4.5761514e-18
1.8835782e-24
1.0464763e-25
4.8515623e-19
3.369866e-17
1.3629793e-16
2.124126e-16
2.4142124e-16
2.4930983e-16
2.5084242e-16
2.5088661e-16
2.5075341e-16
2.50748e-16
2.5087068e-16
2.5081699e-16
2.4927651e-16
2.4138275e-16
2.1237478e-16
1.3627203e-16
3.3691841e-17
4.8504442e-19
1.0461864e-25
5.6466155e-27
4.9869954e-20
4.168165e-18
1.7928761e-17
2.8497644e-17
3.2580398e-17
3.3700227e-17
3.3922518e-17
3.3932755e-17
3.3915946e-17
3.3915154e-17
3.3930421e-17
3.391878e-17
3.3695315e-17
3.2574706e-17
2.8492045e-17
1.792497e-17
4.1672215e-18
4.9857162e-20
5.6437462e-27
3.7171473e-28
4.9768829e-21
5.0046763e-19
2.2893507e-18
3.7114596e-18
4.2681986e-18
4.4221203e-18
4.4532416e-18
4.4551201e-18
4.4530564e-18
4.4529441e-18
4.4547892e-18
4.4527103e-18
4.4214196e-18
4.2673836e-18
3.7106578e-18
2.2888144e-18
5.0034144e-19
4.975466e-21
2.9602399e-28
4.9435687e-29
4.8273734e-22
5.8396141e-20
2.8409037e-19
4.6975296e-19
5.4340402e-19
5.6391832e-19
5.6813274e-19
5.6843812e-19
5.6819168e-19
5.6817635e-19
5.6839282e-19
5.6805987e-19
5.6382187e-19
5.4329151e-19
4.6964219e-19
2.8401718e-19
5.8379877e-20
4.8258224e-22
1.5112504e-29
6.9180531e-30
4.5556315e-23
6.6285914e-21
3.4295432e-20
5.7841203e-20
6.7304739e-20
6.9959225e-20
7.0512252e-20
7.0558065e-20
7.0529456e-20
7.0527438e-20
7.0552092e-20
7.0502623e-20
6.994645e-20
6.728978e-20
5.7826469e-20
3.4285822e-20
6.6265727e-21
4.553943e-23
7.5166526e-31
8.1469285e-31
4.1869191e-24
7.3267964e-22
4.0316181e-21
6.9354718e-21
8.1178561e-21
8.4517342e-21
8.5221645e-21
8.5286356e-21
8.5254063e-21
8.5251505e-21
8.5278777e-21
8.5209404e-21
8.4501051e-21
8.1159428e-21
6.9335877e-21
4.030405e-21
7.3243858e-22
4.1851073e-24
3.6458461e-32
8.2575989e-32
3.751022e-25
7.8934384e-23
4.6194434e-22
8.1056801e-22
9.5436381e-22
9.9522928e-22
1.0039466e-21
1.0048169e-21
1.0044625e-21
1.0044313e-21
1.0047244e-21
1.0037968e-21
9.9502928e-22
9.541284e-22
8.1033623e-22
4.6179713e-22
7.8906696e-23
3.7491286e-25
1.7260131e-33
7.494478e-33
3.2786347e-26
8.2958157e-24
5.1635533e-23
9.2418524e-23
1.0945738e-22
1.1432961e-22
1.1537956e-22
1.1549182e-22
1.1545401e-22
1.1545032e-22
1.1548092e-22
1.1536189e-22
1.1430597e-22
1.0942947e-22
9.2391083e-23
5.1618342e-23
8.2927548e-24
3.2767225e-26
7.9822836e-35
6.03163e-34
2.7982274e-27
8.5124357e-25
5.6353024e-24
1.0288341e-23
1.225731e-23
1.2823706e-23
1.2946898e-23
1.2960854e-23
1.2956931e-23
1.2956513e-23
1.2959616e-23
1.2944886e-23
1.2821007e-23
1.2254122e-23
1.0285209e-23
5.6333686e-24
8.509176e-25
2.7963748e-27
3.6090503e-36
4.1323528e-35
2.3337627e-28
8.5347793e-26
6.0094808e-25
1.1191536e-24
1.3412376e-24
1.4054937e-24
1.4195896e-24
1.4212676e-24
1.4208722e-24
1.4208263e-24
1.4211315e-24
1.4193682e-24
1.4051962e-24
1.3408857e-24
1.1188085e-24
6.0073817e-25
8.5314325e-26
2.3320575e-28
1.596494e-37
2.147802e-36
1.9034026e-29
8.3675444e-27
6.2665899e-26
1.1904614e-25
1.4351588e-25
1.5063581e-25
1.5221012e-25
1.5240579e-25
1.5236707e-25
1.5236217e-25
1.5239128e-25
1.5218652e-25
1.5060407e-25
1.4347831e-25
1.1900939e-25
6.2643877e-26
8.3642275e-27
1.90193e-29
6.9144443e-39
8.6233194e-38
1.5191627e-30
8.0274416e-28
6.3944993e-27
1.2391635e-26
1.5027416e-26
1.5798579e-26
1.5970352e-26
1.599252e-26
1.5988839e-26
1.5988334e-26
1.5991022e-26
1.596791e-26
1.5795297e-26
1.5023529e-26
1.2387845e-26
6.3922632e-27
8.0242644e-28
1.5179808e-30
2.9339392e-40
9.9915496e-39
1.1873177e-31
7.5408128e-29
6.3892882e-28
1.2630485e-27
1.540811e-27
1.6225158e-27
1.6408399e-27
1.6432848e-27
1.6429451e-27
1.6428945e-27
1.6431343e-27
1.6405946e-27
1.6221858e-27
1.5404206e-27
1.2626692e-27
6.3870876e-28
7.5378669e-29
1.186425e-31
9.5208532e-40
4.1686369e-40
9.0926758e-33
6.9405228e-30
6.2552218e-29
1.2614332e-28
1.5479982e-28
1.6327376e-28
1.6518638e-28
1.6544922e-28
1.6541886e-28
1.6541391e-28
1.6543453e-28
1.651624e-28
1.632415e-28
1.5476168e-28
1.2610643e-28
6.2531178e-29
6.9378738e-30
9.0862208e-33
3.0110506e-41
)
;

boundaryField
{
    Wall
    {
        type            zeroGradient;
    }
    frontAndBack
    {
        type            empty;
    }
    atmosphere
    {
        type            zeroGradient;
    }
}


// ************************************************************************* //
