/*--------------------------------*- C++ -*----------------------------------*\
| =========                 |                                                 |
| \\      /  F ield         | OpenFOAM: The Open Source CFD Toolbox           |
|  \\    /   O peration     | Version:  3.0.1                                 |
|   \\  /    A nd           | Web:      www.OpenFOAM.org                      |
|    \\/     M anipulation  |                                                 |
\*---------------------------------------------------------------------------*/
FoamFile
{
    version     2.0;
    format      ascii;
    class       volScalarField;
    location    "11";
    object      mOne;
}
// * * * * * * * * * * * * * * * * * * * * * * * * * * * * * * * * * * * * * //

dimensions      [0 0 0 0 0 0 0];

internalField   nonuniform List<scalar> 
800
(
2.1259601
2.1258158
2.1257596
2.1257313
2.1257104
2.1256937
2.125681
2.1256718
2.1256659
2.1256629
2.125663
2.1256659
2.1256718
2.125681
2.1256937
2.1257104
2.1257314
2.1257597
2.1258158
2.1259601
1.5294321
1.5369511
1.5378665
1.5383756
1.5387686
1.5390677
1.5392893
1.5394455
1.5395447
1.539593
1.539593
1.5395447
1.5394454
1.5392893
1.5390676
1.5387685
1.5383756
1.5378665
1.5369512
1.529432
1.0113683
1.0167324
1.0175298
1.0179232
1.0181781
1.0183576
1.018482
1.0185659
1.0186179
1.0186429
1.0186429
1.0186179
1.0185659
1.018482
1.0183576
1.018178
1.0179231
1.0175297
1.0167323
1.0113681
0.52932923
0.53624339
0.53660393
0.53671915
0.53676729
0.53678366
0.53678525
0.53678122
0.53677691
0.53677442
0.53677443
0.53677692
0.53678124
0.53678528
0.5367837
0.53676734
0.53671921
0.53660399
0.53624346
0.52932928
0.19239913
0.19696053
0.19711201
0.19704304
0.19693153
0.19682771
0.19674215
0.19667834
0.19663715
0.19661675
0.19661676
0.19663719
0.19667841
0.19674225
0.19682784
0.19693166
0.19704319
0.19711216
0.1969607
0.19239931
0.056158539
0.061394099
0.062232533
0.062300314
0.062193214
0.062052735
0.061951603
0.061861929
0.06180658
0.061778844
0.061778859
0.06180662
0.061861995
0.061951684
0.062052829
0.062193318
0.062300431
0.062232687
0.061394232
0.056158734
0.011642489
0.016298447
0.017742792
0.018109811
0.018165661
0.018121711
0.01806833
0.018044466
0.018024403
0.018010562
0.018010571
0.018024399
0.01804446
0.018068359
0.018121707
0.018165693
0.018109903
0.017742849
0.016298503
0.01164263
0.0014436175
0.0036544308
0.0047177458
0.0050921552
0.0051801686
0.0051930845
0.0051595777
0.0051559714
0.0051433089
0.0051339054
0.0051338966
0.005143315
0.0051559525
0.0051595637
0.0051930858
0.0051801507
0.0050921732
0.0047177148
0.0036544503
0.0014436595
0.00011747646
0.00072099103
0.0011963934
0.0014019734
0.0014592673
0.001470243
0.0014654903
0.0014619373
0.0014569542
0.0014551914
0.0014551887
0.0014569527
0.0014619252
0.0014654819
0.0014702379
0.0014592522
0.0014019664
0.0011963915
0.00072098193
0.00011748309
7.5290184e-06
0.00013385056
0.00029391933
0.00037642765
0.00040468659
0.00041011024
0.0004100287
0.00040857023
0.00040755345
0.00040696982
0.00040696899
0.00040755077
0.00040856667
0.00041002425
0.00041010674
0.00040467993
0.00037642273
0.00029391612
0.0001338489
7.5294104e-06
4.5849985e-07
2.44122e-05
7.02565e-05
9.8375446e-05
0.00010902135
0.00011136835
0.00011161764
0.00011121551
0.00011097627
0.00011086476
0.00011086457
0.00011097488
0.00011121412
0.00011161581
0.00011136694
0.00010901885
9.8372922e-05
7.0255676e-05
2.4411531e-05
4.5850671e-07
3.0432504e-08
4.4007292e-06
1.6285099e-05
2.4839549e-05
2.826811e-05
2.9128947e-05
2.9258135e-05
2.9166517e-05
2.9087447e-05
2.9064276e-05
2.9064129e-05
2.9087066e-05
2.9166003e-05
2.9257461e-05
2.9128213e-05
2.8267378e-05
2.4838835e-05
1.6284672e-05
4.4006208e-06
3.0431912e-08
2.2334411e-09
7.7945293e-07
3.643091e-06
6.0075948e-06
7.0092156e-06
7.2888031e-06
7.3340044e-06
7.3159286e-06
7.2951674e-06
7.2861406e-06
7.2860971e-06
7.2950515e-06
7.3157564e-06
7.3337833e-06
7.2885231e-06
7.0090412e-06
6.0073796e-06
3.6429597e-06
7.79423e-07
2.2333149e-09
1.747314e-10
1.3450414e-07
7.8193203e-07
1.3869465e-06
1.6567033e-06
1.7374389e-06
1.751527e-06
1.7484615e-06
1.7437033e-06
1.7411846e-06
1.7411723e-06
1.743669e-06
1.7484088e-06
1.7514597e-06
1.7373587e-06
1.6566418e-06
1.3868864e-06
7.8189796e-07
1.3449723e-07
1.7471684e-10
1.3949766e-11
2.2433592e-08
1.6050192e-07
3.0516504e-07
3.7287713e-07
3.9398813e-07
3.9800469e-07
3.9760388e-07
3.9661572e-07
3.9603388e-07
3.9603056e-07
3.9660625e-07
3.9758921e-07
3.9798603e-07
3.9396678e-07
3.7285824e-07
3.0514924e-07
1.6049369e-07
2.2432203e-08
1.3948374e-11
1.104844e-12
3.5993283e-09
3.1473782e-08
6.398872e-08
7.9919773e-08
8.5023755e-08
8.6071892e-08
8.6049985e-08
8.5860653e-08
8.5740537e-08
8.5739699e-08
8.585824e-08
8.6046229e-08
8.6067135e-08
8.5018402e-08
7.9914717e-08
6.3984796e-08
3.1471894e-08
3.5990699e-09
1.1047192e-12
8.5541681e-14
5.5435517e-10
5.8969568e-09
1.279786e-08
1.6327317e-08
1.7483003e-08
1.7735172e-08
1.7743823e-08
1.7710096e-08
1.7687166e-08
1.7686969e-08
1.7709528e-08
1.7742936e-08
1.773405e-08
1.7481753e-08
1.6326133e-08
1.2796924e-08
5.8965428e-09
5.5430945e-10
8.553094e-14
6.4268618e-15
8.1903745e-11
1.0565147e-09
2.4444173e-09
3.1842955e-09
3.4307781e-09
3.4873902e-09
3.4916118e-09
3.48601e-09
3.4818932e-09
3.4818505e-09
3.4858855e-09
3.4914175e-09
3.487144e-09
3.4305055e-09
3.1840095e-09
2.4442423e-09
1.0564283e-09
8.1896083e-11
6.4259777e-15
4.6685232e-16
1.1610525e-11
1.8121516e-10
4.4654872e-10
5.9390088e-10
6.4370235e-10
6.555972e-10
6.568367e-10
6.559667e-10
6.552645e-10
6.5525577e-10
6.5594126e-10
6.5679685e-10
6.5554645e-10
6.4364561e-10
5.9384291e-10
4.4651048e-10
1.8119851e-10
1.1609314e-11
4.6678281e-16
3.2737411e-17
1.5804614e-12
2.9794041e-11
7.8176731e-11
1.0609319e-10
1.1568328e-10
1.1804155e-10
1.1833998e-10
1.1821368e-10
1.1809911e-10
1.1809744e-10
1.1820879e-10
1.183323e-10
1.1803172e-10
1.1567221e-10
1.0608223e-10
7.8168601e-11
2.9791286e-11
1.5802737e-12
3.2732206e-17
2.2149934e-18
2.0674226e-13
4.7034832e-12
1.3136303e-11
1.8185826e-11
1.9949031e-11
2.0392558e-11
2.045632e-11
2.0439277e-11
2.0421312e-11
2.0421007e-11
2.0438384e-11
2.0454916e-11
2.0390754e-11
1.9946987e-11
1.8183822e-11
1.3134836e-11
4.7029832e-12
2.0671758e-13
2.2146454e-18
1.446471e-19
2.6028829e-14
7.1406656e-13
2.1219978e-12
2.9964453e-12
3.3066374e-12
3.3861058e-12
3.398604e-12
3.3964913e-12
3.3937741e-12
3.3937207e-12
3.3963356e-12
3.3983582e-12
3.3857894e-12
3.3062767e-12
2.9960927e-12
2.121743e-12
7.1398106e-13
2.6025337e-14
1.4462123e-19
9.127716e-21
3.158147e-15
1.04406e-13
3.300526e-13
4.7536005e-13
5.2769264e-13
5.4130577e-13
5.4359339e-13
5.4335855e-13
5.4296172e-13
5.4295273e-13
5.4333238e-13
5.4355197e-13
5.4125223e-13
5.2763141e-13
4.7530013e-13
3.300098e-13
1.0439215e-13
3.1576692e-15
9.1259011e-21
5.5704459e-22
3.6975284e-16
1.472333e-14
4.9505699e-14
7.2721214e-14
8.1205846e-14
8.344201e-14
8.3837109e-14
8.381534e-14
8.3759201e-14
8.3757741e-14
8.3811062e-14
8.3830332e-14
8.3433215e-14
8.1195769e-14
7.2711342e-14
4.9498721e-14
1.4721173e-14
3.6969062e-16
5.5692437e-22
3.290864e-23
4.1826025e-17
2.0053584e-15
7.1713131e-15
1.0743998e-14
1.2068474e-14
1.2421613e-14
1.2486463e-14
1.2485189e-14
1.2477481e-14
1.2477249e-14
1.2484509e-14
1.2485383e-14
1.2420206e-14
1.2066858e-14
1.0742414e-14
7.1702045e-15
2.005033e-15
4.181823e-17
3.2900959e-23
1.8840556e-24
4.5770987e-18
2.6416372e-16
1.0046599e-15
1.5351364e-15
1.7345588e-15
1.7882837e-15
1.7984584e-15
1.7985355e-15
1.7975076e-15
1.7974716e-15
1.79843e-15
1.7982905e-15
1.7880643e-15
1.7343062e-15
1.5348884e-15
1.0044882e-15
2.6411595e-16
4.5761514e-18
1.8835782e-24
1.0464763e-25
4.8515623e-19
3.369866e-17
1.3629793e-16
2.124126e-16
2.4142124e-16
2.4930983e-16
2.5084242e-16
2.5088661e-16
2.5075341e-16
2.50748e-16
2.5087068e-16
2.5081699e-16
2.4927651e-16
2.4138275e-16
2.1237478e-16
1.3627203e-16
3.3691841e-17
4.8504442e-19
1.0461864e-25
5.6466155e-27
4.9869954e-20
4.168165e-18
1.7928761e-17
2.8497644e-17
3.2580398e-17
3.3700227e-17
3.3922518e-17
3.3932755e-17
3.3915946e-17
3.3915154e-17
3.3930421e-17
3.391878e-17
3.3695315e-17
3.2574706e-17
2.8492045e-17
1.792497e-17
4.1672215e-18
4.9857162e-20
5.6437462e-27
3.7171473e-28
4.9768829e-21
5.0046763e-19
2.2893507e-18
3.7114596e-18
4.2681986e-18
4.4221203e-18
4.4532416e-18
4.4551201e-18
4.4530564e-18
4.4529441e-18
4.4547892e-18
4.4527103e-18
4.4214196e-18
4.2673836e-18
3.7106578e-18
2.2888144e-18
5.0034144e-19
4.975466e-21
2.9602399e-28
4.9435687e-29
4.8273734e-22
5.8396141e-20
2.8409037e-19
4.6975296e-19
5.4340402e-19
5.6391832e-19
5.6813274e-19
5.6843812e-19
5.6819168e-19
5.6817635e-19
5.6839282e-19
5.6805987e-19
5.6382187e-19
5.4329151e-19
4.6964219e-19
2.8401718e-19
5.8379877e-20
4.8258224e-22
1.5112504e-29
6.9180531e-30
4.5556315e-23
6.6285914e-21
3.4295432e-20
5.7841203e-20
6.7304739e-20
6.9959225e-20
7.0512252e-20
7.0558065e-20
7.0529456e-20
7.0527438e-20
7.0552092e-20
7.0502623e-20
6.994645e-20
6.728978e-20
5.7826469e-20
3.4285822e-20
6.6265727e-21
4.553943e-23
7.5166526e-31
8.1469285e-31
4.1869191e-24
7.3267964e-22
4.0316181e-21
6.9354718e-21
8.1178561e-21
8.4517342e-21
8.5221645e-21
8.5286356e-21
8.5254063e-21
8.5251505e-21
8.5278777e-21
8.5209404e-21
8.4501051e-21
8.1159428e-21
6.9335877e-21
4.030405e-21
7.3243858e-22
4.1851073e-24
3.6458461e-32
8.2575989e-32
3.751022e-25
7.8934384e-23
4.6194434e-22
8.1056801e-22
9.5436381e-22
9.9522928e-22
1.0039466e-21
1.0048169e-21
1.0044625e-21
1.0044313e-21
1.0047244e-21
1.0037968e-21
9.9502928e-22
9.541284e-22
8.1033623e-22
4.6179713e-22
7.8906696e-23
3.7491286e-25
1.7260131e-33
7.494478e-33
3.2786347e-26
8.2958157e-24
5.1635533e-23
9.2418524e-23
1.0945738e-22
1.1432961e-22
1.1537956e-22
1.1549182e-22
1.1545401e-22
1.1545032e-22
1.1548092e-22
1.1536189e-22
1.1430597e-22
1.0942947e-22
9.2391083e-23
5.1618342e-23
8.2927548e-24
3.2767225e-26
7.9822836e-35
6.03163e-34
2.7982274e-27
8.5124357e-25
5.6353024e-24
1.0288341e-23
1.225731e-23
1.2823706e-23
1.2946898e-23
1.2960854e-23
1.2956931e-23
1.2956513e-23
1.2959616e-23
1.2944886e-23
1.2821007e-23
1.2254122e-23
1.0285209e-23
5.6333686e-24
8.509176e-25
2.7963748e-27
3.6090503e-36
4.1323528e-35
2.3337627e-28
8.5347793e-26
6.0094808e-25
1.1191536e-24
1.3412376e-24
1.4054937e-24
1.4195896e-24
1.4212676e-24
1.4208722e-24
1.4208263e-24
1.4211315e-24
1.4193682e-24
1.4051962e-24
1.3408857e-24
1.1188085e-24
6.0073817e-25
8.5314325e-26
2.3320575e-28
1.596494e-37
2.147802e-36
1.9034026e-29
8.3675444e-27
6.2665899e-26
1.1904614e-25
1.4351588e-25
1.5063581e-25
1.5221012e-25
1.5240579e-25
1.5236707e-25
1.5236217e-25
1.5239128e-25
1.5218652e-25
1.5060407e-25
1.4347831e-25
1.1900939e-25
6.2643877e-26
8.3642275e-27
1.90193e-29
6.9144443e-39
8.6233194e-38
1.5191627e-30
8.0274416e-28
6.3944993e-27
1.2391635e-26
1.5027416e-26
1.5798579e-26
1.5970352e-26
1.599252e-26
1.5988839e-26
1.5988334e-26
1.5991022e-26
1.596791e-26
1.5795297e-26
1.5023529e-26
1.2387845e-26
6.3922632e-27
8.0242644e-28
1.5179808e-30
2.9339392e-40
9.9915496e-39
1.1873177e-31
7.5408128e-29
6.3892882e-28
1.2630485e-27
1.540811e-27
1.6225158e-27
1.6408399e-27
1.6432848e-27
1.6429451e-27
1.6428945e-27
1.6431343e-27
1.6405946e-27
1.6221858e-27
1.5404206e-27
1.2626692e-27
6.3870876e-28
7.5378669e-29
1.186425e-31
9.5208532e-40
4.1686369e-40
9.0926758e-33
6.9405228e-30
6.2552218e-29
1.2614332e-28
1.5479982e-28
1.6327376e-28
1.6518638e-28
1.6544922e-28
1.6541886e-28
1.6541391e-28
1.6543453e-28
1.651624e-28
1.632415e-28
1.5476168e-28
1.2610643e-28
6.2531178e-29
6.9378738e-30
9.0862208e-33
3.0110506e-41
)
;

boundaryField
{
    Wall
    {
        type            zeroGradient;
    }
    frontAndBack
    {
        type            empty;
    }
    atmosphere
    {
        type            zeroGradient;
    }
}


// ************************************************************************* //
