/*--------------------------------*- C++ -*----------------------------------*\
| =========                 |                                                 |
| \\      /  F ield         | OpenFOAM: The Open Source CFD Toolbox           |
|  \\    /   O peration     | Version:  3.0.1                                 |
|   \\  /    A nd           | Web:      www.OpenFOAM.org                      |
|    \\/     M anipulation  |                                                 |
\*---------------------------------------------------------------------------*/
FoamFile
{
    version     2.0;
    format      ascii;
    class       volScalarField;
    location    "11";
    object      mTwo;
}
// * * * * * * * * * * * * * * * * * * * * * * * * * * * * * * * * * * * * * //

dimensions      [0 0 0 0 0 0 0];

internalField   nonuniform List<scalar> 
800
(
4.5062216e-13
4.5056095e-13
4.5053713e-13
4.5052513e-13
4.5051624e-13
4.5050916e-13
4.5050377e-13
4.5049988e-13
4.5049737e-13
4.5049613e-13
4.5049614e-13
4.5049737e-13
4.5049988e-13
4.5050377e-13
4.5050917e-13
4.5051624e-13
4.5052514e-13
4.5053714e-13
4.5056095e-13
4.5062216e-13
2.4538864e-13
2.4760519e-13
2.4787331e-13
2.4802104e-13
2.4813638e-13
2.4822464e-13
2.4829024e-13
2.4833654e-13
2.4836597e-13
2.4838029e-13
2.4838029e-13
2.4836597e-13
2.4833653e-13
2.4829023e-13
2.4822464e-13
2.4813638e-13
2.4802104e-13
2.4787332e-13
2.4760519e-13
2.4538863e-13
1.3305338e-13
1.3423593e-13
1.3442561e-13
1.3452581e-13
1.345938e-13
1.346428e-13
1.3467742e-13
1.3470107e-13
1.3471585e-13
1.3472298e-13
1.3472298e-13
1.3471584e-13
1.3470106e-13
1.346774e-13
1.3464278e-13
1.3459378e-13
1.3452579e-13
1.3442559e-13
1.342359e-13
1.3305335e-13
5.7202772e-14
5.8257368e-14
5.8339172e-14
5.8376627e-14
5.8398789e-14
5.8412515e-14
5.8420965e-14
5.8426091e-14
5.8429076e-14
5.8430462e-14
5.8430462e-14
5.8429075e-14
5.8426089e-14
5.8420963e-14
5.8412514e-14
5.8398787e-14
5.8376626e-14
5.8339171e-14
5.8257367e-14
5.7202767e-14
1.6443494e-14
1.6884642e-14
1.6908049e-14
1.6911144e-14
1.6907731e-14
1.6903056e-14
1.6898535e-14
1.6894904e-14
1.6892517e-14
1.6891311e-14
1.6891313e-14
1.689252e-14
1.6894908e-14
1.6898541e-14
1.6903065e-14
1.690774e-14
1.6911154e-14
1.6908059e-14
1.6884652e-14
1.6443505e-14
3.9450852e-15
4.2550332e-15
4.2973953e-15
4.2988829e-15
4.2907436e-15
4.2805663e-15
4.2734224e-15
4.2668393e-15
4.2628096e-15
4.2607762e-15
4.2607774e-15
4.2628127e-15
4.2668443e-15
4.2734286e-15
4.2805735e-15
4.2907516e-15
4.2988916e-15
4.2974072e-15
4.2550433e-15
3.9450988e-15
7.0057516e-16
9.3198049e-16
9.9900989e-16
1.0145812e-15
1.0159948e-15
1.0125514e-15
1.0089742e-15
1.0074299e-15
1.0061158e-15
1.0051963e-15
1.005197e-15
1.0061158e-15
1.0074297e-15
1.0089766e-15
1.0125515e-15
1.0159975e-15
1.0145881e-15
9.9901443e-16
9.3198487e-16
7.0058414e-16
7.5902666e-17
1.7316908e-16
2.1834991e-16
2.3412327e-16
2.3754622e-16
2.3787314e-16
2.3590084e-16
2.3570811e-16
2.3500734e-16
2.3447977e-16
2.3447932e-16
2.3500778e-16
2.3570721e-16
2.3590031e-16
2.3787349e-16
2.3754563e-16
2.3412484e-16
2.1834874e-16
1.7317057e-16
7.5905139e-17
5.3296584e-18
2.7965101e-17
4.5585567e-17
5.3329061e-17
5.5434512e-17
5.5806425e-17
5.5532473e-17
5.5369428e-17
5.5134756e-17
5.5048565e-17
5.5048451e-17
5.5134746e-17
5.5368937e-17
5.5532186e-17
5.580633e-17
5.543397e-17
5.3328938e-17
4.5585629e-17
2.7964859e-17
5.330016e-18
2.8030869e-19
4.1815891e-18
9.2257397e-18
1.1918898e-17
1.2853561e-17
1.3024266e-17
1.3009394e-17
1.2952032e-17
1.2910886e-17
1.2887934e-17
1.2887908e-17
1.2910804e-17
1.2951921e-17
1.3009261e-17
1.302418e-17
1.2853355e-17
1.1918773e-17
9.2256767e-18
4.1815563e-18
2.8032961e-19
1.2919394e-20
6.0960102e-19
1.8232275e-18
2.6101684e-18
2.9179252e-18
2.9845056e-18
2.9904286e-18
2.9769543e-18
2.9689933e-18
2.9652872e-18
2.9652833e-18
2.9689549e-18
2.9769186e-18
2.9903817e-18
2.9844751e-18
2.91786e-18
2.6101055e-18
1.8232162e-18
6.0958788e-19
1.2920072e-20
6.0515662e-22
8.8137759e-20
3.5181117e-19
5.5661184e-19
6.4231528e-19
6.6388393e-19
6.670476e-19
6.6444354e-19
6.6230488e-19
6.616784e-19
6.6167509e-19
6.6229613e-19
6.6443231e-19
6.6703278e-19
6.6386841e-19
6.4229974e-19
5.5659695e-19
3.518038e-19
8.8136279e-20
6.0516704e-22
3.0960072e-23
1.2663824e-20
6.6145156e-20
1.146492e-19
1.3626384e-19
1.4239565e-19
1.433908e-19
1.4295549e-19
1.4247627e-19
1.4227543e-19
1.4227459e-19
1.4247405e-19
1.4295225e-19
1.4338662e-19
1.4239029e-19
1.3626092e-19
1.1464538e-19
6.6143078e-20
1.2663456e-20
3.0959335e-23
1.7427129e-24
1.8003795e-21
1.2063313e-20
2.2746025e-20
2.7787148e-20
2.9333277e-20
2.9606332e-20
2.9543872e-20
2.9449561e-20
2.9400772e-20
2.9400568e-20
2.9449e-20
2.9543013e-20
2.960523e-20
2.9331948e-20
2.7786231e-20
2.274511e-20
1.2062841e-20
1.8003026e-21
1.7426093e-24
1.0486098e-25
2.5161282e-22
2.1283891e-21
4.3419062e-21
5.4436304e-21
5.7972774e-21
5.8656035e-21
5.8587618e-21
5.8419045e-21
5.8320747e-21
5.8320273e-21
5.8417695e-21
5.8585524e-21
5.8653364e-21
5.7969705e-21
5.4433743e-21
4.3416964e-21
2.1282897e-21
2.5159926e-22
1.0485237e-25
6.5461923e-27
3.4399053e-23
3.629281e-22
7.9754179e-22
1.0247511e-21
1.099857e-21
1.1155487e-21
1.115287e-21
1.1124956e-21
1.1107259e-21
1.1107153e-21
1.1124653e-21
1.1152397e-21
1.1154888e-21
1.0997896e-21
1.0246895e-21
7.9749586e-22
3.6290807e-22
3.4396847e-23
6.5455477e-27
4.1545426e-28
4.586729e-24
5.9798143e-23
1.410724e-22
1.8552279e-22
2.0054999e-22
2.0388911e-22
2.0402395e-22
2.0359191e-22
2.0329616e-22
2.0329397e-22
2.0358556e-22
2.0401402e-22
2.0387654e-22
2.0053604e-22
1.855099e-22
1.410626e-22
5.9794237e-23
4.5863854e-24
4.1540743e-28
2.6444769e-29
5.9532698e-25
9.5224232e-24
2.405033e-23
3.2341733e-23
3.5193416e-23
3.5860441e-23
3.5914632e-23
3.5851951e-23
3.5805192e-23
3.5804765e-23
3.5850704e-23
3.5912682e-23
3.5857971e-23
3.5190696e-23
3.2338903e-23
2.404872e-23
9.5216901e-24
5.9527576e-25
2.6441438e-29
1.6720044e-30
7.5120313e-26
1.4660962e-24
3.9555184e-24
5.4361262e-24
5.9524986e-24
6.0780654e-24
6.0919955e-24
6.0834568e-24
6.0763824e-24
6.0763034e-24
6.0832263e-24
6.0916339e-24
6.0776051e-24
5.9519867e-24
5.4356071e-24
3.9551999e-24
1.4659686e-24
7.5113035e-26
1.6717732e-30
1.0428099e-31
9.2092326e-27
2.1832528e-25
6.2847463e-25
8.8187595e-25
9.7162484e-25
9.9408228e-25
9.970705e-25
9.9598115e-25
9.9494963e-25
9.9493583e-25
9.9594075e-25
9.9700705e-25
9.9400107e-25
9.7153389e-25
8.8178684e-25
6.2841199e-25
2.1830629e-25
9.2082042e-27
1.0426542e-31
6.3837737e-33
1.0961518e-27
3.1473372e-26
9.6552583e-26
1.382504e-25
1.5324809e-25
1.5708399e-25
1.5765913e-25
1.5753022e-25
1.5738459e-25
1.5738228e-25
1.5752347e-25
1.5764849e-25
1.5707034e-25
1.5323268e-25
1.382355e-25
9.6542173e-26
3.1470209e-26
1.0960288e-27
6.3828287e-33
3.8234109e-34
1.2671145e-28
4.3954708e-27
1.4356128e-26
2.0968748e-26
2.3382712e-26
2.4010978e-26
2.4113415e-26
2.4099563e-26
2.4079586e-26
2.4079215e-26
2.4098478e-26
2.4111699e-26
2.400877e-26
2.3380204e-26
2.0966333e-26
1.4354458e-26
4.3949688e-27
1.266954e-28
3.8227604e-34
2.2368874e-35
1.422818e-29
5.9512024e-28
2.0679019e-27
3.0803459e-27
3.4552481e-27
3.554233e-27
3.571398e-27
3.5701098e-27
3.5674456e-27
3.5673876e-27
3.5699407e-27
3.57113e-27
3.5538867e-27
3.4548534e-27
3.0799654e-27
2.0676415e-27
5.9504438e-28
1.4226127e-29
2.2364591e-35
1.2767366e-36
1.5523648e-30
7.8175651e-29
2.8884304e-28
4.3873168e-28
4.9500376e-28
5.1004406e-28
5.1277625e-28
5.1268897e-28
5.1234262e-28
5.1233383e-28
5.1266321e-28
5.127354e-28
5.0999106e-28
4.9494324e-28
4.3867324e-28
2.8880342e-28
7.8164586e-29
1.5521137e-30
1.2764692e-36
7.1043936e-38
1.646385e-31
9.9713228e-30
3.9160326e-29
6.0646432e-29
6.8821539e-29
7.1030241e-29
7.1446005e-29
7.144607e-29
7.1402112e-29
7.1400804e-29
7.1442239e-29
7.1439915e-29
7.1022304e-29
6.8812458e-29
6.0637647e-29
3.9154421e-29
9.969754e-30
1.6460884e-31
7.1027777e-38
3.8534033e-39
1.6982201e-32
1.235959e-30
5.1580549e-30
8.1439799e-30
9.2950557e-30
9.6090513e-30
9.6698534e-30
9.6713588e-30
9.6659096e-30
9.665719e-30
9.6708003e-30
9.6689631e-30
9.6078876e-30
9.2937204e-30
8.1426857e-30
5.1571932e-30
1.2357417e-30
1.697879e-32
3.8524491e-39
2.0375938e-40
1.7046869e-33
1.4899832e-31
6.6065062e-31
1.0633984e-30
1.2206723e-30
1.2639487e-30
1.2725266e-30
1.2729033e-30
1.2722436e-30
1.2722165e-30
1.2728236e-30
1.2723993e-30
1.263782e-30
1.2204802e-30
1.0632119e-30
6.6052767e-31
1.4896892e-31
1.7043043e-33
2.0370409e-40
1.0510053e-41
1.6663414e-34
1.7483808e-32
8.2353469e-32
1.3513566e-31
1.5601136e-31
1.6180158e-31
1.62972e-31
1.6304152e-31
1.6296338e-31
1.6295963e-31
1.6303046e-31
1.6295428e-31
1.6177828e-31
1.5598444e-31
1.3510949e-31
8.2336382e-32
1.7479938e-32
1.6659239e-34
1.0504318e-41
7.4257986e-43
1.5872372e-35
1.9985352e-33
9.9995447e-33
1.6727443e-32
1.9422146e-32
2.0175106e-32
2.0329879e-32
2.0341059e-32
2.0332017e-32
2.0331511e-32
2.0339567e-32
2.0327482e-32
2.0171945e-32
1.941848e-32
1.6723876e-32
9.9972414e-33
1.9980412e-33
1.5867945e-35
5.2850285e-43
1.2122715e-43
1.4742622e-36
2.2271166e-34
1.1836326e-33
2.0185052e-33
2.3571067e-33
2.4523771e-33
2.4722466e-33
2.4738975e-33
2.4728761e-33
2.4728102e-33
2.4737026e-33
2.4719328e-33
2.4519618e-33
2.3566236e-33
2.0180347e-33
1.1833322e-33
2.2265071e-34
1.4737953e-36
2.5958409e-44
1.7892555e-44
1.336159e-37
2.4213266e-35
1.3668721e-34
2.3763512e-34
2.7908955e-34
2.9083011e-34
2.9331015e-34
2.9353932e-34
2.9342681e-34
2.934185e-34
2.9351472e-34
2.9327047e-34
2.9077747e-34
2.7902808e-34
2.3757521e-34
1.3664941e-34
2.4206005e-35
1.3356654e-37
1.2454316e-45
2.0985545e-45
1.1824485e-38
2.5701347e-36
1.5411155e-35
2.7314716e-35
3.2263856e-35
3.3674337e-35
3.3975683e-35
3.4005977e-35
3.3993892e-35
3.3992881e-35
3.4002981e-35
3.3970844e-35
3.3667896e-35
3.225631e-35
2.7307362e-35
1.5406571e-35
2.5693003e-36
1.1819313e-38
5.8404019e-47
2.0851195e-46
1.0224236e-39
2.6653374e-37
1.6976477e-36
3.0676007e-36
3.6442553e-36
3.8095916e-36
3.8452779e-36
3.8491208e-36
3.8478561e-36
3.8477373e-36
3.848769e-36
3.8447083e-36
3.8088311e-36
3.6433623e-36
3.0667301e-36
1.697112e-36
2.6644131e-37
1.021894e-39
2.6786743e-48
1.8474767e-47
8.6433292e-41
2.7022959e-38
1.8283564e-37
3.3683267e-37
4.024565e-37
4.2138172e-37
4.2550468e-37
4.2597498e-37
4.2584606e-37
4.2583257e-37
4.2593504e-37
4.2543989e-37
4.2129504e-37
4.0235447e-37
3.3673328e-37
1.8277528e-37
2.7013084e-38
8.6380818e-41
1.2023289e-49
1.4504983e-48
7.1482755e-42
2.6802647e-39
1.9264531e-38
3.6184888e-38
4.3484195e-38
4.560117e-38
4.6066301e-38
4.6122034e-38
4.6109236e-38
4.6107758e-38
4.611765e-38
4.6059177e-38
4.5591614e-38
4.3472932e-38
3.6173929e-38
1.9257968e-38
2.6792464e-39
7.1432868e-42
5.2846957e-51
9.7016801e-50
5.7869474e-43
2.6022879e-40
1.9870645e-39
3.8054859e-39
4.5995854e-39
4.8311645e-39
4.8824478e-39
4.8888598e-39
4.8876249e-39
4.8874676e-39
4.8883937e-39
4.8816893e-39
4.8301456e-39
4.5983827e-39
3.8043172e-39
1.9863746e-39
2.6012739e-40
5.7824455e-43
2.2759871e-52
4.9384902e-51
4.588517e-44
2.4747077e-41
2.0076203e-40
3.9203371e-40
4.7658621e-40
5.0137674e-40
5.0690682e-40
5.0762461e-40
5.0750874e-40
5.074925e-40
5.0757645e-40
5.0682847e-40
5.0127137e-40
4.7646176e-40
3.9191304e-40
2.0069182e-40
2.4737315e-41
4.5847114e-44
9.6100025e-54
1.9479582e-52
3.5653922e-45
2.3063785e-42
1.9879993e-41
3.9583716e-41
4.8400447e-41
5.0999124e-41
5.1582773e-41
5.1661065e-41
5.1650515e-41
5.1648889e-41
5.1656238e-41
5.1574906e-41
5.0988548e-41
4.8387949e-41
3.9571633e-41
1.9873068e-41
2.305469e-42
3.5624094e-45
3.9803471e-55
2.2276795e-53
2.7163798e-46
2.1077099e-43
1.9304283e-42
3.9194785e-42
4.82038e-42
5.0872887e-42
5.147616e-42
5.155949e-42
5.1550178e-42
5.1548592e-42
5.155478e-42
5.1468478e-42
5.0862553e-42
4.8191599e-42
3.9183028e-42
1.9297653e-42
2.1068887e-43
2.7141835e-46
2.1087191e-54
9.1884224e-55
2.0302452e-47
1.8896794e-44
1.8391637e-43
3.8079061e-43
4.7104825e-43
4.9792454e-43
5.040353e-43
5.0490176e-43
5.0482229e-43
5.0480721e-43
5.04857e-43
5.039622e-43
4.9782621e-43
4.7093222e-43
3.8067927e-43
1.8385463e-43
1.8889594e-44
2.0286985e-47
6.6574673e-56
)
;

boundaryField
{
    Wall
    {
        type            zeroGradient;
    }
    frontAndBack
    {
        type            empty;
    }
    atmosphere
    {
        type            zeroGradient;
    }
}


// ************************************************************************* //
