/*--------------------------------*- C++ -*----------------------------------*\
| =========                 |                                                 |
| \\      /  F ield         | OpenFOAM: The Open Source CFD Toolbox           |
|  \\    /   O peration     | Version:  3.0.1                                 |
|   \\  /    A nd           | Web:      www.OpenFOAM.org                      |
|    \\/     M anipulation  |                                                 |
\*---------------------------------------------------------------------------*/
FoamFile
{
    version     2.0;
    format      ascii;
    class       surfaceScalarField;
    location    "11";
    object      phi;
}
// * * * * * * * * * * * * * * * * * * * * * * * * * * * * * * * * * * * * * //

dimensions      [0 3 -1 0 0 0 0];

internalField   nonuniform List<scalar> 
1540
(
1.1927832e-10
3.0533848e-08
1.2208719e-10
3.0691159e-08
1.0100779e-10
3.071987e-08
9.068725e-11
3.0714218e-08
8.0351999e-11
3.0717294e-08
6.7939481e-11
3.0721499e-08
5.3056467e-11
3.0725457e-08
3.6302287e-11
3.0728367e-08
1.8416927e-11
3.0730166e-08
-4.2132376e-16
3.0731025e-08
-1.8417285e-11
3.0731025e-08
-3.6301462e-11
3.0730165e-08
-5.3054046e-11
3.0728365e-08
-6.7935402e-11
3.0725455e-08
-8.0346767e-11
3.0721498e-08
-9.0681765e-11
3.0717293e-08
-1.0100259e-10
3.0714218e-08
-1.2208204e-10
3.0719871e-08
-1.1927334e-10
3.0691161e-08
3.0533843e-08
-9.715978e-11
6.2266452e-08
-2.3762726e-11
6.2465417e-08
2.882702e-11
6.2506845e-08
4.8146119e-11
6.2520158e-08
5.2990431e-11
6.2528181e-08
4.8693723e-11
6.2534592e-08
3.9398377e-11
6.2538651e-08
2.746276e-11
6.2540834e-08
1.4053721e-11
6.2541964e-08
4.7795551e-16
6.2542432e-08
-1.4052436e-11
6.2542431e-08
-2.7460519e-11
6.2541964e-08
-3.9394956e-11
6.2540833e-08
-4.8689291e-11
6.2538651e-08
-5.2985658e-11
6.2534593e-08
-4.8141474e-11
6.2528183e-08
-2.882177e-11
6.2520161e-08
2.3768971e-11
6.2506848e-08
9.7168522e-11
6.246542e-08
6.2266448e-08
-4.4905102e-11
8.711186e-08
3.0544945e-12
8.7381731e-08
3.9507457e-11
8.7428927e-08
5.3947438e-11
8.7461419e-08
5.4760223e-11
8.748314e-08
4.7906636e-11
8.7498035e-08
3.7416577e-11
8.7506728e-08
2.552708e-11
8.7511177e-08
1.2888072e-11
8.7513628e-08
2.2092752e-15
8.7514636e-08
-1.2883379e-11
8.7514636e-08
-2.5521486e-11
8.7513628e-08
-3.7409805e-11
8.7511178e-08
-4.789873e-11
8.750673e-08
-5.4752743e-11
8.749804e-08
-5.3940766e-11
8.7483149e-08
-3.9500436e-11
8.7461428e-08
-3.0466629e-12
8.7428937e-08
4.4912232e-11
8.7381741e-08
8.7111864e-08
-6.6067768e-11
1.0925476e-07
3.2482014e-11
1.0980328e-07
9.8387091e-11
1.099178e-07
1.0673793e-10
1.1000142e-07
9.3942156e-11
1.1003482e-07
7.4640788e-11
1.1004843e-07
5.4363312e-11
1.1005196e-07
3.5823992e-11
1.1005042e-07
1.7667647e-11
1.1004968e-07
4.8910815e-15
1.1004883e-07
-1.7657939e-11
1.1004884e-07
-3.5812654e-11
1.1004968e-07
-5.4350123e-11
1.1005042e-07
-7.4624568e-11
1.1005197e-07
-9.3927148e-11
1.1004844e-07
-1.0672575e-10
1.1003484e-07
-9.8373675e-11
1.1000144e-07
-3.2470833e-11
1.0991782e-07
6.6071839e-11
1.0980331e-07
1.0925479e-07
5.3800548e-10
1.0811245e-07
4.5598839e-10
1.0952812e-07
3.6278603e-10
1.0968923e-07
2.7275444e-10
1.0976923e-07
1.9334826e-10
1.0978486e-07
1.4700684e-10
1.0975782e-07
9.7254141e-11
1.0975902e-07
6.5368426e-11
1.0973506e-07
3.1352163e-11
1.0973353e-07
1.0048726e-14
1.0972859e-07
-3.1333598e-11
1.0972859e-07
-6.534057e-11
1.0973352e-07
-9.7222152e-11
1.0973507e-07
-1.4697433e-10
1.0975903e-07
-1.9331332e-10
1.0975784e-07
-2.7271543e-10
1.0978489e-07
-3.6273841e-10
1.0976925e-07
-4.5598526e-10
1.0968931e-07
-5.3800947e-10
1.0952817e-07
1.0811248e-07
6.5679687e-09
1.0097737e-07
5.4843377e-09
1.1001423e-07
3.7953002e-09
1.1078245e-07
2.6135895e-09
1.1035655e-07
1.7897306e-09
1.1001551e-07
1.2892464e-09
1.0966608e-07
9.3201856e-10
1.0952465e-07
5.6247141e-10
1.0951359e-07
2.5615635e-10
1.0944912e-07
-2.980423e-14
1.0939421e-07
-2.5623784e-10
1.0939424e-07
-5.6246152e-10
1.0944902e-07
-9.3180262e-10
1.0951338e-07
-1.2891105e-09
1.0952474e-07
-1.7895158e-09
1.0966602e-07
-2.6133019e-09
1.1001547e-07
-3.7954717e-09
1.1035702e-07
-5.4844614e-09
1.1078248e-07
-6.5680655e-09
1.1001424e-07
1.0097728e-07
2.3118202e-08
7.7847644e-08
2.6615276e-08
1.0650171e-07
2.3741387e-08
1.1364049e-07
1.9041199e-08
1.1504105e-07
1.4688559e-08
1.143526e-07
1.0544683e-08
1.1379458e-07
7.6676473e-09
1.123864e-07
4.834365e-09
1.1233163e-07
2.3094923e-09
1.1195887e-07
-6.2538582e-13
1.116892e-07
-2.3101543e-09
1.1168861e-07
-4.8353384e-09
1.1195905e-07
-7.6680405e-09
1.1233089e-07
-1.0544403e-08
1.1238578e-07
-1.4688694e-08
1.1379494e-07
-1.9041037e-08
1.1435223e-07
-2.3741776e-08
1.1504206e-07
-2.6614914e-08
1.1363976e-07
-2.3117972e-08
1.065018e-07
7.7847808e-08
1.764349e-08
6.0204047e-08
2.5351404e-08
9.8793605e-08
2.4973436e-08
1.1401831e-07
2.1292209e-08
1.1872207e-07
1.7059839e-08
1.185848e-07
1.3198213e-08
1.1765607e-07
9.1789261e-09
1.1640547e-07
5.9153883e-09
1.1559498e-07
2.9948798e-09
1.1487922e-07
-4.4524299e-13
1.146843e-07
-2.9959655e-09
1.1468399e-07
-5.9165428e-09
1.1487943e-07
-9.1796073e-09
1.1559379e-07
-1.3199092e-08
1.1640509e-07
-1.7060783e-08
1.1765644e-07
-2.1292829e-08
1.1858412e-07
-2.4972498e-08
1.1872153e-07
-2.5351871e-08
1.1401895e-07
-1.7642834e-08
9.879261e-08
6.0204886e-08
1.0984533e-08
4.9219404e-08
1.8041569e-08
9.1736435e-08
1.9574687e-08
1.1248506e-07
1.8161357e-08
1.2013534e-07
1.4853291e-08
1.2189276e-07
1.1728092e-08
1.2078118e-07
8.5027253e-09
1.1963076e-07
5.6522941e-09
1.1844535e-07
2.7347712e-09
1.1779665e-07
6.5286204e-16
1.1741898e-07
-2.7350685e-09
1.1741898e-07
-5.6516926e-09
1.1779593e-07
-8.5032603e-09
1.1844527e-07
-1.1728572e-08
1.1963029e-07
-1.485367e-08
1.2078144e-07
-1.8161708e-08
1.2189202e-07
-1.9575424e-08
1.2013515e-07
-1.8041669e-08
1.1248506e-07
-1.0985473e-08
9.1736325e-08
4.9219354e-08
6.8368193e-09
4.23825e-08
1.2080183e-08
8.6492989e-08
1.4107467e-08
1.1045768e-07
1.3631491e-08
1.2061122e-07
1.1859496e-08
1.2366462e-07
9.6307828e-09
1.2300984e-07
7.2026571e-09
1.2205883e-07
4.7654589e-09
1.2088246e-07
2.4149165e-09
1.2014711e-07
1.3804633e-13
1.198337e-07
-2.4150121e-09
1.1983407e-07
-4.7654377e-09
1.2014629e-07
-7.2025948e-09
1.2088233e-07
-9.6308223e-09
1.2205842e-07
-1.1860096e-08
1.2301066e-07
-1.3632115e-08
1.2366395e-07
-1.4107152e-08
1.2061009e-07
-1.208057e-08
1.1045841e-07
-6.8366831e-09
8.6492324e-08
4.2382621e-08
4.2958094e-09
3.8086644e-08
8.2162565e-09
8.257247e-08
1.0138219e-08
1.085357e-07
1.0083848e-08
1.2066555e-07
9.1913797e-09
1.2455702e-07
7.6557771e-09
1.2454542e-07
5.8749343e-09
1.2383962e-07
3.940504e-09
1.2281686e-07
1.993237e-09
1.2209435e-07
1.9165556e-13
1.218267e-07
-1.9922913e-09
1.2182648e-07
-3.9402209e-09
1.2209419e-07
-5.8746437e-09
1.2281671e-07
-7.6555137e-09
1.2383923e-07
-9.1896467e-09
1.2454473e-07
-1.0083243e-08
1.2455747e-07
-1.0138789e-08
1.2066556e-07
-8.2157999e-09
1.0853536e-07
-4.2963504e-09
8.2572778e-08
3.808626e-08
2.8110315e-09
3.5275589e-08
5.5424615e-09
7.9841025e-08
7.0203042e-09
1.0705784e-07
7.4123099e-09
1.2027353e-07
7.0417746e-09
1.2492754e-07
5.9354301e-09
1.2565173e-07
4.653437e-09
1.2512159e-07
3.16964e-09
1.2430067e-07
1.5755796e-09
1.2368838e-07
2.6289839e-13
1.2340202e-07
-1.575194e-09
1.2340194e-07
-3.1692423e-09
1.236882e-07
-4.6530651e-09
1.2430051e-07
-5.9352259e-09
1.2512139e-07
-7.0408577e-09
1.2565035e-07
-7.4121326e-09
1.2492873e-07
-7.0198828e-09
1.2027327e-07
-5.5423146e-09
1.0705779e-07
-2.8107159e-09
7.9841154e-08
3.5275501e-08
1.8752166e-09
3.3400395e-08
3.7818446e-09
7.7934403e-08
4.9606136e-09
1.0587905e-07
5.3751147e-09
1.1985903e-07
5.2281437e-09
1.2507456e-07
4.5379426e-09
1.2634191e-07
3.6127672e-09
1.2604678e-07
2.4911278e-09
1.2542233e-07
1.2625569e-09
1.2491696e-07
2.4813121e-13
1.2466433e-07
-1.2620614e-09
1.2466425e-07
-2.4906768e-09
1.2491682e-07
-3.6122643e-09
1.2542215e-07
-4.537372e-09
1.2604651e-07
-5.2281968e-09
1.2634118e-07
-5.3743982e-09
1.2507494e-07
-4.9601417e-09
1.1985901e-07
-3.7815655e-09
1.0587919e-07
-1.875072e-09
7.7934623e-08
3.3400405e-08
1.2555589e-09
3.2144884e-08
2.5913746e-09
7.6598645e-08
3.4910652e-09
1.0497939e-07
3.8851802e-09
1.1946496e-07
3.831981e-09
1.2512783e-07
3.4150186e-09
1.2675892e-07
2.7593195e-09
1.2670253e-07
1.9247034e-09
1.2625695e-07
9.8288565e-10
1.2585881e-07
2.324424e-13
1.25647e-07
-9.8241818e-10
1.2564696e-07
-1.9242469e-09
1.2585871e-07
-2.7588367e-09
1.2625678e-07
-3.4145847e-09
1.2670224e-07
-3.8317711e-09
1.2675841e-07
-3.8847043e-09
1.251279e-07
-3.4906733e-09
1.1946501e-07
-2.5910954e-09
1.049796e-07
-1.2554051e-09
7.6598945e-08
3.2145023e-08
8.5752472e-10
3.128739e-08
1.7962141e-09
7.5660004e-08
2.4611445e-09
1.0431452e-07
2.7939143e-09
1.1913226e-07
2.7953826e-09
1.2512642e-07
2.5414851e-09
1.2701286e-07
2.0801265e-09
1.2716391e-07
1.4655904e-09
1.2687156e-07
7.5436622e-10
1.2657007e-07
2.1768421e-13
1.2640118e-07
-7.5394072e-10
1.2640114e-07
-1.4651845e-09
1.2656999e-07
-2.0797224e-09
1.2687138e-07
-2.5411332e-09
1.2716367e-07
-2.795192e-09
1.2701251e-07
-2.7935886e-09
1.2512634e-07
-2.460861e-09
1.1913232e-07
-1.7959698e-09
1.0431475e-07
-8.5737235e-10
7.5660398e-08
3.1287643e-08
5.9576725e-10
3.0691665e-08
1.2521819e-09
7.5003657e-08
1.7373375e-09
1.0382941e-07
2.0005291e-09
1.188691e-07
2.03131e-09
1.2509573e-07
1.875724e-09
1.2716845e-07
1.5523038e-09
1.274874e-07
1.1027946e-09
1.2732109e-07
5.7121442e-10
1.271017e-07
1.8004522e-13
1.2697225e-07
-5.708553e-10
1.2697222e-07
-1.1024706e-09
1.2710162e-07
-1.5519808e-09
1.2732094e-07
-1.8754543e-09
1.2748723e-07
-2.0312005e-09
1.2716828e-07
-2.000749e-09
1.2509593e-07
-1.7372361e-09
1.1886883e-07
-1.251963e-09
1.0382955e-07
-5.9560854e-10
7.5004093e-08
3.069204e-08
4.1574393e-10
3.0275978e-08
8.7814992e-10
7.4541314e-08
1.2266449e-09
1.0348093e-07
1.4339809e-09
1.1866181e-07
1.4604e-09
1.2506939e-07
1.3747033e-09
1.2725421e-07
1.1493918e-09
1.2771278e-07
8.2230951e-10
1.2764822e-07
4.2792649e-10
1.2749613e-07
1.5160267e-13
1.2740005e-07
-4.2762998e-10
1.2740005e-07
-8.2202671e-10
1.2749605e-07
-1.1491326e-09
1.276481e-07
-1.3745396e-09
1.2771264e-07
-1.4604504e-09
1.2725425e-07
-1.4325344e-09
1.2506807e-07
-1.2266267e-09
1.1866296e-07
-8.7792079e-10
1.0348084e-07
-4.1557496e-10
7.4541819e-08
3.0276481e-08
2.9243992e-10
2.9983568e-08
6.2250932e-10
7.4211283e-08
8.7937e-10
1.0322413e-07
1.0533062e-09
1.1848793e-07
1.0683369e-09
1.2505436e-07
1.0071444e-09
1.2731542e-07
8.4726374e-10
1.2787271e-07
6.0935868e-10
1.2788616e-07
3.1818683e-10
1.2778735e-07
1.3601062e-13
1.2771816e-07
-3.1793323e-10
1.2771812e-07
-6.0913466e-10
1.2778727e-07
-8.4702947e-10
1.2788604e-07
-1.0069304e-09
1.2787258e-07
-1.0679368e-09
1.2731531e-07
-1.0537227e-09
1.2505391e-07
-8.7882975e-10
1.184881e-07
-6.222208e-10
1.0322428e-07
-2.9229943e-10
7.4211946e-08
2.9984212e-08
2.0657008e-10
2.9777043e-08
4.3507702e-10
7.398283e-08
6.3081388e-10
1.030284e-07
7.3563672e-10
1.1838315e-07
7.7473515e-10
1.2501528e-07
7.3563388e-10
1.2735455e-07
6.2215381e-10
1.2798625e-07
4.4933323e-10
1.2805902e-07
2.3523645e-10
1.2800152e-07
1.0901053e-13
1.2795332e-07
-2.350514e-10
1.279533e-07
-4.4914318e-10
1.2800143e-07
-6.2198275e-10
1.280589e-07
-7.3550512e-10
1.2798612e-07
-7.7465736e-10
1.2735449e-07
-7.3592442e-10
1.250152e-07
-6.3023238e-10
1.1838244e-07
-4.3522131e-10
1.0302931e-07
-2.0643481e-10
7.3983187e-08
2.9777794e-08
1.4355781e-10
2.9633509e-08
3.1665274e-10
7.3809764e-08
4.5008798e-10
1.0289501e-07
5.3233383e-10
1.1830092e-07
5.6272702e-10
1.249849e-07
5.3606736e-10
1.2738125e-07
4.5539795e-10
1.2806696e-07
3.3004174e-10
1.2818441e-07
1.7312114e-10
1.2815845e-07
6.6418189e-14
1.2812637e-07
-1.7297709e-10
1.2812637e-07
-3.2990337e-10
1.2815838e-07
-4.5527831e-10
1.2818431e-07
-5.359703e-10
1.2806686e-07
-5.6262605e-10
1.2738113e-07
-5.3222679e-10
1.2498488e-07
-4.5077573e-10
1.1830102e-07
-3.1661064e-10
1.0289515e-07
-1.4379142e-10
7.3810432e-08
2.9634011e-08
1.0583174e-10
2.9527713e-08
2.2533834e-10
7.3690294e-08
3.2241245e-10
1.0279793e-07
3.8515665e-10
1.1823823e-07
4.0896388e-10
1.2496113e-07
3.9040779e-10
1.2739981e-07
3.3274132e-10
1.2812466e-07
2.4171473e-10
1.2827545e-07
1.2698147e-10
1.2827323e-07
6.7633319e-14
1.2825335e-07
-1.2686804e-10
1.2825331e-07
-2.4162844e-10
1.2827317e-07
-3.326339e-10
1.2827535e-07
-3.9033911e-10
1.2812455e-07
-4.0887449e-10
1.2739969e-07
-3.8505077e-10
1.249611e-07
-3.2227133e-10
1.1823825e-07
-2.2525469e-10
1.0279818e-07
-1.0566002e-10
7.3690838e-08
2.9528359e-08
7.5145067e-11
2.9452582e-08
1.6140755e-10
7.3604064e-08
2.3219182e-10
1.027272e-07
2.7869667e-10
1.1819171e-07
2.9700007e-10
1.249429e-07
2.8413976e-10
1.274127e-07
2.427215e-10
1.2816612e-07
1.7659025e-10
1.2834162e-07
9.2934222e-11
1.2835688e-07
4.0931639e-14
1.2834627e-07
-9.2863768e-11
1.2834623e-07
-1.7650081e-10
1.2835681e-07
-2.4265749e-10
1.2834151e-07
-2.8407586e-10
1.2816602e-07
-2.9692114e-10
1.2741259e-07
-2.78624e-10
1.2494282e-07
-2.320878e-10
1.1819176e-07
-1.6129656e-10
1.0272741e-07
-7.5047767e-11
7.360461e-08
2.9453315e-08
5.3821097e-11
2.9398758e-08
1.1598161e-10
7.3541976e-08
1.6740986e-10
1.0267581e-07
2.0176662e-10
1.1815741e-07
2.1551568e-10
1.2492919e-07
2.0666478e-10
1.274216e-07
1.7680235e-10
1.2819599e-07
1.289348e-10
1.2838954e-07
6.7901518e-11
1.2841795e-07
2.6788417e-14
1.2841417e-07
-6.787027e-11
1.2841414e-07
-1.289048e-10
1.2841788e-07
-1.7676367e-10
1.2838942e-07
-2.0661311e-10
1.2819586e-07
-2.1546488e-10
1.2742145e-07
-2.016773e-10
1.2492909e-07
-1.6730334e-10
1.181574e-07
-1.1583901e-10
1.0267599e-07
-5.3723427e-11
7.3542531e-08
2.9399636e-08
3.8722246e-11
2.9360073e-08
8.3562339e-11
7.3497175e-08
1.2090981e-10
1.0263846e-07
1.4609504e-10
1.1813222e-07
1.5635235e-10
1.2491894e-07
1.503604e-10
1.2742762e-07
1.2860257e-10
1.2821777e-07
9.3895357e-11
1.2842427e-07
4.9479072e-11
1.2846239e-07
-9.8660106e-15
1.2846367e-07
-4.9476223e-11
1.2846364e-07
-9.3924321e-11
1.2846232e-07
-1.2861562e-10
1.2842415e-07
-1.5032982e-10
1.2821762e-07
-1.5631603e-10
1.2742743e-07
-1.4603332e-10
1.2491878e-07
-1.207762e-10
1.1813217e-07
-8.3391736e-11
1.0263861e-07
-3.8583566e-11
7.3497765e-08
2.936104e-08
2.7907122e-11
2.9332168e-08
6.0322433e-11
7.3464788e-08
8.7419673e-11
1.0261137e-07
1.0581575e-10
1.1811386e-07
1.1340378e-10
1.2491137e-07
1.0919931e-10
1.2743183e-07
9.3534225e-11
1.2823344e-07
6.8351292e-11
1.2844946e-07
3.6038502e-11
1.2849472e-07
-3.4854695e-14
1.2849975e-07
-3.6099492e-11
1.2849972e-07
-6.8433177e-11
1.2849463e-07
-9.3588065e-11
1.2844932e-07
-1.0923059e-10
1.2823324e-07
-1.1340263e-10
1.2743161e-07
-1.0576512e-10
1.2491114e-07
-8.7299034e-11
1.1811373e-07
-6.0147822e-11
1.0261149e-07
-2.7792981e-11
7.3465396e-08
2.9333258e-08
2.0172226e-11
2.9312012e-08
4.3614915e-11
7.3441341e-08
6.328203e-11
1.0259172e-07
7.6681441e-11
1.1810045e-07
8.225557e-11
1.2490578e-07
7.9255339e-11
1.274348e-07
6.7970149e-11
1.2824475e-07
4.9580219e-11
1.2846785e-07
2.6159846e-11
1.2851813e-07
-5.1874204e-14
1.2852597e-07
-2.6270033e-11
1.2852595e-07
-4.9701627e-11
1.2851804e-07
-6.8068889e-11
1.2846768e-07
-7.936632e-11
1.2824453e-07
-8.2307825e-11
1.2743456e-07
-7.6660085e-11
1.2490553e-07
-6.3192593e-11
1.1810026e-07
-4.3487953e-11
1.0259177e-07
-2.0058859e-11
7.3441959e-08
2.9313188e-08
1.4580332e-11
2.9297408e-08
3.1568552e-11
7.3424337e-08
4.5811356e-11
1.0257744e-07
5.5579105e-11
1.180907e-07
5.9661549e-11
1.2490172e-07
5.7534117e-11
1.2743694e-07
4.9377653e-11
1.2825292e-07
3.6021847e-11
1.2848123e-07
1.8926251e-11
1.2853522e-07
-8.7199977e-14
1.2854498e-07
-1.9104295e-11
1.2854495e-07
-3.6199776e-11
1.2853512e-07
-4.9544352e-11
1.2848104e-07
-5.7694392e-11
1.2825268e-07
-5.9778675e-11
1.2743666e-07
-5.5659215e-11
1.2490137e-07
-4.581673e-11
1.1809044e-07
-3.1508057e-11
1.0257747e-07
-1.4514746e-11
7.3424988e-08
2.9298674e-08
1.0524438e-11
2.92869e-08
2.2835742e-11
7.3412014e-08
3.3191126e-11
1.0256708e-07
4.029019e-11
1.180836e-07
4.3275079e-11
1.2489873e-07
4.1748556e-11
1.2743845e-07
3.5853734e-11
1.2825884e-07
2.6162003e-11
1.2849091e-07
1.3722313e-11
1.2854765e-07
-1.328272e-13
1.2855883e-07
-1.3986243e-11
1.2855879e-07
-2.6426381e-11
1.2854753e-07
-3.6084059e-11
1.2849071e-07
-4.1978146e-11
1.2825857e-07
-4.3459724e-11
1.2743811e-07
-4.0453184e-11
1.2489834e-07
-3.3283315e-11
1.1808328e-07
-2.2875577e-11
1.0256704e-07
-1.0530586e-11
7.3412629e-08
2.9288153e-08
7.5458625e-12
2.9279311e-08
1.6492131e-11
7.3403096e-08
2.4027058e-11
1.0255953e-07
2.9198101e-11
1.1807839e-07
3.1365688e-11
1.248965e-07
3.0296842e-11
1.2743952e-07
2.6032553e-11
1.282631e-07
1.897306e-11
1.2849791e-07
9.9283894e-12
1.2855669e-07
-1.6547417e-13
1.2856889e-07
-1.0265797e-11
1.2856885e-07
-1.9304709e-11
1.2855656e-07
-2.6343926e-11
1.2849772e-07
-3.0619909e-11
1.2826282e-07
-3.1673903e-11
1.2743917e-07
-2.9451178e-11
1.248961e-07
-2.4233634e-11
1.1807805e-07
-1.6654823e-11
1.0255945e-07
-7.6419094e-12
7.3403628e-08
2.928048e-08
5.4005343e-12
2.9273883e-08
1.1853612e-11
7.3396599e-08
1.7348042e-11
1.0255401e-07
2.1134846e-11
1.180746e-07
2.2732281e-11
1.2489485e-07
2.1986559e-11
1.2744027e-07
1.8874172e-11
1.2826618e-07
1.3730613e-11
1.28503e-07
7.1451007e-12
1.2856324e-07
-2.1026096e-13
1.2857623e-07
-7.5682573e-12
1.2857622e-07
-1.4149245e-11
1.2856314e-07
-1.9271808e-11
1.2850282e-07
-2.238388e-11
1.2826591e-07
-2.3145648e-11
1.2743993e-07
-2.1516817e-11
1.2489446e-07
-1.7687247e-11
1.1807422e-07
-1.2153203e-11
1.0255386e-07
-5.5571547e-12
7.3397027e-08
2.9274887e-08
3.8240434e-12
2.9270032e-08
8.4991592e-12
7.339189e-08
1.2502789e-11
1.0254997e-07
1.5302075e-11
1.1807177e-07
1.6497036e-11
1.2489363e-07
1.5943386e-11
1.2744078e-07
1.3663834e-11
1.2826838e-07
9.9362247e-12
1.2850671e-07
5.1171788e-12
1.2856802e-07
-2.249478e-13
1.2858158e-07
-5.6180186e-12
1.2858153e-07
-1.0438362e-11
1.285679e-07
-1.4164744e-11
1.2850653e-07
-1.642688e-11
1.2826815e-07
-1.699508e-11
1.2744045e-07
-1.5776879e-11
1.2489324e-07
-1.2977269e-11
1.1807139e-07
-8.9028088e-12
1.0254977e-07
-4.0560304e-12
7.3392161e-08
2.9270815e-08
2.6767157e-12
2.92673e-08
6.0721107e-12
7.3388461e-08
9.0076032e-12
1.0254697e-07
1.1086508e-11
1.1806967e-07
1.1969467e-11
1.2489269e-07
1.1594824e-11
1.2744114e-07
9.9091138e-12
1.2827001e-07
7.1841349e-12
1.2850941e-07
3.6619964e-12
1.2857151e-07
-2.761078e-13
1.2858549e-07
-4.2218545e-12
1.2858544e-07
-7.7489481e-12
1.2857141e-07
-1.0489099e-11
1.2850925e-07
-1.2163824e-11
1.2826978e-07
-1.2554835e-11
1.2744084e-07
-1.1668194e-11
1.2489233e-07
-9.6026105e-12
1.180693e-07
-6.5672395e-12
1.0254672e-07
-2.9765381e-12
7.3388557e-08
2.9267789e-08
1.8752979e-12
2.926541e-08
4.3564547e-12
7.338595e-08
6.5318555e-12
1.0254475e-07
8.0822594e-12
1.180681e-07
8.7565375e-12
1.2489197e-07
8.4682165e-12
1.2744141e-07
7.2160573e-12
1.2827118e-07
5.2049005e-12
1.2851138e-07
2.5940282e-12
1.2857407e-07
-3.0487443e-13
1.2858835e-07
-3.2146743e-12
1.2858833e-07
-5.8339476e-12
1.2857399e-07
-7.8538737e-12
1.2851125e-07
-9.0979667e-12
1.2827098e-07
-9.4000076e-12
1.2744113e-07
-8.7450619e-12
1.2489163e-07
-7.2063964e-12
1.1806768e-07
-4.9265644e-12
1.0254438e-07
-2.2259779e-12
7.3385845e-08
2.9265517e-08
1.3279766e-12
2.9264021e-08
3.1902076e-12
7.338409e-08
4.8251758e-12
1.0254303e-07
6.0014631e-12
1.1806689e-07
6.49842e-12
1.2489146e-07
6.2588013e-12
1.2744161e-07
5.3098676e-12
1.282721e-07
3.7905236e-12
1.2851286e-07
1.8307131e-12
1.2857598e-07
-3.4002661e-13
1.285905e-07
-2.5032022e-12
1.2859046e-07
-4.4739423e-12
1.285759e-07
-6.0007112e-12
1.2851275e-07
-6.9521169e-12
1.2827191e-07
-7.2076351e-12
1.2744134e-07
-6.7342409e-12
1.2489111e-07
-5.552073e-12
1.1806649e-07
-3.7853827e-12
1.0254261e-07
-1.6998396e-12
7.3383749e-08
2.9263826e-08
9.5890966e-13
2.9263039e-08
2.4039657e-12
7.3382599e-08
3.7398753e-12
1.0254169e-07
4.6458456e-12
1.1806595e-07
4.9787165e-12
1.2489107e-07
4.72971e-12
1.274418e-07
3.9735852e-12
1.2827282e-07
2.7844229e-12
1.2851402e-07
1.2900442e-12
1.2857744e-07
-3.6147911e-13
1.2859212e-07
-2.0049212e-12
1.2859207e-07
-3.5092963e-12
1.2857734e-07
-4.7090808e-12
1.285139e-07
-5.4883399e-12
1.2827263e-07
-5.7094746e-12
1.2744156e-07
-5.3688302e-12
1.2489075e-07
-4.4657985e-12
1.1806551e-07
-3.0260836e-12
1.0254116e-07
-1.3347588e-12
7.3382032e-08
2.926246e-08
6.9984501e-13
2.9262309e-08
1.9802686e-12
7.3381295e-08
3.1351254e-12
1.025405e-07
3.8517473e-12
1.180652e-07
4.0529357e-12
1.2489084e-07
3.735398e-12
1.2744205e-07
3.0727959e-12
1.2827349e-07
2.0919924e-12
1.2851498e-07
8.9182771e-13
1.2857859e-07
-3.7979074e-13
1.2859337e-07
-1.6727433e-12
1.2859335e-07
-2.8589078e-12
1.2857853e-07
-3.8415011e-12
1.2851487e-07
-4.5304235e-12
1.282733e-07
-4.7940143e-12
1.2744182e-07
-4.5955408e-12
1.2489053e-07
-3.8523636e-12
1.1806474e-07
-2.5691322e-12
1.0253987e-07
-1.0566368e-12
7.3380478e-08
2.926137e-08
4.8820458e-13
2.9261794e-08
1.7921228e-12
7.3379992e-08
2.925453e-12
1.0253932e-07
3.5257888e-12
1.1806461e-07
3.5462542e-12
1.2489081e-07
3.1171694e-12
1.2744243e-07
2.4471544e-12
1.2827414e-07
1.5694476e-12
1.2851584e-07
6.24885e-13
1.2857956e-07
-4.0669501e-13
1.2859438e-07
-1.4325224e-12
1.2859435e-07
-2.4102041e-12
1.2857948e-07
-3.2599413e-12
1.2851571e-07
-3.9210513e-12
1.2827396e-07
-4.3121503e-12
1.2744218e-07
-4.2563685e-12
1.2489045e-07
-3.6380832e-12
1.1806407e-07
-2.3635909e-12
1.0253859e-07
-8.2734845e-13
7.3378936e-08
2.9260529e-08
3.0023367e-13
2.9261461e-08
1.7279203e-12
7.3378525e-08
3.0097281e-12
1.0253802e-07
3.5218656e-12
1.180641e-07
3.3094056e-12
1.2489101e-07
2.7292879e-12
1.2744302e-07
1.9904269e-12
1.2827489e-07
1.1796026e-12
1.2851662e-07
3.6531451e-13
1.2858036e-07
-4.2993488e-13
1.2859521e-07
-1.2506141e-12
1.2859516e-07
-2.0396061e-12
1.2858029e-07
-2.8609713e-12
1.2851648e-07
-3.5645907e-12
1.2827467e-07
-4.1068701e-12
1.2744272e-07
-4.2689214e-12
1.2489059e-07
-3.7013189e-12
1.180635e-07
-2.2863085e-12
1.0253712e-07
-6.2258814e-13
7.3377243e-08
2.9259921e-08
2.3007421e-13
2.9261224e-08
1.6215658e-12
7.3377118e-08
2.9761291e-12
1.0253666e-07
3.3850602e-12
1.1806368e-07
2.9779888e-12
1.2489139e-07
2.2535993e-12
1.2744375e-07
1.4783157e-12
1.2827564e-07
7.5485703e-13
1.2851732e-07
1.2053567e-13
1.2858098e-07
-4.8419422e-13
1.2859579e-07
-1.0885263e-12
1.2859577e-07
-1.7335128e-12
1.285809e-07
-2.4380708e-12
1.2851717e-07
-3.1831844e-12
1.282754e-07
-3.8453819e-12
1.2744339e-07
-4.1744892e-12
1.248909e-07
-3.6583983e-12
1.1806297e-07
-2.144753e-12
1.0253562e-07
-5.1094427e-13
7.3375601e-08
2.9259405e-08
2.7289901e-13
1.168532e-12
2.0568657e-12
2.271844e-12
1.9168362e-12
1.3231179e-12
7.3972692e-13
2.2589529e-13
-1.7459441e-13
-5.6102135e-13
-9.262064e-13
-1.3367878e-12
-1.8726847e-12
-2.4140658e-12
-2.9354821e-12
-3.1909192e-12
-2.822972e-12
-1.7177269e-12
-5.2637887e-13
)
;

boundaryField
{
    Wall
    {
        type            calculated;
        value           uniform 0;
    }
    frontAndBack
    {
        type            empty;
        value           nonuniform 0();
    }
    atmosphere
    {
        type            calculated;
        value           nonuniform List<scalar> 
20
(
2.9260969e-08
7.3376238e-08
1.0253577e-07
1.1806348e-07
1.2489175e-07
1.2744436e-07
1.2827623e-07
1.2851782e-07
1.2858139e-07
1.2859616e-07
1.2859617e-07
1.2858134e-07
1.2851766e-07
1.2827591e-07
1.2744393e-07
1.2489116e-07
1.1806257e-07
1.0253451e-07
7.3374391e-08
2.9258881e-08
)
;
    }
}


// ************************************************************************* //
