/*--------------------------------*- C++ -*----------------------------------*\
| =========                 |                                                 |
| \\      /  F ield         | OpenFOAM: The Open Source CFD Toolbox           |
|  \\    /   O peration     | Version:  3.0.1                                 |
|   \\  /    A nd           | Web:      www.OpenFOAM.org                      |
|    \\/     M anipulation  |                                                 |
\*---------------------------------------------------------------------------*/
FoamFile
{
    version     2.0;
    format      ascii;
    class       volScalarField;
    location    "11";
    object      Psi2;
}
// * * * * * * * * * * * * * * * * * * * * * * * * * * * * * * * * * * * * * //

dimensions      [0 -2 2 0 0 0 0];

internalField   nonuniform List<scalar> 
800
(
0.0035477221
0.0035478871
0.0035479511
0.0035479833
0.0035480072
0.0035480261
0.0035480406
0.003548051
0.0035480578
0.0035480611
0.0035480611
0.0035480578
0.0035480511
0.0035480406
0.0035480261
0.0035480071
0.0035479833
0.0035479511
0.0035478871
0.0035477221
0.004385191
0.0043724606
0.004370888
0.0043700036
0.0043693237
0.004368807
0.0043684245
0.0043681551
0.0043679838
0.0043679006
0.0043679006
0.0043679839
0.0043681551
0.0043684245
0.004368807
0.0043693237
0.0043700036
0.004370888
0.0043724605
0.0043851911
0.0055087427
0.0054943896
0.0054922481
0.0054911908
0.0054905079
0.0054900284
0.0054896967
0.0054894731
0.0054893346
0.005489268
0.005489268
0.0054893347
0.0054894733
0.0054896969
0.0054900286
0.0054905081
0.0054911911
0.0054922483
0.0054943899
0.0055087431
0.0072435828
0.0072112777
0.0072096485
0.0072091438
0.0072089427
0.0072088841
0.0072088889
0.0072089158
0.0072089408
0.0072089548
0.0072089547
0.0072089407
0.0072089157
0.0072088888
0.0072088839
0.0072089425
0.0072091435
0.0072096482
0.0072112774
0.0072435826
0.0092528549
0.0092181331
0.0092170596
0.0092176644
0.0092185685
0.0092193969
0.009220074
0.009220576
0.0092209001
0.0092210602
0.0092210601
0.0092208997
0.0092205755
0.0092200732
0.0092193959
0.0092185675
0.0092176633
0.0092170584
0.0092181319
0.0092528536
0.010409929
0.010358719
0.010350499
0.010349839
0.010350887
0.010352257
0.010353246
0.01035412
0.010354662
0.010354933
0.010354933
0.010354662
0.010354119
0.010353246
0.010352256
0.010350886
0.010349838
0.010350498
0.010358718
0.010409927
0.010847438
0.01079855
0.010783324
0.010779397
0.010778755
0.010779169
0.010779709
0.010779947
0.010780145
0.010780283
0.010780283
0.010780145
0.010779947
0.010779709
0.010779169
0.010778754
0.010779396
0.010783323
0.010798549
0.010847437
0.010950123
0.010927109
0.010915872
0.010911888
0.010910924
0.010910761
0.010911081
0.010911114
0.01091124
0.010911333
0.010911333
0.010911239
0.010911114
0.010911081
0.010910761
0.010910925
0.010911888
0.010915872
0.010927108
0.010950123
0.010963141
0.010956963
0.010952
0.010949842
0.010949229
0.010949105
0.010949141
0.010949173
0.01094922
0.010949236
0.010949236
0.01094922
0.010949173
0.010949141
0.010949105
0.010949229
0.010949842
0.010952
0.010956963
0.010963141
0.01096419
0.010962906
0.010961252
0.010960397
0.010960101
0.010960041
0.010960039
0.010960051
0.01096006
0.010960065
0.010960065
0.01096006
0.010960051
0.010960039
0.010960041
0.010960101
0.010960397
0.010961253
0.010962906
0.01096419
0.010964257
0.010964013
0.010963543
0.010963254
0.010963144
0.010963119
0.010963115
0.010963119
0.010963121
0.010963122
0.010963122
0.010963121
0.010963119
0.010963115
0.010963119
0.010963144
0.010963254
0.010963543
0.010964013
0.010964257
0.010964261
0.010964216
0.010964095
0.010964008
0.010963973
0.010963964
0.010963962
0.010963963
0.010963963
0.010963964
0.010963964
0.010963963
0.010963963
0.010963962
0.010963964
0.010963973
0.010964008
0.010964095
0.010964216
0.010964261
0.010964261
0.010964253
0.010964224
0.0109642
0.01096419
0.010964187
0.010964186
0.010964187
0.010964187
0.010964187
0.010964187
0.010964187
0.010964187
0.010964186
0.010964187
0.01096419
0.0109642
0.010964224
0.010964253
0.010964261
0.010964261
0.01096426
0.010964253
0.010964247
0.010964244
0.010964243
0.010964243
0.010964243
0.010964243
0.010964243
0.010964243
0.010964243
0.010964243
0.010964243
0.010964243
0.010964244
0.010964247
0.010964253
0.01096426
0.010964261
0.010964261
0.010964261
0.010964259
0.010964258
0.010964257
0.010964257
0.010964257
0.010964257
0.010964257
0.010964257
0.010964257
0.010964257
0.010964257
0.010964257
0.010964257
0.010964257
0.010964258
0.010964259
0.010964261
0.010964261
0.010964261
0.010964261
0.010964261
0.01096426
0.01096426
0.01096426
0.01096426
0.01096426
0.01096426
0.01096426
0.01096426
0.01096426
0.01096426
0.01096426
0.01096426
0.01096426
0.01096426
0.010964261
0.010964261
0.010964261
0.010964261
0.010964261
0.010964261
0.010964261
0.010964261
0.010964261
0.010964261
0.010964261
0.010964261
0.010964261
0.010964261
0.010964261
0.010964261
0.010964261
0.010964261
0.010964261
0.010964261
0.010964261
0.010964261
0.010964261
0.010964261
0.010964261
0.010964261
0.010964261
0.010964261
0.010964261
0.010964261
0.010964261
0.010964261
0.010964261
0.010964261
0.010964261
0.010964261
0.010964261
0.010964261
0.010964261
0.010964261
0.010964261
0.010964261
0.010964261
0.010964261
0.010964261
0.010964261
0.010964261
0.010964261
0.010964261
0.010964261
0.010964261
0.010964261
0.010964261
0.010964261
0.010964261
0.010964261
0.010964261
0.010964261
0.010964261
0.010964261
0.010964261
0.010964261
0.010964261
0.010964261
0.010964261
0.010964261
0.010964261
0.010964261
0.010964261
0.010964261
0.010964261
0.010964261
0.010964261
0.010964261
0.010964261
0.010964261
0.010964261
0.010964261
0.010964261
0.010964261
0.010964261
0.010964261
0.010964261
0.010964261
0.010964261
0.010964261
0.010964261
0.010964261
0.010964261
0.010964261
0.010964261
0.010964261
0.010964261
0.010964261
0.010964261
0.010964261
0.010964261
0.010964261
0.010964261
0.010964261
0.010964261
0.010964261
0.010964261
0.010964261
0.010964261
0.010964261
0.010964261
0.010964261
0.010964261
0.010964261
0.010964261
0.010964261
0.010964261
0.010964261
0.010964261
0.010964261
0.010964261
0.010964261
0.010964261
0.010964261
0.010964261
0.010964261
0.010964261
0.010964261
0.010964261
0.010964261
0.010964261
0.010964261
0.010964261
0.010964261
0.010964261
0.010964261
0.010964261
0.010964261
0.010964261
0.010964261
0.010964261
0.010964261
0.010964261
0.010964261
0.010964261
0.010964261
0.010964261
0.010964261
0.010964261
0.010964261
0.010964261
0.010964261
0.010964261
0.010964261
0.010964261
0.010964261
0.010964261
0.010964261
0.010964261
0.010964261
0.010964261
0.010964261
0.010964261
0.010964261
0.010964261
0.010964261
0.010964261
0.010964261
0.010964261
0.010964261
0.010964261
0.010964261
0.010964261
0.010964261
0.010964261
0.010964261
0.010964261
0.010964261
0.010964261
0.010964261
0.010964261
0.010964261
0.010964261
0.010964261
0.010964261
0.010964261
0.010964261
0.010964261
0.010964261
0.010964261
0.010964261
0.010964261
0.010964261
0.010964261
0.010964261
0.010964261
0.010964261
0.010964261
0.010964261
0.010964261
0.010964261
0.010964261
0.010964261
0.010964261
0.010964261
0.010964261
0.010964261
0.010964261
0.010964261
0.010964261
0.010964261
0.010964261
0.010964261
0.010964261
0.010964261
0.010964261
0.010964261
0.010964261
0.010964261
0.010964261
0.010964261
0.010964261
0.010964261
0.010964261
0.010964261
0.010964261
0.010964261
0.010964261
0.010964261
0.010964261
0.010964261
0.010964261
0.010964261
0.010964261
0.010964261
0.010964261
0.010964261
0.010964261
0.010964261
0.010964261
0.010964261
0.010964261
0.010964261
0.010964261
0.010964261
0.010964261
0.010964261
0.010964261
0.010964261
0.010964261
0.010964261
0.010964261
0.010964261
0.010964261
0.010964261
0.010964261
0.010964261
0.010964261
0.010964261
0.010964261
0.010964261
0.010964261
0.010964261
0.010964261
0.010964261
0.010964261
0.010964261
0.010964261
0.010964261
0.010964261
0.010964261
0.010964261
0.010964261
0.010964261
0.010964261
0.010964261
0.010964261
0.010964261
0.010964261
0.010964261
0.010964261
0.010964261
0.010964261
0.010964261
0.010964261
0.010964261
0.010964261
0.010964261
0.010964261
0.010964261
0.010964261
0.010964261
0.010964261
0.010964261
0.010964261
0.010964261
0.010964261
0.010964261
0.010964261
0.010964261
0.010964261
0.010964261
0.010964261
0.010964261
0.010964261
0.010964261
0.010964261
0.010964261
0.010964261
0.010964261
0.010964261
0.010964261
0.010964261
0.010964261
0.010964261
0.010964261
0.010964261
0.010964261
0.010964261
0.010964261
0.010964261
0.010964261
0.010964261
0.010964261
0.010964261
0.010964261
0.010964261
0.010964261
0.010964261
0.010964261
0.010964261
0.010964261
0.010964261
0.010964261
0.010964261
0.010964261
0.010964261
0.010964261
0.010964261
0.010964261
0.010964261
0.010964261
0.010964261
0.010964261
0.010964261
0.010964261
0.010964261
0.010964261
0.010964261
0.010964261
0.010964261
0.010964261
0.010964261
0.010964261
0.010964261
0.010964261
0.010964261
0.010964261
0.010964261
0.010964261
0.010964261
0.010964261
0.010964261
0.010964261
0.010964261
0.010964261
0.010964261
0.010964261
0.010964261
0.010964261
0.010964261
0.010964261
0.010964261
0.010964261
0.010964261
0.010964261
0.010964261
0.010964261
0.010964261
0.010964261
0.010964261
0.010964261
0.010964261
0.010964261
0.010964261
0.010964261
0.010964261
0.010964261
0.010964261
0.010964261
0.010964261
0.010964261
0.010964261
0.010964261
0.010964261
0.010964261
0.010964261
0.010964261
0.010964261
0.010964261
0.010964261
0.010964261
0.010964261
0.010964261
0.010964261
0.010964261
0.010964261
0.010964261
0.010964261
0.010964261
0.010964261
0.010964261
0.010964261
0.010964261
0.010964261
0.010964261
0.010964261
0.010964261
0.010964261
0.010964261
0.010964261
0.010964261
0.010964261
0.010964261
0.010964261
0.010964261
0.010964261
0.010964261
0.010964261
0.010964261
0.010964261
0.010964261
0.010964261
0.010964261
0.010964261
0.010964261
0.010964261
0.010964261
0.010964261
0.010964261
0.010964261
0.010964261
0.010964261
0.010964261
0.010964261
0.010964261
0.010964261
0.010964261
0.010964261
0.010964261
0.010964261
0.010964261
0.010964261
0.010964261
0.010964261
0.010964261
0.010964261
0.010964261
0.010964261
0.010964261
0.010964261
0.010964261
0.010964261
0.010964261
0.010964261
0.010964261
0.010964261
0.010964261
0.010964261
0.010964261
0.010964261
0.010964261
0.010964261
0.010964261
0.010964261
0.010964261
0.010964261
0.010964261
0.010964261
0.010964261
0.010964261
0.010964261
0.010964261
0.010964261
0.010964261
0.010964261
0.010964261
)
;

boundaryField
{
    Wall
    {
        type            calculated;
        value           nonuniform List<scalar> 
100
(
9.9999998e-21
9.9999998e-21
9.9999998e-21
9.9999999e-21
1e-20
1e-20
1e-20
1e-20
1e-20
1e-20
1e-20
1e-20
1e-20
1e-20
1e-20
1e-20
1e-20
1e-20
1e-20
1e-20
1e-20
1e-20
1e-20
1e-20
1e-20
1e-20
1e-20
1e-20
1e-20
1e-20
1e-20
1e-20
1e-20
1e-20
1e-20
1e-20
1e-20
1e-20
1e-20
1e-20
9.9999998e-21
9.9999998e-21
9.9999998e-21
9.9999999e-21
1e-20
1e-20
1e-20
1e-20
1e-20
1e-20
1e-20
1e-20
1e-20
1e-20
1e-20
1e-20
1e-20
1e-20
1e-20
1e-20
1e-20
1e-20
1e-20
1e-20
1e-20
1e-20
1e-20
1e-20
1e-20
1e-20
1e-20
1e-20
1e-20
1e-20
1e-20
1e-20
1e-20
1e-20
1e-20
1e-20
9.9999998e-21
9.9999998e-21
9.9999998e-21
9.9999998e-21
9.9999998e-21
9.9999998e-21
9.9999998e-21
9.9999998e-21
9.9999998e-21
9.9999998e-21
9.9999998e-21
9.9999998e-21
9.9999998e-21
9.9999998e-21
9.9999998e-21
9.9999998e-21
9.9999998e-21
9.9999998e-21
9.9999998e-21
9.9999998e-21
)
;
    }
    frontAndBack
    {
        type            empty;
    }
    atmosphere
    {
        type            calculated;
        value           uniform 1e-20;
    }
}


// ************************************************************************* //
