/*--------------------------------*- C++ -*----------------------------------*\
| =========                 |                                                 |
| \\      /  F ield         | OpenFOAM: The Open Source CFD Toolbox           |
|  \\    /   O peration     | Version:  3.0.1                                 |
|   \\  /    A nd           | Web:      www.OpenFOAM.org                      |
|    \\/     M anipulation  |                                                 |
\*---------------------------------------------------------------------------*/
FoamFile
{
    version     2.0;
    format      ascii;
    class       volScalarField;
    location    "11";
    object      rho_foam;
}
// * * * * * * * * * * * * * * * * * * * * * * * * * * * * * * * * * * * * * //

dimensions      [1 -3 0 0 0 0 0];

internalField   nonuniform List<scalar> 
800
(
354.77222
354.78872
354.79511
354.79833
354.80072
354.80262
354.80407
354.80511
354.80578
354.80612
354.80612
354.80578
354.80511
354.80407
354.80262
354.80072
354.79833
354.79511
354.78872
354.77222
438.51911
437.24606
437.08881
437.00037
436.93238
436.88071
436.84246
436.81552
436.79839
436.79007
436.79006
436.7984
436.81552
436.84246
436.88071
436.93238
437.00037
437.08881
437.24606
438.51912
550.87427
549.43897
549.22482
549.11909
549.0508
549.00285
548.96968
548.94732
548.93347
548.92681
548.92681
548.93348
548.94733
548.9697
549.00287
549.05082
549.11912
549.22484
549.439
550.87432
724.35829
721.12778
720.96486
720.91439
720.89428
720.88842
720.8889
720.89158
720.89409
720.89548
720.89548
720.89408
720.89157
720.88889
720.8884
720.89426
720.91436
720.96483
721.12775
724.35827
925.28549
921.81332
921.70596
921.76645
921.85686
921.93969
922.0074
922.0576
922.09001
922.10602
922.10601
922.08997
922.05755
922.00732
921.9396
921.85675
921.76633
921.70584
921.81319
925.28536
1040.9929
1035.8719
1035.0499
1034.9839
1035.0887
1035.2257
1035.3246
1035.412
1035.4662
1035.4933
1035.4933
1035.4662
1035.4119
1035.3246
1035.2256
1035.0886
1034.9838
1035.0498
1035.8718
1040.9927
1084.7438
1079.855
1078.3324
1077.9397
1077.8755
1077.9169
1077.9709
1077.9947
1078.0145
1078.0283
1078.0283
1078.0145
1077.9947
1077.9709
1077.9169
1077.8754
1077.9396
1078.3323
1079.8549
1084.7437
1095.0123
1092.7109
1091.5872
1091.1888
1091.0924
1091.0761
1091.1081
1091.1114
1091.124
1091.1333
1091.1333
1091.1239
1091.1114
1091.1081
1091.0761
1091.0925
1091.1888
1091.5872
1092.7109
1095.0123
1096.3141
1095.6963
1095.2
1094.9842
1094.9229
1094.9105
1094.9141
1094.9173
1094.922
1094.9236
1094.9236
1094.922
1094.9173
1094.9141
1094.9105
1094.9229
1094.9842
1095.2
1095.6963
1096.3141
1096.419
1096.2906
1096.1252
1096.0397
1096.0101
1096.0041
1096.0039
1096.0051
1096.006
1096.0065
1096.0065
1096.006
1096.0051
1096.0039
1096.0041
1096.0101
1096.0397
1096.1253
1096.2906
1096.419
1096.4257
1096.4013
1096.3543
1096.3254
1096.3144
1096.3119
1096.3115
1096.3119
1096.3121
1096.3122
1096.3122
1096.3121
1096.3119
1096.3115
1096.3119
1096.3144
1096.3254
1096.3543
1096.4013
1096.4257
1096.4261
1096.4216
1096.4095
1096.4008
1096.3973
1096.3964
1096.3962
1096.3963
1096.3963
1096.3964
1096.3964
1096.3964
1096.3963
1096.3962
1096.3964
1096.3973
1096.4008
1096.4095
1096.4216
1096.4261
1096.4261
1096.4253
1096.4224
1096.42
1096.419
1096.4187
1096.4186
1096.4187
1096.4187
1096.4187
1096.4187
1096.4187
1096.4187
1096.4186
1096.4187
1096.419
1096.42
1096.4224
1096.4253
1096.4261
1096.4261
1096.426
1096.4253
1096.4247
1096.4244
1096.4243
1096.4243
1096.4243
1096.4243
1096.4243
1096.4243
1096.4243
1096.4243
1096.4243
1096.4243
1096.4244
1096.4247
1096.4253
1096.426
1096.4261
1096.4261
1096.4261
1096.4259
1096.4258
1096.4257
1096.4257
1096.4257
1096.4257
1096.4257
1096.4257
1096.4257
1096.4257
1096.4257
1096.4257
1096.4257
1096.4257
1096.4258
1096.4259
1096.4261
1096.4261
1096.4261
1096.4261
1096.4261
1096.426
1096.426
1096.426
1096.426
1096.426
1096.426
1096.426
1096.426
1096.426
1096.426
1096.426
1096.426
1096.426
1096.426
1096.4261
1096.4261
1096.4261
1096.4261
1096.4261
1096.4261
1096.4261
1096.4261
1096.4261
1096.4261
1096.4261
1096.4261
1096.4261
1096.4261
1096.4261
1096.4261
1096.4261
1096.4261
1096.4261
1096.4261
1096.4261
1096.4261
1096.4261
1096.4261
1096.4261
1096.4261
1096.4261
1096.4261
1096.4261
1096.4261
1096.4261
1096.4261
1096.4261
1096.4261
1096.4261
1096.4261
1096.4261
1096.4261
1096.4261
1096.4261
1096.4261
1096.4261
1096.4261
1096.4261
1096.4261
1096.4261
1096.4261
1096.4261
1096.4261
1096.4261
1096.4261
1096.4261
1096.4261
1096.4261
1096.4261
1096.4261
1096.4261
1096.4261
1096.4261
1096.4261
1096.4261
1096.4261
1096.4261
1096.4261
1096.4261
1096.4261
1096.4261
1096.4261
1096.4261
1096.4261
1096.4261
1096.4261
1096.4261
1096.4261
1096.4261
1096.4261
1096.4261
1096.4261
1096.4261
1096.4261
1096.4261
1096.4261
1096.4261
1096.4261
1096.4261
1096.4261
1096.4261
1096.4261
1096.4261
1096.4261
1096.4261
1096.4261
1096.4261
1096.4261
1096.4261
1096.4261
1096.4261
1096.4261
1096.4261
1096.4261
1096.4261
1096.4261
1096.4261
1096.4261
1096.4261
1096.4261
1096.4261
1096.4261
1096.4261
1096.4261
1096.4261
1096.4261
1096.4261
1096.4261
1096.4261
1096.4261
1096.4261
1096.4261
1096.4261
1096.4261
1096.4261
1096.4261
1096.4261
1096.4261
1096.4261
1096.4261
1096.4261
1096.4261
1096.4261
1096.4261
1096.4261
1096.4261
1096.4261
1096.4261
1096.4261
1096.4261
1096.4261
1096.4261
1096.4261
1096.4261
1096.4261
1096.4261
1096.4261
1096.4261
1096.4261
1096.4261
1096.4261
1096.4261
1096.4261
1096.4261
1096.4261
1096.4261
1096.4261
1096.4261
1096.4261
1096.4261
1096.4261
1096.4261
1096.4261
1096.4261
1096.4261
1096.4261
1096.4261
1096.4261
1096.4261
1096.4261
1096.4261
1096.4261
1096.4261
1096.4261
1096.4261
1096.4261
1096.4261
1096.4261
1096.4261
1096.4261
1096.4261
1096.4261
1096.4261
1096.4261
1096.4261
1096.4261
1096.4261
1096.4261
1096.4261
1096.4261
1096.4261
1096.4261
1096.4261
1096.4261
1096.4261
1096.4261
1096.4261
1096.4261
1096.4261
1096.4261
1096.4261
1096.4261
1096.4261
1096.4261
1096.4261
1096.4261
1096.4261
1096.4261
1096.4261
1096.4261
1096.4261
1096.4261
1096.4261
1096.4261
1096.4261
1096.4261
1096.4261
1096.4261
1096.4261
1096.4261
1096.4261
1096.4261
1096.4261
1096.4261
1096.4261
1096.4261
1096.4261
1096.4261
1096.4261
1096.4261
1096.4261
1096.4261
1096.4261
1096.4261
1096.4261
1096.4261
1096.4261
1096.4261
1096.4261
1096.4261
1096.4261
1096.4261
1096.4261
1096.4261
1096.4261
1096.4261
1096.4261
1096.4261
1096.4261
1096.4261
1096.4261
1096.4261
1096.4261
1096.4261
1096.4261
1096.4261
1096.4261
1096.4261
1096.4261
1096.4261
1096.4261
1096.4261
1096.4261
1096.4261
1096.4261
1096.4261
1096.4261
1096.4261
1096.4261
1096.4261
1096.4261
1096.4261
1096.4261
1096.4261
1096.4261
1096.4261
1096.4261
1096.4261
1096.4261
1096.4261
1096.4261
1096.4261
1096.4261
1096.4261
1096.4261
1096.4261
1096.4261
1096.4261
1096.4261
1096.4261
1096.4261
1096.4261
1096.4261
1096.4261
1096.4261
1096.4261
1096.4261
1096.4261
1096.4261
1096.4261
1096.4261
1096.4261
1096.4261
1096.4261
1096.4261
1096.4261
1096.4261
1096.4261
1096.4261
1096.4261
1096.4261
1096.4261
1096.4261
1096.4261
1096.4261
1096.4261
1096.4261
1096.4261
1096.4261
1096.4261
1096.4261
1096.4261
1096.4261
1096.4261
1096.4261
1096.4261
1096.4261
1096.4261
1096.4261
1096.4261
1096.4261
1096.4261
1096.4261
1096.4261
1096.4261
1096.4261
1096.4261
1096.4261
1096.4261
1096.4261
1096.4261
1096.4261
1096.4261
1096.4261
1096.4261
1096.4261
1096.4261
1096.4261
1096.4261
1096.4261
1096.4261
1096.4261
1096.4261
1096.4261
1096.4261
1096.4261
1096.4261
1096.4261
1096.4261
1096.4261
1096.4261
1096.4261
1096.4261
1096.4261
1096.4261
1096.4261
1096.4261
1096.4261
1096.4261
1096.4261
1096.4261
1096.4261
1096.4261
1096.4261
1096.4261
1096.4261
1096.4261
1096.4261
1096.4261
1096.4261
1096.4261
1096.4261
1096.4261
1096.4261
1096.4261
1096.4261
1096.4261
1096.4261
1096.4261
1096.4261
1096.4261
1096.4261
1096.4261
1096.4261
1096.4261
1096.4261
1096.4261
1096.4261
1096.4261
1096.4261
1096.4261
1096.4261
1096.4261
1096.4261
1096.4261
1096.4261
1096.4261
1096.4261
1096.4261
1096.4261
1096.4261
1096.4261
1096.4261
1096.4261
1096.4261
1096.4261
1096.4261
1096.4261
1096.4261
1096.4261
1096.4261
1096.4261
1096.4261
1096.4261
1096.4261
1096.4261
1096.4261
1096.4261
1096.4261
1096.4261
1096.4261
1096.4261
1096.4261
1096.4261
1096.4261
1096.4261
1096.4261
1096.4261
1096.4261
1096.4261
1096.4261
1096.4261
1096.4261
1096.4261
1096.4261
1096.4261
1096.4261
1096.4261
1096.4261
1096.4261
1096.4261
1096.4261
1096.4261
1096.4261
1096.4261
1096.4261
1096.4261
1096.4261
1096.4261
1096.4261
1096.4261
1096.4261
1096.4261
1096.4261
1096.4261
1096.4261
1096.4261
1096.4261
1096.4261
1096.4261
1096.4261
1096.4261
1096.4261
1096.4261
1096.4261
1096.4261
1096.4261
1096.4261
1096.4261
1096.4261
1096.4261
1096.4261
1096.4261
1096.4261
1096.4261
1096.4261
1096.4261
)
;

boundaryField
{
    Wall
    {
        type            zeroGradient;
    }
    frontAndBack
    {
        type            empty;
    }
    atmosphere
    {
        type            zeroGradient;
    }
}


// ************************************************************************* //
