/*--------------------------------*- C++ -*----------------------------------*\
| =========                 |                                                 |
| \\      /  F ield         | OpenFOAM: The Open Source CFD Toolbox           |
|  \\    /   O peration     | Version:  3.0.1                                 |
|   \\  /    A nd           | Web:      www.OpenFOAM.org                      |
|    \\/     M anipulation  |                                                 |
\*---------------------------------------------------------------------------*/
FoamFile
{
    version     2.0;
    format      ascii;
    class       volScalarField;
    location    "11";
    object      thermalDiffusivity;
}
// * * * * * * * * * * * * * * * * * * * * * * * * * * * * * * * * * * * * * //

dimensions      [0 2 -1 0 0 0 0];

internalField   nonuniform List<scalar> 
800
(
8.2348773e-08
8.2348736e-08
8.2348722e-08
8.2348715e-08
8.2348709e-08
8.2348705e-08
8.2348702e-08
8.23487e-08
8.2348698e-08
8.2348697e-08
8.2348697e-08
8.2348698e-08
8.23487e-08
8.2348702e-08
8.2348705e-08
8.2348709e-08
8.2348715e-08
8.2348722e-08
8.2348736e-08
8.2348773e-08
8.2987161e-08
8.296786e-08
8.296548e-08
8.296409e-08
8.2963031e-08
8.296225e-08
8.2961659e-08
8.2961248e-08
8.2960999e-08
8.2960915e-08
8.2960879e-08
8.2961007e-08
8.2961253e-08
8.2961659e-08
8.2962246e-08
8.2963033e-08
8.2964079e-08
8.2965448e-08
8.2967865e-08
8.2987159e-08
1.8841072e-06
1.810963e-06
1.8096539e-06
1.8127239e-06
1.8155171e-06
1.8178305e-06
1.819613e-06
1.8209085e-06
1.821748e-06
1.8221599e-06
1.8221595e-06
1.821747e-06
1.8209068e-06
1.8196107e-06
1.8178277e-06
1.815514e-06
1.8127202e-06
1.8096503e-06
1.8109591e-06
1.884103e-06
4.0668295e-05
3.7635653e-05
3.7408859e-05
3.7471292e-05
3.7568437e-05
3.7655109e-05
3.7722407e-05
3.7770991e-05
3.7802111e-05
3.7817354e-05
3.7817344e-05
3.780208e-05
3.7770941e-05
3.772234e-05
3.7655025e-05
3.7568345e-05
3.7471186e-05
3.7408755e-05
3.7635543e-05
4.0668149e-05
0.0002327695
0.00023276904
0.00023277229
0.00023277736
0.00023278289
0.00023278809
0.00023279253
0.00023279596
0.00023279828
0.00023279945
0.00023279945
0.00023279828
0.00023279596
0.00023279253
0.00023278809
0.00023278289
0.00023277736
0.00023277229
0.00023276904
0.0002327695
0.00023213406
0.00023213618
0.0002321404
0.00023214579
0.00023215143
0.00023215668
0.00023216114
0.00023216459
0.00023216692
0.0002321681
0.0002321681
0.00023216692
0.00023216459
0.00023216114
0.00023215668
0.00023215143
0.00023214579
0.00023214039
0.00023213618
0.00023213406
0.00023155327
0.00023155757
0.00023156342
0.0002315698
0.00023157599
0.00023158154
0.00023158616
0.00023158971
0.00023159209
0.00023159328
0.00023159328
0.00023159209
0.00023158971
0.00023158616
0.00023158154
0.00023157599
0.00023156979
0.00023156342
0.00023155757
0.00023155327
0.00023102739
0.00023103422
0.00023104237
0.0002310503
0.0002310574
0.00023106346
0.00023106829
0.00023107199
0.00023107443
0.00023107563
0.00023107563
0.00023107443
0.00023107199
0.00023106829
0.00023106346
0.0002310574
0.0002310503
0.00023104237
0.00023103422
0.00023102739
0.0002305572
0.00023056565
0.00023057583
0.00023058534
0.00023059345
0.00023060009
0.00023060528
0.00023060913
0.00023061165
0.0002306129
0.0002306129
0.00023061165
0.00023060913
0.00023060528
0.00023060009
0.00023059345
0.00023058534
0.00023057583
0.00023056564
0.0002305572
0.00023014052
0.00023014963
0.00023016101
0.00023017166
0.00023018064
0.0002301878
0.00023019333
0.00023019733
0.00023019995
0.00023020125
0.00023020125
0.00023019995
0.00023019733
0.00023019332
0.0002301878
0.00023018064
0.00023017166
0.00023016101
0.00023014963
0.00023014052
0.00022977318
0.00022978231
0.00022979409
0.0002298053
0.00022981477
0.00022982228
0.00022982802
0.00022983216
0.00022983484
0.00022983617
0.00022983617
0.00022983484
0.00022983216
0.00022982802
0.00022982228
0.00022981477
0.0002298053
0.00022979409
0.00022978231
0.00022977318
0.00022945029
0.00022945904
0.00022947063
0.00022948186
0.00022949143
0.00022949903
0.00022950484
0.00022950901
0.00022951171
0.00022951304
0.00022951304
0.00022951171
0.00022950901
0.00022950484
0.00022949903
0.00022949142
0.00022948186
0.00022947063
0.00022945904
0.00022945029
0.00022916689
0.00022917504
0.00022918606
0.0002291969
0.00022920622
0.0002292137
0.00022921942
0.00022922352
0.00022922617
0.00022922748
0.00022922748
0.00022922617
0.00022922352
0.00022921941
0.0002292137
0.00022920622
0.0002291969
0.00022918606
0.00022917504
0.00022916689
0.00022891835
0.00022892581
0.00022893604
0.00022894622
0.00022895507
0.00022896222
0.00022896771
0.00022897166
0.00022897422
0.00022897547
0.00022897547
0.00022897422
0.00022897166
0.00022896771
0.00022896222
0.00022895507
0.00022894622
0.00022893604
0.00022892581
0.00022891835
0.00022870057
0.0002287073
0.00022871663
0.00022872601
0.00022873423
0.00022874093
0.00022874609
0.00022874982
0.00022875224
0.00022875342
0.00022875342
0.00022875223
0.00022874982
0.00022874609
0.00022874093
0.00022873423
0.00022872601
0.00022871663
0.0002287073
0.00022870057
0.00022850993
0.00022851595
0.00022852436
0.00022853287
0.00022854039
0.00022854655
0.00022855132
0.00022855478
0.00022855703
0.00022855814
0.00022855814
0.00022855703
0.00022855478
0.00022855132
0.00022854655
0.00022854039
0.00022853287
0.00022852436
0.00022851595
0.00022850993
0.00022834332
0.00022834866
0.00022835617
0.00022836381
0.00022837059
0.00022837619
0.00022838053
0.0002283837
0.00022838577
0.00022838678
0.00022838678
0.00022838577
0.0002283837
0.00022838053
0.00022837618
0.00022837059
0.00022836381
0.00022835617
0.00022834866
0.00022834332
0.000228198
0.00022820272
0.00022820936
0.00022821616
0.00022822222
0.00022822724
0.00022823116
0.00022823403
0.0002282359
0.00022823682
0.00022823682
0.0002282359
0.00022823403
0.00022823116
0.00022822724
0.00022822222
0.00022821616
0.00022820936
0.00022820272
0.000228198
0.00022807157
0.00022807571
0.00022808156
0.00022808756
0.00022809293
0.0002280974
0.00022810089
0.00022810346
0.00022810513
0.00022810596
0.00022810596
0.00022810513
0.00022810346
0.00022810089
0.0002280974
0.00022809293
0.00022808756
0.00022808155
0.00022807571
0.00022807157
0.00022796188
0.00022796549
0.00022797061
0.00022797587
0.0002279806
0.00022798454
0.00022798764
0.00022798991
0.0002279914
0.00022799214
0.00022799214
0.0002279914
0.00022798991
0.00022798764
0.00022798454
0.0002279806
0.00022797587
0.00022797061
0.00022796549
0.00022796188
0.00022786699
0.00022787012
0.00022787458
0.00022787918
0.00022788332
0.00022788677
0.00022788949
0.00022789149
0.00022789281
0.00022789346
0.00022789346
0.00022789281
0.00022789149
0.00022788949
0.00022788677
0.00022788332
0.00022787918
0.00022787458
0.00022787012
0.00022786699
0.00022778515
0.00022778787
0.00022779173
0.00022779572
0.00022779932
0.00022780234
0.00022780471
0.00022780646
0.00022780761
0.00022780818
0.00022780818
0.00022780761
0.00022780646
0.00022780471
0.00022780233
0.00022779932
0.00022779572
0.00022779173
0.00022778787
0.00022778515
0.00022771479
0.00022771713
0.00022772047
0.00022772392
0.00022772704
0.00022772965
0.00022773171
0.00022773323
0.00022773423
0.00022773473
0.00022773473
0.00022773423
0.00022773323
0.00022773171
0.00022772965
0.00022772703
0.00022772392
0.00022772047
0.00022771713
0.00022771479
0.00022765446
0.00022765648
0.00022765935
0.00022766232
0.00022766501
0.00022766726
0.00022766904
0.00022767036
0.00022767123
0.00022767166
0.00022767166
0.00022767123
0.00022767036
0.00022766904
0.00022766726
0.00022766501
0.00022766232
0.00022765935
0.00022765648
0.00022765446
0.0002276029
0.00022760462
0.00022760708
0.00022760963
0.00022761194
0.00022761388
0.00022761541
0.00022761655
0.00022761729
0.00022761767
0.00022761767
0.00022761729
0.00022761655
0.00022761541
0.00022761388
0.00022761194
0.00022760963
0.00022760708
0.00022760462
0.0002276029
0.00022755893
0.00022756041
0.00022756251
0.00022756469
0.00022756666
0.00022756832
0.00022756964
0.00022757061
0.00022757125
0.00022757157
0.00022757157
0.00022757125
0.00022757061
0.00022756964
0.00022756832
0.00022756666
0.00022756469
0.00022756251
0.00022756041
0.00022755893
0.00022752155
0.00022752281
0.0002275246
0.00022752646
0.00022752814
0.00022752956
0.00022753068
0.00022753152
0.00022753206
0.00022753234
0.00022753234
0.00022753206
0.00022753151
0.00022753068
0.00022752956
0.00022752814
0.00022752646
0.0002275246
0.00022752281
0.00022752155
0.00022748986
0.00022749092
0.00022749244
0.00022749402
0.00022749546
0.00022749666
0.00022749762
0.00022749833
0.00022749879
0.00022749903
0.00022749903
0.00022749879
0.00022749833
0.00022749762
0.00022749666
0.00022749546
0.00022749402
0.00022749244
0.00022749092
0.00022748986
0.00022746305
0.00022746396
0.00022746524
0.00022746658
0.0002274678
0.00022746882
0.00022746963
0.00022747023
0.00022747063
0.00022747083
0.00022747083
0.00022747063
0.00022747023
0.00022746963
0.00022746882
0.0002274678
0.00022746658
0.00022746524
0.00022746396
0.00022746305
0.00022744046
0.00022744122
0.00022744231
0.00022744344
0.00022744447
0.00022744533
0.00022744602
0.00022744653
0.00022744686
0.00022744703
0.00022744703
0.00022744686
0.00022744653
0.00022744602
0.00022744533
0.00022744447
0.00022744344
0.00022744231
0.00022744122
0.00022744046
0.00022742148
0.00022742212
0.00022742304
0.00022742399
0.00022742486
0.00022742558
0.00022742616
0.00022742659
0.00022742688
0.00022742702
0.00022742702
0.00022742688
0.00022742659
0.00022742616
0.00022742558
0.00022742486
0.00022742399
0.00022742304
0.00022742212
0.00022742148
0.00022740562
0.00022740616
0.00022740692
0.00022740772
0.00022740845
0.00022740906
0.00022740955
0.00022740991
0.00022741015
0.00022741027
0.00022741027
0.00022741015
0.00022740991
0.00022740955
0.00022740906
0.00022740845
0.00022740772
0.00022740692
0.00022740615
0.00022740562
0.00022739244
0.00022739288
0.00022739352
0.00022739419
0.0002273948
0.00022739531
0.00022739572
0.00022739602
0.00022739622
0.00022739632
0.00022739632
0.00022739622
0.00022739602
0.00022739572
0.00022739531
0.0002273948
0.00022739419
0.00022739352
0.00022739288
0.00022739244
0.00022738158
0.00022738195
0.00022738248
0.00022738303
0.00022738354
0.00022738397
0.00022738431
0.00022738456
0.00022738473
0.00022738482
0.00022738482
0.00022738473
0.00022738456
0.00022738431
0.00022738397
0.00022738354
0.00022738303
0.00022738248
0.00022738195
0.00022738158
0.00022737275
0.00022737305
0.00022737349
0.00022737395
0.00022737437
0.00022737472
0.00022737501
0.00022737522
0.00022737536
0.00022737543
0.00022737543
0.00022737536
0.00022737522
0.00022737501
0.00022737472
0.00022737437
0.00022737395
0.00022737349
0.00022737305
0.00022737275
0.00022736571
0.00022736595
0.00022736631
0.00022736668
0.00022736703
0.00022736733
0.00022736756
0.00022736774
0.00022736786
0.00022736792
0.00022736792
0.00022736786
0.00022736774
0.00022736756
0.00022736733
0.00022736703
0.00022736668
0.00022736631
0.00022736595
0.00022736571
0.00022736026
0.00022736046
0.00022736075
0.00022736106
0.00022736134
0.00022736159
0.00022736179
0.00022736194
0.00022736204
0.00022736209
0.00022736209
0.00022736204
0.00022736193
0.00022736179
0.00022736159
0.00022736134
0.00022736106
0.00022736075
0.00022736046
0.00022736026
0.00022735628
0.00022735644
0.00022735667
0.00022735692
0.00022735716
0.00022735736
0.00022735753
0.00022735766
0.00022735775
0.00022735779
0.00022735779
0.00022735775
0.00022735766
0.00022735753
0.00022735736
0.00022735716
0.00022735692
0.00022735667
0.00022735644
0.00022735628
0.00022735366
0.00022735379
0.00022735398
0.00022735418
0.00022735439
0.00022735457
0.00022735471
0.00022735483
0.0002273549
0.00022735494
0.00022735494
0.0002273549
0.00022735483
0.00022735471
0.00022735457
0.00022735439
0.00022735418
0.00022735398
0.00022735379
0.00022735366
0.00022735236
0.00022735247
0.00022735263
0.00022735281
0.00022735299
0.00022735316
0.0002273533
0.0002273534
0.00022735347
0.00022735351
0.00022735351
0.00022735347
0.0002273534
0.0002273533
0.00022735316
0.00022735299
0.00022735281
0.00022735263
0.00022735247
0.00022735236
)
;

boundaryField
{
    Wall
    {
        type            calculated;
        value           uniform 4e-05;
    }
    frontAndBack
    {
        type            empty;
    }
    atmosphere
    {
        type            calculated;
        value           uniform 4e-05;
    }
}


// ************************************************************************* //
