/*--------------------------------*- C++ -*----------------------------------*\
| =========                 |                                                 |
| \\      /  F ield         | OpenFOAM: The Open Source CFD Toolbox           |
|  \\    /   O peration     | Version:  3.0.1                                 |
|   \\  /    A nd           | Web:      www.OpenFOAM.org                      |
|    \\/     M anipulation  |                                                 |
\*---------------------------------------------------------------------------*/
FoamFile
{
    version     2.0;
    format      ascii;
    class       volScalarField;
    location    "11";
    object      TS;
}
// * * * * * * * * * * * * * * * * * * * * * * * * * * * * * * * * * * * * * //

dimensions      [0 0 0 1 0 0 0];

internalField   nonuniform List<scalar> 
800
(
313.75983
313.76019
313.76017
313.76016
313.76015
313.76014
313.76013
313.76012
313.76012
313.76011
313.76011
313.76012
313.76012
313.76013
313.76014
313.76015
313.76016
313.76017
313.76019
313.75983
307.68514
307.75332
307.76243
307.76532
307.76752
307.76923
307.77055
307.77151
307.77212
307.77242
307.77242
307.77212
307.77151
307.77055
307.76923
307.76752
307.76533
307.76243
307.75332
307.68514
303.86573
303.91919
303.93146
303.9356
303.93813
303.94011
303.94169
303.94287
303.94366
303.94405
303.94405
303.94366
303.94287
303.94169
303.94011
303.93813
303.9356
303.93146
303.91919
303.86573
302.38366
302.3836
302.38685
302.3907
302.39453
302.398
302.40089
302.4031
302.40458
302.40532
302.40532
302.40458
302.4031
302.40089
302.398
302.39453
302.3907
302.38685
302.3836
302.38366
301.63295
301.63261
301.63469
301.63796
301.64156
301.64496
301.64787
301.65013
301.65167
301.65244
301.65244
301.65167
301.65013
301.64787
301.64496
301.64156
301.63796
301.63469
301.63261
301.63295
301.21291
301.21427
301.21699
301.22049
301.22416
301.22759
301.23051
301.23278
301.23432
301.2351
301.2351
301.23432
301.23278
301.23051
301.22759
301.22416
301.22049
301.21699
301.21427
301.21291
300.82801
300.83081
300.83461
300.83876
300.84279
300.84642
300.84944
300.85177
300.85334
300.85412
300.85412
300.85334
300.85177
300.84944
300.84642
300.84279
300.83876
300.83461
300.83081
300.82801
300.47863
300.48313
300.48846
300.49363
300.49826
300.50221
300.50537
300.50779
300.50939
300.51019
300.51019
300.50939
300.50779
300.50537
300.50221
300.49826
300.49363
300.48846
300.48313
300.47863
300.16555
300.17114
300.17784
300.18407
300.18937
300.1937
300.19709
300.19961
300.20126
300.20208
300.20208
300.20126
300.19961
300.19709
300.1937
300.18937
300.18407
300.17783
300.17114
300.16555
299.88756
299.89361
299.90113
299.90813
299.91403
299.91871
299.92232
299.92495
299.92666
299.9275
299.9275
299.92666
299.92495
299.92232
299.91871
299.91402
299.90813
299.90113
299.89361
299.88756
299.64212
299.6482
299.65601
299.66341
299.66965
299.67458
299.67835
299.68106
299.68282
299.68369
299.68369
299.68282
299.68106
299.67835
299.67458
299.66965
299.66341
299.65601
299.6482
299.64212
299.42616
299.43199
299.43969
299.44714
299.45346
299.45848
299.46231
299.46505
299.46682
299.4677
299.4677
299.46682
299.46505
299.4623
299.45848
299.45346
299.44713
299.43969
299.43199
299.42616
299.23647
299.24191
299.24925
299.25646
299.26264
299.2676
299.27138
299.27409
299.27585
299.27671
299.27671
299.27585
299.27409
299.27138
299.2676
299.26264
299.25645
299.24925
299.24191
299.23647
299.07005
299.07503
299.08186
299.08865
299.09454
299.09929
299.10294
299.10556
299.10726
299.10809
299.10809
299.10726
299.10556
299.10294
299.09929
299.09454
299.08865
299.08186
299.07503
299.07005
298.92419
298.92869
298.93493
298.94119
298.94668
298.95115
298.95459
298.95707
298.95868
298.95947
298.95947
298.95868
298.95707
298.95459
298.95115
298.94668
298.94119
298.93493
298.92869
298.92419
298.79649
298.80052
298.80615
298.81184
298.81687
298.82099
298.82418
298.82649
298.82799
298.82873
298.82873
298.82799
298.82649
298.82418
298.82099
298.81687
298.81184
298.80615
298.80052
298.79649
298.68486
298.68844
298.69347
298.69859
298.70314
298.70688
298.7098
298.71192
298.7133
298.71398
298.71398
298.7133
298.71192
298.70979
298.70688
298.70313
298.69859
298.69347
298.68844
298.68486
298.58747
298.59063
298.59509
298.59965
298.60372
298.60709
298.60972
298.61164
298.6129
298.61352
298.61352
298.6129
298.61164
298.60972
298.60709
298.60372
298.59965
298.59509
298.59063
298.58747
298.50272
298.50549
298.50942
298.51345
298.51706
298.52006
298.52241
298.52413
298.52526
298.52582
298.52582
298.52526
298.52413
298.52241
298.52006
298.51706
298.51345
298.50941
298.50549
298.50272
298.42915
298.43157
298.43501
298.43855
298.44173
298.44438
298.44647
298.448
298.449
298.4495
298.4495
298.449
298.448
298.44647
298.44438
298.44173
298.43855
298.43501
298.43157
298.42915
298.36548
298.36759
298.37058
298.37368
298.37646
298.37879
298.38062
298.38197
298.38286
298.38329
298.38329
298.38286
298.38197
298.38062
298.37879
298.37646
298.37367
298.37058
298.36759
298.36548
298.31054
298.31237
298.31497
298.31765
298.32008
298.32211
298.32371
298.32489
298.32567
298.32605
298.32605
298.32567
298.32489
298.32371
298.32211
298.32008
298.31765
298.31497
298.31237
298.31054
298.26328
298.26485
298.2671
298.26942
298.27153
298.27329
298.27468
298.27571
298.27639
298.27672
298.27672
298.27638
298.27571
298.27468
298.27329
298.27153
298.26942
298.2671
298.26485
298.26328
298.22274
298.22409
298.22603
298.22803
298.22984
298.23136
298.23257
298.23346
298.23405
298.23434
298.23434
298.23405
298.23346
298.23257
298.23136
298.22984
298.22803
298.22602
298.22409
298.22274
298.18806
298.18922
298.19088
298.1926
298.19416
298.19547
298.19651
298.19727
298.19778
298.19803
298.19803
298.19778
298.19727
298.19651
298.19547
298.19416
298.1926
298.19088
298.18922
298.18806
298.15849
298.15948
298.1609
298.16237
298.1637
298.16482
298.16571
298.16637
298.16681
298.16702
298.16702
298.16681
298.16637
298.16571
298.16482
298.1637
298.16237
298.1609
298.15948
298.15849
298.13333
298.13417
298.13538
298.13664
298.13777
298.13873
298.13949
298.14006
298.14043
298.14061
298.14061
298.14043
298.14006
298.13949
298.13873
298.13777
298.13664
298.13538
298.13417
298.13333
298.11198
298.1127
298.11373
298.1148
298.11576
298.11658
298.11723
298.11771
298.11802
298.11818
298.11818
298.11802
298.11771
298.11723
298.11658
298.11576
298.1148
298.11373
298.1127
298.11198
298.09393
298.09454
298.09541
298.09631
298.09713
298.09783
298.09838
298.09878
298.09905
298.09919
298.09919
298.09905
298.09878
298.09838
298.09782
298.09713
298.09631
298.09541
298.09454
298.09393
298.0787
298.07922
298.07995
298.08072
298.08141
298.082
298.08246
298.08281
298.08304
298.08315
298.08315
298.08304
298.08281
298.08246
298.082
298.08141
298.08072
298.07995
298.07922
298.0787
298.06591
298.06634
298.06696
298.06761
298.06819
298.06869
298.06908
298.06937
298.06956
298.06966
298.06966
298.06956
298.06937
298.06908
298.06868
298.06819
298.06761
298.06696
298.06634
298.06591
298.05521
298.05558
298.05609
298.05663
298.05713
298.05754
298.05787
298.05812
298.05828
298.05836
298.05836
298.05828
298.05812
298.05787
298.05754
298.05713
298.05663
298.05609
298.05558
298.05521
298.04632
298.04663
298.04706
298.04751
298.04792
298.04827
298.04855
298.04875
298.04889
298.04896
298.04896
298.04889
298.04875
298.04855
298.04827
298.04792
298.04751
298.04706
298.04663
298.04632
298.039
298.03925
298.03961
298.03998
298.04033
298.04062
298.04085
298.04102
298.04113
298.04119
298.04119
298.04113
298.04102
298.04085
298.04062
298.04033
298.03998
298.03961
298.03925
298.039
298.03304
298.03325
298.03354
298.03385
298.03414
298.03438
298.03457
298.03471
298.03481
298.03486
298.03486
298.03481
298.03471
298.03457
298.03438
298.03414
298.03385
298.03354
298.03325
298.03304
298.02829
298.02845
298.0287
298.02895
298.02918
298.02938
298.02955
298.02967
298.02975
298.02979
298.02979
298.02975
298.02967
298.02955
298.02938
298.02918
298.02895
298.0287
298.02845
298.02829
298.02461
298.02475
298.02494
298.02515
298.02534
298.02551
298.02564
298.02575
298.02581
298.02585
298.02585
298.02581
298.02575
298.02564
298.02551
298.02534
298.02515
298.02494
298.02475
298.02461
298.02193
298.02203
298.02219
298.02236
298.02252
298.02266
298.02277
298.02286
298.02292
298.02295
298.02295
298.02292
298.02286
298.02277
298.02266
298.02252
298.02236
298.02219
298.02203
298.02193
298.02016
298.02024
298.02037
298.02051
298.02065
298.02077
298.02087
298.02095
298.021
298.02103
298.02103
298.021
298.02095
298.02087
298.02077
298.02065
298.02051
298.02037
298.02024
298.02016
298.01928
298.01935
298.01946
298.01958
298.01971
298.01982
298.01991
298.01998
298.02003
298.02006
298.02006
298.02003
298.01998
298.01991
298.01982
298.01971
298.01958
298.01946
298.01935
298.01928
)
;

boundaryField
{
    Wall
    {
        type            zeroGradient;
    }
    frontAndBack
    {
        type            empty;
    }
    atmosphere
    {
        type            zeroGradient;
    }
}


// ************************************************************************* //
