/*--------------------------------*- C++ -*----------------------------------*\
| =========                 |                                                 |
| \\      /  F ield         | OpenFOAM: The Open Source CFD Toolbox           |
|  \\    /   O peration     | Version:  3.0.1                                 |
|   \\  /    A nd           | Web:      www.OpenFOAM.org                      |
|    \\/     M anipulation  |                                                 |
\*---------------------------------------------------------------------------*/
FoamFile
{
    version     2.0;
    format      ascii;
    class       volVectorField;
    location    "11";
    object      U;
}
// * * * * * * * * * * * * * * * * * * * * * * * * * * * * * * * * * * * * * //

dimensions      [0 1 -1 0 0 0 0];

internalField   nonuniform List<vector> 
800
(
(1.47404e-06 0.00050329457 0)
(2.7285339e-06 0.00050447325 0)
(2.2610524e-06 0.0005052808 0)
(1.9010621e-06 0.0005054082 0)
(1.7261302e-06 0.00050570338 0)
(1.4942705e-06 0.00050598072 0)
(1.2177182e-06 0.0005062131 0)
(9.0057317e-07 0.00050638532 0)
(5.5287788e-07 0.00050649626 0)
(1.8596542e-07 0.0005065511 0)
(-1.8598016e-07 0.00050655109 0)
(-5.528747e-07 0.00050649626 0)
(-9.005355e-07 0.00050638531 0)
(-1.2176497e-06 0.00050621311 0)
(-1.4941733e-06 0.00050598075 0)
(-1.7260225e-06 0.00050570343 0)
(-1.9009574e-06 0.00050540829 0)
(-2.2609313e-06 0.00050528095 0)
(-2.7284577e-06 0.00050447343 0)
(-1.4740255e-06 0.0005032946 0)
(-2.1898224e-06 0.00085440791 0)
(-1.6188281e-06 0.00085745424 0)
(5.1019341e-07 0.00085787179 0)
(7.6911649e-07 0.00085766263 0)
(1.0693491e-06 0.00085757969 0)
(1.0346659e-06 0.00085754795 0)
(8.8903268e-07 0.00085753106 0)
(6.7222788e-07 0.00085751554 0)
(4.1678707e-07 0.00085750232 0)
(1.4094697e-07 0.00085749496 0)
(-1.4092618e-07 0.00085749494 0)
(-4.1675274e-07 0.00085750229 0)
(-6.721713e-07 0.00085751549 0)
(-8.8895336e-07 0.000857531 0)
(-1.0345709e-06 0.00085754789 0)
(-1.0692563e-06 0.00085757963 0)
(-7.6902388e-07 0.00085766256 0)
(-5.1007362e-07 0.00085787172 0)
(1.6189701e-06 0.00085745415 0)
(2.1899218e-06 0.00085440769 0)
(-1.0295298e-06 0.0015176701 0)
(-6.6271778e-07 0.0015243813 0)
(7.58778e-07 0.0015253727 0)
(9.5266891e-07 0.0015259073 0)
(1.1255077e-06 0.0015262549 0)
(1.0385419e-06 0.0015265055 0)
(8.5622028e-07 0.0015266603 0)
(6.2952819e-07 0.0015267445 0)
(3.8384321e-07 0.0015267906 0)
(1.2872419e-07 0.0015268097 0)
(-1.2863454e-07 0.0015268097 0)
(-3.8374031e-07 0.0015267906 0)
(-6.2940523e-07 0.0015267445 0)
(-8.5607266e-07 0.0015266603 0)
(-1.0383815e-06 0.0015265056 0)
(-1.1253737e-06 0.0015262551 0)
(-9.5253968e-07 0.0015259075 0)
(-7.5862981e-07 0.0015253729 0)
(6.6284791e-07 0.0015243815 0)
(1.0296177e-06 0.0015176701 0)
(-1.3853134e-06 0.0018953036 0)
(-7.1800875e-07 0.0019066932 0)
(1.7343198e-06 0.0019085648 0)
(2.1086116e-06 0.0019095004 0)
(2.0303309e-06 0.0019099064 0)
(1.6895644e-06 0.0019100949 0)
(1.2871986e-06 0.0019101539 0)
(8.9882572e-07 0.0019101534 0)
(5.3328076e-07 0.0019101471 0)
(1.7613634e-07 0.0019101381 0)
(-1.7594071e-07 0.0019101381 0)
(-5.330627e-07 0.0019101471 0)
(-8.9857579e-07 0.0019101534 0)
(-1.2868993e-06 0.001910154 0)
(-1.6892379e-06 0.0019100952 0)
(-2.0300683e-06 0.0019099066 0)
(-2.1083641e-06 0.0019095006 0)
(-1.7340378e-06 0.0019085651 0)
(7.1813683e-07 0.0019066936 0)
(1.3853206e-06 0.0018953039 0)
(7.3617562e-06 0.0022035366 0)
(1.1223334e-05 0.0022219843 0)
(7.8240829e-06 0.0022247358 0)
(5.945572e-06 0.0022264597 0)
(4.4663848e-06 0.0022270507 0)
(3.3362309e-06 0.0022272071 0)
(2.3660788e-06 0.0022272124 0)
(1.6184711e-06 0.00222712 0)
(9.6369084e-07 0.002227079 0)
(3.1289146e-07 0.0022270431 0)
(-3.1250786e-07 0.0022270431 0)
(-9.632254e-07 0.0022270791 0)
(-1.6178838e-06 0.0022271201 0)
(-2.3652394e-06 0.0022272125 0)
(-3.3353299e-06 0.0022272074 0)
(-4.4659191e-06 0.0022270511 0)
(-5.9453098e-06 0.0022264601 0)
(-7.8235714e-06 0.0022247363 0)
(-1.1223226e-05 0.0022219847 0)
(-7.3620065e-06 0.0022035371 0)
(9.2282154e-05 0.0022186824 0)
(0.00012957742 0.0022921866 0)
(8.4930057e-05 0.0022936204 0)
(5.8976613e-05 0.0022916292 0)
(4.0550624e-05 0.0022899609 0)
(2.9073952e-05 0.0022875448 0)
(2.0035195e-05 0.0022864547 0)
(1.3321266e-05 0.0022856453 0)
(8.155432e-06 0.0022851519 0)
(2.5598258e-06 0.0022847223 0)
(-2.5608031e-06 0.0022847227 0)
(-8.1555998e-06 0.0022851521 0)
(-1.3319324e-05 0.0022856449 0)
(-2.0031553e-05 0.0022864568 0)
(-2.9069311e-05 0.0022875435 0)
(-4.0549735e-05 0.0022899621 0)
(-5.8977572e-05 0.0022916326 0)
(-8.4928753e-05 0.002293623 0)
(-0.0001295791 0.0022921882 0)
(-9.2284816e-05 0.0022186855 0)
(0.00028902175 0.0018236658 0)
(0.00054257942 0.0022413314 0)
(0.00050321349 0.0022961684 0)
(0.00041568387 0.0022877011 0)
(0.00031955639 0.0022705314 0)
(0.00024014205 0.0022586366 0)
(0.00017464807 0.0022436356 0)
(0.00011962058 0.0022436916 0)
(7.0242922e-05 0.0022395175 0)
(2.204373e-05 0.0022363878 0)
(-2.2064531e-05 0.0022363831 0)
(-7.0263498e-05 0.0022395188 0)
(-0.00011962981 0.0022436854 0)
(-0.00017465402 0.0022436246 0)
(-0.00024013809 0.0022586419 0)
(-0.00031954708 0.0022705236 0)
(-0.00041569012 0.0022877164 0)
(-0.00050321155 0.0022961598 0)
(-0.00054257246 0.0022413298 0)
(-0.00028902477 0.0018236552 0)
(0.00021406921 0.0013455721 0)
(0.00047161796 0.0020416734 0)
(0.00051409496 0.0022742744 0)
(0.00046299115 0.0023362352 0)
(0.00037687418 0.0023274522 0)
(0.00028718614 0.0023107832 0)
(0.0002114648 0.0022839902 0)
(0.00015034421 0.0022749507 0)
(8.5104414e-05 0.0022641851 0)
(2.6217589e-05 0.0022591274 0)
(-2.6232883e-05 0.0022591185 0)
(-8.5122985e-05 0.0022641878 0)
(-0.00015036116 0.0022749284 0)
(-0.00021147833 0.0022839938 0)
(-0.00028720895 0.0023107847 0)
(-0.00037687207 0.0023274449 0)
(-0.00046300227 0.0023362432 0)
(-0.00051409807 0.0022742714 0)
(-0.00047160866 0.002041661 0)
(-0.00021408083 0.0013455636 0)
(0.00012507356 0.0010701406 0)
(0.00031529897 0.0018927836 0)
(0.00039055821 0.0022638506 0)
(0.00037541046 0.0023922494 0)
(0.00032301729 0.0024092369 0)
(0.00025702602 0.0023892283 0)
(0.00019366442 0.0023641653 0)
(0.00014010457 0.0023445108 0)
(7.8726531e-05 0.0023305055 0)
(2.480965e-05 0.0023245083 0)
(-2.4808984e-05 0.002324505 0)
(-7.8738719e-05 0.0023305007 0)
(-0.00014011921 0.0023444965 0)
(-0.00019366963 0.0023641543 0)
(-0.0002570426 0.0023892388 0)
(-0.00032300749 0.0024092267 0)
(-0.00037541509 0.0023922435 0)
(-0.00039056828 0.0022638572 0)
(-0.00031529019 0.0018927703 0)
(-0.0001250717 0.0010701386 0)
(7.1870089e-05 0.00090474606 0)
(0.00020193494 0.00177751 0)
(0.00027401257 0.0022317355 0)
(0.00028030187 0.0024130075 0)
(0.00025490261 0.002461609 0)
(0.0002101626 0.0024444797 0)
(0.00016360743 0.0024234024 0)
(0.00012028084 0.0023995709 0)
(6.8549121e-05 0.002385405 0)
(2.1479363e-05 0.0023787888 0)
(-2.1472654e-05 0.0023787917 0)
(-6.8551288e-05 0.0023853899 0)
(-0.00012028536 0.002399568 0)
(-0.00016358561 0.00242339 0)
(-0.00021017672 0.0024444982 0)
(-0.0002549103 0.0024615911 0)
(-0.00028029068 0.0024129919 0)
(-0.00027401636 0.0022317449 0)
(-0.00020192692 0.0017775048 0)
(-7.1867796e-05 0.00090473876 0)
(4.5312058e-05 0.00079870447 0)
(0.00013230063 0.0016879238 0)
(0.00018792655 0.0021907321 0)
(0.00020515606 0.0024160497 0)
(0.00019383406 0.0024870175 0)
(0.00016427279 0.0024802072 0)
(0.00013348499 0.0024637732 0)
(9.8941156e-05 0.0024415208 0)
(5.7793346e-05 0.0024271644 0)
(1.831559e-05 0.0024212949 0)
(-1.8305735e-05 0.0024212964 0)
(-5.7790942e-05 0.0024271536 0)
(-9.8935305e-05 0.0024415185 0)
(-0.00013345454 0.0024637646 0)
(-0.00016428553 0.0024802013 0)
(-0.00019385186 0.0024870149 0)
(-0.00020512922 0.002416039 0)
(-0.00018792434 0.0021907366 0)
(-0.00013230189 0.0016879208 0)
(-4.5306826e-05 0.00079869775 0)
(2.8535246e-05 0.00073072211 0)
(8.6291341e-05 0.0016220167 0)
(0.00012962691 0.0021560168 0)
(0.00014939126 0.0024110523 0)
(0.00014316022 0.002497681 0)
(0.00012505285 0.002504896 0)
(0.00010625622 0.002492643 0)
(7.8912243e-05 0.002474071 0)
(4.7406453e-05 0.002460695 0)
(1.5511789e-05 0.0024551981 0)
(-1.5501373e-05 0.0024551956 0)
(-4.7399945e-05 0.002460691 0)
(-7.8903463e-05 0.0024740682 0)
(-0.00010622941 0.0024926368 0)
(-0.00012505586 0.0025048751 0)
(-0.00014317009 0.0024976977 0)
(-0.00014937107 0.0024110508 0)
(-0.00012962233 0.0021560135 0)
(-8.6287846e-05 0.0016220218 0)
(-2.8531128e-05 0.00073071609 0)
(1.8736884e-05 0.00068462413 0)
(5.8018183e-05 0.0015761429 0)
(8.9847008e-05 0.0021290262 0)
(0.00010727373 0.0024021476 0)
(0.00010463765 0.0025014608 0)
(9.3922267e-05 0.0025216281 0)
(8.2431629e-05 0.0025135119 0)
(6.1522904e-05 0.0024990314 0)
(3.7664179e-05 0.002487672 0)
(1.2618217e-05 0.0024822965 0)
(-1.2607943e-05 0.0024822944 0)
(-3.7655061e-05 0.0024876695 0)
(-6.1513265e-05 0.002499028 0)
(-8.2415092e-05 0.0025135068 0)
(-9.3910374e-05 0.0025216064 0)
(-0.00010463729 0.0025014777 0)
(-0.00010726797 0.0024021455 0)
(-8.9839095e-05 0.0021290264 0)
(-5.8014369e-05 0.0015761463 0)
(-1.8735592e-05 0.00068461984 0)
(1.2517694e-05 0.00065444029 0)
(3.9180091e-05 0.0015442396 0)
(6.2253465e-05 0.0021079966 0)
(7.6540143e-05 0.0023934717 0)
(7.6137652e-05 0.002502654 0)
(7.0071699e-05 0.0025320036 0)
(6.2619782e-05 0.0025285395 0)
(4.7225728e-05 0.0025178753 0)
(2.9240101e-05 0.0025088337 0)
(9.8773144e-06 0.002504099 0)
(-9.8678577e-06 0.0025040979 0)
(-2.9230893e-05 0.0025088314 0)
(-4.7216371e-05 0.0025178716 0)
(-6.2609726e-05 0.0025285339 0)
(-7.0052912e-05 0.0025319899 0)
(-7.6131039e-05 0.0025026592 0)
(-7.6540542e-05 0.0023934718 0)
(-6.2244988e-05 0.0021080001 0)
(-3.9175891e-05 0.0015442443 0)
(-1.2516712e-05 0.00065444172 0)
(8.4771233e-06 0.00063367422 0)
(2.6869012e-05 0.0015217105 0)
(4.3587339e-05 0.0020925472 0)
(5.4356873e-05 0.002385986 0)
(5.52356e-05 0.0025028002 0)
(5.202091e-05 0.0025382546 0)
(4.6882431e-05 0.0025392683 0)
(3.5778797e-05 0.0025319405 0)
(2.2365589e-05 0.0025249754 0)
(7.5981334e-06 0.0025211598 0)
(-7.5894879e-06 0.0025211591 0)
(-2.2357233e-05 0.0025249735 0)
(-3.5770904e-05 0.0025319367 0)
(-4.6876106e-05 0.0025392627 0)
(-5.2000418e-05 0.002538246 0)
(-5.522632e-05 0.0025027995 0)
(-5.4358722e-05 0.0023859865 0)
(-4.3578658e-05 0.0020925518 0)
(-2.6865531e-05 0.0015217177 0)
(-8.4766287e-06 0.00063367799 0)
(5.8732149e-06 0.00061937299 0)
(1.8652565e-05 0.0015061332 0)
(3.0692404e-05 0.0020811384 0)
(3.8538723e-05 0.0023799298 0)
(4.0038031e-05 0.0025023319 0)
(3.850521e-05 0.0025420869 0)
(3.4735306e-05 0.0025468761 0)
(2.6809359e-05 0.0025423442 0)
(1.6892985e-05 0.0025371671 0)
(5.7640477e-06 0.002534196 0)
(-5.7568729e-06 0.0025341953 0)
(-1.6886128e-05 0.0025371655 0)
(-2.6803363e-05 0.0025423408 0)
(-3.4731039e-05 0.002546872 0)
(-3.8484527e-05 0.0025420818 0)
(-4.0028531e-05 0.0025023317 0)
(-3.854131e-05 0.002379928 0)
(-3.068367e-05 0.0020811415 0)
(-1.8649367e-05 0.0015061415 0)
(-5.8726398e-06 0.00061937946 0)
(4.0899218e-06 0.00060942027 0)
(1.3038368e-05 0.0014951098 0)
(2.1767969e-05 0.0020728631 0)
(2.7271835e-05 0.0023751979 0)
(2.9015829e-05 0.002501694 0)
(2.8509828e-05 0.0025443734 0)
(2.5531818e-05 0.0025522253 0)
(1.9916466e-05 0.0025499739 0)
(1.2632712e-05 0.0025462914 0)
(4.3245881e-06 0.0025440499 0)
(-4.3186394e-06 0.0025440495 0)
(-1.2627078e-05 0.0025462897 0)
(-1.9911326e-05 0.0025499712 0)
(-2.5528793e-05 0.0025522226 0)
(-2.8488795e-05 0.0025443723 0)
(-2.9010103e-05 0.0025016832 0)
(-2.7279461e-05 0.0023752057 0)
(-2.175822e-05 0.0020728632 0)
(-1.3034246e-05 0.001495119 0)
(-4.0891882e-06 0.000609429 0)
(2.8716496e-06 0.0006024168 0)
(9.2367636e-06 0.0014872863 0)
(1.5524463e-05 0.002066858 0)
(1.9288292e-05 0.0023714182 0)
(2.0969731e-05 0.0025012269 0)
(2.1040273e-05 0.002545777 0)
(1.8736749e-05 0.0025559988 0)
(1.4717119e-05 0.0025555395 0)
(9.3788182e-06 0.002553061 0)
(3.2192612e-06 0.0025514223 0)
(-3.2140635e-06 0.0025514219 0)
(-9.3742796e-06 0.0025530594 0)
(-1.4712912e-05 0.0025555371 0)
(-1.8732455e-05 0.002555996 0)
(-2.1031205e-05 0.0025457765 0)
(-2.0958937e-05 0.0025012093 0)
(-1.9290545e-05 0.0023714303 0)
(-1.5525737e-05 0.0020668591 0)
(-9.2297176e-06 0.0014872976 0)
(-2.8707506e-06 0.00060242841 0)
(2.0302854e-06 0.00059748343 0)
(6.6147112e-06 0.0014817635 0)
(1.0988722e-05 0.0020623865 0)
(1.3793189e-05 0.0023686391 0)
(1.528421e-05 0.0025006963 0)
(1.5353954e-05 0.0025467469 0)
(1.371604e-05 0.0025586908 0)
(1.0824154e-05 0.0025595924 0)
(6.9244072e-06 0.0025580544 0)
(2.3822472e-06 0.0025568932 0)
(-2.3782313e-06 0.0025568927 0)
(-6.9208701e-06 0.0025580529 0)
(-1.0820919e-05 0.0025595901 0)
(-1.3712422e-05 0.0025586885 0)
(-1.535095e-05 0.0025467451 0)
(-1.5273041e-05 0.0025006894 0)
(-1.3793035e-05 0.0023686352 0)
(-1.0992175e-05 0.0020623963 0)
(-6.606091e-06 0.0014817742 0)
(-2.0291199e-06 0.00059749728 0)
(1.4862405e-06 0.00059401916 0)
(4.7038843e-06 0.0014778002 0)
(7.7748169e-06 0.0020591366 0)
(9.9479307e-06 0.002366765 0)
(1.1129962e-05 0.0025000119 0)
(1.1173772e-05 0.0025473916 0)
(1.0025453e-05 0.0025606029 0)
(7.9317492e-06 0.0025625367 0)
(5.0894455e-06 0.0025617214 0)
(1.7544174e-06 0.0025609291 0)
(-1.7516109e-06 0.0025609289 0)
(-5.0868839e-06 0.00256172 0)
(-7.9293019e-06 0.0025625348 0)
(-1.0022397e-05 0.0025606007 0)
(-1.1171765e-05 0.0025473901 0)
(-1.1126829e-05 0.0025000115 0)
(-9.9439055e-06 0.0023667583 0)
(-7.7735449e-06 0.0020591468 0)
(-4.7004269e-06 0.0014778104 0)
(-1.4823306e-06 0.00059403171 0)
(1.0466718e-06 0.00059154876 0)
(3.3290306e-06 0.0014749159 0)
(5.5585298e-06 0.0020568508 0)
(7.1829449e-06 0.0023653506 0)
(8.0736132e-06 0.0024994481 0)
(8.1314317e-06 0.0025478288 0)
(7.3225514e-06 0.0025619665 0)
(5.7992925e-06 0.0025646708 0)
(3.727928e-06 0.0025644062 0)
(1.2871427e-06 0.0025638944 0)
(-1.2847699e-06 0.002563894 0)
(-3.7259743e-06 0.002564405 0)
(-5.7975189e-06 0.0025646692 0)
(-7.3200237e-06 0.0025619649 0)
(-8.1293501e-06 0.0025478269 0)
(-8.0719636e-06 0.0024994484 0)
(-7.180207e-06 0.0023653516 0)
(-5.5568476e-06 0.0020568557 0)
(-3.3266718e-06 0.001474928 0)
(-1.0448235e-06 0.00059156029 0)
(7.4166524e-07 0.00058975958 0)
(2.373649e-06 0.001472877 0)
(3.9918238e-06 0.0020551965 0)
(5.1876838e-06 0.0023642675 0)
(5.8479107e-06 0.0024990275 0)
(5.9152375e-06 0.0025481353 0)
(5.3431539e-06 0.0025629396 0)
(4.2324682e-06 0.0025662207 0)
(2.7251012e-06 0.0025663677 0)
(9.4010535e-07 0.0025660682 0)
(-9.3873233e-07 0.0025660675 0)
(-2.7236603e-06 0.0025663667 0)
(-4.2305829e-06 0.0025662186 0)
(-5.3413719e-06 0.002562938 0)
(-5.9137564e-06 0.0025481331 0)
(-5.8464223e-06 0.0024990267 0)
(-5.1857668e-06 0.0023642692 0)
(-3.9900134e-06 0.002055201 0)
(-2.3717342e-06 0.0014728882 0)
(-7.4079065e-07 0.00058977312 0)
(5.3066241e-07 0.00058848163 0)
(1.7020343e-06 0.0014714138 0)
(2.8731537e-06 0.0020539903 0)
(3.7491341e-06 0.0023634646 0)
(4.2369812e-06 0.0024987108 0)
(4.2941674e-06 0.0025483508 0)
(3.8941173e-06 0.0025636394 0)
(3.0919001e-06 0.0025673506 0)
(1.988509e-06 0.0025677949 0)
(6.8514922e-07 0.0025676582 0)
(-6.8424349e-07 0.0025676576 0)
(-1.9881204e-06 0.0025677937 0)
(-3.0909223e-06 0.0025673485 0)
(-3.8927646e-06 0.0025636369 0)
(-4.293205e-06 0.0025483483 0)
(-4.2354547e-06 0.0024987092 0)
(-3.7471375e-06 0.0023634654 0)
(-2.8708827e-06 0.0020539944 0)
(-1.6997238e-06 0.0014714249 0)
(-5.2981935e-07 0.00058849774 0)
(3.8172893e-07 0.00058756556 0)
(1.2250449e-06 0.001470358 0)
(2.0723467e-06 0.0020531131 0)
(2.7116394e-06 0.0023628759 0)
(3.0710581e-06 0.0024984731 0)
(3.114903e-06 0.0025484976 0)
(2.8370452e-06 0.0025641528 0)
(2.2548686e-06 0.0025681622 0)
(1.4465327e-06 0.0025688367 0)
(5.0108222e-07 0.0025688162 0)
(-5.0129393e-07 0.0025688157 0)
(-1.4467997e-06 0.0025688353 0)
(-2.2550681e-06 0.00256816 0)
(-2.836811e-06 0.00256415 0)
(-3.1141279e-06 0.0025484944 0)
(-3.0699354e-06 0.0024984706 0)
(-2.7096568e-06 0.0023628753 0)
(-2.0694495e-06 0.0020531164 0)
(-1.2219674e-06 0.0014703694 0)
(-3.80439e-07 0.00058758399 0)
(2.7512737e-07 0.00058690611 0)
(8.8360321e-07 0.0014695953 0)
(1.4970411e-06 0.0020524765 0)
(1.9623544e-06 0.0023624456 0)
(2.2263144e-06 0.0024982966 0)
(2.2600779e-06 0.002548598 0)
(2.0587591e-06 0.0025645246 0)
(1.6444879e-06 0.0025687509 0)
(1.0568183e-06 0.0025695924 0)
(3.6216698e-07 0.0025696581 0)
(-3.635475e-07 0.0025696575 0)
(-1.0582373e-06 0.0025695908 0)
(-1.645855e-06 0.0025687481 0)
(-2.0595429e-06 0.002564521 0)
(-2.2602486e-06 0.0025485939 0)
(-2.2256816e-06 0.0024982927 0)
(-1.9606011e-06 0.0023624437 0)
(-1.4941562e-06 0.0020524791 0)
(-8.806712e-07 0.0014696072 0)
(-2.7405113e-07 0.00058692664 0)
(1.9895125e-07 0.00058643007 0)
(6.3869777e-07 0.0014690438 0)
(1.0829924e-06 0.0020520151 0)
(1.421307e-06 0.002362132 0)
(1.6141834e-06 0.0024981667 0)
(1.640048e-06 0.0025486687 0)
(1.4945553e-06 0.0025647915 0)
(1.1933562e-06 0.0025691875 0)
(7.6851165e-07 0.0025701421 0)
(2.6448808e-07 0.0025702732 0)
(-2.6668033e-07 0.0025702726 0)
(-7.7090279e-07 0.00257014 0)
(-1.1955989e-06 0.0025691842 0)
(-1.4966155e-06 0.0025647871 0)
(-1.6415894e-06 0.0025486638 0)
(-1.6143961e-06 0.0024981616 0)
(-1.4201308e-06 0.0023621285 0)
(-1.0808667e-06 0.0020520166 0)
(-6.3621619e-07 0.0014690558 0)
(-1.9787493e-07 0.00058645267 0)
(1.4383396e-07 0.00058608576 0)
(4.6204552e-07 0.0014686443 0)
(7.8387014e-07 0.0020516804 0)
(1.029543e-06 0.0023619036 0)
(1.1704161e-06 0.0024980717 0)
(1.1901034e-06 0.0025487194 0)
(1.0854624e-06 0.0025649838 0)
(8.6681432e-07 0.0025695025 0)
(5.5759435e-07 0.0025705476 0)
(1.9114229e-07 0.0025707235 0)
(-1.9478847e-07 0.0025707229 0)
(-5.6127063e-07 0.0025705456 0)
(-8.7030458e-07 0.0025694988 0)
(-1.0887292e-06 0.0025649789 0)
(-1.1928423e-06 0.0025487138 0)
(-1.1722976e-06 0.0024980653 0)
(-1.0303318e-06 0.0023618987 0)
(-7.8335719e-07 0.0020516809 0)
(-4.6073213e-07 0.0014686567 0)
(-1.432802e-07 0.00058611013 0)
(1.0383594e-07 0.00058583697 0)
(3.3392655e-07 0.0014683546 0)
(5.6751803e-07 0.0020514374 0)
(7.4614724e-07 0.0023617376 0)
(8.4869541e-07 0.0024980024 0)
(8.6340609e-07 0.0025487557 0)
(7.879244e-07 0.0025651231 0)
(6.2953987e-07 0.00256973 0)
(4.0475783e-07 0.0025708398 0)
(1.3785249e-07 0.0025710503 0)
(-1.4329882e-07 0.0025710495 0)
(-4.1014562e-07 0.0025708376 0)
(-6.3456182e-07 0.002569726 0)
(-7.925585e-07 0.0025651176 0)
(-8.6753807e-07 0.002548749 0)
(-8.5212505e-07 0.0024979946 0)
(-7.4864148e-07 0.0023617313 0)
(-5.6889377e-07 0.0020514369 0)
(-3.3443191e-07 0.001468367 0)
(-1.0407413e-07 0.00058586216 0)
(7.4395259e-08 0.00058565768 0)
(2.4052649e-07 0.0014681448 0)
(4.1038651e-07 0.0020512606 0)
(5.404275e-07 0.0023616163 0)
(6.1512029e-07 0.0024979511 0)
(6.2618787e-07 0.0025487813 0)
(5.7194032e-07 0.0025652236 0)
(4.5690832e-07 0.0025698947 0)
(2.9335915e-07 0.0025710516 0)
(9.9052345e-08 0.0025712864 0)
(-1.058861e-07 0.0025712855 0)
(-3.001574e-07 0.002571049 0)
(-4.6341962e-07 0.0025698907 0)
(-5.783497e-07 0.0025652179 0)
(-6.3252987e-07 0.002548774 0)
(-6.2070635e-07 0.0024979427 0)
(-5.4502921e-07 0.0023616092 0)
(-4.1420042e-07 0.002051259 0)
(-2.4326948e-07 0.001468156 0)
(-7.5618557e-08 0.00058568191 0)
(5.3192459e-08 0.00058552873 0)
(1.7249366e-07 0.0014679924 0)
(2.9570941e-07 0.0020511315 0)
(3.907596e-07 0.0023615274 0)
(4.4553915e-07 0.0024979128 0)
(4.5415622e-07 0.0025487992 0)
(4.1490501e-07 0.002565296 0)
(3.3103716e-07 0.002570014 0)
(2.119363e-07 0.0025712054 0)
(7.0403229e-08 0.002571458 0)
(-7.8949216e-08 0.0025714574 0)
(-2.2045582e-07 0.002571203 0)
(-3.3929506e-07 0.0025700103 0)
(-4.2293466e-07 0.0025652904 0)
(-4.6231548e-07 0.002548792 0)
(-4.5354206e-07 0.0024979045 0)
(-3.9803269e-07 0.0023615198 0)
(-3.0230063e-07 0.0020511289 0)
(-1.7734501e-07 0.0014680018 0)
(-5.5073929e-08 0.00058555045 0)
(3.7541297e-08 0.00058543678 0)
(1.2302991e-07 0.0014678816 0)
(2.1260302e-07 0.0020510371 0)
(2.8231121e-07 0.0023614619 0)
(3.2300591e-07 0.0024978843 0)
(3.2948382e-07 0.0025488114 0)
(3.0067453e-07 0.002565348 0)
(2.3964088e-07 0.0025701007 0)
(1.5286972e-07 0.0025713171 0)
(4.9704085e-08 0.0025715831 0)
(-5.9292864e-08 0.0025715824 0)
(-1.6297684e-07 0.0025713148 0)
(-2.4976525e-07 0.0025700971 0)
(-3.1060727e-07 0.0025653429 0)
(-3.3940645e-07 0.0025488046 0)
(-3.3283044e-07 0.0024978762 0)
(-2.9194423e-07 0.002361454 0)
(-2.2169957e-07 0.0020510332 0)
(-1.2980446e-07 0.0014678884 0)
(-4.0249658e-08 0.00058545467 0)
(2.6154902e-08 0.00058537157 0)
(8.7120831e-08 0.001467801 0)
(1.5257311e-07 0.0020509674 0)
(2.0404795e-07 0.002361413 0)
(2.342227e-07 0.0024978627 0)
(2.3935804e-07 0.0025488198 0)
(2.1840321e-07 0.0025653856 0)
(1.7361632e-07 0.0025701637 0)
(1.1018088e-07 0.0025713985 0)
(3.4439738e-08 0.0025716742 0)
(-4.5595995e-08 0.0025716733 0)
(-1.2148844e-07 0.0025713962 0)
(-1.8513696e-07 0.0025701602 0)
(-2.300041e-07 0.0025653809 0)
(-2.510515e-07 0.0025488134 0)
(-2.4605078e-07 0.0024978551 0)
(-2.160274e-07 0.0023614053 0)
(-1.6387951e-07 0.0020509626 0)
(-9.5611649e-08 0.0014678046 0)
(-2.9592861e-08 0.0005853843 0)
(1.8169802e-08 0.0005853258 0)
(6.1853189e-08 0.0014677422 0)
(1.1010566e-07 0.0020509156 0)
(1.4837283e-07 0.0023613765 0)
(1.7110278e-07 0.0024978461 0)
(1.7499847e-07 0.0025488257 0)
(1.5931877e-07 0.0025654129 0)
(1.261862e-07 0.0025702095 0)
(7.927779e-08 0.0025714579 0)
(2.3326292e-08 0.0025717408 0)
(-3.5640203e-08 0.0025717401 0)
(-9.1779945e-08 0.0025714561 0)
(-1.3892782e-07 0.0025702066 0)
(-1.7211715e-07 0.0025654085 0)
(-1.8790592e-07 0.0025488199 0)
(-1.8438231e-07 0.002497839 0)
(-1.6204714e-07 0.0023613685 0)
(-1.2302762e-07 0.0020509092 0)
(-7.1696651e-08 0.0014677421 0)
(-2.2164304e-08 0.00058533179 0)
(1.2764984e-08 0.00058529337 0)
(4.4643883e-08 0.001467699 0)
(8.1001057e-08 0.0020508766 0)
(1.0997151e-07 0.0023613489 0)
(1.2703824e-07 0.0024978336 0)
(1.2962663e-07 0.0025488299 0)
(1.1752124e-07 0.0025654332 0)
(9.2468241e-08 0.0025702432 0)
(5.7164863e-08 0.0025715017 0)
(1.5248376e-08 0.0025717899 0)
(-2.8746145e-08 0.0025717894 0)
(-7.0717467e-08 0.0025715001 0)
(-1.0626106e-07 0.0025702409 0)
(-1.3149918e-07 0.0025654294 0)
(-1.438598e-07 0.0025488246 0)
(-1.4172617e-07 0.0024978268 0)
(-1.2491757e-07 0.0023613407 0)
(-9.4741259e-08 0.0020508686 0)
(-5.498079e-08 0.0014676946 0)
(-1.6944566e-08 0.00058529253 0)
(8.9320466e-09 0.00058527002 0)
(3.2963324e-08 0.0014676661 0)
(6.21177e-08 0.0020508464 0)
(8.5227737e-08 0.0023613275 0)
(9.7875668e-08 0.0024978245 0)
(9.8656175e-08 0.0025488336 0)
(8.8393998e-08 0.0025654491 0)
(6.8640072e-08 0.0025702691 0)
(4.1443842e-08 0.0025715348 0)
(9.5426081e-09 0.0025718269 0)
(-2.3861841e-08 0.0025718262 0)
(-5.580996e-08 0.0025715331 0)
(-8.3309071e-08 0.0025702669 0)
(-1.0347764e-07 0.0025654456 0)
(-1.1377767e-07 0.0025488287 0)
(-1.1271091e-07 0.002497818 0)
(-1.000933e-07 0.0023613192 0)
(-7.6123994e-08 0.002050837 0)
(-4.3669487e-08 0.0014676571 0)
(-1.3208003e-08 0.0005852623 0)
(5.8498904e-09 0.00058525343 0)
(2.5671906e-08 0.0014676392 0)
(5.187218e-08 0.0020508219 0)
(7.1241624e-08 0.0023613111 0)
(8.0455347e-08 0.0024978184 0)
(7.9094589e-08 0.0025488378 0)
(6.9061381e-08 0.0025654628 0)
(5.2379886e-08 0.00257029 0)
(3.0316467e-08 0.0025715606 0)
(5.3218443e-09 0.0025718553 0)
(-2.0639225e-08 0.0025718546 0)
(-4.5758098e-08 0.0025715591 0)
(-6.7802712e-08 0.0025702878 0)
(-8.4866463e-08 0.0025654591 0)
(-9.4706159e-08 0.0025488334 0)
(-9.5600748e-08 0.0024978123 0)
(-8.6209921e-08 0.0023613022 0)
(-6.5424853e-08 0.0020508104 0)
(-3.5972285e-08 0.0014676254 0)
(-1.0057346e-08 0.00058523823 0)
(2.231828e-09 0.00058524265 0)
(2.0404866e-08 0.0014676161 0)
(4.8255847e-08 0.0020508009 0)
(6.6162091e-08 0.0023612995 0)
(7.2111439e-08 0.0024978171 0)
(6.7583229e-08 0.0025488451 0)
(5.6272748e-08 0.0025654767 0)
(4.0600399e-08 0.002570309 0)
(2.2227316e-08 0.0025715825 0)
(2.3112733e-09 0.0025718786 0)
(-1.8428884e-08 0.0025718782 0)
(-3.8669164e-08 0.0025715812 0)
(-5.7199673e-08 0.0025703067 0)
(-7.2624613e-08 0.0025654732 0)
(-8.3547844e-08 0.0025488406 0)
(-8.7363525e-08 0.0024978106 0)
(-8.0903053e-08 0.0023612896 0)
(-6.1476038e-08 0.0020507874 0)
(-3.0599992e-08 0.0014675975 0)
(-6.5697509e-09 0.00058522061 0)
(-2.1813578e-09 0.00058523531 0)
(1.5751817e-08 0.0014675932 0)
(4.9190364e-08 0.0020507804 0)
(6.7604467e-08 0.0023612904 0)
(6.9815454e-08 0.0024978187 0)
(6.1105539e-08 0.0025488536 0)
(4.7484402e-08 0.0025654891 0)
(3.1831816e-08 0.0025703235 0)
(1.5534927e-08 0.0025715983 0)
(-5.7653923e-10 0.0025718951 0)
(-1.6777848e-08 0.0025718944 0)
(-3.2963449e-08 0.0025715968 0)
(-4.9212591e-08 0.0025703209 0)
(-6.4732041e-08 0.0025654853 0)
(-7.770784e-08 0.0025488484 0)
(-8.5536675e-08 0.0024978112 0)
(-8.2239088e-08 0.0023612793 0)
(-6.1879606e-08 0.0020507643 0)
(-2.5558908e-08 0.00146757 0)
(-2.0083498e-09 0.00058520732 0)
(-4.1251252e-09 0.0005852591 0)
(1.2836207e-08 0.001467588 0)
(4.8218225e-08 0.0020507768 0)
(6.6393294e-08 0.0023613023 0)
(6.5214321e-08 0.0024978428 0)
(5.2808445e-08 0.0025488828 0)
(3.7310307e-08 0.0025655187 0)
(2.219629e-08 0.0025703522 0)
(8.6462626e-09 0.0025716261 0)
(-3.6488305e-09 0.0025719226 0)
(-1.5643822e-08 0.0025719219 0)
(-2.8108452e-08 0.0025716246 0)
(-4.1685167e-08 0.0025703494 0)
(-5.6410777e-08 0.0025655143 0)
(-7.1047299e-08 0.0025488765 0)
(-8.2053835e-08 0.0024978341 0)
(-8.1264183e-08 0.0023612895 0)
(-6.0386947e-08 0.0020507578 0)
(-2.1597867e-08 0.0014675602 0)
(7.1037252e-10 0.00058522555 0)
(-1.1337342e-09 0.00058521057 0)
(1.0785322e-08 0.0014675169 0)
(3.405336e-08 0.0020507084 0)
(4.561217e-08 0.002361263 0)
(4.3098852e-08 0.0024978287 0)
(3.26228e-08 0.0025488812 0)
(2.0413589e-08 0.0025655187 0)
(9.3319511e-09 0.0025703506 0)
(2.9725489e-10 0.0025716223 0)
(-7.3630425e-09 0.0025719178 0)
(-1.4756084e-08 0.0025719178 0)
(-2.2462076e-08 0.0025716211 0)
(-3.1937152e-08 0.0025703477 0)
(-4.2876991e-08 0.0025655128 0)
(-5.4004793e-08 0.0025488723 0)
(-6.277317e-08 0.0024978171 0)
(-6.266579e-08 0.0023612452 0)
(-4.7325894e-08 0.0020506834 0)
(-1.9410086e-08 0.0014674803 0)
(-1.9011298e-09 0.00058516916 0)
)
;

boundaryField
{
    Wall
    {
        type            fixedValue;
        value           uniform (0 0 0);
    }
    frontAndBack
    {
        type            empty;
    }
    atmosphere
    {
        type            pressureInletOutletVelocity;
        value           nonuniform List<vector> 
20
(
(-1.1337342e-09 0.00058521057 0)
(1.0785322e-08 0.0014675169 0)
(3.405336e-08 0.0020507084 0)
(4.561217e-08 0.002361263 0)
(4.3098852e-08 0.0024978287 0)
(3.26228e-08 0.0025488812 0)
(2.0413589e-08 0.0025655187 0)
(9.3319511e-09 0.0025703506 0)
(2.9725489e-10 0.0025716223 0)
(-7.3630425e-09 0.0025719178 0)
(-1.4756084e-08 0.0025719178 0)
(-2.2462076e-08 0.0025716211 0)
(-3.1937152e-08 0.0025703477 0)
(-4.2876991e-08 0.0025655128 0)
(-5.4004793e-08 0.0025488723 0)
(-6.277317e-08 0.0024978171 0)
(-6.266579e-08 0.0023612452 0)
(-4.7325894e-08 0.0020506834 0)
(-1.9410086e-08 0.0014674803 0)
(-1.9011298e-09 0.00058516916 0)
)
;
    }
}


// ************************************************************************* //
