/*--------------------------------*- C++ -*----------------------------------*\
| =========                 |                                                 |
| \\      /  F ield         | OpenFOAM: The Open Source CFD Toolbox           |
|  \\    /   O peration     | Version:  3.0.1                                 |
|   \\  /    A nd           | Web:      www.OpenFOAM.org                      |
|    \\/     M anipulation  |                                                 |
\*---------------------------------------------------------------------------*/
FoamFile
{
    version     2.0;
    format      ascii;
    class       volScalarField;
    location    "11";
    object      wBA_g;
}
// * * * * * * * * * * * * * * * * * * * * * * * * * * * * * * * * * * * * * //

dimensions      [0 0 0 0 0 0 0];

internalField   nonuniform List<scalar> 
800
(
0.012770053
0.012771121
0.012771227
0.012771275
0.012771311
0.012771335
0.012771353
0.012771364
0.012771372
0.012771375
0.012771375
0.012771372
0.012771364
0.012771353
0.012771335
0.012771311
0.012771275
0.012771227
0.012771121
0.012770053
0.0064968355
0.0066320383
0.0066397929
0.0066427133
0.006645207
0.0066471821
0.0066486844
0.0066497524
0.0066504298
0.0066507596
0.0066507597
0.0066504298
0.0066497524
0.0066486846
0.0066471825
0.0066452075
0.006642714
0.0066397938
0.0066320393
0.0064968359
0.0018597339
0.0018971837
0.0019006957
0.0019024688
0.001903714
0.0019046355
0.0019052949
0.0019057466
0.0019060285
0.0019061644
0.0019061643
0.0019060284
0.0019057464
0.0019052948
0.0019046354
0.0019037138
0.0019024686
0.0019006956
0.0018971835
0.0018597336
0.00067982833
0.00068949654
0.00069071771
0.00069134679
0.0006917529
0.0006920288
0.00069221261
0.00069233194
0.0006924045
0.00069243891
0.0006924389
0.00069240446
0.00069233188
0.00069221254
0.00069202874
0.00069175282
0.00069134671
0.00069071765
0.00068949647
0.00067982819
0.00025302165
0.00025823034
0.00025876452
0.00025885291
0.00025881621
0.00025875332
0.00025869264
0.0002586427
0.00025860973
0.0002585931
0.00025859312
0.00025860976
0.00025864275
0.00025869272
0.00025875342
0.00025881632
0.00025885303
0.00025876465
0.00025823047
0.0002530218
7.4689601e-05
8.1327106e-05
8.2616671e-05
8.2814291e-05
8.2728936e-05
8.2576464e-05
8.2460278e-05
8.2357598e-05
8.2293946e-05
8.2261391e-05
8.2261408e-05
8.2293987e-05
8.2357664e-05
8.2460363e-05
8.2576558e-05
8.2729045e-05
8.2814413e-05
8.2616841e-05
8.1327248e-05
7.468984e-05
1.5265302e-05
2.1183311e-05
2.3093816e-05
2.3605709e-05
2.3694248e-05
2.3645983e-05
2.3582511e-05
2.3554758e-05
2.3528887e-05
2.3511595e-05
2.3511604e-05
2.352888e-05
2.3554743e-05
2.3582539e-05
2.3645972e-05
2.3694274e-05
2.3605815e-05
2.3093875e-05
2.1183375e-05
1.5265473e-05
1.7994846e-06
4.5305578e-06
5.8627287e-06
6.3407274e-06
6.4542793e-06
6.4703791e-06
6.4277178e-06
6.4232825e-06
6.4073586e-06
6.3957161e-06
6.3957034e-06
6.4073633e-06
6.4232553e-06
6.4276965e-06
6.4703774e-06
6.4542531e-06
6.3407502e-06
5.8626886e-06
4.5305782e-06
1.7995346e-06
1.3225349e-07
8.2705473e-07
1.387034e-06
1.6327546e-06
1.7013899e-06
1.7142674e-06
1.7078865e-06
1.7032268e-06
1.6970519e-06
1.6948533e-06
1.6948497e-06
1.6970497e-06
1.7032112e-06
1.7078754e-06
1.7142609e-06
1.701371e-06
1.6327444e-06
1.3870304e-06
8.2704416e-07
1.3226075e-07
7.3437539e-09
1.3874483e-07
3.1211036e-07
4.0335886e-07
4.3466943e-07
4.4051251e-07
4.4025649e-07
4.3844782e-07
4.3720925e-07
4.3652801e-07
4.3652708e-07
4.3720601e-07
4.3844375e-07
4.4025133e-07
4.4050846e-07
4.3466177e-07
4.0335313e-07
3.1210686e-07
1.3874287e-07
7.3441208e-09
3.8187426e-10
2.254834e-08
6.7421516e-08
9.5697996e-08
1.0649624e-07
1.0882459e-07
1.0903596e-07
1.0857812e-07
1.08299e-07
1.0817215e-07
1.0817197e-07
1.0829756e-07
1.0857669e-07
1.0903406e-07
1.0882314e-07
1.0649363e-07
9.569537e-08
6.7420622e-08
2.2547702e-08
3.8187958e-10
2.1634778e-11
3.5904348e-09
1.3970077e-08
2.1693331e-08
2.4824729e-08
2.5602017e-08
2.571049e-08
2.5615456e-08
2.5536361e-08
2.5511651e-08
2.5511518e-08
2.5536008e-08
2.5614983e-08
2.5709866e-08
2.5601331e-08
2.4824057e-08
2.1692664e-08
1.3969687e-08
3.5903384e-09
2.1634262e-11
1.3516243e-12
5.576419e-10
2.7667845e-09
4.6613009e-09
5.4746543e-09
5.7009607e-09
5.7356832e-09
5.7187402e-09
5.7002261e-09
5.6922348e-09
5.692199e-09
5.7001318e-09
5.7185997e-09
5.7355024e-09
5.7007278e-09
5.4745094e-09
4.6611235e-09
2.7666772e-09
5.5761972e-10
1.3515483e-12
8.9393377e-14
8.3823622e-11
5.2108258e-10
9.465767e-10
1.1391742e-09
1.1969001e-09
1.2066093e-09
1.2040182e-09
1.2003022e-09
1.1983403e-09
1.1983315e-09
1.2002777e-09
1.2039804e-09
1.206561e-09
1.1968418e-09
1.1391303e-09
9.4653315e-10
5.2105816e-10
8.3819111e-11
8.9385979e-14
6.0120176e-15
1.210538e-11
9.3054057e-11
1.8146026e-10
2.2350797e-10
2.3666835e-10
2.3911455e-10
2.3880099e-10
2.3813415e-10
2.3774305e-10
2.3774099e-10
2.3812826e-10
2.3879183e-10
2.3910287e-10
2.3665492e-10
2.2349607e-10
1.8145027e-10
9.3048931e-11
1.2104594e-11
6.0114231e-15
4.0000374e-16
1.6717589e-12
1.5744805e-11
3.2848094e-11
4.1364893e-11
4.4106623e-11
4.4662052e-11
4.464095e-11
4.453157e-11
4.4462734e-11
4.4462284e-11
4.4530272e-11
4.4638924e-11
4.4659482e-11
4.4103723e-11
4.136214e-11
3.2845953e-11
1.5743792e-11
1.6716335e-12
3.9995919e-16
2.5922876e-17
2.2030639e-13
2.5250524e-12
5.6212441e-12
7.2297855e-12
7.7592021e-12
7.8738556e-12
7.8765592e-12
7.8600211e-12
7.8489044e-12
7.848814e-12
7.8597591e-12
7.8761496e-12
7.873337e-12
7.7586229e-12
7.2292349e-12
5.620807e-12
2.5248625e-12
2.2028746e-13
2.591968e-17
1.6224171e-18
2.7681293e-14
3.8419591e-13
9.1071244e-13
1.1954823e-12
1.2908285e-12
1.3126509e-12
1.3141271e-12
1.3118145e-12
1.3101391e-12
1.3101224e-12
1.3117658e-12
1.3140509e-12
1.3125543e-12
1.2907215e-12
1.1953691e-12
9.1064248e-13
3.841623e-13
2.7678601e-14
1.6221985e-18
9.7589101e-20
3.3161073e-15
5.5527185e-14
1.3991369e-13
1.8738184e-13
2.0349722e-13
2.0734215e-13
2.0772499e-13
2.0742488e-13
2.0718683e-13
2.0718396e-13
2.0741649e-13
2.0771184e-13
2.073254e-13
2.0347847e-13
1.8736251e-13
1.3990105e-13
5.552174e-14
3.3157484e-15
9.7574908e-20
5.6270482e-21
3.7894549e-16
7.6325529e-15
2.0425303e-14
2.7886253e-14
3.0459192e-14
3.1091946e-14
3.1169954e-14
3.1133779e-14
3.1101672e-14
3.1101212e-14
3.1132431e-14
3.1167839e-14
3.1089238e-14
3.045614e-14
2.7883217e-14
2.0423041e-14
7.6317945e-15
3.7889886e-16
5.6261762e-21
3.1061942e-22
4.1325919e-17
9.9941183e-16
2.8378872e-15
3.9477629e-15
4.3365568e-15
4.434407e-15
4.4482374e-15
4.4442019e-15
4.4400709e-15
4.4400018e-15
4.4439989e-15
4.4479179e-15
4.4339966e-15
4.3360906e-15
3.9473051e-15
2.8375487e-15
9.9929903e-16
4.1320753e-17
3.1057146e-22
1.6409125e-23
4.3059777e-18
1.2484203e-16
3.7584344e-16
5.3256246e-16
5.8828628e-16
6.0257103e-16
6.0479035e-16
6.043775e-16
6.038686e-16
6.0385868e-16
6.0434855e-16
6.0474463e-16
6.0251212e-16
5.88219e-16
5.3249649e-16
3.7579542e-16
1.2482611e-16
4.3053822e-18
1.640629e-23
8.3011614e-25
4.2911952e-19
1.4896955e-17
4.7518288e-17
6.857166e-17
7.6163935e-17
7.8139914e-17
7.8468783e-17
7.8430706e-17
7.8370614e-17
7.8369262e-17
7.8426764e-17
7.8462541e-17
7.8131845e-17
7.6154688e-17
6.8562567e-17
4.7511752e-17
1.489485e-17
4.2905238e-19
8.2995496e-25
4.0234478e-26
4.0941198e-20
1.700223e-18
5.7435665e-18
8.439523e-18
9.4249362e-18
9.6847189e-18
9.7302421e-18
9.7272331e-18
9.7204113e-18
9.720235e-18
9.7267165e-18
9.729423e-18
9.6836556e-18
9.4237152e-18
8.4383208e-18
5.7427097e-18
1.6999588e-18
4.093407e-20
4.0225992e-26
1.8694948e-27
3.7432413e-21
1.8583247e-19
6.6459371e-19
9.9423795e-19
1.116302e-18
1.148846e-18
1.154777e-18
1.1546026e-18
1.1538566e-18
1.1538344e-18
1.1545373e-18
1.1546733e-18
1.1487108e-18
1.1161465e-18
9.9408453e-19
6.6448535e-19
1.8580063e-19
3.742522e-21
1.8690697e-27
8.334278e-29
3.2830989e-22
1.9474238e-20
7.3711228e-20
1.1225911e-19
1.2671385e-19
1.3060631e-19
1.3133805e-19
1.3133698e-19
1.3125835e-19
1.3125563e-19
1.31329e-19
1.3132534e-19
1.3058969e-19
1.2669468e-19
1.1224017e-19
7.369798e-20
1.9470536e-20
3.2824007e-22
8.3322291e-29
3.5680106e-30
2.7651123e-23
1.9589065e-21
7.845634e-21
1.2162809e-20
1.3801673e-20
1.4246954e-20
1.4332825e-20
1.4334559e-20
1.432657e-20
1.432625e-20
1.4333617e-20
1.433132e-20
1.4244982e-20
1.3799391e-20
1.2160553e-20
7.8440706e-21
1.9584911e-21
2.7644591e-23
3.567054e-30
1.4683907e-31
2.2385575e-24
1.8934204e-22
8.0227217e-22
1.265947e-21
1.444095e-21
1.4928911e-21
1.5025052e-21
1.5028667e-21
1.5020824e-21
1.5020462e-21
1.5027598e-21
1.5023339e-21
1.4926659e-21
1.4438336e-21
1.2656882e-21
8.0209463e-22
1.8929725e-22
2.23797e-24
1.4678427e-31
7.1871063e-33
1.7436965e-25
1.7603626e-23
7.889832e-23
1.2671378e-22
1.4530336e-22
1.504331e-22
1.514624e-22
1.5151595e-22
1.5144164e-22
1.5143769e-22
1.515043e-22
1.5144369e-22
1.5040842e-22
1.452746e-22
1.266853e-22
7.8878995e-23
1.7598993e-23
1.7431892e-25
5.8113569e-33
7.3780176e-34
1.3080596e-26
1.5757874e-24
7.4695203e-24
1.2209231e-23
1.4073508e-23
1.4591503e-23
1.4697087e-23
1.4703867e-23
1.4697075e-23
1.4696664e-23
1.4702652e-23
1.4695134e-23
1.4588916e-23
1.4070484e-23
1.2206235e-23
7.4675096e-24
1.5753298e-24
1.3076353e-26
2.2156528e-34
8.2621382e-35
9.45865e-28
1.359349e-25
6.8139522e-25
1.1334785e-24
1.3133523e-24
1.3636542e-24
1.3740494e-24
1.3748251e-24
1.3742267e-24
1.374186e-24
1.3747043e-24
1.3738547e-24
1.3633957e-24
1.313049e-24
1.1331778e-24
6.8119567e-25
1.3589176e-25
9.4551885e-28
8.1421208e-36
7.5606981e-36
6.5985593e-29
1.1310446e-26
5.9946979e-26
1.0147996e-25
1.1819377e-25
1.2289639e-25
1.2388012e-25
1.2396242e-25
1.2391159e-25
1.2390772e-25
1.2395097e-25
1.2386162e-25
1.2287176e-25
1.1816478e-25
1.0145122e-25
5.9928122e-26
1.130657e-26
6.595815e-29
2.8863964e-37
5.8069295e-37
4.4447083e-30
9.084536e-28
5.0904699e-27
8.7690057e-27
1.0266061e-26
1.0689727e-26
1.0779324e-26
1.0787531e-26
1.0783366e-26
1.0783017e-26
1.0786497e-26
1.0777649e-26
1.068749e-26
1.0263422e-26
8.7663887e-27
5.0887731e-27
9.081219e-28
4.4426128e-30
9.8789768e-39
3.9284722e-38
2.8930164e-31
7.0492268e-29
4.1755422e-28
7.3192347e-28
8.6129424e-28
8.9810999e-28
9.0597297e-28
9.067488e-28
9.0641972e-28
9.0638964e-28
9.0665965e-28
9.0582833e-28
8.9791626e-28
8.6106515e-28
7.3169641e-28
4.174087e-28
7.0465199e-29
2.8914854e-31
3.2669642e-40
2.3384076e-39
1.8209377e-32
5.288358e-30
3.3109854e-29
5.9054258e-29
6.9849403e-29
7.2937909e-29
7.3603495e-29
7.3673385e-29
7.3648303e-29
7.3645826e-29
7.3666042e-29
7.3591559e-29
7.2921883e-29
6.983042e-29
5.9035459e-29
3.3097956e-29
5.2862518e-30
1.8198724e-32
1.044662e-41
1.1842651e-40
1.1091293e-33
3.8383989e-31
2.5398038e-30
4.6090974e-30
5.479568e-30
5.7298998e-30
5.7842951e-30
5.7903186e-30
5.7884747e-30
5.7882795e-30
5.7897396e-30
5.7833531e-30
5.7286326e-30
5.4780652e-30
4.6076108e-30
2.5388744e-30
3.8368341e-31
1.1084281e-33
3.232301e-43
4.6656512e-42
6.5418725e-35
2.697263e-32
1.8859737e-31
3.4821994e-31
4.160988e-31
4.3571737e-31
4.4001301e-31
4.4051106e-31
4.4038026e-31
4.4036552e-31
4.4046732e-31
4.3994174e-31
4.3562141e-31
4.1598491e-31
3.4810745e-31
1.8852794e-31
2.6961518e-32
6.5375404e-35
9.6837078e-45
1.4173132e-43
3.7387732e-36
1.8361991e-33
1.3565735e-32
2.5482629e-32
3.0605043e-32
3.2092738e-32
3.2420793e-32
3.2460385e-32
3.245143e-32
3.2450362e-32
3.2457212e-32
3.2415618e-32
3.208577e-32
3.0596766e-32
2.5474473e-32
1.3560766e-32
1.8354437e-33
3.7362806e-36
2.8108491e-46
1.0309541e-44
2.0716909e-37
1.2117239e-34
9.4577711e-34
1.8073986e-33
2.1817368e-33
2.2909692e-33
2.3152143e-33
2.3182454e-33
2.3176537e-33
2.3175791e-33
2.3180242e-33
2.3148531e-33
2.2904826e-33
2.181159e-33
1.8068309e-33
9.4543602e-34
1.2112316e-34
2.0703504e-37
8.9652991e-46
3.5405295e-46
1.113623e-38
7.7557561e-36
6.3947499e-35
1.2431838e-34
1.5082651e-34
1.5859721e-34
1.603325e-34
1.6055631e-34
1.6051855e-34
1.6051356e-34
1.6054146e-34
1.6030823e-34
1.585645e-34
1.5078769e-34
1.2428039e-34
6.3924991e-35
7.7526758e-36
1.1129401e-38
2.8792876e-47
)
;

boundaryField
{
    Wall
    {
        type            zeroGradient;
    }
    frontAndBack
    {
        type            empty;
    }
    atmosphere
    {
        type            zeroGradient;
    }
}


// ************************************************************************* //
