/*--------------------------------*- C++ -*----------------------------------*\
| =========                 |                                                 |
| \\      /  F ield         | OpenFOAM: The Open Source CFD Toolbox           |
|  \\    /   O peration     | Version:  3.0.1                                 |
|   \\  /    A nd           | Web:      www.OpenFOAM.org                      |
|    \\/     M anipulation  |                                                 |
\*---------------------------------------------------------------------------*/
FoamFile
{
    version     2.0;
    format      ascii;
    class       volScalarField;
    location    "11";
    object      wBA_l_0;
}
// * * * * * * * * * * * * * * * * * * * * * * * * * * * * * * * * * * * * * //

dimensions      [0 0 0 0 0 0 0];

internalField   nonuniform List<scalar> 
800
(
0.056493524
0.056493184
0.056493163
0.056493121
0.056493098
0.056493082
0.056493072
0.056493065
0.056493061
0.056493059
0.056493059
0.056493061
0.056493065
0.056493072
0.056493082
0.056493098
0.056493121
0.056493163
0.056493184
0.056493524
0.056399953
0.056395332
0.056394071
0.056393396
0.056392921
0.056392569
0.05639231
0.056392126
0.056392008
0.056391951
0.056391951
0.056392008
0.056392126
0.05639231
0.056392569
0.056392921
0.056393396
0.056394072
0.056395332
0.056399953
0.046375889
0.046420914
0.046425201
0.046425034
0.046424149
0.046423262
0.04642247
0.04642185
0.046421432
0.046421224
0.046421224
0.046421432
0.046421851
0.046422471
0.046423262
0.046424149
0.046425035
0.046425201
0.046420915
0.046375889
0.032410879
0.032544153
0.032545079
0.032538589
0.032532558
0.032527481
0.032523511
0.032520606
0.032518719
0.032517793
0.032517794
0.032518721
0.032520609
0.032523516
0.032527487
0.032532565
0.032538597
0.032545087
0.032544162
0.032410889
0.018477269
0.01896387
0.019008084
0.019001824
0.018988664
0.018976661
0.018967337
0.018960554
0.018956216
0.018954091
0.018954092
0.01895622
0.01896056
0.018967345
0.018976671
0.018988675
0.019001837
0.019008096
0.018963883
0.018477286
0.0075799376
0.0086627366
0.0088906819
0.0089308614
0.0089269653
0.0089138352
0.0089030595
0.0088940462
0.0088883649
0.008885497
0.0088854979
0.0088883672
0.0088940501
0.0089030645
0.0089138404
0.0089269713
0.0089308679
0.0088906902
0.0086627423
0.0075799548
0.0019987238
0.0031496892
0.0035349974
0.003641566
0.0036640089
0.0036619244
0.0036555061
0.0036525183
0.0036497322
0.0036479158
0.003647916
0.0036497297
0.0036525142
0.0036555054
0.003661919
0.0036640062
0.0036415703
0.0035349957
0.003149688
0.00199874
0.00029871126
0.00093728865
0.0012534465
0.001363868
0.0013916714
0.0013969465
0.001391624
0.0013909859
0.0013886879
0.0013870342
0.001387032
0.0013886873
0.0013909801
0.0013916181
0.0013969429
0.001391663
0.0013638654
0.0012534343
0.00093728642
0.00029871687
2.9544737e-05
0.00024133883
0.00040822536
0.0004775955
0.0004972334
0.00050129284
0.0005006492
0.00049976939
0.00049861956
0.0004982386
0.00049823766
0.00049861815
0.00049976509
0.00050064536
0.00050128934
0.00049722719
0.00047759038
0.00040822204
0.00024133392
2.9545658e-05
2.4677172e-06
5.6908e-05
0.00012353249
0.00015602496
0.00016685987
0.00016904387
0.00016917261
0.00016873659
0.00016845043
0.00016828011
0.00016827973
0.00016844912
0.00016873491
0.00016917041
0.00016904176
0.00016685671
0.00015602206
0.00012353021
5.6906756e-05
2.4677395e-06
2.0585786e-07
1.2574627e-05
3.4710292e-05
4.7391101e-05
5.1992688e-05
5.3026003e-05
5.3155452e-05
5.3014231e-05
5.2926814e-05
5.2887867e-05
5.288774e-05
5.2926132e-05
5.3013462e-05
5.3154445e-05
5.3025082e-05
5.1991332e-05
4.7389663e-05
3.4709549e-05
1.2574153e-05
2.0585097e-07
1.7740859e-08
2.5922379e-06
9.0114057e-06
1.3294682e-05
1.4932364e-05
1.5342852e-05
1.540606e-05
1.5368883e-05
1.5334394e-05
1.5324122e-05
1.5324038e-05
1.5334179e-05
1.5368575e-05
1.540566e-05
1.5342397e-05
1.4931915e-05
1.3294229e-05
9.011086e-06
2.5921425e-06
1.7739908e-08
1.5052766e-09
4.9580692e-07
2.1556034e-06
3.4243062e-06
3.9371952e-06
4.0785243e-06
4.1012306e-06
4.0930713e-06
4.0831139e-06
4.078564e-06
4.0785377e-06
4.0830429e-06
4.0929638e-06
4.1010933e-06
4.0783517e-06
3.9370724e-06
3.4241623e-06
2.1555065e-06
4.9578166e-07
1.5051574e-09
1.224005e-10
8.7769318e-08
4.7425058e-07
8.0973307e-07
9.5279947e-07
9.9482676e-07
1.0020743e-06
1.0005922e-06
9.9819706e-07
9.9688291e-07
9.9687528e-07
9.9817553e-07
1.000559e-06
1.002032e-06
9.9477683e-07
9.5275743e-07
8.0969227e-07
4.7422561e-07
8.776375e-08
1.2238845e-10
9.3808126e-12
1.4365577e-08
9.6070514e-08
1.7610357e-07
2.1204781e-07
2.2302435e-07
2.2508945e-07
2.2488874e-07
2.2438419e-07
2.2408201e-07
2.2407998e-07
2.2437835e-07
2.2487968e-07
2.2507795e-07
2.2301123e-07
2.1203553e-07
1.7609307e-07
9.6064669e-08
1.4364523e-08
9.3797762e-12
6.7245565e-13
2.1767998e-09
1.7970797e-08
3.5333871e-08
4.352771e-08
4.6099791e-08
4.6622454e-08
4.6610724e-08
4.6515787e-08
4.645523e-08
4.6454738e-08
4.6514368e-08
4.6608519e-08
4.6619662e-08
4.6096644e-08
4.3524641e-08
3.5331405e-08
1.7969537e-08
2.176619e-09
6.7237404e-13
4.5014519e-14
3.0619618e-10
3.1147792e-09
6.5641729e-09
8.2703343e-09
8.8186053e-09
8.9370273e-09
8.9407233e-09
8.9246221e-09
8.9136898e-09
8.9135832e-09
8.9243129e-09
8.9402411e-09
8.9364171e-09
8.8179228e-09
8.2696735e-09
6.5636337e-09
3.1145272e-09
3.0616748e-10
4.500856e-14
2.8163234e-15
4.010198e-11
5.0199256e-10
1.133151e-09
1.4599299e-09
1.5669709e-09
1.5913283e-09
1.5930582e-09
1.5905842e-09
1.5887778e-09
1.5887569e-09
1.590523e-09
1.5929629e-09
1.5912075e-09
1.5668364e-09
1.4597872e-09
1.1330591e-09
5.0194589e-10
4.0097774e-11
2.8159207e-15
1.6495691e-16
4.904654e-12
7.5477397e-11
1.8238884e-10
2.403003e-10
2.5958298e-10
2.6414832e-10
2.6460751e-10
2.6426108e-10
2.6398489e-10
2.6398112e-10
2.6425008e-10
2.6459029e-10
2.6412638e-10
2.5955831e-10
2.4027495e-10
1.8237135e-10
7.5469595e-11
4.9040864e-12
1.6493167e-16
9.0630095e-18
5.6182416e-13
1.0618979e-11
2.7470068e-11
3.69922e-11
4.0221931e-11
4.1009537e-11
4.1106429e-11
4.106212e-11
4.1022727e-11
4.1022104e-11
4.1060298e-11
4.1103573e-11
4.1005879e-11
4.0217794e-11
3.6988079e-11
2.7466896e-11
1.0617872e-11
5.6175106e-13
9.0615443e-18
4.6795906e-19
6.0418907e-14
1.4022606e-12
3.882344e-12
5.3424249e-12
5.8468195e-12
5.9727148e-12
5.9903946e-12
5.9852306e-12
5.9799582e-12
5.9798627e-12
5.984951e-12
5.9899551e-12
5.9721501e-12
5.8461768e-12
5.3417904e-12
3.8818665e-12
1.4020944e-12
6.0411021e-14
4.6788515e-19
2.2753034e-20
6.1169908e-15
1.7426402e-13
5.162167e-13
7.2582575e-13
7.9951307e-13
8.1825801e-13
8.2114785e-13
8.2060367e-13
8.1993836e-13
8.1992462e-13
8.2056353e-13
8.2108452e-13
8.1817643e-13
7.9941974e-13
7.2573375e-13
5.1614889e-13
1.7424081e-13
6.1161053e-15
2.2748997e-20
1.0442978e-21
5.8439241e-16
2.0428493e-14
6.4733267e-14
9.2995153e-14
1.0309776e-13
1.0570911e-13
1.0614043e-13
1.0608938e-13
1.0601009e-13
1.0600822e-13
1.0608394e-13
1.0613182e-13
1.0569798e-13
1.0308499e-13
9.2982554e-14
6.4724119e-14
2.0425499e-14
5.8429706e-16
1.0440898e-21
4.5323026e-23
5.2789656e-17
2.2638198e-15
7.6726229e-15
1.126135e-14
1.2564974e-14
1.290662e-14
1.2966076e-14
1.2962019e-14
1.2953056e-14
1.2952816e-14
1.2961316e-14
1.2964963e-14
1.2905174e-14
1.2563314e-14
1.1259712e-14
7.671449e-15
2.2634563e-15
5.278013e-17
4.5313251e-23
1.8629576e-24
4.5173458e-18
2.3761954e-16
8.6131001e-16
1.2915309e-15
1.4502632e-15
1.4923761e-15
1.5000058e-15
1.4997703e-15
1.498807e-15
1.4987774e-15
1.4996837e-15
1.4998683e-15
1.4921968e-15
1.4500569e-15
1.2913274e-15
8.6116609e-16
2.375776e-16
4.5164501e-18
1.8625264e-24
7.2637009e-26
3.6683546e-19
2.3667292e-17
9.1743831e-17
1.4054295e-16
1.5882294e-16
1.6372635e-16
1.6464379e-16
1.6464182e-16
1.6454322e-16
1.6453974e-16
1.6463159e-16
1.6462751e-16
1.6370508e-16
1.5879842e-16
1.4051875e-16
9.1726954e-17
2.3662667e-17
3.6675525e-19
7.2618902e-26
2.6905406e-27
2.8315345e-20
2.2406215e-18
9.288183e-18
1.4535865e-17
1.653105e-17
1.7071581e-17
1.7175462e-17
1.7177567e-17
1.7167952e-17
1.716756e-17
1.7176414e-17
1.7173621e-17
1.7069169e-17
1.6528259e-17
1.4533113e-17
9.2862906e-18
2.2401342e-18
2.8308489e-20
2.6898118e-27
9.4814302e-29
2.0806071e-21
2.0193456e-19
8.9514958e-19
1.431123e-18
1.6378971e-18
1.6944276e-18
1.7055409e-18
1.7059682e-18
1.7050722e-18
1.7050302e-18
1.7058442e-18
1.7053424e-18
1.6941668e-18
1.6375945e-18
1.4308246e-18
8.9494735e-19
2.0188567e-19
2.0800489e-21
9.4783623e-29
4.1571083e-30
1.4574079e-22
1.7349661e-20
8.2241634e-20
1.3431959e-19
1.5470172e-19
1.6032112e-19
1.6144746e-19
1.6150784e-19
1.6142811e-19
1.6142381e-19
1.6149516e-19
1.6142712e-19
1.602943e-19
1.546705e-19
1.3428885e-19
8.2221109e-20
1.7345002e-20
1.4569758e-22
3.181677e-30
4.3578209e-31
9.7444352e-24
1.4229115e-21
7.2125858e-21
1.2033762e-20
1.394762e-20
1.4479445e-20
1.4587849e-20
1.4595051e-20
1.4588277e-20
1.4587862e-20
1.4593822e-20
1.4585873e-20
1.4476831e-20
1.394457e-20
1.2030759e-20
7.2106111e-21
1.4224909e-21
9.7412189e-24
1.0186444e-31
4.5385978e-32
6.2264088e-25
1.1153135e-22
6.045352e-22
1.030368e-21
1.2017983e-21
1.2497905e-21
1.2597184e-21
1.2604872e-21
1.2599379e-21
1.2598999e-21
1.2603745e-21
1.2595368e-21
1.2495497e-21
1.2015163e-21
1.0300905e-21
6.0435554e-22
1.1149541e-22
6.2240846e-25
3.114071e-33
3.6669637e-33
3.8063258e-26
8.3644048e-24
4.84811e-23
8.4411553e-23
9.9078614e-23
1.0321376e-22
1.0408046e-22
1.0415587e-22
1.0411332e-22
1.0411003e-22
1.0414609e-22
1.0406468e-22
1.0319276e-22
9.9053961e-23
8.4387325e-23
4.8465655e-23
8.3615014e-24
3.8047012e-26
9.0998806e-35
2.4352624e-34
2.2284782e-27
6.0081962e-25
3.7238927e-24
6.6234495e-24
7.8234737e-24
8.1640943e-24
8.2363311e-24
8.2432246e-24
8.2400762e-24
8.2398056e-24
8.242423e-24
8.2350336e-24
8.1623625e-24
7.8214368e-24
6.6214493e-24
3.7226379e-24
6.0059781e-25
2.22739e-27
2.5443379e-36
1.4106762e-35
1.2507203e-28
4.1375599e-26
2.7423141e-25
4.9826598e-25
5.9226086e-25
6.1911462e-25
6.2487074e-25
6.2546314e-25
6.2524052e-25
6.2521947e-25
6.254008e-25
6.2476967e-25
6.1897944e-25
5.9210151e-25
4.9810983e-25
2.7413498e-25
4.1359567e-26
1.2500265e-28
6.8131462e-38
7.1275367e-37
6.7351565e-30
2.7341788e-27
1.9378707e-26
3.5968772e-26
4.3024217e-26
4.5052611e-26
4.5491651e-26
4.5539787e-26
4.5524741e-26
4.5523192e-26
4.5535192e-26
4.5484186e-26
4.5042599e-26
4.3012406e-26
3.5957222e-26
1.9371691e-26
2.7330812e-27
6.7309695e-30
1.7487591e-39
3.0373696e-38
3.4828059e-31
1.735228e-28
1.3151816e-27
2.4936951e-27
3.0016889e-27
3.1486249e-27
3.1807157e-27
3.1844287e-27
3.1834576e-27
3.1833491e-27
3.1841067e-27
3.180192e-27
3.1479216e-27
3.000858e-27
2.4928845e-27
1.3146974e-27
1.7345159e-28
3.4804333e-31
4.3059836e-41
1.0025035e-39
1.7307612e-32
1.0584571e-29
8.5790867e-29
1.6617126e-28
2.0128567e-28
2.1150268e-28
2.1375266e-28
2.1402541e-28
2.1396551e-28
2.1395827e-28
2.140039e-28
2.1371767e-28
2.1145566e-28
2.012301e-28
1.6611721e-28
8.5759118e-29
1.0580185e-29
1.7295111e-32
1.0178943e-42
2.5577172e-41
8.2714189e-34
6.2100345e-31
5.3828112e-30
1.0650799e-29
1.2982957e-29
1.3665452e-29
1.381691e-29
1.3836031e-29
1.3832503e-29
1.3832042e-29
1.3834663e-29
1.3814682e-29
1.3662457e-29
1.2979417e-29
1.0647369e-29
5.3808306e-30
6.2074656e-31
8.2653524e-34
2.3116754e-44
1.7734422e-42
3.8040658e-35
3.5068181e-32
3.2507731e-31
6.5708267e-31
8.0602043e-31
8.498523e-31
8.5964906e-31
8.6093068e-31
8.607323e-31
8.6070434e-31
8.6084758e-31
8.5951355e-31
8.4967009e-31
8.058053e-31
6.5687505e-31
3.249596e-31
3.5053859e-32
3.8013466e-35
1.5839092e-43
5.0469615e-44
1.6846654e-36
1.9072336e-33
1.8908179e-32
3.9043332e-32
4.8195707e-32
5.0904075e-32
5.1513452e-32
5.1595725e-32
5.1585083e-32
5.1583459e-32
5.1590897e-32
5.1505571e-32
5.0893478e-32
4.8183205e-32
3.9031329e-32
1.8901498e-32
1.9064721e-33
1.6835233e-36
4.2251656e-45
)
;

boundaryField
{
    Wall
    {
        type            zeroGradient;
    }
    frontAndBack
    {
        type            empty;
    }
    atmosphere
    {
        type            zeroGradient;
    }
}


// ************************************************************************* //
