/*--------------------------------*- C++ -*----------------------------------*\
| =========                 |                                                 |
| \\      /  F ield         | OpenFOAM: The Open Source CFD Toolbox           |
|  \\    /   O peration     | Version:  3.0.1                                 |
|   \\  /    A nd           | Web:      www.OpenFOAM.org                      |
|    \\/     M anipulation  |                                                 |
\*---------------------------------------------------------------------------*/
FoamFile
{
    version     2.0;
    format      ascii;
    class       volScalarField;
    location    "11";
    object      wBA_l;
}
// * * * * * * * * * * * * * * * * * * * * * * * * * * * * * * * * * * * * * //

dimensions      [0 0 0 0 0 0 0];

internalField   nonuniform List<scalar> 
800
(
0.056491122
0.056490779
0.05649076
0.056490718
0.056490695
0.056490681
0.056490671
0.056490664
0.05649066
0.056490658
0.056490658
0.05649066
0.056490664
0.056490671
0.056490681
0.056490695
0.056490718
0.05649076
0.056490779
0.056491122
0.056398804
0.056394388
0.056393132
0.056392459
0.056391986
0.056391636
0.056391378
0.056391195
0.056391078
0.056391021
0.056391021
0.056391078
0.056391195
0.056391378
0.056391636
0.056391986
0.056392459
0.056393132
0.056394389
0.056398805
0.046493685
0.04653848
0.04654278
0.046542637
0.046541774
0.046540908
0.046540132
0.046539522
0.04653911
0.046538905
0.046538905
0.04653911
0.046539523
0.046540132
0.046540908
0.046541775
0.046542637
0.046542781
0.046538481
0.046493686
0.032639545
0.032772221
0.032773338
0.032767036
0.032761144
0.032756171
0.032752273
0.032749415
0.032747558
0.032746646
0.032746647
0.03274756
0.032749419
0.032752278
0.032756177
0.03276115
0.032767044
0.032773346
0.03277223
0.032639555
0.018765911
0.01924646
0.019290102
0.019284057
0.019271133
0.019259312
0.01925011
0.019243406
0.019239118
0.019237016
0.019237017
0.019239121
0.019243412
0.019250119
0.019259322
0.019271144
0.019284069
0.019290114
0.019246473
0.018765927
0.007803684
0.0088756738
0.0091012223
0.0091407963
0.0091367678
0.0091236119
0.0091128668
0.0091038531
0.0090981958
0.0090953334
0.0090953343
0.0090981981
0.0091038571
0.009112872
0.0091236173
0.0091367739
0.009140803
0.0091012308
0.0088756797
0.0078037013
0.0021057317
0.003259798
0.0036457055
0.0037519166
0.0037738661
0.0037712894
0.0037646465
0.0037615139
0.0037586016
0.003756707
0.0037567073
0.0037585992
0.0037615097
0.003764646
0.0037712841
0.0037738637
0.0037519214
0.003645704
0.0032597971
0.0021057478
0.00032383928
0.00097988788
0.001301154
0.0014130963
0.0014408967
0.0014458674
0.0014399464
0.0014392224
0.0014367554
0.0014349809
0.0014349785
0.0014367548
0.0014392163
0.0014399403
0.0014458639
0.0014408884
0.0014130943
0.0013011418
0.00097988581
0.00032384509
3.2621594e-05
0.00025395182
0.00042595176
0.00049731601
0.00051730477
0.00052128992
0.00052034307
0.00051933143
0.00051803526
0.00051759261
0.00051759159
0.00051803391
0.00051932691
0.00052033912
0.00052128647
0.00051729841
0.00049731086
0.00042594834
0.00025394679
3.2622612e-05
2.7207623e-06
6.0049777e-05
0.00012946007
0.00016327305
0.000174478
0.0001766584
0.00017670171
0.00017618193
0.00017583534
0.00017563647
0.00017563607
0.00017583398
0.00017618018
0.00017669943
0.00017665627
0.00017447472
0.0001632701
0.00012945777
6.0048469e-05
2.7207927e-06
2.2405959e-07
1.3292607e-05
3.6538611e-05
4.9854479e-05
5.4681009e-05
5.5733925e-05
5.5844024e-05
5.5670468e-05
5.5562269e-05
5.5513407e-05
5.5513282e-05
5.5561553e-05
5.5669675e-05
5.5842981e-05
5.5732994e-05
5.4679596e-05
4.9852984e-05
3.653785e-05
1.3292114e-05
2.2405298e-07
1.9101243e-08
2.7473695e-06
9.5342498e-06
1.4070155e-05
1.5806531e-05
1.6233422e-05
1.6293615e-05
1.6246785e-05
1.6205893e-05
1.619303e-05
1.6192942e-05
1.6205666e-05
1.6246465e-05
1.6293198e-05
1.6232951e-05
1.5806063e-05
1.406968e-05
9.53392e-06
2.747269e-06
1.9100235e-08
1.6140199e-09
5.2741189e-07
2.2937713e-06
3.6485167e-06
4.1974796e-06
4.3471253e-06
4.3697806e-06
4.3591995e-06
4.3473543e-06
4.3420549e-06
4.3420271e-06
4.3472795e-06
4.3590869e-06
4.3696365e-06
4.3469429e-06
4.1973516e-06
3.6483653e-06
2.2936699e-06
5.2738565e-07
1.613895e-09
1.3117041e-10
9.3786379e-08
5.0786141e-07
8.6901276e-07
1.0235678e-06
1.0687703e-06
1.0762409e-06
1.0742378e-06
1.0713667e-06
1.0698273e-06
1.0698192e-06
1.0713439e-06
1.0742027e-06
1.0761962e-06
1.068717e-06
1.023524e-06
8.6896964e-07
5.0783507e-07
9.378054e-08
1.3115769e-10
1.0070618e-11
1.5430818e-08
1.0358077e-07
1.904388e-07
2.2962771e-07
2.4159422e-07
2.4378057e-07
2.4348447e-07
2.4287617e-07
2.4251863e-07
2.4251646e-07
2.4286994e-07
2.4347481e-07
2.4376828e-07
2.4158014e-07
2.2961473e-07
1.9042763e-07
1.0357456e-07
1.5429703e-08
1.0069517e-11
7.2418846e-13
2.351654e-09
1.9513915e-08
3.8512334e-08
4.7528295e-08
5.0365541e-08
5.0931325e-08
5.0905327e-08
5.0790356e-08
5.0718284e-08
5.0717754e-08
5.0788829e-08
5.090295e-08
5.0928315e-08
5.0362142e-08
4.7525005e-08
3.8509689e-08
1.9512568e-08
2.3514617e-09
7.241016e-13
4.8670921e-14
3.3281143e-10
3.4071866e-09
7.2126985e-09
9.1073084e-09
9.7186339e-09
9.8492198e-09
9.851383e-09
9.8318134e-09
9.8187593e-09
9.818643e-09
9.8314768e-09
9.8508581e-09
9.8485557e-09
9.7178906e-09
9.1065922e-09
7.2121144e-09
3.4069152e-09
3.3278073e-10
4.8664566e-14
3.0589021e-15
4.3865863e-11
5.5327429e-10
1.2554095e-09
1.6215923e-09
1.7421631e-09
1.7694499e-09
1.7711418e-09
1.7681263e-09
1.7659652e-09
1.7659422e-09
1.768059e-09
1.771037e-09
1.769317e-09
1.7420155e-09
1.6214355e-09
1.2553088e-09
5.5322357e-10
4.3861337e-11
3.0584714e-15
1.8005123e-16
5.4004141e-12
8.3830989e-11
2.0376582e-10
2.6925147e-10
2.9118443e-10
2.9637085e-10
2.9686486e-10
2.9644197e-10
2.9611124e-10
2.9610704e-10
2.9642974e-10
2.9684572e-10
2.9634647e-10
2.9115708e-10
2.6922322e-10
2.0374671e-10
8.3822435e-11
5.3997999e-12
1.8002417e-16
9.9444058e-18
6.2281369e-13
1.1887147e-11
3.0950834e-11
4.1817137e-11
4.5525964e-11
4.6431949e-11
4.6540804e-11
4.6486724e-11
4.6439534e-11
4.6438834e-11
4.6484675e-11
4.6537594e-11
4.6427841e-11
4.5521329e-11
4.181251e-11
3.0947317e-11
1.188592e-11
6.227339e-13
9.9428284e-18
5.1631969e-19
6.7444584e-14
1.582269e-12
4.4120199e-12
6.0934025e-12
6.6781806e-12
6.8246717e-12
6.8450688e-12
6.8387806e-12
6.8324642e-12
6.832356e-12
6.838463e-12
6.8445699e-12
6.8240311e-12
6.6774525e-12
6.0926851e-12
4.4114824e-12
1.5820846e-12
6.743585e-14
5.1623878e-19
2.5249073e-20
6.8766802e-15
1.9822743e-13
5.9177155e-13
8.3535085e-13
9.2160142e-13
9.4365082e-13
9.4704934e-13
9.4639062e-13
9.4559362e-13
9.4557784e-13
9.4634459e-13
9.4697675e-13
9.4355738e-13
9.2149468e-13
8.3524596e-13
5.9169456e-13
1.9820149e-13
6.8757026e-15
2.5244699e-20
1.1656978e-21
6.6170637e-16
2.3428618e-14
7.4863722e-14
1.080068e-13
1.1994509e-13
1.2304898e-13
1.2356404e-13
1.2350306e-13
1.2340805e-13
1.2340589e-13
1.2349677e-13
1.2355408e-13
1.2303612e-13
1.1993035e-13
1.079923e-13
7.4853264e-14
2.3425236e-14
6.6160056e-16
1.1654713e-21
5.0899299e-23
6.0212329e-17
2.6179095e-15
8.9526407e-15
1.320002e-14
1.4755265e-14
1.5165498e-14
1.5237437e-14
1.5232739e-14
1.5221995e-14
1.5221715e-14
1.5231919e-14
1.5236139e-14
1.5163814e-14
1.4753333e-14
1.319812e-14
8.9512879e-15
2.6174954e-15
6.0201662e-17
5.0888585e-23
2.1052323e-24
5.190964e-18
2.7710377e-16
1.0140773e-15
1.5279923e-15
1.7191792e-15
1.7702544e-15
1.7795961e-15
1.7793505e-15
1.7781948e-15
1.7781601e-15
1.7792487e-15
1.7794345e-15
1.770044e-15
1.7189374e-15
1.5277544e-15
1.0139102e-15
2.7705563e-16
5.1899535e-18
2.104757e-24
8.2607935e-26
4.2472909e-19
2.7835533e-17
1.0900169e-16
1.678404e-16
1.9006998e-16
1.9607613e-16
1.9721184e-16
1.9721565e-16
1.9709723e-16
1.970931e-16
1.9720354e-16
1.9719257e-16
1.9605096e-16
1.90041e-16
1.6781189e-16
1.0898194e-16
2.7830186e-17
4.2463799e-19
8.2587898e-26
3.0798295e-27
3.3035742e-20
2.6579843e-18
1.1137103e-17
1.7524206e-17
1.9973962e-17
2.0642628e-17
2.0772572e-17
2.0775986e-17
2.0764419e-17
2.0763951e-17
2.0774609e-17
2.0770373e-17
2.0639751e-17
1.9970639e-17
1.7520938e-17
1.1134872e-17
2.6574167e-18
3.3027903e-20
3.0790195e-27
1.0925368e-28
2.446347e-21
2.4164032e-19
1.0833346e-18
1.741902e-18
1.9982603e-18
2.0688858e-18
2.0829291e-18
2.083556e-18
2.0824758e-18
2.0824251e-18
2.0834065e-18
2.0826899e-18
2.0685718e-18
1.9978967e-18
1.7415445e-18
1.0830941e-18
2.4158291e-19
2.4457043e-21
1.0921975e-28
4.661231e-30
1.7271044e-22
2.0944325e-20
1.0046734e-19
1.6507268e-19
1.9059043e-19
1.9768079e-19
1.9911841e-19
1.9920437e-19
1.99108e-19
1.9910277e-19
1.9918895e-19
1.9909366e-19
1.9764819e-19
1.9055255e-19
1.6503549e-19
1.0044269e-19
2.0938802e-20
1.7266028e-22
3.6910751e-30
4.5647013e-31
1.1639831e-23
1.7330526e-21
8.8947001e-21
1.4933669e-20
1.7353464e-20
1.8031206e-20
1.8170949e-20
1.8181088e-20
1.8172874e-20
1.8172363e-20
1.8179577e-20
1.816852e-20
1.8027994e-20
1.7349723e-20
1.4929999e-20
8.8923044e-21
1.7325491e-21
1.1636071e-23
1.1898678e-31
4.7555912e-32
7.4976128e-25
1.3706652e-22
7.526802e-22
1.2913014e-21
1.5102125e-21
1.5719872e-21
1.5849128e-21
1.5859911e-21
1.5853227e-21
1.5852755e-21
1.5858509e-21
1.584687e-21
1.5716879e-21
1.5098627e-21
1.2909584e-21
7.5245977e-22
1.3702305e-22
7.4948799e-25
3.6629727e-33
3.8988194e-33
4.6209359e-26
1.0373195e-23
6.0946933e-23
1.0684369e-22
1.2576155e-22
1.3113812e-22
1.322778e-22
1.3238359e-22
1.3233165e-22
1.3232749e-22
1.3237127e-22
1.3225793e-22
1.3111171e-22
1.257306e-22
1.0681338e-22
6.0927762e-23
1.0369644e-23
4.6190129e-26
1.0780015e-34
2.6255041e-34
2.7278136e-27
7.5198221e-25
4.7272607e-24
8.4680815e-24
1.0031617e-23
1.0479016e-23
1.0574958e-23
1.0584655e-23
1.0580799e-23
1.0580454e-23
1.0583632e-23
1.0573304e-23
1.047681e-23
1.0029027e-23
8.4655485e-24
4.7256842e-24
7.5170776e-25
2.7265147e-27
3.0358909e-36
1.5381572e-35
1.5438071e-28
5.2268152e-26
3.5156504e-25
6.4351508e-25
7.6723827e-25
8.0287323e-25
8.1059563e-25
8.1143249e-25
8.1115908e-25
8.1113191e-25
8.1135198e-25
8.1046519e-25
8.0269887e-25
7.670331e-25
6.4331477e-25
3.5144234e-25
5.2248069e-26
1.5429708e-28
8.1890993e-38
7.8717632e-37
8.3840107e-30
3.4865273e-27
2.5091876e-26
4.6931383e-26
5.6314405e-26
5.9034038e-26
5.9629066e-26
5.9697432e-26
5.9678916e-26
5.9676887e-26
5.9691418e-26
5.9619304e-26
5.9020959e-26
5.6298994e-26
4.6916371e-26
2.5082834e-26
3.4851356e-27
8.3789073e-30
2.1176065e-39
3.4165154e-38
4.3727073e-31
2.2337815e-28
1.7201182e-27
3.2874987e-27
3.970138e-27
4.1692131e-27
4.213153e-27
4.2184601e-27
4.2172633e-27
4.2171193e-27
4.2180329e-27
4.2124589e-27
4.1682815e-27
3.9690395e-27
3.2864312e-27
1.7194859e-27
2.2328667e-28
4.3697773e-31
5.2536901e-41
1.1656925e-39
2.191907e-32
1.3756902e-29
1.1335039e-28
2.2136437e-28
2.6904885e-28
2.8303783e-28
2.8615064e-28
2.8654322e-28
2.864694e-28
2.8645967e-28
2.8651434e-28
2.8610366e-28
2.8297471e-28
2.6897439e-28
2.2129223e-28
1.1330838e-28
1.3751194e-29
2.1903385e-32
1.2514755e-42
3.1004965e-41
1.0567608e-33
8.1498725e-31
7.1853275e-30
1.4338691e-29
1.7539453e-29
1.8483905e-29
1.8695651e-29
1.8723382e-29
1.871904e-29
1.8718414e-29
1.8721519e-29
1.8692618e-29
1.8479831e-29
1.7534645e-29
1.4334049e-29
7.1826707e-30
8.146485e-31
1.0559851e-33
2.8643489e-44
1.905694e-42
4.9034821e-35
4.6475792e-32
4.3845661e-31
8.9406631e-31
1.1006759e-30
1.1619863e-30
1.1758281e-30
1.1777021e-30
1.1774589e-30
1.1774203e-30
1.1775874e-30
1.1756412e-30
1.1617351e-30
1.1003796e-30
8.9378143e-31
4.3829653e-31
4.6456644e-32
4.8999363e-35
1.5763939e-43
6.0042248e-44
2.191186e-36
2.5528379e-33
2.5771557e-32
5.3699112e-32
6.6533531e-32
7.0363203e-32
7.1233431e-32
7.1354754e-32
7.1341804e-32
7.1339533e-32
7.1348003e-32
7.1222413e-32
7.034839e-32
6.6516071e-32
5.3682409e-32
2.5762343e-32
2.5518056e-33
2.1896704e-36
5.0816392e-45
)
;

boundaryField
{
    Wall
    {
        type            zeroGradient;
    }
    frontAndBack
    {
        type            empty;
    }
    atmosphere
    {
        type            zeroGradient;
    }
}


// ************************************************************************* //
