/*--------------------------------*- C++ -*----------------------------------*\
| =========                 |                                                 |
| \\      /  F ield         | OpenFOAM: The Open Source CFD Toolbox           |
|  \\    /   O peration     | Version:  3.0.1                                 |
|   \\  /    A nd           | Web:      www.OpenFOAM.org                      |
|    \\/     M anipulation  |                                                 |
\*---------------------------------------------------------------------------*/
FoamFile
{
    version     2.0;
    format      ascii;
    class       volScalarField;
    location    "11";
    object      wCO2_l;
}
// * * * * * * * * * * * * * * * * * * * * * * * * * * * * * * * * * * * * * //

dimensions      [0 0 0 0 0 0 0];

internalField   nonuniform List<scalar> 
800
(
0.0029936595
0.0029936785
0.0029936986
0.002993708
0.0029937156
0.0029937219
0.0029937268
0.0029937304
0.0029937327
0.0029937339
0.0029937339
0.0029937327
0.0029937304
0.0029937268
0.0029937218
0.0029937156
0.002993708
0.0029936986
0.0029936785
0.0029936595
0.0035615434
0.0035539105
0.0035533697
0.0035530323
0.0035527763
0.0035525835
0.0035524419
0.0035523426
0.0035522795
0.0035522488
0.0035522488
0.0035522795
0.0035523426
0.003552442
0.0035525835
0.0035527763
0.0035530324
0.0035533697
0.0035539105
0.0035615435
0.0046210779
0.0046135943
0.0046135202
0.0046134054
0.004613326
0.0046132731
0.0046132391
0.0046132176
0.0046132048
0.0046131989
0.0046131989
0.0046132049
0.0046132176
0.0046132392
0.0046132732
0.0046133262
0.0046134056
0.0046135204
0.0046135945
0.004621078
0.0046092832
0.0046507732
0.0046511377
0.004650856
0.0046505501
0.0046502683
0.0046500345
0.0046498559
0.0046497376
0.004649679
0.004649679
0.0046497378
0.0046498562
0.0046500349
0.0046502688
0.0046505506
0.0046508567
0.0046511384
0.004650774
0.004609284
0.0020757659
0.0021405236
0.0021432634
0.0021424659
0.0021410995
0.0021398523
0.002138866
0.0021381371
0.0021376701
0.0021374402
0.0021374404
0.0021376705
0.0021381378
0.002138867
0.0021398535
0.0021411009
0.0021424675
0.002143265
0.0021405253
0.0020757679
0.00071185507
0.00079973516
0.00081551375
0.00081789855
0.00081709933
0.00081563245
0.00081450039
0.00081353396
0.00081293259
0.00081262718
0.00081262732
0.00081293295
0.00081353456
0.00081450116
0.00081563328
0.00081710031
0.00081789963
0.00081551516
0.0007997363
0.00071185718
0.00016998296
0.00025181892
0.00027809258
0.00028514285
0.00028645527
0.00028603673
0.00028539418
0.00028509224
0.00028482203
0.00028464516
0.00028464522
0.00028482191
0.00028509202
0.00028539436
0.00028603649
0.00028645537
0.00028514369
0.00027809291
0.00025181927
0.00016998453
2.4292069e-05
6.7296206e-05
8.8084057e-05
9.5350415e-05
9.7102097e-05
9.7372127e-05
9.6870131e-05
9.6807636e-05
9.6610732e-05
9.6466424e-05
9.6466256e-05
9.6610748e-05
9.6807241e-05
9.6869781e-05
9.737199e-05
9.7101632e-05
9.5350492e-05
8.8083342e-05
6.7296257e-05
2.4292598e-05
2.3106528e-06
1.5875575e-05
2.6355167e-05
3.0755714e-05
3.1973646e-05
3.2204691e-05
3.2114951e-05
3.2043126e-05
3.1948868e-05
3.1914672e-05
3.1914608e-05
3.1948806e-05
3.2042848e-05
3.2114728e-05
3.2204518e-05
3.1973278e-05
3.075546e-05
2.6355012e-05
1.5875306e-05
2.3107476e-06
1.7861001e-07
3.4930255e-06
7.5052851e-06
9.4884232e-06
1.0146623e-05
1.0270329e-05
1.0266029e-05
1.0231359e-05
1.0207289e-05
1.0193767e-05
1.0193744e-05
1.0207215e-05
1.0231261e-05
1.0265904e-05
1.0270219e-05
1.014644e-05
9.4882682e-06
7.50517e-06
3.4929592e-06
1.7861498e-07
1.350407e-08
7.3758558e-07
2.0310611e-06
2.7830415e-06
3.0577206e-06
3.1162009e-06
3.1211016e-06
3.1099364e-06
3.1029935e-06
3.0998301e-06
3.0998237e-06
3.102954e-06
3.1098937e-06
3.1210456e-06
3.1161537e-06
3.0576441e-06
2.782962e-06
2.0310243e-06
7.3756023e-07
1.3503903e-08
1.0916312e-09
1.4904797e-07
5.1880921e-07
7.6929965e-07
8.6611189e-07
8.895373e-07
8.9261293e-07
8.896615e-07
8.8720967e-07
8.8642558e-07
8.8642097e-07
8.8719733e-07
8.896446e-07
8.9259083e-07
8.8951292e-07
8.660872e-07
7.6927464e-07
5.1879262e-07
1.4904294e-07
1.0915846e-09
9.142062e-11
2.8556315e-08
1.2435054e-07
1.9866326e-07
2.2903978e-07
2.3724791e-07
2.3844248e-07
2.3777445e-07
2.3707431e-07
2.3676965e-07
2.3676815e-07
2.3707031e-07
2.377685e-07
2.3843484e-07
2.3723826e-07
2.2903318e-07
1.9865532e-07
1.2434533e-07
2.8554976e-08
9.1413992e-11
7.5880769e-12
5.148385e-09
2.7824905e-08
4.77778e-08
5.6381109e-08
5.8889209e-08
5.9291751e-08
5.9161714e-08
5.8989885e-08
5.890066e-08
5.890022e-08
5.898866e-08
5.9159837e-08
5.9289353e-08
5.8886333e-08
5.637883e-08
4.7775517e-08
2.7823522e-08
5.1480792e-09
7.5873626e-12
6.0519551e-13
8.6909223e-10
5.8020336e-09
1.0693615e-08
1.2915291e-08
1.3594113e-08
1.3715249e-08
1.3694609e-08
1.3657327e-08
1.3635919e-08
1.3635799e-08
1.3656985e-08
1.3694079e-08
1.3714575e-08
1.3593336e-08
1.2914595e-08
1.069301e-08
5.8016988e-09
8.6903158e-10
6.051303e-13
4.5688505e-14
1.3715604e-10
1.1281419e-09
2.2300354e-09
2.7561857e-09
2.9222469e-09
2.9547719e-09
2.9525218e-09
2.9452416e-09
2.9407616e-09
2.9407316e-09
2.9451552e-09
2.9523874e-09
2.9546015e-09
2.9220542e-09
2.756002e-09
2.2298875e-09
1.1280668e-09
1.3714514e-10
4.5683075e-14
3.2475039e-15
2.0251593e-11
2.0492206e-10
4.342389e-10
5.491063e-10
5.863275e-10
5.9417882e-10
5.9418463e-10
5.9289374e-10
5.9204812e-10
5.9204127e-10
5.9287394e-10
5.9415374e-10
5.9413974e-10
5.8628375e-10
5.4906451e-10
4.3420488e-10
2.049063e-10
2.0249775e-11
3.2470836e-15
2.1713973e-16
2.802745e-12
3.4859075e-11
7.9155098e-11
1.0240446e-10
1.100995e-10
1.1182718e-10
1.1191566e-10
1.1170695e-10
1.1156037e-10
1.1155895e-10
1.117028e-10
1.1190919e-10
1.1181899e-10
1.1009041e-10
1.0239483e-10
7.9148967e-11
3.4855986e-11
2.8024635e-12
2.1710947e-16
1.3669053e-17
3.643877e-13
5.5676273e-12
1.3543284e-11
1.7928293e-11
1.9405709e-11
1.9753724e-11
1.9784362e-11
1.9753478e-11
1.9729875e-11
1.9729602e-11
1.9752681e-11
1.9783115e-11
1.9752139e-11
1.9403934e-11
1.7926455e-11
1.3542063e-11
5.5670773e-12
3.6434738e-13
1.3667024e-17
8.1138465e-19
4.4614828e-14
8.370256e-13
2.1816357e-12
2.9540488e-12
3.2194024e-12
3.2841973e-12
3.2916857e-12
3.2874997e-12
3.2839407e-12
3.2838923e-12
3.2873579e-12
3.2914637e-12
3.2839135e-12
3.2190831e-12
2.9537287e-12
2.1813976e-12
8.3694208e-13
4.4609268e-14
8.1125782e-19
4.5493037e-20
5.1552864e-15
1.1877002e-13
3.3169904e-13
4.5933543e-13
5.0404676e-13
5.1527312e-13
5.1680707e-13
5.1628951e-13
5.1578396e-13
5.1577595e-13
5.1626602e-13
5.167702e-13
5.1522583e-13
5.0399315e-13
4.5928259e-13
3.3165995e-13
1.1875668e-13
5.1546374e-15
4.5486032e-20
2.4137655e-21
5.6364154e-16
1.5945531e-14
4.7714197e-14
6.7572052e-14
7.4660735e-14
7.6480858e-14
7.6759431e-14
7.6701701e-14
7.6633722e-14
7.6632469e-14
7.6698044e-14
7.6753667e-14
7.6473448e-14
7.4652289e-14
6.7563778e-14
4.7708168e-14
1.5943529e-14
5.6356377e-16
2.4133549e-21
1.2147442e-22
5.8439172e-17
2.0300524e-15
6.5084482e-15
9.4261625e-15
1.0486739e-14
1.0764149e-14
1.0810211e-14
1.0804538e-14
1.0795865e-14
1.079568e-14
1.0803998e-14
1.0809357e-14
1.0763048e-14
1.048548e-14
9.4249302e-15
6.5075655e-15
2.0297707e-15
5.8430158e-17
1.2145141e-22
5.8088712e-24
5.757447e-18
2.4559049e-16
8.4363481e-16
1.249573e-15
1.3997271e-15
1.4396275e-15
1.446666e-15
1.446209e-15
1.4451552e-15
1.4451292e-15
1.4461328e-15
1.4465453e-15
1.4394713e-15
1.3995482e-15
1.2493979e-15
8.4351123e-16
2.4555304e-16
5.7564617e-18
5.8076766e-24
2.6437167e-25
5.3999601e-19
2.8287302e-17
1.0411999e-16
1.577267e-16
1.7789356e-16
1.8332736e-16
1.8433087e-16
1.8430818e-16
1.8418588e-16
1.8418236e-16
1.8429787e-16
1.8431453e-16
1.833061e-16
1.7786918e-16
1.5770285e-16
1.0410339e-16
2.8282561e-17
5.3989422e-19
2.6431326e-25
1.1469245e-26
4.8300012e-20
3.1076406e-18
1.2257699e-17
1.8991521e-17
2.156687e-17
2.2269394e-17
2.2403894e-17
2.2405132e-17
2.2391554e-17
2.2391096e-17
2.2403791e-17
2.2401762e-17
2.2266613e-17
2.1563675e-17
1.8988395e-17
1.2255555e-17
3.1070652e-18
4.8289979e-20
1.1466525e-26
4.750178e-28
4.1268061e-21
3.2618063e-19
1.3788366e-18
2.1850444e-18
2.4983938e-18
2.5848271e-18
2.6018667e-18
2.6024395e-18
2.600996e-18
2.600939e-18
2.6022719e-18
2.6015993e-18
2.5844775e-18
2.4979911e-18
2.1846507e-18
1.3785705e-18
3.2611359e-19
4.1258589e-21
4.7489596e-28
1.880977e-29
3.3733177e-22
3.2760495e-20
1.4843136e-19
2.4059559e-19
2.7698984e-19
2.8713096e-19
2.8917951e-19
2.8928804e-19
2.8914067e-19
2.8913385e-19
2.8926792e-19
2.8914734e-19
2.8708879e-19
2.7694114e-19
2.4054798e-19
1.4839967e-19
3.2753014e-20
3.3724615e-22
1.8803685e-29
8.7147682e-31
2.641782e-23
3.1530871e-21
1.5313621e-20
2.5390609e-20
2.943258e-20
3.0569436e-20
3.0803867e-20
3.0819988e-20
3.0805547e-20
3.0804764e-20
3.0817678e-20
3.0800163e-20
3.0564565e-20
2.9426937e-20
2.5385101e-20
1.5310011e-20
3.1522885e-21
2.6410413e-23
7.1277362e-31
8.62794e-32
1.9847784e-24
2.9120469e-22
1.5161939e-21
2.5715947e-21
3.0015191e-21
3.1234996e-21
3.149102e-21
3.1511996e-21
3.1498414e-21
3.1497556e-21
3.1509462e-21
3.1486949e-21
3.1229623e-21
3.0008951e-21
2.5709863e-21
1.5158016e-21
2.9112341e-22
1.9841591e-24
2.5898415e-32
9.5364122e-33
1.4323259e-25
2.5839295e-23
1.4424488e-22
2.5027672e-22
2.9413549e-22
3.0668194e-22
3.0935616e-22
3.0960507e-22
3.0948258e-22
3.0947363e-22
3.0957856e-22
3.0931351e-22
3.0662549e-22
2.9406973e-22
2.5021267e-22
1.4420426e-22
2.5831411e-23
1.4318214e-25
9.0306984e-34
8.6442935e-34
9.9400575e-27
2.2054068e-24
1.3201446e-23
2.343332e-23
2.7730315e-23
2.8969159e-23
2.9236822e-23
2.9264299e-23
2.9253708e-23
2.9252816e-23
2.9261657e-23
2.9232564e-23
2.8963509e-23
2.7723715e-23
2.3426903e-23
1.3197444e-23
2.2046789e-24
9.9360596e-27
3.0253596e-35
6.5461653e-35
6.6408207e-28
1.8125693e-25
1.1635652e-24
2.1130778e-24
2.5178879e-24
2.635471e-24
2.6611853e-24
2.6640394e-24
2.6631618e-24
2.6630771e-24
2.6637888e-24
2.6607803e-24
2.6349322e-24
2.5172575e-24
2.1124657e-24
1.16319e-24
1.8119295e-25
6.6377576e-28
9.7474442e-37
4.3547973e-36
4.2754142e-29
1.4359512e-26
9.8866623e-26
1.8369911e-25
2.2041148e-25
2.3115199e-25
2.3352662e-25
2.3380765e-25
2.3373801e-25
2.3373035e-25
2.3378498e-25
2.3348992e-25
2.3110303e-25
2.2035408e-25
1.8364352e-25
9.8833126e-26
1.4354155e-26
4.2731599e-29
3.023329e-38
2.5453656e-37
2.6550192e-30
1.0975823e-27
8.1060963e-27
1.5410685e-26
1.8619231e-26
1.9564466e-26
1.9775532e-26
1.9801892e-26
1.9796605e-26
1.9795943e-26
1.9799933e-26
1.9772355e-26
1.9560219e-26
1.8614245e-26
1.5405869e-26
8.1032468e-27
1.0971547e-27
2.6534347e-30
9.035628e-40
1.2681175e-38
1.591742e-31
8.1016618e-29
6.4189564e-28
1.2486695e-27
1.5191705e-27
1.5993996e-27
1.6174782e-27
1.6198422e-27
1.6194589e-27
1.6194042e-27
1.6196802e-27
1.6172154e-27
1.5990475e-27
1.5187569e-27
1.2482712e-27
6.4166418e-28
8.098406e-29
1.5906865e-31
2.6042498e-41
4.9943889e-40
9.2204127e-33
5.779817e-30
4.9132782e-29
9.7801939e-29
1.1982084e-28
1.2639462e-28
1.2788843e-28
1.2809168e-28
1.2806521e-28
1.2806088e-28
1.2807886e-28
1.278676e-28
1.2636668e-28
1.1978801e-28
9.7770433e-29
4.9114808e-29
5.7774482e-30
9.2138068e-33
7.2445208e-43
1.5729169e-41
5.1645809e-34
3.9883947e-31
3.6380967e-30
7.4107746e-30
9.1428405e-30
9.6632831e-30
9.7824725e-30
9.7992616e-30
9.7975261e-30
9.7971981e-30
9.7982882e-30
9.7808887e-30
9.661159e-30
9.1403437e-30
7.4083873e-30
3.6367599e-30
3.9867458e-31
5.1607273e-34
1.9465697e-44
1.2293805e-42
2.7992549e-35
2.6640724e-32
2.6079189e-31
5.4364772e-31
6.7542115e-31
7.1526528e-31
7.2445627e-31
7.2579103e-31
7.2568366e-31
7.2565971e-31
7.2572004e-31
7.2434059e-31
7.1511004e-31
6.7523877e-31
5.434741e-31
2.6069656e-31
2.6629724e-32
2.797157e-35
1.0300358e-43
4.5367667e-44
1.4691668e-36
1.7236845e-33
1.8110591e-32
3.8637739e-32
4.834098e-32
5.1293036e-32
5.1978584e-32
5.2080862e-32
5.2074651e-32
5.2072974e-32
5.2075883e-32
5.1970457e-32
5.1282123e-32
4.8328162e-32
3.8625601e-32
1.8104057e-32
1.7229802e-33
1.4680922e-36
3.7005191e-45
)
;

boundaryField
{
    Wall
    {
        type            zeroGradient;
    }
    frontAndBack
    {
        type            empty;
    }
    atmosphere
    {
        type            zeroGradient;
    }
}


// ************************************************************************* //
