/*--------------------------------*- C++ -*----------------------------------*\
| =========                 |                                                 |
| \\      /  F ield         | OpenFOAM: The Open Source CFD Toolbox           |
|  \\    /   O peration     | Version:  3.0.1                                 |
|   \\  /    A nd           | Web:      www.OpenFOAM.org                      |
|    \\/     M anipulation  |                                                 |
\*---------------------------------------------------------------------------*/
FoamFile
{
    version     2.0;
    format      ascii;
    class       volScalarField;
    location    "11";
    object      wCO2_g;
}
// * * * * * * * * * * * * * * * * * * * * * * * * * * * * * * * * * * * * * //

dimensions      [0 0 0 0 0 0 0];

internalField   nonuniform List<scalar> 
800
(
0.0032027879
0.0032028522
0.003202861
0.003202866
0.00320287
0.0032028729
0.0032028751
0.0032028765
0.0032028774
0.0032028778
0.0032028779
0.0032028774
0.0032028765
0.0032028751
0.0032028729
0.00320287
0.003202866
0.003202861
0.0032028522
0.0032027879
0.0023680346
0.0023792947
0.0023805825
0.0023813006
0.0023818572
0.0023822815
0.0023825957
0.0023828169
0.0023829575
0.0023830258
0.0023830258
0.0023829574
0.0023828169
0.0023825956
0.0023822814
0.0023818572
0.0023813006
0.0023805825
0.0023792947
0.0023680345
0.0015824475
0.0015905812
0.0015917495
0.0015923185
0.0015926851
0.0015929423
0.0015931195
0.0015932384
0.0015933119
0.0015933471
0.0015933471
0.0015933119
0.0015932384
0.0015931194
0.0015929422
0.0015926849
0.0015923184
0.0015917494
0.0015905811
0.0015824473
0.00082195341
0.00083300539
0.00083353669
0.00083367907
0.00083372381
0.00083372646
0.00083371163
0.00083369296
0.00083367831
0.00083367054
0.00083367055
0.00083367834
0.00083369301
0.00083371169
0.00083372655
0.00083372391
0.00083367918
0.00083353681
0.00083300552
0.00082195352
0.00029029488
0.00029754847
0.0002978902
0.00029782094
0.00029765809
0.00029749758
0.00029736456
0.00029726335
0.00029719796
0.00029716554
0.00029716557
0.00029719802
0.00029726345
0.00029736471
0.00029749777
0.00029765829
0.00029782117
0.00029789044
0.00029754872
0.00029029515
8.1660692e-05
8.9183175e-05
9.0468439e-05
9.0621629e-05
9.0491033e-05
9.0298485e-05
9.0154075e-05
9.0029002e-05
8.9951586e-05
8.9912137e-05
8.9912159e-05
8.9951641e-05
9.0029091e-05
9.0154188e-05
9.0298612e-05
9.049118e-05
9.0621794e-05
9.0468658e-05
8.9183366e-05
8.1660982e-05
1.6238282e-05
2.2543387e-05
2.452071e-05
2.5036699e-05
2.5117104e-05
2.5057693e-05
2.4985326e-05
2.4952864e-05
2.4923383e-05
2.4903953e-05
2.4903963e-05
2.4923378e-05
2.4952852e-05
2.4985363e-05
2.5057689e-05
2.5117139e-05
2.5036822e-05
2.4520782e-05
2.2543464e-05
1.6238469e-05
1.8906233e-06
4.7658968e-06
6.1534445e-06
6.647647e-06
6.7631256e-06
6.7781356e-06
6.7322161e-06
6.7270074e-06
6.7099215e-06
6.697502e-06
6.6974888e-06
6.709927e-06
6.7269796e-06
6.7321949e-06
6.7781352e-06
6.7630998e-06
6.6476732e-06
6.153404e-06
4.7659195e-06
1.8906763e-06
1.3899039e-07
8.7438288e-07
1.4621451e-06
1.7185304e-06
1.7897223e-06
1.8028592e-06
1.7959922e-06
1.7910219e-06
1.7845094e-06
1.7821777e-06
1.7821739e-06
1.7845072e-06
1.7910056e-06
1.7959807e-06
1.8028524e-06
1.7897027e-06
1.7185198e-06
1.4621413e-06
8.7437173e-07
1.3899795e-07
7.874483e-09
1.4996437e-07
3.3499466e-07
4.3154612e-07
4.6451321e-07
4.7062918e-07
4.7033269e-07
4.6841529e-07
4.6710383e-07
4.6638288e-07
4.6638189e-07
4.6710039e-07
4.6841096e-07
4.703272e-07
4.7062482e-07
4.6450505e-07
4.3153994e-07
3.3499079e-07
1.4996218e-07
7.8748554e-09
4.3185428e-10
2.5311374e-08
7.452789e-08
1.0511858e-07
1.1671905e-07
1.1921287e-07
1.1943495e-07
1.1894355e-07
1.1864339e-07
1.1850701e-07
1.185068e-07
1.1864184e-07
1.1894198e-07
1.1943287e-07
1.1921124e-07
1.1671619e-07
1.0511568e-07
7.452684e-08
2.5310631e-08
4.3185764e-10
2.665933e-11
4.232914e-09
1.6039452e-08
2.4649356e-08
2.8106665e-08
2.8961782e-08
2.9079984e-08
2.8975432e-08
2.8888177e-08
2.8860785e-08
2.8860634e-08
2.8887777e-08
2.8974894e-08
2.9079275e-08
2.8961e-08
2.8105898e-08
2.464859e-08
1.6038988e-08
4.2327928e-09
2.6658514e-11
1.8376367e-12
6.9434871e-10
3.316546e-09
5.506518e-09
6.4352482e-09
6.6923428e-09
6.731457e-09
6.7121544e-09
6.6910799e-09
6.6819219e-09
6.6818798e-09
6.6909687e-09
6.7119884e-09
6.7312437e-09
6.692069e-09
6.4350734e-09
5.5063054e-09
3.3164141e-09
6.9431948e-10
1.8375209e-12
1.3355939e-13
1.1034938e-10
6.5362803e-10
1.165732e-09
1.3941641e-09
1.4621824e-09
1.4735357e-09
1.4704498e-09
1.466056e-09
1.4637298e-09
1.463719e-09
1.4660259e-09
1.4704034e-09
1.4734763e-09
1.462111e-09
1.3941091e-09
1.1656775e-09
6.5359667e-10
1.1034319e-10
1.3354763e-13
9.7656363e-15
1.6816309e-11
1.2215787e-10
2.3315687e-10
2.8508578e-10
3.0121544e-10
3.0419235e-10
3.0379707e-10
3.0297426e-10
3.0249185e-10
3.0248921e-10
3.029667e-10
3.0378534e-10
3.041774e-10
3.0119826e-10
2.8507038e-10
2.3314383e-10
1.2215099e-10
1.6815181e-11
9.7646303e-15
6.98621e-16
2.4421997e-12
2.1602092e-11
4.4008978e-11
5.496996e-11
5.846987e-11
5.9174093e-11
5.9144346e-11
5.9003209e-11
5.8914606e-11
5.8914005e-11
5.9001477e-11
5.9141644e-11
5.9170666e-11
5.8466003e-11
5.4966264e-11
4.4006068e-11
2.1600674e-11
2.4420114e-12
6.9854065e-16
4.8232304e-17
3.370833e-13
3.6126853e-12
7.8409e-12
9.9972293e-12
1.0701077e-11
1.0852519e-11
1.0855507e-11
1.0833182e-11
1.0818242e-11
1.0818117e-11
1.0832819e-11
1.0854939e-11
1.08518e-11
1.0700273e-11
9.9964609e-12
7.840283e-12
3.6124089e-12
3.3705364e-13
4.8226193e-17
3.1931509e-18
4.4180212e-14
5.7168094e-13
1.3198348e-12
1.7169516e-12
1.8488257e-12
1.8788262e-12
1.8807528e-12
1.8774887e-12
1.8751402e-12
1.8751162e-12
1.8774185e-12
1.8806431e-12
1.8786872e-12
1.8486714e-12
1.716788e-12
1.3197318e-12
5.7163018e-13
4.4175824e-14
3.1927103e-18
2.0213024e-19
5.4997751e-15
8.5690095e-14
2.1018097e-13
2.7891327e-13
3.0206221e-13
3.0755425e-13
3.0808439e-13
3.076419e-13
3.0729452e-13
3.0729022e-13
3.0762938e-13
3.0806478e-13
3.0752928e-13
3.0203421e-13
2.7888438e-13
2.101617e-13
8.5681582e-14
5.4991686e-15
2.021002e-19
1.2221725e-20
6.5086095e-16
1.2182217e-14
3.1728774e-14
4.292165e-14
4.6752298e-14
4.7689474e-14
4.7802492e-14
4.7746827e-14
4.7698161e-14
4.7697451e-14
4.7744749e-14
4.7799233e-14
4.7685301e-14
4.674759e-14
4.2916955e-14
3.1725227e-14
1.2180989e-14
6.507796e-16
1.2219792e-20
7.0577479e-22
7.3290617e-17
1.6455512e-15
4.5478959e-15
6.2691088e-15
6.8677211e-15
7.0176639e-15
7.0385014e-15
7.032023e-15
7.0255355e-15
7.0254255e-15
7.0317002e-15
7.0379938e-15
7.0170118e-15
6.8669798e-15
6.2683782e-15
4.5473492e-15
1.6453629e-15
7.3281315e-17
7.0566353e-22
3.8945465e-23
7.8655117e-18
2.1154963e-16
6.1999742e-16
8.7068022e-16
9.5920809e-16
9.8180428e-16
9.8526753e-16
9.8457525e-16
9.837493e-16
9.8373306e-16
9.8452788e-16
9.8519276e-16
9.8170796e-16
9.5909798e-16
8.7057186e-16
6.1991765e-16
2.1152235e-16
7.8644075e-18
3.8938596e-23
2.0562125e-24
8.0566913e-19
2.5924771e-17
8.0523861e-17
1.1518454e-16
1.2760367e-16
1.3082322e-16
1.3135307e-16
1.3128608e-16
1.3118553e-16
1.3118325e-16
1.3127946e-16
1.3134259e-16
1.3080966e-16
1.2758812e-16
1.151692e-16
8.0512712e-17
2.5921073e-17
8.0554147e-19
2.0558066e-24
1.0397019e-25
7.8871271e-20
3.0330602e-18
9.9798637e-18
1.4538921e-17
1.6195241e-17
1.6630333e-17
1.6705857e-17
1.6700221e-17
1.6688478e-17
1.6688174e-17
1.6699331e-17
1.6704445e-17
1.6628501e-17
1.6193136e-17
1.4536842e-17
9.978366e-18
3.0325849e-18
7.8857394e-20
1.0394794e-25
5.0395452e-27
7.3890167e-21
3.39276e-19
1.182127e-18
1.7536919e-18
1.9641278e-18
2.0200496e-18
2.0301581e-18
2.0297899e-18
2.0284716e-18
2.0284323e-18
2.0296747e-18
2.0299751e-18
2.0198111e-18
1.9638532e-18
1.7534202e-18
1.1819332e-18
3.3921744e-19
7.3875836e-21
5.0383832e-27
2.3441108e-28
6.633283e-22
3.6336852e-20
1.3402281e-19
2.0244098e-19
2.2795786e-19
2.3480856e-19
2.3608723e-19
2.360778e-19
2.3593539e-19
2.3593048e-19
2.360634e-19
2.360643e-19
2.3477858e-19
2.2792326e-19
2.0240671e-19
1.339986e-19
3.6329897e-20
6.6318603e-22
2.3435264e-28
1.0474806e-29
5.7134006e-23
3.7311855e-21
1.4563482e-20
2.2395921e-20
2.535397e-20
2.6155441e-20
2.6309028e-20
2.6311349e-20
2.6296542e-20
2.6295952e-20
2.6309614e-20
2.6306257e-20
2.615181e-20
2.5349766e-20
2.2391754e-20
1.4560566e-20
3.7303893e-21
5.7120402e-23
1.0471958e-29
4.5018454e-31
4.727262e-24
3.6779108e-22
1.5187399e-21
2.377542e-21
2.7058855e-21
2.7955885e-21
2.8131627e-21
2.8137456e-21
2.8122601e-21
2.812192e-21
2.8135446e-21
2.8128409e-21
2.7951655e-21
2.7053942e-21
2.3770544e-21
1.5184024e-21
3.6770356e-22
4.7260121e-24
4.5002028e-31
2.1764256e-32
3.7615843e-25
3.4843922e-23
1.5218012e-22
2.4249547e-22
2.7744309e-22
2.8706339e-22
2.889839e-22
2.8907627e-22
2.8893261e-22
2.8892505e-22
2.8905397e-22
2.8894809e-22
2.8701616e-22
2.7738802e-22
2.4244082e-22
1.5214271e-22
3.4834704e-23
3.7604825e-25
1.8617936e-32
1.9372186e-33
2.8817068e-26
3.1762152e-24
1.4668328e-23
2.3789713e-23
2.7361171e-23
2.835124e-23
2.855211e-23
2.85643e-23
2.8550909e-23
2.8550109e-23
2.8561934e-23
2.8548304e-23
2.8346201e-23
2.7355278e-23
2.378386e-23
1.4664366e-23
3.1752885e-24
2.8807669e-26
7.4225778e-34
2.0376879e-34
2.1276119e-27
2.7887302e-25
1.3614852e-24
2.2472324e-24
2.5980994e-24
2.6960063e-24
2.7161526e-24
2.7175917e-24
2.7163894e-24
2.7163087e-24
2.7173524e-24
2.7157668e-24
2.695494e-24
2.5974981e-24
2.246635e-24
1.3610852e-24
2.7878415e-25
2.126831e-27
2.8543637e-35
1.8483905e-35
1.5153684e-28
2.3607306e-26
1.2181147e-25
2.0460425e-25
2.377785e-25
2.4709302e-25
2.4903375e-25
2.4919044e-25
2.4908641e-25
2.4907862e-25
2.4916737e-25
2.4899648e-25
2.4704341e-25
2.3772008e-25
2.0454619e-25
1.2177305e-25
2.3599186e-26
1.5147391e-28
1.0596967e-36
1.432595e-36
1.0421309e-29
1.9285653e-27
1.0515119e-26
1.7972061e-26
2.0993963e-26
2.1847443e-26
2.2027264e-26
2.2043252e-26
2.2034574e-26
2.2033858e-26
2.2041135e-26
2.2023835e-26
2.1842863e-26
2.0988558e-26
1.7966689e-26
1.0511606e-26
1.9278588e-27
1.0416428e-29
3.8013448e-38
9.8422454e-38
6.9259136e-31
1.5217799e-28
8.7654669e-28
1.5243424e-27
1.7898086e-27
1.8652067e-27
1.8812534e-27
1.8827966e-27
1.8820984e-27
1.8820359e-27
1.8826111e-27
1.8809525e-27
1.8648038e-27
1.7893319e-27
1.5238688e-27
8.7624056e-28
1.5211938e-28
6.9222924e-31
1.3186278e-39
5.9649446e-39
4.4517814e-32
1.160804e-29
7.062085e-29
1.2494862e-28
1.4745934e-28
1.5388745e-28
1.5526811e-28
1.5540986e-28
1.553557e-28
1.5535046e-28
1.5539435e-28
1.552429e-28
1.538536e-28
1.4741922e-28
1.249088e-28
7.0595429e-29
1.1603405e-29
4.449223e-32
4.4265289e-41
3.0787113e-40
2.7696382e-33
8.5663452e-31
5.5033865e-30
9.9057512e-30
1.1749909e-29
1.2279266e-29
1.2393926e-29
1.240637e-29
1.2402317e-29
1.2401898e-29
1.2405128e-29
1.2391905e-29
1.2276548e-29
1.1746683e-29
9.9025534e-30
5.5013699e-30
8.5628453e-31
2.7679273e-33
1.4390251e-42
1.2348358e-41
1.668996e-34
6.1204423e-32
4.1513514e-31
7.6010617e-31
9.0618632e-31
9.4832912e-31
9.5752847e-31
9.585759e-31
9.5828311e-31
9.58251e-31
9.584806e-31
9.5737324e-31
9.4812011e-31
9.0593811e-31
7.5986048e-31
4.1498214e-31
6.1179161e-32
1.6679209e-34
4.5334358e-44
3.8143762e-43
9.7481648e-36
4.2366595e-33
3.0333108e-32
5.6493485e-32
6.7690539e-32
7.0936539e-32
7.165022e-32
7.1734935e-32
7.171452e-32
7.1712157e-32
7.1727914e-32
7.1638773e-32
7.0921129e-32
6.7672225e-32
5.6475396e-32
3.0321986e-32
4.2349141e-33
9.741861e-36
1.3848814e-45
2.8270413e-44
5.5220773e-37
2.8431694e-34
2.148328e-33
4.06958e-33
4.9006782e-33
5.142752e-33
5.1963295e-33
5.202926e-33
5.2015515e-33
5.201384e-33
5.2024291e-33
5.1955182e-33
5.1416591e-33
4.8993801e-33
4.0683015e-33
2.1475527e-33
2.842013e-34
5.5186154e-37
2.4864002e-45
9.8172985e-46
3.0356759e-38
1.8509202e-35
1.4757486e-34
2.8431613e-34
3.4409349e-34
3.615849e-34
3.6548015e-34
3.6597544e-34
3.6588602e-34
3.6587462e-34
3.6594156e-34
3.654248e-34
3.6151032e-34
3.4400494e-34
2.8422924e-34
1.475229e-34
1.8501845e-35
3.0338716e-38
7.9902571e-47
)
;

boundaryField
{
    Wall
    {
        type            zeroGradient;
    }
    frontAndBack
    {
        type            empty;
    }
    atmosphere
    {
        type            zeroGradient;
    }
}


// ************************************************************************* //
