/*--------------------------------*- C++ -*----------------------------------*\
| =========                 |                                                 |
| \\      /  F ield         | OpenFOAM: The Open Source CFD Toolbox           |
|  \\    /   O peration     | Version:  3.0.1                                 |
|   \\  /    A nd           | Web:      www.OpenFOAM.org                      |
|    \\/     M anipulation  |                                                 |
\*---------------------------------------------------------------------------*/
FoamFile
{
    version     2.0;
    format      ascii;
    class       volScalarField;
    location    "45";
    object      Psi2;
}
// * * * * * * * * * * * * * * * * * * * * * * * * * * * * * * * * * * * * * //

dimensions      [0 -2 2 0 0 0 0];

internalField   nonuniform List<scalar> 
800
(
0.00049387842
0.00049384086
0.00049383858
0.00049384044
0.00049384191
0.00049384274
0.00049384315
0.00049384334
0.00049384342
0.00049384344
0.00049384344
0.00049384342
0.00049384334
0.00049384315
0.00049384274
0.0004938419
0.00049384044
0.00049383858
0.00049384086
0.00049387842
0.00049421554
0.00049403736
0.00049398994
0.0004939772
0.00049397485
0.00049397537
0.00049397642
0.00049397728
0.00049397784
0.00049397812
0.00049397812
0.00049397785
0.00049397729
0.00049397642
0.00049397538
0.00049397485
0.0004939772
0.00049398995
0.00049403737
0.00049421556
0.00049579302
0.0004954666
0.00049534956
0.00049531387
0.0004953045
0.00049530349
0.0004953047
0.00049530608
0.00049530707
0.00049530757
0.00049530757
0.00049530707
0.00049530609
0.00049530471
0.0004953035
0.00049530452
0.00049531389
0.00049534958
0.00049546662
0.00049579306
0.00049794
0.00049747686
0.00049728578
0.00049722544
0.00049720819
0.00049720513
0.00049720624
0.00049720797
0.00049720932
0.00049721001
0.00049721001
0.00049720932
0.00049720798
0.00049720625
0.00049720515
0.00049720821
0.00049722547
0.00049728581
0.0004974769
0.00049794007
0.00050030451
0.00049972321
0.00049946198
0.00049937783
0.00049935315
0.00049934812
0.00049934904
0.00049935104
0.00049935267
0.00049935351
0.00049935352
0.00049935267
0.00049935105
0.00049934906
0.00049934815
0.00049935318
0.00049937786
0.00049946203
0.00049972327
0.00050030459
0.0005026609
0.00050198841
0.00050166565
0.00050156024
0.00050152983
0.00050152353
0.00050152453
0.00050152684
0.00050152876
0.00050152976
0.00050152976
0.00050152877
0.00050152686
0.00050152455
0.00050152356
0.00050152986
0.00050156028
0.0005016657
0.00050198848
0.000502661
0.00050482411
0.00050409435
0.00050372272
0.00050360013
0.00050356658
0.00050356029
0.00050356194
0.00050356483
0.00050356715
0.00050356833
0.00050356833
0.00050356716
0.00050356485
0.00050356196
0.00050356032
0.00050356661
0.00050360017
0.00050372278
0.00050409442
0.00050482422
0.0005066376
0.00050588781
0.00050548375
0.00050534923
0.00050531575
0.00050531114
0.00050531429
0.00050531818
0.00050532109
0.00050532253
0.00050532253
0.0005053211
0.00050531819
0.00050531431
0.00050531118
0.0005053158
0.00050534928
0.00050548381
0.00050588788
0.00050663771
0.00050799081
0.00050725416
0.00050683644
0.00050669567
0.00050666532
0.00050666402
0.00050666949
0.00050667479
0.00050667849
0.00050668027
0.00050668028
0.0005066785
0.00050667481
0.00050666951
0.00050666405
0.00050666536
0.00050669572
0.0005068365
0.00050725423
0.00050799092
0.0005088227
0.0005081264
0.00050771535
0.00050757449
0.00050755021
0.00050755395
0.00050756276
0.00050757005
0.00050757485
0.0005075771
0.0005075771
0.00050757486
0.00050757007
0.00050756278
0.00050755398
0.00050755025
0.00050757453
0.00050771541
0.00050812647
0.00050882279
0.00050910928
0.00050846913
0.00050808415
0.00050794884
0.00050793278
0.00050794284
0.00050795586
0.00050796563
0.00050797176
0.00050797459
0.00050797459
0.00050797177
0.00050796565
0.00050795588
0.00050794286
0.00050793281
0.00050794888
0.00050808419
0.00050846918
0.00050910936
0.0005087047
0.00050828674
0.00050794549
0.00050782089
0.00050781477
0.00050783214
0.00050785022
0.00050786293
0.00050787061
0.00050787414
0.00050787414
0.00050787062
0.00050786295
0.00050785023
0.00050783216
0.0005078148
0.00050782092
0.00050794553
0.00050828679
0.00050870476
0.00050765688
0.00050727368
0.0005070112
0.00050690587
0.00050690998
0.00050693507
0.00050695997
0.00050697664
0.00050698629
0.00050699073
0.00050699073
0.0005069863
0.00050697665
0.00050695999
0.00050693509
0.00050691001
0.0005069059
0.00050701123
0.00050727372
0.00050765693
0.00050597921
0.0005056242
0.00050545344
0.00050537175
0.00050538374
0.00050541505
0.00050544813
0.00050546946
0.00050548137
0.0005054869
0.0005054869
0.00050548137
0.00050546947
0.00050544814
0.00050541506
0.00050538376
0.00050537177
0.00050545346
0.00050562422
0.00050597925
0.00050372841
0.00050338788
0.00050331111
0.00050325657
0.00050327314
0.0005033088
0.00050335165
0.0005033785
0.00050339304
0.00050339985
0.00050339985
0.00050339304
0.00050337851
0.00050335165
0.0005033088
0.00050327315
0.00050325658
0.00050331113
0.00050338789
0.00050372844
0.00050097934
0.00050062167
0.0005006293
0.00050060417
0.00050062156
0.00050066001
0.00050071435
0.00050074779
0.00050076563
0.00050077372
0.00050077372
0.00050076563
0.0005007478
0.00050071435
0.00050066001
0.00050062157
0.00050060417
0.00050062931
0.00050062168
0.00050097935
0.00049781277
0.00049738858
0.00049745896
0.00049746306
0.00049747725
0.0004975177
0.00049758564
0.00049762699
0.00049764923
0.00049765811
0.00049765811
0.00049764923
0.000497627
0.00049758565
0.0004975177
0.00049747725
0.00049746306
0.00049745896
0.00049738858
0.00049781277
0.00049431363
0.00049375831
0.00049385845
0.00049388749
0.00049389395
0.00049393677
0.0004940215
0.0004940723
0.00049410062
0.00049410896
0.00049410896
0.00049410062
0.00049407231
0.00049402151
0.00049393677
0.00049389395
0.00049388748
0.00049385844
0.0004937583
0.00049431363
0.00049057491
0.00048980882
0.00048989557
0.00048993952
0.0004899325
0.0004899797
0.000490086
0.00049014802
0.00049018491
0.00049019029
0.00049019028
0.00049018492
0.00049014803
0.00049008601
0.0004899797
0.0004899325
0.00048993952
0.00048989557
0.0004898088
0.0004905749
0.00048670475
0.00048563217
0.00048565313
0.00048569479
0.00048566649
0.00048572189
0.00048585604
0.0004859311
0.00048598008
0.00048597895
0.00048597895
0.00048598009
0.0004859311
0.00048585604
0.00048572189
0.00048566649
0.00048569478
0.00048565312
0.00048563215
0.00048670474
0.00048282835
0.00048133696
0.00048123176
0.00048124653
0.00048118729
0.00048125637
0.00048142534
0.00048151521
0.00048158081
0.00048156885
0.00048156885
0.00048158082
0.00048151522
0.00048142535
0.00048125638
0.00048118729
0.00048124653
0.00048123175
0.00048133695
0.00048282834
0.00047907262
0.00047703411
0.00047673443
0.00047669082
0.00047658945
0.00047667842
0.00047688872
0.00047699499
0.00047708221
0.00047705483
0.00047705483
0.00047708221
0.000476995
0.00047688874
0.00047667842
0.00047658945
0.00047669082
0.00047673443
0.00047703411
0.00047907262
0.00047556945
0.00047283803
0.00047226647
0.00047212697
0.00047197066
0.00047208537
0.00047234227
0.00047246637
0.00047257965
0.00047253264
0.00047253264
0.00047257966
0.00047246639
0.00047234228
0.00047208538
0.00047197067
0.00047212697
0.00047226647
0.00047283803
0.00047556947
0.00047246141
0.00046887316
0.00046794131
0.00046766378
0.00046743705
0.00046758228
0.00046788956
0.00046803282
0.00046817447
0.00046810464
0.00046810464
0.00046817449
0.00046803284
0.00046788958
0.0004675823
0.00046743706
0.00046766379
0.00046794131
0.00046887316
0.00047246143
0.00046989716
0.00046526544
0.00046386948
0.00046340677
0.00046308958
0.00046326848
0.00046362894
0.00046379265
0.00046396179
0.00046386729
0.0004638673
0.00046396181
0.00046379268
0.00046362896
0.00046326851
0.0004630896
0.00046340678
0.0004638695
0.00046526545
0.00046989718
0.00046805146
0.00046215699
0.00046017391
0.00045947128
0.00045903807
0.00045925083
0.00045966648
0.0004598519
0.00046004397
0.00045992445
0.00045992446
0.00046004399
0.00045985193
0.00045966651
0.00045925085
0.0004590381
0.0004594713
0.00046017393
0.000462157
0.00046805148
0.0004671372
0.00045971388
0.00045699621
0.00045598613
0.00045540564
0.00045564782
0.00045611943
0.00045632797
0.00045653526
0.00045639183
0.00045639184
0.00045653528
0.00045632801
0.00045611946
0.00045564785
0.00045540567
0.00045598615
0.00045699623
0.00045971388
0.0004671372
0.00046742793
0.0004581358
0.00045450255
0.0004530959
0.00045233083
0.00045259076
0.00045311648
0.00045334985
0.00045356265
0.00045339774
0.00045339775
0.00045356267
0.00045334988
0.00045311652
0.00045259079
0.00045233086
0.00045309592
0.00045450257
0.00045813579
0.0004674279
0.00046929445
0.00045768593
0.00045290476
0.00045098209
0.00044998693
0.00045024202
0.00045081568
0.00045107589
0.0004512841
0.00045110128
0.00045110129
0.00045128412
0.00045107593
0.00045081572
0.00045024206
0.00044998696
0.00045098211
0.00045290477
0.00045768589
0.00046929437
0.000473261
0.00045873116
0.00045248637
0.00044988847
0.00044860218
0.00044881614
0.00044942647
0.00044971622
0.00044991125
0.00044971501
0.00044971502
0.00044991127
0.00044971626
0.0004494265
0.00044881617
0.0004486022
0.00044988847
0.00045248635
0.00045873108
0.00047326083
0.0004800955
0.00046180175
0.00045365011
0.00045016353
0.00044849393
0.0004486131
0.0004492467
0.00044957009
0.00044974659
0.00044954214
0.00044954215
0.0004497466
0.00044957012
0.00044924672
0.00044861313
0.00044849394
0.00045016351
0.00045365004
0.00046180158
0.00048009518
0.00049094774
0.00046768121
0.00045698052
0.00045231279
0.00045012001
0.00045006575
0.00045070876
0.00045107734
0.00045123454
0.0004510279
0.00045102791
0.00045123455
0.00045107736
0.00045070878
0.00045006576
0.00045011999
0.00045231273
0.00045698039
0.00046768089
0.00049094717
0.00050759788
0.00047753901
0.00046334272
0.00045707778
0.00045415807
0.00045381464
0.00045444643
0.00045488818
0.0004550307
0.00045482891
0.00045482892
0.0004550307
0.00045488819
0.00045444642
0.00045381462
0.00045415802
0.00045707765
0.00046334246
0.00047753845
0.00050759689
0.00053281903
0.00049315803
0.00047405658
0.00046557721
0.00046163094
0.0004608321
0.00046142497
0.00046196944
0.00046210766
0.00046191928
0.00046191928
0.00046210765
0.00046196944
0.00046142494
0.00046083204
0.00046163082
0.000465577
0.00047405615
0.00049315708
0.00053281737
0.0005709287
0.00051731856
0.00049118361
0.00047954439
0.00047411268
0.00047264341
0.0004731363
0.00047378072
0.00047393124
0.00047376732
0.00047376732
0.00047393121
0.00047378069
0.00047313623
0.00047264329
0.00047411249
0.00047954403
0.00049118294
0.00051731702
0.00057092594
0.0006287232
0.00055437849
0.00051798473
0.00050176168
0.00049407948
0.00049163744
0.00049189287
0.00049257867
0.00049276418
0.00049264
0.00049263999
0.00049276414
0.00049257859
0.00049189274
0.00049163725
0.00049407916
0.00050176112
0.00051798368
0.00055437612
0.00062871873
0.00071638725
0.0006110745
0.00055970092
0.00053667622
0.0005255565
0.00052155971
0.00052133621
0.00052198304
0.00052223275
0.00052217081
0.00052217079
0.00052223267
0.0005219829
0.00052133599
0.0005215594
0.00052555601
0.00053667539
0.00055969935
0.00061107097
0.00071638026
0.0008505781
0.00069846611
0.00062490952
0.0005914596
0.00057497474
0.00056839914
0.00056731814
0.00056765641
0.00056799967
0.00056803189
0.00056803185
0.00056799954
0.00056765618
0.00056731781
0.00056839867
0.00057497402
0.00059145837
0.00062490721
0.00069846092
0.00085056733
0.0010618872
0.00083523049
0.00072771552
0.00067787535
0.00065278005
0.00064194836
0.0006394152
0.0006386362
0.00063910739
0.00063928693
0.00063928687
0.0006391072
0.00063863585
0.00063941473
0.00064194768
0.00065277901
0.00067787358
0.00072771218
0.00083522265
0.001061869
0.0013348377
0.0010498234
0.00090435222
0.00083254379
0.00079731879
0.00077909071
0.00077492389
0.00077283564
0.00077381478
0.00077438733
0.00077438727
0.00077381458
0.00077283529
0.00077492343
0.00077909001
0.00079731768
0.00083254177
0.00090434811
0.0010498125
0.001334808
)
;

boundaryField
{
    Wall
    {
        type            calculated;
        value           nonuniform List<scalar> 
100
(
9.9999987e-21
9.9999987e-21
9.9999987e-21
9.9999987e-21
9.9999987e-21
9.9999987e-21
9.9999987e-21
9.9999986e-21
9.9999986e-21
9.9999986e-21
9.9999986e-21
9.9999986e-21
9.9999985e-21
9.9999985e-21
9.9999985e-21
9.9999984e-21
9.9999984e-21
9.9999983e-21
9.9999983e-21
9.9999982e-21
9.9999981e-21
9.9999981e-21
9.999998e-21
9.9999979e-21
9.9999978e-21
9.9999977e-21
9.9999976e-21
9.9999975e-21
9.9999974e-21
9.9999972e-21
9.9999971e-21
9.999997e-21
9.9999968e-21
9.9999967e-21
9.9999965e-21
9.9999964e-21
9.9999964e-21
9.9999967e-21
9.9999976e-21
9.9999987e-21
9.9999987e-21
9.9999987e-21
9.9999987e-21
9.9999987e-21
9.9999987e-21
9.9999987e-21
9.9999987e-21
9.9999986e-21
9.9999986e-21
9.9999986e-21
9.9999986e-21
9.9999985e-21
9.9999985e-21
9.9999985e-21
9.9999985e-21
9.9999984e-21
9.9999984e-21
9.9999983e-21
9.9999983e-21
9.9999982e-21
9.9999981e-21
9.9999981e-21
9.999998e-21
9.9999979e-21
9.9999978e-21
9.9999977e-21
9.9999976e-21
9.9999975e-21
9.9999974e-21
9.9999972e-21
9.9999971e-21
9.999997e-21
9.9999968e-21
9.9999967e-21
9.9999965e-21
9.9999964e-21
9.9999964e-21
9.9999967e-21
9.9999976e-21
9.9999987e-21
9.9999987e-21
9.9999987e-21
9.9999987e-21
9.9999987e-21
9.9999987e-21
9.9999987e-21
9.9999987e-21
9.9999987e-21
9.9999987e-21
9.9999987e-21
9.9999987e-21
9.9999987e-21
9.9999987e-21
9.9999987e-21
9.9999987e-21
9.9999987e-21
9.9999987e-21
9.9999987e-21
9.9999987e-21
9.9999987e-21
)
;
    }
    frontAndBack
    {
        type            empty;
    }
    atmosphere
    {
        type            calculated;
        value           uniform 1e-20;
    }
}


// ************************************************************************* //
