/*--------------------------------*- C++ -*----------------------------------*\
| =========                 |                                                 |
| \\      /  F ield         | OpenFOAM: The Open Source CFD Toolbox           |
|  \\    /   O peration     | Version:  3.0.1                                 |
|   \\  /    A nd           | Web:      www.OpenFOAM.org                      |
|    \\/     M anipulation  |                                                 |
\*---------------------------------------------------------------------------*/
FoamFile
{
    version     2.0;
    format      ascii;
    class       volScalarField;
    location    "6";
    object      mTwo;
}
// * * * * * * * * * * * * * * * * * * * * * * * * * * * * * * * * * * * * * //

dimensions      [0 0 0 0 0 0 0];

internalField   nonuniform List<scalar> 
800
(
8.1077976e-15
8.1071227e-15
8.1068668e-15
8.1068416e-15
8.1068316e-15
8.1068214e-15
8.1068123e-15
8.1068056e-15
8.1068009e-15
8.1067984e-15
8.1067985e-15
8.1068009e-15
8.1068055e-15
8.1068124e-15
8.1068216e-15
8.1068316e-15
8.1068418e-15
8.106867e-15
8.1071227e-15
8.1077977e-15
1.6971433e-15
1.6979628e-15
1.698578e-15
1.6989327e-15
1.6991194e-15
1.6992249e-15
1.6992888e-15
1.6993288e-15
1.6993526e-15
1.6993638e-15
1.6993638e-15
1.6993525e-15
1.6993286e-15
1.6992887e-15
1.6992247e-15
1.6991191e-15
1.6989325e-15
1.6985777e-15
1.6979624e-15
1.697143e-15
1.5712627e-16
1.5715548e-16
1.5714323e-16
1.5712398e-16
1.5710646e-16
1.5709161e-16
1.5708001e-16
1.5707164e-16
1.5706625e-16
1.5706362e-16
1.5706363e-16
1.5706627e-16
1.5707166e-16
1.5708005e-16
1.5709166e-16
1.5710651e-16
1.5712404e-16
1.5714329e-16
1.5715556e-16
1.5712635e-16
1.196558e-17
1.244934e-17
1.2475031e-17
1.2476148e-17
1.2475405e-17
1.2474446e-17
1.2473611e-17
1.2472988e-17
1.247258e-17
1.2472373e-17
1.2472373e-17
1.2472579e-17
1.2472988e-17
1.2473611e-17
1.2474446e-17
1.2475405e-17
1.2476147e-17
1.2475028e-17
1.2449337e-17
1.1965576e-17
8.811219e-19
1.1623619e-18
1.1968645e-18
1.2002135e-18
1.2001838e-18
1.1998712e-18
1.1996105e-18
1.19943e-18
1.1993184e-18
1.1992629e-18
1.1992625e-18
1.1993174e-18
1.1994287e-18
1.1996088e-18
1.1998691e-18
1.200181e-18
1.2002095e-18
1.1968588e-18
1.1623548e-18
8.8111518e-19
6.2852929e-20
1.2264575e-19
1.3212002e-19
1.3310093e-19
1.3309689e-19
1.3300934e-19
1.3293691e-19
1.3288757e-19
1.3285766e-19
1.3284331e-19
1.3284321e-19
1.3285738e-19
1.3288715e-19
1.3293636e-19
1.3300864e-19
1.3309596e-19
1.3309961e-19
1.3211818e-19
1.2264346e-19
6.2851337e-20
4.272508e-21
1.238325e-20
1.3980095e-20
1.4154621e-20
1.4154252e-20
1.4137819e-20
1.4123871e-20
1.4114241e-20
1.4108371e-20
1.4105571e-20
1.410555e-20
1.4108311e-20
1.4114149e-20
1.4123753e-20
1.413767e-20
1.4154058e-20
1.4154353e-20
1.3979724e-20
1.2382807e-20
4.2723009e-21
2.724276e-22
1.1481914e-21
1.3556594e-21
1.3795693e-21
1.3797137e-21
1.3774436e-21
1.3754352e-21
1.3740181e-21
1.3731437e-21
1.3727252e-21
1.3727218e-21
1.3731337e-21
1.3740027e-21
1.3754156e-21
1.3774197e-21
1.3796837e-21
1.3795292e-21
1.3556055e-21
1.1481303e-21
2.7240853e-22
1.6279026e-23
9.7785575e-23
1.2047382e-22
1.2322915e-22
1.2328232e-22
1.2303231e-22
1.2279965e-22
1.2263148e-22
1.2252625e-22
1.2247557e-22
1.224751e-22
1.2252487e-22
1.2262938e-22
1.2279702e-22
1.2302919e-22
1.2327859e-22
1.232244e-22
1.204677e-22
9.7779051e-23
1.6277646e-23
9.1412708e-25
7.7087857e-24
9.8937319e-24
1.0172803e-23
1.018254e-23
1.0159318e-23
1.0136446e-23
1.0119507e-23
1.0108762e-23
1.0103551e-23
1.0103495e-23
1.01086e-23
1.0119261e-23
1.0136142e-23
1.0158968e-23
1.018214e-23
1.0172323e-23
9.8931475e-24
7.7082086e-24
9.1404343e-25
4.8411408e-26
5.6687081e-25
7.570294e-25
7.8249997e-25
7.8379269e-25
7.8190547e-25
7.7992724e-25
7.7842747e-25
7.7746379e-25
7.7699327e-25
7.7698752e-25
7.774471e-25
7.7840209e-25
7.7989604e-25
7.8187033e-25
7.8375402e-25
7.8245627e-25
7.5697956e-25
5.6682582e-25
4.840689e-26
2.4274123e-27
3.9145233e-26
5.435102e-26
5.6480068e-26
5.6620073e-26
5.6482581e-26
5.6328262e-26
5.620863e-26
5.6130867e-26
5.6092659e-26
5.6092127e-26
5.6129327e-26
5.6206284e-26
5.632538e-26
5.6479364e-26
5.6616621e-26
5.6476343e-26
5.4347029e-26
3.9141948e-26
2.4271803e-27
1.1568673e-28
2.553231e-27
3.6834933e-27
3.8484063e-27
3.8615068e-27
3.8523796e-27
3.8413284e-27
3.8325766e-27
3.8268292e-27
3.8239894e-27
3.8239453e-27
3.8267013e-27
3.8323809e-27
3.8410865e-27
3.8521094e-27
3.8612195e-27
3.848104e-27
3.6831836e-27
2.5529962e-27
1.1567482e-28
5.2597207e-30
1.580863e-28
2.3686931e-28
2.488141e-28
2.4990921e-28
2.4935105e-28
2.4861496e-28
2.4801996e-28
2.4762564e-28
2.4742987e-28
2.4742656e-28
2.4761601e-28
2.4800515e-28
2.4859649e-28
2.4933024e-28
2.4988701e-28
2.4879088e-28
2.36846e-28
1.5806968e-28
5.2591042e-30
2.2889622e-31
9.331876e-30
1.4516939e-29
1.5331819e-29
1.5415385e-29
1.538372e-29
1.5337669e-29
1.5299692e-29
1.5274318e-29
1.5261671e-29
1.5261444e-29
1.5273658e-29
1.5298669e-29
1.5336381e-29
1.5382253e-29
1.5413802e-29
1.533015e-29
1.451527e-29
9.3307338e-30
2.2886481e-31
9.5635973e-33
5.2715326e-31
8.5116048e-31
9.038299e-31
9.0973844e-31
9.0806605e-31
9.0533904e-31
9.0304535e-31
9.0150162e-31
9.0072973e-31
9.0071548e-31
9.014601e-31
9.0298056e-31
9.0525661e-31
9.0797097e-31
9.0963439e-31
9.0371882e-31
8.5104864e-31
5.2707882e-31
9.5620729e-33
3.8466188e-34
2.8589467e-32
4.7901356e-32
5.1142473e-32
5.1533768e-32
5.1451536e-32
5.1297772e-32
5.1165862e-32
5.1076488e-32
5.1031681e-32
5.1030849e-32
5.1074058e-32
5.1162049e-32
5.1292879e-32
5.1445831e-32
5.1527442e-32
5.1135625e-32
4.7894391e-32
2.8584936e-32
3.8459271e-34
1.4929741e-35
1.4928113e-33
2.5949478e-33
2.7856198e-33
2.8100909e-33
2.8063438e-33
2.7980483e-33
2.7907884e-33
2.7858386e-33
2.7833516e-33
2.7833058e-33
2.7857044e-33
2.790577e-33
2.7977752e-33
2.8060226e-33
2.8097309e-33
2.7852255e-33
2.5945434e-33
1.4925542e-33
1.4926819e-35
5.6035983e-37
7.5233535e-35
1.3565759e-34
1.464186e-34
1.4787298e-34
1.477167e-34
1.4728682e-34
1.4690287e-34
1.4663952e-34
1.4650694e-34
1.4650452e-34
1.4663241e-34
1.4689164e-34
1.4727225e-34
1.4769946e-34
1.4785351e-34
1.463971e-34
1.3563543e-34
7.5219819e-35
5.6024395e-37
2.0377447e-38
3.6675575e-36
6.8589047e-36
7.4432885e-36
7.5258506e-36
7.5200577e-36
7.4985906e-36
7.4790121e-36
7.4655046e-36
7.458691e-36
7.4585655e-36
7.4651366e-36
7.4784292e-36
7.4978322e-36
7.5191568e-36
7.5248297e-36
7.4421584e-36
6.8577404e-36
3.6668593e-36
2.0373073e-38
7.1918304e-40
1.7327849e-37
3.3605582e-37
3.6667219e-37
3.7116738e-37
3.7099108e-37
3.6995528e-37
3.6898998e-37
3.6832014e-37
3.6798153e-37
3.6797508e-37
3.6830123e-37
3.6895998e-37
3.6991616e-37
3.7094453e-37
3.7111459e-37
3.6661385e-37
3.3599611e-37
1.73244e-37
7.1902295e-40
2.4671611e-41
7.9481362e-39
1.5983457e-38
1.7534442e-38
1.776998e-38
1.7766877e-38
1.7718478e-38
1.7672353e-38
1.7640158e-38
1.7623846e-38
1.7623515e-38
1.7639188e-38
1.7670811e-38
1.7716463e-38
1.7764476e-38
1.7767258e-38
1.7531447e-38
1.5980426e-38
7.9464587e-39
2.4665842e-41
8.2379122e-43
3.5449429e-40
7.3910801e-40
8.1523317e-40
8.271446e-40
8.2725199e-40
8.2505774e-40
8.2291744e-40
8.2141478e-40
8.2065144e-40
8.2063458e-40
8.2136527e-40
8.2283861e-40
8.2495436e-40
8.2712853e-40
8.2700463e-40
8.1507988e-40
7.3895487e-40
3.544133e-40
8.2358461e-43
2.6805938e-44
1.5394895e-41
3.3275717e-41
3.6902169e-41
3.7484965e-41
3.7501359e-41
3.7404683e-41
3.7308082e-41
3.7239856e-41
3.7205103e-41
3.7204256e-41
3.7237367e-41
3.7304106e-41
3.7399449e-41
3.7495086e-41
3.7477844e-41
3.6894398e-41
3.3268045e-41
1.5391017e-41
2.6798579e-44
8.5097766e-46
6.5178884e-43
1.4604002e-42
1.6283383e-42
1.6559841e-42
1.6572215e-42
1.6530763e-42
1.6488292e-42
1.6458117e-42
1.6442703e-42
1.6442289e-42
1.6456897e-42
1.6486337e-42
1.6528176e-42
1.6569099e-42
1.6556295e-42
1.6279519e-42
1.4600222e-42
6.5160574e-43
8.5071901e-46
2.6382166e-47
2.6933036e-44
6.2550378e-44
7.0121092e-44
7.1394859e-44
7.147045e-44
7.129729e-44
7.1115174e-44
7.0985009e-44
7.0918333e-44
7.0916374e-44
7.0979227e-44
7.1105877e-44
7.1284925e-44
7.1455478e-44
7.1377746e-44
7.0102422e-44
6.2532229e-44
2.6924589e-44
2.6374133e-47
7.9949369e-49
1.0873031e-45
2.6172368e-45
2.9498875e-45
3.0069814e-45
3.011106e-45
3.004051e-45
2.9964263e-45
2.990944e-45
2.9881285e-45
2.9880395e-45
2.9906807e-45
2.9960011e-45
3.0034826e-45
3.0104137e-45
3.0061859e-45
2.9490174e-45
2.6163943e-45
1.0869252e-45
7.9921789e-49
2.3702439e-50
4.2924066e-47
1.0708078e-46
1.2134318e-46
1.2383625e-46
1.24045e-46
1.237644e-46
1.2345241e-46
1.2322675e-46
1.2311059e-46
1.231067e-46
1.2321524e-46
1.2343375e-46
1.2373933e-46
1.2401428e-46
1.2380075e-46
1.213042e-46
1.0704313e-46
4.2907758e-47
2.3691087e-50
6.879732e-52
1.6584344e-48
4.2874591e-48
4.8847572e-48
4.9909436e-48
5.0009278e-48
4.9900246e-48
4.9775361e-48
4.9684506e-48
4.9637639e-48
4.9636009e-48
4.9679671e-48
4.9767499e-48
4.988963e-48
4.9996197e-48
4.9894232e-48
4.8830813e-48
4.2858425e-48
1.6577573e-48
6.8750625e-52
1.9563745e-53
6.2758732e-50
1.6812863e-49
1.9258464e-49
1.9700106e-49
1.974573e-49
1.9704309e-49
1.9655368e-49
1.9619556e-49
1.960105e-49
1.9600392e-49
1.9617602e-49
1.9652181e-49
1.9699986e-49
1.9740375e-49
1.9693849e-49
1.925154e-49
1.6806192e-49
6.2731697e-50
1.9545139e-53
5.4539448e-55
2.327728e-51
6.4616323e-51
7.4414422e-51
7.6209874e-51
7.6410453e-51
7.6256518e-51
7.6068605e-51
7.5930304e-51
7.5858726e-51
7.5856164e-51
7.5922687e-51
7.6056144e-51
7.6239548e-51
7.6389336e-51
7.6185083e-51
7.4386893e-51
6.458984e-51
2.3266895e-51
5.4468042e-55
1.491414e-56
8.467437e-53
2.4354707e-52
2.8198805e-52
2.8912926e-52
2.8998175e-52
2.894218e-52
2.887144e-52
2.8819076e-52
2.8791939e-52
2.8790973e-52
2.8816201e-52
2.8866727e-52
2.8935741e-52
2.8990132e-52
2.8903449e-52
2.8188254e-52
2.4344577e-52
8.4635943e-53
1.488792e-56
4.002497e-58
3.0226712e-54
9.0078862e-54
1.0485805e-53
1.0763916e-53
1.0799066e-53
1.0779121e-53
1.0752996e-53
1.0733544e-53
1.0723452e-53
1.0723099e-53
1.0732491e-53
1.0751267e-53
1.0776753e-53
1.0796101e-53
1.0760414e-53
1.0481898e-53
9.0041459e-54
3.0212992e-54
3.9934102e-58
1.0545891e-59
1.0594651e-55
3.2711568e-55
3.8283321e-55
3.9344625e-55
3.9485598e-55
3.9416008e-55
3.9321295e-55
3.9250363e-55
3.9213526e-55
3.9212267e-55
3.9246614e-55
3.9315128e-55
3.9407553e-55
3.9474993e-55
3.9332081e-55
3.8269322e-55
3.2698213e-55
1.0589914e-55
1.0516754e-59
2.7287589e-61
3.6480314e-57
1.166915e-56
1.3730149e-56
1.4127274e-56
1.4182386e-56
1.4158594e-56
1.412487e-56
1.4099465e-56
1.4086259e-56
1.4085822e-56
1.4098162e-56
1.4122728e-56
1.4155655e-56
1.4178699e-56
1.4122914e-56
1.3725284e-56
1.1664528e-56
3.646446e-57
2.720451e-61
6.9336465e-63
1.2345519e-58
4.0911053e-58
4.8395281e-58
4.9853264e-58
5.0063627e-58
4.9983904e-58
4.9865917e-58
4.9776497e-58
4.9729973e-58
4.9728487e-58
4.9772073e-58
4.9858645e-58
4.9973945e-58
5.005115e-58
4.9838528e-58
4.8378868e-58
4.0895523e-58
1.2340367e-58
6.9151237e-63
1.7316951e-64
4.1079583e-60
1.4102444e-59
1.6771884e-59
1.7297366e-59
1.7375873e-59
1.7349687e-59
1.7309105e-59
1.727816e-59
1.7262045e-59
1.7261551e-59
1.7276689e-59
1.7306691e-59
1.734639e-59
1.7371756e-59
1.7292519e-59
1.67665e-59
1.4097373e-59
4.1063308e-60
1.7279168e-64
4.2534626e-66
1.3445634e-61
4.7816205e-61
5.7172438e-61
5.9032672e-61
5.9319447e-61
5.9235123e-61
5.9097834e-61
5.8992501e-61
5.8937593e-61
5.8935981e-61
5.8987706e-61
5.9089987e-61
5.922445e-61
5.9306188e-61
5.9017144e-61
5.715526e-61
4.7800113e-61
1.3440634e-61
4.2458034e-66
1.027733e-67
4.3304064e-63
1.5953026e-62
1.9176923e-62
1.9824046e-62
1.9926679e-62
1.9900054e-62
1.9854353e-62
1.9819069e-62
1.9800659e-62
1.9800143e-62
1.9817536e-62
1.9851853e-62
1.989667e-62
1.9922506e-62
1.9819198e-62
1.9171594e-62
1.5948064e-62
4.328913e-63
1.0261919e-67
2.4432245e-69
1.3727499e-64
5.2389114e-64
6.3315033e-64
6.5528268e-64
6.5888452e-64
6.5806027e-64
6.5656285e-64
6.5539929e-64
6.547916e-64
6.5477537e-64
6.5535118e-64
6.5648461e-64
6.5795512e-64
6.5875608e-64
6.5513511e-64
6.3298951e-64
5.2374246e-64
1.3723163e-64
2.4401509e-69
)
;

boundaryField
{
    Wall
    {
        type            zeroGradient;
    }
    frontAndBack
    {
        type            empty;
    }
    atmosphere
    {
        type            zeroGradient;
    }
}


// ************************************************************************* //
