/*--------------------------------*- C++ -*----------------------------------*\
| =========                 |                                                 |
| \\      /  F ield         | OpenFOAM: The Open Source CFD Toolbox           |
|  \\    /   O peration     | Version:  3.0.1                                 |
|   \\  /    A nd           | Web:      www.OpenFOAM.org                      |
|    \\/     M anipulation  |                                                 |
\*---------------------------------------------------------------------------*/
FoamFile
{
    version     2.0;
    format      ascii;
    class       volScalarField;
    location    "6";
    object      mZero;
}
// * * * * * * * * * * * * * * * * * * * * * * * * * * * * * * * * * * * * * //

dimensions      [0 0 0 0 0 0 0];

internalField   nonuniform List<scalar> 
800
(
1e+13
1e+13
1e+13
1e+13
1e+13
1e+13
1e+13
1e+13
1e+13
1e+13
1e+13
1e+13
1e+13
1e+13
1e+13
1e+13
1e+13
1e+13
1e+13
1e+13
1e+13
1e+13
1e+13
1e+13
1e+13
1e+13
1e+13
1e+13
1e+13
1e+13
1e+13
1e+13
1e+13
1e+13
1e+13
1e+13
1e+13
1e+13
1e+13
1e+13
3.1430982e+12
3.1474333e+12
3.1481127e+12
3.1481405e+12
3.1480397e+12
3.1479254e+12
3.1478297e+12
3.1477591e+12
3.1477134e+12
3.1476911e+12
3.1476911e+12
3.1477135e+12
3.1477593e+12
3.1478299e+12
3.1479257e+12
3.1480401e+12
3.1481409e+12
3.1481131e+12
3.1474338e+12
3.1430989e+12
5.6903286e+11
5.9658014e+11
5.9820523e+11
5.9834107e+11
5.9833568e+11
5.9830711e+11
5.9828026e+11
5.9826032e+11
5.9824739e+11
5.9824074e+11
5.9824071e+11
5.982473e+11
5.9826022e+11
5.9828013e+11
5.9830696e+11
5.983355e+11
5.9834081e+11
5.9820482e+11
5.9657958e+11
5.6903224e+11
8.0886388e+10
1.0473798e+11
1.0733293e+11
1.075668e+11
1.0755736e+11
1.0752804e+11
1.0750433e+11
1.0748822e+11
1.0747838e+11
1.0747349e+11
1.0747346e+11
1.0747828e+11
1.0748809e+11
1.0750416e+11
1.0752782e+11
1.0755708e+11
1.075664e+11
1.0733237e+11
1.0473724e+11
8.0885654e+10
9.6237369e+09
1.7495844e+10
1.860574e+10
1.8713207e+10
1.8709225e+10
1.8696144e+10
1.868562e+10
1.8678527e+10
1.8674251e+10
1.8672203e+10
1.8672189e+10
1.867421e+10
1.8678465e+10
1.868554e+10
1.8696042e+10
1.870909e+10
1.8713016e+10
1.8605469e+10
1.7495498e+10
9.6234729e+09
9.6841761e+08
2.4902876e+09
2.7565829e+09
2.7842803e+09
2.7834888e+09
2.7800959e+09
2.7772771e+09
2.7753452e+09
2.7741725e+09
2.7736139e+09
2.7736098e+09
2.7741603e+09
2.7753269e+09
2.7772534e+09
2.7800661e+09
2.7834502e+09
2.7842266e+09
2.7565079e+09
2.490195e+09
9.6836818e+08
83856039
3.0139862e+08
3.4718329e+08
3.5228694e+08
3.5222121e+08
3.5161853e+08
3.5109431e+08
3.5072656e+08
3.5050038e+08
3.5039231e+08
3.5039143e+08
3.5049778e+08
3.5072261e+08
3.5108927e+08
3.5161237e+08
3.5221349e+08
3.5227657e+08
3.4716921e+08
3.0138207e+08
83849930
6402846.9
31796517
38083450
38831776
38837106
38755725
38681035
38627305
38593779
38577660
38577511
38593342
38626640
38680201
38754737
38835922
38830264
38081481
31794337
6402285.7
439775.02
2992318.8
3724142.9
3816688
3819282.4
3810323
3801599.2
3795165.5
3791094.2
3789123.1
3789102.3
3791033.3
3795073
3801484.6
3810191.3
3819131.7
3816506.7
3723919.8
2992089.3
439733.62
27583.7
255657.48
330487.91
340486.4
340964.62
340123.06
339249.16
338589.13
338166
337959.74
337957.24
338158.72
338578.06
339235.56
340107.72
340947.76
340467.27
330465.89
255636.75
27581.062
1598.4884
20096.04
26975.081
27941.215
28004.648
27935.143
27857.71
27797.884
27759.083
27740.049
27739.786
27758.319
27796.722
27856.281
27933.548
28002.938
27939.364
26973.081
20094.322
1598.3325
86.383312
1468.4581
2046.3603
2131.2855
2138.193
2133.0421
2126.8384
2121.9406
2118.731
2117.1477
2117.1233
2118.66
2121.8321
2126.7043
2132.8922
2138.0337
2131.1175
2046.1868
1468.3208
86.37428
4.3859881
100.57582
145.48537
152.36428
153.01772
152.67046
152.21379
151.84566
151.6022
151.48153
151.4795
151.59629
151.83658
152.20247
152.6577
153.0041
152.35001
145.47096
100.56511
4.3854677
0.21051599
6.4999475
9.7587497
10.277366
10.332786
10.311299
10.280035
10.254316
10.237166
10.228633
10.228481
10.236724
10.25363
10.279171
10.310314
10.331724
10.276244
9.7576212
6.4991435
0.21048683
0.0096003842
0.39856485
0.62102247
0.65770772
0.66200746
0.66078112
0.65877207
0.65708576
0.65595305
0.65538765
0.6553773
0.65592281
0.65703859
0.65871202
0.66071182
0.66193166
0.6576267
0.62094045
0.39850806
0.0095988424
0.00041776008
0.02329448
0.037666897
0.040117523
0.040426943
0.040362353
0.040240278
0.04013573
0.040065031
0.040029649
0.040028997
0.040063124
0.040132738
0.040236436
0.040357871
0.040421975
0.040112138
0.037661395
0.02329076
0.00041768448
1.7408736e-05
0.0013027282
0.0021859521
0.0023413796
0.0023622439
0.0023591197
0.0023520651
0.0023458991
0.002341703
0.0023395984
0.00233956
0.0023415901
0.0023457214
0.0023518354
0.0023588494
0.002361941
0.0023410474
0.0021856099
0.0013025022
1.7405308e-05
6.9686981e-07
6.9941864e-05
0.00012178423
0.00013118549
0.000132514
0.00013237721
0.00013198766
0.00013164001
0.000131402
0.00013128239
0.00013128022
0.00013139563
0.00013162995
0.00013197459
0.00013236173
0.00013249654
0.0001311662
0.00012176426
6.9929025e-05
6.9672497e-07
2.6868302e-08
3.6152713e-06
6.5321071e-06
7.0764786e-06
7.1568423e-06
7.1516117e-06
7.1309781e-06
7.1121652e-06
7.0992086e-06
7.0926849e-06
7.0925659e-06
7.098859e-06
7.1116113e-06
7.1302568e-06
7.1507542e-06
7.1558707e-06
7.0754022e-06
6.5309941e-06
3.6145787e-06
2.6862507e-08
1.0000999e-09
1.803602e-07
3.3814794e-07
3.6842123e-07
3.7306222e-07
3.7290514e-07
3.7185344e-07
3.7087303e-07
3.7019386e-07
3.6985117e-07
3.6984471e-07
3.7017487e-07
3.7084292e-07
3.7181413e-07
3.7285832e-07
3.7300912e-07
3.6836251e-07
3.3808765e-07
1.803241e-07
9.9987632e-10
3.6011972e-11
8.7031847e-09
1.6931521e-08
1.8552917e-08
1.880981e-08
1.8807835e-08
1.8756114e-08
1.8706775e-08
1.8672393e-08
1.8655005e-08
1.8654657e-08
1.8671368e-08
1.8705146e-08
1.8753982e-08
1.8805292e-08
1.8806927e-08
1.8549743e-08
1.69283e-08
8.7013379e-09
3.6003522e-11
1.2566998e-12
4.069884e-10
8.2158448e-10
9.0542137e-10
9.1909651e-10
9.1929492e-10
9.1683514e-10
9.1443179e-10
9.1274701e-10
9.1189278e-10
9.1187411e-10
9.1269209e-10
9.1434434e-10
9.1672034e-10
9.1915768e-10
9.1894093e-10
9.0525091e-10
8.214138e-10
4.0689497e-10
1.2563837e-12
4.2568519e-14
1.8475031e-11
3.869997e-11
4.2893864e-11
4.3595922e-11
4.3619484e-11
4.3506142e-11
4.3392604e-11
4.331253e-11
4.327182e-11
4.3270839e-11
4.330964e-11
4.3387988e-11
4.3500059e-11
4.3612186e-11
4.3587638e-11
4.2884821e-11
3.8691027e-11
1.8470357e-11
4.2556802e-14
1.4016273e-15
8.1534029e-13
1.7722473e-12
1.9755975e-12
2.0104409e-12
2.0121861e-12
2.0071179e-12
2.0019071e-12
1.9982097e-12
1.9963247e-12
1.9962746e-12
1.9980619e-12
2.0016701e-12
2.006804e-12
2.0118078e-12
2.0100103e-12
1.9751282e-12
1.7717877e-12
8.1511043e-13
1.4012003e-15
4.4917177e-17
3.5028723e-14
7.9008916e-14
8.8581562e-14
9.0256796e-14
9.0364928e-14
9.0144695e-14
8.9912028e-14
8.9745933e-14
8.9661017e-14
8.9658549e-14
8.9738638e-14
8.9900295e-14
9.0129075e-14
9.0345998e-14
9.0235159e-14
8.8557957e-14
7.8985954e-14
3.5017703e-14
4.4903162e-17
1.4026001e-18
1.4667705e-15
3.4331141e-15
3.8712571e-15
3.9494241e-15
3.955467e-15
3.9461558e-15
3.9360356e-15
3.9287669e-15
3.9250412e-15
3.9249247e-15
3.9284217e-15
3.9354782e-15
3.9454098e-15
3.9545576e-15
3.9483792e-15
3.8701144e-15
3.4320072e-15
1.4662594e-15
1.4021074e-18
4.272146e-20
5.9926836e-17
1.4555626e-16
1.6508009e-16
1.6862539e-16
1.6893967e-16
1.6855626e-16
1.6812695e-16
1.6781674e-16
1.6765735e-16
1.6765208e-16
1.6780109e-16
1.6810159e-16
1.6852214e-16
1.6889784e-16
1.6857704e-16
1.6502703e-16
1.4550501e-16
5.9904014e-17
4.2701589e-20
1.2704416e-21
2.3912548e-18
6.02739e-18
6.875379e-18
7.0318995e-18
7.0473633e-18
7.0319717e-18
7.014192e-18
7.0012672e-18
6.994613e-18
6.9943842e-18
7.0005875e-18
7.0130863e-18
7.0304773e-18
7.0455203e-18
7.0297571e-18
6.8730184e-18
6.0251146e-18
2.3902764e-18
1.2696384e-21
3.6917376e-23
9.3274054e-20
2.4398871e-19
2.7992662e-19
2.8666138e-19
2.8738827e-19
2.8678544e-19
2.8606588e-19
2.8553968e-19
2.8526828e-19
2.8525875e-19
2.8551131e-19
2.860196e-19
2.8672259e-19
2.8731035e-19
2.8657032e-19
2.7982591e-19
2.4389179e-19
9.3233793e-20
3.6885665e-23
1.0490914e-24
3.5594063e-21
9.6628332e-21
1.1150382e-20
1.1433124e-20
1.1465978e-20
1.1442927e-20
1.1414445e-20
1.1393492e-20
1.1382669e-20
1.1382286e-20
1.1392352e-20
1.1412579e-20
1.1440383e-20
1.146281e-20
1.1429404e-20
1.1146254e-20
9.6588683e-21
3.5578153e-21
1.0478767e-24
2.9174942e-26
1.3298338e-22
3.74676e-22
4.348663e-22
4.4645977e-22
4.4789414e-22
4.4703302e-22
4.4592953e-22
4.4511291e-22
4.4469051e-22
4.4467566e-22
4.4506863e-22
4.4585692e-22
4.4693369e-22
4.4776994e-22
4.4631342e-22
4.3470346e-22
3.7451998e-22
1.3292292e-22
2.9130162e-26
7.9449651e-28
4.867602e-24
1.4233759e-23
1.6616443e-23
1.7081158e-23
1.714185e-23
1.711041e-23
1.7068534e-23
1.7037357e-23
1.7021212e-23
1.7020654e-23
1.7035691e-23
1.7065796e-23
1.7106657e-23
1.7137144e-23
1.7075599e-23
1.6610247e-23
1.4227842e-23
4.8653887e-24
7.929311e-28
2.1197616e-29
1.7466321e-25
5.3011164e-25
6.2245576e-25
6.4068089e-25
6.4317616e-25
6.4205381e-25
6.404962e-25
6.3932949e-25
6.3872471e-25
6.3870432e-25
6.3926862e-25
6.4039603e-25
6.4191628e-25
6.4300347e-25
6.4047658e-25
6.2222796e-25
5.2989495e-25
1.7458497e-25
2.1146803e-29
5.543203e-31
6.1475995e-27
1.9366404e-26
2.2872684e-26
2.3572508e-26
2.3672399e-26
2.3633212e-26
2.3576393e-26
2.3533572e-26
2.3511352e-26
2.3510627e-26
2.3531404e-26
2.3572827e-26
2.3628315e-26
2.3666248e-26
2.3565231e-26
2.2864573e-26
1.9358724e-26
6.1449231e-27
5.5284937e-31
1.4208991e-32
2.1235223e-28
6.9437617e-28
8.2488686e-28
8.5121624e-28
8.551163e-28
8.5377782e-28
8.51744e-28
8.5020162e-28
8.4940055e-28
8.4937533e-28
8.5012633e-28
8.5162021e-28
8.5360801e-28
8.5490328e-28
8.5096457e-28
8.2460683e-28
6.9411223e-28
2.1226345e-28
1.4175527e-32
3.5734646e-34
7.2022193e-30
2.4446514e-29
2.9211421e-29
3.018259e-29
3.0331303e-29
3.0286574e-29
3.02151e-29
3.0160551e-29
3.0132191e-29
3.0131334e-29
3.0157994e-29
3.0210902e-29
3.0280831e-29
3.032412e-29
3.017413e-29
2.9202033e-29
2.4437711e-29
7.1993605e-30
3.5664962e-34
8.8228087e-36
2.3995429e-31
8.4549537e-31
1.016221e-30
1.0513607e-30
1.0569051e-30
1.0554425e-30
1.0529753e-30
1.05108e-30
1.0500937e-30
1.0500651e-30
1.0509949e-30
1.052836e-30
1.0552528e-30
1.056669e-30
1.051084e-30
1.0159153e-30
8.4521039e-31
2.3986488e-31
8.8084184e-36
2.1392114e-37
7.8562745e-33
2.8738041e-32
3.4744129e-32
3.5992015e-32
3.6194322e-32
3.6147527e-32
3.6063826e-32
3.5999102e-32
3.5965388e-32
3.5964457e-32
3.5996332e-32
3.6059304e-32
3.6141397e-32
3.6186749e-32
3.5983211e-32
3.4734461e-32
2.8729086e-32
7.8535592e-33
2.1362683e-37
5.0949417e-39
2.5285523e-34
9.6031747e-34
1.16788e-33
1.2113969e-33
1.2186279e-33
1.2171632e-33
1.2143715e-33
1.2121982e-33
1.2110649e-33
1.2110352e-33
1.2121097e-33
1.2142275e-33
1.2169692e-33
1.2183905e-33
1.211124e-33
1.167583e-33
9.6004443e-34
2.5277518e-34
5.0889882e-39
)
;

boundaryField
{
    Wall
    {
        type            zeroGradient;
    }
    frontAndBack
    {
        type            empty;
    }
    atmosphere
    {
        type            zeroGradient;
    }
}


// ************************************************************************* //
