/*--------------------------------*- C++ -*----------------------------------*\
| =========                 |                                                 |
| \\      /  F ield         | OpenFOAM: The Open Source CFD Toolbox           |
|  \\    /   O peration     | Version:  3.0.1                                 |
|   \\  /    A nd           | Web:      www.OpenFOAM.org                      |
|    \\/     M anipulation  |                                                 |
\*---------------------------------------------------------------------------*/
FoamFile
{
    version     2.0;
    format      ascii;
    class       surfaceScalarField;
    location    "6";
    object      phi;
}
// * * * * * * * * * * * * * * * * * * * * * * * * * * * * * * * * * * * * * //

dimensions      [0 3 -1 0 0 0 0];

internalField   nonuniform List<scalar> 
1540
(
-4.1156404e-11
6.005357e-08
-3.2616272e-11
6.0208082e-08
-1.3991521e-11
6.0275044e-08
-4.8879612e-12
6.0315594e-08
-1.2354318e-12
6.0339229e-08
4.6291357e-14
6.0354217e-08
3.9358273e-13
6.0364109e-08
3.6298796e-13
6.0370629e-08
2.0233944e-13
6.0374633e-08
3.603092e-15
6.0376545e-08
-1.9513336e-13
6.0376541e-08
-3.5615461e-13
6.0374622e-08
-3.8719546e-13
6.0370611e-08
-4.0615438e-14
6.0364085e-08
1.2404153e-12
6.0354186e-08
4.8925618e-12
6.0339194e-08
1.3995622e-11
6.0315553e-08
3.2619301e-11
6.0275003e-08
4.115794e-11
6.0208035e-08
6.0053524e-08
3.8972309e-11
7.6225297e-08
4.1072461e-11
7.6190664e-08
2.8503194e-11
7.6137158e-08
2.0363011e-11
7.609781e-08
1.4578995e-11
7.6071882e-08
1.0355882e-11
7.6053691e-08
7.1078604e-12
7.6040884e-08
4.4602004e-12
7.6032128e-08
2.1536898e-12
7.6026647e-08
-6.6168549e-17
7.6024009e-08
-2.1535776e-12
7.6024014e-08
-4.4601538e-12
7.6026663e-08
-7.1078031e-12
7.6032153e-08
-1.0355751e-11
7.6040918e-08
-1.4578746e-11
7.6053733e-08
-2.0362807e-11
7.607193e-08
-2.850502e-11
7.6097865e-08
-4.106858e-11
7.6137214e-08
-3.8973641e-11
7.619073e-08
7.6225361e-08
-1.0449314e-11
6.7615085e-08
-2.4899697e-12
6.9888102e-08
5.7324588e-12
7.0004233e-08
6.4763788e-12
7.0000579e-08
5.3226503e-12
6.9992045e-08
4.0173187e-12
6.9985132e-08
2.8432822e-12
6.9980038e-08
1.8164184e-12
6.99765e-08
8.9008498e-13
6.9974263e-08
1.3076917e-14
6.9973156e-08
-8.6617487e-13
6.9973155e-08
-1.7942082e-12
6.997426e-08
-2.8232754e-12
6.9976497e-08
-3.9994901e-12
6.9980036e-08
-5.3068097e-12
6.9985129e-08
-6.4614273e-12
6.9992042e-08
-5.7203121e-12
7.0000572e-08
2.5007648e-12
7.0004218e-08
1.0455236e-11
6.9888085e-08
6.7615069e-08
7.0236291e-11
6.7136984e-08
8.3657952e-11
8.7278765e-08
7.6246888e-11
9.0506539e-08
6.0777853e-11
9.0889526e-08
4.624215e-11
9.0903773e-08
3.4191451e-11
9.0883603e-08
2.4178723e-11
9.0866159e-08
1.5530335e-11
9.0854235e-08
7.6829561e-12
9.0846959e-08
2.0495433e-13
9.0843412e-08
-7.302096e-12
9.0843388e-08
-1.5178492e-11
9.0846894e-08
-2.386547e-11
9.085414e-08
-3.3914082e-11
9.0866038e-08
-4.5997196e-11
9.0883451e-08
-6.0553768e-11
9.0903573e-08
-7.604562e-11
9.0889247e-08
-8.3478047e-11
9.0506152e-08
-7.0129554e-11
8.7278289e-08
6.7136581e-08
4.2993665e-10
6.5187452e-08
6.1359208e-10
1.0638498e-07
5.9385881e-10
1.1399237e-07
4.9856284e-10
1.1498127e-07
3.9311403e-10
1.150383e-07
2.9693118e-10
1.1499724e-07
2.1249679e-10
1.1495839e-07
1.3733753e-10
1.1493143e-07
6.8117442e-11
1.1491511e-07
1.6956701e-12
1.1490746e-07
-6.47961e-11
1.1490741e-07
-1.3422361e-10
1.1491495e-07
-2.0967523e-10
1.1493118e-07
-2.9442434e-10
1.1495806e-07
-3.9090416e-10
1.1499683e-07
-4.966313e-10
1.1503775e-07
-5.9222874e-10
1.149805e-07
-6.1237405e-10
1.1399131e-07
-4.2927485e-10
1.0638369e-07
6.5186421e-08
4.5426032e-10
6.479965e-08
6.913357e-10
1.117825e-07
7.1152611e-10
1.2115759e-07
6.2681874e-10
1.2246091e-07
5.1125931e-10
1.2255296e-07
3.9522589e-10
1.2250212e-07
2.872245e-10
1.2244868e-07
1.8744225e-10
1.224099e-07
9.3500517e-11
1.2238583e-07
2.4375009e-12
1.2237439e-07
-8.8731047e-11
1.223743e-07
-1.8296344e-10
1.2238556e-07
-2.8316676e-10
1.2240949e-07
-3.9163941e-10
1.2244814e-07
-5.0814844e-10
1.2250146e-07
-6.2418587e-10
1.2255211e-07
-7.0942487e-10
1.2245978e-07
-6.8988962e-10
1.2115608e-07
-4.5356046e-10
1.1178069e-07
6.4798313e-08
3.378345e-10
6.4365543e-08
5.4621172e-10
1.1240719e-07
5.9749347e-10
1.2227904e-07
5.5442977e-10
1.2371685e-07
4.7085695e-10
1.2384225e-07
3.7487769e-10
1.2379657e-07
2.7805792e-10
1.2374003e-07
1.8390546e-10
1.2369666e-07
9.2498661e-11
1.2366889e-07
2.6089971e-12
1.2365546e-07
-8.7388612e-11
1.2365534e-07
-1.7909285e-10
1.2366851e-07
-2.7369431e-10
1.2369608e-07
-3.710483e-10
1.2373931e-07
-4.6760548e-10
1.2379572e-07
-5.5180237e-10
1.2384124e-07
-5.9557216e-10
1.237156e-07
-5.4507541e-10
1.2227746e-07
-3.3741146e-10
1.1240537e-07
6.4364314e-08
2.2385231e-10
6.4116459e-08
3.8072521e-10
1.1224332e-07
4.4079622e-10
1.2224411e-07
4.3058859e-10
1.2375128e-07
3.8131718e-10
1.2391e-07
3.1341531e-10
1.2387883e-07
2.3785344e-10
1.2382765e-07
1.5976381e-10
1.2378561e-07
8.1161631e-11
1.2375775e-07
2.5484417e-12
1.2374403e-07
-7.6158501e-11
1.2374386e-07
-1.5502762e-10
1.2375727e-07
-2.3353244e-10
1.2378487e-07
-3.0963075e-10
1.2382675e-07
-3.7816346e-10
1.2387783e-07
-4.2815984e-10
1.2390892e-07
-4.3919638e-10
1.237501e-07
-3.7997735e-10
1.2224278e-07
-2.2371893e-10
1.1224192e-07
6.4115638e-08
1.4478356e-10
6.4000661e-08
2.5606421e-10
1.1209683e-07
3.1102463e-10
1.2214122e-07
3.1796868e-10
1.2369227e-07
2.9261696e-10
1.2388072e-07
2.4787908e-10
1.2386701e-07
1.9236399e-10
1.2382533e-07
1.3122899e-10
1.2378815e-07
6.7370022e-11
1.2376259e-07
2.3982633e-12
1.2374975e-07
-6.2646164e-11
1.2374954e-07
-1.2671252e-10
1.2376201e-07
-1.8818804e-10
1.2378727e-07
-2.4418411e-10
1.2382426e-07
-2.8953862e-10
1.2386587e-07
-3.1565184e-10
1.2387958e-07
-3.0959381e-10
1.2369119e-07
-2.5550985e-10
1.2214022e-07
-1.4477592e-10
1.1209598e-07
6.40003e-08
9.4698142e-11
6.3941905e-08
1.7235358e-10
1.1201367e-07
2.1735514e-10
1.2208005e-07
2.3061342e-10
1.2366089e-07
2.1921372e-10
1.2387338e-07
1.9062951e-10
1.2387623e-07
1.5091413e-10
1.2384511e-07
1.0442657e-10
1.2381429e-07
5.4159762e-11
1.2379225e-07
2.1988662e-12
1.2378095e-07
-4.9802293e-11
1.2378071e-07
-1.0019695e-10
1.2379157e-07
-1.4691657e-10
1.2381326e-07
-1.8700362e-10
1.2384386e-07
-2.161259e-10
1.2387491e-07
-2.282395e-10
1.2387212e-07
-2.1584543e-10
1.2365979e-07
-1.7170367e-10
1.2207921e-07
-9.4600322e-11
1.1201318e-07
6.3941802e-08
6.3266774e-11
6.3907234e-08
1.1750145e-10
1.1196361e-07
1.5237601e-10
1.2204293e-07
1.6637211e-10
1.2364398e-07
1.6228993e-10
1.2387476e-07
1.4419973e-10
1.2389162e-07
1.1609195e-10
1.2387039e-07
8.1328152e-11
1.238461e-07
4.2576284e-11
1.2382795e-07
1.9674847e-12
1.2381845e-07
-3.8650967e-11
1.238182e-07
-7.7440152e-11
1.2382722e-07
-1.123075e-10
1.2384497e-07
-1.4064458e-10
1.23869e-07
-1.5913704e-10
1.2389011e-07
-1.6382007e-10
1.2387328e-07
-1.5059732e-10
1.2364269e-07
-1.165342e-10
1.2204196e-07
-6.2918478e-11
1.1196307e-07
6.390707e-08
4.3179379e-11
6.3884934e-08
8.1308462e-11
1.1193083e-07
1.0756642e-10
1.2201794e-07
1.1997799e-10
1.236326e-07
1.1938325e-10
1.238768e-07
1.0789966e-10
1.2390482e-07
8.8063146e-11
1.2389206e-07
6.2330298e-11
1.2387371e-07
3.2902054e-11
1.238593e-07
1.7156941e-12
1.238516e-07
-2.9450472e-11
1.2385135e-07
-5.8827709e-11
1.2385857e-07
-8.4539928e-11
1.2387257e-07
-1.0445803e-10
1.238906e-07
-1.1618533e-10
1.2390318e-07
-1.172309e-10
1.2387511e-07
-1.05469e-10
1.23631e-07
-7.9958239e-11
1.2201659e-07
-4.2541121e-11
1.1192988e-07
6.3884434e-08
3.0014289e-11
6.3869893e-08
5.7025255e-11
1.1190826e-07
7.648895e-11
1.2200008e-07
8.6636958e-11
1.2362391e-07
8.7500528e-11
1.2387778e-07
8.0130166e-11
1.2391437e-07
6.6107895e-11
1.2390848e-07
4.7186117e-11
1.238952e-07
2.5089132e-11
1.238841e-07
1.4632086e-12
1.2387803e-07
-2.2115063e-11
1.2387781e-07
-4.4095323e-11
1.2388344e-07
-6.2897783e-11
1.2389414e-07
-7.6871536e-11
1.2390709e-07
-8.4344799e-11
1.2391272e-07
-8.379086e-11
1.2387598e-07
-7.4167543e-11
1.2362205e-07
-5.5392512e-11
1.2199831e-07
-2.9167037e-11
1.1190676e-07
6.3868959e-08
2.1159447e-11
6.3859199e-08
4.0424957e-11
1.118919e-07
5.4722826e-11
1.2198657e-07
6.2661514e-11
1.2361661e-07
6.3982865e-11
1.238774e-07
5.9181149e-11
1.239204e-07
4.9239872e-11
1.2391991e-07
3.5385376e-11
1.2391075e-07
1.8939934e-11
1.2390242e-07
1.2368568e-12
1.2389777e-07
-1.6405421e-11
1.2389759e-07
-3.2696362e-11
1.239019e-07
-4.6368168e-11
1.2390989e-07
-5.6181638e-11
1.2391873e-07
-6.098948e-11
1.2391893e-07
-5.9877705e-11
1.2387567e-07
-5.2372367e-11
1.2361468e-07
-3.8714247e-11
1.2198454e-07
-2.0260307e-11
1.1188995e-07
6.3857925e-08
1.5055286e-11
6.3851053e-08
2.8862325e-11
1.1187917e-07
3.9312162e-11
1.2197555e-07
4.5364175e-11
1.2360982e-07
4.6696067e-11
1.2387555e-07
4.3522273e-11
1.2392332e-07
3.6457872e-11
1.2392696e-07
2.6352231e-11
1.2392105e-07
1.4205536e-11
1.2391496e-07
1.0589749e-12
1.2391147e-07
-1.2022304e-11
1.2391135e-07
-2.4008637e-11
1.2391461e-07
-3.391489e-11
1.2392045e-07
-4.0823725e-11
1.2392609e-07
-4.3967438e-11
1.2392216e-07
-4.280157e-11
1.2387409e-07
-3.7141081e-11
1.2360807e-07
-2.7303791e-11
1.2197354e-07
-1.4275704e-11
1.1187709e-07
6.3849664e-08
1.0750347e-11
6.3844431e-08
2.066848e-11
1.1186861e-07
2.8283521e-11
1.2196595e-07
3.2828706e-11
1.2360314e-07
3.4006111e-11
1.2387239e-07
3.1890388e-11
1.2392367e-07
2.6867865e-11
1.2393044e-07
1.9531736e-11
1.2392703e-07
1.0621824e-11
1.239227e-07
9.4286033e-13
1.2392013e-07
-8.6799468e-12
1.2392007e-07
-1.7443598e-11
1.2392251e-07
-2.4601126e-11
1.2392669e-07
-2.948559e-11
1.239299e-07
-3.1588249e-11
1.239229e-07
-3.0589917e-11
1.2387134e-07
-2.6446218e-11
1.2360177e-07
-1.9437526e-11
1.2196425e-07
-1.0215885e-11
1.1186673e-07
6.3843168e-08
7.6557345e-12
6.3838857e-08
1.477636e-11
1.1185954e-07
2.0313835e-11
1.2195737e-07
2.3701646e-11
1.235966e-07
2.4690763e-11
1.2386839e-07
2.3282656e-11
1.2392223e-07
1.9721699e-11
1.2393133e-07
1.4430509e-11
1.2392982e-07
7.9479051e-12
1.2392681e-07
8.8431842e-13
1.2392495e-07
-6.1324336e-12
1.2392493e-07
-1.2498245e-11
1.2392674e-07
-1.7650562e-11
1.2392967e-07
-2.1118712e-11
1.2393105e-07
-2.2566764e-11
1.2392179e-07
-2.1810649e-11
1.2386771e-07
-1.8869074e-11
1.2359564e-07
-1.3947131e-11
1.219561e-07
-7.4115672e-12
1.1185806e-07
6.3837881e-08
5.4051425e-12
6.3834208e-08
1.0495351e-11
1.1185183e-07
1.4512757e-11
1.2194987e-07
1.7032425e-11
1.2359053e-07
1.7841515e-11
1.2386415e-07
1.6917536e-11
1.2391987e-07
1.4415429e-11
1.2393068e-07
1.0632358e-11
1.2393059e-07
5.9668239e-12
1.2392858e-07
8.6748355e-13
1.2392724e-07
-4.1953073e-12
1.2392723e-07
-8.7743788e-12
1.2392855e-07
-1.2462019e-11
1.239305e-07
-1.492711e-11
1.2393051e-07
-1.5952231e-11
1.2391958e-07
-1.5438228e-11
1.2386369e-07
-1.3422706e-11
1.2358987e-07
-1.0032167e-11
1.2194897e-07
-5.415501e-12
1.1185075e-07
6.3833537e-08
3.7614223e-12
6.3830522e-08
7.3656737e-12
1.1184559e-07
1.0270306e-11
1.219437e-07
1.214031e-11
1.2358539e-07
1.2797129e-11
1.2386034e-07
1.22066e-11
1.2391743e-07
1.0472058e-11
1.239295e-07
7.8036934e-12
1.2393044e-07
4.4908656e-12
1.2392916e-07
8.6508817e-13
1.2392819e-07
-2.7352441e-12
1.2392815e-07
-5.9836643e-12
1.2392906e-07
-8.591774e-12
1.2393026e-07
-1.0332549e-11
1.2392922e-07
-1.1068542e-11
1.2391705e-07
-1.0757581e-11
1.2385983e-07
-9.4352464e-12
1.2358475e-07
-7.1584614e-12
1.2194293e-07
-3.9359679e-12
1.1184473e-07
6.3830035e-08
2.5632947e-12
6.3827841e-08
5.0808564e-12
1.1184095e-07
7.1636969e-12
1.2193909e-07
8.5448635e-12
1.2358152e-07
9.0702392e-12
1.2385744e-07
8.7074077e-12
1.2391553e-07
7.5247397e-12
1.2392853e-07
5.6751247e-12
1.2393023e-07
3.3670204e-12
1.2392947e-07
8.3789798e-13
1.2392874e-07
-1.6680546e-12
1.2392865e-07
-3.9245353e-12
1.2392922e-07
-5.7248968e-12
1.2392981e-07
-6.9291508e-12
1.2392795e-07
-7.45549e-12
1.2391482e-07
-7.2894886e-12
1.238566e-07
-6.4649623e-12
1.235806e-07
-4.9894856e-12
1.2193812e-07
-2.7921466e-12
1.1184002e-07
6.382734e-08
1.7009645e-12
6.3826141e-08
3.4218428e-12
1.1183792e-07
4.8948547e-12
1.2193609e-07
5.8992723e-12
1.2357906e-07
6.3078763e-12
1.238557e-07
6.0944296e-12
1.2391453e-07
5.3030174e-12
1.239282e-07
4.0474206e-12
1.2393045e-07
2.4732072e-12
1.2393007e-07
7.551756e-13
1.2392949e-07
-9.3637487e-13
1.2392933e-07
-2.4495374e-12
1.2392961e-07
-3.6468298e-12
1.2392971e-07
-4.4433616e-12
1.239272e-07
-4.8005008e-12
1.2391331e-07
-4.7214723e-12
1.2385432e-07
-4.2345639e-12
1.2357759e-07
-3.3220496e-12
1.2193462e-07
-1.8879201e-12
1.1183659e-07
6.3825421e-08
1.0886786e-12
6.3825289e-08
2.2290311e-12
1.1183631e-07
3.2444224e-12
1.2193454e-07
3.9518102e-12
1.2357792e-07
4.2541264e-12
1.2385508e-07
4.12989e-12
1.2391446e-07
3.6068482e-12
1.2392862e-07
2.7716503e-12
1.2393127e-07
1.7277993e-12
1.2393116e-07
6.0167734e-13
1.2393069e-07
-4.9196028e-13
1.2393047e-07
-1.4533221e-12
1.239305e-07
-2.1997506e-12
1.239302e-07
-2.6848884e-12
1.2392717e-07
-2.8972624e-12
1.2391268e-07
-2.8530425e-12
1.2385306e-07
-2.5757383e-12
1.2357576e-07
-2.0446282e-12
1.2193237e-07
-1.1731592e-12
1.1183436e-07
6.3824193e-08
6.6093445e-13
6.3825063e-08
1.3826883e-12
1.1183578e-07
2.0504506e-12
1.2193408e-07
2.5209162e-12
1.2357777e-07
2.7233109e-12
1.2385532e-07
2.6397568e-12
1.239151e-07
2.2947483e-12
1.2392964e-07
1.7523572e-12
1.239326e-07
1.0826915e-12
1.2393269e-07
3.7829192e-13
1.239323e-07
-2.868457e-13
1.2393203e-07
-8.494465e-13
1.2393187e-07
-1.2640379e-12
1.2393125e-07
-1.510923e-12
1.239278e-07
-1.5992404e-12
1.2391283e-07
-1.551349e-12
1.238527e-07
-1.3884352e-12
1.2357493e-07
-1.1011238e-12
1.2193119e-07
-6.2713597e-13
1.1183313e-07
6.3823533e-08
3.6945714e-13
6.3825208e-08
7.9104229e-13
1.118359e-07
1.1926951e-12
1.2193429e-07
1.4727364e-12
1.235782e-07
1.5804671e-12
1.2385603e-07
1.5070621e-12
1.2391612e-07
1.2745179e-12
1.2393095e-07
9.2455884e-13
1.2393414e-07
5.1407311e-13
1.239344e-07
1.0055305e-13
1.2393409e-07
-2.6906045e-13
1.2393378e-07
-5.5549183e-13
1.2393349e-07
-7.3481902e-13
1.2393264e-07
-8.0885319e-13
1.2392887e-07
-7.9392672e-13
1.2391352e-07
-7.1753159e-13
1.23853e-07
-6.0706326e-13
1.2357485e-07
-4.5755015e-13
1.219308e-07
-2.5057494e-13
1.1183262e-07
6.3823288e-08
1.6837499e-13
6.3825476e-08
3.7389889e-13
1.1183625e-07
5.7499861e-13
1.2193472e-07
7.0519465e-13
1.2357879e-07
7.3050387e-13
1.2385683e-07
6.4947107e-13
1.2391715e-07
4.8146031e-13
1.239322e-07
2.570925e-13
1.2393559e-07
1.4003898e-14
1.23936e-07
-2.0999915e-13
1.2393576e-07
-3.8614607e-13
1.2393546e-07
-4.8964829e-13
1.2393508e-07
-5.1753526e-13
1.2393407e-07
-4.7178245e-13
1.2393009e-07
-3.7916312e-13
1.2391446e-07
-2.6971372e-13
1.2385363e-07
-1.6738028e-13
1.2357518e-07
-7.8286356e-14
1.2193087e-07
-2.0572411e-14
1.1183256e-07
6.3823293e-08
2.8214315e-14
6.3825678e-08
7.7264319e-14
1.118365e-07
1.2887482e-13
1.2193502e-07
1.4304231e-13
1.235792e-07
1.0267415e-13
1.238574e-07
8.0042338e-15
1.239179e-07
-1.2328345e-13
1.2393313e-07
-2.7186806e-13
1.2393668e-07
-4.1414086e-13
1.2393721e-07
-5.215986e-13
1.2393706e-07
-5.7991731e-13
1.2393679e-07
-5.7955225e-13
1.2393639e-07
-5.1820857e-13
1.2393529e-07
-4.0467871e-13
1.2393116e-07
-2.6317881e-13
1.2391535e-07
-1.2234639e-13
1.238543e-07
-3.231187e-15
1.2357562e-07
7.8901642e-14
1.2193112e-07
7.9691015e-14
1.1183269e-07
6.3823406e-08
-7.5034816e-14
6.3825699e-08
-1.3689684e-13
1.1183645e-07
-1.9386747e-13
1.2193497e-07
-2.6380156e-13
1.2357923e-07
-3.5412577e-13
1.2385755e-07
-4.5929159e-13
1.2391818e-07
-5.7188173e-13
1.2393356e-07
-6.7714568e-13
1.2393724e-07
-7.5803994e-13
1.2393789e-07
-7.9964859e-13
1.2393783e-07
-8.0128556e-13
1.2393761e-07
-7.5236288e-13
1.2393722e-07
-6.5688858e-13
1.2393609e-07
-5.1893772e-13
1.2393188e-07
-3.5660445e-13
1.2391596e-07
-1.9290057e-13
1.2385478e-07
-4.8132906e-14
1.2357596e-07
6.2050391e-14
1.2193133e-07
7.7089638e-14
1.1183283e-07
6.3823523e-08
-1.5693618e-13
6.3825502e-08
-3.0084246e-13
1.1183603e-07
-4.3045202e-13
1.2193451e-07
-5.5669284e-13
1.2357882e-07
-6.7794164e-13
1.2385723e-07
-7.8921203e-13
1.2391796e-07
-8.8756836e-13
1.2393345e-07
-9.6524317e-13
1.2393726e-07
-1.0127849e-12
1.2393801e-07
-1.0257875e-12
1.2393804e-07
-1.0077661e-12
1.2393788e-07
-9.5477394e-13
1.2393753e-07
-8.6339606e-13
1.239364e-07
-7.3690533e-13
1.2393218e-07
-5.7936521e-13
1.2391622e-07
-4.0350424e-13
1.2385498e-07
-2.2626178e-13
1.2357609e-07
-6.6533079e-14
1.2193139e-07
8.8316161e-15
1.1183287e-07
6.3823591e-08
-2.2439059e-13
6.3825121e-08
-4.2736666e-13
1.1183529e-07
-6.0584212e-13
1.2193371e-07
-7.6463953e-13
1.2357805e-07
-8.9963431e-13
1.2385652e-07
-1.0059739e-12
1.2391735e-07
-1.0906056e-12
1.2393293e-07
-1.1487471e-12
1.2393683e-07
-1.1802578e-12
1.2393767e-07
-1.1864187e-12
1.2393778e-07
-1.1760186e-12
1.2393769e-07
-1.1459922e-12
1.2393739e-07
-1.0864719e-12
1.239363e-07
-9.9319987e-13
1.2393209e-07
-8.5831757e-13
1.2391614e-07
-6.7815037e-13
1.238549e-07
-4.6830466e-13
1.2357601e-07
-2.4806407e-13
1.2193131e-07
-8.8149076e-14
1.1183281e-07
6.3823621e-08
-2.7964815e-13
6.3824636e-08
-5.2663985e-13
1.1183438e-07
-7.3355677e-13
1.2193272e-07
-9.0447716e-13
1.2357708e-07
-1.0370786e-12
1.2385561e-07
-1.1340131e-12
1.2391651e-07
-1.1994539e-12
1.2393217e-07
-1.2416093e-12
1.2393614e-07
-1.2641579e-12
1.2393706e-07
-1.2794611e-12
1.2393724e-07
-1.2921066e-12
1.2393721e-07
-1.2981461e-12
1.2393696e-07
-1.2854541e-12
1.2393593e-07
-1.237439e-12
1.2393177e-07
-1.1320231e-12
1.2391586e-07
-9.5587857e-13
1.2385466e-07
-7.1628501e-13
1.235758e-07
-4.3032531e-13
1.2193114e-07
-1.8179279e-13
1.1183271e-07
6.3823636e-08
-3.1950777e-13
6.3824149e-08
-5.9485537e-13
1.1183345e-07
-8.1662856e-13
1.2193171e-07
-9.8381564e-13
1.2357611e-07
-1.108007e-12
1.2385469e-07
-1.1876811e-12
1.2391565e-07
-1.2340628e-12
1.2393138e-07
-1.2601043e-12
1.2393541e-07
-1.2807314e-12
1.2393639e-07
-1.3066364e-12
1.2393663e-07
-1.3477957e-12
1.2393666e-07
-1.3959127e-12
1.2393647e-07
-1.4357976e-12
1.2393548e-07
-1.4344091e-12
1.2393138e-07
-1.3647773e-12
1.2391553e-07
-1.1953408e-12
1.2385439e-07
-9.2356247e-13
1.235756e-07
-5.7696093e-13
1.2193101e-07
-2.5112633e-13
1.1183266e-07
6.3823681e-08
-3.3917115e-13
6.3823731e-08
-6.2723809e-13
1.1183265e-07
-8.464418e-13
1.2193085e-07
-1.0064762e-12
1.2357529e-07
-1.1160402e-12
1.2385393e-07
-1.1787082e-12
1.2391495e-07
-1.2066323e-12
1.2393073e-07
-1.2190944e-12
1.2393482e-07
-1.238347e-12
1.2393585e-07
-1.2787455e-12
1.2393613e-07
-1.3472876e-12
1.2393621e-07
-1.439016e-12
1.2393606e-07
-1.5267239e-12
1.2393513e-07
-1.5709055e-12
1.2393109e-07
-1.5310502e-12
1.239153e-07
-1.3678934e-12
1.2385424e-07
-1.0693976e-12
1.2357552e-07
-6.6936867e-13
1.2193099e-07
-2.9002637e-13
1.1183271e-07
6.3823779e-08
-3.2977222e-13
6.3823416e-08
-6.0685679e-13
1.1183204e-07
-8.1779611e-13
1.2193021e-07
-9.669435e-13
1.235747e-07
-1.0619026e-12
1.2385341e-07
-1.1116675e-12
1.2391448e-07
-1.1246452e-12
1.2393032e-07
-1.1318365e-12
1.2393445e-07
-1.1505045e-12
1.2393552e-07
-1.2044693e-12
1.2393583e-07
-1.3000573e-12
1.2393594e-07
-1.4282046e-12
1.2393584e-07
-1.55697e-12
1.2393495e-07
-1.6380937e-12
1.2393097e-07
-1.6225891e-12
1.2391525e-07
-1.466213e-12
1.2385425e-07
-1.1513035e-12
1.235756e-07
-7.1612448e-13
1.2193112e-07
-3.061981e-13
1.1183287e-07
6.3823923e-08
-2.8449881e-13
6.3823199e-08
-5.291002e-13
1.1183162e-07
-7.1938158e-13
1.2192979e-07
-8.580892e-13
1.2357435e-07
-9.4828513e-13
1.2385313e-07
-9.8995302e-13
1.2391427e-07
-1.0014227e-12
1.2393015e-07
-1.0047552e-12
1.2393432e-07
-1.0283408e-12
1.2393542e-07
-1.0953364e-12
1.2393576e-07
-1.2126921e-12
1.2393589e-07
-1.3700489e-12
1.2393581e-07
-1.5277068e-12
1.2393497e-07
-1.6410557e-12
1.2393104e-07
-1.6468609e-12
1.2391537e-07
-1.5027805e-12
1.2385443e-07
-1.1874063e-12
1.2357582e-07
-7.4257611e-13
1.2193136e-07
-3.1682348e-13
1.118331e-07
6.3824081e-08
-1.9464327e-13
6.3823048e-08
-3.7926229e-13
1.1183137e-07
-5.4288441e-13
1.2192959e-07
-6.7639658e-13
1.2357423e-07
-7.7003457e-13
1.238531e-07
-8.2157342e-13
1.239143e-07
-8.3870257e-13
1.2393022e-07
-8.4840999e-13
1.2393442e-07
-8.8316484e-13
1.2393553e-07
-9.6155404e-13
1.2393588e-07
-1.0959547e-12
1.2393603e-07
-1.2679338e-12
1.2393597e-07
-1.4504256e-12
1.2393516e-07
-1.5858912e-12
1.2393127e-07
-1.617635e-12
1.2391566e-07
-1.4996988e-12
1.2385476e-07
-1.2097874e-12
1.2357617e-07
-7.7888984e-13
1.2193168e-07
-3.4634716e-13
1.1183336e-07
6.3824227e-08
-3.9968182e-14
6.3822808e-08
-1.3778726e-13
1.1183112e-07
-2.7390242e-13
1.219295e-07
-4.1627875e-13
1.2357426e-07
-5.3463907e-13
1.238532e-07
-6.107085e-13
1.2391445e-07
-6.4810397e-13
1.2393041e-07
-6.7792042e-13
1.2393462e-07
-7.2347534e-13
1.2393573e-07
-8.1351969e-13
1.2393608e-07
-9.5542981e-13
1.2393624e-07
-1.1351433e-12
1.239362e-07
-1.3289338e-12
1.2393542e-07
-1.4832609e-12
1.2393158e-07
-1.5512756e-12
1.2391601e-07
-1.4840213e-12
1.2385515e-07
-1.2567443e-12
1.2357656e-07
-8.7365235e-13
1.2193202e-07
-4.2678732e-13
1.1183353e-07
6.3824225e-08
2.3930228e-13
6.3822232e-08
2.5799125e-13
1.1183067e-07
1.1020153e-13
1.2192945e-07
-8.3952478e-14
1.2357438e-07
-2.53422e-13
1.2385337e-07
-3.7243898e-13
1.2391465e-07
-4.4684903e-13
1.2393062e-07
-5.002631e-13
1.2393483e-07
-5.61367e-13
1.2393593e-07
-6.5397547e-13
1.2393628e-07
-7.9447411e-13
1.2393644e-07
-9.7353404e-13
1.2393642e-07
-1.1676653e-12
1.2393567e-07
-1.3387348e-12
1.2393187e-07
-1.4518052e-12
1.2391635e-07
-1.4723788e-12
1.2385555e-07
-1.3648017e-12
1.2357698e-07
-1.0940246e-12
1.2193232e-07
-6.3065061e-13
1.1183343e-07
6.3823846e-08
7.9540777e-13
6.3818018e-08
9.2227558e-13
1.1182818e-07
6.2494132e-13
1.2192885e-07
2.9217655e-13
1.2357428e-07
3.8297557e-14
1.2385334e-07
-1.3465836e-13
1.2391462e-07
-2.4896631e-13
1.2393058e-07
-3.2760831e-13
1.2393476e-07
-4.0052359e-13
1.2393584e-07
-4.9054207e-13
1.2393618e-07
-6.1863442e-13
1.2393634e-07
-7.8148755e-13
1.2393634e-07
-9.6563903e-13
1.2393563e-07
-1.1454656e-12
1.2393186e-07
-1.307509e-12
1.2391641e-07
-1.4519194e-12
1.2385568e-07
-1.5655309e-12
1.2357713e-07
-1.5572362e-12
1.2193202e-07
-1.0999045e-12
1.1183124e-07
6.38198e-08
1.7333813e-12
6.3807212e-08
1.8349455e-12
1.1181859e-07
1.1866929e-12
1.2192586e-07
6.2368902e-13
1.2357352e-07
2.7280599e-13
1.2385294e-07
5.690745e-14
1.2391424e-07
-8.0952004e-14
1.2393017e-07
-1.7460723e-13
1.2393433e-07
-2.4826916e-13
1.2393538e-07
-3.2807248e-13
1.2393569e-07
-4.3185973e-13
1.2393586e-07
-5.648322e-13
1.2393587e-07
-7.2211221e-13
1.2393519e-07
-8.9076168e-13
1.2393147e-07
-1.0873698e-12
1.2391607e-07
-1.3632517e-12
1.2385538e-07
-1.7896492e-12
1.2357653e-07
-2.2461019e-12
1.2192924e-07
-1.9341295e-12
1.1182188e-07
6.3809114e-08
2.2028463e-12
2.2776561e-12
1.4122719e-12
7.4574558e-13
3.7906496e-13
1.6422448e-13
2.7664727e-14
-6.39537e-14
-1.3078336e-13
-1.944275e-13
-2.730349e-13
-3.7042317e-13
-4.9212248e-13
-6.3005111e-13
-8.1516719e-13
-1.1372488e-12
-1.7343127e-12
-2.4997802e-12
-2.3105686e-12
)
;

boundaryField
{
    Wall
    {
        type            calculated;
        value           uniform 0;
    }
    frontAndBack
    {
        type            empty;
        value           nonuniform 0();
    }
    atmosphere
    {
        type            calculated;
        value           nonuniform List<scalar> 
20
(
6.3799094e-08
1.1181043e-07
1.2192283e-07
1.2357237e-07
1.2385214e-07
1.2391354e-07
1.2392945e-07
1.239336e-07
1.2393459e-07
1.2393489e-07
1.2393505e-07
1.2393506e-07
1.2393443e-07
1.2393068e-07
1.2391531e-07
1.238546e-07
1.2357544e-07
1.2192633e-07
1.1181378e-07
6.3801076e-08
)
;
    }
}


// ************************************************************************* //
