/*--------------------------------*- C++ -*----------------------------------*\
| =========                 |                                                 |
| \\      /  F ield         | OpenFOAM: The Open Source CFD Toolbox           |
|  \\    /   O peration     | Version:  3.0.1                                 |
|   \\  /    A nd           | Web:      www.OpenFOAM.org                      |
|    \\/     M anipulation  |                                                 |
\*---------------------------------------------------------------------------*/
FoamFile
{
    version     2.0;
    format      ascii;
    class       volScalarField;
    location    "6";
    object      thermalDiffusivity;
}
// * * * * * * * * * * * * * * * * * * * * * * * * * * * * * * * * * * * * * //

dimensions      [0 2 -1 0 0 0 0];

internalField   nonuniform List<scalar> 
800
(
9.6543915e-08
9.6544169e-08
9.6544266e-08
9.6544268e-08
9.6544268e-08
9.6544269e-08
9.654427e-08
9.6544272e-08
9.6544273e-08
9.6544273e-08
9.6544273e-08
9.6544273e-08
9.6544272e-08
9.654427e-08
9.6544269e-08
9.6544268e-08
9.6544268e-08
9.6544266e-08
9.6544169e-08
9.6543915e-08
1.0153114e-07
1.0153089e-07
1.0153039e-07
1.0153004e-07
1.0152983e-07
1.0152991e-07
1.0152978e-07
1.0152976e-07
1.0152972e-07
1.0152982e-07
1.0152973e-07
1.0152974e-07
1.0152984e-07
1.0152978e-07
1.0152983e-07
1.0152983e-07
1.0152999e-07
1.0153031e-07
1.0153092e-07
1.0153113e-07
0.00022957448
0.00022957507
0.00022957576
0.00022957635
0.00022957679
0.0002295771
0.00022957729
0.00022957741
0.00022957748
0.00022957751
0.00022957751
0.00022957748
0.00022957741
0.00022957729
0.0002295771
0.00022957679
0.00022957635
0.00022957576
0.00022957507
0.00022957448
0.00022921242
0.00022921329
0.00022921422
0.00022921497
0.00022921551
0.00022921587
0.00022921609
0.00022921623
0.00022921631
0.00022921634
0.00022921634
0.00022921631
0.00022921623
0.00022921609
0.00022921587
0.00022921551
0.00022921497
0.00022921422
0.00022921329
0.00022921242
0.00022890685
0.00022890875
0.0002289103
0.00022891136
0.00022891204
0.00022891247
0.00022891274
0.00022891289
0.00022891298
0.00022891301
0.00022891301
0.00022891298
0.00022891289
0.00022891273
0.00022891247
0.00022891204
0.00022891136
0.0002289103
0.00022890875
0.00022890685
0.0002286515
0.00022865431
0.00022865646
0.00022865781
0.00022865864
0.00022865914
0.00022865944
0.00022865961
0.0002286597
0.00022865974
0.00022865974
0.0002286597
0.00022865961
0.00022865944
0.00022865914
0.00022865864
0.00022865781
0.00022865646
0.00022865431
0.0002286515
0.00022843905
0.00022844202
0.00022844435
0.00022844584
0.00022844675
0.0002284473
0.00022844762
0.0002284478
0.0002284479
0.00022844794
0.00022844794
0.0002284479
0.0002284478
0.00022844761
0.00022844729
0.00022844675
0.00022844584
0.00022844435
0.00022844202
0.00022843905
0.0002282626
0.00022826534
0.00022826759
0.00022826906
0.00022826998
0.00022827053
0.00022827085
0.00022827104
0.00022827114
0.00022827119
0.00022827119
0.00022827114
0.00022827104
0.00022827085
0.00022827053
0.00022826997
0.00022826906
0.00022826759
0.00022826534
0.0002282626
0.00022811591
0.0002281183
0.00022812033
0.0002281217
0.00022812257
0.0002281231
0.00022812342
0.0002281236
0.0002281237
0.00022812375
0.00022812375
0.0002281237
0.0002281236
0.00022812342
0.0002281231
0.00022812257
0.0002281217
0.00022812033
0.0002281183
0.00022811591
0.00022799345
0.00022799551
0.00022799728
0.00022799851
0.0002279993
0.0002279998
0.0002280001
0.00022800027
0.00022800037
0.00022800041
0.00022800041
0.00022800037
0.00022800027
0.0002280001
0.0002279998
0.0002279993
0.00022799851
0.00022799728
0.00022799551
0.00022799345
0.00022789059
0.00022789234
0.00022789388
0.00022789496
0.00022789566
0.00022789611
0.00022789639
0.00022789655
0.00022789664
0.00022789668
0.00022789668
0.00022789664
0.00022789655
0.00022789639
0.00022789611
0.00022789566
0.00022789496
0.00022789388
0.00022789234
0.00022789059
0.00022780357
0.00022780507
0.00022780639
0.00022780733
0.00022780796
0.00022780836
0.00022780861
0.00022780875
0.00022780884
0.00022780887
0.00022780887
0.00022780884
0.00022780875
0.00022780861
0.00022780836
0.00022780795
0.00022780733
0.00022780639
0.00022780507
0.00022780357
0.00022772947
0.00022773075
0.00022773189
0.0002277327
0.00022773325
0.00022773361
0.00022773383
0.00022773396
0.00022773404
0.00022773407
0.00022773407
0.00022773404
0.00022773396
0.00022773383
0.00022773361
0.00022773325
0.0002277327
0.00022773189
0.00022773075
0.00022772947
0.00022766604
0.00022766714
0.00022766812
0.00022766883
0.0002276693
0.00022766961
0.00022766981
0.00022766993
0.00022767
0.00022767003
0.00022767003
0.00022767
0.00022766993
0.00022766981
0.00022766961
0.0002276693
0.00022766883
0.00022766812
0.00022766714
0.00022766604
0.00022761157
0.00022761252
0.00022761337
0.00022761398
0.00022761439
0.00022761467
0.00022761484
0.00022761494
0.000227615
0.00022761503
0.00022761503
0.000227615
0.00022761494
0.00022761484
0.00022761467
0.00022761439
0.00022761398
0.00022761337
0.00022761252
0.00022761157
0.00022756477
0.00022756558
0.00022756632
0.00022756684
0.0002275672
0.00022756744
0.00022756759
0.00022756768
0.00022756774
0.00022756776
0.00022756776
0.00022756774
0.00022756768
0.00022756759
0.00022756744
0.0002275672
0.00022756684
0.00022756632
0.00022756558
0.00022756477
0.00022752459
0.00022752529
0.00022752592
0.00022752638
0.00022752669
0.00022752689
0.00022752702
0.0002275271
0.00022752715
0.00022752717
0.00022752717
0.00022752715
0.0002275271
0.00022752702
0.00022752689
0.00022752669
0.00022752638
0.00022752592
0.00022752529
0.00022752459
0.00022749021
0.00022749081
0.00022749135
0.00022749174
0.00022749201
0.00022749218
0.00022749229
0.00022749236
0.0002274924
0.00022749242
0.00022749242
0.0002274924
0.00022749236
0.00022749229
0.00022749218
0.000227492
0.00022749174
0.00022749135
0.00022749081
0.00022749021
0.00022746091
0.00022746142
0.00022746188
0.00022746221
0.00022746244
0.00022746259
0.00022746269
0.00022746275
0.00022746278
0.0002274628
0.0002274628
0.00022746278
0.00022746275
0.00022746269
0.00022746259
0.00022746244
0.00022746221
0.00022746188
0.00022746142
0.00022746091
0.00022743607
0.00022743651
0.0002274369
0.00022743718
0.00022743737
0.0002274375
0.00022743758
0.00022743764
0.00022743767
0.00022743768
0.00022743768
0.00022743767
0.00022743764
0.00022743758
0.0002274375
0.00022743737
0.00022743718
0.0002274369
0.00022743651
0.00022743607
0.00022741515
0.00022741552
0.00022741584
0.00022741608
0.00022741625
0.00022741636
0.00022741643
0.00022741647
0.00022741649
0.00022741651
0.00022741651
0.00022741649
0.00022741647
0.00022741643
0.00022741636
0.00022741625
0.00022741608
0.00022741584
0.00022741552
0.00022741515
0.00022739764
0.00022739795
0.00022739822
0.00022739842
0.00022739856
0.00022739865
0.00022739871
0.00022739875
0.00022739877
0.00022739878
0.00022739878
0.00022739877
0.00022739875
0.00022739871
0.00022739865
0.00022739856
0.00022739842
0.00022739822
0.00022739795
0.00022739764
0.00022738309
0.00022738335
0.00022738358
0.00022738374
0.00022738386
0.00022738393
0.00022738398
0.00022738401
0.00022738403
0.00022738404
0.00022738404
0.00022738403
0.00022738401
0.00022738398
0.00022738393
0.00022738386
0.00022738374
0.00022738358
0.00022738335
0.00022738309
0.00022737109
0.0002273713
0.00022737149
0.00022737163
0.00022737172
0.00022737178
0.00022737182
0.00022737185
0.00022737186
0.00022737187
0.00022737187
0.00022737186
0.00022737185
0.00022737182
0.00022737178
0.00022737172
0.00022737163
0.00022737149
0.0002273713
0.00022737109
0.00022736126
0.00022736144
0.00022736159
0.0002273617
0.00022736178
0.00022736183
0.00022736187
0.00022736189
0.0002273619
0.0002273619
0.0002273619
0.0002273619
0.00022736189
0.00022736187
0.00022736183
0.00022736178
0.0002273617
0.00022736159
0.00022736144
0.00022736126
0.00022735328
0.00022735342
0.00022735354
0.00022735364
0.0002273537
0.00022735374
0.00022735377
0.00022735378
0.00022735379
0.0002273538
0.0002273538
0.00022735379
0.00022735378
0.00022735377
0.00022735374
0.0002273537
0.00022735364
0.00022735354
0.00022735342
0.00022735328
0.00022734684
0.00022734695
0.00022734705
0.00022734713
0.00022734718
0.00022734721
0.00022734724
0.00022734725
0.00022734726
0.00022734726
0.00022734726
0.00022734726
0.00022734725
0.00022734724
0.00022734721
0.00022734718
0.00022734713
0.00022734705
0.00022734695
0.00022734684
0.00022734169
0.00022734178
0.00022734186
0.00022734192
0.00022734196
0.00022734199
0.00022734201
0.00022734202
0.00022734202
0.00022734203
0.00022734203
0.00022734202
0.00022734202
0.00022734201
0.00022734199
0.00022734196
0.00022734192
0.00022734186
0.00022734178
0.00022734169
0.0002273376
0.00022733767
0.00022733774
0.00022733778
0.00022733782
0.00022733784
0.00022733785
0.00022733786
0.00022733786
0.00022733787
0.00022733787
0.00022733786
0.00022733786
0.00022733785
0.00022733784
0.00022733782
0.00022733778
0.00022733774
0.00022733767
0.0002273376
0.00022733438
0.00022733444
0.00022733449
0.00022733452
0.00022733455
0.00022733457
0.00022733458
0.00022733458
0.00022733459
0.00022733459
0.00022733459
0.00022733459
0.00022733458
0.00022733458
0.00022733457
0.00022733455
0.00022733452
0.00022733449
0.00022733444
0.00022733438
0.00022733186
0.00022733191
0.00022733195
0.00022733198
0.000227332
0.00022733201
0.00022733202
0.00022733202
0.00022733203
0.00022733203
0.00022733203
0.00022733203
0.00022733202
0.00022733202
0.00022733201
0.000227332
0.00022733198
0.00022733195
0.00022733191
0.00022733186
0.00022732991
0.00022732995
0.00022732998
0.00022733
0.00022733002
0.00022733003
0.00022733003
0.00022733004
0.00022733004
0.00022733004
0.00022733004
0.00022733004
0.00022733004
0.00022733003
0.00022733003
0.00022733002
0.00022733
0.00022732998
0.00022732995
0.00022732991
0.00022732842
0.00022732844
0.00022732847
0.00022732848
0.0002273285
0.0002273285
0.00022732851
0.00022732851
0.00022732851
0.00022732851
0.00022732851
0.00022732851
0.00022732851
0.00022732851
0.0002273285
0.0002273285
0.00022732848
0.00022732847
0.00022732844
0.00022732842
0.00022732728
0.0002273273
0.00022732732
0.00022732733
0.00022732734
0.00022732734
0.00022732735
0.00022732735
0.00022732735
0.00022732735
0.00022732735
0.00022732735
0.00022732735
0.00022732735
0.00022732734
0.00022732734
0.00022732733
0.00022732732
0.0002273273
0.00022732728
0.00022732642
0.00022732644
0.00022732645
0.00022732646
0.00022732647
0.00022732647
0.00022732647
0.00022732648
0.00022732648
0.00022732648
0.00022732648
0.00022732648
0.00022732648
0.00022732647
0.00022732647
0.00022732647
0.00022732646
0.00022732645
0.00022732644
0.00022732642
0.00022732579
0.0002273258
0.00022732581
0.00022732582
0.00022732582
0.00022732583
0.00022732583
0.00022732583
0.00022732583
0.00022732583
0.00022732583
0.00022732583
0.00022732583
0.00022732583
0.00022732583
0.00022732582
0.00022732582
0.00022732581
0.0002273258
0.00022732579
0.00022732533
0.00022732534
0.00022732535
0.00022732535
0.00022732536
0.00022732536
0.00022732536
0.00022732536
0.00022732536
0.00022732536
0.00022732536
0.00022732536
0.00022732536
0.00022732536
0.00022732536
0.00022732536
0.00022732535
0.00022732535
0.00022732534
0.00022732533
0.00022732501
0.00022732502
0.00022732503
0.00022732503
0.00022732503
0.00022732503
0.00022732504
0.00022732504
0.00022732504
0.00022732504
0.00022732504
0.00022732504
0.00022732504
0.00022732504
0.00022732503
0.00022732503
0.00022732503
0.00022732503
0.00022732502
0.00022732501
0.00022732482
0.00022732482
0.00022732482
0.00022732483
0.00022732483
0.00022732483
0.00022732483
0.00022732483
0.00022732483
0.00022732483
0.00022732483
0.00022732483
0.00022732483
0.00022732483
0.00022732483
0.00022732483
0.00022732483
0.00022732482
0.00022732482
0.00022732482
0.00022732472
0.00022732472
0.00022732472
0.00022732473
0.00022732473
0.00022732473
0.00022732473
0.00022732473
0.00022732473
0.00022732473
0.00022732473
0.00022732473
0.00022732473
0.00022732473
0.00022732473
0.00022732473
0.00022732473
0.00022732472
0.00022732472
0.00022732472
)
;

boundaryField
{
    Wall
    {
        type            calculated;
        value           uniform 4e-05;
    }
    frontAndBack
    {
        type            empty;
    }
    atmosphere
    {
        type            calculated;
        value           uniform 4e-05;
    }
}


// ************************************************************************* //
