/*--------------------------------*- C++ -*----------------------------------*\
| =========                 |                                                 |
| \\      /  F ield         | OpenFOAM: The Open Source CFD Toolbox           |
|  \\    /   O peration     | Version:  3.0.1                                 |
|   \\  /    A nd           | Web:      www.OpenFOAM.org                      |
|    \\/     M anipulation  |                                                 |
\*---------------------------------------------------------------------------*/
FoamFile
{
    version     2.0;
    format      ascii;
    class       volScalarField;
    location    "6";
    object      TS;
}
// * * * * * * * * * * * * * * * * * * * * * * * * * * * * * * * * * * * * * //

dimensions      [0 0 0 1 0 0 0];

internalField   nonuniform List<scalar> 
800
(
306.94586
306.94582
306.94581
306.94581
306.94581
306.94581
306.94581
306.94581
306.94581
306.94581
306.94581
306.94581
306.94581
306.94581
306.94581
306.94581
306.94581
306.94581
306.94582
306.94586
300.0524
300.0533
300.05394
300.0544
300.05471
300.05492
300.05505
300.05513
300.05518
300.0552
300.0552
300.05518
300.05513
300.05505
300.05492
300.05471
300.0544
300.05394
300.0533
300.0524
299.5133
299.51372
299.51422
299.51464
299.51496
299.51518
299.51533
299.51542
299.51547
299.51549
299.51549
299.51547
299.51542
299.51533
299.51518
299.51496
299.51464
299.51422
299.51372
299.5133
299.27225
299.27285
299.2735
299.27403
299.27441
299.27467
299.27484
299.27494
299.27499
299.27502
299.27502
299.27499
299.27494
299.27484
299.27467
299.27441
299.27403
299.2735
299.27285
299.27225
299.06781
299.0691
299.07018
299.07092
299.07141
299.07171
299.07191
299.07202
299.07208
299.07211
299.07211
299.07208
299.07202
299.07191
299.07171
299.07141
299.07092
299.07018
299.0691
299.06781
298.89628
298.8982
298.89969
298.90064
298.90123
298.90158
298.9018
298.90193
298.90199
298.90202
298.90202
298.90199
298.90193
298.9018
298.90158
298.90123
298.90064
298.89969
298.8982
298.89628
298.7531
298.75515
298.75678
298.75783
298.75847
298.75887
298.7591
298.75923
298.7593
298.75933
298.75933
298.7593
298.75923
298.7591
298.75886
298.75847
298.75783
298.75678
298.75515
298.7531
298.63391
298.6358
298.63738
298.63842
298.63907
298.63947
298.63971
298.63984
298.63992
298.63995
298.63995
298.63992
298.63984
298.63971
298.63947
298.63907
298.63842
298.63738
298.6358
298.63391
298.53466
298.53632
298.53775
298.53872
298.53934
298.53972
298.53995
298.54009
298.54016
298.54019
298.54019
298.54016
298.54009
298.53995
298.53972
298.53934
298.53872
298.53775
298.53632
298.53466
298.45176
298.45319
298.45444
298.45531
298.45588
298.45624
298.45645
298.45658
298.45665
298.45668
298.45668
298.45665
298.45658
298.45645
298.45624
298.45588
298.45531
298.45444
298.45319
298.45176
298.38216
298.38338
298.38446
298.38522
298.38573
298.38606
298.38626
298.38638
298.38644
298.38647
298.38647
298.38644
298.38638
298.38626
298.38606
298.38573
298.38522
298.38446
298.38338
298.38216
298.32334
298.32438
298.32531
298.32598
298.32642
298.32671
298.32689
298.327
298.32706
298.32709
298.32709
298.32706
298.327
298.32689
298.32671
298.32642
298.32598
298.32531
298.32438
298.32334
298.27332
298.27421
298.27501
298.27559
298.27598
298.27623
298.2764
298.27649
298.27655
298.27657
298.27657
298.27655
298.27649
298.2764
298.27623
298.27598
298.27559
298.27501
298.27421
298.27332
298.23056
298.23133
298.23202
298.23252
298.23286
298.23308
298.23323
298.23331
298.23336
298.23339
298.23339
298.23336
298.23331
298.23323
298.23308
298.23286
298.23252
298.23202
298.23133
298.23056
298.1939
298.19456
298.19515
298.19559
298.19588
298.19608
298.1962
298.19628
298.19632
298.19634
298.19634
298.19632
298.19628
298.1962
298.19608
298.19588
298.19559
298.19515
298.19456
298.1939
298.16242
298.16299
298.1635
298.16388
298.16413
298.1643
298.16441
298.16448
298.16452
298.16453
298.16453
298.16452
298.16448
298.16441
298.1643
298.16413
298.16388
298.1635
298.16299
298.16242
298.13542
298.1359
298.13634
298.13667
298.13689
298.13703
298.13713
298.13719
298.13722
298.13724
298.13724
298.13722
298.13719
298.13713
298.13703
298.13689
298.13667
298.13634
298.1359
298.13542
298.11231
298.11272
298.1131
298.11338
298.11357
298.11369
298.11378
298.11383
298.11386
298.11387
298.11387
298.11386
298.11383
298.11378
298.11369
298.11357
298.11338
298.1131
298.11272
298.11231
298.09261
298.09296
298.09329
298.09352
298.09368
298.09379
298.09386
298.09391
298.09393
298.09394
298.09394
298.09393
298.09391
298.09386
298.09379
298.09368
298.09352
298.09329
298.09296
298.09261
298.0759
298.0762
298.07648
298.07668
298.07682
298.07691
298.07697
298.07701
298.07703
298.07704
298.07704
298.07703
298.07701
298.07697
298.07691
298.07682
298.07668
298.07648
298.0762
298.0759
298.06182
298.06207
298.0623
298.06247
298.06259
298.06267
298.06272
298.06275
298.06277
298.06277
298.06277
298.06277
298.06275
298.06272
298.06267
298.06259
298.06247
298.0623
298.06207
298.06182
298.05002
298.05023
298.05042
298.05057
298.05066
298.05073
298.05077
298.0508
298.05081
298.05082
298.05082
298.05081
298.0508
298.05077
298.05073
298.05066
298.05057
298.05042
298.05023
298.05002
298.0402
298.04038
298.04054
298.04066
298.04074
298.04079
298.04083
298.04085
298.04086
298.04087
298.04087
298.04086
298.04085
298.04083
298.04079
298.04074
298.04066
298.04054
298.04038
298.0402
298.03209
298.03224
298.03237
298.03247
298.03254
298.03258
298.03261
298.03263
298.03264
298.03265
298.03265
298.03264
298.03263
298.03261
298.03258
298.03254
298.03247
298.03237
298.03224
298.03209
298.02544
298.02556
298.02567
298.02575
298.02581
298.02585
298.02587
298.02588
298.02589
298.0259
298.0259
298.02589
298.02588
298.02587
298.02585
298.02581
298.02575
298.02567
298.02556
298.02544
298.02003
298.02013
298.02022
298.02028
298.02033
298.02036
298.02038
298.02039
298.0204
298.0204
298.0204
298.0204
298.02039
298.02038
298.02036
298.02033
298.02028
298.02022
298.02013
298.02003
298.01566
298.01574
298.01581
298.01587
298.0159
298.01593
298.01594
298.01595
298.01596
298.01596
298.01596
298.01596
298.01595
298.01594
298.01593
298.0159
298.01587
298.01581
298.01574
298.01566
298.01216
298.01222
298.01228
298.01232
298.01235
298.01237
298.01239
298.01239
298.0124
298.0124
298.0124
298.0124
298.01239
298.01239
298.01237
298.01235
298.01232
298.01228
298.01222
298.01216
298.00938
298.00943
298.00947
298.00951
298.00953
298.00954
298.00955
298.00956
298.00956
298.00957
298.00957
298.00956
298.00956
298.00955
298.00954
298.00953
298.00951
298.00947
298.00943
298.00938
298.00718
298.00722
298.00725
298.00728
298.0073
298.00731
298.00732
298.00732
298.00733
298.00733
298.00733
298.00733
298.00732
298.00732
298.00731
298.0073
298.00728
298.00725
298.00722
298.00718
298.00546
298.00549
298.00552
298.00554
298.00555
298.00556
298.00557
298.00557
298.00558
298.00558
298.00558
298.00558
298.00557
298.00557
298.00556
298.00555
298.00554
298.00552
298.00549
298.00546
298.00412
298.00415
298.00417
298.00419
298.0042
298.0042
298.00421
298.00421
298.00421
298.00421
298.00421
298.00421
298.00421
298.00421
298.0042
298.0042
298.00419
298.00417
298.00415
298.00412
298.0031
298.00311
298.00313
298.00314
298.00315
298.00316
298.00316
298.00316
298.00317
298.00317
298.00317
298.00317
298.00316
298.00316
298.00316
298.00315
298.00314
298.00313
298.00311
298.0031
298.00231
298.00233
298.00234
298.00235
298.00236
298.00236
298.00236
298.00236
298.00237
298.00237
298.00237
298.00237
298.00236
298.00236
298.00236
298.00236
298.00235
298.00234
298.00233
298.00231
298.00172
298.00173
298.00174
298.00175
298.00176
298.00176
298.00176
298.00176
298.00176
298.00176
298.00176
298.00176
298.00176
298.00176
298.00176
298.00176
298.00175
298.00174
298.00173
298.00172
298.00129
298.00129
298.0013
298.00131
298.00131
298.00131
298.00131
298.00132
298.00132
298.00132
298.00132
298.00132
298.00132
298.00131
298.00131
298.00131
298.00131
298.0013
298.00129
298.00129
298.00097
298.00097
298.00098
298.00098
298.00099
298.00099
298.00099
298.00099
298.00099
298.00099
298.00099
298.00099
298.00099
298.00099
298.00099
298.00099
298.00098
298.00098
298.00097
298.00097
298.00075
298.00075
298.00076
298.00076
298.00076
298.00076
298.00077
298.00077
298.00077
298.00077
298.00077
298.00077
298.00077
298.00077
298.00076
298.00076
298.00076
298.00076
298.00075
298.00075
298.00061
298.00061
298.00062
298.00062
298.00062
298.00062
298.00062
298.00062
298.00062
298.00062
298.00062
298.00062
298.00062
298.00062
298.00062
298.00062
298.00062
298.00062
298.00061
298.00061
298.00054
298.00055
298.00055
298.00055
298.00055
298.00055
298.00055
298.00055
298.00055
298.00055
298.00055
298.00055
298.00055
298.00055
298.00055
298.00055
298.00055
298.00055
298.00055
298.00054
)
;

boundaryField
{
    Wall
    {
        type            zeroGradient;
    }
    frontAndBack
    {
        type            empty;
    }
    atmosphere
    {
        type            zeroGradient;
    }
}


// ************************************************************************* //
