/*--------------------------------*- C++ -*----------------------------------*\
| =========                 |                                                 |
| \\      /  F ield         | OpenFOAM: The Open Source CFD Toolbox           |
|  \\    /   O peration     | Version:  3.0.1                                 |
|   \\  /    A nd           | Web:      www.OpenFOAM.org                      |
|    \\/     M anipulation  |                                                 |
\*---------------------------------------------------------------------------*/
FoamFile
{
    version     2.0;
    format      ascii;
    class       volVectorField;
    location    "6";
    object      U;
}
// * * * * * * * * * * * * * * * * * * * * * * * * * * * * * * * * * * * * * //

dimensions      [0 1 -1 0 0 0 0];

internalField   nonuniform List<vector> 
800
(
(-6.7854255e-07 0.0011955612 0)
(-9.1694177e-07 0.0011982107 0)
(-4.1832909e-07 0.0011990709 0)
(-1.5486312e-07 0.0011995918 0)
(-4.5569802e-08 0.0011998933 0)
(-5.1608545e-09 0.001200081 0)
(7.0125087e-09 0.0012002028 0)
(8.3810302e-09 0.0012002823 0)
(5.8775468e-09 0.0012003307 0)
(2.1039279e-09 0.0012003538 0)
(-1.9591246e-09 0.0012003537 0)
(-5.7375651e-09 0.0012003306 0)
(-8.251011e-09 0.001200282 0)
(-6.8927002e-09 0.0012002026 0)
(5.2680827e-09 0.0012000806 0)
(4.5667475e-08 0.0011998929 0)
(1.5495361e-07 0.0011995913 0)
(4.1840602e-07 0.0011990704 0)
(9.1698777e-07 0.0011982101 0)
(6.7855628e-07 0.0011955606 0)
(4.7354891e-07 0.0012862422 0)
(8.6012328e-07 0.0012881269 0)
(6.5125172e-07 0.0012884905 0)
(5.0492814e-07 0.0012886421 0)
(3.5286042e-07 0.0012887056 0)
(2.5039009e-07 0.0012887317 0)
(1.7482739e-07 0.0012887423 0)
(1.1565021e-07 0.0012887466 0)
(6.6079722e-08 0.0012887484 0)
(2.1511704e-08 0.0012887491 0)
(-2.151155e-08 0.0012887491 0)
(-6.607712e-08 0.0012887485 0)
(-1.1564963e-07 0.0012887466 0)
(-1.7482463e-07 0.0012887423 0)
(-2.5038851e-07 0.0012887317 0)
(-3.5286316e-07 0.0012887056 0)
(-5.0488519e-07 0.0012886421 0)
(-6.51256e-07 0.0012884905 0)
(-8.6013659e-07 0.0012881269 0)
(-4.7351066e-07 0.0012862421 0)
(-2.2964134e-07 0.0014824588 0)
(-1.8833124e-07 0.0014838035 0)
(8.8732452e-08 0.0014827874 0)
(1.4254504e-07 0.0014820266 0)
(1.2332339e-07 0.0014815239 0)
(9.5521624e-08 0.0014811714 0)
(6.9641381e-08 0.0014809233 0)
(4.7195875e-08 0.0014807536 0)
(2.7401403e-08 0.0014806473 0)
(9.1376023e-09 0.0014805961 0)
(-8.6377757e-09 0.0014805962 0)
(-2.692344e-08 0.0014806476 0)
(-4.6759429e-08 0.0014807541 0)
(-6.924544e-08 0.001480924 0)
(-9.5173729e-08 0.0014811722 0)
(-1.2300653e-07 0.0014815248 0)
(-1.4223394e-07 0.0014820277 0)
(-8.8471152e-08 0.0014827885 0)
(1.8850175e-07 0.0014838049 0)
(2.2970771e-07 0.0014824601 0)
(7.6864562e-07 0.0014266192 0)
(1.7348988e-06 0.001521812 0)
(1.7975569e-06 0.0015269297 0)
(1.4667781e-06 0.0015269466 0)
(1.1255256e-06 0.0015267224 0)
(8.4051886e-07 0.0015265397 0)
(6.0793883e-07 0.0015264078 0)
(4.1269164e-07 0.0015263182 0)
(2.4087701e-07 0.0015262628 0)
(8.1626638e-08 0.0015262363 0)
(-7.3813359e-08 0.0015262363 0)
(-2.3341556e-07 0.0015262627 0)
(-4.0585835e-07 0.001526318 0)
(-6.0182354e-07 0.0015264076 0)
(-8.3508518e-07 0.0015265394 0)
(-1.1206316e-06 0.001526722 0)
(-1.4623274e-06 0.001526946 0)
(-1.7936873e-06 0.0015269287 0)
(-1.7321098e-06 0.0015218107 0)
(-7.6755968e-07 0.0014266179 0)
(5.2808125e-06 0.0013069267 0)
(1.1682764e-05 0.0020337223 0)
(1.2626999e-05 0.0021584468 0)
(1.1056468e-05 0.0021738361 0)
(8.9032124e-06 0.0021746509 0)
(6.8531765e-06 0.0021740379 0)
(5.0508525e-06 0.0021734814 0)
(3.4678065e-06 0.0021731034 0)
(2.0372161e-06 0.0021728775 0)
(6.928153e-07 0.0021727725 0)
(-6.2510211e-07 0.0021727719 0)
(-1.9723978e-06 0.0021728755 0)
(-3.4082156e-06 0.0021731002 0)
(-4.9975503e-06 0.0021734772 0)
(-6.806089e-06 0.0021740324 0)
(-8.8617874e-06 0.0021746435 0)
(-1.1020593e-05 0.0021738256 0)
(-1.2597986e-05 0.0021584323 0)
(-1.1663491e-05 0.0020337042 0)
(-5.2738661e-06 0.0013069114 0)
(5.2878238e-06 0.0013010166 0)
(1.2757001e-05 0.0022213338 0)
(1.4748863e-05 0.0024008488 0)
(1.3627724e-05 0.0024250958 0)
(1.1415764e-05 0.0024266283 0)
(9.0335225e-06 0.0024256386 0)
(6.7831783e-06 0.0024246629 0)
(4.7138121e-06 0.0024239742 0)
(2.7896713e-06 0.0024235534 0)
(9.5325135e-07 0.0024233551 0)
(-8.5591973e-07 0.0024233537 0)
(-2.6964671e-06 0.0024235491 0)
(-4.6280557e-06 0.0024239675 0)
(-6.7066501e-06 0.0024246542 0)
(-8.9665807e-06 0.0024256275 0)
(-1.1358227e-05 0.0024266139 0)
(-1.3579972e-05 0.002425076 0)
(-1.4712813e-05 0.0024008218 0)
(-1.2735535e-05 0.0022213009 0)
(-5.2812777e-06 0.0013009915 0)
(3.7277174e-06 0.0012908076 0)
(9.7200933e-06 0.0022496052 0)
(1.2039333e-05 0.002445026 0)
(1.1794274e-05 0.0024729089 0)
(1.0345825e-05 0.002475076 0)
(8.4721077e-06 0.0024740502 0)
(6.5178973e-06 0.0024729013 0)
(4.6041733e-06 0.0024720475 0)
(2.7530963e-06 0.0024715103 0)
(9.4762767e-07 0.0024712532 0)
(-8.4342165e-07 0.002471251 0)
(-2.6531097e-06 0.0024715039 0)
(-4.51192e-06 0.0024720375 0)
(-6.4357204e-06 0.0024728886 0)
(-8.4011438e-06 0.0024740348 0)
(-1.0286777e-05 0.0024750569 0)
(-1.1748361e-05 0.0024728841 0)
(-1.2008587e-05 0.0024449934 0)
(-9.7055867e-06 0.0022495666 0)
(-3.7249325e-06 0.0012907805 0)
(2.3748516e-06 0.0012839393 0)
(6.5453332e-06 0.0022467794 0)
(8.6308508e-06 0.0024461812 0)
(8.95455e-06 0.0024757909 0)
(8.23639e-06 0.0024786383 0)
(6.9965783e-06 0.0024778423 0)
(5.52939e-06 0.0024767363 0)
(3.9795419e-06 0.0024758604 0)
(2.4087299e-06 0.0024752902 0)
(8.3690134e-07 0.0024750122 0)
(-7.3508225e-07 0.0024750092 0)
(-2.3106188e-06 0.0024752816 0)
(-3.8883891e-06 0.0024758473 0)
(-5.4479057e-06 0.0024767201 0)
(-6.9268104e-06 0.0024778237 0)
(-8.1801054e-06 0.0024786171 0)
(-8.9138602e-06 0.002475766 0)
(-8.6077189e-06 0.002446151 0)
(-6.5386229e-06 0.0022467457 0)
(-2.3755458e-06 0.001283918 0)
(1.497572e-06 0.0012807888 0)
(4.2762166e-06 0.002243012 0)
(5.9348163e-06 0.0024436097 0)
(6.4747576e-06 0.0024742683 0)
(6.2185745e-06 0.0024777619 0)
(5.4680075e-06 0.00247731 0)
(4.4354203e-06 0.0024763702 0)
(3.2521068e-06 0.0024755669 0)
(1.9931839e-06 0.0024750246 0)
(6.9994347e-07 0.0024747548 0)
(-6.0410918e-07 0.002474751 0)
(-1.9001805e-06 0.0024750139 0)
(-3.1645832e-06 0.0024755507 0)
(-4.3561178e-06 0.0024763505 0)
(-5.3996715e-06 0.0024772886 0)
(-6.1639799e-06 0.0024777399 0)
(-6.4368776e-06 0.0024742458 0)
(-5.9156476e-06 0.0024435865 0)
(-4.2731541e-06 0.0022429895 0)
(-1.4995441e-06 0.0012807771 0)
(9.6433785e-07 0.0012792792 0)
(2.8144275e-06 0.0022408987 0)
(4.0604947e-06 0.0024420574 0)
(4.6126581e-06 0.0024734271 0)
(4.5930443e-06 0.0024774632 0)
(4.1606449e-06 0.0024773634 0)
(3.4538228e-06 0.0024766351 0)
(2.5756051e-06 0.0024759517 0)
(1.5972155e-06 0.0024754721 0)
(5.6720054e-07 0.0024752287 0)
(-4.7926321e-07 0.0024752242 0)
(-1.5109355e-06 0.0024754594 0)
(-2.4927907e-06 0.0024759325 0)
(-3.3769173e-06 0.0024766119 0)
(-4.0927427e-06 0.0024773389 0)
(-4.5376269e-06 0.0024774396 0)
(-4.5733598e-06 0.002473406 0)
(-4.0395961e-06 0.0024420401 0)
(-2.8092689e-06 0.0022408865 0)
(-9.649575e-07 0.0012792755 0)
(6.3818133e-07 0.001278423 0)
(1.8875989e-06 0.0022396733 0)
(2.8004346e-06 0.0024411585 0)
(3.2804148e-06 0.0024730129 0)
(3.360855e-06 0.0024774699 0)
(3.1191571e-06 0.0024776797 0)
(2.639871e-06 0.0024771613 0)
(1.9974589e-06 0.0024766113 0)
(1.2516829e-06 0.002476209 0)
(4.4947119e-07 0.0024760005 0)
(-3.707718e-07 0.0024759955 0)
(-1.1733583e-06 0.0024761947 0)
(-1.9203102e-06 0.0024765895 0)
(-2.565805e-06 0.0024771347 0)
(-3.0512326e-06 0.0024776514 0)
(-3.302901e-06 0.0024774428 0)
(-3.236528e-06 0.0024729897 0)
(-2.7733772e-06 0.0024411417 0)
(-1.8759849e-06 0.0022396647 0)
(-6.3562343e-07 0.0012784216 0)
(4.3314308e-07 0.0012778827 0)
(1.291338e-06 0.0022388876 0)
(1.9532235e-06 0.0024405686 0)
(2.3397922e-06 0.0024727498 0)
(2.4495516e-06 0.002477519 0)
(2.3170235e-06 0.0024779804 0)
(1.9918498e-06 0.0024776475 0)
(1.5253719e-06 0.0024772244 0)
(9.6441454e-07 0.0024769003 0)
(3.5001814e-07 0.0024767287 0)
(-2.8136488e-07 0.0024767235 0)
(-8.9490095e-07 0.0024768853 0)
(-1.454838e-06 0.0024772013 0)
(-1.9215989e-06 0.0024776185 0)
(-2.2497695e-06 0.0024779485 0)
(-2.3891332e-06 0.0024774872 0)
(-2.2906165e-06 0.0024727212 0)
(-1.9186849e-06 0.0024405461 0)
(-1.272037e-06 0.0022388739 0)
(-4.2706766e-07 0.0012778769 0)
(3.0018705e-07 0.0012775245 0)
(8.9879672e-07 0.0022383559 0)
(1.3770584e-06 0.0024401551 0)
(1.6758456e-06 0.002472556 0)
(1.7826551e-06 0.0024775513 0)
(1.7108473e-06 0.002478208 0)
(1.4888586e-06 0.0024780286 0)
(1.1512719e-06 0.0024777165 0)
(7.3334642e-07 0.0024774636 0)
(2.6885718e-07 0.0024773268 0)
(-2.1024547e-07 0.0024773219 0)
(-6.7290925e-07 0.0024774493 0)
(-1.0881155e-06 0.002477694 0)
(-1.4236666e-06 0.0024779995 0)
(-1.645883e-06 0.0024781744 0)
(-1.721628e-06 0.0024775157 0)
(-1.6232921e-06 0.002472521 0)
(-1.3370047e-06 0.0024401236 0)
(-8.7379962e-07 0.0022383314 0)
(-2.9167288e-07 0.0012775103 0)
(2.1136075e-07 0.0012772767 0)
(6.3405251e-07 0.0022379804 0)
(9.7940667e-07 0.0024398514 0)
(1.2049011e-06 0.0024724008 0)
(1.2965627e-06 0.0024775579 0)
(1.2579519e-06 0.0024783624 0)
(1.1051445e-06 0.0024783048 0)
(8.6117902e-07 0.0024780845 0)
(5.5203308e-07 0.0024778925 0)
(2.0448603e-07 0.0024777864 0)
(-1.5493073e-07 0.0024777823 0)
(-5.0011195e-07 0.0024778805 0)
(-8.0553347e-07 0.0024780648 0)
(-1.046013e-06 0.0024782784 0)
(-1.197241e-06 0.0024783303 0)
(-1.2377837e-06 0.0024775217 0)
(-1.1525659e-06 0.0024723619 0)
(-9.3798741e-07 0.0024398123 0)
(-6.0740279e-07 0.002237945 0)
(-2.0231817e-07 0.0012772541 0)
(1.5033097e-07 0.0012770942 0)
(4.5130425e-07 0.0022376983 0)
(7.007404e-07 0.0024396127 0)
(8.6852396e-07 0.002472263 0)
(9.4244677e-07 0.0024775356 0)
(9.2189118e-07 0.0024784499 0)
(8.1593227e-07 0.0024784866 0)
(6.3985921e-07 0.0024783395 0)
(4.125729e-07 0.0024781976 0)
(1.5477831e-07 0.0024781172 0)
(-1.1232388e-07 0.0024781142 0)
(-3.6765919e-07 0.0024781887 0)
(-5.9100289e-07 0.0024783246 0)
(-7.6314626e-07 0.0024784656 0)
(-8.6687455e-07 0.002478423 0)
(-8.8854113e-07 0.002477503 0)
(-8.2014652e-07 0.0024722251 0)
(-6.625719e-07 0.002439571 0)
(-4.2751596e-07 0.0022376567 0)
(-1.4279702e-07 0.0012770666 0)
(1.0732257e-07 0.0012769497 0)
(3.2243607e-07 0.0022374702 0)
(5.026108e-07 0.0024394099 0)
(6.2644513e-07 0.0024721294 0)
(6.8413564e-07 0.0024774844 0)
(6.7355725e-07 0.0024784798 0)
(5.9979031e-07 0.0024785879 0)
(4.7303846e-07 0.0024784979 0)
(3.0696024e-07 0.0024783956 0)
(1.1728418e-07 0.002478336 0)
(-7.9516547e-08 0.0024783343 0)
(-2.6698345e-07 0.0024783903 0)
(-4.2950512e-07 0.0024784886 0)
(-5.5271098e-07 0.0024785739 0)
(-6.2459719e-07 0.0024784604 0)
(-6.3659263e-07 0.0024774591 0)
(-5.8465048e-07 0.0024720975 0)
(-4.712156e-07 0.0024393718 0)
(-3.0496455e-07 0.0022374293 0)
(-1.0277245e-07 0.0012769223 0)
(7.637036e-08 0.001276829 0)
(2.2993032e-07 0.0022372757 0)
(3.5996052e-07 0.0024392289 0)
(4.5096283e-07 0.0024719963 0)
(4.9530389e-07 0.0024774105 0)
(4.9045554e-07 0.0024784653 0)
(4.3916018e-07 0.002478627 0)
(3.4835127e-07 0.0024785804 0)
(2.2789899e-07 0.0024785087 0)
(8.9558639e-08 0.0024784653 0)
(-5.413289e-08 0.0024784646 0)
(-1.9068204e-07 0.0024785064 0)
(-3.0829462e-07 0.0024785759 0)
(-3.9641971e-07 0.0024786194 0)
(-4.4682856e-07 0.0024784537 0)
(-4.5418314e-07 0.0024773936 0)
(-4.1662866e-07 0.0024719731 0)
(-3.3681849e-07 0.0024391989 0)
(-2.2019461e-07 0.0022372414 0)
(-7.5303352e-08 0.0012768062 0)
(5.3807228e-08 0.0012767269 0)
(1.6270986e-07 0.0022371078 0)
(2.563122e-07 0.0024390674 0)
(3.23065e-07 0.0024718684 0)
(3.5691471e-07 0.0024773252 0)
(3.5542202e-07 0.0024784235 0)
(3.2005455e-07 0.0024786249 0)
(2.5555183e-07 0.0024786108 0)
(1.6905828e-07 0.0024785621 0)
(6.9256201e-08 0.0024785308 0)
(-3.4510415e-08 0.0024785306 0)
(-1.3294774e-07 0.0024785614 0)
(-2.1736464e-07 0.0024786091 0)
(-2.8018846e-07 0.0024786213 0)
(-3.1584759e-07 0.002478417 0)
(-3.211096e-07 0.0024773148 0)
(-2.9532854e-07 0.0024718531 0)
(-2.4073135e-07 0.0024390463 0)
(-1.5997177e-07 0.0022370825 0)
(-5.5744595e-08 0.0012767106 0)
(3.7278232e-08 0.0012766433 0)
(1.1356809e-07 0.0022369676 0)
(1.8057428e-07 0.0024389295 0)
(2.2944275e-07 0.0024717544 0)
(2.5522792e-07 0.002477242 0)
(2.5570516e-07 0.0024783721 0)
(2.3168974e-07 0.0024786027 0)
(1.8646291e-07 0.0024786126 0)
(1.2518441e-07 0.0024785808 0)
(5.4220133e-08 0.0024785582 0)
(-1.9607988e-08 0.0024785579 0)
(-8.9552603e-08 0.0024785799 0)
(-1.4934476e-07 0.0024786106 0)
(-1.9368518e-07 0.0024785991 0)
(-2.1888795e-07 0.0024783664 0)
(-2.231393e-07 0.0024772336 0)
(-2.0645235e-07 0.0024717427 0)
(-1.704047e-07 0.002438914 0)
(-1.155832e-07 0.0022369493 0)
(-4.1091689e-08 0.0012766324 0)
(2.5221012e-08 0.0012765795 0)
(7.7700422e-08 0.0022368584 0)
(1.2521696e-07 0.0024388209 0)
(1.6079915e-07 0.002471663 0)
(1.8031342e-07 0.002477173 0)
(1.8183383e-07 0.0024783264 0)
(1.6583947e-07 0.0024785784 0)
(1.3465391e-07 0.0024786058 0)
(9.200897e-08 0.0024785863 0)
(4.2502699e-08 0.0024785696 0)
(-8.9620839e-09 0.0024785685 0)
(-5.7616341e-08 0.002478583 0)
(-9.9014951e-08 0.0024786003 0)
(-1.2959418e-07 0.0024785706 0)
(-1.4711136e-07 0.0024783164 0)
(-1.5064138e-07 0.0024771608 0)
(-1.4052162e-07 0.0024716488 0)
(-1.1774232e-07 0.0024388049 0)
(-8.1595558e-08 0.0022368419 0)
(-2.9534823e-08 0.0012765705 0)
(1.6563545e-08 0.001276536 0)
(5.1780273e-08 0.002236782 0)
(8.4935512e-08 0.0024387449 0)
(1.1048676e-07 0.0024715996 0)
(1.2499676e-07 0.0024771261 0)
(1.2688611e-07 0.0024782964 0)
(1.1644981e-07 0.0024785641 0)
(9.5352172e-08 0.0024786043 0)
(6.628763e-08 0.0024785935 0)
(3.2559953e-08 0.0024785807 0)
(-2.3074404e-09 0.0024785783 0)
(-3.5061671e-08 0.0024785865 0)
(-6.26949e-08 0.0024785929 0)
(-8.2924939e-08 0.0024785487 0)
(-9.4540482e-08 0.0024782777 0)
(-9.721301e-08 0.0024771047 0)
(-9.1424519e-08 0.0024715767 0)
(-7.7778988e-08 0.0024387217 0)
(-5.4976164e-08 0.0022367606 0)
(-2.018624e-08 0.0012765246 0)
(1.0465841e-08 0.0012765112 0)
(3.328971e-08 0.0022367367 0)
(5.5823836e-08 0.0024387004 0)
(7.3681822e-08 0.0024715645 0)
(8.4074227e-08 0.0024771031 0)
(8.5815211e-08 0.002478286 0)
(7.9060549e-08 0.0024785651 0)
(6.5024467e-08 0.0024786146 0)
(4.5684869e-08 0.00247861 0)
(2.3409958e-08 0.0024785997 0)
(6.9438013e-10 0.0024785959 0)
(-2.0308317e-08 0.0024785987 0)
(-3.7696809e-08 0.0024785963 0)
(-5.0140794e-08 0.0024785404 0)
(-5.7102188e-08 0.002478256 0)
(-5.8659213e-08 0.0024770692 0)
(-5.5360597e-08 0.0024715285 0)
(-4.761905e-08 0.0024386647 0)
(-3.4135428e-08 0.0022367047 0)
(-1.2647987e-08 0.0012764935 0)
(6.2410344e-09 0.0012765013 0)
(2.0307392e-08 0.0022367169 0)
(3.4983042e-08 0.0024386821 0)
(4.6847041e-08 0.0024715532 0)
(5.3791566e-08 0.0024771007 0)
(5.4950488e-08 0.0024782929 0)
(5.045638e-08 0.0024785804 0)
(4.124717e-08 0.0024786369 0)
(2.8738789e-08 0.0024786369 0)
(1.4600988e-08 0.0024786285 0)
(5.6305779e-10 0.0024786234 0)
(-1.1985881e-08 0.0024786218 0)
(-2.1911867e-08 0.0024786122 0)
(-2.8551339e-08 0.002478547 0)
(-3.1831457e-08 0.0024782519 0)
(-3.2098019e-08 0.0024770539 0)
(-2.991602e-08 0.0024715028 0)
(-2.5674378e-08 0.0024386314 0)
(-1.8385879e-08 0.002236671 0)
(-6.7995551e-09 0.0012764752 0)
(3.4048943e-09 0.0012765016 0)
(1.1373391e-08 0.0022367146 0)
(2.0217733e-08 0.0024386816 0)
(2.7382513e-08 0.0024715579 0)
(3.1403457e-08 0.002477112 0)
(3.1710739e-08 0.0024783111 0)
(2.848563e-08 0.0024786051 0)
(2.2429581e-08 0.0024786669 0)
(1.455278e-08 0.0024786705 0)
(6.031353e-09 0.0024786636 0)
(-2.0092309e-09 0.0024786576 0)
(-8.7122605e-09 0.0024786528 0)
(-1.3431773e-08 0.0024786378 0)
(-1.5924149e-08 0.0024785653 0)
(-1.6399687e-08 0.0024782616 0)
(-1.5348989e-08 0.0024770547 0)
(-1.3392869e-08 0.0024714951 0)
(-1.0926955e-08 0.002438617 0)
(-7.383708e-09 0.0022366548 0)
(-2.6392895e-09 0.0012764668 0)
(1.5115236e-09 0.0012765066 0)
(5.2234761e-09 0.0022367211 0)
(9.7110288e-09 0.0024386898 0)
(1.3242279e-08 0.0024715698 0)
(1.4891799e-08 0.0024771289 0)
(1.4283983e-08 0.0024783332 0)
(1.1673548e-08 0.0024786322 0)
(7.5848642e-09 0.0024786982 0)
(2.7021273e-09 0.0024787049 0)
(-2.1382496e-09 0.0024786994 0)
(-6.2458848e-09 0.0024786932 0)
(-9.1234425e-09 0.0024786863 0)
(-1.044622e-08 0.0024786674 0)
(-1.0194901e-08 0.0024785895 0)
(-8.6846821e-09 0.0024782793 0)
(-6.5079917e-09 0.0024770654 0)
(-4.2849462e-09 0.0024714989 0)
(-2.410265e-09 0.0024386151 0)
(-7.397231e-10 0.0022366504 0)
(-9.7504834e-11 0.001276465 0)
(2.1842504e-10 0.001276512 0)
(9.1473821e-10 0.0022367284 0)
(2.1800656e-09 0.0024386984 0)
(2.9632041e-09 0.0024715811 0)
(2.7472946e-09 0.0024771438 0)
(1.3427003e-09 0.0024783521 0)
(-1.0031858e-09 0.0024786551 0)
(-3.9122793e-09 0.0024787246 0)
(-6.9539785e-09 0.002478734 0)
(-9.5450598e-09 0.0024787302 0)
(-1.126767e-08 0.0024787243 0)
(-1.1883945e-08 0.0024787163 0)
(-1.1253575e-08 0.002478695 0)
(-9.4376391e-09 0.0024786135 0)
(-6.7578761e-09 0.0024782987 0)
(-3.7894149e-09 0.0024770796 0)
(-1.1044406e-09 0.0024715079 0)
(9.6100493e-10 0.0024386194 0)
(2.1379061e-09 0.0022366521 0)
(9.8848873e-10 0.0012764667 0)
(-7.4628428e-10 0.0012765146 0)
(-2.2136902e-09 0.0022367309 0)
(-3.2729658e-09 0.0024387016 0)
(-4.4974575e-09 0.0024715862 0)
(-6.070748e-09 0.0024771515 0)
(-8.0634678e-09 0.0024783629 0)
(-1.0299639e-08 0.0024786691 0)
(-1.2543641e-08 0.0024787416 0)
(-1.4488931e-08 0.0024787535 0)
(-1.5766066e-08 0.0024787514 0)
(-1.6219875e-08 0.0024787464 0)
(-1.5765065e-08 0.0024787382 0)
(-1.4312614e-08 0.0024787157 0)
(-1.1924105e-08 0.0024786321 0)
(-8.8248852e-09 0.0024783144 0)
(-5.4552914e-09 0.0024770919 0)
(-2.2940639e-09 0.0024715166 0)
(3.8225383e-10 0.0024386248 0)
(2.0653304e-09 0.0022366554 0)
(9.7245534e-10 0.0012764694 0)
(-1.546734e-09 0.0012765128 0)
(-4.6671088e-09 0.0022367263 0)
(-7.3396037e-09 0.0024386966 0)
(-9.8948989e-09 0.0024715824 0)
(-1.2364234e-08 0.0024771497 0)
(-1.4707137e-08 0.0024783635 0)
(-1.6828803e-08 0.0024786723 0)
(-1.8633671e-08 0.0024787473 0)
(-1.9928258e-08 0.0024787613 0)
(-2.0535209e-08 0.002478761 0)
(-2.0487629e-08 0.0024787572 0)
(-1.9797909e-08 0.0024787496 0)
(-1.8360242e-08 0.0024787269 0)
(-1.6166965e-08 0.0024786424 0)
(-1.327701e-08 0.0024783233 0)
(-9.8659911e-09 0.0024770989 0)
(-6.2741838e-09 0.0024715215 0)
(-2.7606944e-09 0.0024386279 0)
(7.7510156e-11 0.0022366574 0)
(2.698501e-10 0.0012764713 0)
(-2.2439584e-09 0.0012765068 0)
(-6.65016e-09 0.0022367143 0)
(-1.0423991e-08 0.0024386835 0)
(-1.3809659e-08 0.0024715701 0)
(-1.6743566e-08 0.0024771389 0)
(-1.916187e-08 0.0024783545 0)
(-2.1068419e-08 0.0024786654 0)
(-2.2507675e-08 0.0024787424 0)
(-2.3409051e-08 0.0024787585 0)
(-2.3760366e-08 0.0024787599 0)
(-2.3713471e-08 0.0024787574 0)
(-2.3335942e-08 0.0024787508 0)
(-2.2470598e-08 0.0024787286 0)
(-2.097961e-08 0.0024786442 0)
(-1.8715438e-08 0.0024783248 0)
(-1.5525958e-08 0.0024770998 0)
(-1.1567889e-08 0.0024715217 0)
(-7.1202205e-09 0.0024386276 0)
(-2.7990334e-09 0.0022366571 0)
(-7.2692967e-10 0.0012764722 0)
(-2.8300811e-09 0.0012764978 0)
(-8.2607027e-09 0.0022366971 0)
(-1.276352e-08 0.0024386648 0)
(-1.6546522e-08 0.0024715518 0)
(-1.9578387e-08 0.0024771219 0)
(-2.1856902e-08 0.0024783391 0)
(-2.344823e-08 0.0024786516 0)
(-2.4504678e-08 0.0024787303 0)
(-2.5126452e-08 0.0024787481 0)
(-2.5465165e-08 0.002478751 0)
(-2.5730392e-08 0.0024787499 0)
(-2.5962563e-08 0.0024787443 0)
(-2.5963282e-08 0.002478723 0)
(-2.5437748e-08 0.0024786393 0)
(-2.3989541e-08 0.0024783205 0)
(-2.1189757e-08 0.002477096 0)
(-1.6983589e-08 0.0024715183 0)
(-1.155542e-08 0.0024386246 0)
(-5.6249025e-09 0.0022366552 0)
(-1.6468089e-09 0.0012764725 0)
(-3.2634959e-09 0.0012764877 0)
(-9.4128037e-09 0.0022366781 0)
(-1.4346374e-08 0.002438644 0)
(-1.8229707e-08 0.0024715316 0)
(-2.1114231e-08 0.0024771027 0)
(-2.3124241e-08 0.0024783212 0)
(-2.4334744e-08 0.0024786351 0)
(-2.5002524e-08 0.0024787153 0)
(-2.5410315e-08 0.0024787344 0)
(-2.5827608e-08 0.0024787386 0)
(-2.6493705e-08 0.0024787387 0)
(-2.7443462e-08 0.0024787343 0)
(-2.8426478e-08 0.0024787141 0)
(-2.8948845e-08 0.0024786315 0)
(-2.8386071e-08 0.0024783137 0)
(-2.6059561e-08 0.0024770903 0)
(-2.16175e-08 0.0024715137 0)
(-1.5210933e-08 0.0024386211 0)
(-7.7833776e-09 0.0022366533 0)
(-2.2616755e-09 0.001276473 0)
(-3.4794077e-09 0.0012764784 0)
(-9.9821278e-09 0.0022366603 0)
(-1.5020973e-08 0.0024386248 0)
(-1.8783089e-08 0.002471513 0)
(-2.1435623e-08 0.0024770853 0)
(-2.3130698e-08 0.0024783051 0)
(-2.3962255e-08 0.0024786202 0)
(-2.4277846e-08 0.0024787015 0)
(-2.4519008e-08 0.0024787216 0)
(-2.5055632e-08 0.0024787269 0)
(-2.6142545e-08 0.002478728 0)
(-2.7819018e-08 0.0024787246 0)
(-2.975879e-08 0.0024787055 0)
(-3.126093e-08 0.0024786241 0)
(-3.149642e-08 0.0024783077 0)
(-2.9591723e-08 0.0024770857 0)
(-2.4952888e-08 0.0024715105 0)
(-1.7667068e-08 0.0024386193 0)
(-9.0480763e-09 0.0022366532 0)
(-2.5529786e-09 0.0012764743 0)
(-3.3859581e-09 0.001276471 0)
(-9.7017168e-09 0.002236646 0)
(-1.4537467e-08 0.0024386095 0)
(-1.8102715e-08 0.0024714987 0)
(-2.0507689e-08 0.0024770722 0)
(-2.1920795e-08 0.0024782931 0)
(-2.2464774e-08 0.0024786094 0)
(-2.2553915e-08 0.0024786916 0)
(-2.27109e-08 0.0024787126 0)
(-2.3377613e-08 0.0024787186 0)
(-2.4869974e-08 0.0024787205 0)
(-2.7201924e-08 0.002478718 0)
(-2.9951638e-08 0.0024786999 0)
(-3.2270362e-08 0.0024786197 0)
(-3.3153674e-08 0.0024783047 0)
(-3.1594886e-08 0.0024770841 0)
(-2.6865941e-08 0.0024715104 0)
(-1.8998967e-08 0.0024386205 0)
(-9.6198505e-09 0.0022366554 0)
(-2.6280734e-09 0.0012764768 0)
(-2.8870503e-09 0.0012764658 0)
(-8.4088739e-09 0.0022366357 0)
(-1.2720254e-08 0.002438599 0)
(-1.6003164e-08 0.0024714894 0)
(-1.8273913e-08 0.0024770643 0)
(-1.9567514e-08 0.0024782864 0)
(-2.0005681e-08 0.0024786036 0)
(-2.0026307e-08 0.0024786867 0)
(-2.018878e-08 0.0024787083 0)
(-2.1017997e-08 0.0024787149 0)
(-2.2869432e-08 0.0024787174 0)
(-2.5719976e-08 0.0024787156 0)
(-2.9073286e-08 0.0024786984 0)
(-3.2034985e-08 0.0024786192 0)
(-3.34642e-08 0.0024783054 0)
(-3.2255281e-08 0.0024770861 0)
(-2.7663252e-08 0.0024715135 0)
(-1.9657144e-08 0.0024386242 0)
(-9.9689791e-09 0.0022366594 0)
(-2.7039602e-09 0.00127648 0)
(-1.8810496e-09 0.0012764621 0)
(-5.8523163e-09 0.002236629 0)
(-9.3363073e-09 0.0024385927 0)
(-1.2348483e-08 0.0024714846 0)
(-1.4650888e-08 0.002477061 0)
(-1.6098613e-08 0.0024782845 0)
(-1.6694002e-08 0.0024786026 0)
(-1.6837329e-08 0.0024786863 0)
(-1.7157623e-08 0.0024787084 0)
(-1.8208266e-08 0.0024787153 0)
(-2.0347801e-08 0.0024787181 0)
(-2.3523161e-08 0.0024787168 0)
(-2.7263464e-08 0.0024787004 0)
(-3.069724e-08 0.0024786222 0)
(-3.2620428e-08 0.0024783094 0)
(-3.1931074e-08 0.0024770911 0)
(-2.7879373e-08 0.0024715191 0)
(-2.0319848e-08 0.0024386298 0)
(-1.0764041e-08 0.0022366643 0)
(-3.089845e-09 0.001276483 0)
(-8.1291026e-11 0.0012764595 0)
(-1.5192698e-09 0.0022366253 0)
(-3.9922208e-09 0.0024385908 0)
(-6.9558895e-09 0.0024714847 0)
(-9.6728509e-09 0.0024770627 0)
(-1.1646754e-08 0.0024782873 0)
(-1.2707877e-08 0.0024786062 0)
(-1.3240228e-08 0.0024786903 0)
(-1.3868076e-08 0.0024787126 0)
(-1.5143185e-08 0.0024787197 0)
(-1.746704e-08 0.0024787227 0)
(-2.0782527e-08 0.0024787218 0)
(-2.4691314e-08 0.002478706 0)
(-2.8410245e-08 0.0024786286 0)
(-3.0856449e-08 0.0024783168 0)
(-3.1037036e-08 0.0024770993 0)
(-2.818347e-08 0.0024715274 0)
(-2.1883401e-08 0.0024386373 0)
(-1.2943368e-08 0.0022366698 0)
(-4.2406921e-09 0.0012764857 0)
(3.4070905e-09 0.0012764557 0)
(6.076072e-09 0.0022366234 0)
(4.1282351e-09 0.0024385934 0)
(2.3727953e-10 0.0024714899 0)
(-3.5891424e-09 0.0024770694 0)
(-6.5046105e-09 0.0024782948 0)
(-8.3475553e-09 0.0024786141 0)
(-9.4973591e-09 0.0024786984 0)
(-1.052161e-08 0.0024787206 0)
(-1.1956637e-08 0.0024787277 0)
(-1.4280961e-08 0.0024787309 0)
(-1.754971e-08 0.0024787303 0)
(-2.1424082e-08 0.002478715 0)
(-2.5257425e-08 0.0024786385 0)
(-2.8258712e-08 0.0024783276 0)
(-2.9735837e-08 0.0024771109 0)
(-2.9019291e-08 0.0024715392 0)
(-2.540808e-08 0.0024386476 0)
(-1.8140937e-08 0.0022366754 0)
(-7.0929792e-09 0.0012764861 0)
(1.108363e-08 0.0012764294 0)
(2.0410392e-08 0.0022366031 0)
(1.6171196e-08 0.0024385848 0)
(8.8977309e-09 0.0024714852 0)
(2.8910186e-09 0.0024770655 0)
(-1.3182731e-09 0.0024782911 0)
(-4.0680615e-09 0.0024786104 0)
(-5.8596316e-09 0.0024786944 0)
(-7.2528753e-09 0.0024787163 0)
(-8.7680913e-09 0.0024787232 0)
(-1.0912742e-08 0.0024787265 0)
(-1.3869857e-08 0.0024787263 0)
(-1.7441169e-08 0.0024787116 0)
(-2.1175769e-08 0.002478636 0)
(-2.4634199e-08 0.0024783263 0)
(-2.770705e-08 0.0024771109 0)
(-3.0395105e-08 0.0024715399 0)
(-3.2217303e-08 0.0024386455 0)
(-2.9678026e-08 0.0022366616 0)
(-1.3955675e-08 0.0012764635 0)
(2.4883595e-08 0.0012763116 0)
(4.3302062e-08 0.0022365362 0)
(3.0894194e-08 0.0024385769 0)
(1.6975484e-08 0.0024714927 0)
(8.1569472e-09 0.0024770745 0)
(2.8403394e-09 0.0024782999 0)
(-5.2777209e-10 0.0024786187 0)
(-2.7103081e-09 0.0024787021 0)
(-4.2610777e-09 0.0024787234 0)
(-5.6840843e-09 0.0024787299 0)
(-7.4654268e-09 0.0024787332 0)
(-9.842968e-09 0.0024787333 0)
(-1.2797616e-08 0.0024787195 0)
(-1.6078336e-08 0.0024786446 0)
(-1.9597986e-08 0.0024783363 0)
(-2.4003126e-08 0.0024771226 0)
(-3.0747534e-08 0.0024715516 0)
(-4.1307407e-08 0.0024386429 0)
(-4.9403812e-08 0.0022366001 0)
(-2.675236e-08 0.0012763488 0)
(3.1609628e-08 0.0012759819 0)
(5.4998675e-08 0.0022362086 0)
(3.7149225e-08 0.0024384567 0)
(1.9801543e-08 0.0024714474 0)
(1.0235979e-08 0.0024770429 0)
(4.9754622e-09 0.0024782707 0)
(1.6529246e-09 0.0024785889 0)
(-5.3639788e-10 0.0024786719 0)
(-2.0167483e-09 0.0024786917 0)
(-3.214586e-09 0.0024786977 0)
(-4.5830319e-09 0.002478701 0)
(-6.3273947e-09 0.0024787012 0)
(-8.5425821e-09 0.0024786886 0)
(-1.1111055e-08 0.0024786136 0)
(-1.4103034e-08 0.0024783062 0)
(-1.8603561e-08 0.0024770921 0)
(-2.7098859e-08 0.0024715089 0)
(-4.2754679e-08 0.0024385264 0)
(-5.8305842e-08 0.0022362756 0)
(-3.2588602e-08 0.0012760214 0)
)
;

boundaryField
{
    Wall
    {
        type            fixedValue;
        value           uniform (0 0 0);
    }
    frontAndBack
    {
        type            empty;
    }
    atmosphere
    {
        type            pressureInletOutletVelocity;
        value           nonuniform List<vector> 
20
(
(3.1609628e-08 0.0012759819 0)
(5.4998675e-08 0.0022362086 0)
(3.7149225e-08 0.0024384567 0)
(1.9801543e-08 0.0024714474 0)
(1.0235979e-08 0.0024770429 0)
(4.9754622e-09 0.0024782707 0)
(1.6529246e-09 0.0024785889 0)
(-5.3639788e-10 0.0024786719 0)
(-2.0167483e-09 0.0024786917 0)
(-3.214586e-09 0.0024786977 0)
(-4.5830319e-09 0.002478701 0)
(-6.3273947e-09 0.0024787012 0)
(-8.5425821e-09 0.0024786886 0)
(-1.1111055e-08 0.0024786136 0)
(-1.4103034e-08 0.0024783062 0)
(-1.8603561e-08 0.0024770921 0)
(-2.7098859e-08 0.0024715089 0)
(-4.2754679e-08 0.0024385264 0)
(-5.8305842e-08 0.0022362756 0)
(-3.2588602e-08 0.0012760214 0)
)
;
    }
}


// ************************************************************************* //
