/*--------------------------------*- C++ -*----------------------------------*\
| =========                 |                                                 |
| \\      /  F ield         | OpenFOAM: The Open Source CFD Toolbox           |
|  \\    /   O peration     | Version:  3.0.1                                 |
|   \\  /    A nd           | Web:      www.OpenFOAM.org                      |
|    \\/     M anipulation  |                                                 |
\*---------------------------------------------------------------------------*/
FoamFile
{
    version     2.0;
    format      ascii;
    class       volScalarField;
    location    "6";
    object      wBA_l;
}
// * * * * * * * * * * * * * * * * * * * * * * * * * * * * * * * * * * * * * //

dimensions      [0 0 0 0 0 0 0];

internalField   nonuniform List<scalar> 
800
(
0.056355437
0.056353283
0.056352471
0.056352141
0.056351948
0.056351814
0.056351719
0.056351654
0.056351613
0.056351593
0.056351593
0.056351613
0.056351654
0.056351719
0.056351814
0.056351948
0.056352142
0.056352472
0.056353284
0.056355437
0.05659108
0.056593372
0.056594379
0.056594871
0.056595174
0.056595374
0.056595509
0.0565956
0.056595655
0.056595682
0.056595682
0.056595655
0.056595599
0.056595509
0.056595373
0.056595173
0.05659487
0.056594378
0.056593371
0.056591079
0.017918463
0.017944044
0.017946596
0.017946199
0.017945405
0.01794464
0.017944024
0.017943577
0.017943288
0.017943148
0.017943148
0.017943289
0.017943578
0.017944026
0.017944642
0.017945407
0.017946202
0.017946598
0.017944047
0.017918467
0.0030303029
0.0031769333
0.0031848427
0.0031852579
0.0031851599
0.003185
0.0031848599
0.0031847571
0.0031846904
0.003184656
0.0031846558
0.0031846898
0.0031847563
0.0031848591
0.0031849991
0.0031851588
0.0031852564
0.0031848403
0.0031769299
0.0030302991
0.00037212651
0.00048858701
0.0005017279
0.00050289596
0.00050284938
0.00050271326
0.00050260496
0.00050253173
0.00050248703
0.00050246483
0.00050246463
0.0005024865
0.000502531
0.00050260405
0.00050271216
0.00050284798
0.00050289399
0.00050172509
0.00048858334
0.00037212299
3.5609607e-05
6.7783464e-05
7.257135e-05
7.3041838e-05
7.3028973e-05
7.2978022e-05
7.2937193e-05
7.2909727e-05
7.2893183e-05
7.2885253e-05
7.2885191e-05
7.2893003e-05
7.2909459e-05
7.293685e-05
7.2977594e-05
7.3028417e-05
7.3041055e-05
7.2570243e-05
6.7782059e-05
3.5608611e-05
2.7201785e-06
7.5872029e-06
8.4972149e-06
8.5934424e-06
8.591564e-06
8.5810008e-06
8.5722415e-06
8.5662452e-06
8.5626058e-06
8.5608713e-06
8.5608576e-06
8.5625653e-06
8.5661841e-06
8.5721631e-06
8.5809032e-06
8.5914386e-06
8.5932691e-06
8.496974e-06
7.58691e-06
2.7200376e-06
1.6738144e-07
6.7523776e-07
7.9044117e-07
8.0344999e-07
8.0336322e-07
8.0196433e-07
8.0075002e-07
7.9989893e-07
7.9937551e-07
7.9912528e-07
7.9912315e-07
7.9936923e-07
7.9988938e-07
8.0073791e-07
8.019496e-07
8.0334483e-07
8.0342538e-07
7.9040784e-07
6.7519935e-07
1.6736904e-07
8.45222e-09
4.8672896e-08
5.9470342e-08
6.0766861e-08
6.0780228e-08
6.064969e-08
6.0530237e-08
6.0444381e-08
6.0390811e-08
6.0365044e-08
6.03648e-08
6.0390093e-08
6.044329e-08
6.0528871e-08
6.0648077e-08
6.0778297e-08
6.0764397e-08
5.9467136e-08
4.8669425e-08
8.4514639e-09
3.5612969e-10
2.8998238e-09
3.693899e-09
3.7948656e-09
3.7977712e-09
3.7885895e-09
3.7796864e-09
3.7731265e-09
3.7689753e-09
3.7669648e-09
3.766943e-09
3.768912e-09
3.7730304e-09
3.7795676e-09
3.788453e-09
3.7976149e-09
3.7946774e-09
3.6936673e-09
2.8995912e-09
3.5609525e-10
1.2678763e-11
1.4504517e-10
1.9246995e-10
1.9882682e-10
1.9912428e-10
1.9861551e-10
1.9809018e-10
1.9769378e-10
1.9743965e-10
1.9731572e-10
1.9731419e-10
1.9743521e-10
1.9768704e-10
1.980819e-10
1.9860618e-10
1.9911402e-10
1.9881515e-10
1.9245649e-10
1.4503278e-10
1.2677508e-11
3.8497174e-13
6.1610481e-12
8.5115452e-12
8.8422366e-12
8.863196e-12
8.840337e-12
8.8150606e-12
8.7955518e-12
8.7828971e-12
8.7766871e-12
8.7766005e-12
8.7826453e-12
8.7951686e-12
8.8145896e-12
8.8398108e-12
8.8626311e-12
8.8416234e-12
8.5108803e-12
6.1604898e-12
3.8493263e-13
1.0037675e-14
2.2409658e-13
3.2217988e-13
3.3660621e-13
3.3773438e-13
3.3688583e-13
3.3587383e-13
3.3507574e-13
3.3455264e-13
3.342945e-13
3.3429049e-13
3.3454097e-13
3.350579e-13
3.3585176e-13
3.3686115e-13
3.3770811e-13
3.3657843e-13
3.2215109e-13
2.2407432e-13
1.0036579e-14
2.258252e-16
7.0209862e-15
1.050108e-14
1.1034343e-14
1.1083011e-14
1.1056676e-14
1.1022486e-14
1.0994959e-14
1.097675e-14
1.0967721e-14
1.0967568e-14
1.0976305e-14
1.0994275e-14
1.1021632e-14
1.1055713e-14
1.1081983e-14
1.1033262e-14
1.0499985e-14
7.020192e-15
2.2579726e-16
4.3971172e-18
1.9020669e-16
2.9589295e-16
3.1271486e-16
3.1444282e-16
3.13755e-16
3.12771e-16
3.1196266e-16
3.1142352e-16
3.1115515e-16
3.1115034e-16
3.1140949e-16
3.1194093e-16
3.127436e-16
3.1372375e-16
3.1440908e-16
3.1267918e-16
2.9585699e-16
1.9018175e-16
4.3964843e-18
7.4209472e-20
4.4652138e-18
7.2236176e-18
7.6785403e-18
7.7298424e-18
7.7146926e-18
7.6904213e-18
7.6700831e-18
7.6564172e-18
7.649593e-18
7.649467e-18
7.6560487e-18
7.6695082e-18
7.6896895e-18
7.7138477e-18
7.728918e-18
7.6775511e-18
7.2226158e-18
4.4645415e-18
7.4197133e-20
1.0855387e-21
9.0881014e-20
1.5287815e-19
1.6345031e-19
1.6473604e-19
1.6445536e-19
1.6394056e-19
1.6350053e-19
1.6320286e-19
1.6305383e-19
1.6305105e-19
1.6319473e-19
1.6348778e-19
1.6392419e-19
1.6443625e-19
1.6471487e-19
1.6342734e-19
1.5285469e-19
9.0865701e-20
1.0853359e-21
1.3743296e-23
1.6019988e-21
2.8020241e-21
3.013241e-21
3.0405797e-21
3.0362413e-21
3.0268427e-21
3.0186466e-21
3.0130668e-21
3.0102672e-21
3.0102154e-21
3.0129147e-21
3.0184069e-21
3.0265329e-21
3.0358766e-21
3.0401712e-21
3.0127928e-21
2.801563e-21
1.6017058e-21
1.3740505e-23
1.5013959e-25
2.4391893e-23
4.4359671e-23
4.7981819e-23
4.8475828e-23
4.842083e-23
4.8273318e-23
4.8142019e-23
4.8052093e-23
4.8006884e-23
4.8006054e-23
4.804965e-23
4.8138158e-23
4.8268304e-23
4.8414891e-23
4.8469126e-23
4.7974411e-23
4.4352015e-23
2.4387173e-23
1.501074e-25
1.4086915e-27
3.1935881e-25
6.0390005e-25
6.570288e-25
6.6460501e-25
6.6405268e-25
6.6206907e-25
6.6026596e-25
6.5902373e-25
6.5839802e-25
6.5838645e-25
6.5898967e-25
6.60212e-25
6.6199879e-25
6.6396912e-25
6.6451036e-25
6.5692385e-25
6.0379172e-25
3.1929434e-25
1.4083779e-27
1.1275481e-29
3.5719441e-27
7.0235246e-27
7.6861678e-27
7.7843655e-27
7.7803219e-27
7.7576014e-27
7.7364948e-27
7.7218685e-27
7.714486e-27
7.7143451e-27
7.7214533e-27
7.7358362e-27
7.7567416e-27
7.7792978e-27
7.7832042e-27
7.6848821e-27
7.0222068e-27
3.5711909e-27
1.1272878e-29
7.6285834e-32
3.3816824e-29
6.9147266e-29
7.6114848e-29
7.718261e-29
7.7167029e-29
7.6947265e-29
7.6738461e-29
7.6592915e-29
7.6519284e-29
7.651779e-29
7.6588511e-29
7.6731465e-29
7.6938109e-29
7.7156108e-29
7.717023e-29
7.6101202e-29
6.9133442e-29
3.3809275e-29
7.6267338e-32
4.3082314e-34
2.6760231e-31
5.6905254e-31
6.300717e-31
6.3970334e-31
6.3978012e-31
6.3800689e-31
6.3628225e-31
6.3507296e-31
6.3445965e-31
6.3444611e-31
6.35033e-31
6.3621863e-31
6.3792337e-31
6.3968026e-31
6.3959017e-31
6.2994758e-31
5.689285e-31
2.6753779e-31
4.3071119e-34
1.9964862e-36
1.7395759e-33
3.8472322e-33
4.2848104e-33
4.3557205e-33
4.3576585e-33
4.3459256e-33
4.3342336e-33
4.3259864e-33
4.3217924e-33
4.3216904e-33
4.3256848e-33
4.3337523e-33
4.345291e-33
4.3568971e-33
4.3548565e-33
4.2838663e-33
3.8463006e-33
1.7391144e-33
1.9959191e-36
7.4127263e-39
9.0660352e-36
2.0853011e-35
2.3361325e-35
2.3777495e-35
2.3795846e-35
2.3733707e-35
2.3670203e-35
2.3625139e-35
2.360216e-35
2.3601544e-35
2.3623314e-35
2.366728e-35
2.3729835e-35
2.3791178e-35
2.3772184e-35
2.3355531e-35
2.0847351e-35
9.0633587e-36
7.4103947e-39
2.1302133e-41
3.6558143e-38
8.7446957e-38
9.8540294e-38
1.0042044e-37
1.0053085e-37
1.0027662e-37
1.000099e-37
9.9819514e-38
9.9722161e-38
9.9719308e-38
9.9811047e-38
9.9996303e-38
1.002585e-37
1.0050888e-37
1.0039535e-37
9.85129e-38
8.7420386e-38
3.6546115e-38
2.1294771e-41
4.4929642e-44
1.0794056e-40
2.6842618e-40
3.0424174e-40
3.1043045e-40
3.1087319e-40
3.1011281e-40
3.0929317e-40
3.0870463e-40
3.0840294e-40
3.0839343e-40
3.0867632e-40
3.0924754e-40
3.1005169e-40
3.1079867e-40
3.1034489e-40
3.041481e-40
2.6833576e-40
1.0790126e-40
4.491242e-44
6.357647e-47
2.1222568e-43
5.4821173e-43
6.2491953e-43
6.3841038e-43
6.3952685e-43
6.3801488e-43
6.3633926e-43
6.3512927e-43
6.3450763e-43
6.3448691e-43
6.350674e-43
6.3623926e-43
6.3788018e-43
6.3936163e-43
6.3821967e-43
6.2471007e-43
5.480101e-43
2.121413e-43
6.3549515e-47
5.0453229e-50
2.2835884e-46
6.1103007e-46
7.0029466e-46
7.1624993e-46
7.1772268e-46
7.1608029e-46
7.1420996e-46
7.128525e-46
7.1215386e-46
7.1212976e-46
7.1278004e-46
7.1409272e-46
7.1592137e-46
7.1752655e-46
7.1602243e-46
7.0004377e-46
6.1078894e-46
2.282613e-46
5.0430298e-50
1.3510717e-53
7.2213442e-50
1.9658305e-49
2.2604935e-49
2.3139293e-49
2.3191633e-49
2.3139349e-49
2.3078793e-49
2.3034765e-49
2.30121e-49
2.3011316e-49
2.3032353e-49
2.3074919e-49
2.3134042e-49
2.3185033e-49
2.3131623e-49
2.2596431e-49
1.9650116e-49
7.2180819e-50
1.3504303e-53
0
0
0
0
0
0
0
0
0
0
0
0
0
0
0
0
0
0
0
0
0
0
0
0
0
0
0
0
0
0
0
0
0
0
0
0
0
0
0
0
0
0
0
0
0
0
0
0
0
0
0
0
0
0
0
0
0
0
0
0
0
0
0
0
0
0
0
0
0
0
0
0
0
0
0
0
0
0
0
0
0
0
0
0
0
0
0
0
0
0
0
0
0
0
0
0
0
0
0
0
0
0
0
0
0
0
0
0
0
0
0
0
0
0
0
0
0
0
0
0
0
0
0
0
0
0
0
0
0
0
0
0
0
0
0
0
0
0
0
0
0
0
0
0
0
0
0
0
0
0
0
0
0
0
0
0
0
0
0
0
0
0
0
0
0
0
0
0
0
0
0
0
0
0
0
0
0
0
0
0
0
0
0
0
0
0
0
0
0
0
0
0
0
0
0
0
0
0
0
0
)
;

boundaryField
{
    Wall
    {
        type            zeroGradient;
    }
    frontAndBack
    {
        type            empty;
    }
    atmosphere
    {
        type            zeroGradient;
    }
}


// ************************************************************************* //
