/*--------------------------------*- C++ -*----------------------------------*\
| =========                 |                                                 |
| \\      /  F ield         | OpenFOAM: The Open Source CFD Toolbox           |
|  \\    /   O peration     | Version:  3.0.1                                 |
|   \\  /    A nd           | Web:      www.OpenFOAM.org                      |
|    \\/     M anipulation  |                                                 |
\*---------------------------------------------------------------------------*/
FoamFile
{
    version     2.0;
    format      ascii;
    class       volScalarField;
    location    "6";
    object      wBA_l_0;
}
// * * * * * * * * * * * * * * * * * * * * * * * * * * * * * * * * * * * * * //

dimensions      [0 0 0 0 0 0 0];

internalField   nonuniform List<scalar> 
800
(
0.056345794
0.056343719
0.056342927
0.056342615
0.056342434
0.05634231
0.056342221
0.056342161
0.056342123
0.056342104
0.056342104
0.056342123
0.056342161
0.056342222
0.05634231
0.056342434
0.056342615
0.056342928
0.05634372
0.056345795
0.056611576
0.056613911
0.056614932
0.056615422
0.05661572
0.056615915
0.056616047
0.056616135
0.056616189
0.056616215
0.056616215
0.056616189
0.056616135
0.056616046
0.056615915
0.056615719
0.056615421
0.056614931
0.05661391
0.056611575
0.017354067
0.017379801
0.017382731
0.017382606
0.017381985
0.01738134
0.017380807
0.017380416
0.017380164
0.01738004
0.01738004
0.017380164
0.017380418
0.017380809
0.017381342
0.017381987
0.017382608
0.017382733
0.017379804
0.01735407
0.0028453399
0.0029872613
0.0029949608
0.0029954065
0.0029953416
0.0029952079
0.0029950874
0.0029949983
0.0029949404
0.0029949103
0.00299491
0.0029949398
0.0029949976
0.0029950865
0.0029952069
0.0029953405
0.0029954049
0.0029949584
0.0029872578
0.002845336
0.00034043742
0.00044684408
0.00045851888
0.00045951646
0.00045946384
0.00045933757
0.00045923798
0.00045917083
0.00045912989
0.00045910956
0.00045910938
0.0004591294
0.00045917014
0.00045923713
0.00045933654
0.00045946254
0.00045951462
0.00045851625
0.00044684062
0.00034043411
3.1824879e-05
6.0048511e-05
6.4119977e-05
6.4503754e-05
6.448743e-05
6.4441257e-05
6.4404673e-05
6.4380129e-05
6.436536e-05
6.4358284e-05
6.4358229e-05
6.4365199e-05
6.4379888e-05
6.4404366e-05
6.4440874e-05
6.4486933e-05
6.4503052e-05
6.4118981e-05
6.0047241e-05
3.1823972e-05
2.3610168e-06
6.4607488e-06
7.2002082e-06
7.2753177e-06
7.2727582e-06
7.263594e-06
7.256079e-06
7.2509465e-06
7.2478341e-06
7.2463513e-06
7.2463395e-06
7.2477994e-06
7.2508942e-06
7.2560118e-06
7.2635105e-06
7.272651e-06
7.2751693e-06
7.2000012e-06
6.4604953e-06
2.3608928e-06
1.4049386e-07
5.5027189e-07
6.395327e-07
6.4923945e-07
6.4905078e-07
6.4789524e-07
6.4690313e-07
6.4620928e-07
6.4578287e-07
6.4557907e-07
6.4557733e-07
6.4577774e-07
6.4620149e-07
6.4689326e-07
6.4788323e-07
6.490358e-07
6.4921938e-07
6.3950544e-07
5.5024019e-07
1.4048335e-07
6.8401034e-09
3.7853659e-08
4.5816979e-08
4.6740344e-08
4.6740057e-08
4.6637586e-08
4.6544874e-08
4.6478378e-08
4.6436914e-08
4.6416975e-08
4.6416786e-08
4.6436357e-08
4.6477531e-08
4.6543816e-08
4.6636336e-08
4.6738562e-08
4.6738436e-08
4.5814491e-08
3.7850936e-08
6.8394873e-09
2.7711054e-10
2.1468649e-09
2.703258e-09
2.7717361e-09
2.773119e-09
2.7662788e-09
2.7597268e-09
2.7549096e-09
2.7518632e-09
2.750388e-09
2.750372e-09
2.7518165e-09
2.7548388e-09
2.7596394e-09
2.7661785e-09
2.7730043e-09
2.771598e-09
2.7030876e-09
2.1466917e-09
2.7708364e-10
9.4591692e-12
1.0195478e-10
1.3345171e-10
1.3754593e-10
1.3770957e-10
1.373504e-10
1.3698459e-10
1.3670919e-10
1.3653276e-10
1.3644674e-10
1.3644567e-10
1.3652966e-10
1.367045e-10
1.3697882e-10
1.3734391e-10
1.3770243e-10
1.3753783e-10
1.3344234e-10
1.0194604e-10
9.4582318e-12
2.7454929e-13
4.099949e-12
5.5756205e-12
5.7772332e-12
5.7889271e-12
5.7736643e-12
5.7570509e-12
5.7442604e-12
5.7359698e-12
5.7319026e-12
5.7318456e-12
5.7358043e-12
5.7440084e-12
5.7567413e-12
5.7733187e-12
5.7885564e-12
5.7768311e-12
5.5751836e-12
4.0995765e-12
2.7452141e-13
6.820012e-15
1.4072812e-13
1.9875668e-13
2.0705301e-13
2.0766696e-13
2.0713228e-13
2.0650626e-13
2.0601393e-13
2.0569151e-13
2.0553245e-13
2.0552996e-13
2.0568429e-13
2.060029e-13
2.0649262e-13
2.0711703e-13
2.0765074e-13
2.0703585e-13
1.9873885e-13
1.407141e-13
6.8192673e-15
1.4562904e-16
4.1455665e-15
6.0788977e-15
6.3670455e-15
6.3924093e-15
6.376789e-15
6.3569512e-15
6.3410285e-15
6.330505e-15
6.3252892e-15
6.3252006e-15
6.3302472e-15
6.3406317e-15
6.3564562e-15
6.3762309e-15
6.3918133e-15
6.3664191e-15
6.078261e-15
4.1450957e-15
1.45611e-16
2.6797957e-18
1.0515778e-16
1.6006363e-16
1.6856706e-16
1.6941964e-16
1.6903668e-16
1.6850329e-16
1.6806661e-16
1.6777565e-16
1.6763088e-16
1.6762827e-16
1.6776806e-16
1.6805485e-16
1.6848847e-16
1.6901977e-16
1.6940139e-16
1.6854775e-16
1.6004409e-16
1.0514393e-16
2.6794092e-18
4.2530716e-20
2.3003516e-18
3.6340909e-18
3.8481539e-18
3.8719057e-18
3.8640118e-18
3.8517774e-18
3.8415643e-18
3.8347096e-18
3.8312881e-18
3.8312248e-18
3.8345245e-18
3.8412755e-18
3.8514097e-18
3.8635873e-18
3.8714411e-18
3.8476563e-18
3.6335846e-18
2.3000035e-18
4.2523624e-20
5.8170056e-22
4.3382551e-20
7.112661e-20
7.5730822e-20
7.6284865e-20
7.6148412e-20
7.5908431e-20
7.5704166e-20
7.5566155e-20
7.5497091e-20
7.5495805e-20
7.5562385e-20
7.5698249e-20
7.5900834e-20
7.6139546e-20
7.6275035e-20
7.5720148e-20
7.1115655e-20
4.3375207e-20
5.8159153e-22
6.8393979e-24
7.0388828e-22
1.1976292e-21
1.2821916e-21
1.2930662e-21
1.2911034e-21
1.287078e-21
1.2835839e-21
1.2812084e-21
1.2800171e-21
1.2799951e-21
1.2811436e-21
1.2834819e-21
1.2869462e-21
1.2909482e-21
1.2928922e-21
1.2820005e-21
1.1974315e-21
7.0375904e-22
6.8380054e-24
6.8833206e-26
9.7865314e-24
1.7280345e-23
1.8602805e-23
1.8782558e-23
1.8759419e-23
1.8701826e-23
1.8650825e-23
1.8615946e-23
1.8598421e-23
1.8598099e-23
1.8614999e-23
1.8649329e-23
1.8699883e-23
1.8757117e-23
1.877996e-23
1.8599929e-23
1.7277356e-23
9.7846321e-24
6.8818419e-26
5.8921004e-28
1.1587925e-25
2.1234927e-25
2.2986742e-25
2.3236295e-25
2.3214572e-25
2.3144646e-25
2.3081441e-25
2.3037965e-25
2.301608e-25
2.3015676e-25
2.3036774e-25
2.3079554e-25
2.3142188e-25
2.3211649e-25
2.3232984e-25
2.2983067e-25
2.1231112e-25
1.158558e-25
5.8907867e-28
4.2515298e-30
1.1582057e-27
2.2028119e-27
2.3977808e-27
2.4266971e-27
2.4251688e-27
2.4180225e-27
2.4114248e-27
2.4068606e-27
2.4045583e-27
2.4045144e-27
2.4067311e-27
2.4112194e-27
2.4177543e-27
2.4248494e-27
2.4263348e-27
2.3973794e-27
2.2023981e-27
1.1579611e-27
4.2505471e-30
2.5543201e-32
9.6518275e-30
1.9053568e-29
2.0855375e-29
2.1132127e-29
2.1125389e-29
2.1064634e-29
2.1007301e-29
2.096741e-29
2.0947243e-29
2.0946833e-29
2.0966202e-29
2.1005383e-29
2.1062124e-29
2.1122395e-29
2.1128733e-29
2.0851631e-29
1.9049753e-29
9.6496692e-30
2.5537003e-32
1.2563117e-34
6.592259e-32
1.3508289e-31
1.4868074e-31
1.5083452e-31
1.5083397e-31
1.5041143e-31
1.5000355e-31
1.497181e-31
1.4957343e-31
1.4957024e-31
1.4970866e-31
1.4998852e-31
1.503917e-31
1.5081037e-31
1.5080779e-31
1.486514e-31
1.3505339e-31
6.5906664e-32
1.2559849e-34
4.9395322e-37
3.6020262e-34
7.6616258e-34
8.479862e-34
8.6130413e-34
8.6157474e-34
8.5922787e-34
8.5690839e-34
8.5527567e-34
8.54446e-34
8.5442579e-34
8.552159e-34
8.56813e-34
8.5910208e-34
8.6142379e-34
8.6113285e-34
8.4779889e-34
7.6597659e-34
3.6010683e-34
4.9381272e-37
1.4997832e-39
1.5196624e-36
3.3550638e-36
3.7340354e-36
3.7972373e-36
3.7996429e-36
3.7895938e-36
3.7794167e-36
3.7722111e-36
3.7685395e-36
3.768441e-36
3.7719189e-36
3.778949e-36
3.7889738e-36
3.7988954e-36
3.7963868e-36
3.7331066e-36
3.3541505e-36
1.5192125e-36
1.4993108e-39
3.3340261e-42
4.6842387e-39
1.0731459e-38
1.2009719e-38
1.2227615e-38
1.2239263e-38
1.2207872e-38
1.2175271e-38
1.2152056e-38
1.2140195e-38
1.2139847e-38
1.2151022e-38
1.2173612e-38
1.220566e-38
1.2236581e-38
1.2224551e-38
1.200637e-38
1.0728188e-38
4.682693e-39
3.332867e-42
4.9567053e-45
9.5895367e-42
2.2779635e-41
2.5631791e-41
2.6127711e-41
2.6160842e-41
2.6095818e-41
2.6026529e-41
2.5976911e-41
2.5951499e-41
2.5950699e-41
2.5974522e-41
2.6022682e-41
2.6090661e-41
2.6154552e-41
2.612049e-41
2.5623879e-41
2.2771937e-41
9.5860348e-42
4.9547966e-45
4.1093265e-48
1.069429e-44
2.6272238e-44
2.9713946e-44
3.0323237e-44
3.0370819e-44
3.0297572e-44
3.0217526e-44
3.0159916e-44
3.0130352e-44
3.012937e-44
3.0156968e-44
3.0212774e-44
3.029116e-44
3.0362948e-44
3.0314157e-44
2.9703958e-44
2.6262543e-44
1.0690025e-44
4.1075935e-48
1.1252278e-51
3.4323603e-48
8.5699044e-48
9.7233432e-48
9.9308152e-48
9.9483931e-48
9.9247172e-48
9.8984326e-48
9.8794815e-48
9.8697522e-48
9.8694231e-48
9.8784699e-48
9.8968133e-48
9.9225075e-48
9.9456586e-48
9.9276539e-48
9.7198464e-48
8.5665033e-48
3.4308859e-48
1.1247201e-51
0
0
0
0
0
0
0
0
0
0
0
0
0
0
0
0
0
0
0
0
0
0
0
0
0
0
0
0
0
0
0
0
0
0
0
0
0
0
0
0
0
0
0
0
0
0
0
0
0
0
0
0
0
0
0
0
0
0
0
0
0
0
0
0
0
0
0
0
0
0
0
0
0
0
0
0
0
0
0
0
0
0
0
0
0
0
0
0
0
0
0
0
0
0
0
0
0
0
0
0
0
0
0
0
0
0
0
0
0
0
0
0
0
0
0
0
0
0
0
0
0
0
0
0
0
0
0
0
0
0
0
0
0
0
0
0
0
0
0
0
0
0
0
0
0
0
0
0
0
0
0
0
0
0
0
0
0
0
0
0
0
0
0
0
0
0
0
0
0
0
0
0
0
0
0
0
0
0
0
0
0
0
0
0
0
0
0
0
0
0
0
0
0
0
0
0
0
0
0
0
0
0
0
0
0
0
0
0
0
0
0
0
0
0
0
0
0
0
0
0
)
;

boundaryField
{
    Wall
    {
        type            zeroGradient;
    }
    frontAndBack
    {
        type            empty;
    }
    atmosphere
    {
        type            zeroGradient;
    }
}


// ************************************************************************* //
