/*--------------------------------*- C++ -*----------------------------------*\
| =========                 |                                                 |
| \\      /  F ield         | OpenFOAM: The Open Source CFD Toolbox           |
|  \\    /   O peration     | Version:  3.0.1                                 |
|   \\  /    A nd           | Web:      www.OpenFOAM.org                      |
|    \\/     M anipulation  |                                                 |
\*---------------------------------------------------------------------------*/
FoamFile
{
    version     2.0;
    format      ascii;
    class       volScalarField;
    location    "6";
    object      wBA_g;
}
// * * * * * * * * * * * * * * * * * * * * * * * * * * * * * * * * * * * * * //

dimensions      [0 0 0 0 0 0 0];

internalField   nonuniform List<scalar> 
800
(
0.0014895802
0.0014894801
0.0014894433
0.0014894343
0.0014894294
0.0014894257
0.001489423
0.0014894211
0.0014894198
0.0014894192
0.0014894192
0.0014894198
0.001489421
0.001489423
0.0014894258
0.0014894294
0.0014894343
0.0014894433
0.0014894802
0.0014895802
0.00018881848
0.00018900396
0.00018910376
0.0001891607
0.00018919185
0.00018921032
0.00018922196
0.00018922941
0.00018923393
0.00018923606
0.00018923606
0.00018923391
0.00018922939
0.00018922193
0.00018921029
0.00018919181
0.00018916066
0.00018910371
0.00018900389
0.00018881842
2.1758146e-05
2.1774747e-05
2.1775729e-05
2.1774175e-05
2.1772366e-05
2.1770688e-05
2.1769332e-05
2.1768339e-05
2.1767696e-05
2.1767381e-05
2.1767383e-05
2.1767698e-05
2.1768342e-05
2.1769336e-05
2.1770693e-05
2.1772372e-05
2.1774182e-05
2.1775736e-05
2.1774756e-05
2.1758155e-05
1.9555837e-06
2.0351401e-06
2.0392425e-06
2.0393928e-06
2.039269e-06
2.0391122e-06
2.0389759e-06
2.0388741e-06
2.0388074e-06
2.0387736e-06
2.0387736e-06
2.0388073e-06
2.038874e-06
2.0389758e-06
2.0391122e-06
2.0392688e-06
2.0393926e-06
2.0392419e-06
2.0351394e-06
1.9555828e-06
1.6198588e-07
2.1370417e-07
2.2007196e-07
2.2069641e-07
2.2069289e-07
2.2063584e-07
2.2058805e-07
2.2055494e-07
2.2053445e-07
2.2052426e-07
2.2052419e-07
2.2053426e-07
2.2055468e-07
2.2058772e-07
2.2063543e-07
2.2069236e-07
2.2069567e-07
2.200709e-07
2.1370282e-07
1.6198461e-07
1.2327126e-08
2.425414e-08
2.6173436e-08
2.6376714e-08
2.6377362e-08
2.6360309e-08
2.6346074e-08
2.633636e-08
2.6330466e-08
2.6327636e-08
2.6327617e-08
2.6330409e-08
2.6336273e-08
2.6345962e-08
2.6360168e-08
2.6377175e-08
2.6376451e-08
2.6173067e-08
2.4253682e-08
1.2326811e-08
8.4964542e-10
2.5284726e-09
2.8686313e-09
2.9068898e-09
2.9071592e-09
2.9038407e-09
2.9009928e-09
2.8990225e-09
2.8978207e-09
2.897247e-09
2.8972428e-09
2.8978081e-09
2.8990032e-09
2.900968e-09
2.9038096e-09
2.907119e-09
2.9068343e-09
2.8685547e-09
2.5283817e-09
8.4960414e-10
5.2093925e-11
2.3182836e-10
2.7630291e-10
2.8159523e-10
2.8167906e-10
2.8122258e-10
2.8081361e-10
2.8052439e-10
2.8034581e-10
2.802603e-10
2.8025959e-10
2.8034372e-10
2.8052121e-10
2.8080957e-10
2.8121765e-10
2.8167287e-10
2.8158698e-10
2.7629184e-10
2.3181595e-10
5.2090274e-11
2.839789e-12
1.8690602e-11
2.3372816e-11
2.3961139e-11
2.3978121e-11
2.3930196e-11
2.3884931e-11
2.3852123e-11
2.3831579e-11
2.3821682e-11
2.3821589e-11
2.3831308e-11
2.385171e-11
2.3884413e-11
2.3929584e-11
2.3977386e-11
2.3960206e-11
2.3371616e-11
1.8689344e-11
2.8395477e-12
1.3835659e-13
1.3370694e-12
1.7528478e-12
1.8078724e-12
1.8102764e-12
1.8062116e-12
1.802135e-12
1.7991064e-12
1.7971833e-12
1.7962503e-12
1.7962403e-12
1.7971542e-12
1.7990623e-12
1.8020804e-12
1.8061488e-12
1.8102043e-12
1.807786e-12
1.7527427e-12
1.336968e-12
1.3834387e-13
6.0617737e-15
8.5646017e-14
1.1765016e-13
1.2209764e-13
1.2235789e-13
1.2206864e-13
1.2175857e-13
1.2152259e-13
1.2137079e-13
1.2129664e-13
1.2129573e-13
1.2136816e-13
1.2151859e-13
1.2175364e-13
1.2206309e-13
1.2235177e-13
1.2209072e-13
1.1764228e-13
8.5639101e-14
6.0612026e-15
2.4026686e-16
4.9509257e-15
7.1245647e-15
7.4407507e-15
7.4636385e-15
7.4459313e-15
7.4254879e-15
7.4095665e-15
7.3992028e-15
7.3941081e-15
7.3940373e-15
7.3989978e-15
7.4092542e-15
7.4251039e-15
7.4455023e-15
7.4631773e-15
7.4402521e-15
7.1240315e-15
4.9505014e-15
2.4024359e-16
8.6631042e-18
2.5999435e-16
3.9189513e-16
4.1191999e-16
4.1362059e-16
4.1267234e-16
4.1148223e-16
4.1053454e-16
4.0991113e-16
4.0960293e-16
4.0959815e-16
4.0989729e-16
4.1051337e-16
4.1145604e-16
4.1264304e-16
4.1358939e-16
4.1188711e-16
3.9186153e-16
2.5996988e-16
8.6621983e-18
2.8553217e-19
1.2472511e-17
1.969124e-17
2.0832046e-17
2.0941642e-17
2.0896735e-17
2.0834723e-17
2.0784267e-17
2.0750761e-17
2.0734116e-17
2.0733835e-17
2.0749946e-17
2.0783012e-17
2.0833158e-17
2.0894969e-17
2.0939755e-17
2.083007e-17
1.9689265e-17
1.247117e-17
2.8549816e-19
8.6391678e-21
5.4913469e-19
9.0804711e-19
9.6695688e-19
9.7319592e-19
9.7130344e-19
9.6838166e-19
9.6595351e-19
9.6432739e-19
9.6351625e-19
9.6350175e-19
9.6428527e-19
9.658882e-19
9.6829934e-19
9.7120956e-19
9.7309447e-19
9.6684989e-19
9.0794076e-19
5.4906599e-19
8.6379646e-21
2.4081963e-22
2.2275543e-20
3.8581166e-20
4.1355423e-20
4.1673321e-20
4.1602212e-20
4.1476757e-20
4.1370283e-20
4.1298429e-20
4.1262467e-20
4.1261806e-20
4.1296502e-20
4.1367275e-20
4.1472928e-20
4.1597791e-20
4.1668479e-20
4.1350252e-20
3.8576002e-20
2.227233e-20
2.4078073e-22
6.2035908e-24
8.352351e-22
1.5152551e-21
1.6349925e-21
1.6496322e-21
1.6472575e-21
1.642319e-21
1.638038e-21
1.6351286e-21
1.6336684e-21
1.6336414e-21
1.6350496e-21
1.6379141e-21
1.6421598e-21
1.6470717e-21
1.6494261e-21
1.6347694e-21
1.5150305e-21
8.3509997e-22
6.2024614e-24
1.4806112e-25
2.9025873e-23
5.5157777e-23
5.9913006e-23
6.0526834e-23
6.0457121e-23
6.0278066e-23
6.0119476e-23
6.0010975e-23
5.9956394e-23
5.9955389e-23
6.0008035e-23
6.0114842e-23
6.0272077e-23
6.045007e-23
6.0518925e-23
5.9904349e-23
5.5148996e-23
2.9020766e-23
1.4803178e-25
3.2810428e-27
9.3694553e-25
1.8650683e-24
2.0394007e-24
2.0629662e-24
2.0612159e-24
2.0552147e-24
2.0497809e-24
2.0460395e-24
2.0441533e-24
2.0441188e-24
2.0459385e-24
2.0496212e-24
2.0550074e-24
2.0609703e-24
2.0626886e-24
2.0390945e-24
1.8647566e-24
9.3677086e-25
3.2803554e-27
6.7625827e-29
2.8142915e-26
5.8684242e-26
6.459963e-26
6.5431623e-26
6.5396709e-26
6.5210256e-26
6.5037546e-26
6.4917882e-26
6.4857428e-26
6.4856316e-26
6.4914621e-26
6.5032379e-26
6.5203527e-26
6.5388706e-26
6.5422546e-26
6.4589588e-26
5.8674037e-26
2.8137432e-26
6.7611099e-29
1.2982119e-30
7.8769571e-28
1.7206544e-27
1.9068151e-27
1.9339196e-27
1.9335129e-27
1.9281316e-27
1.9230279e-27
1.9194696e-27
1.9176679e-27
1.9176337e-27
1.9193692e-27
1.9228685e-27
1.9279236e-27
1.9332651e-27
1.9336383e-27
1.9065044e-27
1.720341e-27
7.8753513e-28
1.2979183e-30
2.3236472e-32
2.0565589e-29
4.7061612e-29
5.2504014e-29
5.3320911e-29
5.3327271e-29
5.318277e-29
5.3042312e-29
5.2943772e-29
5.2893755e-29
5.2892745e-29
5.2940807e-29
5.3037599e-29
5.3176603e-29
5.3319914e-29
5.331256e-29
5.2494831e-29
4.7052464e-29
2.0561143e-29
2.3230948e-32
3.8807039e-34
5.0122771e-31
1.2015873e-30
1.3495687e-30
1.3723901e-30
1.3730126e-30
1.3693985e-30
1.3657945e-30
1.3632501e-30
1.3619551e-30
1.3619266e-30
1.3631664e-30
1.3656613e-30
1.3692236e-30
1.3728035e-30
1.3721528e-30
1.3493091e-30
1.2013323e-30
5.0111042e-31
3.8797136e-34
6.0500703e-36
1.1408374e-32
2.8650938e-32
3.2396242e-32
3.2988034e-32
3.3014143e-32
3.2929901e-32
3.2843622e-32
3.2782318e-32
3.2751028e-32
3.275027e-32
3.2780088e-32
3.284006e-32
3.2925206e-32
3.300851e-32
3.2981635e-32
3.2389265e-32
2.8644175e-32
1.1405431e-32
6.0483801e-36
8.8061572e-38
2.4252685e-34
6.3806606e-34
7.2633787e-34
7.4059537e-34
7.4143377e-34
7.3960331e-34
7.3767559e-34
7.3629704e-34
7.3559134e-34
7.355725e-34
7.3624149e-34
7.3758657e-34
7.3948542e-34
7.4129166e-34
7.404335e-34
7.2616166e-34
6.3789705e-34
2.4245712e-34
8.8034302e-38
1.1965417e-39
4.8146586e-36
1.3269465e-35
1.5207014e-35
1.5526289e-35
1.5549186e-35
1.5512116e-35
1.5471921e-35
1.5442991e-35
1.5428138e-35
1.5427705e-35
1.5441711e-35
1.5469862e-35
1.5509375e-35
1.5545865e-35
1.5522491e-35
1.5202876e-35
1.3265526e-35
4.8131136e-36
1.1961952e-39
1.5171363e-41
8.9213518e-38
2.5756519e-37
2.9716289e-37
3.0380879e-37
3.0436142e-37
3.0366204e-37
3.0288022e-37
3.0231386e-37
3.0202231e-37
3.0201315e-37
3.0228676e-37
3.0283645e-37
3.0360349e-37
3.0429006e-37
3.0372675e-37
2.9707331e-37
2.5748037e-37
8.9181802e-38
1.5166296e-41
1.7937868e-43
1.541728e-39
4.6624497e-39
5.4154798e-39
5.5440246e-39
5.556025e-39
5.5437433e-39
5.5295681e-39
5.5192335e-39
5.5139e-39
5.5137226e-39
5.5187079e-39
5.5287163e-39
5.5425981e-39
5.5546209e-39
5.5424015e-39
5.4137017e-39
4.6607725e-39
1.5411289e-39
1.7927805e-43
1.9756651e-45
2.4820076e-41
7.86204e-41
9.1932924e-41
9.424144e-41
9.4478088e-41
9.4277585e-41
9.4038268e-41
9.386268e-41
9.3771863e-41
9.3768724e-41
9.3853365e-41
9.4023116e-41
9.4257113e-41
9.4452847e-41
9.4212095e-41
9.1900656e-41
7.8590055e-41
2.4809709e-41
1.9738115e-45
2.0241773e-47
3.7167561e-43
1.2330818e-42
1.4515687e-42
1.4900166e-42
1.4942756e-42
1.4912374e-42
1.4874808e-42
1.4847071e-42
1.4832698e-42
1.483219e-42
1.4845562e-42
1.4872345e-42
1.4909031e-42
1.4938613e-42
1.4895324e-42
1.4510344e-42
1.2325807e-42
3.7151178e-43
2.0211495e-47
1.9257493e-49
5.1672667e-45
1.7953456e-44
2.127647e-44
2.1869338e-44
2.1939456e-44
2.1896815e-44
2.184209e-44
2.180143e-44
2.1780323e-44
2.1779572e-44
2.1799194e-44
2.1838432e-44
2.1891831e-44
2.1933251e-44
2.1862053e-44
2.1268405e-44
1.7945914e-44
5.164907e-45
1.9213611e-49
1.6973966e-51
6.6536808e-47
2.4208352e-46
2.8881361e-46
2.9725969e-46
2.9831633e-46
2.977634e-46
2.970253e-46
2.9647343e-46
2.9618655e-46
2.9617639e-46
2.9644317e-46
2.9697568e-46
2.9769557e-46
2.9823156e-46
2.9715982e-46
2.8870277e-46
2.4198026e-46
6.6505889e-47
1.6917787e-51
1.3821383e-53
7.9122587e-49
3.0141791e-48
3.6200658e-48
3.7309275e-48
3.7454907e-48
3.7388872e-48
3.729697e-48
3.7227819e-48
3.7191827e-48
3.7190572e-48
3.722408e-48
3.7290826e-48
3.7380455e-48
3.744436e-48
3.7296819e-48
3.6186816e-48
3.0128947e-48
7.9085797e-49
1.3758732e-53
1.0359027e-55
8.6582411e-51
3.4530613e-50
4.1748395e-50
4.3084558e-50
4.3267772e-50
4.3195417e-50
4.3090153e-50
4.3010442e-50
4.2968907e-50
4.2967495e-50
4.3006231e-50
4.3083224e-50
4.3185913e-50
4.3255846e-50
4.3070454e-50
4.1732716e-50
3.4516137e-50
8.6542734e-51
1.029951e-55
7.1128686e-58
8.6808564e-53
3.6238854e-52
4.4105212e-52
4.557773e-52
4.5787468e-52
4.5715067e-52
4.5604636e-52
4.5520475e-52
4.5476574e-52
4.5475127e-52
4.551616e-52
4.5597536e-52
4.5705327e-52
4.5775244e-52
4.5563276e-52
4.4089154e-52
3.6224108e-52
8.6769884e-53
7.066913e-58
4.4463214e-60
7.9321311e-55
3.465447e-54
4.2456605e-54
4.3932732e-54
4.4150253e-54
4.4084466e-54
4.3978918e-54
4.3897955e-54
4.3855678e-54
4.3854333e-54
4.3893948e-54
4.3972332e-54
4.4075442e-54
4.4138945e-54
4.3919381e-54
4.2441797e-54
3.4640949e-54
7.928735e-55
4.4215948e-60
2.5175685e-62
6.5624378e-57
2.9998503e-56
3.6995183e-56
3.8332516e-56
3.8535702e-56
3.8481795e-56
3.8390484e-56
3.8319979e-56
3.8283124e-56
3.8281999e-56
3.8316627e-56
3.8384982e-56
3.8474277e-56
3.8526312e-56
3.8321465e-56
3.698296e-56
2.9987411e-56
6.5597683e-57
2.5067074e-62
1.2817876e-64
4.8757537e-59
2.3314909e-58
2.8941843e-58
3.0027987e-58
3.0197632e-58
3.0158134e-58
3.0087213e-58
3.0032086e-58
3.0003239e-58
3.0002396e-58
3.0029576e-58
3.0083105e-58
3.0152544e-58
3.0190685e-58
3.0019854e-58
2.8932886e-58
2.3306834e-58
4.87389e-59
1.2775098e-64
5.8091361e-67
3.2197793e-61
1.610106e-60
2.0117769e-60
2.0900472e-60
2.1025824e-60
2.1000221e-60
2.0951272e-60
2.0912966e-60
2.0892901e-60
2.0892341e-60
2.0911302e-60
2.0948556e-60
2.0996546e-60
2.1021289e-60
2.0895204e-60
2.0112004e-60
1.60959e-60
3.2186366e-61
5.7941673e-67
2.3130956e-69
1.8646574e-63
9.7484605e-63
1.2259796e-62
1.2753655e-62
1.2834569e-62
1.2820089e-62
1.2790464e-62
1.2767123e-62
1.2754884e-62
1.2754559e-62
1.2766158e-62
1.2788895e-62
1.2817979e-62
1.283199e-62
1.2750691e-62
1.2256582e-62
9.7456071e-63
1.8640506e-63
2.308532e-69
)
;

boundaryField
{
    Wall
    {
        type            zeroGradient;
    }
    frontAndBack
    {
        type            empty;
    }
    atmosphere
    {
        type            zeroGradient;
    }
}


// ************************************************************************* //
