/*--------------------------------*- C++ -*----------------------------------*\
| =========                 |                                                 |
| \\      /  F ield         | OpenFOAM: The Open Source CFD Toolbox           |
|  \\    /   O peration     | Version:  3.0.1                                 |
|   \\  /    A nd           | Web:      www.OpenFOAM.org                      |
|    \\/     M anipulation  |                                                 |
\*---------------------------------------------------------------------------*/
FoamFile
{
    version     2.0;
    format      ascii;
    class       volScalarField;
    location    "6";
    object      wCO2_g;
}
// * * * * * * * * * * * * * * * * * * * * * * * * * * * * * * * * * * * * * //

dimensions      [0 0 0 0 0 0 0];

internalField   nonuniform List<scalar> 
800
(
0.00044932527
0.00044929806
0.0004492878
0.0004492849
0.00044928328
0.00044928211
0.00044928124
0.00044928064
0.00044928025
0.00044928006
0.00044928006
0.00044928025
0.00044928064
0.00044928124
0.00044928211
0.00044928329
0.00044928491
0.00044928781
0.00044929806
0.00044932527
0.00018782896
0.00018787687
0.00018791675
0.00018793908
0.00018795097
0.00018795776
0.00018796192
0.00018796452
0.00018796608
0.00018796681
0.00018796681
0.00018796607
0.00018796451
0.0001879619
0.00018795775
0.00018795095
0.00018793906
0.00018791673
0.00018787684
0.00018782894
2.6676231e-05
2.6691038e-05
2.6689671e-05
2.6686627e-05
2.66839e-05
2.6681637e-05
2.6679895e-05
2.6678648e-05
2.6677849e-05
2.667746e-05
2.6677461e-05
2.6677851e-05
2.6678652e-05
2.66799e-05
2.6681644e-05
2.6683908e-05
2.6686636e-05
2.668968e-05
2.6691049e-05
2.6676243e-05
2.8322649e-06
2.9506567e-06
2.9565781e-06
2.9567618e-06
2.9565803e-06
2.9563654e-06
2.956183e-06
2.9560484e-06
2.9559607e-06
2.9559163e-06
2.9559163e-06
2.9559605e-06
2.9560481e-06
2.9561827e-06
2.9563652e-06
2.95658e-06
2.9567613e-06
2.9565771e-06
2.9506554e-06
2.8322633e-06
2.6675142e-07
3.5089852e-07
3.6098211e-07
3.6194272e-07
3.619275e-07
3.6183297e-07
3.6175526e-07
3.6170187e-07
3.6166897e-07
3.6165263e-07
3.6165251e-07
3.6166866e-07
3.6170144e-07
3.6175472e-07
3.618323e-07
3.6192662e-07
3.6194148e-07
3.6098035e-07
3.5089627e-07
2.6674928e-07
2.251852e-08
4.373821e-08
4.7066354e-08
4.7411167e-08
4.7409341e-08
4.7378157e-08
4.7352484e-08
4.7335047e-08
4.7324492e-08
4.7319427e-08
4.7319392e-08
4.7324388e-08
4.7334891e-08
4.7352283e-08
4.7377903e-08
4.7409005e-08
4.7410693e-08
4.7065689e-08
4.3737382e-08
2.2517939e-08
1.7001649e-09
4.9298335e-09
5.5656338e-09
5.6357844e-09
5.6357435e-09
5.6292062e-09
5.623661e-09
5.6198378e-09
5.6175094e-09
5.6163985e-09
5.6163902e-09
5.6174849e-09
5.6198006e-09
5.6236131e-09
5.6291461e-09
5.6356657e-09
5.6356768e-09
5.5654851e-09
4.9296558e-09
1.7000817e-09
1.1388357e-10
4.8595561e-10
5.7494363e-10
5.8534661e-10
5.8543984e-10
5.8447634e-10
5.8362273e-10
5.8302088e-10
5.8264974e-10
5.824721e-10
5.8247063e-10
5.8264541e-10
5.8301429e-10
5.8361434e-10
5.8446611e-10
5.85427e-10
5.8532947e-10
5.749206e-10
4.8592955e-10
1.1387554e-10
6.8030734e-12
4.2122161e-11
5.2141114e-11
5.3378753e-11
5.3406927e-11
5.3298458e-11
5.3197213e-11
5.3124052e-11
5.3078292e-11
5.3056256e-11
5.305605e-11
5.3077689e-11
5.3123134e-11
5.3196063e-11
5.3297097e-11
5.3405294e-11
5.3376676e-11
5.2138435e-11
4.211932e-11
6.8024918e-12
3.6531916e-13
3.249188e-12
4.2028899e-12
4.327008e-12
4.3317741e-12
4.3218735e-12
4.3120763e-12
4.3048204e-12
4.3002184e-12
4.2979868e-12
4.2979629e-12
4.300149e-12
4.3047149e-12
4.3119457e-12
4.3217234e-12
4.3316021e-12
4.3268016e-12
4.2026382e-12
3.2489411e-12
3.6528537e-13
1.7764791e-14
2.2543107e-13
3.0445738e-13
3.1525626e-13
3.1583983e-13
3.1507775e-13
3.1427361e-13
3.1366373e-13
3.1327189e-13
3.1308057e-13
3.1307823e-13
3.1326511e-13
3.1365343e-13
3.1426093e-13
3.1506346e-13
3.1582409e-13
3.1523843e-13
3.0443701e-13
2.2541284e-13
1.7763109e-14
7.8739933e-16
1.4190673e-14
1.9999011e-14
2.0829543e-14
2.0886594e-14
2.083582e-14
2.0778315e-14
2.0733701e-14
2.07047e-14
2.069045e-14
2.0690252e-14
2.0704127e-14
2.0732829e-14
2.0777242e-14
2.0834621e-14
2.0885307e-14
2.082815e-14
1.9997516e-14
1.4189456e-14
7.873228e-16
3.1992972e-17
8.1627464e-16
1.1999456e-15
1.2571688e-15
1.2618591e-15
1.2588793e-15
1.2552277e-15
1.2523324e-15
1.2504306e-15
1.2494909e-15
1.2494763e-15
1.2503884e-15
1.2522679e-15
1.2551479e-15
1.2587901e-15
1.2617641e-15
1.2570687e-15
1.1998428e-15
8.1619782e-16
3.1989622e-17
1.197542e-18
4.3159478e-17
6.6159988e-17
6.9728016e-17
7.0062641e-17
6.990681e-17
6.9697995e-17
6.9528926e-17
6.9416838e-17
6.9361184e-17
6.9360244e-17
6.9414113e-17
6.9524732e-17
6.9692764e-17
6.9900913e-17
7.0056342e-17
6.9721415e-17
6.6153366e-17
4.3154841e-17
1.1973993e-18
4.1472581e-20
2.1079522e-18
3.3688334e-18
3.5717781e-18
3.5929336e-18
3.5856185e-18
3.5747525e-18
3.5657726e-18
3.5597698e-18
3.5567772e-18
3.5567237e-18
3.5596143e-18
3.5655317e-18
3.5744489e-18
3.5852724e-18
3.5925598e-18
3.5713838e-18
3.3684396e-18
2.1076888e-18
4.146681e-20
1.3337185e-21
9.5495789e-20
1.590851e-19
1.696823e-19
1.7088491e-19
1.7057564e-19
1.7005694e-19
1.696195e-19
1.6932489e-19
1.6917754e-19
1.6917483e-19
1.6931699e-19
1.6960718e-19
1.7004125e-19
1.7055753e-19
1.7086509e-19
1.6966113e-19
1.5906385e-19
9.5482041e-20
1.3335034e-21
3.9955373e-23
4.0267961e-21
6.991545e-21
7.5021952e-21
7.5643254e-21
7.5525582e-21
7.529701e-21
7.51003e-21
7.4966905e-21
7.4900004e-21
7.4898765e-21
7.4963284e-21
7.5094619e-21
7.5289719e-21
7.5517075e-21
7.5633819e-21
7.5011737e-21
6.9905103e-21
4.0261457e-21
3.994811e-23
1.1180908e-24
1.5851402e-22
2.8681465e-22
3.0961981e-22
3.1256049e-22
3.1216016e-22
3.1122576e-22
3.1040493e-22
3.0984471e-22
3.095631e-22
3.0955791e-22
3.0982953e-22
3.1038102e-22
3.1119487e-22
3.121238e-22
3.1251972e-22
3.0957517e-22
2.8676908e-22
1.5848617e-22
1.1178696e-24
2.9294602e-26
5.8397545e-24
1.1010508e-23
1.1957748e-23
1.2086057e-23
1.2074081e-23
1.2038506e-23
1.2006591e-23
1.1984675e-23
1.1973636e-23
1.1973434e-23
1.1984084e-23
1.2005657e-23
1.2037293e-23
1.2072644e-23
1.2084434e-23
1.1955957e-23
1.1008672e-23
5.8386676e-24
2.9288477e-26
7.2008048e-28
2.0177229e-25
3.9638481e-25
4.3308688e-25
4.3827307e-25
4.3797076e-25
4.3670529e-25
4.3554525e-25
4.3474384e-25
4.3433934e-25
4.343319e-25
4.3472201e-25
4.3551067e-25
4.3666027e-25
4.3791725e-25
4.382124e-25
4.3301973e-25
3.9631604e-25
2.0173305e-25
7.1992402e-28
1.6634338e-29
6.5500867e-27
1.3406387e-26
1.4736222e-26
1.4931169e-26
1.4925487e-26
1.4883323e-26
1.48438e-26
1.4816332e-26
1.4802438e-26
1.4802174e-26
1.4815557e-26
1.4842571e-26
1.4881719e-26
1.4923577e-26
1.4929002e-26
1.4733827e-26
1.3403951e-26
6.548754e-27
1.6630587e-29
3.6165695e-31
2.0008034e-28
4.2662512e-28
4.7177705e-28
4.7861334e-28
4.7858206e-28
4.7726353e-28
4.7599863e-28
4.7511428e-28
4.7466588e-28
4.7465681e-28
4.7508769e-28
4.7595638e-28
4.7720827e-28
4.7851615e-28
4.7853857e-28
4.7169476e-28
4.2654241e-28
2.0003717e-28
3.6157123e-31
7.409506e-33
5.7580453e-30
1.2789774e-29
1.4228797e-29
1.4453008e-29
1.4456683e-29
1.4417921e-29
1.4379831e-29
1.4353039e-29
1.4339419e-29
1.433912e-29
1.435216e-29
1.437843e-29
1.4416083e-29
1.4454486e-29
1.4450516e-29
1.4226068e-29
1.2787067e-29
5.7567012e-30
7.4076219e-33
1.4319392e-34
1.5627854e-31
3.6157706e-31
4.0468723e-31
4.1157862e-31
4.1181616e-31
4.1074361e-31
4.0966298e-31
4.0889824e-31
4.0850838e-31
4.0849894e-31
4.0887045e-31
4.096186e-31
4.1068515e-31
4.1174604e-31
4.1149899e-31
4.0460034e-31
3.6149197e-31
1.5623834e-31
1.4315406e-34
2.6125172e-36
4.0033635e-33
9.6473244e-33
1.0862669e-32
1.1061497e-32
1.107148e-32
1.104352e-32
1.1014607e-32
1.099402e-32
1.0983495e-32
1.0983214e-32
1.0993192e-32
1.101328e-32
1.1041763e-32
1.1069362e-32
1.1059086e-32
1.0860042e-32
9.6447766e-33
4.0022157e-33
2.6117114e-36
4.5026695e-38
9.6853255e-35
2.4307538e-34
2.7534608e-34
2.8073772e-34
2.8108292e-34
2.8039578e-34
2.796657e-34
2.7914266e-34
2.7887451e-34
2.7886668e-34
2.7911956e-34
2.7962853e-34
2.8034632e-34
2.81023e-34
2.8066921e-34
2.7527137e-34
2.4300344e-34
9.6822268e-35
4.5012898e-38
7.3346454e-40
2.2138544e-36
5.7860537e-36
6.5936409e-36
6.7311908e-36
6.7416784e-36
6.7257514e-36
6.7083441e-36
6.695797e-36
6.6893474e-36
6.6891447e-36
6.6951975e-36
6.7073762e-36
6.7244568e-36
6.7401008e-36
6.7293778e-36
6.591659e-36
5.7841541e-36
2.2130697e-36
7.3320906e-40
1.1296083e-41
4.7822901e-38
1.3014705e-37
1.4920321e-37
1.5250691e-37
1.5279476e-37
1.524465e-37
1.5205448e-37
1.517702e-37
1.5162372e-37
1.5161884e-37
1.5175577e-37
1.5203109e-37
1.5241506e-37
1.5275623e-37
1.5246237e-37
1.4915436e-37
1.3010038e-37
4.7804375e-38
1.1290392e-41
1.6450749e-43
9.7635695e-40
2.7664723e-39
3.190558e-39
3.2652962e-39
3.2725371e-39
3.2653528e-39
3.2570129e-39
3.2509287e-39
3.2477871e-39
3.2476785e-39
3.2506065e-39
3.2564889e-39
3.264645e-39
3.2716646e-39
3.264282e-39
3.1894413e-39
2.7654078e-39
9.7595042e-40
1.6438516e-43
2.2654617e-45
1.8837797e-41
5.5566972e-41
6.4468629e-41
6.606153e-41
6.6229858e-41
6.6090058e-41
6.5922458e-41
6.5799462e-41
6.5735836e-41
6.5733587e-41
6.5792783e-41
6.591156e-41
6.607527e-41
6.6211534e-41
6.6040118e-41
6.4444965e-41
5.5544459e-41
1.8829519e-41
2.2630179e-45
2.9496924e-47
3.4339425e-43
1.0543697e-42
1.2305812e-42
1.2625666e-42
1.2662013e-42
1.2636361e-42
1.2604551e-42
1.2581069e-42
1.2568903e-42
1.256847e-42
1.2579781e-42
1.2602444e-42
1.263349e-42
1.265844e-42
1.2621472e-42
1.2301161e-42
1.0539282e-42
3.4323794e-43
2.9451839e-47
3.6299926e-49
5.9117872e-45
1.8891679e-44
2.2180289e-44
2.2785289e-44
2.2858423e-44
2.2814059e-44
2.2757061e-44
2.2714737e-44
2.269278e-44
2.2692002e-44
2.2712423e-44
2.2753266e-44
2.2808873e-44
2.2851942e-44
2.2777654e-44
2.2171803e-44
1.8883646e-44
5.909049e-45
3.6223715e-49
4.2199925e-51
9.6062811e-47
3.1944144e-46
3.7727684e-46
3.8805221e-46
3.8942614e-46
3.8870355e-46
3.8773988e-46
3.870201e-46
3.8664625e-46
3.8663322e-46
3.8698131e-46
3.8767615e-46
3.8861624e-46
3.8931675e-46
3.8792303e-46
3.7713302e-46
3.1930577e-46
9.6018294e-47
4.2083607e-51
4.630742e-53
1.4722208e-48
5.0935292e-48
6.0513495e-48
6.2319542e-48
6.2560802e-48
6.2450057e-48
6.2296435e-48
6.2181015e-48
6.2121007e-48
6.2118968e-48
6.217494e-48
6.2286442e-48
6.2436348e-48
6.2543601e-48
6.22992e-48
6.049084e-48
5.091401e-48
1.4715485e-48
4.6150514e-53
4.7910328e-55
2.1259808e-50
7.6512764e-50
9.1437315e-50
9.4283721e-50
9.4679897e-50
9.4520364e-50
9.4289676e-50
9.4115326e-50
9.4024594e-50
9.4021608e-50
9.4106425e-50
9.4275034e-50
9.4500276e-50
9.4654688e-50
9.4253912e-50
9.1404133e-50
7.6481736e-50
2.1250369e-50
4.7731129e-55
4.665679e-57
2.8894272e-52
1.0815014e-51
1.3000611e-51
1.3422006e-51
1.3482838e-51
1.3461266e-51
1.342867e-51
1.3403888e-51
1.3390979e-51
1.339057e-51
1.3402667e-51
1.3426665e-51
1.3458518e-51
1.3479394e-51
1.341794e-51
1.2996092e-51
1.081081e-51
2.8881949e-52
4.6506224e-57
4.2739281e-59
3.6908584e-54
1.4364458e-53
1.7368546e-53
1.795381e-53
1.8041102e-53
1.8013765e-53
1.7970486e-53
1.7937382e-53
1.7920124e-53
1.7919599e-53
1.7935817e-53
1.7967918e-53
1.8010257e-53
1.803672e-53
1.7948651e-53
1.7362828e-53
1.4359167e-53
3.6893632e-54
4.2630389e-59
3.6778868e-61
4.423748e-56
1.7897796e-55
2.1767141e-55
2.2528538e-55
2.2645487e-55
2.2613076e-55
2.2559161e-55
2.2517672e-55
2.2496025e-55
2.2495394e-55
2.2515797e-55
2.2556091e-55
2.2608898e-55
2.2640294e-55
2.2522458e-55
2.1760431e-55
1.7891622e-55
4.4220646e-56
3.6704321e-61
2.9671455e-63
4.9653407e-58
2.0878899e-57
2.5540419e-57
2.6466534e-57
2.6612605e-57
2.6576726e-57
2.6513829e-57
2.6465133e-57
2.6439704e-57
2.6438998e-57
2.6463035e-57
2.6510406e-57
2.6572091e-57
2.6606885e-57
2.645989e-57
2.5533131e-57
2.0872237e-57
4.963587e-58
2.9623184e-63
2.238588e-65
5.2069287e-60
2.2751382e-59
2.7992637e-59
2.9043592e-59
2.9213378e-59
2.9176386e-59
2.9107824e-59
2.9054416e-59
2.9026503e-59
2.9025766e-59
2.9052229e-59
2.9104267e-59
2.9171602e-59
2.920753e-59
2.9036872e-59
2.798533e-59
2.2744753e-59
5.205243e-60
2.2356481e-65
)
;

boundaryField
{
    Wall
    {
        type            zeroGradient;
    }
    frontAndBack
    {
        type            empty;
    }
    atmosphere
    {
        type            zeroGradient;
    }
}


// ************************************************************************* //
