/*--------------------------------*- C++ -*----------------------------------*\
| =========                 |                                                 |
| \\      /  F ield         | OpenFOAM: The Open Source CFD Toolbox           |
|  \\    /   O peration     | Version:  3.0.1                                 |
|   \\  /    A nd           | Web:      www.OpenFOAM.org                      |
|    \\/     M anipulation  |                                                 |
\*---------------------------------------------------------------------------*/
FoamFile
{
    version     2.0;
    format      ascii;
    class       volScalarField;
    location    "6";
    object      wCO2_l;
}
// * * * * * * * * * * * * * * * * * * * * * * * * * * * * * * * * * * * * * //

dimensions      [0 0 0 0 0 0 0];

internalField   nonuniform List<scalar> 
800
(
0.0027469291
0.0027468307
0.0027467934
0.0027467779
0.0027467687
0.0027467623
0.0027467578
0.0027467547
0.0027467528
0.0027467518
0.0027467518
0.0027467528
0.0027467547
0.0027467578
0.0027467623
0.0027467687
0.0027467779
0.0027467935
0.0027468307
0.0027469291
0.002791555
0.0027917038
0.002791791
0.0027918388
0.0027918681
0.002791887
0.0027918996
0.002791908
0.0027919132
0.0027919156
0.0027919156
0.0027919131
0.002791908
0.0027918996
0.0027918869
0.002791868
0.0027918388
0.0027917909
0.0027917038
0.0027915549
0.00081155919
0.00081286313
0.00081298461
0.00081296148
0.00081291894
0.00081287883
0.00081284692
0.00081282386
0.00081280905
0.00081280184
0.00081280185
0.00081280909
0.00081282392
0.000812847
0.00081287893
0.00081291905
0.00081296161
0.00081298473
0.00081286329
0.00081155936
0.00013589053
0.00014236205
0.0001427132
0.00014273384
0.00014272902
0.00014272082
0.00014271362
0.00014270834
0.00014270492
0.00014270317
0.00014270316
0.0001427049
0.00014270831
0.00014271359
0.00014272078
0.00014272898
0.00014273378
0.00014271309
0.00014236191
0.00013589037
1.7221741e-05
2.2530526e-05
2.3131094e-05
2.3185804e-05
2.318385e-05
2.3177444e-05
2.3172282e-05
2.3168771e-05
2.3166621e-05
2.3165554e-05
2.3165546e-05
2.3166598e-05
2.3168739e-05
2.3172242e-05
2.3177395e-05
2.3183788e-05
2.3185715e-05
2.3130968e-05
2.2530361e-05
1.7221581e-05
1.7501541e-06
3.305929e-06
3.5375845e-06
3.5607268e-06
3.5601856e-06
3.5576981e-06
3.5556849e-06
3.554325e-06
3.553504e-06
3.5531104e-06
3.5531075e-06
3.5534955e-06
3.5543124e-06
3.5556687e-06
3.5576778e-06
3.5601591e-06
3.5606894e-06
3.5375316e-06
3.3058619e-06
1.7501057e-06
1.4531572e-07
4.0133139e-07
4.4925033e-07
4.5439358e-07
4.5431597e-07
4.5376062e-07
4.5329594e-07
4.5297683e-07
4.5278285e-07
4.5269038e-07
4.5268967e-07
4.5278077e-07
4.5297368e-07
4.532919e-07
4.5375557e-07
4.5430946e-07
4.5438458e-07
4.4923782e-07
4.0131617e-07
1.4530826e-07
9.9466168e-09
3.9759936e-08
4.6546712e-08
4.7324674e-08
4.7323376e-08
4.7241826e-08
4.7170366e-08
4.712014e-08
4.7089214e-08
4.7074426e-08
4.7074303e-08
4.7088852e-08
4.7119588e-08
4.7169666e-08
4.7240974e-08
4.732231e-08
4.7323247e-08
4.6544782e-08
3.9757712e-08
9.9458872e-09
5.7244585e-10
3.2784304e-09
4.0104342e-09
4.0997264e-09
4.1011307e-09
4.0924484e-09
4.0844165e-09
4.0786277e-09
4.075012e-09
4.0732727e-09
4.0732565e-09
4.0749645e-09
4.0785553e-09
4.0843259e-09
4.0923413e-09
4.1010024e-09
4.0995627e-09
4.0102217e-09
3.2782006e-09
5.7239518e-10
2.8196455e-11
2.2978353e-10
2.9353593e-10
3.0177956e-10
3.0206314e-10
3.0134611e-10
3.0064157e-10
3.0012092e-10
2.9979114e-10
2.9963141e-10
2.9962971e-10
2.9978619e-10
3.001134e-10
3.0063226e-10
3.0133542e-10
3.0205089e-10
3.0176482e-10
2.9351783e-10
2.2976542e-10
2.8193758e-11
1.2051539e-12
1.3916635e-11
1.8558892e-11
1.9192562e-11
1.9225801e-11
1.9177782e-11
1.9127363e-11
1.9089194e-11
1.9064702e-11
1.9052758e-11
1.9052613e-11
1.906428e-11
1.9088553e-11
1.9126576e-11
1.9176895e-11
1.9224823e-11
1.9191452e-11
1.8557616e-11
1.3915469e-11
1.2050359e-12
4.5183528e-14
7.3743756e-13
1.0264812e-12
1.0679639e-12
1.0708261e-12
1.0681411e-12
1.0651069e-12
1.0627563e-12
1.0612302e-12
1.0604813e-12
1.060471e-12
1.0612003e-12
1.0627107e-12
1.0650509e-12
1.0680785e-12
1.0707587e-12
1.0678909e-12
1.0264024e-12
7.3737199e-13
4.5178987e-14
1.4988842e-15
3.4522014e-14
5.0153911e-14
5.2504358e-14
5.2701268e-14
5.2573478e-14
5.2416609e-14
5.2292353e-14
5.2210836e-14
5.2170615e-14
5.2169997e-14
5.2209045e-14
5.2289612e-14
5.2413218e-14
5.2569682e-14
5.2697225e-14
5.2500082e-14
5.0149496e-14
3.4518646e-14
1.4987219e-15
4.4302461e-17
1.4386754e-15
2.1815156e-15
2.2981971e-15
2.3094989e-15
2.3042573e-15
2.2971807e-15
2.291453e-15
2.2876603e-15
2.2857801e-15
2.2857487e-15
2.2875691e-15
2.2913126e-15
2.2970054e-15
2.3040595e-15
2.3092873e-15
2.2979748e-15
2.1812913e-15
1.4385152e-15
4.4297012e-17
1.1732169e-18
5.3697295e-17
8.4989126e-17
9.0111913e-17
9.0667474e-17
9.0480938e-17
9.0199169e-17
8.9966196e-17
8.9810634e-17
8.9733217e-17
8.973185e-17
8.9806658e-17
8.9960027e-17
9.0191389e-17
9.0472054e-17
9.065787e-17
9.0101754e-17
8.4978927e-17
5.3690349e-17
1.1730487e-18
2.7960056e-20
1.8035957e-18
2.9800228e-18
3.1804063e-18
3.2042082e-18
3.198441e-18
3.1884538e-18
3.1800172e-18
3.1743409e-18
3.171507e-18
3.1714556e-18
3.1741908e-18
3.1797828e-18
3.1881553e-18
3.1980959e-18
3.20383e-18
3.1800013e-18
2.9796144e-18
1.8033273e-18
2.7955418e-20
6.0173314e-22
5.4719718e-20
9.4401114e-20
1.0142524e-19
1.0232497e-19
1.0217097e-19
1.0185384e-19
1.0158e-19
1.0139445e-19
1.0130157e-19
1.0129988e-19
1.0138949e-19
1.0157221e-19
1.0184384e-19
1.0215929e-19
1.0231199e-19
1.0141115e-19
9.4386797e-20
5.4710596e-20
6.0162089e-22
1.1724952e-23
1.5038597e-21
2.7096533e-21
2.9313175e-21
2.9615967e-21
2.9581092e-21
2.9490453e-21
2.9410376e-21
2.9355749e-21
2.9328346e-21
2.9327851e-21
2.9354297e-21
2.9408084e-21
2.9487489e-21
2.9577598e-21
2.9612044e-21
2.9308869e-21
2.7092126e-21
1.5035875e-21
1.1722575e-23
2.0724173e-25
3.7518598e-23
7.063089e-23
7.6951527e-23
7.7864876e-23
7.7801074e-23
7.756712e-23
7.7355361e-23
7.7209942e-23
7.7136847e-23
7.7135539e-23
7.7206099e-23
7.7349278e-23
7.7559215e-23
7.7791697e-23
7.7854269e-23
7.6939799e-23
7.0618851e-23
3.7511417e-23
2.0719742e-25
3.326865e-27
8.5093814e-25
1.6746389e-24
1.8379654e-24
1.8627892e-24
1.8619888e-24
1.856523e-24
1.8514449e-24
1.8479342e-24
1.846166e-24
1.8461342e-24
1.8478408e-24
1.8512966e-24
1.8563297e-24
1.8617586e-24
1.8625278e-24
1.8376757e-24
1.6743425e-24
8.5076831e-25
3.3261271e-27
4.8535058e-29
1.7561114e-26
3.6155359e-26
3.9988988e-26
4.0599435e-26
4.0599246e-26
4.0483525e-26
4.037288e-26
4.0295855e-26
4.0256974e-26
4.0256253e-26
4.0293735e-26
4.036951e-26
4.0479121e-26
4.0593992e-26
4.0593464e-26
3.9982386e-26
3.6148666e-26
1.7557456e-26
4.8523906e-29
6.4352034e-31
3.2990198e-28
7.112929e-28
7.9319241e-28
8.0682196e-28
8.0719532e-28
8.0497423e-28
8.0278109e-28
8.0124307e-28
8.0046475e-28
8.0044941e-28
8.0119794e-28
8.0270924e-28
8.0488012e-28
8.0708289e-28
8.0669423e-28
7.9305192e-28
7.1115253e-28
3.2982924e-28
6.433652e-31
7.7507455e-33
5.641452e-30
1.2756015e-29
1.4351313e-29
1.4628449e-29
1.464284e-29
1.4604214e-29
1.4564638e-29
1.4536663e-29
1.4522465e-29
1.4522161e-29
1.4535766e-29
1.4563207e-29
1.4602333e-29
1.4640587e-29
1.4625891e-29
1.4348517e-29
1.2753268e-29
5.6401084e-30
7.7487438e-33
8.4714965e-35
8.7785506e-32
2.0857722e-31
2.3696047e-31
2.4210729e-31
2.424885e-31
2.4188085e-31
2.4123046e-31
2.4076663e-31
2.405305e-31
2.4052492e-31
2.4075017e-31
2.412041e-31
2.4184606e-31
2.4244669e-31
2.4205975e-31
2.3690876e-31
2.0852728e-31
8.7762488e-32
8.4691049e-35
8.3898843e-37
1.242363e-33
3.1103618e-33
3.5725454e-33
3.6601063e-33
3.6683722e-33
3.6597486e-33
3.6500119e-33
3.6429988e-33
3.639416e-33
3.6393227e-33
3.6427229e-33
3.6495686e-33
3.6591605e-33
3.6676618e-33
3.6592963e-33
3.5716669e-33
3.1095263e-33
1.2420003e-33
8.3872616e-37
7.5140346e-39
1.5982145e-35
4.2323921e-35
4.9229259e-35
5.0598327e-35
5.0753466e-35
5.0643567e-35
5.0510743e-35
5.0413966e-35
5.0364341e-35
5.0362926e-35
5.0409781e-35
5.0503991e-35
5.063456e-35
5.0742521e-35
5.0585798e-35
4.9215685e-35
4.2311188e-35
1.5976944e-35
7.5115644e-39
6.0714398e-41
1.8684293e-37
5.2617155e-37
6.2114001e-37
6.4088575e-37
6.4347306e-37
6.4222476e-37
6.4057245e-37
6.3935193e-37
6.3872356e-37
6.3870428e-37
6.3929473e-37
6.4047975e-37
6.421004e-37
6.4332099e-37
6.4071075e-37
6.2095042e-37
5.2599613e-37
1.8677567e-37
6.0692103e-41
4.4143923e-43
1.9860152e-39
5.9907028e-39
7.1979126e-39
7.4616677e-39
7.5005952e-39
7.4881204e-39
7.4693477e-39
7.4552467e-39
7.4479547e-39
7.4477176e-39
7.4545419e-39
7.4682006e-39
7.4865724e-39
7.4986896e-39
7.4594622e-39
7.1955229e-39
5.9885247e-39
1.9852352e-39
4.412353e-43
2.8804264e-45
1.9227974e-41
6.2720476e-41
7.6973508e-41
8.024977e-41
8.0783389e-41
8.0676482e-41
8.0481152e-41
8.0331334e-41
8.0253473e-41
8.0250834e-41
8.0323476e-41
8.0468304e-41
8.065904e-41
8.0761774e-41
8.0224606e-41
7.6946253e-41
6.269607e-41
1.9219879e-41
2.8786968e-45
1.6829437e-47
1.7020801e-43
6.075211e-43
7.6461467e-43
8.025949e-43
8.0930461e-43
8.0856603e-43
8.066969e-43
8.0522512e-43
8.0445579e-43
8.0442902e-43
8.0514524e-43
8.065657e-43
8.0838686e-43
8.0908109e-43
8.0233325e-43
7.6433168e-43
6.0727311e-43
1.7013268e-43
1.6815965e-47
8.7944622e-50
1.3863385e-45
5.4866556e-45
7.1099716e-45
7.5218347e-45
7.5995636e-45
7.5962793e-45
7.5797404e-45
7.5662827e-45
7.5592002e-45
7.5589504e-45
7.5655355e-45
7.5785079e-45
7.5945862e-45
7.5974379e-45
7.5193339e-45
7.1072744e-45
5.4843525e-45
1.3857062e-45
8.7847537e-50
4.1144936e-52
1.0479915e-47
4.6575232e-47
6.2338917e-47
6.6518958e-47
6.735052e-47
6.7357478e-47
6.7221378e-47
6.710609e-47
6.7044938e-47
6.7042775e-47
6.7099604e-47
6.7210632e-47
6.7342632e-47
6.7331769e-47
6.6496805e-47
6.2315126e-47
4.6555514e-47
1.0475087e-47
4.1079733e-52
1.731177e-54
7.4217668e-50
3.738484e-49
5.1764433e-49
5.5728971e-49
5.6551046e-49
5.658883e-49
5.6484239e-49
5.6391296e-49
5.6341562e-49
5.6339813e-49
5.6386039e-49
5.6475492e-49
5.6576683e-49
5.6535622e-49
5.5710687e-49
5.1744901e-49
3.7369166e-49
7.4183788e-50
1.7271136e-54
6.6094124e-57
4.9585067e-52
2.8418643e-51
4.0703194e-51
4.4206482e-51
4.4956964e-51
4.5012516e-51
4.4937411e-51
4.4866859e-51
4.4828744e-51
4.4827422e-51
4.4862876e-51
4.4930757e-51
4.5003232e-51
4.4945122e-51
4.4192406e-51
4.068825e-51
2.840704e-51
4.9563026e-52
6.5864175e-57
2.3185652e-59
3.1304373e-54
2.0389621e-53
3.0173624e-53
3.3047303e-53
3.3679128e-53
3.3739389e-53
3.3689199e-53
3.3638948e-53
3.3611521e-53
3.3610589e-53
3.3636132e-53
3.3684483e-53
3.3732783e-53
3.3670671e-53
3.3037233e-53
3.0163001e-53
2.0381633e-53
3.129103e-54
2.3073675e-59
7.5615481e-62
1.8598425e-56
1.3718375e-55
2.0949451e-55
2.3130291e-55
2.3620145e-55
2.3675084e-55
2.364411e-55
2.3610722e-55
2.3592301e-55
2.3591692e-55
2.3608877e-55
2.3641012e-55
2.3670731e-55
2.361456e-55
2.3123633e-55
2.0942474e-55
1.3713288e-55
1.8590922e-56
7.5216254e-62
2.310728e-64
1.0323508e-58
8.5978606e-58
1.3539424e-57
1.5066967e-57
1.5416368e-57
1.5460314e-57
1.5442828e-57
1.5422254e-57
1.5410769e-57
1.5410403e-57
1.5421139e-57
1.5440953e-57
1.5457674e-57
1.5412975e-57
1.5062921e-57
1.3535214e-57
8.5948817e-58
1.0319614e-58
2.2986516e-64
6.6143362e-67
5.3180788e-61
4.9957281e-60
8.1118234e-60
9.0981467e-60
9.327352e-60
9.3587809e-60
9.3498347e-60
9.3381198e-60
9.3314979e-60
9.3312957e-60
9.337501e-60
9.3487931e-60
9.3573122e-60
9.3254644e-60
9.0958976e-60
8.1095005e-60
4.994132e-60
5.3162241e-61
6.5800685e-67
1.7624153e-69
2.5320153e-63
2.6846511e-62
4.4966488e-62
5.0836304e-62
5.2219612e-62
5.242252e-62
5.2381432e-62
5.2319878e-62
5.2284611e-62
5.228359e-62
5.2316735e-62
5.2376138e-62
5.2415047e-62
5.221002e-62
5.0824901e-62
4.4954812e-62
2.6838717e-62
2.5312088e-63
1.7533216e-69
4.3438947e-72
1.1123804e-65
1.3335373e-64
2.305527e-64
2.62769e-64
2.7045698e-64
2.7164683e-64
2.7147946e-64
2.7118082e-64
2.710072e-64
2.710025e-64
2.7116622e-64
2.7145485e-64
2.7161209e-64
2.7041252e-64
2.6271637e-64
2.3049934e-64
1.3331913e-64
1.112061e-65
4.3213608e-72
)
;

boundaryField
{
    Wall
    {
        type            zeroGradient;
    }
    frontAndBack
    {
        type            empty;
    }
    atmosphere
    {
        type            zeroGradient;
    }
}


// ************************************************************************* //
