/*--------------------------------*- C++ -*----------------------------------*\
| =========                 |                                                 |
| \\      /  F ield         | OpenFOAM: The Open Source CFD Toolbox           |
|  \\    /   O peration     | Version:  3.0.1                                 |
|   \\  /    A nd           | Web:      www.OpenFOAM.org                      |
|    \\/     M anipulation  |                                                 |
\*---------------------------------------------------------------------------*/
FoamFile
{
    version     2.0;
    format      ascii;
    class       volScalarField;
    location    "22";
    object      alpha.gas;
}
// * * * * * * * * * * * * * * * * * * * * * * * * * * * * * * * * * * * * * //

dimensions      [0 0 0 0 0 0 0];

internalField   nonuniform List<scalar> 
800
(
2.7193768e-28
2.3069117e-25
4.4382153e-22
8.6613333e-22
6.3694165e-24
1.0706807e-21
9.3292605e-22
5.6317481e-23
1.3212631e-25
1.2389968e-28
3.054147e-23
2.9748716e-23
2.4761382e-25
6.9204921e-23
6.8144148e-23
1.6051831e-27
3.3147374e-32
1.0571802e-35
2.0845039e-39
3.8719656e-43
2.7621141e-12
6.2821385e-13
4.5409185e-11
1.6291031e-11
6.6316832e-13
2.1478497e-11
1.691164e-11
2.035364e-11
4.1373252e-11
1.0389054e-10
5.2201053e-11
5.1972343e-11
2.8115466e-11
1.6666177e-11
1.5734284e-11
3.0649233e-12
3.2214512e-16
6.940608e-14
8.7610099e-12
1.2038718e-14
1.9186745e-06
1.7843948e-06
1.7606713e-06
1.7611889e-06
1.7638547e-06
1.7662212e-06
1.7675361e-06
1.7681838e-06
1.768454e-06
1.7685723e-06
1.7685384e-06
1.7684614e-06
1.7681894e-06
1.7675364e-06
1.7662179e-06
1.7638564e-06
1.7611777e-06
1.7606409e-06
1.7843995e-06
1.9186729e-06
8.8122282e-06
8.1535419e-06
8.0477507e-06
8.0541834e-06
8.0674441e-06
8.0779858e-06
8.0837037e-06
8.0862254e-06
8.0872156e-06
8.0875151e-06
8.0874857e-06
8.0872229e-06
8.0862313e-06
8.0837046e-06
8.0779827e-06
8.0674446e-06
8.0541701e-06
8.0477209e-06
8.1535423e-06
8.8122251e-06
2.4213611e-05
2.2280031e-05
2.1986806e-05
2.2010187e-05
2.2048782e-05
2.2076211e-05
2.2090433e-05
2.209609e-05
2.2098058e-05
2.2098423e-05
2.2098395e-05
2.2098065e-05
2.2096095e-05
2.2090432e-05
2.2076203e-05
2.2048777e-05
2.2010164e-05
2.1986768e-05
2.2280022e-05
2.4213601e-05
5.2554737e-05
4.8011702e-05
4.7354413e-05
4.7401126e-05
4.7484041e-05
4.7537328e-05
4.7562778e-05
4.7571731e-05
4.7573913e-05
4.7573679e-05
4.757365e-05
4.7573917e-05
4.7571731e-05
4.7562768e-05
4.7537306e-05
4.7484018e-05
4.7401081e-05
4.7354355e-05
4.8011673e-05
5.2554709e-05
0.00010222276
9.2285472e-05
9.0893936e-05
9.0917769e-05
9.1057319e-05
9.1135775e-05
9.1167584e-05
9.1176262e-05
9.1175499e-05
9.1173225e-05
9.1173196e-05
9.1175493e-05
9.1176244e-05
9.1167551e-05
9.113572e-05
9.1057258e-05
9.0917676e-05
9.0893833e-05
9.2285398e-05
0.00010222268
0.00020029701
0.00017645301
0.00017298437
0.00017268355
0.00017281205
0.00017286312
0.00017286849
0.00017286292
0.00017285005
0.00017284294
0.00017284291
0.00017285003
0.00017286287
0.0001728684
0.00017286298
0.00017281189
0.00017268334
0.00017298416
0.00017645281
0.00020029678
0.00048417244
0.00040481894
0.00039081361
0.00038805891
0.00038727021
0.00038691224
0.00038671642
0.00038663401
0.00038658542
0.00038657196
0.00038657191
0.00038658535
0.00038663387
0.00038671615
0.00038691184
0.00038726972
0.00038805829
0.00039081296
0.00040481824
0.00048417154
0.0020926287
0.0015948955
0.0014879781
0.0014599983
0.0014487831
0.0014439774
0.001441873
0.0014411888
0.0014409801
0.0014409947
0.0014409945
0.0014409798
0.001441188
0.0014418716
0.0014439753
0.0014487802
0.0014599949
0.0014879744
0.0015948909
0.0020926227
0.029300169
0.019008861
0.016808144
0.016142707
0.015866416
0.01574921
0.015702786
0.015689442
0.015687668
0.015689611
0.015689608
0.015687659
0.015689426
0.015702758
0.015749169
0.015866363
0.016142643
0.016808073
0.019008767
0.029300029
0.4436275
0.35553713
0.33164132
0.32366734
0.3199677
0.31853512
0.31796396
0.31781286
0.31780522
0.31783836
0.31783832
0.31780511
0.31781266
0.31796362
0.31853461
0.31996705
0.32366657
0.33164048
0.35553617
0.4436265
0.92735786
0.89435349
0.88367608
0.88002793
0.87824833
0.8775928
0.87732998
0.87726685
0.87726949
0.87728915
0.87728914
0.87726944
0.87726676
0.87732982
0.87759256
0.87824802
0.88002757
0.8836757
0.89435308
0.92735754
0.99851109
0.99696917
0.99633049
0.9961325
0.99604263
0.99601299
0.99600329
0.99600315
0.99600541
0.99600765
0.99600765
0.99600541
0.99600315
0.99600328
0.99601298
0.99604262
0.99613248
0.99633047
0.99696915
0.99851108
0.99999727
0.99998953
0.99998509
0.99998394
0.99998362
0.99998359
0.99998365
0.99998372
0.99998378
0.99998382
0.99998382
0.99998378
0.99998372
0.99998365
0.99998359
0.99998362
0.99998394
0.99998509
0.99998953
0.99999727
1
1
0.99999999
0.99999999
0.99999999
0.99999999
0.99999999
0.99999999
0.99999999
0.99999999
0.99999999
0.99999999
0.99999999
0.99999999
0.99999999
0.99999999
0.99999999
0.99999999
1
1
1
1
1
1
1
1
1
1
1
1
1
1
1
1
1
1
1
1
1
1
1
1
1
1
1
1
1
1
1
1
1
1
1
1
1
1
1
1
1
1
1
1
1
1
1
1
1
1
1
1
1
1
1
1
1
1
1
1
1
1
1
1
1
1
1
1
1
1
1
1
1
1
1
1
1
1
1
1
1
1
1
1
1
1
1
1
1
1
1
1
1
1
1
1
1
1
1
1
1
1
1
1
1
1
1
1
1
1
1
1
1
1
1
1
1
1
1
1
1
1
1
1
1
1
1
1
1
1
1
1
1
1
1
1
1
1
1
1
1
1
1
1
1
1
1
1
1
1
1
1
1
1
1
1
1
1
1
1
1
1
1
1
1
1
1
1
1
1
1
1
1
1
1
1
1
1
1
1
1
1
1
1
1
1
1
1
1
1
1
1
1
1
1
1
1
1
1
1
1
1
1
1
1
1
1
1
1
1
1
1
1
1
1
1
1
1
1
1
1
1
1
1
1
1
1
1
1
1
1
1
1
1
1
1
1
1
1
1
1
1
1
1
1
1
1
1
1
1
1
1
1
1
1
1
1
1
1
1
1
1
1
1
1
1
1
1
1
1
1
1
1
1
1
1
1
1
1
1
1
1
1
1
1
1
1
1
1
1
1
1
1
1
1
1
1
1
1
1
1
1
1
1
1
1
1
1
1
1
1
1
1
1
1
1
1
1
1
1
1
1
1
1
1
1
1
1
1
1
1
1
1
1
1
1
1
1
1
1
1
1
1
1
1
1
1
1
1
1
1
1
1
1
1
1
1
1
1
1
1
1
1
1
1
1
1
1
1
1
1
1
1
1
1
1
1
1
1
1
1
1
1
1
1
1
1
1
1
1
1
1
1
1
1
1
1
1
1
1
1
1
1
1
1
1
1
1
1
1
1
1
1
1
1
1
1
1
1
1
1
1
1
1
1
1
1
1
1
1
1
1
1
1
1
1
1
1
1
1
1
1
1
1
1
1
1
1
1
1
1
1
1
1
1
1
1
1
1
1
1
1
1
1
1
1
1
1
1
1
1
1
1
1
1
1
1
1
1
1
1
1
)
;

boundaryField
{
    Wall
    {
        type            zeroGradient;
    }
    frontAndBack
    {
        type            empty;
    }
    atmosphere
    {
        type            zeroGradient;
    }
}


// ************************************************************************* //
