/*--------------------------------*- C++ -*----------------------------------*\
| =========                 |                                                 |
| \\      /  F ield         | OpenFOAM: The Open Source CFD Toolbox           |
|  \\    /   O peration     | Version:  3.0.1                                 |
|   \\  /    A nd           | Web:      www.OpenFOAM.org                      |
|    \\/     M anipulation  |                                                 |
\*---------------------------------------------------------------------------*/
FoamFile
{
    version     2.0;
    format      ascii;
    class       volScalarField;
    location    "22";
    object      g1_BA;
}
// * * * * * * * * * * * * * * * * * * * * * * * * * * * * * * * * * * * * * //

dimensions      [0 0 0 0 0 0 0];

internalField   nonuniform List<scalar> 
800
(
0.29129239
0.29138533
0.2913993
0.29140108
0.29140167
0.29140226
0.29140289
0.29140342
0.29140379
0.29140397
0.29140398
0.29140379
0.29140342
0.29140289
0.29140227
0.29140167
0.29140109
0.29139931
0.29138534
0.29129239
0.24523483
0.24662876
0.24688088
0.24690473
0.24689529
0.24688968
0.2468906
0.24689466
0.24689877
0.24690118
0.24690118
0.24689877
0.24689466
0.2468906
0.24688969
0.24689529
0.24690475
0.24688089
0.24662876
0.24523482
0.19964985
0.2016937
0.20218899
0.20225543
0.20224896
0.20224149
0.20224261
0.20224841
0.20225453
0.20225822
0.20225822
0.20225453
0.20224841
0.20224261
0.20224149
0.20224897
0.20225544
0.20218901
0.20169372
0.19964985
0.1603403
0.1628044
0.16345569
0.16354045
0.1635321
0.16351937
0.16351772
0.16352217
0.16352798
0.16353165
0.16353165
0.16352798
0.16352217
0.16351773
0.16351938
0.16353211
0.16354047
0.16345572
0.16280443
0.16034032
0.12791738
0.13058921
0.13137134
0.13147758
0.13146706
0.1314482
0.13144244
0.13144386
0.13144806
0.13145089
0.1314509
0.13144806
0.13144387
0.13144246
0.13144822
0.13146709
0.13147761
0.13137138
0.13058926
0.12791743
0.10054947
0.1034059
0.1043431
0.10448502
0.10447946
0.10445858
0.10445063
0.10444957
0.10445234
0.10445428
0.10445429
0.10445234
0.10444958
0.10445064
0.10445861
0.10447949
0.10448507
0.10434316
0.10340596
0.10054952
0.075462749
0.078655566
0.079635387
0.079834017
0.079848457
0.079835564
0.079831306
0.07983132
0.079834583
0.079836452
0.079836456
0.079834588
0.079831331
0.079831326
0.079835597
0.0798485
0.079834073
0.079635449
0.078655632
0.075462814
0.049861848
0.053497157
0.054464866
0.054744908
0.054795877
0.054806289
0.054814992
0.054822043
0.054828944
0.05483216
0.054832162
0.054828949
0.054822054
0.054815013
0.054806322
0.05479592
0.054744963
0.054464925
0.05349722
0.04986191
0.02254192
0.026317103
0.027317758
0.027680633
0.027785422
0.027831925
0.027860966
0.027879668
0.027892511
0.027898198
0.027898199
0.027892513
0.027879673
0.02786098
0.027831948
0.027785454
0.027680675
0.027317802
0.02631715
0.022541962
0
4.8448994e-05
0.00096168545
0.0013184828
0.0014688889
0.001537335
0.0015770292
0.0016017173
0.0016167824
0.0016233933
0.0016233932
0.0016167823
0.0016017181
0.0015770346
0.0015373456
0.0014689043
0.0013185033
0.00096170581
4.8471098e-05
0
0
0
0
0
0
0
0
0
0
0
0
0
0
0
0
0
0
0
0
0
0
0
0
0
0
0
0
0
0
0
0
0
0
0
0
0
0
0
0
0
0
0
0
0
0
0
0
0
0
0
0
0
0
0
0
0
0
0
0
0
0
0
0
0
0
0
0
0
0
0
0
0
0
0
0
0
0
0
0
0
0
0
0
0
0
0
0
0
0
0
0
0
0
0
0
0
0
0
0
0
0
0
0
0
0
0
0
0
0
0
0
0
0
0
0
0
0
0
0
0
0
0
0
0
0
0
0
0
0
0
0
0
0
0
0
0
0
0
0
0
0
0
0
0
0
0
0
0
0
0
0
0
0
0
0
0
0
0
0
0
0
0
0
0
0
0
0
0
0
0
0
0
0
0
0
0
0
0
0
0
0
0
0
0
0
0
0
0
0
0
0
0
0
0
0
0
0
0
0
0
0
0
0
0
0
0
0
0
0
0
0
0
0
0
0
0
0
0
0
0
0
0
0
0
0
0
0
0
0
0
0
0
0
0
0
0
0
0
0
0
0
0
0
0
0
0
0
0
0
0
0
0
0
0
0
0
0
0
0
0
0
0
0
0
0
0
0
0
0
0
0
0
0
0
0
0
0
0
0
0
0
0
0
0
0
0
0
0
0
0
0
0
0
0
0
0
0
0
0
0
0
0
0
0
0
0
0
0
0
0
0
0
0
0
0
0
0
0
0
0
0
0
0
0
0
0
0
0
0
0
0
0
0
0
0
0
0
0
0
0
0
0
0
0
0
0
0
0
0
0
0
0
0
0
0
0
0
0
0
0
0
0
0
0
0
0
0
0
0
0
0
0
0
0
0
0
0
0
0
0
0
0
0
0
0
0
0
0
0
0
0
0
0
0
0
0
0
0
0
0
0
0
0
0
0
0
0
0
0
0
0
0
0
0
0
0
0
0
0
0
0
0
0
0
0
0
0
0
0
0
0
0
0
0
0
0
0
0
0
0
0
0
0
0
0
0
0
0
0
0
0
0
0
0
0
0
0
0
0
0
0
0
0
0
0
0
0
0
0
0
0
0
0
0
0
0
0
0
0
0
0
0
0
0
0
0
0
0
0
0
0
0
0
0
0
0
0
0
0
0
0
0
0
0
0
0
0
0
0
0
0
0
0
0
0
0
0
0
0
0
0
0
0
0
0
0
0
0
0
0
0
0
0
0
0
0
0
0
0
0
0
0
0
0
0
0
0
0
0
0
0
0
0
0
0
0
0
0
0
0
0
0
0
0
0
0
0
0
0
0
0
0
0
0
0
0
0
0
0
0
0
0
0
0
0
0
0
0
0
0
0
0
0
0
0
0
0
0
0
0
)
;

boundaryField
{
    Wall
    {
        type            zeroGradient;
    }
    frontAndBack
    {
        type            empty;
    }
    atmosphere
    {
        type            zeroGradient;
    }
}


// ************************************************************************* //
