/*--------------------------------*- C++ -*----------------------------------*\
| =========                 |                                                 |
| \\      /  F ield         | OpenFOAM: The Open Source CFD Toolbox           |
|  \\    /   O peration     | Version:  3.0.1                                 |
|   \\  /    A nd           | Web:      www.OpenFOAM.org                      |
|    \\/     M anipulation  |                                                 |
\*---------------------------------------------------------------------------*/
FoamFile
{
    version     2.0;
    format      ascii;
    class       volScalarField;
    location    "22";
    object      g1_CO2;
}
// * * * * * * * * * * * * * * * * * * * * * * * * * * * * * * * * * * * * * //

dimensions      [0 0 0 0 0 0 0];

internalField   nonuniform List<scalar> 
800
(
0.47822591
0.47825794
0.47826353
0.47826433
0.47826462
0.4782649
0.47826518
0.47826542
0.47826558
0.47826566
0.47826566
0.47826558
0.47826542
0.47826519
0.47826491
0.47826463
0.47826434
0.47826353
0.47825794
0.47822589
0.49845235
0.49842296
0.49847028
0.49846773
0.49845025
0.49843242
0.49841902
0.49841034
0.49840534
0.49840308
0.49840308
0.49840534
0.49841033
0.49841902
0.49843241
0.49845025
0.49846772
0.49847027
0.49842294
0.49845233
0.52696922
0.52659376
0.52654934
0.52654628
0.52652453
0.52650047
0.52648196
0.52646984
0.52646281
0.5264596
0.5264596
0.5264628
0.52646983
0.52648196
0.52650046
0.52652451
0.52654627
0.52654933
0.52659375
0.52696921
0.5719003
0.57063733
0.57044931
0.57044771
0.57042098
0.57039288
0.57037051
0.57035579
0.57034705
0.57034307
0.57034307
0.57034705
0.57035579
0.57037051
0.57039287
0.57042097
0.5704477
0.57044931
0.57063734
0.57190032
0.63803736
0.63520412
0.63485743
0.63473957
0.63469276
0.63465133
0.63461922
0.63459843
0.63458587
0.63458024
0.63458024
0.63458587
0.63459843
0.63461921
0.63465133
0.63469276
0.63473957
0.63485743
0.63520414
0.6380374
0.72523761
0.72058862
0.72003432
0.71983451
0.71973084
0.71965024
0.71959392
0.71955884
0.71953808
0.71952896
0.71952896
0.71953808
0.71955884
0.71959392
0.71965024
0.71973084
0.71983452
0.72003434
0.72058864
0.72523766
0.82697978
0.82198298
0.82057215
0.82028658
0.82006046
0.81990055
0.81979803
0.81973659
0.81970185
0.81968683
0.81968683
0.81970186
0.81973659
0.81979803
0.81990055
0.82006046
0.82028659
0.82057216
0.821983
0.82697982
0.92262023
0.92031467
0.91952599
0.91905385
0.91860768
0.91832867
0.9181618
0.91806705
0.91801642
0.9179949
0.9179949
0.91801642
0.91806705
0.91816179
0.91832866
0.91860767
0.91905385
0.91952599
0.92031467
0.92262024
0.93347626
0.95210399
0.9513409
0.95085931
0.95773224
0.95738558
0.95719592
0.95709953
0.95705441
0.95703655
0.95703655
0.95705439
0.95709949
0.95719588
0.95738553
0.95773219
0.95085926
0.95134084
0.95210392
0.93347618
0.65459777
0.68497609
0.68881535
0.6898747
0.69661601
0.72105606
0.7211441
0.72123377
0.72130002
0.7213344
0.72133439
0.72129998
0.72123369
0.72114401
0.72105595
0.69661588
0.68987457
0.68881519
0.68497591
0.65459755
0.42828822
0.45654548
0.46411634
0.46610172
0.46963538
0.47007059
0.47036225
0.47056958
0.4706989
0.47076137
0.47076135
0.47069884
0.47056949
0.47036213
0.47007044
0.46963522
0.46610154
0.46411614
0.45654526
0.42828796
0.21544954
0.24680165
0.25575375
0.25813376
0.26236395
0.2627862
0.26301716
0.26316502
0.26324945
0.26328792
0.2632879
0.2632494
0.26316494
0.26301706
0.26278608
0.26236382
0.25813362
0.25575361
0.24680151
0.21544939
0
0
0
0
0
0
0
0
0
0
0
0
0
0
0
0
0
0
0
0
0
0
0
0
0
0
0
0
0
0
0
0
0
0
0
0
0
0
0
0
0
0
0
0
0
0
0
0
0
0
0
0
0
0
0
0
0
0
0
0
0
0
0
0
0
0
0
0
0
0
0
0
0
0
0
0
0
0
0
0
0
0
0
0
0
0
0
0
0
0
0
0
0
0
0
0
0
0
0
0
0
0
0
0
0
0
0
0
0
0
0
0
0
0
0
0
0
0
0
0
0
0
0
0
0
0
0
0
0
0
0
0
0
0
0
0
0
0
0
0
0
0
0
0
0
0
0
0
0
0
0
0
0
0
0
0
0
0
0
0
0
0
0
0
0
0
0
0
0
0
0
0
0
0
0
0
0
0
0
0
0
0
0
0
0
0
0
0
0
0
0
0
0
0
0
0
0
0
0
0
0
0
0
0
0
0
0
0
0
0
0
0
0
0
0
0
0
0
0
0
0
0
0
0
0
0
0
0
0
0
0
0
0
0
0
0
0
0
0
0
0
0
0
0
0
0
0
0
0
0
0
0
0
0
0
0
0
0
0
0
0
0
0
0
0
0
0
0
0
0
0
0
0
0
0
0
0
0
0
0
0
0
0
0
0
0
0
0
0
0
0
0
0
0
0
0
0
0
0
0
0
0
0
0
0
0
0
0
0
0
0
0
0
0
0
0
0
0
0
0
0
0
0
0
0
0
0
0
0
0
0
0
0
0
0
0
0
0
0
0
0
0
0
0
0
0
0
0
0
0
0
0
0
0
0
0
0
0
0
0
0
0
0
0
0
0
0
0
0
0
0
0
0
0
0
0
0
0
0
0
0
0
0
0
0
0
0
0
0
0
0
0
0
0
0
0
0
0
0
0
0
0
0
0
0
0
0
0
0
0
0
0
0
0
0
0
0
0
0
0
0
0
0
0
0
0
0
0
0
0
0
0
0
0
0
0
0
0
0
0
0
0
0
0
0
0
0
0
0
0
0
0
0
0
0
0
0
0
0
0
0
0
0
0
0
0
0
0
0
0
0
0
0
0
0
0
0
0
0
0
0
0
0
0
0
0
0
0
0
0
0
0
0
0
0
0
0
0
0
0
0
0
0
0
0
0
0
0
0
0
0
0
0
0
0
0
0
0
0
0
0
0
0
0
0
0
0
0
0
0
0
0
0
0
0
0
0
0
0
0
0
0
0
0
0
0
0
0
0
0
0
0
0
0
0
0
0
0
0
0
)
;

boundaryField
{
    Wall
    {
        type            zeroGradient;
    }
    frontAndBack
    {
        type            empty;
    }
    atmosphere
    {
        type            zeroGradient;
    }
}


// ************************************************************************* //
