/*--------------------------------*- C++ -*----------------------------------*\
| =========                 |                                                 |
| \\      /  F ield         | OpenFOAM: The Open Source CFD Toolbox           |
|  \\    /   O peration     | Version:  3.0.1                                 |
|   \\  /    A nd           | Web:      www.OpenFOAM.org                      |
|    \\/     M anipulation  |                                                 |
\*---------------------------------------------------------------------------*/
FoamFile
{
    version     2.0;
    format      ascii;
    class       volScalarField;
    location    "22";
    object      M2;
}
// * * * * * * * * * * * * * * * * * * * * * * * * * * * * * * * * * * * * * //

dimensions      [0 0 0 0 0 0 0];

internalField   nonuniform List<scalar> 
800
(
7.4930987e-13
7.4935671e-13
7.4936002e-13
7.4935881e-13
7.4935763e-13
7.4935673e-13
7.4935613e-13
7.4935572e-13
7.4935546e-13
7.4935533e-13
7.4935534e-13
7.4935546e-13
7.4935572e-13
7.4935613e-13
7.4935674e-13
7.4935763e-13
7.4935882e-13
7.4936003e-13
7.4935671e-13
7.4930987e-13
7.1654705e-13
7.1775789e-13
7.1793807e-13
7.1795078e-13
7.1794128e-13
7.1793755e-13
7.1793976e-13
7.1794437e-13
7.1794859e-13
7.1795098e-13
7.1795098e-13
7.1794859e-13
7.1794436e-13
7.1793976e-13
7.1793755e-13
7.1794128e-13
7.1795079e-13
7.1793808e-13
7.177579e-13
7.1654705e-13
7.0211063e-13
7.0355341e-13
7.0398089e-13
7.0401592e-13
7.0401421e-13
7.0401706e-13
7.0402613e-13
7.0403674e-13
7.0404529e-13
7.0404994e-13
7.0404994e-13
7.0404529e-13
7.0403674e-13
7.0402614e-13
7.0401707e-13
7.0401422e-13
7.0401594e-13
7.0398091e-13
7.0355343e-13
7.0211063e-13
7.0258149e-13
7.0403382e-13
7.046411e-13
7.046843e-13
7.0468799e-13
7.0469676e-13
7.0471187e-13
7.0472752e-13
7.0473955e-13
7.0474598e-13
7.0474599e-13
7.0473956e-13
7.0472753e-13
7.0471188e-13
7.0469678e-13
7.0468801e-13
7.0468433e-13
7.0464113e-13
7.0403385e-13
7.0258151e-13
7.1264883e-13
7.1402869e-13
7.1476461e-13
7.1506074e-13
7.1506512e-13
7.1507632e-13
7.1509522e-13
7.1511446e-13
7.1512913e-13
7.1513696e-13
7.1513696e-13
7.1512913e-13
7.1511447e-13
7.1509523e-13
7.1507634e-13
7.1506514e-13
7.1506078e-13
7.1476464e-13
7.1402872e-13
7.1264884e-13
7.2489263e-13
7.2679533e-13
7.2762435e-13
7.2820084e-13
7.2819833e-13
7.2820709e-13
7.282274e-13
7.2824919e-13
7.2826613e-13
7.2827525e-13
7.2827526e-13
7.2826613e-13
7.2824919e-13
7.2822741e-13
7.2820711e-13
7.2819835e-13
7.2820087e-13
7.2762439e-13
7.2679536e-13
7.2489264e-13
7.3028866e-13
7.3392418e-13
7.3463192e-13
7.3538215e-13
7.3536607e-13
7.3537019e-13
7.3539199e-13
7.3541732e-13
7.3543761e-13
7.3544866e-13
7.3544866e-13
7.3543761e-13
7.3541732e-13
7.3539199e-13
7.353702e-13
7.3536608e-13
7.3538217e-13
7.3463194e-13
7.3392419e-13
7.3028866e-13
7.1818788e-13
7.2428298e-13
7.2559968e-13
7.2642509e-13
7.2639631e-13
7.2640409e-13
7.2643522e-13
7.2647044e-13
7.2649834e-13
7.2651347e-13
7.2651347e-13
7.2649833e-13
7.2647043e-13
7.2643521e-13
7.2640408e-13
7.263963e-13
7.2642508e-13
7.2559968e-13
7.2428296e-13
7.1818784e-13
6.7521527e-13
6.8556115e-13
6.8732562e-13
6.8822866e-13
6.8931279e-13
6.8935912e-13
6.8942391e-13
6.8948509e-13
6.8953031e-13
6.8955414e-13
6.8955414e-13
6.8953029e-13
6.8948506e-13
6.8942388e-13
6.8935908e-13
6.8931275e-13
6.8822863e-13
6.8732558e-13
6.8556109e-13
6.7521518e-13
6.0067193e-13
6.1285114e-13
6.1530498e-13
6.1636098e-13
6.1747869e-13
6.1781597e-13
6.1795223e-13
6.1806226e-13
6.181368e-13
6.1817474e-13
6.1817474e-13
6.1813677e-13
6.1806222e-13
6.1795217e-13
6.1781591e-13
6.1747862e-13
6.163609e-13
6.1530489e-13
6.1285104e-13
6.0067178e-13
5.0957428e-13
5.2312749e-13
5.2684163e-13
5.2805401e-13
5.288898e-13
5.2917891e-13
5.2939719e-13
5.2955809e-13
5.2966137e-13
5.297128e-13
5.2971279e-13
5.2966133e-13
5.2955803e-13
5.2939711e-13
5.2917882e-13
5.2888969e-13
5.280539e-13
5.2684151e-13
5.2312735e-13
5.0957408e-13
3.9092413e-13
4.0909217e-13
4.1335096e-13
4.1464258e-13
4.1698078e-13
4.173713e-13
4.1765131e-13
4.1784699e-13
4.1796736e-13
4.1802628e-13
4.1802627e-13
4.1796732e-13
4.1784693e-13
4.1765122e-13
4.173712e-13
4.1698066e-13
4.1464244e-13
4.1335082e-13
4.0909201e-13
3.9092392e-13
2.754506e-13
2.8992058e-13
2.9462275e-13
2.9600643e-13
2.9751845e-13
2.9793915e-13
2.9823571e-13
2.9843095e-13
2.9854589e-13
2.9860037e-13
2.9860036e-13
2.9854586e-13
2.984309e-13
2.9823564e-13
2.9793906e-13
2.9751835e-13
2.9600632e-13
2.9462263e-13
2.8992045e-13
2.7545043e-13
1.7188095e-13
1.8985859e-13
1.9598137e-13
1.9759981e-13
1.9830461e-13
1.9849569e-13
1.9861909e-13
1.9869748e-13
1.9874064e-13
1.9875829e-13
1.9875828e-13
1.9874062e-13
1.9869744e-13
1.9861903e-13
1.9849562e-13
1.9830453e-13
1.9759971e-13
1.9598127e-13
1.8985849e-13
1.7188085e-13
8.2314362e-14
1.115676e-13
1.2098449e-13
1.2339579e-13
1.236147e-13
1.2326613e-13
1.2290892e-13
1.22646e-13
1.2247734e-13
1.2239095e-13
1.2239094e-13
1.2247732e-13
1.2264597e-13
1.2290887e-13
1.2326607e-13
1.2361463e-13
1.2339572e-13
1.2098441e-13
1.1156753e-13
8.2314325e-14
2.6866854e-14
5.6906705e-14
6.8551658e-14
7.2149887e-14
7.2555049e-14
7.1959428e-14
7.123319e-14
7.0648783e-14
7.0260213e-14
7.0062647e-14
7.0062638e-14
7.0260192e-14
7.0648751e-14
7.1233149e-14
7.1959381e-14
7.2554998e-14
7.2149835e-14
6.8551609e-14
5.6906667e-14
2.686685e-14
6.0999134e-15
2.5097181e-14
3.54633e-14
3.9439082e-14
4.0240293e-14
3.9810316e-14
3.9085107e-14
3.8439132e-14
3.7988609e-14
3.7755495e-14
3.7755487e-14
3.798859e-14
3.8439104e-14
3.9085077e-14
3.9810283e-14
4.024026e-14
3.9439052e-14
3.5463274e-14
2.5097163e-14
6.0999146e-15
1.0662613e-15
9.7252147e-15
1.6838756e-14
2.0206949e-14
2.1167652e-14
2.1013458e-14
2.0503295e-14
1.9993914e-14
1.9620992e-14
1.9424092e-14
1.9424086e-14
1.9620976e-14
1.9993892e-14
2.0503273e-14
2.1013436e-14
2.1167633e-14
2.0206933e-14
1.6838744e-14
9.7252087e-15
1.0662617e-15
1.5692062e-16
3.3868605e-15
7.4175201e-15
9.7623929e-15
1.0609785e-14
1.0639815e-14
1.0356626e-14
1.0031317e-14
9.7808253e-15
9.6458279e-15
9.6458233e-15
9.7808142e-15
1.0031302e-14
1.0356611e-14
1.0639801e-14
1.0609775e-14
9.7623854e-15
7.4175154e-15
3.3868589e-15
1.569207e-16
2.0607685e-17
1.0832025e-15
3.0659666e-15
4.4785928e-15
5.0917551e-15
5.1897063e-15
5.060738e-15
4.8814458e-15
4.7355176e-15
4.6551844e-15
4.6551813e-15
4.7355104e-15
4.8814357e-15
5.0607286e-15
5.1896984e-15
5.0917496e-15
4.4785899e-15
3.0659652e-15
1.0832023e-15
2.0607697e-17
2.5030107e-18
3.2373805e-16
1.200802e-15
1.9635417e-15
2.3498555e-15
2.4463297e-15
2.3990512e-15
2.3107452e-15
2.234127e-15
2.1909764e-15
2.1909745e-15
2.2341226e-15
2.3107392e-15
2.3990457e-15
2.4463254e-15
2.3498529e-15
1.9635407e-15
1.2008017e-15
3.2373813e-16
2.5030125e-18
2.873994e-19
9.1574264e-17
4.4899982e-16
8.2696707e-16
1.0465159e-15
1.1170286e-15
1.1051268e-15
1.065523e-15
1.0284183e-15
1.0069889e-15
1.0069878e-15
1.0284158e-15
1.0655195e-15
1.1051237e-15
1.1170264e-15
1.0465148e-15
8.2696693e-16
4.4899989e-16
9.1574338e-17
2.8739971e-19
3.1615396e-20
2.4735351e-17
1.6117971e-16
3.3587117e-16
4.5095762e-16
4.9489935e-16
4.9516154e-16
4.7885802e-16
4.6204555e-16
4.5205626e-16
4.5205568e-16
4.6204421e-16
4.7885617e-16
4.951599e-16
4.9489826e-16
4.5095718e-16
3.3587126e-16
1.6117982e-16
2.473539e-17
3.161545e-20
3.3593084e-21
6.4196259e-18
5.5773885e-17
1.3192988e-16
1.8839775e-16
2.1301177e-16
2.1592461e-16
2.0977223e-16
2.0258099e-16
1.98167e-16
1.981667e-16
2.0258031e-16
2.0977129e-16
2.1592379e-16
2.1301126e-16
1.8839759e-16
1.3192998e-16
5.5773962e-17
6.4196423e-18
3.3593178e-21
3.4652023e-22
1.6077451e-18
1.8660048e-17
5.0227001e-17
7.6423543e-17
8.9152948e-17
9.1678987e-17
8.9579208e-17
8.6659757e-17
8.4798684e-17
8.479854e-17
8.6659424e-17
8.957875e-17
9.1678595e-17
8.9152717e-17
7.6423491e-17
5.022707e-17
1.8660089e-17
1.607751e-18
3.4652176e-22
3.4809785e-23
3.8972848e-19
6.0498199e-18
1.8564429e-17
3.0138231e-17
3.631264e-17
3.7916371e-17
3.7292533e-17
3.6164241e-17
3.5412114e-17
3.5412047e-17
3.6164086e-17
3.7292321e-17
3.7916191e-17
3.6312538e-17
3.0138215e-17
1.8564467e-17
6.0498386e-18
3.897304e-19
3.4810007e-23
3.4122025e-24
9.1643532e-20
1.9040952e-18
6.6705625e-18
1.1566179e-17
1.4403908e-17
1.5281275e-17
1.5138083e-17
1.4722556e-17
1.4430294e-17
1.4430264e-17
1.4722487e-17
1.5137988e-17
1.5281195e-17
1.4403865e-17
1.1566175e-17
6.6705808e-18
1.9041031e-18
9.1644106e-20
3.412232e-24
3.2680667e-25
2.0938856e-20
5.8260089e-19
2.3327734e-18
4.3234656e-18
5.5679753e-18
6.004452e-18
5.9934827e-18
5.8478032e-18
5.7383752e-18
5.7383624e-18
5.8477731e-18
5.9934409e-18
6.0044175e-18
5.5679577e-18
4.3234645e-18
2.3327815e-18
5.8260399e-19
2.0939015e-20
3.2681032e-25
3.0608811e-26
4.6545189e-21
1.7350332e-19
7.9476982e-19
1.5754229e-18
2.098915e-18
2.3013986e-18
2.3153313e-18
2.2668816e-18
2.2273516e-18
2.2273462e-18
2.2668689e-18
2.3153135e-18
2.3013842e-18
2.0989079e-18
1.5754227e-18
7.9477314e-19
1.7350446e-19
4.6545611e-21
3.0609232e-26
2.8053289e-27
1.0076841e-21
5.0343868e-20
2.6403087e-19
5.6003428e-19
7.7206637e-19
8.6090233e-19
8.7311442e-19
8.5794193e-19
8.4415625e-19
8.441541e-19
8.5793674e-19
8.731071e-19
8.6089644e-19
7.7206358e-19
5.6003421e-19
2.6403215e-19
5.0344258e-20
1.0076947e-21
2.8053738e-27
3.5599697e-28
2.1266329e-22
1.4245819e-20
8.5598756e-20
1.9435527e-19
2.773031e-19
3.1449135e-19
3.215697e-19
3.1716083e-19
3.1252023e-19
3.1251938e-19
3.1715876e-19
3.2156676e-19
3.14489e-19
2.77302e-19
1.9435522e-19
8.5599223e-20
1.4245946e-20
2.1266581e-22
3.5391589e-28
1.7984818e-28
4.3786257e-23
3.9345652e-21
2.7102654e-20
6.589324e-20
9.7312612e-20
1.1225647e-19
1.1573425e-19
1.1458188e-19
1.1307543e-19
1.130751e-19
1.1458107e-19
1.1573311e-19
1.1225555e-19
9.7312187e-20
6.5893209e-20
2.7102815e-20
3.9346043e-21
4.3786834e-23
1.7783213e-28
5.7162617e-29
8.8057178e-24
1.0614914e-21
8.3869245e-21
2.1839154e-20
3.3386224e-20
3.9175898e-20
4.0726481e-20
4.0476493e-20
4.0005848e-20
4.0005721e-20
4.0476188e-20
4.0726044e-20
3.9175549e-20
3.3386061e-20
2.1839135e-20
8.3869769e-21
1.061503e-21
8.8058099e-24
5.6647479e-29
1.2913389e-29
1.7311671e-24
2.7995266e-22
2.538284e-21
7.0804188e-21
1.1205037e-20
1.3374809e-20
1.402067e-20
1.3988889e-20
1.3847878e-20
1.3847831e-20
1.3988776e-20
1.4020507e-20
1.3374678e-20
1.1204975e-20
7.0804091e-21
2.5383003e-21
2.7995578e-22
1.7311746e-24
1.2829248e-29
2.365597e-30
3.328394e-25
7.222961e-23
7.5182395e-22
2.2468728e-21
3.680993e-21
4.4696142e-21
4.7248261e-21
4.732622e-21
4.6923478e-21
4.6923307e-21
4.7325808e-21
4.7247664e-21
4.4695663e-21
3.6809696e-21
2.2468684e-21
7.5182859e-22
7.2230402e-23
3.3283722e-25
2.3492957e-30
3.6496445e-31
6.2602535e-26
1.8243123e-23
2.1807734e-22
6.9832117e-22
1.184332e-21
1.4628986e-21
1.5594562e-21
1.5682013e-21
1.5573505e-21
1.5573445e-21
1.5681866e-21
1.559435e-21
1.4628813e-21
1.1843234e-21
6.9831916e-22
2.1807857e-22
1.8243314e-23
6.260143e-26
3.6197398e-31
4.5229316e-32
1.1520379e-26
4.5135675e-24
6.1985604e-23
2.1268719e-22
3.7340737e-22
4.6920402e-22
5.0439505e-22
5.0923954e-22
5.0653563e-22
5.0653353e-22
5.0923444e-22
5.0438765e-22
4.691979e-22
3.7340422e-22
2.1268634e-22
6.19859e-23
4.5136088e-24
1.1519931e-26
4.4857949e-32
3.5264496e-33
2.0740823e-27
1.094596e-24
1.7274919e-23
6.3515507e-23
1.1543297e-22
1.4755267e-22
1.5996027e-22
1.6214205e-22
1.61545e-22
1.6154429e-22
1.6214031e-22
1.5995774e-22
1.4755054e-22
1.1543183e-22
6.3515165e-23
1.727498e-23
1.0946044e-24
2.0739683e-27
3.4996397e-33
2.6810297e-34
3.6599294e-28
2.6037227e-25
4.7232242e-24
1.860822e-23
3.5006007e-23
4.5519445e-23
4.9764885e-23
5.0646323e-23
5.0543134e-23
5.0542897e-23
5.0645743e-23
4.9764038e-23
4.551872e-23
3.5005606e-23
1.8608091e-23
4.7232353e-24
2.6037416e-25
3.6597176e-28
2.6583641e-34
2.0094357e-35
6.3343055e-29
6.0788469e-26
1.2676617e-24
5.3510978e-24
1.0419361e-23
1.3782556e-23
1.5195711e-23
1.5527308e-23
1.5521471e-23
1.5521394e-23
1.5527118e-23
1.5195433e-23
1.3782313e-23
1.0419222e-23
5.3510509e-24
1.2676628e-24
6.0788867e-26
6.333909e-29
1.9908012e-35
)
;

boundaryField
{
    Wall
    {
        type            zeroGradient;
    }
    frontAndBack
    {
        type            empty;
    }
    atmosphere
    {
        type            zeroGradient;
    }
}


// ************************************************************************* //
