/*--------------------------------*- C++ -*----------------------------------*\
| =========                 |                                                 |
| \\      /  F ield         | OpenFOAM: The Open Source CFD Toolbox           |
|  \\    /   O peration     | Version:  3.0.1                                 |
|   \\  /    A nd           | Web:      www.OpenFOAM.org                      |
|    \\/     M anipulation  |                                                 |
\*---------------------------------------------------------------------------*/
FoamFile
{
    version     2.0;
    format      ascii;
    class       volScalarField;
    location    "22";
    object      mOne;
}
// * * * * * * * * * * * * * * * * * * * * * * * * * * * * * * * * * * * * * //

dimensions      [0 0 0 0 0 0 0];

internalField   nonuniform List<scalar> 
800
(
8.3958053
8.3962804
8.3963141
8.3963018
8.3962899
8.3962808
8.3962747
8.3962706
8.396268
8.3962667
8.3962668
8.3962681
8.3962706
8.3962748
8.3962809
8.3962899
8.3963019
8.3963142
8.3962804
8.3958053
8.053415
8.0664251
8.068339
8.0684889
8.0684049
8.0683785
8.068411
8.0684657
8.0685138
8.0685408
8.0685408
8.0685138
8.0684656
8.068411
8.0683785
8.068405
8.068489
8.0683391
8.0664252
8.053415
7.7448397
7.7624591
7.7676851
7.7681714
7.7681441
7.7681537
7.7682381
7.7683473
7.7684387
7.7684894
7.7684894
7.7684387
7.7683473
7.7682381
7.7681537
7.7681441
7.7681715
7.7676852
7.7624592
7.7448396
7.4728537
7.4945481
7.5022008
7.5027644
7.5027288
7.5027366
7.5028467
7.5029901
7.5031102
7.5031771
7.5031771
7.5031101
7.5029901
7.5028467
7.5027367
7.5027289
7.5027645
7.502201
7.4945483
7.4728537
7.2046604
7.2312081
7.2405461
7.2434509
7.2433415
7.2433071
7.2434183
7.2435802
7.2437191
7.2437975
7.2437975
7.243719
7.2435802
7.2434182
7.2433071
7.2433416
7.2434511
7.2405463
7.2312083
7.2046604
6.8841582
6.9225843
6.9332102
6.9384392
6.9382158
6.9381287
6.9382402
6.93842
6.9385795
6.9386704
6.9386704
6.9385794
6.9384199
6.9382402
6.9381288
6.9382159
6.9384394
6.9332104
6.9225845
6.8841581
6.4449978
6.5064709
6.5169427
6.5234223
6.523151
6.5230792
6.523243
6.5234755
6.523678
6.5237915
6.5237915
6.5236779
6.5234754
6.5232429
6.5230792
6.523151
6.5234224
6.5169428
6.506471
6.4449976
5.8200094
5.9085358
5.9256304
5.9326585
5.9325497
5.9327032
5.9330578
5.9334332
5.9337296
5.9338882
5.9338882
5.9337295
5.933433
5.9330575
5.932703
5.9325495
5.9326585
5.9256303
5.9085357
5.820009
4.9516682
5.0737927
5.0965868
5.1044345
5.112511
5.113285
5.1140589
5.1147103
5.1151718
5.1154065
5.1154065
5.1151716
5.11471
5.1140585
5.1132846
5.1125106
5.1044341
5.0965864
5.0737923
4.9516674
3.9139871
4.0430086
4.0728892
4.0821167
4.0900075
4.0928676
4.0942134
4.0952149
4.0958622
4.0961798
4.0961797
4.095862
4.0952145
4.0942129
4.0928671
4.0900069
4.0821161
4.0728886
4.0430079
3.913986
2.8824662
3.0071937
3.0455443
3.0559495
3.0618909
3.0643776
3.066047
3.0671954
3.0678977
3.0682338
3.0682337
3.0678974
3.067195
3.0660465
3.0643769
3.0618903
3.0559487
3.0455435
3.0071929
2.8824651
1.8951133
2.0218151
2.0608423
2.0719712
2.0843173
2.0867159
2.0881561
2.0890869
2.0896239
2.0898721
2.089872
2.0896236
2.0890865
2.0881556
2.0867154
2.0843167
2.0719705
2.0608416
2.0218144
1.8951124
1.1375426
1.2378061
1.2793545
1.2921225
1.2990177
1.3004862
1.3011164
1.3014265
1.3015652
1.3016105
1.3016104
1.301565
1.3014262
1.3011161
1.3004859
1.2990173
1.2921221
1.2793541
1.2378058
1.1375421
0.60214644
0.71074502
0.75867156
0.77445604
0.77855273
0.77826581
0.77730268
0.77647396
0.77591455
0.77561419
0.77561413
0.77591443
0.77647377
0.77730246
0.77826559
0.7785525
0.77445578
0.75867132
0.71074481
0.60214629
0.25158983
0.38089646
0.4356491
0.45449592
0.45775803
0.45565899
0.45273453
0.45039117
0.44886248
0.44808501
0.44808496
0.44886237
0.45039101
0.45273436
0.45565882
0.45775786
0.45449575
0.43564894
0.38089635
0.25158984
0.078191502
0.18750032
0.2407243
0.26137199
0.26559013
0.26333258
0.25963216
0.25645296
0.25430396
0.25320553
0.25320549
0.25430386
0.25645281
0.25963201
0.26333245
0.26559001
0.26137188
0.2407242
0.18750027
0.078191529
0.018375007
0.084456014
0.12683723
0.14600008
0.15114648
0.14988405
0.14671459
0.14371549
0.14159228
0.14048707
0.14048702
0.14159218
0.14371537
0.14671448
0.14988395
0.1511464
0.14600002
0.12683719
0.08445599
0.018375019
0.0034456241
0.034795278
0.06343702
0.078688081
0.083804771
0.08359475
0.081458059
0.079186856
0.077498919
0.07660201
0.076601976
0.077498842
0.079186751
0.081457971
0.083594679
0.083804723
0.078688052
0.063436999
0.034795272
0.003445627
0.00054782036
0.013156718
0.030076234
0.040770913
0.045056907
0.045472737
0.044271964
0.042793217
0.04163672
0.041009251
0.041009225
0.041636662
0.042793138
0.044271899
0.045472688
0.045056877
0.0407709
0.030076227
0.013156717
0.00054782087
7.761635e-05
0.0046021138
0.013529753
0.020281897
0.023427079
0.024046032
0.023478046
0.022620066
0.021910574
0.021517345
0.021517326
0.021910534
0.022620011
0.023477999
0.024045999
0.023427061
0.020281893
0.013529752
0.0046021148
7.7616433e-05
1.0142611e-05
0.0015042457
0.0057893438
0.0096893158
0.01176698
0.012336947
0.012120509
0.011668207
0.011269514
0.01104352
0.011043508
0.011269488
0.01166817
0.012120478
0.012336927
0.011766971
0.0096893156
0.0057893447
0.0015042467
1.0142624e-05
1.2494615e-06
0.00046387745
0.002364199
0.004450594
0.0057092705
0.0061353972
0.0060822417
0.005863467
0.0056553047
0.0055343827
0.0055343752
0.0056552884
0.0058634441
0.0060822228
0.0061353849
0.0057092653
0.0044505951
0.0023642002
0.00046387801
1.2494637e-06
1.4706906e-07
0.00013603746
0.00092463699
0.0019687807
0.0026774229
0.0029570514
0.0029645002
0.0028671415
0.0027652214
0.002704366
0.0027043617
0.0027652118
0.0028671281
0.002964489
0.0029570445
0.0026774203
0.0019687819
0.00092463788
0.00013603772
1.4706944e-07
1.6677346e-08
3.817146e-05
0.00034746652
0.00084025926
0.001214722
0.001381568
0.0014030545
0.0013633737
0.0013162916
0.0012872793
0.0012872769
0.0013162863
0.0013633662
0.0014030482
0.0013815643
0.0012147207
0.00084026012
0.00034746707
3.8171568e-05
1.6677409e-08
1.831253e-09
1.0295084e-05
0.00012582373
0.00034660917
0.00053374685
0.00062607743
0.00064489503
0.00063031755
0.00060971779
0.00059654767
0.00059654641
0.00060971497
0.00063031355
0.00064489173
0.00062607551
0.00053374625
0.00034660968
0.00012582402
1.0295124e-05
1.8312631e-09
1.9532914e-10
2.6780379e-06
4.4014323e-05
0.00013842248
0.00022740081
0.00027538996
0.00028798299
0.00028335422
0.00027480039
0.0002690863
0.00026908566
0.00027479897
0.0002833522
0.00028798132
0.000275389
0.00022740053
0.00013842275
4.401446e-05
2.6780512e-06
1.9533062e-10
2.027989e-11
6.7364455e-07
1.4904658e-05
5.3602343e-05
9.4046965e-05
0.00011767821
0.00012501355
0.00012390128
0.00012052953
0.0001181537
0.00011815339
0.00012052884
0.00012390029
0.00012501274
0.00011767776
9.4046836e-05
5.3602471e-05
1.4904718e-05
6.7364866e-07
2.0280093e-11
2.0522308e-12
1.6419626e-07
4.8947651e-06
2.0155042e-05
3.7798607e-05
4.8893876e-05
5.2790729e-05
5.2725412e-05
5.1466127e-05
5.0517793e-05
5.0517653e-05
5.1465804e-05
5.2724949e-05
5.2790344e-05
4.8893664e-05
3.7798547e-05
2.0155099e-05
4.8947897e-06
1.6419746e-07
2.0522566e-12
2.0260561e-13
3.8845892e-08
1.561381e-06
7.3682706e-06
1.477901e-05
1.977016e-05
2.170172e-05
2.1849032e-05
2.1405624e-05
2.1041882e-05
2.104182e-05
2.1405478e-05
2.1848821e-05
2.1701544e-05
1.9770064e-05
1.4778983e-05
7.3682938e-06
1.5613904e-06
3.8846223e-08
2.0260869e-13
1.9528858e-14
8.933096e-09
4.8446526e-07
2.622059e-06
5.6271681e-06
7.7865551e-06
8.6917084e-06
8.8228915e-06
8.6771987e-06
8.5431251e-06
8.5430982e-06
8.6771341e-06
8.8227982e-06
8.6916306e-06
7.7865128e-06
5.6271556e-06
2.6220679e-06
4.8446864e-07
8.9331827e-09
1.9529196e-14
2.8688849e-15
1.9993595e-09
1.4640142e-07
9.0926007e-07
2.0884389e-06
2.989729e-06
3.3941549e-06
3.4743129e-06
3.4305737e-06
3.383127e-06
3.3831157e-06
3.430546e-06
3.4742729e-06
3.3941214e-06
2.9897107e-06
2.0884331e-06
9.0926325e-07
1.4640257e-07
1.999381e-09
2.8484158e-15
1.82263e-15
4.3605e-10
4.3138458e-08
3.0756881e-07
7.5618847e-07
1.1200251e-06
1.2933319e-06
1.3351274e-06
1.3237026e-06
1.3076182e-06
1.3076135e-06
1.3236911e-06
1.3351108e-06
1.2933178e-06
1.1200173e-06
7.5618587e-07
3.0756986e-07
4.3138825e-08
4.3605515e-10
1.8016458e-15
6.2928607e-16
9.2818954e-11
1.2407723e-08
1.0158155e-07
2.6735073e-07
4.0970926e-07
4.8124583e-07
5.0105493e-07
4.9883024e-07
4.9362883e-07
4.9362694e-07
4.9882556e-07
5.0104818e-07
4.8124004e-07
4.09706e-07
2.6734958e-07
1.0158187e-07
1.2407836e-08
9.2819696e-11
6.2364763e-16
1.5133057e-16
1.930796e-11
3.487256e-09
3.278594e-08
9.2367869e-08
1.4645424e-07
1.7499147e-07
1.8376436e-07
1.8371756e-07
1.821249e-07
1.8212415e-07
1.837157e-07
1.8376168e-07
1.7498915e-07
1.4645291e-07
9.2367382e-08
3.2786027e-08
3.4872867e-09
1.930796e-11
1.5036224e-16
2.93782e-17
3.9278274e-12
9.5864552e-10
1.034955e-08
3.1208488e-08
5.1193551e-08
6.2224229e-08
6.5908779e-08
6.6171558e-08
6.5716023e-08
6.5715738e-08
6.6170839e-08
6.5907745e-08
6.2223322e-08
5.1193014e-08
3.1208288e-08
1.0349567e-08
9.5865317e-10
3.9277734e-12
2.9178508e-17
4.796066e-18
7.8190473e-13
2.5798486e-10
3.1978056e-09
1.0319111e-08
1.7510856e-08
2.1651069e-08
2.3131846e-08
2.3323285e-08
2.3204846e-08
2.3204738e-08
2.3323012e-08
2.3131456e-08
2.1650721e-08
1.7510645e-08
1.031903e-08
3.1978068e-09
2.5798661e-10
7.8188251e-13
4.7569977e-18
6.2762914e-19
1.523705e-13
6.8022163e-11
9.6780982e-10
3.3413051e-09
5.8648035e-09
7.3764086e-09
7.949259e-09
8.0494586e-09
8.0232506e-09
8.0232116e-09
8.0493578e-09
7.9491152e-09
7.3762782e-09
5.8647224e-09
3.3412733e-09
9.6780852e-10
6.8022471e-11
1.5236194e-13
6.2245676e-19
5.1575589e-20
2.9069938e-14
1.7585826e-11
2.8709482e-10
1.0601366e-09
1.9244754e-09
2.4621206e-09
2.6763416e-09
2.721752e-09
2.7178833e-09
2.7178693e-09
2.7217155e-09
2.6762897e-09
2.4620727e-09
1.9244449e-09
1.0601245e-09
2.8709384e-10
1.7585864e-11
2.9067693e-14
5.1180221e-20
4.1391538e-21
5.443039e-15
4.4614081e-12
8.3527683e-11
3.2978401e-10
6.1905127e-10
8.0558261e-10
8.8326152e-10
9.0212559e-10
9.0250583e-10
9.0250091e-10
9.0211268e-10
8.8324317e-10
8.0556535e-10
6.1903999e-10
3.2977954e-10
8.3527226e-11
4.4614122e-12
5.4425906e-15
4.1037791e-21
3.2772648e-22
1.0012086e-15
1.1114407e-12
2.3848414e-11
1.0063614e-10
1.9530968e-10
2.585057e-10
2.8588396e-10
2.9325089e-10
2.9391633e-10
2.9391465e-10
2.9324641e-10
2.858776e-10
2.5849962e-10
1.9530562e-10
1.0063452e-10
2.3848227e-11
1.1114398e-12
1.0011189e-15
3.2468752e-22
)
;

boundaryField
{
    Wall
    {
        type            zeroGradient;
    }
    frontAndBack
    {
        type            empty;
    }
    atmosphere
    {
        type            zeroGradient;
    }
}


// ************************************************************************* //
