/*--------------------------------*- C++ -*----------------------------------*\
| =========                 |                                                 |
| \\      /  F ield         | OpenFOAM: The Open Source CFD Toolbox           |
|  \\    /   O peration     | Version:  3.0.1                                 |
|   \\  /    A nd           | Web:      www.OpenFOAM.org                      |
|    \\/     M anipulation  |                                                 |
\*---------------------------------------------------------------------------*/
FoamFile
{
    version     2.0;
    format      ascii;
    class       volScalarField;
    location    "22";
    object      mThree;
}
// * * * * * * * * * * * * * * * * * * * * * * * * * * * * * * * * * * * * * //

dimensions      [0 0 0 0 0 0 0];

internalField   nonuniform List<scalar> 
800
(
5.7116589e-24
5.7126981e-24
5.7127812e-24
5.7127614e-24
5.7127408e-24
5.7127254e-24
5.7127154e-24
5.7127088e-24
5.7127047e-24
5.7127025e-24
5.7127026e-24
5.7127047e-24
5.7127088e-24
5.7127155e-24
5.7127256e-24
5.7127408e-24
5.7127615e-24
5.7127813e-24
5.7126981e-24
5.711659e-24
5.0593055e-24
5.082956e-24
5.0864973e-24
5.0867528e-24
5.0865727e-24
5.086504e-24
5.0865501e-24
5.086642e-24
5.0867255e-24
5.0867727e-24
5.0867728e-24
5.0867255e-24
5.0866419e-24
5.0865501e-24
5.0865041e-24
5.0865727e-24
5.086753e-24
5.0864975e-24
5.0829562e-24
5.0593055e-24
4.7243586e-24
4.7520801e-24
4.7604682e-24
4.7611696e-24
4.761127e-24
4.7611662e-24
4.7613271e-24
4.7615218e-24
4.7616805e-24
4.7617674e-24
4.7617674e-24
4.7616805e-24
4.7615217e-24
4.7613272e-24
4.7611663e-24
4.7611271e-24
4.7611699e-24
4.7604686e-24
4.7520804e-24
4.7243587e-24
4.6193473e-24
4.6485341e-24
4.6603943e-24
4.661242e-24
4.661266e-24
4.661381e-24
4.6616307e-24
4.6619048e-24
4.6621204e-24
4.6622371e-24
4.6622372e-24
4.6621204e-24
4.6619048e-24
4.6616309e-24
4.6613812e-24
4.6612663e-24
4.6612425e-24
4.6603948e-24
4.6485346e-24
4.6193475e-24
4.6396858e-24
4.6704349e-24
4.6848638e-24
4.6902966e-24
4.6902897e-24
4.6904119e-24
4.6907097e-24
4.691039e-24
4.6912981e-24
4.6914387e-24
4.6914388e-24
4.6912982e-24
4.6910391e-24
4.6907099e-24
4.6904122e-24
4.69029e-24
4.6902972e-24
4.6848644e-24
4.6704354e-24
4.6396859e-24
4.6513242e-24
4.6954825e-24
4.7117986e-24
4.7221885e-24
4.7220258e-24
4.7220824e-24
4.7223952e-24
4.7227654e-24
4.7230645e-24
4.7232285e-24
4.7232285e-24
4.7230646e-24
4.7227655e-24
4.7223953e-24
4.7220826e-24
4.7220261e-24
4.722189e-24
4.7117991e-24
4.695483e-24
4.6513243e-24
4.4994209e-24
4.5771658e-24
4.5915236e-24
4.6045543e-24
4.604185e-24
4.6041816e-24
4.6045305e-24
4.6049646e-24
4.6053226e-24
4.6055198e-24
4.6055198e-24
4.6053226e-24
4.6049645e-24
4.6045305e-24
4.6041817e-24
4.6041851e-24
4.6045546e-24
4.5915239e-24
4.577166e-24
4.4994206e-24
4.0363565e-24
4.1513839e-24
4.1752632e-24
4.1885396e-24
4.1881285e-24
4.1882726e-24
4.1888011e-24
4.1893942e-24
4.1898659e-24
4.1901213e-24
4.1901212e-24
4.1898657e-24
4.1893939e-24
4.1888008e-24
4.1882724e-24
4.1881283e-24
4.1885395e-24
4.1752631e-24
4.1513837e-24
4.0363558e-24
3.1761759e-24
3.3311414e-24
3.358695e-24
3.371204e-24
3.3858004e-24
3.386579e-24
3.3875555e-24
3.3884484e-24
3.3891021e-24
3.3894433e-24
3.3894432e-24
3.3891018e-24
3.3884479e-24
3.387555e-24
3.3865785e-24
3.3857998e-24
3.3712034e-24
3.3586945e-24
3.3311406e-24
3.1761747e-24
2.1462639e-24
2.2805189e-24
2.3092334e-24
2.3205581e-24
2.3319988e-24
2.3356259e-24
2.3371266e-24
2.3383125e-24
2.3391066e-24
2.3395069e-24
2.3395068e-24
2.3391063e-24
2.338312e-24
2.337126e-24
2.3356252e-24
2.331998e-24
2.3205573e-24
2.3092325e-24
2.2805179e-24
2.1462625e-24
1.2974046e-24
1.3979053e-24
1.4270178e-24
1.4363411e-24
1.4423102e-24
1.4444084e-24
1.4459996e-24
1.4471539e-24
1.4478873e-24
1.448249e-24
1.448249e-24
1.4478871e-24
1.4471535e-24
1.445999e-24
1.4444077e-24
1.4423094e-24
1.4363403e-24
1.4270169e-24
1.3979043e-24
1.2974034e-24
6.3407593e-25
7.1254831e-25
7.3311634e-25
7.3945675e-25
7.4948317e-25
7.5117712e-25
7.523458e-25
7.5315206e-25
7.5364327e-25
7.5388128e-25
7.5388123e-25
7.5364311e-25
7.5315179e-25
7.5234545e-25
7.5117669e-25
7.4948268e-25
7.3945621e-25
7.3311578e-25
7.125477e-25
6.340752e-25
2.7465374e-25
3.0858156e-25
3.2098747e-25
3.2484043e-25
3.2855364e-25
3.2951478e-25
3.3015528e-25
3.3056716e-25
3.3080635e-25
3.3091816e-25
3.3091813e-25
3.3080628e-25
3.3056704e-25
3.3015512e-25
3.2951458e-25
3.2855341e-25
3.2484017e-25
3.209872e-25
3.0858128e-25
2.7465341e-25
1.0753023e-25
1.2814897e-25
1.3606807e-25
1.3834518e-25
1.3930707e-25
1.3958936e-25
1.397547e-25
1.3985376e-25
1.3990667e-25
1.3992758e-25
1.3992756e-25
1.3990664e-25
1.398537e-25
1.3975463e-25
1.3958926e-25
1.3930697e-25
1.3834506e-25
1.3606794e-25
1.2814884e-25
1.0753011e-25
3.3223455e-26
5.0598185e-26
5.6781817e-26
5.8343638e-26
5.8453459e-26
5.8228504e-26
5.8006748e-26
5.7846158e-26
5.7743386e-26
5.7690359e-26
5.7690352e-26
5.7743369e-26
5.7846131e-26
5.800671e-26
5.8228456e-26
5.8453405e-26
5.8343578e-26
5.6781757e-26
5.0598132e-26
3.3223428e-26
7.5387911e-27
1.8345556e-26
2.2999648e-26
2.43763e-26
2.4451123e-26
2.4163837e-26
2.3852774e-26
2.3611784e-26
2.3453856e-26
2.3374049e-26
2.3374045e-26
2.3453847e-26
2.3611769e-26
2.3852754e-26
2.4163813e-26
2.4451096e-26
2.4376272e-26
2.2999622e-26
1.8345537e-26
7.5387877e-27
1.2756576e-27
6.027033e-27
8.8803995e-27
9.942625e-27
1.0102623e-26
9.9411937e-27
9.7192627e-27
9.5312523e-27
9.4026485e-27
9.3367759e-27
9.3367737e-27
9.4026428e-27
9.5312441e-27
9.7192527e-27
9.9411818e-27
1.0102611e-26
9.9426131e-27
8.8803894e-27
6.0270267e-27
1.2756576e-27
1.700963e-28
1.7894295e-27
3.2368632e-27
3.9111525e-27
4.0773885e-27
4.0222688e-27
3.9052587e-27
3.7953563e-27
3.7166648e-27
3.6756176e-27
3.6756164e-27
3.7166616e-27
3.7953517e-27
3.9052535e-27
4.022263e-27
4.0773831e-27
3.9111477e-27
3.2368597e-27
1.7894278e-27
1.7009634e-28
1.9035795e-29
4.8229854e-28
1.1096995e-27
1.4730487e-27
1.5938079e-27
1.5879916e-27
1.5376738e-27
1.4839841e-27
1.443617e-27
1.422147e-27
1.4221464e-27
1.4436154e-27
1.4839817e-27
1.5376712e-27
1.5879889e-27
1.5938055e-27
1.4730469e-27
1.1096984e-27
4.8229815e-28
1.9035801e-29
1.8833715e-30
1.1916105e-28
3.5791206e-28
5.2937847e-28
6.0016474e-28
6.0810122e-28
5.8997414e-28
5.6698533e-28
5.4873004e-28
5.3881628e-28
5.3881595e-28
5.4872924e-28
5.6698417e-28
5.8997294e-28
6.0810005e-28
6.0016381e-28
5.2937785e-28
3.5791175e-28
1.1916098e-28
1.8833721e-30
1.7074151e-31
2.7298451e-29
1.0887652e-28
1.8137493e-28
2.1708668e-28
2.2496595e-28
2.1961474e-28
2.1078401e-28
2.0330794e-28
1.9915374e-28
1.9915358e-28
2.0330756e-28
2.1078348e-28
2.1961421e-28
2.2496547e-28
2.1708634e-28
1.8137475e-28
1.0887645e-28
2.7298448e-29
1.7074155e-31
1.4506293e-32
5.8590934e-30
3.1347691e-29
5.9278274e-29
7.5332372e-29
8.0206263e-29
7.9067276e-29
7.5991012e-29
7.3174888e-29
7.156895e-29
7.1568879e-29
7.3174724e-29
7.5990784e-29
7.9067049e-29
8.0206076e-29
7.5332258e-29
5.927823e-29
3.1347683e-29
5.859096e-30
1.4506302e-32
1.1708481e-33
1.1878968e-30
8.5735167e-30
1.850395e-29
2.507295e-29
2.752121e-29
2.747491e-29
2.6500773e-29
2.5515728e-29
2.4936934e-29
2.4936906e-29
2.5515661e-29
2.6500681e-29
2.7474819e-29
2.7521141e-29
2.5072916e-29
1.8503944e-29
8.573519e-30
1.1878983e-30
1.1708494e-33
9.0509942e-35
2.2888451e-31
2.2346177e-30
5.5249833e-30
8.006444e-30
9.0831436e-30
9.2029164e-30
8.9242479e-30
8.6023991e-30
8.4065404e-30
8.4065297e-30
8.6023733e-30
8.9242128e-30
9.2028823e-30
9.0831199e-30
8.0064347e-30
5.5249843e-30
2.2346199e-30
2.2888504e-31
9.0510149e-35
6.7334188e-36
4.2094444e-32
5.5656708e-31
1.5803056e-30
2.4544132e-30
2.8831557e-30
2.9693946e-30
2.8988057e-30
2.8002336e-30
2.7376957e-30
2.7376918e-30
2.8002242e-30
2.8987931e-30
2.9693825e-30
2.8831478e-30
2.454411e-30
1.5803068e-30
5.565681e-31
4.2094594e-32
6.733446e-36
4.8345818e-37
7.4120407e-33
1.3275664e-31
4.3360261e-31
7.2285464e-31
8.803423e-31
9.2268351e-31
9.0767973e-31
8.793369e-31
8.6042722e-31
8.604259e-31
8.7933368e-31
9.0767547e-31
9.226795e-31
8.8033979e-31
7.2285419e-31
4.3360325e-31
1.3275701e-31
7.4120775e-33
4.8346115e-37
3.3558539e-38
1.2523139e-33
3.0379843e-32
1.1426604e-31
2.0468704e-31
2.586768e-31
2.7612108e-31
2.7390891e-31
2.6626031e-31
2.6083165e-31
2.6083122e-31
2.6625925e-31
2.7390753e-31
2.761198e-31
2.5867605e-31
2.0468698e-31
1.1426629e-31
3.0379962e-32
1.2523219e-33
3.3558828e-38
2.254294e-39
2.0335684e-34
6.6792317e-33
2.8952735e-32
5.5770693e-32
7.3182219e-32
7.960073e-32
7.9662292e-32
7.7730211e-32
7.6247841e-32
7.6247712e-32
7.7729879e-32
7.9661863e-32
7.9600336e-32
7.3181998e-32
5.5770696e-32
2.8952824e-32
6.6792661e-33
2.0335845e-34
2.2543194e-39
1.4664106e-40
3.1777501e-35
1.4125187e-33
7.0604122e-33
1.4632847e-32
1.9945408e-32
2.2114305e-32
2.2334209e-32
2.1880143e-32
2.1494699e-32
2.1494663e-32
2.1880043e-32
2.233408e-32
2.211419e-32
1.9945346e-32
1.4632852e-32
7.0604391e-33
1.4125277e-33
3.17778e-35
1.4664309e-40
9.2410448e-42
4.7833994e-36
2.876258e-34
1.658509e-33
3.6997899e-33
5.2399907e-33
5.923447e-33
6.0383173e-33
5.9402551e-33
5.8447783e-33
5.844768e-33
5.9402262e-33
6.0382803e-33
5.9234143e-33
5.2399741e-33
3.6997922e-33
1.6585166e-33
2.87628e-34
4.7834516e-36
9.2411942e-42
7.9791371e-43
6.9419722e-37
5.6443407e-35
3.755779e-34
9.0210309e-34
1.3278069e-33
1.5305588e-33
1.5750122e-33
1.5560463e-33
1.5335226e-33
1.5335199e-33
1.5560382e-33
1.5750019e-33
1.5305499e-33
1.3278025e-33
9.021038e-34
3.7557989e-34
5.6443903e-35
6.9420577e-37
7.9320488e-43
2.7012147e-43
9.7206978e-38
1.0683118e-35
8.2053809e-35
2.1225575e-34
3.2473053e-34
3.8171745e-34
3.9654613e-34
3.9346223e-34
3.8840786e-34
3.8840711e-34
3.9346005e-34
3.9654338e-34
3.8171508e-34
3.2472938e-34
2.1225594e-34
8.2054292e-35
1.0683222e-35
9.7208304e-38
2.6705939e-43
5.5931965e-44
1.3147355e-38
1.9516486e-36
1.7306786e-35
4.8224643e-35
7.6693628e-35
9.1938726e-35
9.6422473e-35
9.6087614e-35
9.5011293e-35
9.5011099e-35
9.6087053e-35
9.6421762e-35
9.1938114e-35
7.6693337e-35
4.8224684e-35
1.7306896e-35
1.9516695e-36
1.3147509e-38
5.5408407e-44
8.2186457e-45
1.7187918e-39
3.4437622e-37
3.5264583e-36
1.0586601e-35
1.7502614e-35
2.1397766e-35
2.2655677e-35
2.2674996e-35
2.2458408e-35
2.245836e-35
2.2674856e-35
2.2655498e-35
2.1397614e-35
1.7502542e-35
1.0586609e-35
3.5264819e-36
3.4438002e-37
1.7188039e-39
8.1627958e-45
9.7254152e-46
2.1727766e-40
5.873207e-38
6.9460957e-37
2.2468987e-36
3.8619579e-36
4.8150272e-36
5.146726e-36
5.1734309e-36
5.1325435e-36
5.1325315e-36
5.1733969e-36
5.1466822e-36
4.8149902e-36
3.8619401e-36
2.2469e-36
6.9461424e-37
5.8732717e-38
2.1727729e-40
9.6561767e-46
9.5964408e-47
2.6567834e-41
9.6869576e-39
1.3233784e-37
4.6132088e-37
8.2436525e-37
1.0481707e-36
1.1310438e-36
1.1418209e-36
1.1346733e-36
1.1346705e-36
1.1418129e-36
1.1310335e-36
1.0481619e-36
8.2436102e-37
4.6132095e-37
1.3233871e-37
9.6870621e-39
2.6567595e-41
9.5173194e-47
7.5295615e-48
3.1427974e-42
1.5460346e-39
2.4401547e-38
9.1676814e-38
1.7032523e-37
2.2085394e-37
2.4057873e-37
2.4391515e-37
2.4278744e-37
2.4278679e-37
2.4391335e-37
2.4057637e-37
2.2085193e-37
1.7032424e-37
9.1676769e-38
2.4401696e-38
1.5460499e-39
3.1427232e-42
7.4688344e-48
3.5648998e-49
3.5964452e-43
2.3889618e-40
4.3569269e-39
1.7643613e-38
3.4081416e-38
4.5065964e-38
4.9555745e-38
5.0457975e-38
5.0306851e-38
5.0306708e-38
5.0457578e-38
4.9555224e-38
4.5065515e-38
3.4081185e-38
1.764359e-38
4.3569502e-39
2.3889825e-40
3.5963154e-43
3.538127e-49
1.6131239e-50
3.987481e-44
3.5760536e-41
7.5371089e-40
3.2901349e-39
6.6078435e-39
8.9101703e-39
9.8903774e-39
1.0113325e-38
1.0099417e-38
1.0099386e-38
1.0113241e-38
9.8902656e-39
8.9100728e-39
6.6077916e-39
3.2901278e-39
7.537144e-40
3.5760837e-41
3.9873373e-44
1.5997008e-50
7.1748376e-52
4.2857696e-45
5.1884296e-42
1.2639071e-40
5.9478073e-40
1.2420008e-39
1.7077853e-39
1.9135063e-39
1.964931e-39
1.965395e-39
1.9653886e-39
1.9649137e-39
1.913483e-39
1.7077647e-39
1.2419895e-39
5.9477878e-40
1.2639118e-40
5.1884703e-42
4.2856036e-45
7.0996359e-52
)
;

boundaryField
{
    Wall
    {
        type            zeroGradient;
    }
    frontAndBack
    {
        type            empty;
    }
    atmosphere
    {
        type            zeroGradient;
    }
}


// ************************************************************************* //
