/*--------------------------------*- C++ -*----------------------------------*\
| =========                 |                                                 |
| \\      /  F ield         | OpenFOAM: The Open Source CFD Toolbox           |
|  \\    /   O peration     | Version:  3.0.1                                 |
|   \\  /    A nd           | Web:      www.OpenFOAM.org                      |
|    \\/     M anipulation  |                                                 |
\*---------------------------------------------------------------------------*/
FoamFile
{
    version     2.0;
    format      ascii;
    class       volScalarField;
    location    "22";
    object      mTwo;
}
// * * * * * * * * * * * * * * * * * * * * * * * * * * * * * * * * * * * * * //

dimensions      [0 0 0 0 0 0 0];

internalField   nonuniform List<scalar> 
800
(
7.0403696e-12
7.0411658e-12
7.0412221e-12
7.0412016e-12
7.0411815e-12
7.0411663e-12
7.041156e-12
7.0411492e-12
7.0411448e-12
7.0411426e-12
7.0411427e-12
7.0411448e-12
7.0411491e-12
7.0411561e-12
7.0411664e-12
7.0411816e-12
7.0412017e-12
7.0412223e-12
7.0411658e-12
7.0403697e-12
6.4871978e-12
6.5074982e-12
6.5105058e-12
6.5107287e-12
6.5105822e-12
6.5105294e-12
6.5105728e-12
6.5106538e-12
6.5107267e-12
6.5107677e-12
6.5107678e-12
6.5107267e-12
6.5106538e-12
6.5105728e-12
6.5105295e-12
6.5105823e-12
6.5107289e-12
6.510506e-12
6.5074983e-12
6.4871978e-12
6.1398449e-12
6.164858e-12
6.1722827e-12
6.1729322e-12
6.1728981e-12
6.1729298e-12
6.1730688e-12
6.1732387e-12
6.173378e-12
6.1734545e-12
6.1734545e-12
6.1733779e-12
6.1732387e-12
6.1730688e-12
6.1729299e-12
6.1728982e-12
6.1729325e-12
6.172283e-12
6.1648582e-12
6.1398449e-12
5.9528702e-12
5.9804491e-12
5.9910001e-12
5.9917645e-12
5.9917709e-12
5.991851e-12
5.992057e-12
5.9922912e-12
5.9924781e-12
5.9925799e-12
5.99258e-12
5.9924781e-12
5.9922912e-12
5.9920571e-12
5.9918511e-12
5.9917711e-12
5.9917649e-12
5.9910005e-12
5.9804495e-12
5.9528703e-12
5.8470416e-12
5.8773187e-12
5.8900507e-12
5.8945682e-12
5.8945259e-12
5.8945936e-12
5.894829e-12
5.8951034e-12
5.8953236e-12
5.8954443e-12
5.8954443e-12
5.8953237e-12
5.8951035e-12
5.8948291e-12
5.8945939e-12
5.8945262e-12
5.8945686e-12
5.8900511e-12
5.8773191e-12
5.8470417e-12
5.7151682e-12
5.7580973e-12
5.7723969e-12
5.7807781e-12
5.7805955e-12
5.7806016e-12
5.780844e-12
5.7811479e-12
5.7813985e-12
5.7815372e-12
5.7815372e-12
5.7813985e-12
5.7811479e-12
5.7808441e-12
5.7806018e-12
5.7805957e-12
5.7807785e-12
5.7723973e-12
5.7580977e-12
5.7151682e-12
5.4369975e-12
5.5091805e-12
5.5221861e-12
5.5325905e-12
5.53227e-12
5.5322482e-12
5.5325327e-12
5.5328942e-12
5.5331957e-12
5.5333624e-12
5.5333624e-12
5.5331956e-12
5.5328941e-12
5.5325326e-12
5.5322483e-12
5.5322701e-12
5.5325907e-12
5.5221863e-12
5.5091807e-12
5.4369973e-12
4.8980481e-12
5.0037349e-12
5.0252352e-12
5.0360571e-12
5.0357785e-12
5.0359439e-12
5.0364174e-12
5.0369343e-12
5.0373431e-12
5.0375632e-12
5.0375632e-12
5.0373429e-12
5.0369341e-12
5.0364171e-12
5.0359437e-12
5.0357783e-12
5.036057e-12
5.0252351e-12
5.0037347e-12
4.8980475e-12
4.0186572e-12
4.1639563e-12
4.1903403e-12
4.2012468e-12
4.213432e-12
4.2142488e-12
4.2151784e-12
4.2160016e-12
4.2165963e-12
4.2169039e-12
4.2169038e-12
4.2165961e-12
4.2160012e-12
4.215178e-12
4.2142483e-12
4.2134315e-12
4.2012463e-12
4.1903398e-12
4.1639557e-12
4.0186562e-12
2.9516941e-12
3.0906136e-12
3.121374e-12
3.1324184e-12
3.1429712e-12
3.146455e-12
3.1479805e-12
3.14916e-12
3.14994e-12
3.1503296e-12
3.1503295e-12
3.1499396e-12
3.1491595e-12
3.1479799e-12
3.1464543e-12
3.1429704e-12
3.1324176e-12
3.1213732e-12
3.0906126e-12
2.9516927e-12
1.9784049e-12
2.0962732e-12
2.1313611e-12
2.1417604e-12
2.1482927e-12
2.1507829e-12
2.1525539e-12
2.1538162e-12
2.1546083e-12
2.1549956e-12
2.1549955e-12
2.154608e-12
2.1538158e-12
2.1525532e-12
2.1507822e-12
2.1482919e-12
2.1417595e-12
2.1313602e-12
2.0962722e-12
1.9784036e-12
1.1317696e-12
1.2362009e-12
1.2652021e-12
1.27377e-12
1.286101e-12
1.2883066e-12
1.2897724e-12
1.2907656e-12
1.2913619e-12
1.2916478e-12
1.2916477e-12
1.2913617e-12
1.2907653e-12
1.289772e-12
1.2883061e-12
1.2861004e-12
1.2737694e-12
1.2652014e-12
1.2362001e-12
1.1317687e-12
5.8878738e-13
6.4878605e-13
6.7154967e-13
6.7848299e-13
6.8400017e-13
6.8540489e-13
6.8627508e-13
6.8681688e-13
6.8712281e-13
6.8726175e-13
6.8726171e-13
6.871227e-13
6.8681669e-13
6.8627483e-13
6.8540459e-13
6.8399983e-13
6.7848261e-13
6.7154928e-13
6.4878565e-13
5.887869e-13
2.7537846e-13
3.2479964e-13
3.4466686e-13
3.5063217e-13
3.5269521e-13
3.529781e-13
3.5300625e-13
3.5298091e-13
3.529464e-13
3.5291804e-13
3.5291801e-13
3.5294633e-13
3.529808e-13
3.530061e-13
3.5297793e-13
3.5269502e-13
3.5063195e-13
3.4466664e-13
3.2479942e-13
2.7537826e-13
1.0302382e-13
1.5406331e-13
1.7369127e-13
1.7947867e-13
1.8020032e-13
1.7943345e-13
1.7855404e-13
1.7788468e-13
1.7745283e-13
1.7723251e-13
1.7723249e-13
1.7745278e-13
1.7788461e-13
1.7855394e-13
1.7943335e-13
1.8020019e-13
1.7947854e-13
1.7369114e-13
1.540632e-13
1.0302377e-13
2.8967614e-14
6.757673e-14
8.5053708e-14
9.1007846e-14
9.1824954e-14
9.0908689e-14
8.9727617e-14
8.8766873e-14
8.8127664e-14
8.7802897e-14
8.7802882e-14
8.812763e-14
8.8766822e-14
8.9727555e-14
9.0908621e-14
9.1824881e-14
9.1007773e-14
8.5053641e-14
6.7576682e-14
2.896761e-14
6.2119993e-15
2.7216788e-14
3.9961367e-14
4.5197191e-14
4.6322471e-14
4.5777247e-14
4.4819462e-14
4.3963431e-14
4.3367503e-14
4.3059653e-14
4.3059643e-14
4.3367477e-14
4.3963394e-14
4.4819423e-14
4.5777205e-14
4.6322431e-14
4.5197154e-14
3.9961336e-14
2.7216769e-14
6.2120006e-15
1.0699352e-15
1.0063606e-14
1.7906957e-14
2.1796995e-14
2.2941602e-14
2.2770073e-14
2.2173454e-14
2.1577169e-14
2.1141598e-14
2.0912016e-14
2.0912009e-14
2.1141579e-14
2.1577143e-14
2.2173428e-14
2.2770048e-14
2.2941581e-14
2.1796977e-14
1.7906944e-14
1.00636e-14
1.0699357e-15
1.5700658e-16
3.4314204e-15
7.6406112e-15
1.0160415e-14
1.1087829e-14
1.1123636e-14
1.0815134e-14
1.046059e-14
1.0188067e-14
1.0041396e-14
1.0041391e-14
1.0188055e-14
1.0460573e-14
1.0815118e-14
1.1123621e-14
1.1087818e-14
1.0160407e-14
7.6406063e-15
3.4314188e-15
1.5700666e-16
2.0609284e-17
1.0881875e-15
3.1074484e-15
4.5694272e-15
5.21104e-15
5.3144981e-15
5.1795542e-15
4.9918644e-15
4.8392755e-15
4.7553516e-15
4.7553483e-15
4.8392679e-15
4.9918538e-15
5.1795444e-15
5.3144899e-15
5.2110343e-15
4.5694241e-15
3.107447e-15
1.0881873e-15
2.0609297e-17
2.5030361e-18
3.2422504e-16
1.2077538e-15
1.9825671e-15
2.3775062e-15
2.4765099e-15
2.428129e-15
2.3377075e-15
2.2593045e-15
2.2151725e-15
2.2151705e-15
2.2593e-15
2.3377013e-15
2.4281233e-15
2.4765055e-15
2.3775036e-15
1.9825661e-15
1.2077536e-15
3.2422512e-16
2.5030378e-18
2.8739975e-19
9.1616743e-17
4.5006135e-16
8.3064757e-16
1.0524908e-15
1.123882e-15
1.1118484e-15
1.0717706e-15
1.0342344e-15
1.012562e-15
1.0125609e-15
1.0342318e-15
1.0717672e-15
1.1118453e-15
1.1238798e-15
1.0524897e-15
8.3064742e-16
4.5006142e-16
9.1616817e-17
2.8740007e-19
3.1615401e-20
2.4738716e-17
1.6132875e-16
3.3653243e-16
4.5216502e-16
4.9636279e-16
4.9662944e-16
4.8023097e-16
4.6332321e-16
4.5327879e-16
4.532782e-16
4.6332186e-16
4.8022911e-16
4.966278e-16
4.963617e-16
4.5216459e-16
3.3653251e-16
1.6132886e-16
2.4738755e-17
3.1615454e-20
3.3593085e-21
6.4198709e-18
5.5793265e-17
1.3204073e-16
1.886266e-16
2.1330606e-16
2.1622756e-16
2.1005823e-16
2.0284765e-16
1.984221e-16
1.984218e-16
2.0284696e-16
2.1005729e-16
2.1622674e-16
2.1330555e-16
1.8862644e-16
1.3204084e-16
5.5793341e-17
6.4198873e-18
3.3593179e-21
3.4652023e-22
1.6077616e-18
1.8662396e-17
5.024441e-17
7.6464334e-17
8.9208765e-17
9.1738111e-17
8.9635671e-17
8.6712595e-17
8.4849271e-17
8.4849126e-17
8.6712261e-17
8.9635212e-17
9.1737718e-17
8.9208533e-17
7.6464281e-17
5.0244479e-17
1.8662436e-17
1.6077675e-18
3.4652176e-22
3.4809785e-23
3.8972952e-19
6.0500861e-18
1.8566999e-17
3.0145085e-17
3.632264e-17
3.792729e-17
3.73031e-17
3.6174179e-17
3.5421643e-17
3.5421576e-17
3.6174024e-17
3.7302887e-17
3.792711e-17
3.6322538e-17
3.0145069e-17
1.8567036e-17
6.0501049e-18
3.8973144e-19
3.4810007e-23
3.4122025e-24
9.1643594e-20
1.9041235e-18
6.6709201e-18
1.1567267e-17
1.4405603e-17
1.5283186e-17
1.5139959e-17
1.4724331e-17
1.4431999e-17
1.4431969e-17
1.4724261e-17
1.5139863e-17
1.5283106e-17
1.440556e-17
1.1567263e-17
6.6709384e-18
1.9041315e-18
9.1644168e-20
3.412232e-24
3.2680667e-25
2.0938859e-20
5.8260374e-19
2.3328204e-18
4.323629e-18
5.5682475e-18
6.004769e-18
5.9937987e-18
5.8481042e-18
5.7386651e-18
5.7386522e-18
5.848074e-18
5.9937569e-18
6.0047344e-18
5.5682299e-18
4.323628e-18
2.3328285e-18
5.8260685e-19
2.0939019e-20
3.2681032e-25
3.0608811e-26
4.6545191e-21
1.7350359e-19
7.9477567e-19
1.5754462e-18
2.0989564e-18
2.3014486e-18
2.3153819e-18
2.2669301e-18
2.2273984e-18
2.2273931e-18
2.2669175e-18
2.3153641e-18
2.3014341e-18
2.0989494e-18
1.5754459e-18
7.94779e-19
1.7350473e-19
4.6545613e-21
3.0609232e-26
2.8053289e-27
1.0076841e-21
5.0343893e-20
2.6403156e-19
5.6003743e-19
7.7207239e-19
8.6090981e-19
8.7312212e-19
8.5794937e-19
8.4416346e-19
8.4416131e-19
8.5794418e-19
8.731148e-19
8.6090392e-19
7.7206959e-19
5.6003736e-19
2.6403284e-19
5.0344283e-20
1.0076947e-21
2.8053738e-27
3.5599697e-28
2.1266329e-22
1.4245822e-20
8.5598833e-20
1.9435567e-19
2.7730392e-19
3.1449242e-19
3.2157081e-19
3.1716192e-19
3.1252129e-19
3.1252044e-19
3.1715985e-19
3.2156788e-19
3.1449007e-19
2.7730283e-19
1.9435562e-19
8.55993e-20
1.4245948e-20
2.1266581e-22
3.5391589e-28
1.7984818e-28
4.3786257e-23
3.9345654e-21
2.7102662e-20
6.589329e-20
9.7312721e-20
1.1225661e-19
1.1573441e-19
1.1458203e-19
1.1307558e-19
1.1307524e-19
1.1458122e-19
1.1573326e-19
1.122557e-19
9.7312296e-20
6.5893259e-20
2.7102823e-20
3.9346044e-21
4.3786834e-23
1.7783213e-28
5.7162617e-29
8.8057178e-24
1.0614914e-21
8.3869253e-21
2.183916e-20
3.3386238e-20
3.9175917e-20
4.0726502e-20
4.0476514e-20
4.0005868e-20
4.0005741e-20
4.0476208e-20
4.0726064e-20
3.9175568e-20
3.3386074e-20
2.1839141e-20
8.3869778e-21
1.061503e-21
8.8058099e-24
5.6647479e-29
1.2913389e-29
1.7311671e-24
2.7995266e-22
2.5382841e-21
7.0804194e-21
1.1205038e-20
1.3374811e-20
1.4020672e-20
1.3988892e-20
1.384788e-20
1.3847833e-20
1.3988779e-20
1.4020509e-20
1.337468e-20
1.1204976e-20
7.0804098e-21
2.5383004e-21
2.7995578e-22
1.7311746e-24
1.2829248e-29
2.365597e-30
3.328394e-25
7.222961e-23
7.5182395e-22
2.2468729e-21
3.6809932e-21
4.4696145e-21
4.7248264e-21
4.7326223e-21
4.6923481e-21
4.692331e-21
4.7325811e-21
4.7247667e-21
4.4695666e-21
3.6809698e-21
2.2468685e-21
7.518286e-22
7.2230402e-23
3.3283722e-25
2.3492957e-30
3.6496445e-31
6.2602535e-26
1.8243123e-23
2.1807734e-22
6.9832118e-22
1.184332e-21
1.4628986e-21
1.5594563e-21
1.5682013e-21
1.5573506e-21
1.5573445e-21
1.5681866e-21
1.559435e-21
1.4628813e-21
1.1843234e-21
6.9831917e-22
2.1807857e-22
1.8243314e-23
6.260143e-26
3.6197398e-31
4.5229316e-32
1.1520379e-26
4.5135675e-24
6.1985605e-23
2.1268719e-22
3.7340737e-22
4.6920402e-22
5.0439506e-22
5.0923955e-22
5.0653564e-22
5.0653354e-22
5.0923445e-22
5.0438765e-22
4.691979e-22
3.7340422e-22
2.1268634e-22
6.19859e-23
4.5136088e-24
1.1519931e-26
4.4857949e-32
3.5264496e-33
2.0740823e-27
1.094596e-24
1.7274919e-23
6.3515507e-23
1.1543297e-22
1.4755267e-22
1.5996027e-22
1.6214205e-22
1.61545e-22
1.6154429e-22
1.6214031e-22
1.5995774e-22
1.4755054e-22
1.1543183e-22
6.3515165e-23
1.727498e-23
1.0946044e-24
2.0739683e-27
3.4996397e-33
2.6810297e-34
3.6599294e-28
2.6037227e-25
4.7232242e-24
1.860822e-23
3.5006007e-23
4.5519445e-23
4.9764885e-23
5.0646323e-23
5.0543134e-23
5.0542897e-23
5.0645743e-23
4.9764038e-23
4.551872e-23
3.5005606e-23
1.8608091e-23
4.7232353e-24
2.6037416e-25
3.6597176e-28
2.6583641e-34
2.0094357e-35
6.3343055e-29
6.0788469e-26
1.2676617e-24
5.3510978e-24
1.0419361e-23
1.3782556e-23
1.5195711e-23
1.5527308e-23
1.5521471e-23
1.5521394e-23
1.5527118e-23
1.5195433e-23
1.3782313e-23
1.0419222e-23
5.3510509e-24
1.2676628e-24
6.0788867e-26
6.333909e-29
1.9908012e-35
)
;

boundaryField
{
    Wall
    {
        type            zeroGradient;
    }
    frontAndBack
    {
        type            empty;
    }
    atmosphere
    {
        type            zeroGradient;
    }
}


// ************************************************************************* //
