/*--------------------------------*- C++ -*----------------------------------*\
| =========                 |                                                 |
| \\      /  F ield         | OpenFOAM: The Open Source CFD Toolbox           |
|  \\    /   O peration     | Version:  3.0.1                                 |
|   \\  /    A nd           | Web:      www.OpenFOAM.org                      |
|    \\/     M anipulation  |                                                 |
\*---------------------------------------------------------------------------*/
FoamFile
{
    version     2.0;
    format      ascii;
    class       volScalarField;
    location    "22";
    object      mZero;
}
// * * * * * * * * * * * * * * * * * * * * * * * * * * * * * * * * * * * * * //

dimensions      [0 0 0 0 0 0 0];

internalField   nonuniform List<scalar> 
800
(
1e+13
1e+13
1e+13
1e+13
1e+13
1e+13
1e+13
1e+13
1e+13
1e+13
1e+13
1e+13
1e+13
1e+13
1e+13
1e+13
1e+13
1e+13
1e+13
1e+13
1e+13
1e+13
1e+13
1e+13
1e+13
1e+13
1e+13
1e+13
1e+13
1e+13
1e+13
1e+13
1e+13
1e+13
1e+13
1e+13
1e+13
1e+13
1e+13
1e+13
9.7803234e+12
9.7840143e+12
9.7850092e+12
9.7851528e+12
9.7851097e+12
9.7850611e+12
9.785035e+12
9.7850267e+12
9.7850267e+12
9.7850285e+12
9.7850285e+12
9.7850266e+12
9.7850266e+12
9.7850349e+12
9.785061e+12
9.7851096e+12
9.7851527e+12
9.7850092e+12
9.7840142e+12
9.7803233e+12
9.3990841e+12
9.4090559e+12
9.4112227e+12
9.4113782e+12
9.4112478e+12
9.411119e+12
9.4110537e+12
9.4110321e+12
9.4110307e+12
9.4110341e+12
9.4110341e+12
9.4110306e+12
9.411032e+12
9.4110535e+12
9.4111189e+12
9.4112476e+12
9.411378e+12
9.4112226e+12
9.4090557e+12
9.3990839e+12
8.9052889e+12
8.9234168e+12
8.9267299e+12
8.9268701e+12
8.9266279e+12
8.9264159e+12
8.9263147e+12
8.9262841e+12
8.9262835e+12
8.9262895e+12
8.9262895e+12
8.9262835e+12
8.926284e+12
8.9263145e+12
8.9264157e+12
8.9266277e+12
8.92687e+12
8.9267298e+12
8.9234167e+12
8.9052887e+12
8.3364417e+12
8.3645766e+12
8.3691813e+12
8.369376e+12
8.3690453e+12
8.368786e+12
8.368674e+12
8.3686458e+12
8.3686532e+12
8.3686646e+12
8.3686646e+12
8.3686531e+12
8.3686457e+12
8.3686738e+12
8.3687859e+12
8.3690451e+12
8.3693759e+12
8.3691812e+12
8.3645766e+12
8.3364415e+12
7.717571e+12
7.7579585e+12
7.7645289e+12
7.7650682e+12
7.764765e+12
7.7645316e+12
7.7644522e+12
7.7644472e+12
7.764473e+12
7.7644928e+12
7.7644928e+12
7.7644729e+12
7.7644471e+12
7.7644521e+12
7.7645315e+12
7.7647649e+12
7.7650682e+12
7.7645289e+12
7.7579585e+12
7.7175709e+12
7.0618198e+12
7.1171364e+12
7.1273858e+12
7.1289179e+12
7.128846e+12
7.1287474e+12
7.1287475e+12
7.1287883e+12
7.1288392e+12
7.1288661e+12
7.128866e+12
7.1288391e+12
7.1287883e+12
7.1287475e+12
7.1287474e+12
7.128846e+12
7.128918e+12
7.1273858e+12
7.1171365e+12
7.0618198e+12
6.3712278e+12
6.4451465e+12
6.4621243e+12
6.4658568e+12
6.4663856e+12
6.4665447e+12
6.4666367e+12
6.4667181e+12
6.4667811e+12
6.4668033e+12
6.4668032e+12
6.466781e+12
6.466718e+12
6.4666367e+12
6.4665447e+12
6.4663857e+12
6.465857e+12
6.4621244e+12
6.4451467e+12
6.3712279e+12
5.6363829e+12
5.7350549e+12
5.7640782e+12
5.7721522e+12
5.7741036e+12
5.7745714e+12
5.7746493e+12
5.7746876e+12
5.7746948e+12
5.774674e+12
5.774674e+12
5.7746947e+12
5.7746874e+12
5.7746492e+12
5.7745715e+12
5.7741037e+12
5.7721525e+12
5.7640784e+12
5.7350551e+12
5.6363832e+12
4.8408667e+12
4.9732392e+12
5.0234292e+12
5.0397353e+12
5.0439223e+12
5.0445317e+12
5.044234e+12
5.0439396e+12
5.0437036e+12
5.043545e+12
5.0435449e+12
5.0437035e+12
5.0439394e+12
5.0442339e+12
5.0445318e+12
5.0439225e+12
5.0397356e+12
5.0234293e+12
4.9732395e+12
4.8408672e+12
3.9645623e+12
4.1494352e+12
4.2369033e+12
4.268938e+12
4.2771864e+12
4.277634e+12
4.2761577e+12
4.2748727e+12
4.2739703e+12
4.2734626e+12
4.2734625e+12
4.2739701e+12
4.2748722e+12
4.2761575e+12
4.277634e+12
4.2771865e+12
4.2689384e+12
4.2369035e+12
4.1494357e+12
3.964563e+12
2.943837e+12
3.2160971e+12
3.3677391e+12
3.4295325e+12
3.4469889e+12
3.4470615e+12
3.4429936e+12
3.4393689e+12
3.4369135e+12
3.4356102e+12
3.43561e+12
3.4369132e+12
3.4393682e+12
3.4429933e+12
3.4470614e+12
3.446989e+12
3.4295329e+12
3.3677394e+12
3.2160979e+12
2.9438381e+12
1.8606915e+12
2.2559785e+12
2.4838898e+12
2.5883351e+12
2.620642e+12
2.6208729e+12
2.612261e+12
2.604155e+12
2.5986622e+12
2.5958098e+12
2.5958094e+12
2.5986617e+12
2.6041541e+12
2.6122604e+12
2.6208726e+12
2.620642e+12
2.5883352e+12
2.48389e+12
2.2559791e+12
1.8606926e+12
9.0714319e+11
1.4416517e+12
1.7275621e+12
1.8653732e+12
1.911478e+12
1.9120506e+12
1.8978197e+12
1.8835973e+12
1.8737148e+12
1.8685957e+12
1.8685953e+12
1.873714e+12
1.8835961e+12
1.8978188e+12
1.9120501e+12
1.9114777e+12
1.8653731e+12
1.727562e+12
1.4416521e+12
9.07144e+11
3.2340166e+11
8.3939179e+11
1.1393007e+12
1.2922917e+12
1.3477719e+12
1.3503782e+12
1.3332204e+12
1.3146047e+12
1.3011289e+12
1.2940589e+12
1.2940584e+12
1.3011279e+12
1.3146033e+12
1.3332194e+12
1.3503775e+12
1.3477714e+12
1.2922915e+12
1.1393005e+12
8.393919e+11
3.2340204e+11
8.6012171e+10
4.4552228e+11
7.1078591e+11
8.5875538e+11
9.1764212e+11
9.2390579e+11
9.0810963e+11
8.8905671e+11
8.7461335e+11
8.6688921e+11
8.6688868e+11
8.7461232e+11
8.8905524e+11
9.0810852e+11
9.2390497e+11
9.1764153e+11
8.5875503e+11
7.1078564e+11
4.4552226e+11
8.6012296e+10
1.8074512e+10
2.1514895e+11
4.1847576e+11
5.4578733e+11
6.0167169e+11
6.1125655e+11
5.9951143e+11
5.8327305e+11
5.7036077e+11
5.6331559e+11
5.6331511e+11
5.7035979e+11
5.8327166e+11
5.9951034e+11
6.1125572e+11
6.0167108e+11
5.4578698e+11
4.184755e+11
2.1514889e+11
1.8074541e+10
3.1972549e+09
9.466155e+10
2.3223709e+11
3.3113784e+11
3.7909182e+11
3.9028384e+11
3.8308966e+11
3.7106552e+11
3.6100837e+11
3.5541153e+11
3.5541113e+11
3.6100753e+11
3.7106432e+11
3.8308868e+11
3.9028308e+11
3.7909126e+11
3.3113754e+11
2.3223688e+11
9.4661507e+10
3.1972604e+09
5.0120205e+08
3.8222762e+10
1.2157062e+11
1.9169359e+11
2.2927875e+11
2.4017088e+11
2.3665038e+11
2.2871496e+11
2.2169234e+11
2.1770535e+11
2.1770503e+11
2.2169167e+11
2.28714e+11
2.3664957e+11
2.4017025e+11
2.2927828e+11
1.9169335e+11
1.2157048e+11
3.8222737e+10
5.0120301e+08
72128507
1.4312907e+10
6.0177511e+10
1.0595793e+11
1.331025e+11
1.4236389e+11
1.4121246e+11
1.3647786e+11
1.3199916e+11
1.2940191e+11
1.2940168e+11
1.3199866e+11
1.3647714e+11
1.4121184e+11
1.4236341e+11
1.3310214e+11
1.0595776e+11
6.0177425e+10
1.4312896e+10
72128667
9744915.1
5.0229224e+09
2.8268985e+10
5.6010932e+10
7.4216617e+10
8.1293569e+10
8.1370488e+10
7.8800921e+10
7.6160084e+10
7.4592039e+10
7.4591878e+10
7.6159734e+10
7.8800416e+10
8.1370042e+10
8.1293223e+10
7.4216363e+10
5.6010826e+10
2.8268939e+10
5.022918e+09
9744943.1
1253179.4
1.6669256e+09
1.2653033e+10
2.8373753e+10
3.9792621e+10
4.4743324e+10
4.5283482e+10
4.401687e+10
4.2565581e+10
4.1679988e+10
4.1679885e+10
4.256535e+10
4.4016536e+10
4.5283182e+10
4.4743093e+10
3.9792454e+10
2.8373689e+10
1.2653011e+10
1.6669241e+09
1253184.1
154702.75
5.2688904e+08
5.417258e+09
1.3804813e+10
2.0544447e+10
2.3756693e+10
2.4348973e+10
2.3788752e+10
2.3041646e+10
2.2570659e+10
2.2570596e+10
2.3041501e+10
2.3788544e+10
2.4348783e+10
2.3756547e+10
2.0544344e+10
1.3804777e+10
5.4172483e+09
5.268886e+08
154703.54
18430.538
1.5950706e+08
2.2263599e+09
6.464986e+09
1.0228781e+10
1.2180783e+10
1.2658291e+10
1.2443441e+10
1.2082223e+10
1.1845241e+10
1.1845205e+10
1.2082138e+10
1.2443317e+10
1.2658176e+10
1.2180695e+10
1.0228721e+10
6.4649658e+09
2.2263559e+09
1.5950694e+08
18430.665
2126.2759
46448739
8.8099442e+08
2.9202641e+09
4.9185499e+09
6.0377844e+09
6.367528e+09
6.3031491e+09
6.1390829e+09
6.0259101e+09
6.0258899e+09
6.1390345e+09
6.3030797e+09
6.3674624e+09
6.0377344e+09
4.9185166e+09
2.9202534e+09
8.8099283e+08
46448708
2126.2948
238.09273
13055191
3.3654992e+08
1.2747003e+09
2.2874639e+09
2.8965673e+09
3.1020659e+09
3.0939345e+09
3.0241165e+09
2.97272e+09
2.9727093e+09
3.0240903e+09
3.0938969e+09
3.1020299e+09
2.8965401e+09
2.2874463e+09
1.2746949e+09
3.3654934e+08
13055183
238.09537
25.920302
3551472.4
1.2439132e+08
5.3858562e+08
1.0302832e+09
1.3464028e+09
1.4649194e+09
1.4727352e+09
1.4450974e+09
1.4228847e+09
1.4228793e+09
1.4450837e+09
1.4727156e+09
1.4649004e+09
1.3463885e+09
1.0302742e+09
5.38583e+08
1.2439111e+08
3551470.4
25.92065
2.7470494
937235.09
44567413
2.2060285e+08
4.4996813e+08
6.0703624e+08
6.7120973e+08
6.8036287e+08
6.7034225e+08
6.6121265e+08
6.6121e+08
6.7033536e+08
6.8035307e+08
6.7120016e+08
6.0702902e+08
4.4996376e+08
2.2060161e+08
44567340
937234.56
2.7470927
0.28385566
240411.04
15503732
87710980
1.9077598e+08
2.6573032e+08
2.9865905e+08
3.0528654e+08
3.0207294e+08
2.9851328e+08
2.9851202e+08
3.0206959e+08
3.052818e+08
2.9865437e+08
2.6572679e+08
1.9077392e+08
87710411
15503706
240410.88
0.28386011
0.062617793
60043.171
5243906.6
33891994
78602324
1.1304907e+08
1.291645e+08
1.3315944e+08
1.3233174e+08
1.3102194e+08
1.3102136e+08
1.3233016e+08
1.3315722e+08
1.2916229e+08
1.130474e+08
78601379
33891741
5243896.3
60043.118
0.061949873
0.064223145
14623.074
1726642.3
12740904
31501585
46781968
54340170
56502977
56399193
55948892
55948630
56398474
56501971
54339157
46781199
31501165
12740794
1726638.2
14623.056
0.063458282
0.025877561
3479.597
554039.42
4664194.8
12291277
18846769
22256210
23341663
23401915
23260097
23259982
23401597
23341219
22255759
18846425
12291096
4664148.6
554037.8
3479.5691
0.02565034
0.0070329792
810.09544
173417.27
1664175.7
4672852.4
7397419.9
8880916.6
9394329.3
9460251
9421106.9
9421057.7
9460114
9394138.9
8880721.9
7397270.5
4672775.9
1664156.9
173416.51
810.07903
0.0069897828
0.0015325115
184.63207
52993.217
579176.39
1732263.5
2830906
3454994.1
3686138.8
3728364.6
3720066.1
3720045.5
3728307.2
3686059.2
3454912.2
2830842.7
1732232.2
579168.73
52992.872
184.62476
0.0015223695
0.00027995657
41.207985
15820.928
196754.39
626610.78
1056987.9
1311324.1
1411022.6
1433435.8
1432962.3
1432954
1433412.4
1410990.2
1311290.5
1056961.9
626598.2
196751.36
15820.786
41.205492
0.00027770144
4.0760358e-05
9.0059431
4617.4723
65286.748
221319.35
385296.3
485871.36
527258.77
537960.18
538791.01
538787.71
537950.87
527245.9
485857.92
385285.85
221314.42
65285.581
4617.4147
9.0050594
4.0421404e-05
3.7049712e-06
1.9266144
1318.2217
21172.777
76374.088
137203.65
175850.19
192442.09
197192.53
197862.09
197860.82
197188.93
192437.1
175844.95
137199.55
76372.196
21172.34
1318.2007
1.926375
3.6760152e-06
3.2883067e-07
0.40443221
368.33404
6714.8009
25765.009
47756.685
62204.831
68645.197
70639.076
71007.875
71007.393
70637.714
68643.307
62202.832
47755.118
25764.301
6714.6445
368.32738
0.40437972
3.2595121e-07
2.8724313e-08
0.083351536
100.78388
2083.663
8501.8275
16256.991
21518.071
23943.683
24742.84
24916.523
24916.345
24742.337
23942.983
21517.327
16256.407
8501.5683
2083.6084
100.78181
0.083340157
2.8454371e-08
)
;

boundaryField
{
    Wall
    {
        type            zeroGradient;
    }
    frontAndBack
    {
        type            empty;
    }
    atmosphere
    {
        type            zeroGradient;
    }
}


// ************************************************************************* //
