/*--------------------------------*- C++ -*----------------------------------*\
| =========                 |                                                 |
| \\      /  F ield         | OpenFOAM: The Open Source CFD Toolbox           |
|  \\    /   O peration     | Version:  3.0.1                                 |
|   \\  /    A nd           | Web:      www.OpenFOAM.org                      |
|    \\/     M anipulation  |                                                 |
\*---------------------------------------------------------------------------*/
FoamFile
{
    version     2.0;
    format      ascii;
    class       volScalarField;
    location    "22";
    object      node1;
}
// * * * * * * * * * * * * * * * * * * * * * * * * * * * * * * * * * * * * * //

dimensions      [0 0 0 0 0 0 0];

internalField   nonuniform List<scalar> 
800
(
8.3694737e-13
8.3699444e-13
8.3699773e-13
8.369965e-13
8.369953e-13
8.3699439e-13
8.3699378e-13
8.3699337e-13
8.3699311e-13
8.3699297e-13
8.3699298e-13
8.3699311e-13
8.3699337e-13
8.3699378e-13
8.369944e-13
8.3699531e-13
8.3699651e-13
8.3699774e-13
8.3699444e-13
8.3694738e-13
8.0168851e-13
8.0298495e-13
8.0317502e-13
8.0318983e-13
8.0318155e-13
8.0317907e-13
8.0318244e-13
8.0318799e-13
8.0319284e-13
8.0319556e-13
8.0319556e-13
8.0319284e-13
8.0318798e-13
8.0318244e-13
8.0317907e-13
8.0318155e-13
8.0318984e-13
8.0317503e-13
8.0298496e-13
8.0168851e-13
7.8828641e-13
7.8977687e-13
7.9022785e-13
7.902654e-13
7.9026615e-13
7.9027119e-13
7.9028201e-13
7.9029388e-13
7.9030322e-13
7.9030826e-13
7.9030826e-13
7.9030322e-13
7.9029387e-13
7.9028201e-13
7.902712e-13
7.9026616e-13
7.9026542e-13
7.9022787e-13
7.8977689e-13
7.8828641e-13
7.9151261e-13
7.9296137e-13
7.9358715e-13
7.9363303e-13
7.9364016e-13
7.9365188e-13
7.9366908e-13
7.9368609e-13
7.9369892e-13
7.9370572e-13
7.9370573e-13
7.9369893e-13
7.9368609e-13
7.9366909e-13
7.9365189e-13
7.9364018e-13
7.9363306e-13
7.9358718e-13
7.929614e-13
7.9151263e-13
8.0549274e-13
8.0680407e-13
8.0754368e-13
8.0785776e-13
8.0786694e-13
8.0788203e-13
8.0790345e-13
8.0792418e-13
8.0793965e-13
8.0794783e-13
8.0794783e-13
8.0793966e-13
8.0792418e-13
8.0790346e-13
8.0788205e-13
8.0786696e-13
8.0785779e-13
8.0754372e-13
8.068041e-13
8.0549275e-13
8.2239025e-13
8.2416158e-13
8.2496977e-13
8.2557412e-13
8.2557821e-13
8.2559218e-13
8.256157e-13
8.2563934e-13
8.2565725e-13
8.2566678e-13
8.2566678e-13
8.2565725e-13
8.2563934e-13
8.2561571e-13
8.255922e-13
8.2557823e-13
8.2557415e-13
8.249698e-13
8.2416161e-13
8.2239026e-13
8.3279766e-13
8.362192e-13
8.3686063e-13
8.3763373e-13
8.3762507e-13
8.3763575e-13
8.3766164e-13
8.3768946e-13
8.3771107e-13
8.3772272e-13
8.3772273e-13
8.3771107e-13
8.3768946e-13
8.3766164e-13
8.3763576e-13
8.3762508e-13
8.3763375e-13
8.3686065e-13
8.3621921e-13
8.3279764e-13
8.2611558e-13
8.3177831e-13
8.3299904e-13
8.3382748e-13
8.3380372e-13
8.3381749e-13
8.3385282e-13
8.3389076e-13
8.3392016e-13
8.3393608e-13
8.3393608e-13
8.3392016e-13
8.3389074e-13
8.338528e-13
8.3381748e-13
8.3380371e-13
8.3382747e-13
8.3299903e-13
8.3177829e-13
8.2611553e-13
7.897323e-13
7.9926629e-13
8.008087e-13
8.0168072e-13
8.0280199e-13
8.0284896e-13
8.0291576e-13
8.0297844e-13
8.0302462e-13
8.0304912e-13
8.0304912e-13
8.030246e-13
8.0297841e-13
8.0291573e-13
8.0284892e-13
8.0280194e-13
8.0168068e-13
8.0080866e-13
7.9926622e-13
7.8973221e-13
7.2632103e-13
7.3677454e-13
7.3869609e-13
7.3965249e-13
7.4072592e-13
7.4086202e-13
7.4099411e-13
7.4110196e-13
7.4117564e-13
7.4121357e-13
7.4121357e-13
7.4117561e-13
7.4110192e-13
7.4099405e-13
7.4086195e-13
7.4072584e-13
7.3965241e-13
7.38696e-13
7.3677443e-13
7.2632088e-13
6.5386891e-13
6.6459817e-13
6.6726944e-13
6.6827837e-13
6.6896898e-13
6.692094e-13
6.6941256e-13
6.6956551e-13
6.6966521e-13
6.6971554e-13
6.6971553e-13
6.6966518e-13
6.6956546e-13
6.6941249e-13
6.6920932e-13
6.6896888e-13
6.6827825e-13
6.6726932e-13
6.6459803e-13
6.5386872e-13
5.5719569e-13
5.72704e-13
5.7536003e-13
5.7624213e-13
5.7859542e-13
5.7893282e-13
5.7919918e-13
5.7939112e-13
5.7951199e-13
5.7957227e-13
5.7957226e-13
5.7951196e-13
5.7939107e-13
5.7919911e-13
5.7893273e-13
5.7859531e-13
5.76242e-13
5.753599e-13
5.7270384e-13
5.5719549e-13
0
0
0
0
0
0
0
0
0
0
0
0
0
0
0
0
0
0
0
0
0
0
0
0
0
0
0
0
0
0
0
0
0
0
0
0
0
0
0
0
0
0
0
0
0
0
0
0
0
0
0
0
0
0
0
0
0
0
0
0
0
0
0
0
0
0
0
0
0
0
0
0
0
0
0
0
0
0
0
0
0
0
0
0
0
0
0
0
0
0
0
0
0
0
0
0
0
0
0
0
0
0
0
0
0
0
0
0
0
0
0
0
0
0
0
0
0
0
0
0
0
0
0
0
0
0
0
0
0
0
0
0
0
0
0
0
0
0
0
0
0
0
0
0
0
0
0
0
0
0
0
0
0
0
0
0
0
0
0
0
0
0
0
0
0
0
0
0
0
0
0
0
0
0
0
0
0
0
0
0
0
0
0
0
0
0
0
0
0
0
0
0
0
0
0
0
0
0
0
0
0
0
0
0
0
0
0
0
0
0
0
0
0
0
0
0
0
0
0
0
0
0
0
0
0
0
0
0
0
0
0
0
0
0
0
0
0
0
0
0
0
0
0
0
0
0
0
0
0
0
0
0
0
0
0
0
0
0
0
0
0
0
0
0
0
0
0
0
0
0
0
0
0
0
0
0
0
0
0
0
0
0
0
0
0
0
0
0
0
0
0
0
0
0
0
0
0
0
0
0
0
0
0
0
0
0
0
0
0
0
0
0
0
0
0
0
0
0
0
0
0
0
0
0
0
0
0
0
0
0
0
0
0
0
0
0
0
0
0
0
0
0
0
0
0
0
0
0
0
0
0
0
0
0
0
0
0
0
0
0
0
0
0
0
0
0
0
0
0
0
0
0
0
0
0
0
0
0
0
0
0
0
0
0
0
0
0
0
0
0
0
0
0
0
0
0
0
0
0
0
0
0
0
0
0
0
0
0
0
0
0
0
0
0
0
0
0
0
0
0
0
0
0
0
0
0
0
0
0
0
0
0
0
0
0
0
0
0
0
0
0
0
0
0
0
0
0
0
0
0
0
0
0
0
0
0
0
0
0
0
0
0
0
0
0
0
0
0
0
0
0
0
0
0
0
0
0
0
0
0
0
0
0
0
0
0
0
0
0
0
0
0
0
0
0
0
0
0
0
0
0
0
0
0
0
0
0
0
0
0
0
0
0
0
0
0
0
0
0
0
0
0
0
0
0
0
0
0
0
0
0
0
0
0
0
0
0
0
0
0
0
0
0
0
0
0
0
0
0
0
0
0
0
0
0
0
0
0
0
0
)
;

boundaryField
{
    Wall
    {
        type            zeroGradient;
    }
    frontAndBack
    {
        type            empty;
    }
    atmosphere
    {
        type            zeroGradient;
    }
}


// ************************************************************************* //
