/*--------------------------------*- C++ -*----------------------------------*\
| =========                 |                                                 |
| \\      /  F ield         | OpenFOAM: The Open Source CFD Toolbox           |
|  \\    /   O peration     | Version:  3.0.1                                 |
|   \\  /    A nd           | Web:      www.OpenFOAM.org                      |
|    \\/     M anipulation  |                                                 |
\*---------------------------------------------------------------------------*/
FoamFile
{
    version     2.0;
    format      ascii;
    class       surfaceScalarField;
    location    "22";
    object      phi;
}
// * * * * * * * * * * * * * * * * * * * * * * * * * * * * * * * * * * * * * //

dimensions      [0 3 -1 0 0 0 0];

internalField   nonuniform List<scalar> 
1540
(
3.1913569e-10
1.9436573e-08
3.6389938e-10
1.9721749e-08
3.2527801e-10
1.9806152e-08
2.6517884e-10
1.9827527e-08
2.0703648e-10
1.9825577e-08
1.5637784e-10
1.981825e-08
1.1239645e-10
1.9811768e-08
7.2885407e-11
1.9807466e-08
3.5884136e-11
1.9805071e-08
-1.3393922e-14
1.9804021e-08
-3.5914029e-11
1.9804016e-08
-7.292436e-11
1.9805055e-08
-1.1245078e-10
1.9807441e-08
-1.5645167e-10
1.9811733e-08
-2.0713147e-10
1.9818206e-08
-2.6529234e-10
1.9825528e-08
-3.2540077e-10
1.9827473e-08
-3.6402882e-10
1.9806093e-08
-3.1926385e-10
1.9721701e-08
1.9436527e-08
1.7162539e-10
3.9150345e-08
2.7524322e-10
3.950676e-08
2.7662233e-10
3.970098e-08
2.4008352e-10
3.9760436e-08
1.9430197e-10
3.9767187e-08
1.4967301e-10
3.9758195e-08
1.0860829e-10
3.9747827e-08
7.072332e-11
3.9740175e-08
3.4876963e-11
3.973566e-08
-2.3143109e-14
3.973363e-08
-3.4925535e-11
3.973362e-08
-7.0777831e-11
3.9735629e-08
-1.0867344e-10
3.9740126e-08
-1.4975006e-10
3.974776e-08
-1.9439106e-10
3.9758116e-08
-2.4018259e-10
3.9767102e-08
-2.7672733e-10
3.9760352e-08
-2.7535097e-10
3.9700903e-08
-1.7171406e-10
3.9506703e-08
3.9150315e-08
2.5774134e-10
5.9104668e-08
2.8820549e-10
5.9694108e-08
2.6144252e-10
5.9946078e-08
2.1876726e-10
6.0021337e-08
1.7548744e-10
6.002769e-08
1.3551981e-10
6.0014326e-08
9.8870235e-11
5.999988e-08
6.4787969e-11
5.9989191e-08
3.2068688e-11
5.9983049e-08
-3.7527078e-14
5.9980287e-08
-3.2144799e-11
5.9980273e-08
-6.4866887e-11
5.9983006e-08
-9.8956478e-11
5.9989127e-08
-1.3560955e-10
5.9999792e-08
-1.7557977e-10
6.0014226e-08
-2.1885967e-10
6.0027589e-08
-2.6153139e-10
6.0021245e-08
-2.8828481e-10
5.9946007e-08
-2.5779501e-10
5.9694071e-08
5.9104676e-08
2.6157532e-10
7.9812961e-08
2.7862795e-10
8.0631955e-08
2.3655189e-10
8.0935649e-08
1.9057686e-10
8.1026961e-08
1.5130847e-10
8.1025283e-08
1.1746663e-10
8.1005034e-08
8.6977494e-11
8.0986124e-08
5.7503308e-11
8.0973669e-08
2.8639525e-11
8.0966482e-08
-5.2780482e-14
8.0963347e-08
-2.8747933e-11
8.0963334e-08
-5.7608744e-11
8.0966431e-08
-8.7076014e-11
8.0973593e-08
-1.1756428e-10
8.0986031e-08
-1.5139873e-10
8.100493e-08
-1.9065489e-10
8.1025181e-08
-2.3661448e-10
8.1026874e-08
-2.7866912e-10
8.0935589e-08
-2.6158437e-10
8.0631933e-08
7.9812984e-08
2.4535452e-10
1.0189469e-07
2.5114632e-10
1.0292121e-07
2.0747681e-10
1.0325965e-07
1.5652305e-10
1.0335241e-07
1.2352917e-10
1.0333111e-07
9.7366878e-11
1.033022e-07
7.360965e-11
1.0327942e-07
4.9906865e-11
1.0326586e-07
2.5278263e-11
1.0325895e-07
-6.8371673e-14
1.0325623e-07
-2.5409722e-11
1.0325621e-07
-5.0038882e-11
1.0325891e-07
-7.3731915e-11
1.0326578e-07
-9.7471336e-11
1.0327932e-07
-1.2361202e-10
1.033021e-07
-1.5658067e-10
1.0333101e-07
-2.0750723e-10
1.0335233e-07
-2.5114657e-10
1.0325959e-07
-2.4532198e-10
1.0292118e-07
1.0189469e-07
2.4095265e-10
1.2602459e-07
2.1721841e-10
1.2724527e-07
1.6610777e-10
1.2757686e-07
1.137281e-10
1.2764683e-07
9.1658348e-11
1.2759347e-07
7.7116208e-11
1.2755477e-07
6.2359686e-11
1.2753028e-07
4.4374307e-11
1.275185e-07
2.3110694e-11
1.2751394e-07
-8.2082411e-14
1.2751269e-07
-2.3276274e-11
1.2751268e-07
-4.4525544e-11
1.275139e-07
-6.2493609e-11
1.2751843e-07
-7.7225272e-11
1.275302e-07
-9.1734399e-11
1.2755468e-07
-1.1376865e-10
1.2759338e-07
-1.6611136e-10
1.2764674e-07
-2.1719e-10
1.2757679e-07
-2.4089907e-10
1.2724521e-07
1.2602453e-07
2.0892211e-10
1.5286206e-07
1.5053731e-10
1.5415281e-07
9.1144077e-11
1.5450831e-07
4.7500943e-11
1.5453102e-07
5.5352367e-11
1.544246e-07
5.9847815e-11
1.5438609e-07
5.6324087e-11
1.5436691e-07
4.3324828e-11
1.5436249e-07
2.3436489e-11
1.5436342e-07
-9.218888e-14
1.543651e-07
-2.3608402e-11
1.5436509e-07
-4.3488109e-11
1.5436339e-07
-5.6465985e-11
1.5436244e-07
-5.9956964e-11
1.5436684e-07
-5.5422979e-11
1.5438601e-07
-4.7530899e-11
1.5442452e-07
-9.113909e-11
1.5453093e-07
-1.505061e-10
1.5450821e-07
-2.0887037e-10
1.5415269e-07
1.5286194e-07
6.4373313e-11
1.8269581e-07
2.3776062e-11
1.8395491e-07
-1.3606058e-11
1.8424691e-07
-5.0387697e-11
1.8423821e-07
2.243689e-11
1.8414137e-07
5.3709374e-11
1.841382e-07
6.0969812e-11
1.8413847e-07
5.0334361e-11
1.8414853e-07
2.8041279e-11
1.8415887e-07
-9.6539026e-14
1.8416528e-07
-2.8232268e-11
1.8416527e-07
-5.0505017e-11
1.8415885e-07
-6.1112072e-11
1.8414849e-07
-5.3816433e-11
1.8413843e-07
-2.2508046e-11
1.8413814e-07
5.0353737e-11
1.841413e-07
1.360262e-11
1.8423813e-07
-2.37545e-11
1.8424681e-07
-6.4349867e-11
1.8395479e-07
1.8269566e-07
-1.8194034e-10
2.1565021e-07
-2.0885528e-10
2.1664127e-07
-1.6347502e-10
2.1682816e-07
-1.2062839e-10
2.1679356e-07
2.1628589e-11
2.1669707e-07
7.2349403e-11
2.1676384e-07
8.4673124e-11
2.1679339e-07
6.9419867e-11
2.1682476e-07
3.8549638e-11
2.1684673e-07
-9.199254e-14
2.1685893e-07
-3.8727507e-11
2.1685893e-07
-6.9582214e-11
2.1684673e-07
-8.4811628e-11
2.1682475e-07
-7.2456791e-11
2.1679338e-07
-2.1703613e-11
2.1676383e-07
1.2058435e-10
2.1669704e-07
1.6345588e-10
2.1679352e-07
2.0885138e-10
2.168281e-07
1.8194531e-10
2.1664118e-07
2.1565009e-07
-7.190735e-10
2.4484947e-07
-5.5219705e-10
2.45409e-07
-3.1933518e-10
2.4564431e-07
-1.9127206e-10
2.4569972e-07
8.212504e-11
2.4568607e-07
1.2304573e-10
2.4571175e-07
1.2595668e-10
2.4576977e-07
1.0144848e-10
2.4582224e-07
5.5687377e-11
2.4586106e-07
-7.7916608e-14
2.4588118e-07
-5.5839817e-11
2.4588119e-07
-1.0158866e-10
2.4586108e-07
-1.2607746e-10
2.4582228e-07
-1.2314322e-10
2.4576982e-07
-8.2197612e-11
2.4571181e-07
1.9121887e-10
2.4568612e-07
3.1929825e-10
2.4569976e-07
5.5217035e-10
2.4564434e-07
7.1905792e-10
2.4540902e-07
2.4484947e-07
-1.2048129e-09
2.7530494e-07
-7.4508458e-10
2.7436192e-07
-3.3989641e-10
2.742253e-07
-1.5047498e-10
2.7440827e-07
1.0833156e-10
2.7480548e-07
1.9414253e-10
2.7497382e-07
1.9561924e-10
2.7509104e-07
1.4852544e-10
2.7517759e-07
7.9134835e-11
2.7523192e-07
-5.5767738e-14
2.7525915e-07
-7.9244116e-11
2.7525917e-07
-1.486287e-10
2.7523198e-07
-1.9571388e-10
2.7517768e-07
-1.9422694e-10
2.7509116e-07
-1.0840325e-10
2.7497396e-07
1.5041863e-10
2.7480562e-07
3.3985519e-10
2.7440841e-07
7.4505557e-10
2.7422546e-07
1.2047969e-09
2.7436209e-07
2.7530515e-07
-1.1002719e-09
2.9367867e-07
-6.2716517e-10
2.955643e-07
-9.5604954e-11
2.9688222e-07
2.8093506e-10
2.9773767e-07
2.8550812e-10
2.9839892e-07
3.3279492e-10
2.9859816e-07
2.8759499e-10
2.9882184e-07
2.054226e-10
2.9894484e-07
1.0619238e-10
2.9901238e-07
-3.4164423e-14
2.9904285e-07
-1.0626034e-10
2.9904289e-07
-2.0548986e-10
2.9901248e-07
-2.8766039e-10
2.9894499e-07
-3.3285444e-10
2.9882204e-07
-2.855555e-10
2.9859839e-07
-2.8098077e-10
2.9839919e-07
9.5577345e-11
2.9773794e-07
6.2715786e-10
2.9688252e-07
1.1002886e-09
2.9556465e-07
2.9367916e-07
5.20908e-09
2.8113407e-07
3.2480071e-09
2.9035034e-07
2.1774255e-09
2.9101119e-07
1.5270799e-09
2.9151675e-07
1.1455652e-09
2.9191231e-07
8.710008e-10
2.9199565e-07
6.284667e-10
2.9217615e-07
4.086997e-10
2.9226733e-07
2.0000185e-10
2.9231771e-07
-3.6312474e-14
2.9233628e-07
-2.0007288e-10
2.9233631e-07
-4.0877041e-10
2.9231782e-07
-6.2853575e-10
2.922675e-07
-8.7106497e-10
2.9217637e-07
-1.1456224e-09
2.919959e-07
-1.5271216e-09
2.919126e-07
-2.1774513e-09
2.9151705e-07
-3.2480129e-09
2.9101152e-07
-5.2090586e-09
2.9035073e-07
2.8113467e-07
3.6980972e-08
2.4294367e-07
3.0979498e-08
2.9467746e-07
2.1836087e-08
2.9837711e-07
1.5023886e-08
2.9651771e-07
1.0367171e-08
2.9472632e-07
7.0889242e-09
2.9341588e-07
4.7291416e-09
2.9266746e-07
2.9017878e-09
2.9222059e-07
1.3778973e-09
2.9196464e-07
-2.1536772e-13
2.918363e-07
-1.3783283e-09
2.9183633e-07
-2.9021985e-09
2.9196475e-07
-4.7295292e-09
2.9222076e-07
-7.0892775e-09
2.9266765e-07
-1.036747e-08
2.934161e-07
-1.5024118e-08
2.9472654e-07
-2.1836244e-08
2.9651796e-07
-3.0979571e-08
2.9837739e-07
-3.6980986e-08
2.9467783e-07
2.4294427e-07
4.9760766e-08
1.9316376e-07
6.0226058e-08
2.8417045e-07
5.3635575e-08
3.0491886e-07
4.2840067e-08
3.0726304e-07
3.2406171e-08
3.0510911e-07
2.3512039e-08
3.0225843e-07
1.6210132e-08
2.9991742e-07
1.0139091e-08
2.9823955e-07
4.8730991e-09
2.9717846e-07
-3.8593736e-13
2.9665759e-07
-4.8738552e-09
2.9665761e-07
-1.0139843e-08
2.9717855e-07
-1.6210853e-08
2.9823968e-07
-2.3512693e-08
2.9991759e-07
-3.2406741e-08
3.0225864e-07
-4.2840518e-08
3.0510933e-07
-5.3635877e-08
3.0726326e-07
-6.0226227e-08
3.0491912e-07
-4.9760796e-08
2.8417078e-07
1.9316423e-07
3.761341e-08
1.5555047e-07
5.5520623e-08
2.6626322e-07
5.6809535e-08
3.036299e-07
5.0130201e-08
3.1394216e-07
4.0769302e-08
3.1446984e-07
3.1155556e-08
3.1187197e-07
2.2257897e-08
3.088149e-07
1.4245209e-08
3.0625202e-07
6.934842e-09
3.0448868e-07
-3.0083531e-13
3.0359254e-07
-6.9354204e-09
3.0359257e-07
-1.4245782e-08
3.0448874e-07
-2.2258431e-08
3.0625214e-07
-3.1156049e-08
3.0881503e-07
-4.0769707e-08
3.1187212e-07
-5.0130555e-08
3.1447001e-07
-5.6809743e-08
3.1394239e-07
-5.5520725e-08
3.0363015e-07
-3.7613391e-08
2.6626351e-07
1.5555084e-07
2.4536375e-08
1.3101421e-07
4.2416345e-08
2.4838334e-07
4.8418167e-08
2.9762812e-07
4.6366902e-08
3.1599344e-07
4.010598e-08
3.2073073e-07
3.2106506e-08
3.1987142e-07
2.3722955e-08
3.1719842e-07
1.5533515e-08
3.1444144e-07
7.6635903e-09
3.1235863e-07
-2.295415e-13
3.112564e-07
-7.6640734e-09
3.1125641e-07
-1.5534009e-08
3.1235867e-07
-2.3723407e-08
3.1444152e-07
-3.2106936e-08
3.1719853e-07
-4.0106329e-08
3.1987153e-07
-4.6367188e-08
3.2073092e-07
-4.8418325e-08
3.1599365e-07
-4.2416407e-08
2.9762833e-07
-2.4536377e-08
2.4838356e-07
1.3101449e-07
1.4915306e-08
1.1609894e-07
2.9671962e-08
2.3362666e-07
3.7235258e-08
2.9006481e-07
3.8270747e-08
3.1495791e-07
3.4945222e-08
3.2405622e-07
2.9163652e-08
3.2565295e-07
2.2225186e-08
3.2413685e-07
1.4868165e-08
3.217985e-07
7.429273e-09
3.1979755e-07
-1.8923486e-13
3.186859e-07
-7.4296778e-09
3.1868589e-07
-1.4868541e-08
3.1979756e-07
-2.2225582e-08
3.217985e-07
-2.9163993e-08
3.2413692e-07
-3.4945514e-08
3.2565307e-07
-3.8270971e-08
3.2405636e-07
-3.7235398e-08
3.149581e-07
-2.9672047e-08
2.9006501e-07
-1.4915313e-08
2.3362688e-07
1.1609919e-07
8.7614543e-09
1.0733745e-07
1.9745054e-08
2.2264301e-07
2.6944264e-08
2.8286553e-07
2.9477495e-08
3.1242465e-07
2.8244083e-08
3.2528956e-07
2.446667e-08
3.2943034e-07
1.9175189e-08
3.2942832e-07
1.3081279e-08
3.2789239e-07
6.6125433e-09
3.2626627e-07
-1.5875382e-13
3.2529861e-07
-6.6128758e-09
3.252986e-07
-1.3081598e-08
3.2626626e-07
-1.9175484e-08
3.2789237e-07
-2.4466954e-08
3.2942833e-07
-2.8244329e-08
3.2943039e-07
-2.947768e-08
3.2528966e-07
-2.6944407e-08
3.1242481e-07
-1.9745148e-08
2.8286573e-07
-8.7614872e-09
2.2264322e-07
1.0733767e-07
5.1120675e-09
1.0222531e-07
1.2780672e-08
2.1497429e-07
1.874642e-08
2.7689969e-07
2.1664488e-08
3.0950649e-07
2.1665931e-08
3.2528802e-07
1.9405489e-08
3.3169071e-07
1.5597172e-08
3.332366e-07
1.0830398e-08
3.3265914e-07
5.532229e-09
3.3156439e-07
-1.2922238e-13
3.3083096e-07
-5.5324858e-09
3.3083094e-07
-1.0830613e-08
3.3156434e-07
-1.55974e-08
3.3265908e-07
-1.9405693e-08
3.3323657e-07
-2.1666135e-08
3.3169075e-07
-2.1664624e-08
3.2528812e-07
-1.8746564e-08
3.0950664e-07
-1.2780751e-08
2.768999e-07
-5.1121216e-09
2.1497453e-07
1.0222553e-07
3.0038864e-09
9.922132e-08
8.145513e-09
2.098326e-07
1.2690883e-08
2.723542e-07
1.538246e-08
3.0681485e-07
1.5979249e-08
3.2469117e-07
1.474687e-08
3.3292301e-07
1.2125441e-08
3.3585797e-07
8.5555217e-09
3.3622903e-07
4.411684e-09
3.3570817e-07
-1.0907639e-13
3.352427e-07
-4.4118917e-09
3.3524267e-07
-8.5556979e-09
3.3570812e-07
-1.2125634e-08
3.3622894e-07
-1.4747018e-08
3.3585793e-07
-1.597938e-08
3.3292301e-07
-1.5382579e-08
3.2469126e-07
-1.2690997e-08
3.0681501e-07
-8.1455972e-09
2.7235442e-07
-3.0039584e-09
2.0983285e-07
9.9221583e-08
1.7812046e-09
9.7440045e-08
5.1372211e-09
2.0647652e-07
8.4121691e-09
2.6907922e-07
1.0626681e-08
3.0460026e-07
1.1418541e-08
3.2389927e-07
1.0825782e-08
3.3351572e-07
9.0866789e-09
3.3759702e-07
6.5052601e-09
3.3881038e-07
3.3833377e-09
3.3883007e-07
-8.8212275e-14
3.3862607e-07
-3.3835052e-09
3.3862607e-07
-6.5054058e-09
3.3883001e-07
-9.0867896e-09
3.3881033e-07
-1.0825905e-08
3.3759699e-07
-1.1418639e-08
3.3351574e-07
-1.0626772e-08
3.2389938e-07
-8.4122339e-09
3.0460048e-07
-5.1372864e-09
2.6907947e-07
-1.7812689e-09
2.0647681e-07
9.7440347e-08
1.0619648e-09
9.637808e-08
3.2098385e-09
2.0432865e-07
5.4767317e-09
2.6681237e-07
7.1721687e-09
3.0290482e-07
7.9434053e-09
3.23128e-07
7.717512e-09
3.3374162e-07
6.6007816e-09
3.3871373e-07
4.7888931e-09
3.4062227e-07
2.5102816e-09
3.4110866e-07
-8.0290868e-14
3.4113644e-07
-2.5104376e-09
3.4113641e-07
-4.7890085e-09
3.4110859e-07
-6.6008819e-09
3.406222e-07
-7.7176015e-09
3.3871371e-07
-7.9434573e-09
3.3374165e-07
-7.1722138e-09
3.2312816e-07
-5.4767624e-09
3.0290502e-07
-3.2098955e-09
2.6681264e-07
-1.0619811e-09
2.0432898e-07
9.6378409e-08
6.3272233e-10
9.5745414e-08
1.9849221e-09
2.0297648e-07
3.5064485e-09
2.652909e-07
4.7401859e-09
3.0167112e-07
5.3956319e-09
3.2247262e-07
5.3610678e-09
3.3377619e-07
4.6656683e-09
3.3940916e-07
3.4268946e-09
3.4186102e-07
1.8094564e-09
3.427261e-07
-8.6165013e-14
3.4294598e-07
-1.8095917e-09
3.4294598e-07
-3.4269946e-09
3.4272605e-07
-4.665741e-09
3.4186099e-07
-5.3611504e-09
3.3940916e-07
-5.395656e-09
3.3377625e-07
-4.7402112e-09
3.2247277e-07
-3.5064635e-09
3.0167133e-07
-1.9849397e-09
2.6529115e-07
-6.3270346e-10
2.0297683e-07
9.5745731e-08
3.7386469e-10
9.5371643e-08
1.2116519e-09
2.0213877e-07
2.2073287e-09
2.642953e-07
3.0710662e-09
3.0080745e-07
3.5849729e-09
3.2195877e-07
3.6371152e-09
3.3372408e-07
3.2171815e-09
3.3982911e-07
2.3904732e-09
3.4268778e-07
1.2708575e-09
3.4384572e-07
-8.3475206e-14
3.4421694e-07
-1.2709901e-09
3.4421693e-07
-2.390578e-09
3.438457e-07
-3.2172675e-09
3.4268776e-07
-3.637184e-09
3.3982913e-07
-3.5849809e-09
3.3372414e-07
-3.071073e-09
3.2195891e-07
-2.2073368e-09
3.0080767e-07
-1.2116415e-09
2.6429556e-07
-3.7384918e-10
2.021391e-07
9.5371934e-08
2.1714504e-10
9.5154599e-08
7.2719513e-10
2.0162883e-07
1.364186e-09
2.6365839e-07
1.9503247e-09
3.0022142e-07
2.3317253e-09
3.2157744e-07
2.4130632e-09
3.3364279e-07
2.1677726e-09
3.4007445e-07
1.6285408e-09
3.4322702e-07
8.7146403e-10
3.4460282e-07
-7.9363242e-14
3.4508852e-07
-8.7158803e-10
3.4508852e-07
-1.6286641e-09
3.446028e-07
-2.167852e-09
3.4322702e-07
-2.4131199e-09
3.4007449e-07
-2.3317454e-09
3.3364287e-07
-1.9503136e-09
3.2157759e-07
-1.3641977e-09
3.0022161e-07
-7.2719206e-10
2.6365863e-07
-2.1711059e-10
2.0162911e-07
9.5154843e-08
1.2262116e-10
9.503206e-08
4.266634e-10
2.0132485e-07
8.2540078e-10
2.6325972e-07
1.2126455e-09
2.9983423e-07
1.4843879e-09
3.2130574e-07
1.5663571e-09
3.3356085e-07
1.4285794e-09
3.4021225e-07
1.0848151e-09
3.4357079e-07
5.8420502e-10
3.4510346e-07
-6.570599e-14
3.4567281e-07
-5.8435544e-10
3.4567282e-07
-1.0849329e-09
3.4510346e-07
-1.4286551e-09
3.4357082e-07
-1.5664154e-09
3.4021229e-07
-1.4844037e-09
3.3356094e-07
-1.2126391e-09
3.2130589e-07
-8.2537843e-10
2.9983444e-07
-4.2662538e-10
2.6325997e-07
-1.2258068e-10
2.0132511e-07
9.5032296e-08
6.620917e-11
9.4965906e-08
2.4262669e-10
2.0114847e-07
4.8655542e-10
2.6301581e-07
7.3628981e-10
2.9958451e-07
9.2374433e-10
3.2111832e-07
9.9434719e-10
3.3349027e-07
9.2085463e-10
3.4028575e-07
7.068355e-10
3.4378481e-07
3.830847e-10
3.4542723e-07
-7.7398752e-14
3.4605598e-07
-3.8323183e-10
3.4605599e-07
-7.0697466e-10
3.4542723e-07
-9.209453e-10
3.437848e-07
-9.9440643e-10
3.4028577e-07
-9.2378313e-10
3.3349037e-07
-7.3627707e-10
3.2111846e-07
-4.8653098e-10
2.9958471e-07
-2.4260563e-10
2.6301604e-07
-6.6170564e-11
2.0114873e-07
9.4966118e-08
3.3153563e-11
9.4932779e-08
1.3182034e-10
2.0104983e-07
2.7720586e-10
2.6287041e-07
4.3454747e-10
2.9942716e-07
5.6040523e-10
3.2099243e-07
6.1635545e-10
3.3343434e-07
5.8009473e-10
3.4032198e-07
4.502949e-10
3.4391456e-07
2.4565125e-10
3.4563186e-07
-8.9702947e-14
3.4630168e-07
-2.4579346e-10
3.463017e-07
-4.5044891e-10
3.4563184e-07
-5.8020165e-10
3.439146e-07
-6.1641169e-10
3.4032204e-07
-5.6046885e-10
3.334344e-07
-4.3455688e-10
3.2099256e-07
-2.7719402e-10
2.9942734e-07
-1.317938e-10
2.6287065e-07
-3.313592e-11
2.0105006e-07
9.4932954e-08
1.4338166e-11
9.4918405e-08
6.6582712e-11
2.0099754e-07
1.504995e-10
2.6278644e-07
2.472814e-10
2.9933032e-07
3.2983012e-10
3.2090981e-07
3.7187094e-10
3.3339222e-07
3.563843e-10
3.4033745e-07
2.8007416e-10
3.4399085e-07
1.5384881e-10
3.4575799e-07
-7.8132434e-14
3.4645557e-07
-1.5402032e-10
3.4645558e-07
-2.8019473e-10
3.45758e-07
-3.5650731e-10
3.4399085e-07
-3.719859e-10
3.4033748e-07
-3.2991213e-10
3.333923e-07
-2.473045e-10
3.2090995e-07
-1.5051741e-10
2.9933052e-07
-6.6572944e-11
2.6278667e-07
-1.4335918e-11
2.0099775e-07
9.4918598e-08
3.9492004e-12
9.491439e-08
2.933466e-11
2.009721e-07
7.5772103e-11
2.6273991e-07
1.3374208e-10
2.992723e-07
1.8673138e-10
3.2085674e-07
2.1722439e-10
3.3336166e-07
2.1270075e-10
3.4034187e-07
1.6955012e-10
3.4403395e-07
9.3883745e-11
3.4583357e-07
-8.7988829e-14
3.4654948e-07
-9.4054023e-11
3.4654949e-07
-1.6970613e-10
3.4583358e-07
-2.1285028e-10
3.4403394e-07
-2.1732088e-10
3.4034194e-07
-1.8680725e-10
3.3336171e-07
-1.3380058e-10
3.2085687e-07
-7.5824398e-11
2.9927248e-07
-2.9354054e-11
2.6274014e-07
-3.9766011e-12
2.0097231e-07
9.4914595e-08
-1.228488e-12
9.4915533e-08
8.9747169e-12
2.0096179e-07
3.3213492e-11
2.6271556e-07
6.6844387e-11
2.9923857e-07
1.0012913e-10
3.2082335e-07
1.2165276e-10
3.3334005e-07
1.2253199e-10
3.4034095e-07
9.9412116e-11
3.4405696e-07
5.5590985e-11
3.4587733e-07
-8.6763335e-14
3.4660505e-07
-5.576644e-11
3.4660503e-07
-9.9573811e-11
3.4587732e-07
-1.2267465e-10
3.4405698e-07
-1.2179825e-10
3.4034098e-07
-1.0024872e-10
3.3334011e-07
-6.6934554e-11
3.2082348e-07
-3.32729e-11
2.9923877e-07
-9.0223354e-12
2.6271579e-07
1.2095901e-12
2.0096201e-07
9.491572e-08
-3.3277075e-12
9.4918752e-08
-1.2584995e-12
2.0095962e-07
1.0186096e-11
2.6270401e-07
2.8943914e-11
2.992197e-07
4.9417561e-11
3.208028e-07
6.4274917e-11
3.3332509e-07
6.7386964e-11
3.4033776e-07
5.5979843e-11
3.4406827e-07
3.1701737e-11
3.4590155e-07
-1.0208713e-13
3.4663678e-07
-3.1877607e-11
3.4663677e-07
-5.6163275e-11
3.4590153e-07
-6.7532411e-11
3.4406828e-07
-6.4429462e-11
3.4033777e-07
-4.9549236e-11
3.3332512e-07
-2.9072467e-11
3.208029e-07
-1.0279136e-11
2.9921988e-07
1.2110016e-12
2.6270423e-07
3.287531e-12
2.0095985e-07
9.4918961e-08
-3.7626919e-12
9.4922423e-08
-5.5485983e-12
2.0096128e-07
-1.227603e-12
2.6269961e-07
8.7517257e-12
2.9920964e-07
2.1010277e-11
3.2079045e-07
3.1071062e-11
3.3331498e-07
3.4737292e-11
3.4033402e-07
2.9888396e-11
3.4407303e-07
1.7205556e-11
3.4591414e-07
-1.1821901e-13
3.46654e-07
-1.7401277e-11
3.4665399e-07
-3.0079199e-11
3.4591411e-07
-3.4910256e-11
3.44073e-07
-3.1233649e-11
3.4033401e-07
-2.1153262e-11
3.3331499e-07
-8.8707933e-12
3.2079053e-07
1.1397101e-12
2.9920978e-07
5.4796554e-12
2.6269977e-07
3.7130014e-12
2.009615e-07
9.4922645e-08
-3.3512916e-12
9.4925676e-08
-6.3785126e-12
2.0096423e-07
-5.7353374e-12
2.6269886e-07
-9.0540758e-13
2.9920474e-07
6.2649189e-12
3.207832e-07
1.2885506e-11
3.3330828e-07
1.625404e-11
3.4033056e-07
1.4823317e-11
3.4407439e-07
8.7670166e-12
3.4592013e-07
-1.2647391e-13
3.4666278e-07
-8.9800933e-12
3.4666277e-07
-1.5039562e-11
3.459201e-07
-1.6454436e-11
3.4407436e-07
-1.3063068e-11
3.4033052e-07
-6.4352307e-12
3.3330827e-07
7.7954001e-13
3.2078324e-07
5.6211372e-12
2.9920482e-07
6.2999081e-12
2.6269898e-07
3.293184e-12
2.009644e-07
9.492589e-08
-2.4707344e-12
9.4928098e-08
-5.3000634e-12
2.00967e-07
-6.1466768e-12
2.6269966e-07
-4.2441985e-12
2.9920276e-07
-3.1499633e-13
3.2077921e-07
3.872107e-12
3.3330404e-07
6.5506824e-12
3.4032783e-07
6.6351658e-12
3.4407425e-07
4.0816311e-12
3.4592263e-07
-1.2152592e-13
3.4666691e-07
-4.3380042e-12
3.4666689e-07
-6.8939616e-12
3.4592259e-07
-6.7704532e-12
3.440742e-07
-4.0908724e-12
3.4032777e-07
1.3016806e-13
3.3330399e-07
4.100161e-12
3.2077921e-07
6.068716e-12
2.9920279e-07
5.2416172e-12
2.6269972e-07
2.4307798e-12
2.0096713e-07
9.4928278e-08
-1.2983496e-12
9.492934e-08
-3.0168174e-12
2.009687e-07
-4.1885615e-12
2.6270074e-07
-3.8125727e-12
2.9920232e-07
-2.0105088e-12
3.2077734e-07
3.7505384e-13
3.3330161e-07
2.1768163e-12
3.4032596e-07
2.6711687e-12
3.4407372e-07
1.7273744e-12
3.4592355e-07
-1.438436e-13
3.4666874e-07
-2.0112491e-12
3.4666873e-07
-2.9657697e-12
3.459235e-07
-2.4508632e-12
3.4407365e-07
-6.1532899e-13
3.4032586e-07
1.8152064e-12
3.3330154e-07
3.6804099e-12
3.2077729e-07
4.0887776e-12
2.992023e-07
2.9576856e-12
2.6270075e-07
1.2700152e-12
2.0096877e-07
9.4929518e-08
4.4606498e-13
9.4928844e-08
1.7156546e-13
2.0096895e-07
-7.0592799e-13
2.6270158e-07
-1.1831936e-12
2.9920278e-07
-8.1790155e-13
3.2077694e-07
1.2399398e-13
3.3330065e-07
9.4229112e-13
3.4032507e-07
1.2484115e-12
3.4407342e-07
7.7472938e-13
3.4592398e-07
-1.4789236e-13
3.4666964e-07
-1.0950313e-12
3.4666961e-07
-1.5449278e-12
3.4592392e-07
-1.2313466e-12
3.4407331e-07
-3.6753456e-13
3.4032495e-07
6.0073765e-13
3.3330053e-07
1.0170832e-12
3.2077683e-07
5.8839076e-13
2.9920267e-07
-2.1881908e-13
2.6270153e-07
-4.8892033e-13
2.0096897e-07
9.4929017e-08
2.9364571e-12
9.4925883e-08
4.2453484e-12
2.009676e-07
3.5626938e-12
2.6270224e-07
2.4657966e-12
2.9920385e-07
1.7713788e-12
3.2077762e-07
1.5428113e-12
3.3330087e-07
1.4489037e-12
3.4032513e-07
1.1850902e-12
3.4407364e-07
6.1535647e-13
3.4592451e-07
-1.7438643e-13
3.4667042e-07
-9.5803458e-13
3.466704e-07
-1.5259943e-12
3.4592444e-07
-1.7483562e-12
3.4407355e-07
-1.7889931e-12
3.4032498e-07
-2.0052456e-12
3.3330068e-07
-2.6623107e-12
3.2077744e-07
-3.6989025e-12
2.9920368e-07
-4.3108109e-12
2.6270213e-07
-2.9608865e-12
2.0096759e-07
9.4926057e-08
4.4467287e-12
6.5944634e-12
6.340765e-12
5.2003336e-12
4.0367063e-12
3.1405206e-12
2.3855336e-12
1.6403769e-12
7.6864685e-13
-1.8013989e-13
-1.1310397e-12
-1.9802671e-12
-2.7293215e-12
-3.4302586e-12
-4.2937797e-12
-5.4042848e-12
-6.4877249e-12
-6.6636301e-12
-4.4685212e-12
)
;

boundaryField
{
    Wall
    {
        type            calculated;
        value           uniform 0;
    }
    frontAndBack
    {
        type            empty;
        value           nonuniform 0();
    }
    atmosphere
    {
        type            calculated;
        value           nonuniform List<scalar> 
20
(
9.4921439e-08
2.0096546e-07
2.6270247e-07
2.9920502e-07
3.207788e-07
3.3330179e-07
3.4032586e-07
3.440744e-07
3.4592536e-07
3.4667135e-07
3.4667132e-07
3.4592529e-07
3.4407426e-07
3.4032566e-07
3.3330154e-07
3.2077853e-07
2.9920477e-07
2.6270233e-07
2.0096537e-07
9.4921579e-08
)
;
    }
}


// ************************************************************************* //
