/*--------------------------------*- C++ -*----------------------------------*\
| =========                 |                                                 |
| \\      /  F ield         | OpenFOAM: The Open Source CFD Toolbox           |
|  \\    /   O peration     | Version:  3.0.1                                 |
|   \\  /    A nd           | Web:      www.OpenFOAM.org                      |
|    \\/     M anipulation  |                                                 |
\*---------------------------------------------------------------------------*/
FoamFile
{
    version     2.0;
    format      ascii;
    class       volScalarField;
    location    "22";
    object      Psi2;
}
// * * * * * * * * * * * * * * * * * * * * * * * * * * * * * * * * * * * * * //

dimensions      [0 -2 2 0 0 0 0];

internalField   nonuniform List<scalar> 
800
(
0.0011929041
0.0011928453
0.0011928412
0.0011928427
0.0011928442
0.0011928454
0.0011928461
0.0011928466
0.001192847
0.0011928471
0.0011928471
0.001192847
0.0011928466
0.0011928461
0.0011928454
0.0011928442
0.0011928427
0.0011928412
0.0011928453
0.0011929041
0.0012375445
0.001235796
0.00123554
0.0012355199
0.001235531
0.0012355343
0.0012355298
0.0012355223
0.0012355158
0.0012355121
0.0012355121
0.0012355158
0.0012355223
0.0012355298
0.0012355343
0.001235531
0.0012355199
0.0012355399
0.001235796
0.0012375445
0.0012807056
0.0012781711
0.0012774209
0.0012773513
0.001277355
0.0012773532
0.0012773407
0.0012773248
0.0012773116
0.0012773042
0.0012773042
0.0012773116
0.0012773248
0.0012773407
0.0012773532
0.001277355
0.0012773513
0.0012774208
0.001278171
0.0012807056
0.0013214136
0.0013180853
0.0013169157
0.0013168303
0.0013168354
0.0013168337
0.0013168164
0.0013167942
0.0013167757
0.0013167654
0.0013167654
0.0013167758
0.0013167943
0.0013168164
0.0013168337
0.0013168353
0.0013168302
0.0013169157
0.0013180852
0.0013214136
0.0013644122
0.0013600558
0.0013585342
0.0013580571
0.0013580744
0.0013580794
0.0013580607
0.001358034
0.0013580112
0.0013579984
0.0013579984
0.0013580112
0.001358034
0.0013580607
0.0013580793
0.0013580744
0.0013580571
0.0013585342
0.0013600557
0.0013644122
0.0014199923
0.0014131344
0.0014112611
0.0014103357
0.0014103737
0.0014103878
0.0014103673
0.0014103351
0.0014103068
0.0014102907
0.0014102907
0.0014103068
0.0014103351
0.0014103673
0.0014103878
0.0014103737
0.0014103357
0.0014112611
0.0014131344
0.0014199923
0.0015043517
0.0014920344
0.0014899697
0.0014886926
0.001488742
0.0014887532
0.0014887191
0.0014886723
0.0014886319
0.0014886094
0.0014886094
0.0014886319
0.0014886723
0.0014887191
0.0014887532
0.001488742
0.0014886926
0.0014899696
0.0014920344
0.0015043517
0.0016436467
0.0016225573
0.0016185379
0.0016168983
0.0016169123
0.0016168697
0.0016167831
0.0016166935
0.0016166235
0.0016165862
0.0016165862
0.0016166235
0.0016166936
0.0016167831
0.0016168697
0.0016169123
0.0016168983
0.0016185379
0.0016225574
0.0016436468
0.0018859791
0.0018481115
0.0018411534
0.0018387701
0.0018363654
0.0018361187
0.0018358781
0.0018356784
0.001835538
0.0018354668
0.0018354668
0.001835538
0.0018356785
0.0018358782
0.0018361188
0.0018363655
0.0018387702
0.0018411536
0.0018481116
0.0018859793
0.0022837154
0.0022256573
0.0022124619
0.0022084204
0.0022051451
0.0022044764
0.0022038847
0.0022034482
0.0022031673
0.00220303
0.00220303
0.0022031675
0.0022034484
0.002203885
0.0022044767
0.0022051453
0.0022084206
0.0022124622
0.0022256577
0.0022837159
0.0028914201
0.0028017068
0.0027748877
0.0027677372
0.0027638438
0.0027621762
0.0027610427
0.0027602672
0.0027597953
0.0027595699
0.00275957
0.0027597955
0.0027602675
0.0027610431
0.0027621766
0.0027638443
0.0027677376
0.0027748882
0.0028017074
0.0028914209
0.0038848658
0.0037205744
0.003672835
0.0036594792
0.0036445587
0.0036417651
0.0036401028
0.0036390361
0.0036384244
0.0036381429
0.003638143
0.0036384247
0.0036390365
0.0036401033
0.0036417657
0.0036445593
0.0036594799
0.0036728358
0.0037205752
0.0038848669
0.0052420081
0.0050091973
0.0049171172
0.0048895187
0.0048755684
0.0048726013
0.0048714311
0.0048708874
0.0048706637
0.0048706025
0.0048706026
0.004870664
0.004870888
0.0048714318
0.004872602
0.0048755692
0.0048895196
0.0049171181
0.0050091981
0.0052420092
0.0069729128
0.0065252633
0.0063461785
0.0062894658
0.0062757321
0.0062771865
0.006281025
0.0062842558
0.0062864193
0.0062875723
0.0062875725
0.0062864197
0.0062842565
0.0062810258
0.0062771873
0.0062757329
0.0062894667
0.0063461794
0.006525264
0.0069729134
0.0088759034
0.0080456909
0.0077388474
0.0076385241
0.0076218456
0.0076332536
0.0076490909
0.0076618283
0.0076701631
0.0076744046
0.0076744048
0.0076701637
0.0076618292
0.0076490919
0.0076332545
0.0076218465
0.007638525
0.0077388483
0.0080456915
0.0088759033
0.010229436
0.0093115662
0.0089180343
0.0087735405
0.00874451
0.0087599976
0.0087856403
0.0088078492
0.0088229488
0.0088306894
0.0088306898
0.0088229495
0.0088078503
0.0087856413
0.0087599984
0.0087445107
0.0087735412
0.0089180349
0.0093115666
0.010229435
0.010785112
0.010157584
0.0097863978
0.0096263384
0.0095839266
0.0095940101
0.0096199035
0.0096446226
0.0096622306
0.0096714275
0.0096714279
0.0096622314
0.0096446237
0.0096199044
0.0095940109
0.0095839272
0.0096263388
0.0097863982
0.010157585
0.010785112
0.010930659
0.010619244
0.010344637
0.010203093
0.010156132
0.010157785
0.010177095
0.010197798
0.010213268
0.010221512
0.010221513
0.010213269
0.010197799
0.010177096
0.010157785
0.010156133
0.010203094
0.010344637
0.010619244
0.010930659
0.010958959
0.010832122
0.010663036
0.010557972
0.010516168
0.010511946
0.010523432
0.010537705
0.010548917
0.010555014
0.010555015
0.010548918
0.010537706
0.010523433
0.010511946
0.010516169
0.010557972
0.010663036
0.010832122
0.010958959
0.010963516
0.010917988
0.010827406
0.010759256
0.010727605
0.010721286
0.010726871
0.010735403
0.010742485
0.010746417
0.010746418
0.010742486
0.010735404
0.010726871
0.010721286
0.010727605
0.010759256
0.010827406
0.010917988
0.010963516
0.010964164
0.01094919
0.010905596
0.010865827
0.010844628
0.010838764
0.010840906
0.010845465
0.010849499
0.010851788
0.010851788
0.010849499
0.010845466
0.010840906
0.010838765
0.010844628
0.010865827
0.010905596
0.01094919
0.010964164
0.010964249
0.010959637
0.010940356
0.010919045
0.010906151
0.010901759
0.010902271
0.010904486
0.010906601
0.010907831
0.010907831
0.010906601
0.010904486
0.010902271
0.010901759
0.010906151
0.010919045
0.010940356
0.010959637
0.010964249
0.01096426
0.010962912
0.010954949
0.01094431
0.010937058
0.010934182
0.01093409
0.010935075
0.01093611
0.010936728
0.010936728
0.01093611
0.010935075
0.01093409
0.010934182
0.010937058
0.01094431
0.010954949
0.010962912
0.01096426
0.010964261
0.010963885
0.010960778
0.010955779
0.01095196
0.010950251
0.010950024
0.010950424
0.0109509
0.010951194
0.010951194
0.0109509
0.010950424
0.010950024
0.010950251
0.01095196
0.010955779
0.010960778
0.010963885
0.010964261
0.010964261
0.01096416
0.010963006
0.010960777
0.010958878
0.010957936
0.010957742
0.010957888
0.010958095
0.010958228
0.010958228
0.010958095
0.010957888
0.010957742
0.010957936
0.010958878
0.010960777
0.010963006
0.01096416
0.010964261
0.010964261
0.010964235
0.010963824
0.010962876
0.010961977
0.010961491
0.010961362
0.010961408
0.010961494
0.010961551
0.010961551
0.010961494
0.010961408
0.010961362
0.010961491
0.010961977
0.010962876
0.010963824
0.010964235
0.010964261
0.010964261
0.010964254
0.010964114
0.010963727
0.010963321
0.010963083
0.010963008
0.010963019
0.010963053
0.010963076
0.010963076
0.010963053
0.010963019
0.010963008
0.010963083
0.010963321
0.010963727
0.010964114
0.010964254
0.010964261
0.010964261
0.010964259
0.010964213
0.010964061
0.010963885
0.010963774
0.010963734
0.010963735
0.010963747
0.010963757
0.010963757
0.010963747
0.010963735
0.010963734
0.010963774
0.010963885
0.010964061
0.010964213
0.010964259
0.010964261
0.010964261
0.010964261
0.010964246
0.010964188
0.010964115
0.010964065
0.010964045
0.010964044
0.010964048
0.010964052
0.010964052
0.010964048
0.010964044
0.010964045
0.010964065
0.010964115
0.010964188
0.010964246
0.010964261
0.010964261
0.010964261
0.010964261
0.010964256
0.010964235
0.010964206
0.010964184
0.010964175
0.010964174
0.010964175
0.010964176
0.010964176
0.010964175
0.010964174
0.010964175
0.010964184
0.010964206
0.010964235
0.010964256
0.010964261
0.010964261
0.010964261
0.010964261
0.01096426
0.010964252
0.01096424
0.010964232
0.010964228
0.010964227
0.010964227
0.010964228
0.010964228
0.010964227
0.010964227
0.010964228
0.010964232
0.01096424
0.010964252
0.01096426
0.010964261
0.010964261
0.010964261
0.010964261
0.010964261
0.010964258
0.010964254
0.01096425
0.010964248
0.010964248
0.010964248
0.010964248
0.010964248
0.010964248
0.010964248
0.010964248
0.01096425
0.010964254
0.010964258
0.010964261
0.010964261
0.010964261
0.010964261
0.010964261
0.010964261
0.01096426
0.010964258
0.010964257
0.010964256
0.010964256
0.010964256
0.010964256
0.010964256
0.010964256
0.010964256
0.010964256
0.010964257
0.010964258
0.01096426
0.010964261
0.010964261
0.010964261
0.010964261
0.010964261
0.010964261
0.010964261
0.01096426
0.01096426
0.010964259
0.010964259
0.010964259
0.010964259
0.010964259
0.010964259
0.010964259
0.010964259
0.01096426
0.01096426
0.010964261
0.010964261
0.010964261
0.010964261
0.010964261
0.010964261
0.010964261
0.010964261
0.010964261
0.010964261
0.01096426
0.01096426
0.01096426
0.01096426
0.01096426
0.01096426
0.01096426
0.01096426
0.010964261
0.010964261
0.010964261
0.010964261
0.010964261
0.010964261
0.010964261
0.010964261
0.010964261
0.010964261
0.010964261
0.010964261
0.010964261
0.010964261
0.010964261
0.010964261
0.010964261
0.010964261
0.010964261
0.010964261
0.010964261
0.010964261
0.010964261
0.010964261
0.010964261
0.010964261
0.010964261
0.010964261
0.010964261
0.010964261
0.010964261
0.010964261
0.010964261
0.010964261
0.010964261
0.010964261
0.010964261
0.010964261
0.010964261
0.010964261
0.010964261
0.010964261
0.010964261
0.010964261
0.010964261
0.010964261
0.010964261
0.010964261
0.010964261
0.010964261
0.010964261
0.010964261
0.010964261
0.010964261
0.010964261
0.010964261
0.010964261
0.010964261
0.010964261
0.010964261
0.010964261
0.010964261
0.010964261
0.010964261
0.010964261
0.010964261
0.010964261
0.010964261
0.010964261
0.010964261
0.010964261
0.010964261
0.010964261
0.010964261
0.010964261
0.010964261
0.010964261
0.010964261
0.010964261
0.010964261
0.010964261
0.010964261
0.010964261
0.010964261
0.010964261
0.010964261
0.010964261
0.010964261
0.010964261
0.010964261
0.010964261
0.010964261
0.010964261
0.010964261
0.010964261
0.010964261
0.010964261
0.010964261
0.010964261
0.010964261
0.010964261
0.010964261
0.010964261
0.010964261
0.010964261
0.010964261
)
;

boundaryField
{
    Wall
    {
        type            calculated;
        value           nonuniform List<scalar> 
100
(
9.9999997e-21
9.9999997e-21
9.9999997e-21
9.9999997e-21
9.9999997e-21
9.9999997e-21
9.9999997e-21
9.9999998e-21
9.9999998e-21
9.9999998e-21
9.9999998e-21
9.9999999e-21
1e-20
1e-20
1e-20
1e-20
1e-20
1e-20
1e-20
1e-20
1e-20
1e-20
1e-20
1e-20
1e-20
1e-20
1e-20
1e-20
1e-20
1e-20
1e-20
1e-20
1e-20
1e-20
1e-20
1e-20
1e-20
1e-20
1e-20
1e-20
9.9999997e-21
9.9999997e-21
9.9999997e-21
9.9999997e-21
9.9999997e-21
9.9999997e-21
9.9999997e-21
9.9999998e-21
9.9999998e-21
9.9999998e-21
9.9999998e-21
9.9999999e-21
1e-20
1e-20
1e-20
1e-20
1e-20
1e-20
1e-20
1e-20
1e-20
1e-20
1e-20
1e-20
1e-20
1e-20
1e-20
1e-20
1e-20
1e-20
1e-20
1e-20
1e-20
1e-20
1e-20
1e-20
1e-20
1e-20
1e-20
1e-20
9.9999997e-21
9.9999997e-21
9.9999997e-21
9.9999997e-21
9.9999997e-21
9.9999997e-21
9.9999997e-21
9.9999997e-21
9.9999997e-21
9.9999997e-21
9.9999997e-21
9.9999997e-21
9.9999997e-21
9.9999997e-21
9.9999997e-21
9.9999997e-21
9.9999997e-21
9.9999997e-21
9.9999997e-21
9.9999997e-21
)
;
    }
    frontAndBack
    {
        type            empty;
    }
    atmosphere
    {
        type            calculated;
        value           uniform 1e-20;
    }
}


// ************************************************************************* //
