/*--------------------------------*- C++ -*----------------------------------*\
| =========                 |                                                 |
| \\      /  F ield         | OpenFOAM: The Open Source CFD Toolbox           |
|  \\    /   O peration     | Version:  3.0.1                                 |
|   \\  /    A nd           | Web:      www.OpenFOAM.org                      |
|    \\/     M anipulation  |                                                 |
\*---------------------------------------------------------------------------*/
FoamFile
{
    version     2.0;
    format      ascii;
    class       volScalarField;
    location    "22";
    object      rho;
}
// * * * * * * * * * * * * * * * * * * * * * * * * * * * * * * * * * * * * * //

dimensions      [1 -3 0 0 0 0 0];

internalField   nonuniform List<scalar> 
800
(
119.29042
119.28453
119.28412
119.28428
119.28443
119.28454
119.28462
119.28467
119.2847
119.28472
119.28472
119.2847
119.28467
119.28462
119.28454
119.28443
119.28428
119.28412
119.28453
119.29042
123.75445
123.5796
123.554
123.552
123.55311
123.55344
123.55298
123.55223
123.55158
123.55121
123.55121
123.55158
123.55224
123.55298
123.55344
123.55311
123.552
123.554
123.5796
123.75445
128.07032
127.81688
127.74187
127.73491
127.73528
127.7351
127.73385
127.73226
127.73094
127.7302
127.7302
127.73094
127.73226
127.73385
127.7351
127.73528
127.73491
127.74186
127.81688
128.07032
132.14021
131.80747
131.69053
131.68198
131.68249
131.68232
131.68059
131.67837
131.67652
131.67549
131.67549
131.67652
131.67837
131.68059
131.68232
131.68248
131.68198
131.69052
131.80746
132.14021
136.43795
136.00258
135.85047
135.80275
135.80448
135.80497
135.8031
135.80043
135.79815
135.79687
135.79687
135.79815
135.80043
135.8031
135.80497
135.80447
135.80275
135.85046
136.00257
136.43795
141.99183
141.30672
141.11949
141.02695
141.03073
141.03214
141.03008
141.02686
141.02403
141.02242
141.02242
141.02403
141.02687
141.03008
141.03213
141.03073
141.02695
141.11948
141.30671
141.99183
150.41992
149.18979
148.98354
148.85584
148.86076
148.86186
148.85845
148.85377
148.84973
148.84748
148.84748
148.84974
148.85377
148.85845
148.86186
148.86076
148.85584
148.98353
149.18979
150.41992
164.33199
162.22732
161.826
161.66212
161.6635
161.65923
161.65057
161.64162
161.63462
161.63089
161.63089
161.63462
161.64162
161.65057
161.65923
161.6635
161.66212
161.826
162.22732
164.332
188.50718
184.73683
184.04386
183.80613
183.56589
183.5413
183.51728
183.49734
183.4833
183.47619
183.47619
183.48331
183.49735
183.51729
183.54131
183.5659
183.80614
184.04387
184.73684
188.5072
227.89616
222.21268
220.91878
220.52136
220.19677
220.13106
220.07244
220.02899
220.001
219.98727
219.98728
220.00101
220.02901
220.07246
220.13108
220.1968
220.52139
220.9188
222.21272
227.89622
280.70526
274.86777
272.84487
272.32521
272.0182
271.88631
271.78751
271.71485
271.66888
271.64617
271.64617
271.66891
271.71488
271.78756
271.88636
272.01826
272.32528
272.84494
274.86785
280.70539
216.67561
240.20385
245.87509
247.89093
248.22573
248.55575
248.64969
248.63174
248.59278
248.56156
248.56158
248.59284
248.63184
248.64985
248.55597
248.22601
247.89127
245.87545
240.20426
216.67606
39.191901
53.993647
58.258245
59.716602
60.414756
60.697258
60.81065
60.834654
60.830627
60.820323
60.820333
60.830656
60.834708
60.810738
60.697384
60.414916
59.716788
58.258444
53.993859
39.192074
2.236417
3.17406
3.5243351
3.6278111
3.6787879
3.697936
3.7055447
3.7069261
3.7063714
3.7054273
3.705428
3.7063735
3.7069299
3.705551
3.697945
3.6787995
3.6278244
3.5243491
3.1740736
2.236425
1.202422
1.2084094
1.2115186
1.2122485
1.2124685
1.2125044
1.2124881
1.2124528
1.2124218
1.2124015
1.2124015
1.2124219
1.2124529
1.2124881
1.2125044
1.2124686
1.2122486
1.2115187
1.2084095
1.202422
1.2000006
1.2000028
1.200005
1.2000054
1.2000055
1.2000054
1.2000053
1.2000052
1.2000052
1.2000052
1.2000052
1.2000052
1.2000052
1.2000053
1.2000054
1.2000055
1.2000054
1.200005
1.2000028
1.2000006
1.2000002
1.2000006
1.2000007
1.2000008
1.2000008
1.2000008
1.2000008
1.2000008
1.2000008
1.2000008
1.2000008
1.2000008
1.2000008
1.2000008
1.2000008
1.2000008
1.2000008
1.2000007
1.2000006
1.2000002
1.2000001
1.2000004
1.2000006
1.2000006
1.2000007
1.2000007
1.2000007
1.2000007
1.2000007
1.2000007
1.2000007
1.2000007
1.2000007
1.2000007
1.2000007
1.2000007
1.2000006
1.2000006
1.2000004
1.2000001
1.2
1.2000002
1.2000004
1.2000005
1.2000006
1.2000006
1.2000007
1.2000006
1.2000006
1.2000006
1.2000006
1.2000006
1.2000006
1.2000007
1.2000006
1.2000006
1.2000005
1.2000004
1.2000002
1.2
1.2
1.2000001
1.2000003
1.2000004
1.2000005
1.2000005
1.2000005
1.2000005
1.2000005
1.2000005
1.2000005
1.2000005
1.2000005
1.2000005
1.2000005
1.2000005
1.2000004
1.2000003
1.2000001
1.2
1.2
1.2
1.2000002
1.2000003
1.2000004
1.2000004
1.2000004
1.2000004
1.2000004
1.2000004
1.2000004
1.2000004
1.2000004
1.2000004
1.2000004
1.2000004
1.2000003
1.2000002
1.2
1.2
1.2
1.2
1.2000001
1.2000002
1.2000002
1.2000003
1.2000003
1.2000003
1.2000003
1.2000003
1.2000003
1.2000003
1.2000003
1.2000003
1.2000003
1.2000002
1.2000002
1.2000001
1.2
1.2
1.2
1.2
1.2000001
1.2000001
1.2000002
1.2000002
1.2000002
1.2000002
1.2000002
1.2000002
1.2000002
1.2000002
1.2000002
1.2000002
1.2000002
1.2000002
1.2000001
1.2000001
1.2
1.2
1.2
1.2
1.2
1.2000001
1.2000001
1.2000001
1.2000001
1.2000001
1.2000001
1.2000001
1.2000001
1.2000001
1.2000001
1.2000001
1.2000001
1.2000001
1.2000001
1.2
1.2
1.2
1.2
1.2
1.2
1.2
1.2000001
1.2000001
1.2000001
1.2000001
1.2000001
1.2000001
1.2000001
1.2000001
1.2000001
1.2000001
1.2000001
1.2000001
1.2
1.2
1.2
1.2
1.2
1.2
1.2
1.2
1.2
1.2
1.2
1.2
1.2
1.2
1.2
1.2
1.2
1.2
1.2
1.2
1.2
1.2
1.2
1.2
1.2
1.2
1.2
1.2
1.2
1.2
1.2
1.2
1.2
1.2
1.2
1.2
1.2
1.2
1.2
1.2
1.2
1.2
1.2
1.2
1.2
1.2
1.2
1.2
1.2
1.2
1.2
1.2
1.2
1.2
1.2
1.2
1.2
1.2
1.2
1.2
1.2
1.2
1.2
1.2
1.2
1.2
1.2
1.2
1.2
1.2
1.2
1.2
1.2
1.2
1.2
1.2
1.2
1.2
1.2
1.2
1.2
1.2
1.2
1.2
1.2
1.2
1.2
1.2
1.2
1.2
1.2
1.2
1.2
1.2
1.2
1.2
1.2
1.2
1.2
1.2
1.2
1.2
1.2
1.2
1.2
1.2
1.2
1.2
1.2
1.2
1.2
1.2
1.2
1.2
1.2
1.2
1.2
1.2
1.2
1.2
1.2
1.2
1.2
1.2
1.2
1.2
1.2
1.2
1.2
1.2
1.2
1.2
1.2
1.2
1.2
1.2
1.2
1.2
1.2
1.2
1.2
1.2
1.2
1.2
1.2
1.2
1.2
1.2
1.2
1.2
1.2
1.2
1.2
1.2
1.2
1.2
1.2
1.2
1.2
1.2
1.2
1.2
1.2
1.2
1.2
1.2
1.2
1.2
1.2
1.2
1.2
1.2
1.2
1.2
1.2
1.2
1.2
1.2
1.2
1.2
1.2
1.2
1.2
1.2
1.2
1.2
1.2
1.2
1.2
1.2
1.2
1.2
1.2
1.2
1.2
1.2
1.2
1.2
1.2
1.2
1.2
1.2
1.2
1.2
1.2
1.2
1.2
1.2
1.2
1.2
1.2
1.2
1.2
1.2
1.2
1.2
1.2
1.2
1.2
1.2
1.2
1.2
1.2
1.2
1.2
1.2
1.2
1.2
1.2
1.2
1.2
1.2
1.2
1.2
1.2
1.2
1.2
1.2
1.2
1.2
1.2
1.2
1.2
1.2
1.2
1.2
1.2
1.2
1.2
1.2
1.2
1.2
1.2
1.2
1.2
1.2
1.2
1.2
1.2
1.2
1.2
1.2
1.2
1.2
1.2
1.2
1.2
1.2
1.2
1.2
1.2
1.2
1.2
1.2
1.2
1.2
1.2
1.2
1.2
1.2
1.2
1.2
1.2
1.2
1.2
1.2
1.2
1.2
1.2
1.2
1.2
1.2
1.2
1.2
1.2
1.2
1.2
1.2
1.2
1.2
1.2
1.2
1.2
1.2
)
;

boundaryField
{
    Wall
    {
        type            calculated;
        value           nonuniform List<scalar> 
100
(
1e-15
3.315537e-12
2.3024094e-06
1.0574674e-05
2.9056333e-05
6.3065684e-05
0.00012266731
0.00024035641
0.00058100693
0.0025111545
0.035160203
0.532353
1.1128294
1.1982133
1.1999967
1.2
1.2
1.2
1.2
1.2
1.2
1.2
1.2
1.2
1.2
1.2
1.2
1.2
1.2
1.2
1.2
1.2
1.2
1.2
1.2
1.2
1.2
1.2
1.2
1.2
1e-15
1.5446461e-14
2.3024075e-06
1.057467e-05
2.9056321e-05
6.306565e-05
0.00012266722
0.00024035613
0.00058100585
0.0025111472
0.035160035
0.5323518
1.112829
1.1982133
1.1999967
1.2
1.2
1.2
1.2
1.2
1.2
1.2
1.2
1.2
1.2
1.2
1.2
1.2
1.2
1.2
1.2
1.2
1.2
1.2
1.2
1.2
1.2
1.2
1.2
1.2
1e-15
1e-15
1.0000005e-15
1.000001e-15
1e-15
1.0000013e-15
1.0000011e-15
1.0000001e-15
1e-15
1e-15
1e-15
1e-15
1e-15
1.0000001e-15
1.0000001e-15
1e-15
1e-15
1e-15
1e-15
1e-15
)
;
    }
    frontAndBack
    {
        type            empty;
    }
    atmosphere
    {
        type            calculated;
        value           nonuniform List<scalar> 
20
(
1.2
1.2
1.2
1.2
1.2
1.2
1.2
1.2
1.2
1.2
1.2
1.2
1.2
1.2
1.2
1.2
1.2
1.2
1.2
1.2
)
;
    }
}


// ************************************************************************* //
