/*--------------------------------*- C++ -*----------------------------------*\
| =========                 |                                                 |
| \\      /  F ield         | OpenFOAM: The Open Source CFD Toolbox           |
|  \\    /   O peration     | Version:  3.0.1                                 |
|   \\  /    A nd           | Web:      www.OpenFOAM.org                      |
|    \\/     M anipulation  |                                                 |
\*---------------------------------------------------------------------------*/
FoamFile
{
    version     2.0;
    format      ascii;
    class       volScalarField;
    location    "22";
    object      rho_foam;
}
// * * * * * * * * * * * * * * * * * * * * * * * * * * * * * * * * * * * * * //

dimensions      [1 -3 0 0 0 0 0];

internalField   nonuniform List<scalar> 
800
(
119.29042
119.28453
119.28412
119.28428
119.28443
119.28454
119.28462
119.28467
119.2847
119.28472
119.28472
119.2847
119.28467
119.28462
119.28454
119.28443
119.28428
119.28412
119.28453
119.29042
123.75445
123.5796
123.554
123.552
123.55311
123.55344
123.55298
123.55223
123.55158
123.55121
123.55121
123.55158
123.55224
123.55298
123.55344
123.55311
123.552
123.554
123.5796
123.75445
128.07056
127.81711
127.74209
127.73514
127.7355
127.73532
127.73408
127.73248
127.73116
127.73042
127.73042
127.73116
127.73249
127.73408
127.73532
127.7355
127.73514
127.74209
127.81711
128.07056
132.14137
131.80853
131.69158
131.68303
131.68354
131.68337
131.68165
131.67943
131.67758
131.67655
131.67655
131.67758
131.67943
131.68165
131.68337
131.68354
131.68303
131.69157
131.80853
132.14137
136.44122
136.00558
135.85343
135.80571
135.80744
135.80794
135.80608
135.80341
135.80113
135.79984
135.79984
135.80113
135.80341
135.80608
135.80794
135.80744
135.80571
135.85342
136.00558
136.44122
141.99923
141.31344
141.12611
141.03358
141.03737
141.03878
141.03673
141.03352
141.03068
141.02907
141.02907
141.03068
141.03352
141.03673
141.03878
141.03737
141.03357
141.12611
141.31344
141.99923
150.43517
149.20345
148.99697
148.86927
148.8742
148.87532
148.87191
148.86723
148.8632
148.86094
148.86094
148.8632
148.86724
148.87191
148.87532
148.8742
148.86926
148.99697
149.20345
150.43517
164.36467
162.25574
161.85379
161.68983
161.69123
161.68697
161.67831
161.66936
161.66236
161.65862
161.65863
161.66236
161.66936
161.67832
161.68697
161.69123
161.68983
161.85379
162.25574
164.36468
188.59791
184.81115
184.11535
183.87702
183.63654
183.61187
183.58781
183.56784
183.5538
183.54668
183.54668
183.55381
183.56785
183.58783
183.61188
183.63655
183.87703
184.11536
184.81117
188.59794
228.37155
222.56574
221.2462
220.84204
220.51451
220.44765
220.38848
220.34482
220.31674
220.303
220.303
220.31675
220.34484
220.3885
220.44767
220.51453
220.84207
221.24623
222.56577
228.3716
289.14201
280.17068
277.48878
276.77372
276.38439
276.21762
276.10427
276.02673
275.97953
275.957
275.957
275.97955
276.02676
276.10431
276.21766
276.38443
276.77377
277.48883
280.17074
289.1421
388.48658
372.05744
367.2835
365.94792
364.45587
364.17652
364.01028
363.90361
363.84244
363.81429
363.8143
363.84247
363.90365
364.01034
364.17658
364.45594
365.948
367.28358
372.05752
388.4867
524.20081
500.91973
491.71172
488.95187
487.55685
487.26013
487.14311
487.08874
487.06637
487.06025
487.06026
487.06641
487.0888
487.14318
487.26021
487.55692
488.95196
491.71181
500.91981
524.20092
697.29128
652.52633
634.61786
628.94658
627.57321
627.71866
628.10251
628.42558
628.64193
628.75723
628.75725
628.64198
628.42565
628.10258
627.71874
627.57329
628.94667
634.61794
652.52641
697.29134
887.59034
804.56909
773.88474
763.85241
762.18456
763.32536
764.9091
766.18283
767.01631
767.44046
767.44049
767.01637
766.18292
764.90919
763.32545
762.18465
763.8525
773.88483
804.56916
887.59033
1022.9436
931.15662
891.80343
877.35405
874.451
875.99976
878.56403
880.78492
882.29488
883.06894
883.06898
882.29495
880.78503
878.56413
875.99985
874.45108
877.35413
891.8035
931.15666
1022.9435
1078.5112
1015.7584
978.63978
962.63384
958.39266
959.40101
961.99035
964.46226
966.22306
967.14275
967.14279
966.22314
964.46237
961.99044
959.40109
958.39272
962.63388
978.63982
1015.7585
1078.5112
1093.0659
1061.9244
1034.4637
1020.3093
1015.6132
1015.7785
1017.7095
1019.7798
1021.3268
1022.1512
1022.1513
1021.3269
1019.7799
1017.7096
1015.7786
1015.6133
1020.3094
1034.4637
1061.9244
1093.0659
1095.8959
1083.2122
1066.3036
1055.7972
1051.6168
1051.1946
1052.3432
1053.7705
1054.8917
1055.5014
1055.5015
1054.8918
1053.7706
1052.3433
1051.1946
1051.6169
1055.7972
1066.3036
1083.2122
1095.8959
1096.3516
1091.7988
1082.7406
1075.9256
1072.7605
1072.1286
1072.6871
1073.5403
1074.2485
1074.6417
1074.6418
1074.2486
1073.5404
1072.6871
1072.1286
1072.7605
1075.9256
1082.7406
1091.7988
1096.3516
1096.4164
1094.919
1090.5596
1086.5827
1084.4628
1083.8764
1084.0906
1084.5465
1084.9499
1085.1788
1085.1788
1084.9499
1084.5466
1084.0906
1083.8765
1084.4628
1086.5827
1090.5596
1094.919
1096.4164
1096.4249
1095.9637
1094.0356
1091.9045
1090.6151
1090.1759
1090.2271
1090.4486
1090.6601
1090.7831
1090.7831
1090.6601
1090.4486
1090.2271
1090.1759
1090.6151
1091.9045
1094.0356
1095.9637
1096.4249
1096.426
1096.2912
1095.4949
1094.431
1093.7058
1093.4182
1093.409
1093.5075
1093.611
1093.6728
1093.6728
1093.611
1093.5075
1093.409
1093.4182
1093.7058
1094.431
1095.4949
1096.2912
1096.426
1096.4261
1096.3885
1096.0778
1095.5779
1095.196
1095.0251
1095.0024
1095.0424
1095.09
1095.1194
1095.1194
1095.09
1095.0424
1095.0024
1095.0251
1095.196
1095.5779
1096.0778
1096.3885
1096.4261
1096.4261
1096.416
1096.3006
1096.0777
1095.8878
1095.7936
1095.7742
1095.7888
1095.8095
1095.8228
1095.8228
1095.8095
1095.7888
1095.7742
1095.7936
1095.8878
1096.0777
1096.3006
1096.416
1096.4261
1096.4261
1096.4235
1096.3824
1096.2876
1096.1977
1096.1491
1096.1362
1096.1408
1096.1494
1096.1551
1096.1551
1096.1494
1096.1408
1096.1362
1096.1491
1096.1977
1096.2876
1096.3824
1096.4235
1096.4261
1096.4261
1096.4254
1096.4114
1096.3727
1096.3321
1096.3083
1096.3008
1096.3019
1096.3053
1096.3076
1096.3076
1096.3053
1096.3019
1096.3008
1096.3083
1096.3321
1096.3727
1096.4114
1096.4254
1096.4261
1096.4261
1096.4259
1096.4213
1096.4061
1096.3885
1096.3774
1096.3734
1096.3735
1096.3747
1096.3757
1096.3757
1096.3747
1096.3735
1096.3734
1096.3774
1096.3885
1096.4061
1096.4213
1096.4259
1096.4261
1096.4261
1096.4261
1096.4246
1096.4188
1096.4115
1096.4065
1096.4045
1096.4044
1096.4048
1096.4052
1096.4052
1096.4048
1096.4044
1096.4045
1096.4065
1096.4115
1096.4188
1096.4246
1096.4261
1096.4261
1096.4261
1096.4261
1096.4256
1096.4235
1096.4206
1096.4184
1096.4175
1096.4174
1096.4175
1096.4177
1096.4177
1096.4175
1096.4174
1096.4175
1096.4184
1096.4206
1096.4235
1096.4256
1096.4261
1096.4261
1096.4261
1096.4261
1096.426
1096.4252
1096.4241
1096.4232
1096.4228
1096.4227
1096.4227
1096.4228
1096.4228
1096.4227
1096.4227
1096.4228
1096.4232
1096.4241
1096.4252
1096.426
1096.4261
1096.4261
1096.4261
1096.4261
1096.4261
1096.4258
1096.4254
1096.425
1096.4248
1096.4248
1096.4248
1096.4248
1096.4248
1096.4248
1096.4248
1096.4248
1096.425
1096.4254
1096.4258
1096.4261
1096.4261
1096.4261
1096.4261
1096.4261
1096.4261
1096.426
1096.4258
1096.4257
1096.4256
1096.4256
1096.4256
1096.4256
1096.4256
1096.4256
1096.4256
1096.4256
1096.4257
1096.4258
1096.426
1096.4261
1096.4261
1096.4261
1096.4261
1096.4261
1096.4261
1096.4261
1096.426
1096.426
1096.4259
1096.4259
1096.4259
1096.4259
1096.4259
1096.4259
1096.4259
1096.4259
1096.426
1096.426
1096.4261
1096.4261
1096.4261
1096.4261
1096.4261
1096.4261
1096.4261
1096.4261
1096.4261
1096.4261
1096.426
1096.426
1096.426
1096.426
1096.426
1096.426
1096.426
1096.426
1096.4261
1096.4261
1096.4261
1096.4261
1096.4261
1096.4261
1096.4261
1096.4261
1096.4261
1096.4261
1096.4261
1096.4261
1096.4261
1096.4261
1096.4261
1096.4261
1096.4261
1096.4261
1096.4261
1096.4261
1096.4261
1096.4261
1096.4261
1096.4261
1096.4261
1096.4261
1096.4261
1096.4261
1096.4261
1096.4261
1096.4261
1096.4261
1096.4261
1096.4261
1096.4261
1096.4261
1096.4261
1096.4261
1096.4261
1096.4261
1096.4261
1096.4261
1096.4261
1096.4261
1096.4261
1096.4261
1096.4261
1096.4261
1096.4261
1096.4261
1096.4261
1096.4261
1096.4261
1096.4261
1096.4261
1096.4261
1096.4261
1096.4261
1096.4261
1096.4261
1096.4261
1096.4261
1096.4261
1096.4261
1096.4261
1096.4261
1096.4261
1096.4261
1096.4261
1096.4261
1096.4261
1096.4261
1096.4261
1096.4261
1096.4261
1096.4261
1096.4261
1096.4261
1096.4261
1096.4261
1096.4261
1096.4261
1096.4261
1096.4261
1096.4261
1096.4261
1096.4261
1096.4261
1096.4261
1096.4261
1096.4261
1096.4261
1096.4261
1096.4261
1096.4261
1096.4261
1096.4261
1096.4261
1096.4261
1096.4261
1096.4261
1096.4261
1096.4261
1096.4261
1096.4261
1096.4261
)
;

boundaryField
{
    Wall
    {
        type            zeroGradient;
    }
    frontAndBack
    {
        type            empty;
    }
    atmosphere
    {
        type            zeroGradient;
    }
}


// ************************************************************************* //
