/*--------------------------------*- C++ -*----------------------------------*\
| =========                 |                                                 |
| \\      /  F ield         | OpenFOAM: The Open Source CFD Toolbox           |
|  \\    /   O peration     | Version:  3.0.1                                 |
|   \\  /    A nd           | Web:      www.OpenFOAM.org                      |
|    \\/     M anipulation  |                                                 |
\*---------------------------------------------------------------------------*/
FoamFile
{
    version     2.0;
    format      ascii;
    class       volScalarField;
    location    "22";
    object      thermalConductivity;
}
// * * * * * * * * * * * * * * * * * * * * * * * * * * * * * * * * * * * * * //

dimensions      [0 2 -1 0 0 0 0];

internalField   nonuniform List<scalar> 
800
(
0.022987127
0.022986509
0.022986467
0.022986483
0.022986499
0.022986511
0.02298652
0.022986525
0.022986529
0.02298653
0.02298653
0.022986529
0.022986525
0.02298652
0.022986511
0.022986499
0.022986483
0.022986467
0.022986509
0.022987127
0.023463689
0.023445007
0.023442282
0.02344207
0.023442187
0.02344222
0.02344217
0.023442089
0.023442018
0.023441978
0.023441978
0.023442018
0.023442089
0.02344217
0.02344222
0.023442187
0.02344207
0.023442282
0.023445007
0.023463689
0.02392826
0.023901003
0.02389292
0.023892176
0.023892212
0.023892189
0.023892052
0.023891878
0.023891734
0.023891654
0.023891654
0.023891734
0.023891878
0.023892052
0.023892189
0.023892212
0.023892176
0.02389292
0.023901003
0.02392826
0.024371024
0.024334907
0.02432221
0.024321292
0.024321344
0.024321321
0.02432113
0.024320886
0.024320684
0.024320571
0.024320571
0.024320684
0.024320886
0.02432113
0.024321321
0.024321344
0.024321291
0.024322209
0.024334907
0.024371024
0.024845086
0.024797274
0.024780628
0.024775344
0.02477553
0.024775577
0.024775368
0.024775072
0.02477482
0.024774679
0.024774679
0.02477482
0.024775072
0.024775368
0.024775577
0.02477553
0.024775344
0.024780627
0.024797273
0.024845086
0.025467152
0.025390699
0.025369995
0.025359673
0.025360083
0.025360226
0.02535999
0.025359628
0.025359311
0.025359131
0.025359131
0.025359311
0.025359628
0.02535999
0.025360226
0.025360083
0.025359673
0.025369995
0.025390699
0.025467152
0.026426678
0.026286852
0.026263661
0.026249245
0.026249765
0.026249862
0.026249458
0.02624892
0.02624846
0.026248204
0.026248204
0.02624846
0.026248921
0.026249458
0.026249862
0.026249765
0.026249245
0.026263661
0.026286852
0.026426678
0.02804492
0.027799743
0.027753009
0.027734047
0.027734097
0.027733535
0.027732493
0.027731437
0.027730617
0.027730182
0.027730182
0.027730617
0.027731438
0.027732494
0.027733536
0.027734098
0.027734047
0.027753009
0.027799743
0.028044922
0.030948329
0.03049229
0.030408144
0.030379377
0.030350697
0.030347591
0.03034462
0.030342181
0.030340476
0.030339614
0.030339615
0.030340477
0.030342183
0.030344622
0.030347592
0.030350699
0.030379379
0.030408146
0.030492291
0.030948332
0.035905671
0.035168634
0.034999723
0.034948124
0.034908167
0.034898104
0.034890517
0.034884954
0.034881388
0.034879647
0.034879648
0.03488139
0.034884957
0.03489052
0.034898107
0.03490817
0.034948127
0.034999726
0.035168638
0.035905678
0.044056746
0.04281667
0.042444211
0.042345722
0.042294204
0.042271278
0.042255766
0.042245193
0.042238785
0.042235732
0.042235732
0.042238788
0.042245197
0.042255771
0.042271284
0.04229421
0.042345729
0.042444218
0.042816678
0.044056758
0.058935922
0.056340717
0.055598576
0.055392265
0.055158479
0.055116199
0.055091214
0.055075305
0.055066241
0.055062091
0.055062092
0.055066245
0.055075312
0.055091222
0.055116208
0.055158489
0.055392277
0.055598587
0.056340729
0.05893594
0.024
0.024
0.024
0.024
0.024
0.024
0.024
0.024
0.024
0.024
0.024
0.024
0.024
0.024
0.024
0.024
0.024
0.024
0.024
0.024
0.024
0.024
0.024
0.024
0.024
0.024
0.024
0.024
0.024
0.024
0.024
0.024
0.024
0.024
0.024
0.024
0.024
0.024
0.024
0.024
0.024
0.024
0.024
0.024
0.024
0.024
0.024
0.024
0.024
0.024
0.024
0.024
0.024
0.024
0.024
0.024
0.024
0.024
0.024
0.024
0.024
0.024
0.024
0.024
0.024
0.024
0.024
0.024
0.024
0.024
0.024
0.024
0.024
0.024
0.024
0.024
0.024
0.024
0.024
0.024
0.024
0.024
0.024
0.024
0.024
0.024
0.024
0.024
0.024
0.024
0.024
0.024
0.024
0.024
0.024
0.024
0.024
0.024
0.024
0.024
0.024
0.024
0.024
0.024
0.024
0.024
0.024
0.024
0.024
0.024
0.024
0.024
0.024
0.024
0.024
0.024
0.024
0.024
0.024
0.024
0.024
0.024
0.024
0.024
0.024
0.024
0.024
0.024
0.024
0.024
0.024
0.024
0.024
0.024
0.024
0.024
0.024
0.024
0.024
0.024
0.024
0.024
0.024
0.024
0.024
0.024
0.024
0.024
0.024
0.024
0.024
0.024
0.024
0.024
0.024
0.024
0.024
0.024
0.024
0.024
0.024
0.024
0.024
0.024
0.024
0.024
0.024
0.024
0.024
0.024
0.024
0.024
0.024
0.024
0.024
0.024
0.024
0.024
0.024
0.024
0.024
0.024
0.024
0.024
0.024
0.024
0.024
0.024
0.024
0.024
0.024
0.024
0.024
0.024
0.024
0.024
0.024
0.024
0.024
0.024
0.024
0.024
0.024
0.024
0.024
0.024
0.024
0.024
0.024
0.024
0.024
0.024
0.024
0.024
0.024
0.024
0.024
0.024
0.024
0.024
0.024
0.024
0.024
0.024
0.024
0.024
0.024
0.024
0.024
0.024
0.024
0.024
0.024
0.024
0.024
0.024
0.024
0.024
0.024
0.024
0.024
0.024
0.024
0.024
0.024
0.024
0.024
0.024
0.024
0.024
0.024
0.024
0.024
0.024
0.024
0.024
0.024
0.024
0.024
0.024
0.024
0.024
0.024
0.024
0.024
0.024
0.024
0.024
0.024
0.024
0.024
0.024
0.024
0.024
0.024
0.024
0.024
0.024
0.024
0.024
0.024
0.024
0.024
0.024
0.024
0.024
0.024
0.024
0.024
0.024
0.024
0.024
0.024
0.024
0.024
0.024
0.024
0.024
0.024
0.024
0.024
0.024
0.024
0.024
0.024
0.024
0.024
0.024
0.024
0.024
0.024
0.024
0.024
0.024
0.024
0.024
0.024
0.024
0.024
0.024
0.024
0.024
0.024
0.024
0.024
0.024
0.024
0.024
0.024
0.024
0.024
0.024
0.024
0.024
0.024
0.024
0.024
0.024
0.024
0.024
0.024
0.024
0.024
0.024
0.024
0.024
0.024
0.024
0.024
0.024
0.024
0.024
0.024
0.024
0.024
0.024
0.024
0.024
0.024
0.024
0.024
0.024
0.024
0.024
0.024
0.024
0.024
0.024
0.024
0.024
0.024
0.024
0.024
0.024
0.024
0.024
0.024
0.024
0.024
0.024
0.024
0.024
0.024
0.024
0.024
0.024
0.024
0.024
0.024
0.024
0.024
0.024
0.024
0.024
0.024
0.024
0.024
0.024
0.024
0.024
0.024
0.024
0.024
0.024
0.024
0.024
0.024
0.024
0.024
0.024
0.024
0.024
0.024
0.024
0.024
0.024
0.024
0.024
0.024
0.024
0.024
0.024
0.024
0.024
0.024
0.024
0.024
0.024
0.024
0.024
0.024
0.024
0.024
0.024
0.024
0.024
0.024
0.024
0.024
0.024
0.024
0.024
0.024
0.024
0.024
0.024
0.024
0.024
0.024
0.024
0.024
0.024
0.024
0.024
0.024
0.024
0.024
0.024
0.024
0.024
0.024
0.024
0.024
0.024
0.024
0.024
0.024
0.024
0.024
0.024
0.024
0.024
0.024
0.024
0.024
0.024
0.024
0.024
0.024
0.024
0.024
0.024
0.024
0.024
0.024
0.024
0.024
0.024
0.024
0.024
0.024
0.024
0.024
0.024
0.024
0.024
0.024
0.024
0.024
0.024
0.024
0.024
0.024
0.024
0.024
0.024
0.024
0.024
0.024
0.024
0.024
0.024
0.024
0.024
0.024
0.024
0.024
0.024
0.024
0.024
0.024
0.024
0.024
0.024
0.024
0.024
0.024
0.024
0.024
0.024
0.024
0.024
0.024
0.024
0.024
0.024
0.024
0.024
0.024
0.024
0.024
0.024
0.024
0.024
0.024
0.024
0.024
0.024
0.024
0.024
0.024
0.024
0.024
0.024
0.024
0.024
0.024
0.024
0.024
0.024
)
;

boundaryField
{
    Wall
    {
        type            calculated;
        value           uniform 0.024;
    }
    frontAndBack
    {
        type            empty;
    }
    atmosphere
    {
        type            calculated;
        value           uniform 0.024;
    }
}


// ************************************************************************* //
