/*--------------------------------*- C++ -*----------------------------------*\
| =========                 |                                                 |
| \\      /  F ield         | OpenFOAM: The Open Source CFD Toolbox           |
|  \\    /   O peration     | Version:  3.0.1                                 |
|   \\  /    A nd           | Web:      www.OpenFOAM.org                      |
|    \\/     M anipulation  |                                                 |
\*---------------------------------------------------------------------------*/
FoamFile
{
    version     2.0;
    format      ascii;
    class       volScalarField;
    location    "22";
    object      thermalDiff_gas;
}
// * * * * * * * * * * * * * * * * * * * * * * * * * * * * * * * * * * * * * //

dimensions      [0 2 -1 0 0 0 0];

internalField   nonuniform List<scalar> 
800
(
0.00028222835
0.00028223489
0.00028223585
0.00028223597
0.00028223601
0.00028223605
0.00028223609
0.00028223613
0.00028223615
0.00028223616
0.00028223616
0.00028223615
0.00028223613
0.00028223609
0.00028223605
0.00028223601
0.00028223597
0.00028223585
0.00028223489
0.00028222835
0.00027870818
0.00027881637
0.00027883583
0.00027883778
0.00027883718
0.00027883686
0.00027883702
0.00027883739
0.00027883774
0.00027883795
0.00027883795
0.00027883774
0.00027883739
0.00027883702
0.00027883686
0.00027883718
0.00027883778
0.00027883583
0.00027881637
0.00027870818
0.00027586936
0.00027603157
0.00027607018
0.00027607547
0.00027607528
0.00027607499
0.00027607531
0.00027607593
0.00027607651
0.00027607685
0.00027607685
0.00027607651
0.00027607593
0.00027607531
0.00027607499
0.00027607528
0.00027607548
0.00027607018
0.00027603157
0.00027586936
0.00027377671
0.00027398016
0.00027403544
0.0002740433
0.00027404324
0.0002740427
0.00027404294
0.00027404356
0.0002740442
0.00027404457
0.00027404457
0.0002740442
0.00027404356
0.00027404294
0.0002740427
0.00027404324
0.0002740433
0.00027403544
0.00027398016
0.00027377671
0.00027236574
0.00027259504
0.0002726701
0.00027268176
0.00027268183
0.00027268078
0.0002726807
0.00027268109
0.00027268163
0.00027268196
0.00027268196
0.00027268163
0.00027268109
0.00027268071
0.00027268079
0.00027268184
0.00027268176
0.00027267011
0.00027259505
0.00027236574
0.00027141684
0.00027167419
0.00027177831
0.00027179633
0.00027179732
0.0002717959
0.00027179549
0.00027179557
0.00027179596
0.00027179619
0.0002717962
0.00027179596
0.00027179557
0.00027179549
0.00027179591
0.00027179733
0.00027179634
0.00027177832
0.0002716742
0.00027141685
0.00027052059
0.00027084296
0.00027096765
0.00027099656
0.00027100054
0.00027099978
0.00027099961
0.00027099971
0.00027100015
0.00027100038
0.00027100038
0.00027100015
0.00027099971
0.00027099961
0.00027099978
0.00027100054
0.00027099657
0.00027096766
0.00027084297
0.0002705206
0.0002689839
0.00026945169
0.00026959449
0.00026964308
0.00026965427
0.00026965693
0.00026965871
0.00026965992
0.00026966104
0.00026966154
0.00026966154
0.00026966104
0.00026965992
0.00026965871
0.00026965694
0.00026965428
0.00026964309
0.00026959451
0.0002694517
0.00026898391
0.00026567007
0.00026640338
0.00026660349
0.00026668795
0.00026671454
0.0002667266
0.00026673406
0.00026673872
0.00026674188
0.00026674329
0.00026674329
0.00026674188
0.00026673872
0.00026673407
0.00026672661
0.00026671455
0.00026668796
0.0002666035
0.00026640339
0.00026567008
0.000259065
0.00026012596
0.00026045141
0.00026058963
0.00026065536
0.00026068632
0.0002607051
0.0002607168
0.000260724
0.00026072726
0.00026072726
0.000260724
0.0002607168
0.0002607051
0.00026068633
0.00026065536
0.00026058964
0.00026045142
0.00026012597
0.00025906501
0.00025045093
0.00025146748
0.00025164986
0.00025175553
0.00025201298
0.00025207167
0.00025210074
0.00025211918
0.00025213069
0.00025213621
0.00025213621
0.00025213069
0.00025211918
0.00025210074
0.00025207167
0.00025201298
0.00025175553
0.00025164986
0.00025146748
0.00025045092
0.00024712887
0.00024746036
0.00024765161
0.0002477492
0.00024783595
0.00024789666
0.00024793222
0.00024795402
0.00024796721
0.00024797355
0.00024797355
0.00024796721
0.00024795402
0.00024793222
0.00024789665
0.00024783594
0.0002477492
0.0002476516
0.00024746036
0.00024712886
0.0002447714
0.00024480745
0.00024486775
0.00024492464
0.00024498013
0.00024502463
0.00024505596
0.00024507694
0.00024508998
0.00024509628
0.00024509628
0.00024508998
0.00024507694
0.00024505596
0.00024502463
0.00024498012
0.00024492464
0.00024486774
0.00024480744
0.00024477139
0.00024304151
0.00024306691
0.00024310773
0.0002431521
0.00024319534
0.00024323191
0.00024325982
0.00024327957
0.00024329217
0.00024329832
0.00024329832
0.00024329217
0.00024327956
0.00024325982
0.00024323191
0.00024319533
0.00024315209
0.00024310772
0.00024306691
0.0002430415
0.0002414406
0.00024147894
0.00024152331
0.00024156676
0.00024160634
0.00024163965
0.00024166572
0.00024168463
0.00024169688
0.0002417029
0.0002417029
0.00024169688
0.00024168463
0.00024166571
0.00024163965
0.00024160634
0.00024156676
0.00024152331
0.00024147894
0.00024144059
0.00023997483
0.00024002709
0.00024008336
0.00024013366
0.00024017607
0.00024021027
0.00024023655
0.00024025551
0.00024026775
0.00024027375
0.00024027375
0.00024026775
0.00024025551
0.00024023655
0.00024021027
0.00024017607
0.00024013366
0.00024008335
0.00024002708
0.00023997482
0.00023864507
0.00023870586
0.00023877336
0.00023883278
0.00023888116
0.00023891889
0.00023894715
0.00023896715
0.00023897991
0.00023898611
0.00023898611
0.00023897991
0.00023896715
0.00023894715
0.00023891889
0.00023888116
0.00023883277
0.00023877336
0.00023870585
0.00023864507
0.00023744666
0.00023751062
0.0002375854
0.00023765256
0.00023770727
0.00023774951
0.00023778071
0.00023780251
0.00023781626
0.0002378229
0.0002378229
0.00023781626
0.00023780251
0.00023778071
0.00023774951
0.00023770727
0.00023765256
0.0002375854
0.00023751061
0.00023744666
0.00023637101
0.00023643445
0.00023651231
0.00023658441
0.00023664413
0.00023669055
0.00023672485
0.00023674874
0.00023676374
0.00023677097
0.00023677097
0.00023676374
0.00023674874
0.00023672485
0.00023669055
0.00023664413
0.00023658441
0.00023651231
0.00023643445
0.00023637101
0.00023540766
0.00023546844
0.00023554605
0.00023562017
0.00023568293
0.00023573244
0.00023576935
0.00023579519
0.00023581147
0.00023581931
0.00023581931
0.00023581147
0.00023579519
0.00023576935
0.00023573244
0.00023568293
0.00023562017
0.00023554605
0.00023546844
0.00023540766
0.00023454568
0.00023460275
0.00023467787
0.00023475157
0.00023481537
0.00023486658
0.00023490527
0.00023493261
0.00023494993
0.0002349583
0.0002349583
0.00023494993
0.00023493261
0.00023490527
0.00023486658
0.00023481537
0.00023475157
0.00023467787
0.00023460275
0.00023454568
0.00023377463
0.00023382757
0.00023389884
0.00023397033
0.00023403346
0.00023408501
0.00023412451
0.00023415271
0.00023417073
0.00023417948
0.00023417948
0.00023417073
0.00023415271
0.00023412451
0.00023408501
0.00023403346
0.00023397033
0.00023389884
0.00023382757
0.00023377463
0.00023308492
0.00023313364
0.00023320034
0.00023326843
0.00023332959
0.00023338029
0.00023341967
0.00023344809
0.00023346639
0.00023347532
0.00023347532
0.00023346639
0.00023344809
0.00023341967
0.00023338029
0.00023332959
0.00023326843
0.00023320034
0.00023313364
0.00023308493
0.000232468
0.00023251258
0.00023257438
0.00023263835
0.0002326966
0.00023274555
0.00023278401
0.00023281205
0.00023283024
0.00023283917
0.00023283917
0.00023283024
0.00023281205
0.00023278401
0.00023274555
0.00023269661
0.00023263835
0.00023257438
0.00023251258
0.000232468
0.00023191625
0.00023195687
0.00023201372
0.00023207317
0.00023212794
0.00023217447
0.0002322114
0.00023223856
0.0002322563
0.00023226503
0.00023226503
0.0002322563
0.00023223856
0.0002322114
0.00023217447
0.00023212794
0.00023207318
0.00023201372
0.00023195688
0.00023191625
0.000231423
0.00023145988
0.00023151185
0.00023156667
0.00023161762
0.00023166129
0.00023169625
0.00023172215
0.00023173916
0.00023174757
0.00023174757
0.00023173916
0.00023172215
0.00023169625
0.00023166129
0.00023161762
0.00023156667
0.00023151185
0.00023145988
0.000231423
0.00023098238
0.00023101575
0.00023106304
0.00023111323
0.00023116021
0.00023120078
0.00023123348
0.00023125786
0.00023127395
0.00023128193
0.00023128193
0.00023127395
0.00023125786
0.00023123348
0.00023120078
0.00023116021
0.00023111323
0.00023106304
0.00023101576
0.00023098238
0.00023058925
0.00023061936
0.00023066218
0.00023070787
0.00023075089
0.00023078824
0.00023081853
0.00023084123
0.00023085626
0.00023086373
0.00023086373
0.00023085626
0.00023084123
0.00023081853
0.00023078825
0.00023075089
0.00023070788
0.00023066218
0.00023061936
0.00023058925
0.00023023913
0.00023026619
0.00023030481
0.00023034619
0.00023038531
0.00023041946
0.00023044727
0.00023046819
0.0002304821
0.00023048903
0.00023048903
0.0002304821
0.0002304682
0.00023044727
0.00023041946
0.00023038532
0.00023034619
0.00023030481
0.00023026619
0.00023023913
0.0002299281
0.00022995233
0.00022998701
0.00023002429
0.00023005968
0.00023009068
0.00023011602
0.00023013516
0.00023014791
0.00023015427
0.00023015427
0.00023014791
0.00023013516
0.00023011602
0.00023009068
0.00023005968
0.0002300243
0.00022998701
0.00022995233
0.0002299281
0.00022965278
0.00022967439
0.00022970539
0.00022973881
0.00022977063
0.0002297986
0.00022982154
0.0002298389
0.0002298505
0.0002298563
0.0002298563
0.0002298505
0.0002298389
0.00022982154
0.0002297986
0.00022977063
0.00022973881
0.00022970539
0.00022967439
0.00022965278
0.00022941031
0.00022942947
0.00022945704
0.00022948683
0.00022951528
0.00022954036
0.00022956099
0.00022957664
0.00022958712
0.00022959236
0.00022959236
0.00022958712
0.00022957664
0.00022956099
0.00022954036
0.00022951528
0.00022948683
0.00022945704
0.00022942948
0.00022941031
0.00022919826
0.00022921515
0.00022923951
0.0002292659
0.00022929118
0.00022931353
0.00022933197
0.00022934599
0.0002293554
0.00022936011
0.00022936011
0.0002293554
0.00022934599
0.00022933197
0.00022931353
0.00022929118
0.0002292659
0.00022923951
0.00022921515
0.00022919826
0.00022901468
0.00022902945
0.00022905081
0.00022907403
0.00022909635
0.00022911614
0.00022913251
0.000229145
0.00022915339
0.0002291576
0.0002291576
0.00022915339
0.000229145
0.00022913251
0.00022911614
0.00022909635
0.00022907403
0.00022905081
0.00022902945
0.00022901469
0.00022885808
0.00022887085
0.00022888941
0.00022890968
0.00022892924
0.00022894666
0.00022896112
0.00022897219
0.00022897964
0.00022898338
0.00022898338
0.00022897964
0.00022897219
0.00022896112
0.00022894666
0.00022892924
0.00022890968
0.00022888941
0.00022887086
0.00022885808
0.0002287274
0.00022873831
0.00022875426
0.0002287718
0.00022878883
0.00022880408
0.0002288168
0.00022882656
0.00022883316
0.00022883648
0.00022883648
0.00022883316
0.00022882656
0.0002288168
0.00022880408
0.00022878883
0.0002287718
0.00022875426
0.00022873831
0.0002287274
0.00022862207
0.00022863125
0.00022864481
0.00022865986
0.00022867461
0.00022868792
0.00022869909
0.00022870772
0.00022871356
0.0002287165
0.0002287165
0.00022871356
0.00022870772
0.0002286991
0.00022868792
0.00022867462
0.00022865987
0.00022864481
0.00022863125
0.00022862208
0.00022854202
0.00022854961
0.00022856104
0.00022857393
0.00022858672
0.00022859838
0.00022860824
0.00022861591
0.00022862112
0.00022862376
0.00022862376
0.00022862113
0.00022861591
0.00022860824
0.00022859838
0.00022858672
0.00022857393
0.00022856104
0.00022854961
0.00022854202
0.00022848766
0.0002284939
0.00022850357
0.00022851473
0.00022852598
0.00022853638
0.00022854526
0.00022855221
0.00022855696
0.00022855937
0.00022855937
0.00022855696
0.00022855221
0.00022854526
0.00022853638
0.00022852598
0.00022851473
0.00022850357
0.0002284939
0.00022848766
0.00022845987
0.00022846518
0.00022847373
0.00022848382
0.00022849417
0.00022850382
0.00022851214
0.00022851868
0.00022852317
0.00022852545
0.00022852545
0.00022852317
0.00022851868
0.00022851214
0.00022850382
0.00022849417
0.00022848382
0.00022847373
0.00022846518
0.00022845987
)
;

boundaryField
{
    Wall
    {
        type            calculated;
        value           uniform 0.1;
    }
    frontAndBack
    {
        type            empty;
    }
    atmosphere
    {
        type            calculated;
        value           uniform 0.1;
    }
}


// ************************************************************************* //
