/*--------------------------------*- C++ -*----------------------------------*\
| =========                 |                                                 |
| \\      /  F ield         | OpenFOAM: The Open Source CFD Toolbox           |
|  \\    /   O peration     | Version:  3.0.1                                 |
|   \\  /    A nd           | Web:      www.OpenFOAM.org                      |
|    \\/     M anipulation  |                                                 |
\*---------------------------------------------------------------------------*/
FoamFile
{
    version     2.0;
    format      ascii;
    class       volScalarField;
    location    "22";
    object      TS;
}
// * * * * * * * * * * * * * * * * * * * * * * * * * * * * * * * * * * * * * //

dimensions      [0 0 0 1 0 0 0];

internalField   nonuniform List<scalar> 
800
(
333.88401
333.88823
333.88885
333.88892
333.88895
333.88897
333.889
333.88902
333.88904
333.88904
333.88904
333.88904
333.88902
333.889
333.88897
333.88895
333.88892
333.88885
333.88823
333.88401
331.63938
331.70872
331.72123
331.72249
331.7221
331.72189
331.72198
331.72221
331.72244
331.72256
331.72257
331.72244
331.72221
331.72198
331.72189
331.7221
331.72249
331.72123
331.70872
331.63938
329.82414
329.92832
329.95319
329.95661
329.95648
329.95628
329.95648
329.95686
329.95723
329.95744
329.95744
329.95723
329.95686
329.95648
329.95628
329.95648
329.95661
329.95319
329.92833
329.82414
328.48347
328.61428
328.6499
328.65498
328.65493
328.65457
328.65472
328.65511
328.65551
328.65575
328.65575
328.65551
328.65511
328.65472
328.65457
328.65493
328.65498
328.6499
328.61428
328.48347
327.57993
327.72742
327.77573
327.78325
327.78328
327.78259
327.78253
327.78277
327.78311
327.78332
327.78332
327.78311
327.78277
327.78253
327.78259
327.78329
327.78325
327.77573
327.72742
327.57994
326.97714
327.14237
327.20927
327.22084
327.22144
327.2205
327.22021
327.22025
327.2205
327.22065
327.22065
327.2205
327.22025
327.22021
327.2205
327.22144
327.22084
327.20927
327.14237
326.97714
326.41814
326.62431
326.70441
326.7229
326.72536
326.72481
326.72466
326.72471
326.72498
326.72511
326.72512
326.72498
326.72471
326.72466
326.72482
326.72537
326.72291
326.70442
326.62432
326.41814
325.46689
325.76502
325.85649
325.88745
325.89442
325.89599
325.89704
325.89777
325.89846
325.89877
325.89877
325.89846
325.89777
325.89704
325.89599
325.89443
325.88746
325.8565
325.76503
325.4669
323.40551
323.87294
324.0001
324.05392
324.07062
324.07811
324.08275
324.08565
324.08763
324.08852
324.08852
324.08763
324.08565
324.08275
324.07812
324.07063
324.05392
324.00011
323.87295
323.40551
319.2411
319.93118
320.13961
320.2288
320.27102
320.2908
320.30276
320.31022
320.31482
320.3169
320.3169
320.31482
320.31022
320.30276
320.29081
320.27102
320.2288
320.13962
319.93118
319.24111
313.63015
314.27246
314.40836
314.48338
314.63829
314.67737
314.6969
314.70914
314.71671
314.72032
314.72032
314.71671
314.70914
314.6969
314.67737
314.63829
314.48338
314.40836
314.27246
313.63015
311.3634
311.51454
311.6277
311.69093
311.73931
311.77666
311.79992
311.81451
311.82336
311.82761
311.82761
311.82336
311.81451
311.79992
311.77666
311.73931
311.69093
311.6277
311.51454
311.3634
309.65578
309.68336
309.72562
309.76476
309.8003
309.82931
309.85025
309.86444
309.87327
309.87752
309.87752
309.87327
309.86444
309.85024
309.8293
309.8003
309.76476
309.72562
309.68336
309.65577
308.49516
308.51589
308.54595
308.57726
308.60667
308.63145
308.65042
308.66385
308.6724
308.67656
308.67656
308.6724
308.66385
308.65042
308.63145
308.60667
308.57726
308.54595
308.51589
308.49516
307.43009
307.45676
307.4875
307.5174
307.54441
307.56708
307.58479
307.59761
307.60588
307.60994
307.60994
307.60588
307.5976
307.58479
307.56708
307.54441
307.5174
307.4875
307.45676
307.43009
306.45568
306.49061
306.52826
306.56198
306.59046
306.61345
306.63112
306.64384
306.65205
306.65607
306.65607
306.65205
306.64384
306.63111
306.61345
306.59046
306.56198
306.52825
306.49061
306.45568
305.57117
305.61158
305.65639
305.69583
305.728
305.75311
305.77194
305.78526
305.79376
305.79789
305.79789
305.79376
305.78526
305.77194
305.75311
305.728
305.69583
305.65639
305.61158
305.57117
304.77322
304.8158
304.86547
304.91002
304.9463
304.97432
304.99502
305.00949
305.01861
305.02302
305.02302
305.01861
305.00949
304.99502
304.97432
304.9463
304.91002
304.86547
304.8158
304.77321
304.05624
304.09858
304.1504
304.19832
304.23797
304.26877
304.29152
304.30737
304.31732
304.32212
304.32212
304.31732
304.30737
304.29152
304.26877
304.23797
304.19832
304.1504
304.09858
304.05624
303.41349
303.45414
303.50592
303.55529
303.59705
303.62996
303.65448
303.67164
303.68244
303.68765
303.68765
303.68244
303.67164
303.65448
303.62996
303.59705
303.55529
303.50592
303.45414
303.41349
302.83792
302.87614
302.92636
302.97556
303.01809
303.0522
303.07795
303.09614
303.10765
303.11322
303.11322
303.10765
303.09614
303.07795
303.0522
303.01809
302.97556
302.92636
302.87614
302.83792
302.32273
302.35822
302.40594
302.45374
302.49591
302.53031
302.55665
302.57545
302.58745
302.59328
302.59328
302.58745
302.57545
302.55665
302.53031
302.49592
302.45375
302.40594
302.35822
302.32273
301.86166
301.89435
301.93906
301.98465
302.02556
302.05945
302.08575
302.10473
302.11694
302.1229
302.1229
302.11694
302.10473
302.08575
302.05945
302.02556
301.98465
301.93906
301.89435
301.86166
301.44906
301.47899
301.52046
301.56333
301.60235
301.63511
301.66084
301.67959
301.69175
301.69771
301.69771
301.69175
301.67959
301.66084
301.63511
301.60235
301.56333
301.52046
301.479
301.44906
301.07991
301.1072
301.14537
301.18526
301.22198
301.25316
301.27789
301.29607
301.30794
301.31379
301.31379
301.30794
301.29607
301.27789
301.25316
301.22198
301.18526
301.14537
301.10721
301.07991
300.74979
300.77458
300.80949
300.8463
300.88048
300.90978
300.93321
300.95058
300.96197
300.96761
300.96761
300.96197
300.95058
300.93322
300.90978
300.88048
300.8463
300.80949
300.77458
300.74979
300.4548
300.47724
300.50902
300.54274
300.57429
300.60152
300.62347
300.63983
300.65062
300.65597
300.65597
300.65062
300.63983
300.62347
300.60153
300.57429
300.54274
300.50902
300.47724
300.4548
300.19152
300.21177
300.24057
300.27128
300.30019
300.32528
300.34562
300.36086
300.37095
300.37597
300.37597
300.37095
300.36086
300.34562
300.32528
300.30019
300.27129
300.24057
300.21177
300.19152
299.95698
299.97519
300.00117
300.029
300.0553
300.07825
300.09694
300.111
300.12035
300.125
300.125
300.12035
300.111
300.09694
300.07826
300.0553
300.029
300.00117
299.97519
299.95698
299.74856
299.76488
299.78822
299.8133
299.8371
299.85795
299.87499
299.88786
299.89643
299.9007
299.9007
299.89643
299.88786
299.87499
299.85795
299.8371
299.8133
299.78822
299.76488
299.74856
299.56404
299.57859
299.59946
299.62195
299.64336
299.66218
299.67761
299.68929
299.6971
299.70099
299.70099
299.6971
299.68929
299.67761
299.66218
299.64336
299.62195
299.59946
299.57859
299.56404
299.40147
299.41439
299.43295
299.45301
299.47216
299.48904
299.50292
299.51346
299.52051
299.52404
299.52404
299.52051
299.51346
299.50292
299.48904
299.47216
299.45301
299.43295
299.41439
299.40148
299.25928
299.27066
299.28707
299.30484
299.32187
299.33692
299.34933
299.35877
299.3651
299.36827
299.36827
299.3651
299.35877
299.34933
299.33692
299.32187
299.30484
299.28707
299.27066
299.25928
299.13614
299.1461
299.16049
299.17613
299.19116
299.2045
299.21553
299.22394
299.22959
299.23242
299.23242
299.22959
299.22394
299.21553
299.2045
299.19117
299.17613
299.16049
299.1461
299.13614
299.03107
299.03969
299.0522
299.06585
299.07903
299.09077
299.10052
299.10797
299.11299
299.11551
299.11551
299.11299
299.10797
299.10052
299.09077
299.07904
299.06586
299.0522
299.03969
299.03108
298.94338
298.95074
298.96149
298.97331
298.98479
298.99507
299.00364
299.01022
299.01467
299.0169
299.0169
299.01467
299.01022
299.00364
298.99507
298.98479
298.97331
298.96149
298.95074
298.94338
298.87268
298.87887
298.88801
298.89816
298.90811
298.91708
298.92461
298.93042
298.93436
298.93635
298.93635
298.93436
298.93042
298.92461
298.91708
298.90811
298.89816
298.88801
298.87887
298.87268
298.81894
298.82406
298.83176
298.84045
298.84907
298.85694
298.86359
298.86876
298.87228
298.87405
298.87405
298.87228
298.86876
298.86359
298.85694
298.84908
298.84045
298.83176
298.82406
298.81894
298.78243
298.78664
298.79316
298.80068
298.80828
298.81528
298.82127
298.82596
298.82916
298.83079
298.83079
298.82916
298.82596
298.82127
298.81528
298.80828
298.80068
298.79316
298.78664
298.78243
298.76376
298.76734
298.77311
298.77992
298.78689
298.79341
298.79902
298.80343
298.80645
298.80799
298.80799
298.80645
298.80343
298.79902
298.79341
298.78689
298.77992
298.77311
298.76734
298.76376
)
;

boundaryField
{
    Wall
    {
        type            zeroGradient;
    }
    frontAndBack
    {
        type            empty;
    }
    atmosphere
    {
        type            zeroGradient;
    }
}


// ************************************************************************* //
