/*--------------------------------*- C++ -*----------------------------------*\
| =========                 |                                                 |
| \\      /  F ield         | OpenFOAM: The Open Source CFD Toolbox           |
|  \\    /   O peration     | Version:  3.0.1                                 |
|   \\  /    A nd           | Web:      www.OpenFOAM.org                      |
|    \\/     M anipulation  |                                                 |
\*---------------------------------------------------------------------------*/
FoamFile
{
    version     2.0;
    format      ascii;
    class       volVectorField;
    location    "22";
    object      U;
}
// * * * * * * * * * * * * * * * * * * * * * * * * * * * * * * * * * * * * * //

dimensions      [0 1 -1 0 0 0 0];

internalField   nonuniform List<vector> 
800
(
(5.5150927e-06 0.00030330412 0)
(6.9506257e-06 0.00030561315 0)
(7.1676132e-06 0.00030668333 0)
(5.9681738e-06 0.0003068975 0)
(4.6848455e-06 0.00030679515 0)
(3.5899933e-06 0.00030664025 0)
(2.6552025e-06 0.00030651884 0)
(1.8320497e-06 0.00030644297 0)
(1.0765865e-06 0.00030640236 0)
(3.5528853e-07 0.00030638532 0)
(-3.5582913e-07 0.00030638527 0)
(-1.0772571e-06 0.00030640221 0)
(-1.8329677e-06 0.00030644272 0)
(-2.656474e-06 0.00030651847 0)
(-3.5916763e-06 0.00030663978 0)
(-4.6869185e-06 0.00030679459 0)
(-5.9704701e-06 0.00030689688 0)
(-7.1701605e-06 0.00030668266 0)
(-6.9532514e-06 0.00030561276 0)
(-5.5167075e-06 0.00030330369 0)
(3.1949089e-06 0.00054093484 0)
(4.4717098e-06 0.00054721075 0)
(5.8322518e-06 0.00054989821 0)
(5.2457474e-06 0.00055068123 0)
(4.3216368e-06 0.00055073551 0)
(3.4067521e-06 0.000550585 0)
(2.5557565e-06 0.00055042679 0)
(1.7748728e-06 0.00055031362 0)
(1.0458077e-06 0.00055024775 0)
(3.4534156e-07 0.0005502182 0)
(-3.4627144e-07 0.00055021804 0)
(-1.0468249e-06 0.0005502473 0)
(-1.7760582e-06 0.00055031289 0)
(-2.5571737e-06 0.00055042578 0)
(-3.4084153e-06 0.00055058377 0)
(-4.3235209e-06 0.00055073415 0)
(-5.2477514e-06 0.00055067983 0)
(-5.8342832e-06 0.00054989682 0)
(-4.4738948e-06 0.0005472097 0)
(-3.1961768e-06 0.00054093398 0)
(4.4464175e-06 0.00097353282 0)
(5.5875914e-06 0.0009849419 0)
(5.706467e-06 0.00098959959 0)
(4.8165019e-06 0.00099104182 0)
(3.9092439e-06 0.00099121542 0)
(3.0790464e-06 0.00099101012 0)
(2.3204553e-06 0.00099076569 0)
(1.6217137e-06 0.0009905806 0)
(9.6089562e-07 0.00099047084 0)
(3.1797054e-07 0.00099042074 0)
(-3.1947033e-07 0.0009904205 0)
(-9.624324e-07 0.00099047011 0)
(-1.6233532e-06 0.00099057948 0)
(-2.3222124e-06 0.00099076415 0)
(-3.0808679e-06 0.00099100834 0)
(-3.9110983e-06 0.00099121356 0)
(-4.8182987e-06 0.00099104007 0)
(-5.7080887e-06 0.00098959812 0)
(-5.5889177e-06 0.00098494097 0)
(-4.4469479e-06 0.00097353273 0)
(4.6080999e-06 0.0013869496 0)
(5.6276534e-06 0.0014010835 0)
(5.2689861e-06 0.001406737 0)
(4.2235751e-06 0.001408482 0)
(3.3612459e-06 0.0014085654 0)
(2.650136e-06 0.0014082398 0)
(2.0150871e-06 0.0014079027 0)
(1.4264351e-06 0.0014076638 0)
(8.5603694e-07 0.0014075239 0)
(2.8478257e-07 0.0014074612 0)
(-2.8690112e-07 0.001407461 0)
(-8.5810238e-07 0.001407523 0)
(-1.4285359e-06 0.0014076624 0)
(-2.0171802e-06 0.0014079009 0)
(-2.6520267e-06 0.0014082378 0)
(-3.3629328e-06 0.0014085634 0)
(-4.2249728e-06 0.0014084802 0)
(-5.2699658e-06 0.0014067357 0)
(-5.6281067e-06 0.0014010829 0)
(-4.6080672e-06 0.0013869499 0)
(4.2526273e-06 0.0018102446 0)
(5.2587363e-06 0.0018281077 0)
(4.6290537e-06 0.0018346157 0)
(3.5304507e-06 0.0018365265 0)
(2.6954696e-06 0.0018363398 0)
(2.1670135e-06 0.0018358511 0)
(1.6962016e-06 0.0018354227 0)
(1.2360494e-06 0.0018351489 0)
(7.562297e-07 0.0018349979 0)
(2.5405104e-07 0.001834934 0)
(-2.5679959e-07 0.0018349337 0)
(-7.5889151e-07 0.0018349969 0)
(-1.2385287e-06 0.0018351474 0)
(-1.6985131e-06 0.0018354208 0)
(-2.1689303e-06 0.0018358491 0)
(-2.6969007e-06 0.0018363379 0)
(-3.5313277e-06 0.0018365248 0)
(-4.6292986e-06 0.0018346145 0)
(-5.2583303e-06 0.0018281072 0)
(-4.252094e-06 0.0018102448 0)
(3.9557064e-06 0.0022698196 0)
(4.9650004e-06 0.0022915114 0)
(3.7552875e-06 0.0022983681 0)
(2.6531659e-06 0.0023000455 0)
(1.8756775e-06 0.0022993134 0)
(1.6682985e-06 0.0022986202 0)
(1.4059478e-06 0.0022981186 0)
(1.0882777e-06 0.0022978425 0)
(6.9137868e-07 0.0022977125 0)
(2.364865e-07 0.0022976654 0)
(-2.397795e-07 0.0022976652 0)
(-6.9454694e-07 0.0022977116 0)
(-1.0911198e-06 0.002297841 0)
(-1.4083958e-06 0.0022981169 0)
(-1.670159e-06 0.0022986184 0)
(-1.8768528e-06 0.0022993115 0)
(-2.6536187e-06 0.0023000438 0)
(-3.7549886e-06 0.0022983668 0)
(-4.964017e-06 0.0022915104 0)
(-3.9548675e-06 0.002269819 0)
(3.1457694e-06 0.0027807517 0)
(4.0613163e-06 0.002804671 0)
(2.140357e-06 0.0028116543 0)
(1.2870995e-06 0.0028125519 0)
(8.2389262e-07 0.0028108639 0)
(1.2055845e-06 0.002810018 0)
(1.2178753e-06 0.0028095252 0)
(1.0472406e-06 0.0028093279 0)
(7.016948e-07 0.002809272 0)
(2.4574313e-07 0.0028092677 0)
(-2.4941892e-07 0.0028092674 0)
(-7.0524347e-07 0.0028092712 0)
(-1.0503003e-06 0.0028093267 0)
(-1.2203989e-06 0.0028095238 0)
(-1.2073958e-06 0.0028100164 0)
(-8.2493551e-07 0.0028108622 0)
(-1.2873496e-06 0.0028125501 0)
(-2.1398569e-06 0.0028116527 0)
(-4.0602369e-06 0.0028046692 0)
(-3.1449096e-06 0.0027807499 0)
(9.9718151e-08 0.0033540768 0)
(1.4102513e-06 0.0033785326 0)
(-1.5302178e-07 0.0033848239 0)
(-8.9750487e-07 0.0033847557 0)
(-5.1892241e-07 0.0033825288 0)
(9.5518163e-07 0.0033819749 0)
(1.2704315e-06 0.0033817074 0)
(1.2093002e-06 0.0033817224 0)
(8.3931046e-07 0.0033818146 0)
(2.9824362e-07 0.0033818876 0)
(-3.0207318e-07 0.0033818874 0)
(-8.4293873e-07 0.0033818141 0)
(-1.2124525e-06 0.0033817215 0)
(-1.2730022e-06 0.0033817063 0)
(-9.5700301e-07 0.0033819736 0)
(5.1785439e-07 0.0033825273 0)
(8.9716148e-07 0.003384754 0)
(1.5326229e-07 0.0033848219 0)
(-1.4095034e-06 0.0033785302 0)
(-9.9020233e-08 0.003354074 0)
(-5.7912918e-06 0.0039933331 0)
(-4.4378442e-06 0.0040167036 0)
(-3.6555208e-06 0.004021255 0)
(-3.1005752e-06 0.0040204437 0)
(-1.1885842e-06 0.0040181391 0)
(1.378976e-06 0.0040186475 0)
(1.7600306e-06 0.0040188765 0)
(1.6735329e-06 0.004019257 0)
(1.1532855e-06 0.004019566 0)
(4.0953814e-07 0.0040197465 0)
(-4.1318811e-07 0.0040197464 0)
(-1.1567271e-06 0.0040195658 0)
(-1.6765442e-06 0.0040192567 0)
(-1.7625069e-06 0.004018876 0)
(-1.3808121e-06 0.0040186469 0)
(1.1873774e-06 0.0040181382 0)
(3.0999473e-06 0.0040204425 0)
(3.6553361e-06 0.0040212533 0)
(4.4380218e-06 0.0040167014 0)
(5.7916052e-06 0.0039933303 0)
(-1.4645228e-05 0.0046074199 0)
(-1.4511751e-05 0.0046294009 0)
(-8.1404744e-06 0.0046341936 0)
(-5.1856387e-06 0.004634289 0)
(-1.0158682e-06 0.0046329314 0)
(2.8189649e-06 0.0046336983 0)
(2.7870982e-06 0.0046345345 0)
(2.4833439e-06 0.0046353587 0)
(1.6529292e-06 0.0046359637 0)
(5.8146835e-07 0.0046362827 0)
(-5.845493e-07 0.0046362828 0)
(-1.6558462e-06 0.004635964 0)
(-2.4859568e-06 0.0046353591 0)
(-2.7893092e-06 0.004634535 0)
(-2.8207271e-06 0.0046336988 0)
(1.0145599e-06 0.0046329317 0)
(5.1847414e-06 0.0046342891 0)
(8.1398619e-06 0.0046341934 0)
(1.4511431e-05 0.0046294003 0)
(1.4645233e-05 0.0046074189 0)
(-2.3249496e-05 0.0051164993 0)
(-2.2978679e-05 0.0051371252 0)
(-9.1646049e-06 0.0051421226 0)
(-4.8846791e-06 0.0051455236 0)
(-2.8535377e-07 0.005150142 0)
(4.0603802e-06 0.0051524048 0)
(4.220933e-06 0.0051542589 0)
(3.606298e-06 0.0051556686 0)
(2.3543403e-06 0.005156588 0)
(8.1637239e-07 0.0051570399 0)
(-8.1857919e-07 0.0051570401 0)
(-2.356466e-06 0.0051565888 0)
(-3.6082823e-06 0.0051556698 0)
(-4.2226958e-06 0.0051542605 0)
(-4.0618751e-06 0.0051524065 0)
(2.8414966e-07 0.0051501437 0)
(4.8837631e-06 0.0051455253 0)
(9.1639083e-06 0.0051421244 0)
(2.2978314e-05 0.0051371269 0)
(2.3249461e-05 0.0051165011 0)
(-2.4265945e-05 0.0055291697 0)
(-2.1073862e-05 0.0055412101 0)
(-3.7394853e-06 0.0055457604 0)
(2.4123354e-06 0.0055530307 0)
(6.0626251e-06 0.005561456 0)
(7.5628605e-06 0.0055655341 0)
(6.5193697e-06 0.0055685578 0)
(5.1538188e-06 0.0055705715 0)
(3.2318374e-06 0.0055717729 0)
(1.1005409e-06 0.0055723466 0)
(-1.1019048e-06 0.0055723469 0)
(-3.2331949e-06 0.0055717738 0)
(-5.1551631e-06 0.0055705729 0)
(-6.5206436e-06 0.0055685594 0)
(-7.5640396e-06 0.005565536 0)
(-6.063582e-06 0.0055614579 0)
(-2.4129605e-06 0.0055530327 0)
(3.7391176e-06 0.0055457624 0)
(2.1074044e-05 0.0055412123 0)
(2.4266283e-05 0.0055291723 0)
(7.03746e-05 0.0059677665 0)
(9.0382794e-05 0.0060019679 0)
(5.9366299e-05 0.0060081054 0)
(3.8448592e-05 0.0060177274 0)
(2.7579968e-05 0.0060244525 0)
(2.1757828e-05 0.0060279295 0)
(1.5719824e-05 0.0060321821 0)
(1.0865183e-05 0.0060347638 0)
(6.3398543e-06 0.0060362808 0)
(2.0877501e-06 0.0060370232 0)
(-2.0891794e-06 0.0060370237 0)
(-6.341286e-06 0.0060362824 0)
(-1.0866606e-05 0.0060347661 0)
(-1.5721189e-05 0.0060321851 0)
(-2.1759091e-05 0.0060279328 0)
(-2.7581019e-05 0.0060244563 0)
(-3.8449293e-05 0.0060177313 0)
(-5.9366653e-05 0.0060081098 0)
(-9.0382563e-05 0.0060019728 0)
(-7.037419e-05 0.0059677736 0)
(0.00050807739 0.0055761384 0)
(0.00071501759 0.0061115046 0)
(0.00054041083 0.0061224236 0)
(0.00037094939 0.0061115997 0)
(0.00025315122 0.0061085042 0)
(0.00017409495 0.0061041878 0)
(0.00011748953 0.0061055648 0)
(7.577425e-05 0.0061066439 0)
(4.2462423e-05 0.0061075476 0)
(1.3735218e-05 0.0061080826 0)
(-1.3743838e-05 0.0061080835 0)
(-4.247084e-05 0.0061075503 0)
(-7.5782247e-05 0.0061066482 0)
(-0.00011749696 0.0061055702 0)
(-0.00017410149 0.006104194 0)
(-0.00025315658 0.006108511 0)
(-0.00037095326 0.0061116071 0)
(-0.00054041308 0.0061224317 0)
(-0.0007150182 0.0061115146 0)
(-0.00050807741 0.0055761555 0)
(0.00063384933 0.004339672 0)
(0.0012040947 0.0058319807 0)
(0.0011784623 0.0060590113 0)
(0.00097355799 0.0060406268 0)
(0.00074975184 0.0059885703 0)
(0.00055388665 0.0059418409 0)
(0.00039212898 0.0059103291 0)
(0.00025968428 0.0058899573 0)
(0.00014781756 0.0058778939 0)
(4.8261508e-05 0.0058721281 0)
(-4.8276811e-05 0.0058721289 0)
(-0.00014783264 0.0058778967 0)
(-0.000259699 0.0058899614 0)
(-0.00039214275 0.0059103341 0)
(-0.00055389889 0.0059418467 0)
(-0.00074976205 0.0059885766 0)
(-0.00097356544 0.0060406336 0)
(-0.0011784668 0.0060590189 0)
(-0.0012040967 0.0058319904 0)
(-0.00063384985 0.0043396849 0)
(0.00043846081 0.0034330174 0)
(0.0010222812 0.0054972719 0)
(0.0011752034 0.0060855339 0)
(0.0010914594 0.0062040474 0)
(0.00091462145 0.0061774043 0)
(0.0007178071 0.0061154983 0)
(0.00053045032 0.0060569586 0)
(0.00036145147 0.0060121186 0)
(0.00020936266 0.0059826812 0)
(6.9023765e-05 0.0059679669 0)
(-6.9035625e-05 0.0059679674 0)
(-0.00020937417 0.0059826827 0)
(-0.0003614625 0.0060121212 0)
(-0.00053046054 0.0060569616 0)
(-0.00071781605 0.0061155018 0)
(-0.00091462902 0.0061774082 0)
(-0.001091465 0.0062040518 0)
(-0.0011752063 0.006085539 0)
(-0.0010222821 0.0054972781 0)
(-0.00043846078 0.0034330262 0)
(0.0002549556 0.0028263518 0)
(0.00072407359 0.0051412802 0)
(0.00095592341 0.0060258859 0)
(0.00097598983 0.0063160134 0)
(0.00087745588 0.0063651646 0)
(0.00072615928 0.0063256939 0)
(0.00055818732 0.0062641125 0)
(0.00039103284 0.0062078773 0)
(0.00023052834 0.0061675559 0)
(7.6717145e-05 0.0061466722 0)
(-7.6726651e-05 0.0061466727 0)
(-0.00023053812 0.0061675569 0)
(-0.00039104226 0.0062078793 0)
(-0.0005581961 0.006264115 0)
(-0.00072616701 0.0063256965 0)
(-0.00087746218 0.0063651682 0)
(-0.00097599417 0.0063160179 0)
(-0.00095592541 0.0060258906 0)
(-0.00072407418 0.0051412854 0)
(-0.00025495569 0.0028263585 0)
(0.00013737191 0.0024448224 0)
(0.00046920912 0.0048082568 0)
(0.00070505675 0.005881976 0)
(0.00078207007 0.0063220992 0)
(0.00074780783 0.0064616019 0)
(0.00064886899 0.0064672333 0)
(0.00051698537 0.0064227931 0)
(0.0003716548 0.0063695459 0)
(0.00022282014 0.0063270952 0)
(7.4775011e-05 0.006304139 0)
(-7.4782906e-05 0.006304139 0)
(-0.00022282796 0.0063270957 0)
(-0.0003716625 0.0063695468 0)
(-0.0005169927 0.0064227949 0)
(-0.00064887526 0.0064672355 0)
(-0.00074781292 0.0064616051 0)
(-0.00078207363 0.0063221033 0)
(-0.0007050588 0.0058819802 0)
(-0.00046921004 0.0048082613 0)
(-0.00013737204 0.0024448277 0)
(7.1847863e-05 0.0022180894 0)
(0.00028956192 0.0045483438 0)
(0.00049072836 0.0057261323 0)
(0.00058636707 0.0062782485 0)
(0.00059246659 0.0065011341 0)
(0.00053640887 0.0065589745 0)
(0.0004414685 0.0065429097 0)
(0.00032495394 0.006502916 0)
(0.00019785519 0.0064655901 0)
(6.6872124e-05 0.006444215 0)
(-6.6878615e-05 0.0064442148 0)
(-0.00019786168 0.0064655901 0)
(-0.00032496006 0.0065029158 0)
(-0.00044147423 0.0065429106 0)
(-0.00053641409 0.0065589762 0)
(-0.00059247083 0.0065011365 0)
(-0.00058637026 0.0062782521 0)
(-0.00049073053 0.0057261363 0)
(-0.00028956319 0.0045483481 0)
(-7.1848265e-05 0.0022180941 0)
(3.7866876e-05 0.0020860569 0)
(0.0001750331 0.0043641113 0)
(0.0003294019 0.005591887 0)
(0.0004204546 0.0062196648 0)
(0.00044633515 0.0065098727 0)
(0.00041983712 0.0066169275 0)
(0.00035578548 0.0066326434 0)
(0.00026755559 0.0066111575 0)
(0.00016520982 0.0065834704 0)
(5.6177469e-05 0.0065661552 0)
(-5.6182657e-05 0.0065661548 0)
(-0.00016521454 0.0065834698 0)
(-0.00026755998 0.0066111566 0)
(-0.00035578974 0.0066326433 0)
(-0.00041984112 0.0066169283 0)
(-0.00044633847 0.0065098746 0)
(-0.00042045732 0.006219668 0)
(-0.00032940396 0.0055918911 0)
(-0.00017503447 0.0043641158 0)
(-3.7867486e-05 0.0020860614 0)
(2.0506835e-05 0.0020088605 0)
(0.00010530994 0.0042392095 0)
(0.00021590407 0.0054867709 0)
(0.00029189262 0.0061617969 0)
(0.00032381132 0.0065017535 0)
(0.00031522957 0.0066501032 0)
(0.00027429311 0.006695829 0)
(0.00021031815 0.0066940236 0)
(0.00013153292 0.0066778362 0)
(4.4960938e-05 0.0066657761 0)
(-4.4965208e-05 0.0066657756 0)
(-0.00013153673 0.0066778352 0)
(-0.00021032181 0.006694022 0)
(-0.00027429645 0.0066958283 0)
(-0.00031523228 0.0066501035 0)
(-0.00032381377 0.0065017553 0)
(-0.00029189488 0.0061617999 0)
(-0.00021590589 0.0054867753 0)
(-0.00010531152 0.0042392144 0)
(-2.0507588e-05 0.0020088654 0)
(1.1420388e-05 0.0019632836 0)
(6.340661e-05 0.0041569235 0)
(0.00013906816 0.0054094184 0)
(0.000197559 0.006112044 0)
(0.0002279296 0.0064864634 0)
(0.00022887701 0.0066668649 0)
(0.00020399732 0.006738181 0)
(0.00015921103 0.0067546113 0)
(0.00010073468 0.0067498464 0)
(3.4593823e-05 0.0067432346 0)
(-3.4597222e-05 0.0067432343 0)
(-0.00010073778 0.0067498453 0)
(-0.00015921356 0.0067546098 0)
(-0.00020399962 0.0067381803 0)
(-0.00022887914 0.0066668651 0)
(-0.00022793142 0.0064864654 0)
(-0.00019756051 0.0061120477 0)
(-0.00013906932 0.005409423 0)
(-6.3407922e-05 0.0041569289 0)
(-1.1421047e-05 0.0019632892 0)
(6.4834484e-06 0.0019361765 0)
(3.8178612e-05 0.0041039015 0)
(8.8284685e-05 0.0053551007 0)
(0.00013087189 0.0060729155 0)
(0.00015637379 0.0064700651 0)
(0.00016151124 0.0066739764 0)
(0.0001471579 0.0067656436 0)
(0.00011673321 0.0067975624 0)
(7.4652316e-05 0.0068030028 0)
(2.5745736e-05 0.0068014044 0)
(-2.5748823e-05 0.0068014041 0)
(-7.4654992e-05 0.0068030015 0)
(-0.00011673532 0.0067975611 0)
(-0.00014715976 0.0067656431 0)
(-0.00016151258 0.006673977 0)
(-0.00015637471 0.0064700678 0)
(-0.0001308726 0.0060729197 0)
(-8.8285404e-05 0.0053551058 0)
(-3.8179342e-05 0.0041039077 0)
(-6.4836114e-06 0.0019361828 0)
(3.7048328e-06 0.0019200169 0)
(2.29022e-05 0.0040703268 0)
(5.5274601e-05 0.0053182551 0)
(8.5029096e-05 0.0060439275 0)
(0.00010485563 0.0064554865 0)
(0.00011113628 0.0066759043 0)
(0.00010334327 0.0067829376 0)
(8.3224037e-05 0.0068272213 0)
(5.3754381e-05 0.0068411469 0)
(1.8612632e-05 0.0068438149 0)
(-1.8615661e-05 0.0068438146 0)
(-5.3756676e-05 0.0068411457 0)
(-8.3225706e-05 0.0068272202 0)
(-0.00010334481 0.0067829374 0)
(-0.00011113731 0.0066759052 0)
(-0.00010485606 0.0064554896 0)
(-8.5029452e-05 0.0060439317 0)
(-5.527477e-05 0.0053182603 0)
(-2.290219e-05 0.0040703336 0)
(-3.7046803e-06 0.0019200233 0)
(2.0992443e-06 0.0019104271 0)
(1.3608525e-05 0.0040493949 0)
(3.4094896e-05 0.0052939242 0)
(5.4218907e-05 0.006023351 0)
(6.8826039e-05 0.006443733 0)
(7.4725106e-05 0.0066753319 0)
(7.0825076e-05 0.0067934992 0)
(5.7852223e-05 0.0068471953 0)
(3.7718354e-05 0.0068678075 0)
(1.3110357e-05 0.0068739041 0)
(-1.3113412e-05 0.006873904 0)
(-3.7720678e-05 0.0068678069 0)
(-5.7854094e-05 0.0068471947 0)
(-7.0826626e-05 0.0067934995 0)
(-7.4725823e-05 0.0066753331 0)
(-6.8826139e-05 0.006443736 0)
(-5.4219011e-05 0.0060233553 0)
(-3.4094734e-05 0.0052939294 0)
(-1.3608257e-05 0.0040494016 0)
(-2.0991043e-06 0.0019104332 0)
(1.1588972e-06 0.001904809 0)
(7.9512344e-06 0.0040365579 0)
(2.0665151e-05 0.0052782253 0)
(3.3910774e-05 0.006009228 0)
(4.4244519e-05 0.0064348371 0)
(4.9150465e-05 0.0066737799 0)
(4.7443397e-05 0.0067997432 0)
(3.9282804e-05 0.0068603329 0)
(2.5841797e-05 0.0068859947 0)
(9.0164295e-06 0.0068947259 0)
(-9.0191778e-06 0.0068947258 0)
(-2.5844203e-05 0.0068859943 0)
(-3.9284804e-05 0.0068603327 0)
(-4.7444753e-05 0.0067997439 0)
(-4.9151198e-05 0.0066737814 0)
(-4.4244566e-05 0.00643484 0)
(-3.3910733e-05 0.0060092322 0)
(-2.0665102e-05 0.0052782303 0)
(-7.950866e-06 0.004036564 0)
(-1.1585606e-06 0.0019048143 0)
(6.0878852e-07 0.001901592 0)
(4.5248109e-06 0.0040288351 0)
(1.2254786e-05 0.0052683146 0)
(2.0764038e-05 0.0059998044 0)
(2.7840174e-05 0.0064284053 0)
(3.1633435e-05 0.0066720394 0)
(3.1086285e-05 0.0068033026 0)
(2.6083215e-05 0.0068687793 0)
(1.7309304e-05 0.0068981225 0)
(6.0624691e-06 0.0069088052 0)
(-6.0652262e-06 0.0069088052 0)
(-1.7311964e-05 0.0068981222 0)
(-2.6085144e-05 0.0068687795 0)
(-3.1087585e-05 0.0068033034 0)
(-3.1634141e-05 0.0066720412 0)
(-2.7840265e-05 0.0064284083 0)
(-2.0763695e-05 0.0059998084 0)
(-1.2254032e-05 0.0052683196 0)
(-4.524073e-06 0.0040288405 0)
(-6.0845214e-07 0.0019015968 0)
(2.9135671e-07 0.0018998155 0)
(2.4721671e-06 0.0040242993 0)
(7.0612336e-06 0.0052621948 0)
(1.2402142e-05 0.0059936712 0)
(1.7116391e-05 0.0064239167 0)
(1.9906929e-05 0.0066704689 0)
(1.9921924e-05 0.0068052407 0)
(1.6940709e-05 0.0068740853 0)
(1.1341117e-05 0.0069060326 0)
(3.987599e-06 0.0069181161 0)
(-3.990482e-06 0.0069181162 0)
(-1.1343947e-05 0.0069060326 0)
(-1.6942987e-05 0.0068740855 0)
(-1.9923395e-05 0.0068052413 0)
(-1.99079e-05 0.0066704708 0)
(-1.7116653e-05 0.0064239196 0)
(-1.2401699e-05 0.0059936752 0)
(-7.0606217e-06 0.0052621997 0)
(-2.4716122e-06 0.0040243045 0)
(-2.9104859e-07 0.00189982 0)
(1.1312699e-07 0.0018988907 0)
(1.2640373e-06 0.0040217192 0)
(3.9082696e-06 0.0052585067 0)
(7.1810329e-06 0.0059897717 0)
(1.0245729e-05 0.0064208728 0)
(1.222441e-05 0.0066691913 0)
(1.2473426e-05 0.0068062287 0)
(1.0756538e-05 0.0068773358 0)
(7.2666922e-06 0.0069110767 0)
(2.5652359e-06 0.0069241386 0)
(-2.5684735e-06 0.006924139 0)
(-7.2696574e-06 0.0069110765 0)
(-1.0759107e-05 0.0068773361 0)
(-1.2475032e-05 0.0068062294 0)
(-1.2225622e-05 0.0066691929 0)
(-1.024645e-05 0.0064208756 0)
(-7.1809343e-06 0.0059897754 0)
(-3.9077287e-06 0.0052585114 0)
(-1.2636725e-06 0.0040217241 0)
(-1.1306087e-07 0.0018988946 0)
(1.7220168e-08 0.0018984567 0)
(5.712159e-07 0.0040203171 0)
(2.034557e-06 0.0052563475 0)
(3.9869027e-06 0.0059873495 0)
(5.9341763e-06 0.0064188582 0)
(7.2972973e-06 0.0066682136 0)
(7.6113462e-06 0.006806679 0)
(6.6661837e-06 0.0068792705 0)
(4.5478306e-06 0.0069142167 0)
(1.6124311e-06 0.0069279456 0)
(-1.6156432e-06 0.006927946 0)
(-4.5507056e-06 0.0069142167 0)
(-6.6686021e-06 0.0068792709 0)
(-7.6137214e-06 0.0068066799 0)
(-7.2992718e-06 0.0066682151 0)
(-5.9352113e-06 0.0064188609 0)
(-3.9872506e-06 0.0059873533 0)
(-2.0344891e-06 0.0052563521 0)
(-5.7128089e-07 0.0040203215 0)
(-1.7436105e-08 0.0018984604 0)
(-3.0300865e-08 0.0018982966 0)
(1.8931361e-07 0.0040196071 0)
(9.5239635e-07 0.0052551294 0)
(2.0801069e-06 0.0059858822 0)
(3.2892579e-06 0.0064175538 0)
(4.206822e-06 0.0066674954 0)
(4.5068998e-06 0.0068068384 0)
(4.0191101e-06 0.0068803817 0)
(2.7728744e-06 0.0069161197 0)
(9.8779883e-07 0.006930293 0)
(-9.913339e-07 0.0069302931 0)
(-2.7761253e-06 0.0069161198 0)
(-4.0221573e-06 0.0068803817 0)
(-4.5093384e-06 0.0068068394 0)
(-4.2085584e-06 0.0066674968 0)
(-3.2905966e-06 0.0064175565 0)
(-2.0811492e-06 0.0059858861 0)
(-9.5296997e-07 0.005255134 0)
(-1.8984772e-07 0.0040196113 0)
(2.9877152e-08 0.0018983006 0)
(-4.9007393e-08 0.0018982851 0)
(-7.4789507e-09 0.0040192865 0)
(3.5202832e-07 0.0052544763 0)
(9.7703266e-07 0.0059850188 0)
(1.7094104e-06 0.0064167267 0)
(2.3143751e-06 0.0066669833 0)
(2.5698992e-06 0.0068068505 0)
(2.3448752e-06 0.0068809897 0)
(1.6401194e-06 0.006917237 0)
(5.8763206e-07 0.0069316995 0)
(-5.9121875e-07 0.0069316994 0)
(-1.6434636e-06 0.0069172369 0)
(-2.3479161e-06 0.0068809898 0)
(-2.5727756e-06 0.0068068515 0)
(-2.3170169e-06 0.0066669845 0)
(-1.7114923e-06 0.0064167293 0)
(-9.7852307e-07 0.0059850227 0)
(-3.5295378e-07 0.0052544809 0)
(6.7978608e-09 0.0040192909 0)
(4.872921e-08 0.001898289 0)
(-5.030395e-08 0.0018983379 0)
(-9.5073032e-08 0.0040191865 0)
(3.9757242e-08 0.0052541495 0)
(3.667702e-07 0.0059845284 0)
(7.9866741e-07 0.0064162132 0)
(1.1903017e-06 0.0066666262 0)
(1.393507e-06 0.0068067966 0)
(1.3119326e-06 0.0068812993 0)
(9.3419849e-07 0.006917867 0)
(3.3692512e-07 0.006932514 0)
(-3.4077862e-07 0.0069325137 0)
(-9.3774938e-07 0.0069178667 0)
(-1.3152145e-06 0.0068812996 0)
(-1.3965203e-06 0.006806797 0)
(-1.1931691e-06 0.0066666271 0)
(-8.0126971e-07 0.0064162156 0)
(-3.6899253e-07 0.0059845322 0)
(-4.1070274e-08 0.005254154 0)
(9.4183864e-08 0.0040191911 0)
(4.9839364e-08 0.0018983418 0)
(-4.3393104e-08 0.0018984113 0)
(-1.2004774e-07 0.0040191976 0)
(-1.0192505e-07 0.0052540102 0)
(5.3143116e-08 0.0059842606 0)
(2.9952602e-07 0.0064159019 0)
(5.4852357e-07 0.0066663824 0)
(7.0285766e-07 0.0068067203 0)
(6.9391538e-07 0.0068814391 0)
(5.0667575e-07 0.0069182031 0)
(1.8406213e-07 0.0069329655 0)
(-1.883729e-07 0.0069329653 0)
(-5.1055432e-07 0.0069182027 0)
(-6.9756294e-07 0.006881439 0)
(-7.0620392e-07 0.0068067203 0)
(-5.515927e-07 0.0066663828 0)
(-3.0216817e-07 0.0064159037 0)
(-5.5233374e-08 0.0059842638 0)
(1.0045547e-07 0.005254014 0)
(1.1890476e-07 0.0040192021 0)
(4.2889089e-08 0.0018984156 0)
(-3.3541402e-08 0.0018984828 0)
(-1.1085785e-07 0.0040192522 0)
(-1.4413974e-07 0.0052539721 0)
(-8.3992019e-08 0.0059841241 0)
(4.9753511e-08 0.0064157167 0)
(2.0408691e-07 0.0066662192 0)
(3.1641038e-07 0.0068066445 0)
(3.3898712e-07 0.0068814875 0)
(2.576411e-07 0.0069183686 0)
(9.4513356e-08 0.006933201 0)
(-9.9172804e-08 0.0069332009 0)
(-2.6194641e-07 0.0069183681 0)
(-3.4318361e-07 0.0068814868 0)
(-3.2020247e-07 0.006806644 0)
(-2.0760332e-07 0.0066662193 0)
(-5.27279e-08 0.0064157179 0)
(8.1628814e-08 0.0059841263 0)
(1.423045e-07 0.0052539749 0)
(1.0954819e-07 0.0040192561 0)
(3.2966525e-08 0.0018984871 0)
(-2.2268124e-08 0.0018985417 0)
(-8.3315094e-08 0.0040193147 0)
(-1.2884863e-07 0.0052539807 0)
(-1.1696775e-07 0.0059840643 0)
(-5.0922867e-08 0.0064156115 0)
(4.0124734e-08 0.0066661135 0)
(1.1718807e-07 0.0068065811 0)
(1.479652e-07 0.0068814923 0)
(1.2000958e-07 0.0069184413 0)
(4.4464691e-08 0.0069333152 0)
(-4.9448143e-08 0.006933315 0)
(-1.251893e-07 0.0069184406 0)
(-1.5278572e-07 0.0068814914 0)
(-1.2165218e-07 0.0068065801 0)
(-4.4123033e-08 0.006666113 0)
(4.7733044e-08 0.0064156118 0)
(1.1474002e-07 0.0059840655 0)
(1.2758149e-07 0.0052539826 0)
(8.2412071e-08 0.0040193177 0)
(2.1882837e-08 0.0018985456 0)
(-9.2441532e-09 0.0018985859 0)
(-4.3677128e-08 0.0040193708 0)
(-7.937667e-08 0.005254012 0)
(-8.8652903e-08 0.005984053 0)
(-6.3170936e-08 0.0064155651 0)
(-1.5437158e-08 0.0066660568 0)
(3.160404e-08 0.006806542 0)
(5.7029721e-08 0.0068814888 0)
(5.1273146e-08 0.0069184757 0)
(1.8626832e-08 0.0069333733 0)
(-2.4380026e-08 0.006933373 0)
(-5.7105472e-08 0.0069184747 0)
(-6.2487553e-08 0.0068814876 0)
(-3.6521878e-08 0.0068065404 0)
(1.1044238e-08 0.0066660557 0)
(5.986225e-08 0.0064155646 0)
(8.6341044e-08 0.0059840532 0)
(7.7908308e-08 0.0052540128 0)
(4.2951796e-08 0.0040193728 0)
(9.0750605e-09 0.0018985895 0)
(9.6142297e-09 0.0018985833 0)
(1.0488717e-08 0.0040193811 0)
(-5.3684744e-09 0.005254023 0)
(-2.3441031e-08 0.0059840458 0)
(-2.4028954e-08 0.0064155349 0)
(-7.8272424e-09 0.0066660145 0)
(1.316436e-08 0.006806504 0)
(2.6232381e-08 0.006881468 0)
(2.4125868e-08 0.0069184748 0)
(7.7807524e-09 0.0069333851 0)
(-1.3997308e-08 0.0069333846 0)
(-3.0377742e-08 0.0069184737 0)
(-3.2116413e-08 0.0068814663 0)
(-1.8288225e-08 0.0068065019 0)
(3.3640218e-09 0.0066660126 0)
(2.0151474e-08 0.0064155333 0)
(2.0601644e-08 0.0059840446 0)
(3.5707229e-09 0.0052540227 0)
(-1.140997e-08 0.0040193822 0)
(-9.8588126e-09 0.0018985868 0)
(3.876882e-08 0.0018983135 0)
(8.0808369e-08 0.0040191105 0)
(8.2614488e-08 0.0052537797 0)
(5.8977156e-08 0.005983806 0)
(3.9652587e-08 0.0064152841 0)
(3.1840062e-08 0.0066657533 0)
(3.068084e-08 0.0068062406 0)
(2.8339901e-08 0.0068812105 0)
(1.9969833e-08 0.0069182262 0)
(5.2064582e-09 0.0069331428 0)
(-1.2134163e-08 0.0069331423 0)
(-2.6850325e-08 0.0069182249 0)
(-3.4818453e-08 0.0068812085 0)
(-3.6204343e-08 0.0068062378 0)
(-3.6728617e-08 0.00666575 0)
(-4.4030183e-08 0.0064152811 0)
(-6.2297085e-08 0.0059838032 0)
(-8.4574442e-08 0.0052537782 0)
(-8.1545626e-08 0.0040191105 0)
(-3.8900312e-08 0.0018983168 0)
(5.3834459e-08 0.0018985098 0)
(1.2348455e-07 0.0040193893 0)
(1.3748028e-07 0.0052541283 0)
(1.1635838e-07 0.0059841786 0)
(9.0719722e-08 0.0064156544 0)
(7.0504756e-08 0.0066661149 0)
(5.5198548e-08 0.0068065969 0)
(4.1045478e-08 0.0068815677 0)
(2.5027712e-08 0.0069185869 0)
(6.3027186e-09 0.0069335071 0)
(-1.3530469e-08 0.0069335065 0)
(-3.2098224e-08 0.0069185855 0)
(-4.7956953e-08 0.0068815654 0)
(-6.1615858e-08 0.0068065929 0)
(-7.6047776e-08 0.00666611 0)
(-9.5381724e-08 0.0064156495 0)
(-1.198617e-07 0.0059841739 0)
(-1.3959712e-07 0.0052541254 0)
(-1.2426412e-07 0.0040193877 0)
(-5.3950119e-08 0.0018985129 0)
)
;

boundaryField
{
    Wall
    {
        type            fixedValue;
        value           uniform (0 0 0);
    }
    frontAndBack
    {
        type            empty;
    }
    atmosphere
    {
        type            pressureInletOutletVelocity;
        value           nonuniform List<vector> 
20
(
(5.3834459e-08 0.0018985098 0)
(1.2348455e-07 0.0040193893 0)
(1.3748028e-07 0.0052541283 0)
(1.1635838e-07 0.0059841786 0)
(9.0719722e-08 0.0064156544 0)
(7.0504756e-08 0.0066661149 0)
(5.5198548e-08 0.0068065969 0)
(4.1045478e-08 0.0068815677 0)
(2.5027712e-08 0.0069185869 0)
(6.3027186e-09 0.0069335071 0)
(-1.3530469e-08 0.0069335065 0)
(-3.2098224e-08 0.0069185855 0)
(-4.7956953e-08 0.0068815654 0)
(-6.1615858e-08 0.0068065929 0)
(-7.6047776e-08 0.00666611 0)
(-9.5381724e-08 0.0064156495 0)
(-1.198617e-07 0.0059841739 0)
(-1.3959712e-07 0.0052541254 0)
(-1.2426412e-07 0.0040193877 0)
(-5.3950119e-08 0.0018985129 0)
)
;
    }
}


// ************************************************************************* //
