/*--------------------------------*- C++ -*----------------------------------*\
| =========                 |                                                 |
| \\      /  F ield         | OpenFOAM: The Open Source CFD Toolbox           |
|  \\    /   O peration     | Version:  3.0.1                                 |
|   \\  /    A nd           | Web:      www.OpenFOAM.org                      |
|    \\/     M anipulation  |                                                 |
\*---------------------------------------------------------------------------*/
FoamFile
{
    version     2.0;
    format      ascii;
    class       volScalarField;
    location    "22";
    object      wBA_l_0;
}
// * * * * * * * * * * * * * * * * * * * * * * * * * * * * * * * * * * * * * //

dimensions      [0 0 0 0 0 0 0];

internalField   nonuniform List<scalar> 
800
(
0.053349435
0.053348618
0.053348536
0.053348537
0.053348541
0.053348542
0.05334854
0.053348539
0.053348538
0.053348537
0.053348537
0.053348538
0.053348539
0.053348541
0.053348542
0.053348541
0.053348538
0.053348536
0.053348618
0.053349434
0.053989512
0.053972367
0.053969308
0.053968738
0.05396858
0.053968433
0.053968268
0.053968114
0.053968001
0.053967941
0.053967941
0.053968001
0.053968115
0.053968268
0.053968434
0.053968581
0.053968738
0.053969308
0.053972366
0.05398951
0.053363462
0.053360666
0.053360584
0.053360235
0.053359689
0.053359205
0.053358834
0.053358578
0.053358421
0.053358348
0.053358348
0.053358421
0.053358578
0.053358834
0.053359205
0.053359689
0.053360234
0.053360584
0.053360664
0.05336346
0.051736879
0.051767722
0.051773259
0.051772921
0.051771854
0.051770935
0.051770348
0.051770021
0.051769853
0.051769787
0.051769786
0.051769853
0.05177002
0.051770348
0.051770934
0.051771853
0.05177292
0.051773258
0.051767721
0.051736877
0.049366293
0.049445622
0.049457699
0.049457305
0.049455628
0.049454273
0.049453513
0.04945316
0.049453014
0.049452972
0.049452972
0.049453014
0.04945316
0.049453512
0.049454272
0.049455627
0.049457304
0.049457698
0.049445621
0.049366292
0.046467339
0.046607438
0.04662753
0.046627694
0.046625523
0.046623914
0.046623115
0.046622806
0.046622728
0.04662273
0.046622729
0.046622727
0.046622805
0.046623114
0.046623912
0.046625522
0.046627693
0.046627529
0.046607437
0.046467339
0.043194209
0.043408005
0.043440277
0.043442516
0.043440449
0.043438969
0.043438363
0.043438212
0.043438261
0.043438324
0.043438324
0.043438261
0.043438212
0.043438362
0.043438968
0.043440449
0.043442516
0.043440277
0.043408005
0.04319421
0.039633961
0.039934803
0.03998942
0.039997098
0.039995606
0.039994874
0.039994741
0.039994887
0.039995108
0.039995231
0.039995231
0.039995107
0.039994886
0.039994741
0.039994874
0.039995606
0.039997098
0.039989421
0.039934804
0.039633962
0.03579736
0.036206273
0.036297996
0.036317644
0.0363204
0.036321225
0.036321744
0.036322212
0.036322569
0.036322704
0.036322704
0.036322569
0.036322211
0.036321744
0.036321225
0.0363204
0.036317645
0.036297996
0.036206274
0.035797361
0.031678512
0.032222106
0.032377917
0.03242117
0.032430401
0.032433387
0.03243419
0.032434637
0.032434821
0.032434785
0.032434785
0.032434821
0.032434636
0.032434189
0.032433387
0.032430402
0.032421171
0.032377918
0.032222107
0.031678513
0.027124537
0.027855053
0.028126408
0.028214161
0.028234664
0.028239167
0.028238531
0.028237538
0.028236596
0.028235897
0.028235896
0.028236595
0.028237536
0.028238531
0.028239167
0.028234665
0.028214163
0.028126409
0.027855055
0.02712454
0.02212009
0.023077041
0.02353957
0.023707747
0.023754363
0.023757699
0.023750963
0.023744916
0.023740582
0.023738108
0.023738107
0.023740581
0.023744913
0.023750961
0.023757698
0.023754363
0.023707749
0.023539571
0.023077044
0.022120094
0.016383564
0.017849687
0.018669637
0.019000952
0.019092664
0.019093241
0.019072207
0.019053525
0.019040859
0.019034114
0.019034112
0.019040857
0.019053521
0.019072205
0.01909324
0.019092664
0.019000954
0.018669638
0.017849691
0.01638357
0.010214538
0.012372796
0.013622748
0.014191083
0.014363621
0.014362819
0.014315557
0.014271772
0.014242276
0.01422697
0.014226968
0.014242272
0.014271766
0.014315554
0.014362817
0.01436362
0.014191084
0.013622749
0.0123728
0.010214544
0.0048110715
0.0077475627
0.0093141363
0.010062734
0.010307136
0.010304482
0.010223771
0.010144981
0.010090703
0.010062671
0.010062668
0.010090698
0.010144974
0.010223766
0.010304479
0.010307134
0.010062733
0.009314136
0.0077475647
0.0048110761
0.0016110041
0.0043874803
0.0060095821
0.0068318129
0.0071227591
0.0071285795
0.007030411
0.0069268942
0.0068526745
0.0068138873
0.0068138845
0.0068526691
0.0069268864
0.0070304054
0.0071285756
0.0071227564
0.0068318115
0.006009581
0.0043874811
0.0016110062
0.00039202398
0.0022447098
0.0036469418
0.0044285241
0.0047335003
0.0047586874
0.0046688508
0.0045641261
0.0044855621
0.0044437323
0.0044437294
0.0044855565
0.0045641181
0.0046688448
0.004758683
0.0047334972
0.0044285223
0.0036469404
0.0022447097
0.0003920246
7.3864209e-05
0.0010333403
0.0020741327
0.0027304908
0.0030149116
0.0030584201
0.0029925527
0.0029052283
0.0028365767
0.0027993043
0.0027993018
0.0028365715
0.0029052209
0.0029925469
0.0030584157
0.0030149085
0.0027304891
0.0020741314
0.0010333401
7.3864338e-05
1.1552649e-05
0.00042831063
0.0011033326
0.0015972489
0.0018354531
0.001887838
0.0018481899
0.0017854257
0.0017335734
0.0017048758
0.0017048737
0.0017335691
0.0017854195
0.0018481848
0.0018878341
0.0018354502
0.0015972474
0.0011033316
0.00042831045
1.155267e-05
1.5863958e-06
0.00016113318
0.00054913287
0.0008856425
0.0010664746
0.0011172383
0.0010980906
0.0010581649
0.001023295
0.0010036164
0.0010036148
0.0010232917
0.00105816
0.0010980865
0.0011172351
0.0010664722
0.00088564136
0.00054913218
0.00016113307
1.586399e-06
1.9869584e-07
5.5671937e-05
0.00025635567
0.00046574012
0.00059124241
0.00063340565
0.00062697824
0.00060417129
0.00058289268
0.00057063108
0.00057062994
0.00058289027
0.0006041678
0.00062697521
0.00063340331
0.00059124067
0.00046573934
0.00025635526
5.5671891e-05
1.9869632e-07
2.3245928e-08
1.7874135e-05
0.00011269766
0.00023266382
0.00031292283
0.00034398402
0.00034385043
0.00033208042
0.00032015195
0.00031311521
0.00031311447
0.00032015034
0.00033207807
0.00034384836
0.00034398241
0.00031292165
0.00023266334
0.00011269745
1.7874117e-05
2.3246002e-08
2.5769549e-09
5.3863161e-06
4.6863988e-05
0.00011065479
0.00015829181
0.00017902539
0.00018112496
0.00017564805
0.00016945631
0.00016570228
0.00016570183
0.0001694553
0.00017564658
0.00018112363
0.00017902436
0.00015829107
0.00011065452
4.6863891e-05
5.3863102e-06
2.576966e-09
2.7301067e-10
1.5355631e-06
1.8514876e-05
5.0225189e-05
7.6640071e-05
8.936443e-05
9.1669929e-05
8.940217e-05
8.6411852e-05
8.4538011e-05
8.4537751e-05
8.6411254e-05
8.9401299e-05
9.1669129e-05
8.9363818e-05
7.6639632e-05
5.0225036e-05
1.8514835e-05
1.5355613e-06
2.7301229e-10
2.7784051e-11
4.1667772e-07
6.9771913e-06
2.1808691e-05
3.5572184e-05
4.2828457e-05
4.4604226e-05
4.3799274e-05
4.2452572e-05
4.1573515e-05
4.1573374e-05
4.2452238e-05
4.3798788e-05
4.4603772e-05
4.2828112e-05
3.5571942e-05
2.1808611e-05
6.9771756e-06
4.1667724e-07
2.7784272e-11
2.724756e-12
1.0812895e-07
2.5165665e-06
9.0797601e-06
1.5852772e-05
1.9729024e-05
2.0881378e-05
2.0663413e-05
2.0098074e-05
1.9709371e-05
1.9709298e-05
2.0097897e-05
2.0663157e-05
2.0881135e-05
1.972884e-05
1.5852646e-05
9.0797203e-06
2.5165606e-06
1.0812882e-07
2.7247836e-12
2.5802587e-13
2.6935011e-08
8.7129959e-07
3.6319727e-06
6.7935022e-06
8.7454799e-06
9.4135072e-06
9.3933521e-06
9.172964e-06
9.010704e-06
9.0106681e-06
9.1728749e-06
9.3932237e-06
9.4133835e-06
8.7453866e-06
6.7934404e-06
3.6319537e-06
8.7129753e-07
2.6934975e-08
2.5802911e-13
2.3628035e-14
6.4602387e-09
2.902832e-07
1.3983661e-06
2.8033984e-06
3.7347108e-06
4.0902148e-06
4.1174714e-06
4.0384248e-06
3.9744706e-06
3.9744539e-06
4.0383818e-06
4.11741e-06
4.0901547e-06
3.7346656e-06
2.8033695e-06
1.3983576e-06
2.9028249e-07
6.460229e-09
2.3628389e-14
2.0946863e-15
1.4956993e-09
9.3254061e-08
5.1903972e-07
1.1154141e-06
1.5381356e-06
1.7145014e-06
1.7416532e-06
1.7160899e-06
1.6923256e-06
1.6923181e-06
1.71607e-06
1.741625e-06
1.7144735e-06
1.5381146e-06
1.1154012e-06
5.1903599e-07
9.325382e-08
1.4956967e-09
2.0947228e-15
1.8007301e-16
3.3500688e-10
2.8937593e-08
1.8598876e-07
4.2840442e-07
6.1155808e-07
6.9392406e-07
7.1146013e-07
7.0435564e-07
6.960632e-07
6.9605997e-07
7.0434684e-07
7.1144769e-07
6.9391161e-07
6.1154872e-07
4.2839889e-07
1.8598721e-07
2.893751e-08
3.350062e-10
1.8007599e-16
5.0439265e-17
7.2727936e-11
8.6865732e-09
6.4418273e-08
1.5899965e-07
2.3496174e-07
2.7141733e-07
2.8088646e-07
2.7942996e-07
2.7673376e-07
2.7673241e-07
2.794262e-07
2.8088119e-07
2.71412e-07
2.3495771e-07
1.5899737e-07
6.4417652e-08
8.6865446e-09
7.2727752e-11
4.9739193e-17
5.5980659e-17
1.532942e-11
2.5256498e-09
2.1589016e-08
5.7079081e-08
8.7307894e-08
1.0267493e-07
1.0725717e-07
1.0722251e-07
1.0641805e-07
1.064175e-07
1.0722096e-07
1.0725501e-07
1.0267273e-07
8.7306221e-08
5.7078173e-08
2.1588776e-08
2.5256398e-09
1.5329372e-11
5.5294543e-17
1.9493734e-17
3.1441209e-12
7.1203751e-10
7.0075822e-09
1.9836805e-08
3.1402105e-08
3.7594264e-08
3.9641283e-08
3.9822305e-08
3.9609087e-08
3.960887e-08
3.9821691e-08
3.9640432e-08
3.7593387e-08
3.1401435e-08
1.9836455e-08
7.0074926e-09
7.1203409e-10
3.1440844e-12
1.9321181e-17
4.5152095e-18
6.2846064e-13
1.9482883e-10
2.2048439e-09
6.6791627e-09
1.0940535e-08
1.3332692e-08
1.4190263e-08
1.4324477e-08
1.4278382e-08
1.42783e-08
1.4324242e-08
1.4189938e-08
1.3332355e-08
1.0940275e-08
6.6790327e-09
2.2048117e-09
1.9482753e-10
6.2844364e-13
4.4877568e-18
8.3294932e-19
1.2248365e-13
5.1780708e-11
6.7296015e-10
2.1804183e-09
3.6948337e-09
4.5829267e-09
4.9230569e-09
4.9936201e-09
4.988107e-09
4.9880765e-09
4.9935328e-09
4.9229366e-09
4.5828013e-09
3.6947363e-09
2.1803715e-09
6.7294878e-10
5.1780232e-11
1.2247732e-13
8.2749648e-19
1.2801394e-19
2.3278474e-14
1.3376044e-11
1.9938639e-10
6.9057922e-10
1.210344e-09
1.5278094e-09
1.6563288e-09
1.6880934e-09
1.689748e-09
1.689737e-09
1.6880621e-09
1.6562857e-09
1.5277641e-09
1.2103088e-09
6.9056282e-10
1.993825e-10
1.3375882e-11
2.3276677e-14
1.2698323e-19
1.5531425e-20
4.3124126e-15
3.3602894e-12
5.7379807e-11
2.1232944e-10
3.8480759e-10
4.9425768e-10
5.4072647e-10
5.5369395e-10
5.5537133e-10
5.5536755e-10
5.5368306e-10
5.4071152e-10
4.9424187e-10
3.8479522e-10
2.1232385e-10
5.7378523e-11
3.3602349e-12
4.3118707e-15
1.5402544e-20
1.1279379e-21
7.7802851e-16
8.2135124e-13
1.6048022e-11
6.3413014e-11
1.1880831e-10
1.5525261e-10
1.7138309e-10
1.7630817e-10
1.7719686e-10
1.7719559e-10
1.7630451e-10
1.7137805e-10
1.5524725e-10
1.1880411e-10
6.3411161e-11
1.6047611e-11
8.2133458e-13
7.7790241e-16
1.1190361e-21
7.941188e-23
1.3710919e-16
1.9543641e-13
4.3642411e-12
1.8405664e-11
3.5641174e-11
4.7375837e-11
5.2765078e-11
5.4529508e-11
5.4911824e-11
5.4911407e-11
5.4528312e-11
5.2763428e-11
4.7374072e-11
3.5639787e-11
1.8405069e-11
4.364116e-12
1.9543194e-13
1.3708627e-16
7.8691095e-23
5.4936471e-24
2.3609963e-17
4.5289285e-14
1.1546039e-12
5.1945851e-12
1.0393964e-11
1.4051678e-11
1.5788207e-11
1.6389485e-11
1.6536011e-11
1.6535878e-11
1.6389106e-11
1.5787682e-11
1.4051114e-11
1.0393521e-11
5.1943987e-12
1.1545669e-12
4.5288114e-14
2.3605842e-17
5.439292e-24
)
;

boundaryField
{
    Wall
    {
        type            zeroGradient;
    }
    frontAndBack
    {
        type            empty;
    }
    atmosphere
    {
        type            zeroGradient;
    }
}


// ************************************************************************* //
