/*--------------------------------*- C++ -*----------------------------------*\
| =========                 |                                                 |
| \\      /  F ield         | OpenFOAM: The Open Source CFD Toolbox           |
|  \\    /   O peration     | Version:  3.0.1                                 |
|   \\  /    A nd           | Web:      www.OpenFOAM.org                      |
|    \\/     M anipulation  |                                                 |
\*---------------------------------------------------------------------------*/
FoamFile
{
    version     2.0;
    format      ascii;
    class       volScalarField;
    location    "22";
    object      wBA_g;
}
// * * * * * * * * * * * * * * * * * * * * * * * * * * * * * * * * * * * * * //

dimensions      [0 0 0 0 0 0 0];

internalField   nonuniform List<scalar> 
800
(
0.042499633
0.042503538
0.042504227
0.042504382
0.04250447
0.042504542
0.042504603
0.042504649
0.04250468
0.042504695
0.042504695
0.04250468
0.04250465
0.042504604
0.042504543
0.042504471
0.042504383
0.042504228
0.042503539
0.042499633
0.04569742
0.045706651
0.04570577
0.045704797
0.045703714
0.045702924
0.045702396
0.045702067
0.045701875
0.045701787
0.045701787
0.045701875
0.045702066
0.045702396
0.045702923
0.045703714
0.045704796
0.045705769
0.04570665
0.045697417
0.046227537
0.046263747
0.046308327
0.04630782
0.046306153
0.04630505
0.046304553
0.046304433
0.046304452
0.046304491
0.046304491
0.046304451
0.046304431
0.046304551
0.046305047
0.04630615
0.046307817
0.046308324
0.046263743
0.046227531
0.044687023
0.044781327
0.044851849
0.044850206
0.044847906
0.044846807
0.044846715
0.044847214
0.04484772
0.044848042
0.044848042
0.044847718
0.044847211
0.044846711
0.044846802
0.044847901
0.044850201
0.044851844
0.044781321
0.044687016
0.041791489
0.041962351
0.042026958
0.042073776
0.042069723
0.042068301
0.042068556
0.042069741
0.042070783
0.042071434
0.042071433
0.042070781
0.042069737
0.042068551
0.042068294
0.042069716
0.042073768
0.042026951
0.041962344
0.04179148
0.03817606
0.038479138
0.038509655
0.038585474
0.038577066
0.038574084
0.03857402
0.038575462
0.0385768
0.038577677
0.038577676
0.038576797
0.038575457
0.038574013
0.038574076
0.038577057
0.038585465
0.038509646
0.038479128
0.038176048
0.034188004
0.034683258
0.034676595
0.03474294
0.034727136
0.034720849
0.03471937
0.034720298
0.034721473
0.034722343
0.034722343
0.03472147
0.034720293
0.034719362
0.03472084
0.034727126
0.03474293
0.034676584
0.034683247
0.03418799
0.029681983
0.030283731
0.030412549
0.030446509
0.030420501
0.030409685
0.030405952
0.030405742
0.030406366
0.030407017
0.030407016
0.030406363
0.030405737
0.030405945
0.030409677
0.030420491
0.030446498
0.030412537
0.030283717
0.029681967
0.023025574
0.024162917
0.024280155
0.024286947
0.024580018
0.024566966
0.024562046
0.024561098
0.024561372
0.024561846
0.024561845
0.024561369
0.024561093
0.02456204
0.024566958
0.024580008
0.024286937
0.024280143
0.024162903
0.02302556
0.010818888
0.012404215
0.012524329
0.012546509
0.012758867
0.013419623
0.013420485
0.013422625
0.013424477
0.013425573
0.013425572
0.013424476
0.013422622
0.013420481
0.013419617
0.01275886
0.012546501
0.012524321
0.012404206
0.010818877
0.0052440328
0.0056905904
0.0057769298
0.0058036747
0.0058877404
0.0059231592
0.0059270615
0.0059303458
0.0059325845
0.0059337451
0.0059337447
0.0059325834
0.005930344
0.0059270589
0.0059231559
0.0058877365
0.0058036702
0.0057769249
0.0056905849
0.0052440264
0.0027649657
0.0029771168
0.003030954
0.003053953
0.0030810719
0.0030853674
0.0030886034
0.0030909957
0.0030925059
0.0030932572
0.003093257
0.0030925053
0.0030909947
0.0030886019
0.0030853656
0.0030810698
0.0030539505
0.0030309514
0.002977114
0.0027649623
0.0014780455
0.0016126613
0.0016604511
0.0016811017
0.0016915742
0.0016943824
0.0016961319
0.0016972652
0.0016979246
0.0016982302
0.0016982301
0.0016979242
0.0016972646
0.0016961312
0.0016943815
0.0016915732
0.0016811005
0.0016604499
0.00161266
0.001478044
0.00071748038
0.00084392711
0.00089599745
0.00091596153
0.0009213769
0.0009216666
0.00092114382
0.00092062968
0.0009202665
0.0009200604
0.00092006031
0.00092026629
0.00092062933
0.00092114338
0.00092166611
0.00092137636
0.00091596093
0.00089599686
0.00084392652
0.00071747988
0.00027784488
0.0004212569
0.00047996008
0.0005010124
0.0005046765
0.00050250792
0.00049947597
0.00049706383
0.00049549676
0.00049469915
0.00049469907
0.0004954966
0.00049706358
0.00049947568
0.00050250762
0.00050467619
0.00050101207
0.00047995976
0.00042125664
0.00027784482
7.9007112e-05
0.00019514513
0.0002513054
0.00027335008
0.00027774299
0.00027523995
0.00027124793
0.00026784915
0.00026556288
0.00026439659
0.00026439653
0.00026556274
0.00026784896
0.00027124773
0.00027523976
0.00027774281
0.0002733499
0.00025130524
0.00019514503
7.9007129e-05
1.6664331e-05
8.2875602e-05
0.00012626561
0.00014609214
0.00015133749
0.00014991248
0.0001465329
0.00014336724
0.00014113767
0.00013998014
0.00013998009
0.00014113756
0.00014336708
0.00014653276
0.00014991236
0.00015133738
0.00014609205
0.00012626554
8.2875565e-05
1.6664342e-05
2.7556355e-06
3.2070827e-05
6.024382e-05
7.5497114e-05
8.0590204e-05
8.0300817e-05
7.8078051e-05
7.574421e-05
7.40197e-05
7.3106222e-05
7.3106185e-05
7.4019613e-05
7.5744092e-05
7.8077949e-05
8.0300732e-05
8.0590144e-05
7.5497074e-05
6.024379e-05
3.2070816e-05
2.7556378e-06
3.813369e-07
1.130836e-05
2.7155634e-05
3.7440016e-05
4.1575873e-05
4.1938353e-05
4.072683e-05
3.9258245e-05
3.8117182e-05
3.7500372e-05
3.7500344e-05
3.811712e-05
3.9258159e-05
4.0726759e-05
4.1938299e-05
4.1575838e-05
3.744e-05
2.7155623e-05
1.1308359e-05
3.8133727e-07
4.6622665e-08
3.6574847e-06
1.1548329e-05
1.7750918e-05
2.0672129e-05
2.1231961e-05
2.0678312e-05
1.9859771e-05
1.9187824e-05
1.8816992e-05
1.8816973e-05
1.9187783e-05
1.9859713e-05
2.0678263e-05
2.1231926e-05
2.0672109e-05
1.7750912e-05
1.1548327e-05
3.6574851e-06
4.6622716e-08
5.2278708e-09
1.0960372e-06
4.6391942e-06
8.0367517e-06
9.8807877e-06
1.0383247e-05
1.0179665e-05
9.7677164e-06
9.4074568e-06
9.2042197e-06
9.2042077e-06
9.4074308e-06
9.7676797e-06
1.0179635e-05
1.0383226e-05
9.880777e-06
8.0367506e-06
4.6391942e-06
1.0960378e-06
5.2278779e-09
5.5037617e-10
3.0739899e-07
1.7654957e-06
3.4762222e-06
4.53596e-06
4.8959308e-06
4.8469322e-06
4.6579909e-06
4.4796714e-06
4.3766143e-06
4.3766072e-06
4.4796562e-06
4.6579691e-06
4.8469141e-06
4.8959188e-06
4.5359544e-06
3.4762227e-06
1.7654963e-06
3.0739934e-07
5.5037729e-10
5.5168947e-11
8.1374091e-08
6.3870003e-07
1.4384025e-06
2.0002177e-06
2.2242097e-06
2.2290414e-06
2.1499044e-06
2.0676906e-06
2.018859e-06
2.0188552e-06
2.0676821e-06
2.1498922e-06
2.2290312e-06
2.2242033e-06
2.0002149e-06
1.4384032e-06
6.3870053e-07
8.1374245e-08
5.5169116e-11
5.3089704e-12
2.0465068e-08
2.2041315e-07
5.7037039e-07
8.4788234e-07
9.7352988e-07
9.8952959e-07
9.5942942e-07
9.2392013e-07
9.0215042e-07
9.0214841e-07
9.239157e-07
9.5942301e-07
9.8952425e-07
9.7352658e-07
8.4788098e-07
5.7037089e-07
2.2041346e-07
2.0465126e-08
5.308995e-12
4.9281887e-13
4.9136352e-09
7.2787807e-08
2.1714397e-07
3.4586156e-07
4.1072269e-07
4.2401188e-07
4.1380118e-07
3.9938336e-07
3.9020716e-07
3.9020618e-07
3.9938116e-07
4.1379799e-07
4.2400922e-07
4.1072108e-07
3.4586092e-07
2.1714424e-07
7.2787961e-08
4.9136541e-09
4.9282213e-13
4.4251104e-14
1.1304114e-09
2.3065167e-08
7.9514727e-08
1.3592449e-07
1.671421e-07
1.7543119e-07
1.7248634e-07
1.6697448e-07
1.6330463e-07
1.6330417e-07
1.6697346e-07
1.7248484e-07
1.7542993e-07
1.6714135e-07
1.3592419e-07
7.9514857e-08
2.3065234e-08
1.130417e-09
4.4251498e-14
3.8494998e-15
2.4987359e-10
7.0301152e-09
2.8054588e-08
5.1529941e-08
6.5665813e-08
7.0123335e-08
6.9508287e-08
6.752519e-08
6.6129294e-08
6.6129091e-08
6.7524727e-08
6.9507607e-08
7.0122764e-08
6.5665478e-08
5.1529808e-08
2.8054642e-08
7.0301419e-09
2.4987509e-10
3.8495436e-15
3.2472551e-16
5.3187759e-11
2.0652362e-09
9.552281e-09
1.8867689e-08
2.4929883e-08
2.7099367e-08
2.7093487e-08
2.6424045e-08
2.5918347e-08
2.5918261e-08
2.6423846e-08
2.7093194e-08
2.7099118e-08
2.4929739e-08
1.8867632e-08
9.5523019e-09
2.065246e-09
5.3188138e-11
3.2473009e-16
2.6575773e-17
1.0922187e-11
5.8582144e-10
3.1433405e-09
6.6801435e-09
9.1548371e-09
1.0133234e-08
1.0221801e-08
1.0011273e-08
9.8367101e-09
9.8366753e-09
1.001119e-08
1.0221679e-08
1.013313e-08
9.1547777e-09
6.6801192e-09
3.1433477e-09
5.8582477e-10
1.0922277e-11
2.6576222e-17
2.1110713e-18
2.1672913e-12
1.6071467e-10
1.0010141e-09
2.2895299e-09
3.2549907e-09
3.6694266e-09
3.7354856e-09
3.6747107e-09
3.6173339e-09
3.6173203e-09
3.6746776e-09
3.7354368e-09
3.6693848e-09
3.2549667e-09
2.28952e-09
1.0010163e-09
1.6071572e-10
2.1673115e-12
2.1111115e-18
3.1552408e-19
4.161827e-13
4.2705797e-11
3.0888141e-10
7.6042842e-10
1.1215683e-09
1.287899e-09
1.3233154e-09
1.3077211e-09
1.2898021e-09
1.289797e-09
1.3077083e-09
1.3232967e-09
1.2878827e-09
1.121559e-09
7.6042445e-10
3.0888203e-10
4.2706107e-11
4.1618696e-13
3.1248e-19
2.3593042e-19
7.7454428e-14
1.1006757e-11
9.2458083e-11
2.4499212e-10
3.7486118e-10
4.3849504e-10
4.5479878e-10
4.5153383e-10
4.4623934e-10
4.4623745e-10
4.5152904e-10
4.5479179e-10
4.3848892e-10
3.748576e-10
2.4499059e-10
9.2458224e-11
1.1006842e-11
7.7455287e-14
2.3302722e-19
7.5515058e-20
1.3998071e-14
2.755087e-12
2.687587e-11
7.6635612e-11
1.2163447e-10
1.4494398e-10
1.5175801e-10
1.513815e-10
1.4991304e-10
1.4991236e-10
1.5137977e-10
1.517555e-10
1.4494174e-10
1.2163314e-10
7.663504e-11
2.6875891e-11
2.7551095e-12
1.3998146e-14
7.4797558e-20
1.5566029e-20
2.4612566e-15
6.705907e-13
7.5940562e-12
2.3295401e-11
3.834742e-11
4.6550542e-11
4.920225e-11
4.9314868e-11
4.8938117e-11
4.8937882e-11
4.9314259e-11
4.9201371e-11
4.6549749e-11
3.8346937e-11
2.3295194e-11
7.5940546e-12
6.7059574e-13
2.4612414e-15
1.5454716e-20
2.5418572e-21
4.2143344e-16
1.5890265e-13
2.0877544e-12
6.8868504e-12
1.1755447e-11
1.4536366e-11
1.5510561e-11
1.5620917e-11
1.5534162e-11
1.5534083e-11
1.5620708e-11
1.5510263e-11
1.4536093e-11
1.1755277e-11
6.8867786e-12
2.0877507e-12
1.5890364e-13
4.2142272e-16
2.5225738e-21
3.4571759e-22
7.0338765e-17
3.6695021e-14
5.5891981e-13
1.9815618e-12
3.5064994e-12
4.4166256e-12
4.7573922e-12
4.8144028e-12
4.7977876e-12
4.7977617e-12
4.8143337e-12
4.7572941e-12
4.4165342e-12
3.5064412e-12
1.9815374e-12
5.5891768e-13
3.6695185e-14
7.0335572e-17
3.4274859e-22
3.7399366e-23
1.1450055e-17
8.266261e-15
1.4582101e-13
5.5530676e-13
1.0184198e-12
1.3064882e-12
1.420625e-12
1.4446094e-12
1.4426744e-12
1.4426661e-12
1.4445872e-12
1.4205937e-12
1.3064585e-12
1.0184004e-12
5.552987e-13
1.4582011e-13
8.2662735e-15
1.1449101e-17
3.7060468e-23
2.4708051e-24
1.8181721e-18
1.818134e-15
3.7102221e-14
1.5166098e-13
2.8818039e-13
3.7649302e-13
4.1324688e-13
4.2225639e-13
4.2258324e-13
4.225807e-13
4.2224943e-13
4.1323713e-13
3.7648359e-13
2.881741e-13
1.516584e-13
3.7101884e-14
1.8181306e-15
1.8179703e-18
2.4513632e-24
1.5533241e-25
2.8261114e-19
3.9078678e-16
9.2123904e-15
4.0391092e-14
7.949356e-14
1.0575034e-13
1.1716313e-13
1.2029476e-13
1.2064155e-13
1.2064078e-13
1.2029264e-13
1.1716016e-13
1.0574743e-13
7.9491578e-14
4.0390298e-14
9.2122804e-15
3.907853e-16
2.8257625e-19
1.5398908e-25
9.6184428e-27
4.3065126e-20
8.2145764e-17
2.2335474e-15
1.0495502e-14
2.1387303e-14
2.896668e-14
3.2391959e-14
3.3417274e-14
3.3583713e-14
3.3583487e-14
3.3416645e-14
3.2391084e-14
2.8965807e-14
2.1386697e-14
1.0495264e-14
2.2335136e-15
8.2145248e-17
4.3059383e-20
9.5255272e-27
)
;

boundaryField
{
    Wall
    {
        type            zeroGradient;
    }
    frontAndBack
    {
        type            empty;
    }
    atmosphere
    {
        type            zeroGradient;
    }
}


// ************************************************************************* //
