/*--------------------------------*- C++ -*----------------------------------*\
| =========                 |                                                 |
| \\      /  F ield         | OpenFOAM: The Open Source CFD Toolbox           |
|  \\    /   O peration     | Version:  3.0.1                                 |
|   \\  /    A nd           | Web:      www.OpenFOAM.org                      |
|    \\/     M anipulation  |                                                 |
\*---------------------------------------------------------------------------*/
FoamFile
{
    version     2.0;
    format      ascii;
    class       volScalarField;
    location    "22";
    object      wBA_l;
}
// * * * * * * * * * * * * * * * * * * * * * * * * * * * * * * * * * * * * * //

dimensions      [0 0 0 0 0 0 0];

internalField   nonuniform List<scalar> 
800
(
0.05331681
0.053315983
0.0533159
0.053315901
0.053315905
0.053315907
0.053315906
0.053315904
0.053315903
0.053315903
0.053315903
0.053315904
0.053315905
0.053315906
0.053315907
0.053315906
0.053315902
0.053315901
0.053315984
0.053316809
0.053959512
0.053942242
0.053939157
0.053938585
0.053938429
0.053938285
0.053938121
0.053937968
0.053937855
0.053937795
0.053937795
0.053937855
0.053937969
0.053938121
0.053938285
0.053938429
0.053938585
0.053939157
0.053942241
0.053959511
0.053345609
0.053342521
0.053342384
0.053342033
0.053341492
0.053341011
0.053340641
0.053340385
0.053340227
0.053340153
0.053340153
0.053340227
0.053340385
0.053340641
0.053341011
0.053341492
0.053342032
0.053342383
0.05334252
0.053345608
0.051737225
0.051767588
0.051773065
0.051772743
0.051771687
0.051770771
0.051770183
0.051769853
0.051769683
0.051769616
0.051769616
0.051769683
0.051769853
0.051770183
0.05177077
0.051771686
0.051772742
0.051773064
0.051767587
0.051737224
0.049388255
0.049466904
0.049478929
0.049478565
0.0494769
0.049475548
0.049474784
0.049474427
0.049474277
0.049474233
0.049474233
0.049474277
0.049474426
0.049474783
0.049475546
0.049476899
0.049478564
0.049478928
0.049466903
0.049388254
0.046512879
0.046652029
0.046672049
0.046672239
0.046670073
0.046668459
0.046667653
0.046667338
0.046667255
0.046667255
0.046667255
0.046667255
0.046667337
0.046667652
0.046668458
0.046670071
0.046672238
0.046672049
0.046652029
0.046512879
0.043265063
0.043477476
0.043509582
0.043511804
0.043509711
0.043508214
0.043507594
0.043507437
0.043507482
0.043507543
0.043507543
0.043507481
0.043507436
0.043507593
0.043508213
0.04350971
0.043511803
0.043509582
0.043477476
0.043265063
0.039732721
0.040031534
0.040085681
0.04009321
0.040091646
0.040090885
0.040090735
0.040090874
0.040091093
0.040091217
0.040091217
0.040091093
0.040090873
0.040090734
0.040090884
0.040091646
0.04009321
0.040085681
0.040031534
0.039732721
0.035928491
0.036334667
0.036425338
0.036444563
0.03644723
0.036448087
0.036448595
0.036449063
0.036449425
0.036449565
0.036449565
0.036449424
0.036449062
0.036448594
0.036448087
0.03644723
0.036444563
0.036425338
0.036334668
0.035928491
0.031845995
0.032385352
0.032538767
0.032581008
0.032589948
0.032594459
0.03259525
0.032595713
0.032595917
0.032595895
0.032595895
0.032595916
0.032595711
0.032595249
0.032594458
0.032589948
0.032581009
0.032538767
0.032385352
0.031845996
0.027336338
0.028060092
0.028326391
0.028412121
0.028432056
0.028436423
0.028435893
0.028435003
0.028434143
0.028433491
0.02843349
0.028434142
0.028435001
0.028435892
0.028436423
0.028432056
0.028412122
0.028326391
0.028060093
0.02733634
0.022339605
0.023319306
0.023771596
0.023935739
0.023981261
0.023984853
0.023978523
0.023972805
0.023968688
0.023966326
0.023966325
0.023968687
0.023972802
0.023978522
0.023984853
0.023981262
0.023935741
0.023771597
0.023319308
0.022339609
0.0167063
0.018142902
0.018944483
0.019267561
0.019357361
0.019358268
0.019338237
0.019320376
0.01930824
0.019301764
0.019301762
0.019308238
0.019320372
0.019338235
0.019358267
0.019357362
0.019267563
0.018944485
0.018142906
0.016706306
0.010545466
0.012661217
0.013895907
0.014456606
0.014626896
0.014626745
0.014581169
0.014538839
0.014510302
0.014495478
0.014495476
0.014510299
0.014538834
0.014581166
0.014626743
0.014626896
0.014456607
0.013895908
0.012661221
0.010545473
0.0050612536
0.0079794772
0.0095411797
0.010288395
0.010533008
0.010531458
0.010452378
0.010375071
0.010321832
0.010294327
0.010294325
0.010321827
0.010375064
0.010452374
0.010531455
0.010533007
0.010288394
0.0095411796
0.0079794796
0.005061259
0.0017288067
0.0045495475
0.0061844478
0.0070121048
0.0073051406
0.0073114774
0.0072135179
0.0071102416
0.0070362628
0.0069976121
0.0069976092
0.0070362576
0.007110234
0.0072135125
0.0073114737
0.0073051382
0.0070121034
0.0061844469
0.0045495485
0.0017288092
0.0004281598
0.0023447783
0.0037723205
0.0045651011
0.0048739954
0.0048993508
0.0048083854
0.0047025015
0.0046231546
0.0045809251
0.0045809222
0.0046231491
0.0047024936
0.0048083795
0.0048993465
0.0048739923
0.0045650994
0.0037723192
0.0023447785
0.00042816056
8.1808107e-05
0.0010879545
0.0021574586
0.0028280905
0.003117884
0.0031617788
0.0030942521
0.003005008
0.0029349326
0.0028969017
0.0028968991
0.0029349273
0.0030050007
0.0030942464
0.0031617745
0.0031178809
0.0028280888
0.0021574573
0.0010879544
8.1808267e-05
1.293134e-05
0.000454553
0.001154458
0.001662734
0.0019069554
0.0019602046
0.0019190655
0.0018543296
0.0018009263
0.0017713811
0.001771379
0.0018009219
0.0018543233
0.0019190604
0.0019602007
0.0019069526
0.0016627325
0.001154457
0.00045455283
1.2931367e-05
1.7902657e-06
0.00017231424
0.0005780634
0.00092680995
0.001113399
0.0011654083
0.0011452537
0.0011037291
0.0010675312
0.0010471113
0.0010471096
0.0010675278
0.0011037242
0.0011452496
0.0011654051
0.0011133966
0.00092680882
0.00057806271
0.00017231414
1.7902698e-06
2.2573069e-07
5.9960833e-05
0.00027149419
0.00049000153
0.00062033525
0.00066386155
0.00065691531
0.00063300587
0.00061075572
0.00059794055
0.00059793938
0.00061075325
0.00063300229
0.00065691222
0.00066385916
0.00062033349
0.00049000075
0.00027149378
5.9960789e-05
2.2573128e-07
2.656356e-08
1.937958e-05
0.00012006131
0.00024609988
0.00032998232
0.00036227948
0.00036197279
0.00034953569
0.00033697641
0.0003295723
0.00032957153
0.00033697475
0.00034953326
0.00036197066
0.00036227782
0.0003299811
0.00024609939
0.00012006109
1.9379563e-05
2.656365e-08
2.9607738e-09
5.8766175e-06
5.0214581e-05
0.0001176708
0.00016777171
0.00018947883
0.00019159133
0.00018575569
0.00017919286
0.00017521726
0.00017521679
0.0001791918
0.00018575415
0.00019158995
0.00018947777
0.00016777094
0.00011767052
5.0214483e-05
5.8766118e-06
2.9607872e-09
3.1532819e-10
1.6853274e-06
1.9949955e-05
5.3692396e-05
8.1644379e-05
9.5054088e-05
9.7441983e-05
9.5002813e-05
9.1812309e-05
8.9815365e-05
8.9815091e-05
9.1811683e-05
9.5001899e-05
9.7441147e-05
9.5053449e-05
8.1643923e-05
5.3692238e-05
1.9949914e-05
1.6853257e-06
3.1533013e-10
3.2258665e-11
4.5992943e-07
7.5590019e-06
2.3436159e-05
3.8087988e-05
4.5783653e-05
4.7647369e-05
4.6770832e-05
4.5324414e-05
4.4381783e-05
4.4381633e-05
4.5324062e-05
4.677032e-05
4.7646893e-05
4.5783291e-05
3.8087735e-05
2.3436076e-05
7.5589855e-06
4.5992897e-07
3.2258926e-11
3.1802242e-12
1.2001068e-07
2.7409079e-06
9.807764e-06
1.7060195e-05
2.1196427e-05
2.2417224e-05
2.2174468e-05
2.1563118e-05
2.1143719e-05
2.1143641e-05
2.1562931e-05
2.2174196e-05
2.2416967e-05
2.1196233e-05
1.7060063e-05
9.8077225e-06
2.7409017e-06
1.2001056e-07
3.1802568e-12
3.0275819e-13
3.0054321e-08
9.5390093e-07
3.9432348e-06
7.3479707e-06
9.4433117e-06
1.0156544e-05
1.0130545e-05
9.8904977e-06
9.7143291e-06
9.7142909e-06
9.8904027e-06
1.0130408e-05
1.0156413e-05
9.4432127e-06
7.3479052e-06
3.9432149e-06
9.5389874e-07
3.0054286e-08
3.0276199e-13
2.7873192e-14
7.2457301e-09
3.1942036e-07
1.5258949e-06
3.047529e-06
4.0530762e-06
4.4352914e-06
4.4629135e-06
4.3761275e-06
4.3062484e-06
4.3062304e-06
4.3760815e-06
4.4628477e-06
4.4352272e-06
4.053028e-06
3.0474981e-06
1.5258859e-06
3.1941961e-07
7.2457203e-09
2.7873609e-14
2.4844032e-15
1.6860017e-09
1.0312778e-07
5.6922136e-07
1.2186655e-06
1.6776949e-06
1.8685471e-06
1.8973077e-06
1.8689723e-06
1.8428347e-06
1.8428266e-06
1.868951e-06
1.8972772e-06
1.8685171e-06
1.6776724e-06
1.2186516e-06
5.6921739e-07
1.0312753e-07
1.6859991e-09
2.4844463e-15
2.1471216e-16
3.794784e-10
3.2159292e-08
2.0498944e-07
4.7041992e-07
6.704258e-07
7.6011029e-07
7.7898e-07
7.7099836e-07
7.6181385e-07
7.6181034e-07
7.7098882e-07
7.7896652e-07
7.6009685e-07
6.704157e-07
4.7041396e-07
2.0498777e-07
3.2159204e-08
3.7947769e-10
2.1471582e-16
5.2784242e-17
8.2774599e-11
9.7007164e-09
7.1352507e-08
1.7547349e-07
2.5888677e-07
2.9881979e-07
3.0911306e-07
3.0742982e-07
3.0442062e-07
3.0441914e-07
3.0742573e-07
3.0910731e-07
2.9881399e-07
2.5888241e-07
1.7547101e-07
7.1351837e-08
9.7006859e-09
8.2774406e-11
5.2096892e-17
5.9469355e-17
1.7527818e-11
2.8341361e-09
2.4031634e-08
6.3310853e-08
9.6687913e-08
1.1361942e-07
1.1864105e-07
1.1857233e-07
1.1766644e-07
1.1766584e-07
1.1857064e-07
1.1863869e-07
1.1361702e-07
9.6686091e-08
6.3309862e-08
2.4031374e-08
2.8341254e-09
1.7527767e-11
5.8727766e-17
2.2147673e-17
3.6109715e-12
8.0284053e-10
7.8391189e-09
2.2113782e-08
3.4953516e-08
4.1815391e-08
4.4074781e-08
4.4265067e-08
4.4022146e-08
4.4021907e-08
4.4264392e-08
4.4073845e-08
4.1814429e-08
3.4952783e-08
2.2113399e-08
7.8390212e-09
8.0283685e-10
3.6109286e-12
2.1941735e-17
5.2368151e-18
7.2501136e-13
2.207235e-10
2.4787168e-09
7.4835815e-09
1.2240319e-08
1.4906295e-08
1.5859117e-08
1.6005314e-08
1.5951752e-08
1.5951661e-08
1.6005054e-08
1.5858758e-08
1.4905923e-08
1.2240033e-08
7.4834382e-09
2.4786815e-09
2.2072209e-10
7.2499116e-13
5.2007748e-18
9.7778858e-19
1.4192463e-13
5.8943013e-11
7.6031213e-10
2.45545e-09
4.155094e-09
5.1504322e-09
5.5307281e-09
5.6087399e-09
5.6018617e-09
5.6018277e-09
5.6086428e-09
5.5305944e-09
5.1502931e-09
4.1549863e-09
2.4553982e-09
7.6029957e-10
5.8942486e-11
1.4191715e-13
9.7057758e-19
1.5172762e-19
2.7091432e-14
1.5298965e-11
2.2639066e-10
7.8165883e-10
1.3681608e-09
1.7259613e-09
1.8705365e-09
1.9060081e-09
1.907657e-09
1.9076448e-09
1.905973e-09
1.8704883e-09
1.7259108e-09
1.3681217e-09
7.8164056e-10
2.2638634e-10
1.5298785e-11
2.7089316e-14
1.5043885e-19
1.8633396e-20
5.0407355e-15
3.8617659e-12
6.5477292e-11
2.4156639e-10
4.3724567e-10
5.6129238e-10
6.1387936e-10
6.2847903e-10
6.3031582e-10
6.3031156e-10
6.2846678e-10
6.1386255e-10
5.6127464e-10
4.3723185e-10
2.4156012e-10
6.5475856e-11
3.8617051e-12
5.0401081e-15
1.8464786e-20
1.3885161e-21
9.1339525e-16
9.4846436e-13
1.8404813e-11
7.2516689e-11
1.3570447e-10
1.7723988e-10
1.9560185e-10
2.0118733e-10
2.0218172e-10
2.0218028e-10
2.0118319e-10
1.9559615e-10
1.7723383e-10
1.3569974e-10
7.2514604e-11
1.8404351e-11
9.4844545e-13
9.1325327e-16
1.3774442e-21
9.8381009e-23
1.6165633e-16
2.2677257e-13
5.0304604e-12
2.1157076e-11
4.0923893e-11
5.4372511e-11
6.0543146e-11
6.2557777e-11
6.2990853e-11
6.2990378e-11
6.2556417e-11
6.054127e-11
5.437051e-11
4.0922324e-11
2.1156402e-11
5.0303186e-12
2.2676748e-13
1.6162946e-16
9.7512255e-23
6.8308775e-24
2.7956936e-17
5.2806336e-14
1.3376203e-12
6.0022109e-12
1.1997648e-11
1.6213017e-11
1.8212871e-11
1.8903873e-11
1.9071399e-11
1.9071247e-11
1.8903439e-11
1.8212271e-11
1.6212374e-11
1.1997144e-11
6.001999e-12
1.3375782e-12
5.2804997e-14
2.7952095e-17
6.7644687e-24
)
;

boundaryField
{
    Wall
    {
        type            zeroGradient;
    }
    frontAndBack
    {
        type            empty;
    }
    atmosphere
    {
        type            zeroGradient;
    }
}


// ************************************************************************* //
