/*--------------------------------*- C++ -*----------------------------------*\
| =========                 |                                                 |
| \\      /  F ield         | OpenFOAM: The Open Source CFD Toolbox           |
|  \\    /   O peration     | Version:  3.0.1                                 |
|   \\  /    A nd           | Web:      www.OpenFOAM.org                      |
|    \\/     M anipulation  |                                                 |
\*---------------------------------------------------------------------------*/
FoamFile
{
    version     2.0;
    format      ascii;
    class       volScalarField;
    location    "22";
    object      wCO2_g;
}
// * * * * * * * * * * * * * * * * * * * * * * * * * * * * * * * * * * * * * //

dimensions      [0 0 0 0 0 0 0];

internalField   nonuniform List<scalar> 
800
(
0.010494616
0.010495103
0.010495184
0.010495211
0.010495229
0.010495244
0.010495254
0.010495262
0.010495267
0.01049527
0.01049527
0.010495267
0.010495262
0.010495255
0.010495244
0.01049523
0.010495211
0.010495184
0.010495103
0.010494616
0.010476149
0.010483882
0.010484875
0.010484916
0.010484844
0.010484823
0.010484841
0.010484873
0.010484902
0.010484918
0.010484918
0.010484902
0.010484873
0.010484841
0.010484823
0.010484844
0.010484916
0.010484875
0.010483882
0.010476148
0.010446564
0.010456394
0.010460714
0.010460935
0.0104609
0.010460924
0.010461004
0.010461097
0.01046117
0.01046121
0.01046121
0.01046117
0.010461097
0.010461004
0.010460924
0.0104609
0.010460935
0.010460714
0.010456394
0.010446563
0.01039208
0.010405511
0.010412674
0.010412949
0.0104129
0.010412944
0.010413073
0.010413222
0.010413339
0.010413402
0.010413402
0.010413338
0.010413222
0.010413073
0.010412944
0.0104129
0.010412949
0.010412674
0.010405511
0.01039208
0.010265183
0.010285634
0.010294878
0.010298636
0.010298474
0.010298475
0.010298621
0.010298812
0.010298965
0.010299051
0.010299051
0.010298965
0.010298811
0.010298621
0.010298475
0.010298474
0.010298636
0.010294878
0.010285634
0.010265183
0.0099929486
0.010032409
0.010043265
0.010050536
0.01005016
0.010050071
0.010050218
0.010050444
0.010050636
0.010050745
0.010050745
0.010050636
0.010050444
0.010050218
0.010050071
0.01005016
0.010050536
0.010043265
0.010032409
0.0099929483
0.009488795
0.0095650801
0.0095759249
0.0095849949
0.0095844437
0.0095843231
0.0095845244
0.0095848249
0.0095850812
0.0095852269
0.0095852269
0.009585081
0.0095848246
0.0095845241
0.0095843227
0.0095844433
0.0095849947
0.0095759247
0.0095650798
0.0094887946
0.0086613157
0.0087814726
0.0088032122
0.0088129357
0.0088123855
0.0088125179
0.0088129641
0.0088134625
0.008813855
0.0088140679
0.0088140678
0.0088138547
0.0088134621
0.0088129636
0.0088125173
0.0088123849
0.0088129352
0.0088032117
0.0087814721
0.0086613148
0.0074230626
0.0075994166
0.0076309582
0.0076418818
0.0076540082
0.0076550262
0.0076560761
0.0076569791
0.0076576194
0.0076579477
0.0076579475
0.007657619
0.0076569785
0.0076560754
0.0076550254
0.0076540074
0.0076418809
0.0076309574
0.0075994156
0.0074230612
0.0058869684
0.0060794675
0.0061233126
0.0061366924
0.0061481779
0.0061527227
0.0061546687
0.006156123
0.0061570618
0.0061575233
0.0061575232
0.0061570614
0.0061561223
0.0061546677
0.0061527218
0.0061481768
0.0061366913
0.0061233114
0.0060794661
0.0058869665
0.0043154408
0.0045065007
0.0045651793
0.0045807767
0.0045890449
0.0045927128
0.0045952302
0.0045969537
0.0045980024
0.0045985031
0.004598503
0.004598002
0.004596953
0.0045952293
0.0045927118
0.0045890437
0.0045807755
0.004565178
0.0045064993
0.0043154389
0.0027810494
0.0029742602
0.0030325637
0.003048727
0.0030681691
0.0030718378
0.0030740594
0.0030754909
0.0030763138
0.0030766943
0.0030766941
0.0030763135
0.0030754904
0.0030740587
0.003071837
0.0030681682
0.003048726
0.0030325627
0.0029742592
0.002781048
0.001639869
0.0017829492
0.0018427342
0.0018607465
0.0018706698
0.0018729693
0.001874052
0.0018746119
0.0018748765
0.0018749728
0.0018749728
0.0018748763
0.0018746116
0.0018740516
0.0018729688
0.0018706693
0.0018607459
0.0018427336
0.0017829487
0.0016398684
0.00084576842
0.00099587851
0.0010630064
0.0010847946
0.0010903075
0.0010900243
0.0010888382
0.0010877993
0.0010870917
0.0010867073
0.0010867072
0.0010870916
0.0010877991
0.0010888379
0.001090024
0.0010903072
0.0010847943
0.0010630061
0.00099587829
0.00084576832
0.00033914271
0.00051574557
0.00059048656
0.00061578652
0.00061984056
0.00061681449
0.00061279974
0.00060962806
0.00060757229
0.00060652771
0.00060652764
0.00060757216
0.00060962785
0.00061279952
0.00061681427
0.00061984035
0.00061578631
0.00059048637
0.00051574546
0.00033914281
9.8364686e-05
0.00024360857
0.00031458244
0.00034174151
0.00034689038
0.00034353313
0.00033840856
0.00033408277
0.00033118252
0.00032970512
0.00032970505
0.00033118239
0.00033408258
0.00033840838
0.00034353297
0.00034689025
0.00034174138
0.00031458233
0.00024360853
9.8364751e-05
2.0963828e-05
0.00010431137
0.00015899056
0.00018358201
0.00018988987
0.00018793343
0.00018361533
0.0001796128
0.00017680458
0.00017534902
0.00017534897
0.00017680446
0.00017961264
0.00018361519
0.00018793332
0.00018988978
0.00018358195
0.00015899051
0.00010431135
2.096385e-05
3.4817703e-06
4.0398797e-05
7.5767655e-05
9.4691239e-05
0.00010087985
0.0001004013
9.7570428e-05
9.4635478e-05
9.247578e-05
9.1333816e-05
9.1333774e-05
9.2475683e-05
9.463535e-05
9.7570321e-05
0.00010040121
0.0001008798
9.469121e-05
7.5767637e-05
4.0398795e-05
3.4817744e-06
4.8201747e-07
1.4191079e-05
3.3968181e-05
4.6679872e-05
5.1716333e-05
5.2095794e-05
5.0559122e-05
4.8725082e-05
4.7306317e-05
4.6540805e-05
4.6540773e-05
4.7306247e-05
4.8724986e-05
5.0559044e-05
5.2095738e-05
5.17163e-05
4.6679861e-05
3.3968176e-05
1.419108e-05
4.8201809e-07
5.8800309e-08
4.5606394e-06
1.4333334e-05
2.1951803e-05
2.5499848e-05
2.6151122e-05
2.5451373e-05
2.4437498e-05
2.3609032e-05
2.3152662e-05
2.315264e-05
2.3608985e-05
2.4437433e-05
2.5451319e-05
2.6151085e-05
2.5499829e-05
2.19518e-05
1.4333334e-05
4.5606411e-06
5.8800391e-08
6.567194e-09
1.3562213e-06
5.706847e-06
9.8476331e-06
1.2075351e-05
1.2669644e-05
1.2412072e-05
1.190628e-05
1.1466103e-05
1.1218228e-05
1.1218214e-05
1.1466073e-05
1.1906238e-05
1.2412038e-05
1.2669622e-05
1.2075341e-05
9.8476337e-06
5.7068482e-06
1.3562224e-06
6.5672046e-09
6.8787414e-10
3.7727009e-07
2.1517444e-06
4.2191035e-06
5.4905877e-06
5.917072e-06
5.8535004e-06
5.6235441e-06
5.407653e-06
5.2830992e-06
5.2830911e-06
5.4076356e-06
5.6235193e-06
5.8534801e-06
5.917059e-06
5.4905823e-06
4.2191049e-06
2.1517455e-06
3.7727061e-07
6.878757e-10
6.8558435e-11
9.9053847e-08
7.7132443e-07
1.7294376e-06
2.3984609e-06
2.6629757e-06
2.666825e-06
2.5713042e-06
2.4726525e-06
2.4141563e-06
2.414152e-06
2.4726429e-06
2.5712905e-06
2.6668136e-06
2.6629687e-06
2.3984582e-06
1.7294389e-06
7.7132522e-07
9.9054059e-08
6.8558658e-11
6.5578284e-12
2.4714207e-08
2.6385006e-07
6.7960889e-07
1.0075557e-06
1.1551588e-06
1.1733307e-06
1.1372649e-06
1.0950155e-06
1.0691562e-06
1.069154e-06
1.0950104e-06
1.1372577e-06
1.1733247e-06
1.1551552e-06
1.0075544e-06
6.7960964e-07
2.638505e-07
2.4714283e-08
6.5578597e-12
6.0504744e-13
5.8893865e-09
8.6415253e-08
2.5654497e-07
4.075237e-07
4.8326492e-07
4.9857639e-07
4.8641228e-07
4.6939239e-07
4.5857801e-07
4.585769e-07
4.6938991e-07
4.864087e-07
4.9857342e-07
4.8326317e-07
4.0752308e-07
2.5654535e-07
8.6415457e-08
5.8894107e-09
6.0505151e-13
5.4003031e-14
1.3454496e-09
2.7175429e-08
9.3209135e-08
1.5890877e-07
1.9514187e-07
2.0469531e-07
2.0119611e-07
1.9473615e-07
1.904424e-07
1.9044188e-07
1.9473499e-07
2.0119442e-07
2.0469391e-07
1.9514105e-07
1.5890848e-07
9.3209312e-08
2.7175514e-08
1.3454566e-09
5.4003516e-14
4.6706549e-15
2.9551288e-10
8.2258001e-09
3.2653124e-08
5.9816856e-08
7.6128181e-08
8.125027e-08
8.0513643e-08
7.8204368e-08
7.6581892e-08
7.6581664e-08
7.8203848e-08
8.0512885e-08
8.1249636e-08
7.6127816e-08
5.9816725e-08
3.2653196e-08
8.2258332e-09
2.9551473e-10
4.6707082e-15
3.9182199e-16
6.254341e-11
2.4016962e-09
1.1047934e-08
2.1763923e-08
2.8721438e-08
3.1204716e-08
3.1189305e-08
3.0414153e-08
2.9829834e-08
2.9829738e-08
3.041393e-08
3.1188979e-08
3.1204441e-08
2.8721282e-08
2.1763865e-08
1.1047962e-08
2.4017081e-09
6.254387e-11
3.9182752e-16
3.1900543e-17
1.2779416e-11
6.7766235e-10
3.6156752e-09
7.663449e-09
1.0490052e-08
1.1605613e-08
1.1704112e-08
1.1461519e-08
1.1260872e-08
1.1260833e-08
1.1461427e-08
1.1703976e-08
1.1605498e-08
1.0489987e-08
7.6634241e-09
3.6156844e-09
6.7766632e-10
1.2779524e-11
3.1901082e-17
2.5217911e-18
2.5252424e-12
1.8509923e-10
1.1462027e-09
2.6145366e-09
3.7127999e-09
4.1836875e-09
4.2580692e-09
4.1883217e-09
4.1226749e-09
4.1226598e-09
4.1882846e-09
4.2580149e-09
4.1836411e-09
3.7127734e-09
2.6145262e-09
1.1462056e-09
1.8510046e-10
2.5252662e-12
2.5218389e-18
3.7041037e-19
4.83338e-13
4.9020365e-11
3.5242362e-10
8.6522831e-10
1.2746995e-09
1.4631446e-09
1.5031053e-09
1.4852688e-09
1.4648507e-09
1.464845e-09
1.4852545e-09
1.5030843e-09
1.4631265e-09
1.2746892e-09
8.6522407e-10
3.5242439e-10
4.9020723e-11
4.83343e-13
3.668858e-19
2.7344544e-19
8.9752231e-14
1.2605822e-11
1.052273e-10
2.7802628e-10
4.2492196e-10
4.9686467e-10
5.1526587e-10
5.1154323e-10
5.0553289e-10
5.0553077e-10
5.1153788e-10
5.1525806e-10
4.9685784e-10
4.2491796e-10
2.7802461e-10
1.0522747e-10
1.2605919e-11
8.9753223e-14
2.7008413e-19
8.7502184e-20
1.6203652e-14
3.1520589e-12
3.0545203e-11
8.6832911e-11
1.3765655e-10
1.6397699e-10
1.7166942e-10
1.7124322e-10
1.6958247e-10
1.6958171e-10
1.7124127e-10
1.716666e-10
1.6397448e-10
1.3765505e-10
8.6832278e-11
3.0545227e-11
3.1520838e-12
1.6203737e-14
8.667045e-20
1.8069415e-20
2.8499451e-15
7.674178e-13
8.6290559e-12
2.6382786e-11
4.3374868e-11
5.2634739e-11
5.5630434e-11
5.5760526e-11
5.5336381e-11
5.5336115e-11
5.575984e-11
5.5629447e-11
5.2633846e-11
4.337432e-11
2.6382554e-11
8.6290531e-12
7.6742329e-13
2.8499269e-15
1.7940125e-20
2.9613228e-21
4.8889993e-16
1.8214977e-13
2.3747103e-12
7.804736e-12
1.3303756e-11
1.6445012e-11
1.754718e-11
1.7673902e-11
1.7576951e-11
1.7576862e-11
1.7673666e-11
1.7546843e-11
1.6444703e-11
1.3303561e-11
7.8046543e-12
2.3747054e-12
1.821508e-13
4.8888734e-16
2.9388527e-21
4.0499213e-22
8.1896272e-17
4.2195745e-14
6.3719098e-13
2.2497321e-12
3.9748362e-12
5.0046064e-12
5.3910215e-12
5.4565341e-12
5.4382835e-12
5.438254e-12
5.4564556e-12
5.3909101e-12
5.0045022e-12
3.9747691e-12
2.249704e-12
6.3718828e-13
4.2195899e-14
8.189251e-17
4.0151495e-22
4.4136674e-23
1.3406353e-17
9.5499015e-15
1.6683342e-13
6.3232778e-13
1.1576043e-12
1.4844145e-12
1.6142537e-12
1.6418827e-12
1.6399238e-12
1.6399144e-12
1.6418573e-12
1.6142178e-12
1.4843803e-12
1.1575818e-12
6.3231838e-13
1.6683227e-13
9.5499056e-15
1.3405225e-17
4.3736728e-23
2.9430887e-24
2.145393e-18
2.1135821e-15
4.2653807e-14
1.7340639e-13
3.288193e-13
4.2937765e-13
4.7135934e-13
4.8177576e-13
4.8223868e-13
4.8223576e-13
4.8176775e-13
4.7134811e-13
4.2936674e-13
3.2881192e-13
1.7340335e-13
4.2653383e-14
2.1135752e-15
2.1451524e-18
2.9199036e-24
1.870983e-25
3.368357e-19
4.5783417e-16
1.0655325e-14
4.6424082e-14
9.1147441e-14
1.211845e-13
1.3428579e-13
1.3792328e-13
1.383521e-13
1.3835121e-13
1.3792083e-13
1.3428235e-13
1.211811e-13
9.1145092e-14
4.6423134e-14
1.0655186e-14
4.5783163e-16
3.3679358e-19
1.8547663e-25
1.1734871e-26
5.1967437e-20
9.713627e-17
2.6022444e-15
1.213932e-14
2.4667839e-14
3.3387117e-14
3.7342245e-14
3.8539799e-14
3.8741899e-14
3.8741635e-14
3.8539064e-14
3.7341219e-14
3.3386087e-14
2.4667114e-14
1.2139031e-14
2.6022014e-15
9.7135452e-17
5.1960408e-20
1.1621239e-26
)
;

boundaryField
{
    Wall
    {
        type            zeroGradient;
    }
    frontAndBack
    {
        type            empty;
    }
    atmosphere
    {
        type            zeroGradient;
    }
}


// ************************************************************************* //
