/*--------------------------------*- C++ -*----------------------------------*\
| =========                 |                                                 |
| \\      /  F ield         | OpenFOAM: The Open Source CFD Toolbox           |
|  \\    /   O peration     | Version:  3.0.1                                 |
|   \\  /    A nd           | Web:      www.OpenFOAM.org                      |
|    \\/     M anipulation  |                                                 |
\*---------------------------------------------------------------------------*/
FoamFile
{
    version     2.0;
    format      ascii;
    class       volScalarField;
    location    "22";
    object      wCO2_l;
}
// * * * * * * * * * * * * * * * * * * * * * * * * * * * * * * * * * * * * * //

dimensions      [0 0 0 0 0 0 0];

internalField   nonuniform List<scalar> 
800
(
0.0032550691
0.00325511
0.0032551168
0.0032551183
0.0032551191
0.0032551196
0.0032551201
0.0032551205
0.0032551207
0.0032551208
0.0032551208
0.0032551207
0.0032551205
0.0032551201
0.0032551197
0.0032551191
0.0032551183
0.0032551169
0.0032551101
0.0032550691
0.0032070499
0.0032075979
0.0032080199
0.0032080568
0.0032080065
0.0032079484
0.0032079068
0.0032078824
0.0032078699
0.0032078647
0.0032078647
0.0032078699
0.0032078824
0.0032079069
0.0032079484
0.0032080065
0.0032080568
0.0032080199
0.0032075979
0.0032070498
0.0034014262
0.0033978481
0.0033957477
0.0033957429
0.0033957203
0.0033956702
0.0033956206
0.0033955816
0.0033955563
0.0033955437
0.0033955437
0.0033955563
0.0033955817
0.0033956207
0.0033956703
0.0033957204
0.0033957431
0.0033957479
0.0033978483
0.0034014264
0.0038621777
0.0038478905
0.0038432454
0.003843314
0.0038433366
0.0038433024
0.0038432337
0.0038431602
0.0038431053
0.0038430754
0.0038430754
0.0038431054
0.0038431603
0.0038432339
0.0038433026
0.0038433368
0.0038433144
0.0038432457
0.0038478909
0.0038621783
0.0046368122
0.0046020379
0.0045957005
0.0045923332
0.0045924122
0.0045923641
0.0045922317
0.0045920773
0.0045919602
0.0045918953
0.0045918954
0.0045919605
0.0045920777
0.0045922321
0.0045923646
0.0045924128
0.0045923338
0.0045957012
0.0046020386
0.0046368132
0.0057686869
0.005699775
0.0056932786
0.005686558
0.0056867448
0.0056866193
0.0056863551
0.0056860605
0.0056858403
0.0056857179
0.005685718
0.0056858406
0.005686061
0.0056863558
0.0056866201
0.0056867457
0.005686559
0.0056932796
0.0056997761
0.0057686884
0.0072745652
0.0071627204
0.0071512389
0.0071433403
0.0071437149
0.0071434675
0.0071430191
0.0071425418
0.0071421935
0.0071420007
0.0071420008
0.0071421939
0.0071425425
0.00714302
0.0071434686
0.0071437161
0.0071433417
0.0071512404
0.007162722
0.0072745673
0.0091104076
0.0089716919
0.0089386232
0.0089318676
0.0089325121
0.0089321983
0.0089316122
0.0089309965
0.0089305573
0.0089303138
0.008930314
0.0089305577
0.0089309972
0.0089316132
0.0089321996
0.0089325136
0.0089318694
0.0089386251
0.0089716939
0.0091104101
0.011111256
0.010974751
0.01092906
0.010925449
0.010915811
0.010915826
0.010915443
0.010914974
0.010914633
0.010914436
0.010914436
0.010914634
0.010914975
0.010915444
0.010915827
0.010915813
0.010925451
0.010929061
0.010974753
0.011111258
0.012747261
0.012711225
0.012683293
0.012686153
0.012680547
0.012680992
0.012681739
0.012682108
0.012682309
0.012682378
0.012682378
0.012682309
0.012682109
0.012681739
0.012680992
0.012680548
0.012686154
0.012683294
0.012711226
0.012747262
0.012844971
0.01304405
0.013108944
0.013125264
0.01313014
0.013135409
0.013138717
0.013140873
0.013142156
0.013142753
0.013142752
0.013142156
0.013140872
0.013138716
0.013135408
0.013130139
0.013125263
0.013108943
0.013044049
0.012844969
0.0097458927
0.010530176
0.010719523
0.010756189
0.010867284
0.01087562
0.010880196
0.010883098
0.010884755
0.010885513
0.010885512
0.010884755
0.010883096
0.010880194
0.010875619
0.010867282
0.010756187
0.010719521
0.010530174
0.0097458899
0.0061520742
0.0067297964
0.0069767087
0.0070428672
0.0071009353
0.00710605
0.0071069388
0.0071068597
0.0071065599
0.0071063032
0.0071063029
0.0071065593
0.0071068587
0.0071069376
0.0071060488
0.007100934
0.0070428658
0.0069767072
0.0067297952
0.006152073
0.0034165856
0.0040407919
0.004345572
0.0044480802
0.0044800368
0.004477941
0.0044706064
0.0044642584
0.0044600201
0.004457789
0.0044577886
0.0044600195
0.0044642574
0.0044706055
0.0044779401
0.0044800359
0.0044480791
0.0043455711
0.0040407913
0.0034165857
0.0014916357
0.0022559507
0.0026070585
0.0027376859
0.0027667877
0.0027565135
0.0027383355
0.0027231071
0.002713057
0.0027079303
0.0027079299
0.0027130563
0.0027231061
0.0027383345
0.0027565126
0.0027667869
0.0027376851
0.0026070577
0.0022559503
0.0014916363
0.00048002909
0.0011549008
0.0015016194
0.0016461202
0.001682102
0.0016713579
0.0016482315
0.0016274425
0.0016132089
0.0016058972
0.0016058968
0.0016132082
0.0016274415
0.0016482306
0.0016713571
0.0016821014
0.0016461196
0.0015016189
0.0011549006
0.00048002945
0.00011539842
0.00054046934
0.00082430184
0.00096028288
0.0010016653
0.0009966037
0.00097616668
0.00095587964
0.00094132482
0.00093370729
0.00093370695
0.0009413241
0.00095587865
0.00097616587
0.00099660306
0.0010016648
0.00096028253
0.00082430157
0.00054046927
0.00011539855
2.1857423e-05
0.00023090815
0.00042936977
0.00054019781
0.00058059436
0.00058164454
0.00056737165
0.00055137582
0.00053932341
0.00053288353
0.00053288324
0.00053932278
0.00055137497
0.00056737096
0.00058164401
0.000580594
0.00054019761
0.00042936962
0.00023090813
2.1857452e-05
3.4709239e-06
9.0235585e-05
0.00021181483
0.00029193225
0.00032601614
0.00033071225
0.00032242336
0.00031156677
0.00030295594
0.00029825854
0.0002982583
0.00030295544
0.00031156607
0.0003224228
0.00033071184
0.00032601588
0.00029193214
0.00021181476
9.0235584e-05
3.470929e-06
4.8679154e-07
3.2478752e-05
9.8975079e-05
0.00015129762
0.00017683089
0.00018255567
0.00017853976
0.00017197906
0.00016647527
0.00016340911
0.00016340893
0.0001664749
0.00017197854
0.00017853933
0.00018255537
0.0001768307
0.00015129756
9.8975049e-05
3.2478755e-05
4.8679235e-07
6.2540636e-08
1.0872879e-05
4.388872e-05
7.5182581e-05
9.2517008e-05
9.762105e-05
9.6093444e-05
9.2498991e-05
8.928271e-05
8.7450959e-05
8.7450837e-05
8.9282452e-05
9.2498626e-05
9.6093141e-05
9.7620837e-05
9.2516883e-05
7.5182552e-05
4.3888709e-05
1.0872883e-05
6.2540757e-08
7.5353412e-09
3.418649e-06
1.8523304e-05
3.585053e-05
4.6674869e-05
5.0511903e-05
5.0185285e-05
4.8384532e-05
4.6642776e-05
4.5626609e-05
4.562653e-05
4.6642609e-05
4.8384292e-05
5.0185084e-05
5.0511763e-05
4.6674789e-05
3.5850517e-05
1.8523302e-05
3.4186515e-06
7.5353607e-09
8.6394775e-10
1.0179725e-06
7.4659299e-06
1.6427725e-05
2.271401e-05
2.5279545e-05
2.5407844e-05
2.458197e-05
2.3700333e-05
2.3171771e-05
2.3171724e-05
2.3700231e-05
2.4581822e-05
2.5407719e-05
2.5279459e-05
2.2713961e-05
1.6427721e-05
7.4659307e-06
1.0179737e-06
8.639508e-10
9.5101968e-11
2.8895495e-07
2.8833019e-06
7.2458175e-06
1.0670418e-05
1.2238097e-05
1.2465003e-05
1.2120755e-05
1.1701387e-05
1.1441881e-05
1.1441854e-05
1.1701327e-05
1.2120668e-05
1.2464929e-05
1.2238046e-05
1.067039e-05
7.2458157e-06
2.8833032e-06
2.8895546e-07
9.5102439e-11
1.0106029e-11
7.8579691e-08
1.0701704e-06
3.0815962e-06
4.8435925e-06
5.7334273e-06
5.9258314e-06
5.7982172e-06
5.6101977e-06
5.4893792e-06
5.4893646e-06
5.6101647e-06
5.7981695e-06
5.9257899e-06
5.7333993e-06
4.8435773e-06
3.0815954e-06
1.0701712e-06
7.8579879e-08
1.0106098e-11
1.0402096e-12
2.0551382e-08
3.8276132e-07
1.2658078e-06
2.1267361e-06
2.6010233e-06
2.7306109e-06
2.690939e-06
2.6114148e-06
2.5579055e-06
2.5578979e-06
2.6113975e-06
2.690914e-06
2.7305888e-06
2.6010084e-06
2.126728e-06
1.2658074e-06
3.8276176e-07
2.0551444e-08
1.0402189e-12
1.0392532e-13
5.1847105e-09
1.3222538e-07
5.0296631e-07
9.0424683e-07
1.1434712e-06
1.2201862e-06
1.2118683e-06
1.1801829e-06
1.1575937e-06
1.15759e-06
1.1801742e-06
1.2118556e-06
1.2201749e-06
1.1434636e-06
9.0424276e-07
5.0296604e-07
1.322256e-07
5.1847292e-09
1.039265e-13
1.0091753e-14
1.2647792e-09
4.4205455e-08
1.9360009e-07
3.7268509e-07
4.8752852e-07
5.2905368e-07
5.2980873e-07
5.1797102e-07
5.08873e-07
5.0887124e-07
5.1796678e-07
5.298026e-07
5.2904816e-07
4.8752482e-07
3.7268311e-07
1.9359994e-07
4.4205545e-08
1.2647844e-09
1.0091893e-14
9.5335048e-16
2.9894995e-10
1.432714e-08
7.2281083e-08
1.4904218e-07
2.0175075e-07
2.2271985e-07
2.2496292e-07
2.208572e-07
2.1736196e-07
2.1736116e-07
2.2085522e-07
2.2496005e-07
2.2271723e-07
2.0174901e-07
1.4904125e-07
7.2280993e-08
1.4327174e-08
2.9895134e-10
9.533663e-16
8.7688396e-17
6.8588323e-11
4.5083743e-09
2.6205758e-08
5.7888242e-08
8.1097919e-08
9.1094459e-08
9.2826703e-08
9.1531978e-08
9.0253165e-08
9.0252813e-08
9.1531078e-08
9.2825414e-08
9.1093269e-08
8.1097119e-08
5.7887826e-08
2.620571e-08
4.5083862e-09
6.8588667e-11
8.7689997e-17
1.4508641e-17
1.5299104e-11
1.3792182e-09
9.2357209e-09
2.1855324e-08
3.1689004e-08
3.6223154e-08
3.7244172e-08
3.6890554e-08
3.6446507e-08
3.6446356e-08
3.6890161e-08
3.7243611e-08
3.6222629e-08
3.1688649e-08
2.1855142e-08
9.235697e-09
1.379222e-09
1.5299184e-11
1.4376383e-17
1.2119047e-17
3.3227502e-12
4.1068349e-10
3.1670087e-09
8.0269703e-09
1.2045339e-08
1.4012676e-08
1.4538561e-08
1.4466803e-08
1.4321416e-08
1.4321353e-08
1.4466637e-08
1.4538324e-08
1.4012452e-08
1.2045185e-08
8.0268932e-09
3.1669974e-09
4.1068456e-10
3.3227677e-12
1.1971077e-17
4.5693951e-18
7.0402257e-13
1.191494e-10
1.0575294e-09
2.8700339e-09
4.4568596e-09
5.2767113e-09
5.5247264e-09
5.5230449e-09
5.4786954e-09
5.4786696e-09
5.5229764e-09
5.5246295e-09
5.2766186e-09
4.4567954e-09
2.8700023e-09
1.0575244e-09
1.1914967e-10
7.0402163e-13
4.5260138e-18
1.1210417e-18
1.4576892e-13
3.3712965e-11
3.4412968e-10
9.9965549e-10
1.6062268e-09
1.935377e-09
2.0448683e-09
2.0538127e-09
2.0415047e-09
2.0414945e-09
2.0537853e-09
2.0448298e-09
1.9353397e-09
1.6062006e-09
9.9964288e-10
3.4412758e-10
3.3713001e-11
1.4576693e-13
1.1129266e-18
2.1853206e-19
2.9514313e-14
9.3106061e-12
1.0920172e-10
3.3939387e-10
5.6416035e-10
6.9177557e-10
7.375856e-10
7.4428295e-10
7.4134301e-10
7.4133909e-10
7.4427229e-10
7.3757068e-10
6.9176098e-10
5.6414996e-10
3.3938901e-10
1.0920085e-10
9.3105979e-12
2.9513325e-14
2.1684582e-19
3.5625016e-20
5.8467178e-15
2.5114448e-12
3.3812378e-11
1.1238015e-10
1.9321823e-10
2.4109325e-10
2.5939828e-10
2.6297756e-10
2.6247504e-10
2.6247357e-10
2.6297353e-10
2.5939266e-10
2.4108769e-10
1.9321423e-10
1.1237832e-10
3.3812032e-11
2.5114369e-12
5.8464012e-15
3.5314122e-20
4.6483785e-21
1.1332985e-15
6.6204488e-13
1.0220947e-11
3.6310344e-11
6.4559477e-11
8.1966057e-11
8.8988201e-11
9.0635965e-11
9.0646613e-11
9.0646078e-11
9.0634483e-11
8.8986143e-11
8.1963994e-11
6.4557978e-11
3.630967e-11
1.0220817e-11
6.6204058e-13
1.1331955e-15
4.6057651e-21
3.8141573e-22
2.1486905e-16
1.7064312e-13
3.0177584e-12
1.1453319e-11
2.1054305e-11
2.7196235e-11
2.9792054e-11
3.0483972e-11
3.0548883e-11
3.0548693e-11
3.0483442e-11
2.9791319e-11
2.7195489e-11
2.1053757e-11
1.1453078e-11
3.0177112e-12
1.7064139e-13
2.1484426e-16
3.7831786e-22
2.9936343e-23
3.9951423e-17
4.3027475e-14
8.7065864e-13
3.5284455e-12
6.704717e-12
8.8103844e-12
9.7376277e-12
1.0009453e-11
1.0050693e-11
1.0050627e-11
1.0009268e-11
9.7373711e-12
8.8101216e-12
6.7045221e-12
3.5283616e-12
8.7064253e-13
4.3026943e-14
3.9946378e-17
2.967424e-23
2.2967072e-24
7.2898589e-18
1.0617931e-14
2.4556058e-13
1.0621009e-12
2.085728e-12
2.7878425e-12
3.1085923e-12
3.2098702e-12
3.2294068e-12
3.2293844e-12
3.2098072e-12
3.108505e-12
2.7877522e-12
2.0856605e-12
1.0620724e-12
2.4555528e-13
1.0617772e-14
7.2888707e-18
2.2745476e-24
)
;

boundaryField
{
    Wall
    {
        type            zeroGradient;
    }
    frontAndBack
    {
        type            empty;
    }
    atmosphere
    {
        type            zeroGradient;
    }
}


// ************************************************************************* //
