/*--------------------------------*- C++ -*----------------------------------*\
| =========                 |                                                 |
| \\      /  F ield         | OpenFOAM: The Open Source CFD Toolbox           |
|  \\    /   O peration     | Version:  3.0.1                                 |
|   \\  /    A nd           | Web:      www.OpenFOAM.org                      |
|    \\/     M anipulation  |                                                 |
\*---------------------------------------------------------------------------*/
FoamFile
{
    version     2.0;
    format      ascii;
    class       volScalarField;
    location    "22";
    object      weight1;
}
// * * * * * * * * * * * * * * * * * * * * * * * * * * * * * * * * * * * * * //

dimensions      [0 0 0 0 0 0 0];

internalField   nonuniform List<scalar> 
800
(
9.9878726e+12
9.9878717e+12
9.9878715e+12
9.9878714e+12
9.9878714e+12
9.9878714e+12
9.9878713e+12
9.9878713e+12
9.9878713e+12
9.9878713e+12
9.9878713e+12
9.9878713e+12
9.9878713e+12
9.9878713e+12
9.9878714e+12
9.9878714e+12
9.9878714e+12
9.9878715e+12
9.9878717e+12
9.9878726e+12
9.9999999e+12
1e+13
1e+13
1e+13
1e+13
1e+13
1e+13
1e+13
1e+13
1e+13
1e+13
1e+13
1e+13
1e+13
1e+13
1e+13
1e+13
1e+13
1e+13
9.9999999e+12
9.7786735e+12
9.7823813e+12
9.7833772e+12
9.7835197e+12
9.7834765e+12
9.7834282e+12
9.7834026e+12
9.7833948e+12
9.7833951e+12
9.7833971e+12
9.783397e+12
9.783395e+12
9.7833947e+12
9.7834025e+12
9.7834281e+12
9.7834764e+12
9.7835197e+12
9.7833771e+12
9.7823812e+12
9.7786734e+12
9.3947106e+12
9.4047265e+12
9.4068945e+12
9.4070462e+12
9.4069155e+12
9.4067878e+12
9.4067238e+12
9.4067035e+12
9.4067029e+12
9.4067067e+12
9.4067067e+12
9.4067028e+12
9.4067034e+12
9.4067237e+12
9.4067876e+12
9.4069153e+12
9.407046e+12
9.4068944e+12
9.4047264e+12
9.3947104e+12
8.8973627e+12
8.9155984e+12
8.9189163e+12
8.9190554e+12
8.9188145e+12
8.9186054e+12
8.9185072e+12
8.9184791e+12
8.91848e+12
8.9184868e+12
8.9184867e+12
8.9184799e+12
8.9184789e+12
8.9185071e+12
8.9186053e+12
8.9188144e+12
8.9190552e+12
8.9189162e+12
8.9155983e+12
8.8973625e+12
8.3233669e+12
8.3518433e+12
8.3564655e+12
8.3566771e+12
8.356356e+12
8.3561058e+12
8.3560011e+12
8.3559781e+12
8.3559887e+12
8.3560017e+12
8.3560016e+12
8.3559886e+12
8.3559779e+12
8.356001e+12
8.3561057e+12
8.3563559e+12
8.356677e+12
8.3564654e+12
8.3518433e+12
8.3233667e+12
7.6931053e+12
7.7346803e+12
7.7412644e+12
7.741844e+12
7.7415838e+12
7.7413862e+12
7.7413326e+12
7.7413451e+12
7.7413816e+12
7.7414065e+12
7.7414065e+12
7.7413815e+12
7.741345e+12
7.7413325e+12
7.7413861e+12
7.7415838e+12
7.741844e+12
7.7412644e+12
7.7346803e+12
7.6931052e+12
7.0049868e+12
7.0631097e+12
7.0734737e+12
7.0749449e+12
7.0750115e+12
7.0750518e+12
7.0751532e+12
7.0752623e+12
7.075355e+12
7.0754028e+12
7.0754027e+12
7.0753549e+12
7.0752622e+12
7.0751531e+12
7.0750517e+12
7.0750114e+12
7.0749449e+12
7.0734737e+12
7.0631097e+12
7.0049867e+12
6.2400121e+12
6.3173739e+12
6.3340821e+12
6.3372183e+12
6.3382238e+12
6.3387852e+12
6.3391838e+12
6.3394691e+12
6.3396571e+12
6.3397432e+12
6.3397432e+12
6.339657e+12
6.3394689e+12
6.3391836e+12
6.3387851e+12
6.3382238e+12
6.3372183e+12
6.334082e+12
6.3173739e+12
6.2400119e+12
5.3843895e+12
5.4822756e+12
5.509371e+12
5.5151551e+12
5.5173501e+12
5.5186501e+12
5.5194133e+12
5.5199061e+12
5.5201925e+12
5.520317e+12
5.520317e+12
5.5201923e+12
5.5199058e+12
5.5194131e+12
5.5186499e+12
5.51735e+12
5.515155e+12
5.5093708e+12
5.4822755e+12
5.3843892e+12
4.4223906e+12
4.5398062e+12
4.5811045e+12
4.5903506e+12
4.5943658e+12
4.5962988e+12
4.5973071e+12
4.5979028e+12
4.5982188e+12
4.5983495e+12
4.5983494e+12
4.5982186e+12
4.5979024e+12
4.5973068e+12
4.5962985e+12
4.5943655e+12
4.5903504e+12
4.5811042e+12
4.539806e+12
4.4223902e+12
3.4266781e+12
3.5571752e+12
3.6104568e+12
3.6249329e+12
3.6320256e+12
3.6340045e+12
3.6347301e+12
3.6350593e+12
3.6351776e+12
3.6352015e+12
3.6352014e+12
3.6351774e+12
3.6350589e+12
3.6347298e+12
3.6340041e+12
3.6320253e+12
3.6249326e+12
3.6104565e+12
3.557175e+12
3.4266778e+12
0
0
0
0
0
0
0
0
0
0
0
0
0
0
0
0
0
0
0
0
0
0
0
0
0
0
0
0
0
0
0
0
0
0
0
0
0
0
0
0
0
0
0
0
0
0
0
0
0
0
0
0
0
0
0
0
0
0
0
0
0
0
0
0
0
0
0
0
0
0
0
0
0
0
0
0
0
0
0
0
0
0
0
0
0
0
0
0
0
0
0
0
0
0
0
0
0
0
0
0
0
0
0
0
0
0
0
0
0
0
0
0
0
0
0
0
0
0
0
0
0
0
0
0
0
0
0
0
0
0
0
0
0
0
0
0
0
0
0
0
0
0
0
0
0
0
0
0
0
0
0
0
0
0
0
0
0
0
0
0
0
0
0
0
0
0
0
0
0
0
0
0
0
0
0
0
0
0
0
0
0
0
0
0
0
0
0
0
0
0
0
0
0
0
0
0
0
0
0
0
0
0
0
0
0
0
0
0
0
0
0
0
0
0
0
0
0
0
0
0
0
0
0
0
0
0
0
0
0
0
0
0
0
0
0
0
0
0
0
0
0
0
0
0
0
0
0
0
0
0
0
0
0
0
0
0
0
0
0
0
0
0
0
0
0
0
0
0
0
0
0
0
0
0
0
0
0
0
0
0
0
0
0
0
0
0
0
0
0
0
0
0
0
0
0
0
0
0
0
0
0
0
0
0
0
0
0
0
0
0
0
0
0
0
0
0
0
0
0
0
0
0
0
0
0
0
0
0
0
0
0
0
0
0
0
0
0
0
0
0
0
0
0
0
0
0
0
0
0
0
0
0
0
0
0
0
0
0
0
0
0
0
0
0
0
0
0
0
0
0
0
0
0
0
0
0
0
0
0
0
0
0
0
0
0
0
0
0
0
0
0
0
0
0
0
0
0
0
0
0
0
0
0
0
0
0
0
0
0
0
0
0
0
0
0
0
0
0
0
0
0
0
0
0
0
0
0
0
0
0
0
0
0
0
0
0
0
0
0
0
0
0
0
0
0
0
0
0
0
0
0
0
0
0
0
0
0
0
0
0
0
0
0
0
0
0
0
0
0
0
0
0
0
0
0
0
0
0
0
0
0
0
0
0
0
0
0
0
0
0
0
0
0
0
0
0
0
0
0
0
0
0
0
0
0
0
0
0
0
0
0
0
0
0
0
0
0
0
0
0
0
0
0
0
0
0
0
0
0
0
0
0
0
0
0
0
0
0
0
0
0
0
0
0
0
0
0
0
0
0
0
0
0
0
0
0
0
0
0
0
)
;

boundaryField
{
    Wall
    {
        type            zeroGradient;
    }
    frontAndBack
    {
        type            empty;
    }
    atmosphere
    {
        type            zeroGradient;
    }
}


// ************************************************************************* //
