/*--------------------------------*- C++ -*----------------------------------*\
| =========                 |                                                 |
| \\      /  F ield         | OpenFOAM: The Open Source CFD Toolbox           |
|  \\    /   O peration     | Version:  3.0.1                                 |
|   \\  /    A nd           | Web:      www.OpenFOAM.org                      |
|    \\/     M anipulation  |                                                 |
\*---------------------------------------------------------------------------*/
FoamFile
{
    version     2.0;
    format      ascii;
    class       volScalarField;
    location    "22";
    object      weight0;
}
// * * * * * * * * * * * * * * * * * * * * * * * * * * * * * * * * * * * * * //

dimensions      [0 0 0 0 0 0 0];

internalField   nonuniform List<scalar> 
800
(
1.2127365e+10
1.2128307e+10
1.2128506e+10
1.2128564e+10
1.21286e+10
1.212863e+10
1.2128654e+10
1.2128672e+10
1.2128684e+10
1.212869e+10
1.212869e+10
1.2128684e+10
1.2128672e+10
1.2128654e+10
1.212863e+10
1.21286e+10
1.2128564e+10
1.2128506e+10
1.2128307e+10
1.2127365e+10
137597.72
25704.927
19400.223
18075.906
17339.57
16675.065
16096.008
15647.804
15349.658
15201.606
15201.638
15349.697
15647.855
16096.069
16675.102
17339.541
18075.796
19400.043
25704.677
137598.57
15697877
11948025
10648434
10483369
10392279
10321049
10263029
10218983
10189632
10174962
10174966
10189638
10218992
10263040
10321060
10392286
10483372
10648432
11948023
15697908
91905837
77118937
71720158
71032501
70645681
70367315
70148791
69984897
69875532
69820711
69820734
69875581
69984970
70148887
70367424
70645785
71032603
71720247
77119036
91906029
4.3712115e+08
3.7900591e+08
3.6473728e+08
3.5864565e+08
3.5719447e+08
3.5620529e+08
3.5545796e+08
3.5490956e+08
3.5454611e+08
3.5436452e+08
3.5436463e+08
3.5454637e+08
3.5490998e+08
3.554585e+08
3.5620592e+08
3.5719511e+08
3.5864633e+08
3.6473792e+08
3.790066e+08
4.3712211e+08
2.0599033e+09
1.8057937e+09
1.7792761e+09
1.7560072e+09
1.7493382e+09
1.7445147e+09
1.7410049e+09
1.7384933e+09
1.736868e+09
1.736062e+09
1.7360626e+09
1.7368694e+09
1.7384955e+09
1.7410079e+09
1.744518e+09
1.7493417e+09
1.756011e+09
1.7792796e+09
1.8057973e+09
2.0599082e+09
9.6432916e+09
8.612308e+09
8.6113676e+09
8.5752986e+09
8.5425842e+09
8.5149444e+09
8.4948616e+09
8.4806741e+09
8.4717146e+09
8.4672418e+09
8.4672443e+09
8.4717215e+09
8.4806853e+09
8.4948765e+09
8.514961e+09
8.5426017e+09
8.5753185e+09
8.6113852e+09
8.6123251e+09
9.6433165e+09
3.7780753e+10
3.5257215e+10
3.5213942e+10
3.5307026e+10
3.5193306e+10
3.5066927e+10
3.497281e+10
3.4907798e+10
3.4867296e+10
3.4846707e+10
3.4846716e+10
3.486732e+10
3.4907836e+10
3.4972863e+10
3.5066987e+10
3.5193371e+10
3.5307103e+10
3.5214008e+10
3.5257281e+10
3.7780853e+10
1.0723073e+11
1.0428918e+11
1.0476845e+11
1.0544985e+11
1.0501264e+11
1.0462513e+11
1.0432422e+11
1.0412145e+11
1.0399588e+11
1.03931e+11
1.0393101e+11
1.0399593e+11
1.0412153e+11
1.0432434e+11
1.0462528e+11
1.050128e+11
1.0545005e+11
1.0476862e+11
1.0428936e+11
1.0723101e+11
2.2182126e+11
2.2352726e+11
2.2594517e+11
2.2842506e+11
2.2825723e+11
2.2743707e+11
2.2674819e+11
2.2628748e+11
2.2600261e+11
2.2585366e+11
2.2585368e+11
2.2600268e+11
2.2628758e+11
2.2674839e+11
2.2743732e+11
2.2825753e+11
2.2842546e+11
2.2594549e+11
2.2352764e+11
2.2182183e+11
3.8139954e+11
3.9793206e+11
4.0779863e+11
4.152352e+11
4.1551107e+11
4.1417864e+11
4.1284193e+11
4.1192652e+11
4.1135631e+11
4.1105712e+11
4.1105711e+11
4.1135636e+11
4.1192657e+11
4.1284216e+11
4.1417898e+11
4.155115e+11
4.152358e+11
4.0779912e+11
3.9793268e+11
3.8140045e+11
4.9169606e+11
5.4928558e+11
5.8546056e+11
6.0380253e+11
6.0510203e+11
6.0352802e+11
6.0124195e+11
5.9955996e+11
5.9849453e+11
5.9793982e+11
5.9793975e+11
5.984945e+11
5.9955983e+11
6.0124209e+11
6.0352833e+11
6.0510247e+11
6.0380319e+11
5.8546108e+11
5.4928632e+11
4.9169712e+11
0
0
0
0
0
0
0
0
0
0
0
0
0
0
0
0
0
0
0
0
0
0
0
0
0
0
0
0
0
0
0
0
0
0
0
0
0
0
0
0
0
0
0
0
0
0
0
0
0
0
0
0
0
0
0
0
0
0
0
0
0
0
0
0
0
0
0
0
0
0
0
0
0
0
0
0
0
0
0
0
0
0
0
0
0
0
0
0
0
0
0
0
0
0
0
0
0
0
0
0
0
0
0
0
0
0
0
0
0
0
0
0
0
0
0
0
0
0
0
0
0
0
0
0
0
0
0
0
0
0
0
0
0
0
0
0
0
0
0
0
0
0
0
0
0
0
0
0
0
0
0
0
0
0
0
0
0
0
0
0
0
0
0
0
0
0
0
0
0
0
0
0
0
0
0
0
0
0
0
0
0
0
0
0
0
0
0
0
0
0
0
0
0
0
0
0
0
0
0
0
0
0
0
0
0
0
0
0
0
0
0
0
0
0
0
0
0
0
0
0
0
0
0
0
0
0
0
0
0
0
0
0
0
0
0
0
0
0
0
0
0
0
0
0
0
0
0
0
0
0
0
0
0
0
0
0
0
0
0
0
0
0
0
0
0
0
0
0
0
0
0
0
0
0
0
0
0
0
0
0
0
0
0
0
0
0
0
0
0
0
0
0
0
0
0
0
0
0
0
0
0
0
0
0
0
0
0
0
0
0
0
0
0
0
0
0
0
0
0
0
0
0
0
0
0
0
0
0
0
0
0
0
0
0
0
0
0
0
0
0
0
0
0
0
0
0
0
0
0
0
0
0
0
0
0
0
0
0
0
0
0
0
0
0
0
0
0
0
0
0
0
0
0
0
0
0
0
0
0
0
0
0
0
0
0
0
0
0
0
0
0
0
0
0
0
0
0
0
0
0
0
0
0
0
0
0
0
0
0
0
0
0
0
0
0
0
0
0
0
0
0
0
0
0
0
0
0
0
0
0
0
0
0
0
0
0
0
0
0
0
0
0
0
0
0
0
0
0
0
0
0
0
0
0
0
0
0
0
0
0
0
0
0
0
0
0
0
0
0
0
0
0
0
0
0
0
0
0
0
0
0
0
0
0
0
0
0
0
0
0
0
0
0
0
0
0
0
0
0
0
0
0
0
0
0
0
0
0
0
0
0
0
0
0
0
0
0
0
0
0
0
0
0
0
0
0
0
0
0
0
0
0
0
0
0
0
0
0
0
0
0
0
0
0
0
0
0
0
0
0
0
0
0
0
0
0
0
0
0
0
)
;

boundaryField
{
    Wall
    {
        type            zeroGradient;
    }
    frontAndBack
    {
        type            empty;
    }
    atmosphere
    {
        type            zeroGradient;
    }
}


// ************************************************************************* //
