/*--------------------------------*- C++ -*----------------------------------*\
| =========                 |                                                 |
| \\      /  F ield         | OpenFOAM: The Open Source CFD Toolbox           |
|  \\    /   O peration     | Version:  3.0.1                                 |
|   \\  /    A nd           | Web:      www.OpenFOAM.org                      |
|    \\/     M anipulation  |                                                 |
\*---------------------------------------------------------------------------*/
FoamFile
{
    version     2.0;
    format      ascii;
    class       volScalarField;
    location    "22";
    object      XOH;
}
// * * * * * * * * * * * * * * * * * * * * * * * * * * * * * * * * * * * * * //

dimensions      [0 0 0 0 0 0 0];

internalField   nonuniform List<scalar> 
800
(
0.11359973
0.11360532
0.11360596
0.11360603
0.11360607
0.11360609
0.11360612
0.11360614
0.11360615
0.11360616
0.11360616
0.11360615
0.11360614
0.11360612
0.11360609
0.11360607
0.11360603
0.11360596
0.11360532
0.11359973
0.10672906
0.1068957
0.10692273
0.10692639
0.10692667
0.10692721
0.1069282
0.10692927
0.1069301
0.10693055
0.10693055
0.1069301
0.10692927
0.1069282
0.10692721
0.10692667
0.10692639
0.10692273
0.1068957
0.10672906
0.10063903
0.10090242
0.10095627
0.10096519
0.10096659
0.10096764
0.1009692
0.10097083
0.10097211
0.10097281
0.10097281
0.10097211
0.10097083
0.1009692
0.10096764
0.10096659
0.10096519
0.10095627
0.10090242
0.10063903
0.095015848
0.095377348
0.095452937
0.095464923
0.095466861
0.095467942
0.095469711
0.095471592
0.095473119
0.095473953
0.095473953
0.095473119
0.095471591
0.095469711
0.095467943
0.095466862
0.095464925
0.09545294
0.095377351
0.09501585
0.089479564
0.089953684
0.090052203
0.090068247
0.09007086
0.090071996
0.090073997
0.090076107
0.090077854
0.0900788
0.0900788
0.090077854
0.090076106
0.090073997
0.090071997
0.090070862
0.09006825
0.090052206
0.089953688
0.089479566
0.083567739
0.0841888
0.08431511
0.084337328
0.08434164
0.084343659
0.084346454
0.084349149
0.084351345
0.084352506
0.084352506
0.084351344
0.084349149
0.084346454
0.08434366
0.084341642
0.084337331
0.084315113
0.084188803
0.083567741
0.076735818
0.077555363
0.077725037
0.077756297
0.077764289
0.07776889
0.077773689
0.077777821
0.077780982
0.077782605
0.077782605
0.077780981
0.07777782
0.077773689
0.077768891
0.077764291
0.0777563
0.07772504
0.077555366
0.076735819
0.068355172
0.069427588
0.069679995
0.069723615
0.069737596
0.069747372
0.069756033
0.069762902
0.069767791
0.069770247
0.069770247
0.06976779
0.0697629
0.069756032
0.069747371
0.069737596
0.069723616
0.069679996
0.069427589
0.068355171
0.05772716
0.059091029
0.059487431
0.059545429
0.059567727
0.059585714
0.059600281
0.059611214
0.059618611
0.059622282
0.059622282
0.05961861
0.059611212
0.059600278
0.059585711
0.059567724
0.059545426
0.059487428
0.059091026
0.057727154
0.044092314
0.045770971
0.046384368
0.046451582
0.046486615
0.046513857
0.046534748
0.04655005
0.046559999
0.046564914
0.046564914
0.046559997
0.046550046
0.046534743
0.046513851
0.046486608
0.046451575
0.04638436
0.045770961
0.044092301
0.026618776
0.028684082
0.029593461
0.029651355
0.029696575
0.029726952
0.029749692
0.029765975
0.029776371
0.029781508
0.029781507
0.029776368
0.029765971
0.029749686
0.029726945
0.029696566
0.029651344
0.02959345
0.028684069
0.02661876
0.0030364691
0.0070999899
0.0073180931
0.0073395802
0.0084668841
0.0084825028
0.0084929651
0.0085002826
0.0085048495
0.0085070963
0.0085070961
0.008504849
0.0085002816
0.0084929635
0.0084825003
0.0084668807
0.0073395766
0.0073180891
0.0070999853
0.0030364667
1e-150
1e-150
1e-150
1e-150
1e-150
1e-150
1e-150
1e-150
1e-150
1e-150
1e-150
1e-150
1e-150
1e-150
1e-150
1e-150
1e-150
1e-150
1e-150
1e-150
1e-150
1e-150
1e-150
1e-150
1e-150
1e-150
1e-150
1e-150
1e-150
1e-150
1e-150
1e-150
1e-150
1e-150
1e-150
1e-150
1e-150
1e-150
1e-150
1e-150
1e-150
1e-150
1e-150
1e-150
1e-150
1e-150
1e-150
1e-150
1e-150
1e-150
1e-150
1e-150
1e-150
1e-150
1e-150
1e-150
1e-150
1e-150
1e-150
1e-150
1e-150
1e-150
1e-150
1e-150
1e-150
1e-150
1e-150
1e-150
1e-150
1e-150
1e-150
1e-150
1e-150
1e-150
1e-150
1e-150
1e-150
1e-150
1e-150
1e-150
1e-150
1e-150
1e-150
1e-150
1e-150
1e-150
1e-150
1e-150
1e-150
1e-150
1e-150
1e-150
1e-150
1e-150
1e-150
1e-150
1e-150
1e-150
1e-150
1e-150
1e-150
1e-150
1e-150
1e-150
1e-150
1e-150
1e-150
1e-150
1e-150
1e-150
1e-150
1e-150
1e-150
1e-150
1e-150
1e-150
1e-150
1e-150
1e-150
1e-150
1e-150
1e-150
1e-150
1e-150
1e-150
1e-150
1e-150
1e-150
1e-150
1e-150
1e-150
1e-150
1e-150
1e-150
1e-150
1e-150
1e-150
1e-150
1e-150
1e-150
1e-150
1e-150
1e-150
1e-150
1e-150
1e-150
1e-150
1e-150
1e-150
1e-150
1e-150
1e-150
1e-150
1e-150
1e-150
1e-150
1e-150
1e-150
1e-150
1e-150
1e-150
1e-150
1e-150
1e-150
1e-150
1e-150
1e-150
1e-150
1e-150
1e-150
1e-150
1e-150
1e-150
1e-150
1e-150
1e-150
1e-150
1e-150
1e-150
1e-150
1e-150
1e-150
1e-150
1e-150
1e-150
1e-150
1e-150
1e-150
1e-150
1e-150
1e-150
1e-150
1e-150
1e-150
1e-150
1e-150
1e-150
1e-150
1e-150
1e-150
1e-150
1e-150
1e-150
1e-150
1e-150
1e-150
1e-150
1e-150
1e-150
1e-150
1e-150
1e-150
1e-150
1e-150
1e-150
1e-150
1e-150
1e-150
1e-150
1e-150
1e-150
1e-150
1e-150
1e-150
1e-150
1e-150
1e-150
1e-150
1e-150
1e-150
1e-150
1e-150
1e-150
1e-150
1e-150
1e-150
1e-150
1e-150
1e-150
1e-150
1e-150
1e-150
1e-150
1e-150
1e-150
1e-150
1e-150
1e-150
1e-150
1e-150
1e-150
1e-150
1e-150
1e-150
1e-150
1e-150
1e-150
1e-150
1e-150
1e-150
1e-150
1e-150
1e-150
1e-150
1e-150
1e-150
1e-150
1e-150
1e-150
1e-150
1e-150
1e-150
1e-150
1e-150
1e-150
1e-150
1e-150
1e-150
1e-150
1e-150
1e-150
1e-150
1e-150
1e-150
1e-150
1e-150
1e-150
1e-150
1e-150
1e-150
1e-150
1e-150
1e-150
1e-150
1e-150
1e-150
1e-150
1e-150
1e-150
1e-150
1e-150
1e-150
1e-150
1e-150
1e-150
1e-150
1e-150
1e-150
1e-150
1e-150
1e-150
1e-150
1e-150
1e-150
1e-150
1e-150
1e-150
1e-150
1e-150
1e-150
1e-150
1e-150
1e-150
1e-150
1e-150
1e-150
1e-150
1e-150
1e-150
1e-150
1e-150
1e-150
1e-150
1e-150
1e-150
1e-150
1e-150
1e-150
1e-150
1e-150
1e-150
1e-150
1e-150
1e-150
1e-150
1e-150
1e-150
1e-150
1e-150
1e-150
1e-150
1e-150
1e-150
1e-150
1e-150
1e-150
1e-150
1e-150
1e-150
1e-150
1e-150
1e-150
1e-150
1e-150
1e-150
1e-150
1e-150
1e-150
1e-150
1e-150
1e-150
1e-150
1e-150
1e-150
1e-150
1e-150
1e-150
1e-150
1e-150
1e-150
1e-150
1e-150
1e-150
1e-150
1e-150
1e-150
1e-150
1e-150
1e-150
1e-150
1e-150
1e-150
1e-150
1e-150
1e-150
1e-150
1e-150
1e-150
1e-150
1e-150
1e-150
1e-150
1e-150
1e-150
1e-150
1e-150
1e-150
1e-150
1e-150
1e-150
1e-150
1e-150
1e-150
1e-150
1e-150
1e-150
1e-150
1e-150
1e-150
1e-150
1e-150
1e-150
1e-150
1e-150
1e-150
1e-150
1e-150
1e-150
1e-150
1e-150
1e-150
1e-150
1e-150
1e-150
1e-150
1e-150
1e-150
1e-150
1e-150
1e-150
1e-150
1e-150
1e-150
1e-150
1e-150
1e-150
1e-150
1e-150
1e-150
1e-150
1e-150
1e-150
1e-150
1e-150
1e-150
1e-150
1e-150
1e-150
1e-150
1e-150
1e-150
1e-150
1e-150
1e-150
1e-150
1e-150
1e-150
1e-150
1e-150
1e-150
1e-150
1e-150
1e-150
1e-150
1e-150
1e-150
1e-150
1e-150
1e-150
1e-150
1e-150
1e-150
1e-150
1e-150
1e-150
1e-150
1e-150
1e-150
1e-150
1e-150
1e-150
1e-150
1e-150
1e-150
1e-150
1e-150
1e-150
1e-150
1e-150
1e-150
1e-150
1e-150
1e-150
1e-150
1e-150
1e-150
1e-150
1e-150
1e-150
1e-150
1e-150
1e-150
1e-150
1e-150
1e-150
1e-150
1e-150
1e-150
1e-150
1e-150
1e-150
1e-150
1e-150
1e-150
1e-150
1e-150
1e-150
1e-150
1e-150
1e-150
1e-150
1e-150
1e-150
1e-150
1e-150
1e-150
1e-150
1e-150
1e-150
1e-150
1e-150
1e-150
1e-150
1e-150
1e-150
1e-150
1e-150
1e-150
1e-150
1e-150
1e-150
1e-150
1e-150
1e-150
1e-150
1e-150
1e-150
1e-150
1e-150
1e-150
)
;

boundaryField
{
    Wall
    {
        type            zeroGradient;
    }
    frontAndBack
    {
        type            empty;
    }
    atmosphere
    {
        type            zeroGradient;
    }
}


// ************************************************************************* //
