/*--------------------------------*- C++ -*----------------------------------*\
| =========                 |                                                 |
| \\      /  F ield         | OpenFOAM: The Open Source CFD Toolbox           |
|  \\    /   O peration     | Version:  3.0.1                                 |
|   \\  /    A nd           | Web:      www.OpenFOAM.org                      |
|    \\/     M anipulation  |                                                 |
\*---------------------------------------------------------------------------*/
FoamFile
{
    version     2.0;
    format      ascii;
    class       volScalarField;
    location    "22";
    object      XW;
}
// * * * * * * * * * * * * * * * * * * * * * * * * * * * * * * * * * * * * * //

dimensions      [0 0 0 0 0 0 0];

internalField   nonuniform List<scalar> 
800
(
0.5152186
0.51523352
0.51523517
0.51523536
0.51523544
0.5152355
0.51523556
0.51523561
0.51523564
0.51523565
0.51523566
0.51523564
0.51523561
0.51523556
0.5152355
0.51523544
0.51523536
0.51523518
0.51523352
0.5152186
0.49492502
0.49541986
0.49549988
0.49551114
0.49551239
0.49551435
0.49551753
0.49552084
0.49552342
0.49552479
0.49552479
0.49552341
0.49552084
0.49551753
0.49551435
0.49551239
0.49551114
0.49549988
0.49541987
0.49492502
0.47537958
0.47622233
0.47639067
0.47641912
0.47642386
0.47642739
0.47643238
0.47643756
0.47644163
0.47644384
0.47644384
0.47644163
0.47643756
0.47643238
0.47642739
0.47642386
0.47641912
0.47639068
0.47622233
0.47537958
0.45560736
0.45685508
0.45710249
0.45714152
0.45714806
0.45715169
0.45715754
0.45716375
0.45716879
0.45717155
0.45717155
0.45716879
0.45716375
0.45715754
0.45715169
0.45714806
0.45714153
0.4571025
0.45685508
0.45560736
0.43429176
0.43606312
0.43639824
0.4364522
0.43646129
0.43646544
0.43647259
0.4364801
0.43648629
0.43648965
0.43648965
0.43648629
0.4364801
0.43647258
0.43646544
0.43646129
0.43645221
0.43639825
0.43606313
0.43429176
0.40970535
0.41219967
0.41264258
0.41271978
0.41273541
0.41274368
0.41275472
0.41276531
0.4127738
0.4127783
0.4127783
0.4127738
0.41276531
0.41275471
0.41274368
0.41273541
0.41271978
0.41264258
0.41219967
0.40970536
0.37962606
0.38311452
0.38376315
0.38387528
0.38390545
0.38392503
0.3839453
0.38396277
0.38397591
0.38398269
0.38398269
0.3839759
0.38396276
0.38394529
0.38392502
0.38390544
0.38387528
0.38376316
0.38311452
0.37962605
0.3412233
0.34600264
0.34708543
0.34724736
0.3473015
0.3473437
0.34738143
0.34741156
0.34743279
0.34744352
0.34744351
0.34743278
0.34741155
0.34738141
0.34734369
0.34730149
0.34724736
0.34708542
0.34600263
0.34122329
0.2909131
0.29726044
0.2991199
0.29934394
0.29943137
0.29951001
0.2995745
0.29962331
0.29965618
0.29967258
0.29967258
0.29965617
0.2996233
0.29957448
0.29950999
0.29943135
0.29934392
0.29911988
0.29726042
0.29091306
0.22384054
0.2320865
0.23515684
0.23542869
0.23557472
0.23569594
0.23578974
0.23585888
0.23590372
0.23592597
0.23592596
0.23590371
0.23585886
0.23578972
0.23569591
0.23557469
0.23542865
0.23515679
0.23208645
0.22384047
0.13512429
0.14560953
0.15028612
0.15052966
0.15072127
0.15085815
0.15096143
0.15103562
0.1510829
0.15110632
0.15110631
0.15108288
0.1510356
0.1509614
0.15085811
0.15072122
0.1505296
0.15028606
0.14560947
0.13512421
0.01536548
0.036066902
0.037148347
0.037241223
0.043051279
0.043122661
0.04317077
0.043204543
0.043225592
0.043235963
0.043235963
0.04322559
0.043204538
0.043170761
0.043122649
0.043051262
0.037241206
0.037148327
0.03606688
0.015365469
1e-150
1e-150
1e-150
1e-150
1e-150
1e-150
1e-150
1e-150
1e-150
1e-150
1e-150
1e-150
1e-150
1e-150
1e-150
1e-150
1e-150
1e-150
1e-150
1e-150
1e-150
1e-150
1e-150
1e-150
1e-150
1e-150
1e-150
1e-150
1e-150
1e-150
1e-150
1e-150
1e-150
1e-150
1e-150
1e-150
1e-150
1e-150
1e-150
1e-150
1e-150
1e-150
1e-150
1e-150
1e-150
1e-150
1e-150
1e-150
1e-150
1e-150
1e-150
1e-150
1e-150
1e-150
1e-150
1e-150
1e-150
1e-150
1e-150
1e-150
1e-150
1e-150
1e-150
1e-150
1e-150
1e-150
1e-150
1e-150
1e-150
1e-150
1e-150
1e-150
1e-150
1e-150
1e-150
1e-150
1e-150
1e-150
1e-150
1e-150
1e-150
1e-150
1e-150
1e-150
1e-150
1e-150
1e-150
1e-150
1e-150
1e-150
1e-150
1e-150
1e-150
1e-150
1e-150
1e-150
1e-150
1e-150
1e-150
1e-150
1e-150
1e-150
1e-150
1e-150
1e-150
1e-150
1e-150
1e-150
1e-150
1e-150
1e-150
1e-150
1e-150
1e-150
1e-150
1e-150
1e-150
1e-150
1e-150
1e-150
1e-150
1e-150
1e-150
1e-150
1e-150
1e-150
1e-150
1e-150
1e-150
1e-150
1e-150
1e-150
1e-150
1e-150
1e-150
1e-150
1e-150
1e-150
1e-150
1e-150
1e-150
1e-150
1e-150
1e-150
1e-150
1e-150
1e-150
1e-150
1e-150
1e-150
1e-150
1e-150
1e-150
1e-150
1e-150
1e-150
1e-150
1e-150
1e-150
1e-150
1e-150
1e-150
1e-150
1e-150
1e-150
1e-150
1e-150
1e-150
1e-150
1e-150
1e-150
1e-150
1e-150
1e-150
1e-150
1e-150
1e-150
1e-150
1e-150
1e-150
1e-150
1e-150
1e-150
1e-150
1e-150
1e-150
1e-150
1e-150
1e-150
1e-150
1e-150
1e-150
1e-150
1e-150
1e-150
1e-150
1e-150
1e-150
1e-150
1e-150
1e-150
1e-150
1e-150
1e-150
1e-150
1e-150
1e-150
1e-150
1e-150
1e-150
1e-150
1e-150
1e-150
1e-150
1e-150
1e-150
1e-150
1e-150
1e-150
1e-150
1e-150
1e-150
1e-150
1e-150
1e-150
1e-150
1e-150
1e-150
1e-150
1e-150
1e-150
1e-150
1e-150
1e-150
1e-150
1e-150
1e-150
1e-150
1e-150
1e-150
1e-150
1e-150
1e-150
1e-150
1e-150
1e-150
1e-150
1e-150
1e-150
1e-150
1e-150
1e-150
1e-150
1e-150
1e-150
1e-150
1e-150
1e-150
1e-150
1e-150
1e-150
1e-150
1e-150
1e-150
1e-150
1e-150
1e-150
1e-150
1e-150
1e-150
1e-150
1e-150
1e-150
1e-150
1e-150
1e-150
1e-150
1e-150
1e-150
1e-150
1e-150
1e-150
1e-150
1e-150
1e-150
1e-150
1e-150
1e-150
1e-150
1e-150
1e-150
1e-150
1e-150
1e-150
1e-150
1e-150
1e-150
1e-150
1e-150
1e-150
1e-150
1e-150
1e-150
1e-150
1e-150
1e-150
1e-150
1e-150
1e-150
1e-150
1e-150
1e-150
1e-150
1e-150
1e-150
1e-150
1e-150
1e-150
1e-150
1e-150
1e-150
1e-150
1e-150
1e-150
1e-150
1e-150
1e-150
1e-150
1e-150
1e-150
1e-150
1e-150
1e-150
1e-150
1e-150
1e-150
1e-150
1e-150
1e-150
1e-150
1e-150
1e-150
1e-150
1e-150
1e-150
1e-150
1e-150
1e-150
1e-150
1e-150
1e-150
1e-150
1e-150
1e-150
1e-150
1e-150
1e-150
1e-150
1e-150
1e-150
1e-150
1e-150
1e-150
1e-150
1e-150
1e-150
1e-150
1e-150
1e-150
1e-150
1e-150
1e-150
1e-150
1e-150
1e-150
1e-150
1e-150
1e-150
1e-150
1e-150
1e-150
1e-150
1e-150
1e-150
1e-150
1e-150
1e-150
1e-150
1e-150
1e-150
1e-150
1e-150
1e-150
1e-150
1e-150
1e-150
1e-150
1e-150
1e-150
1e-150
1e-150
1e-150
1e-150
1e-150
1e-150
1e-150
1e-150
1e-150
1e-150
1e-150
1e-150
1e-150
1e-150
1e-150
1e-150
1e-150
1e-150
1e-150
1e-150
1e-150
1e-150
1e-150
1e-150
1e-150
1e-150
1e-150
1e-150
1e-150
1e-150
1e-150
1e-150
1e-150
1e-150
1e-150
1e-150
1e-150
1e-150
1e-150
1e-150
1e-150
1e-150
1e-150
1e-150
1e-150
1e-150
1e-150
1e-150
1e-150
1e-150
1e-150
1e-150
1e-150
1e-150
1e-150
1e-150
1e-150
1e-150
1e-150
1e-150
1e-150
1e-150
1e-150
1e-150
1e-150
1e-150
1e-150
1e-150
1e-150
1e-150
1e-150
1e-150
1e-150
1e-150
1e-150
1e-150
1e-150
1e-150
1e-150
1e-150
1e-150
1e-150
1e-150
1e-150
1e-150
1e-150
1e-150
1e-150
1e-150
1e-150
1e-150
1e-150
1e-150
1e-150
1e-150
1e-150
1e-150
1e-150
1e-150
1e-150
1e-150
1e-150
1e-150
1e-150
1e-150
1e-150
1e-150
1e-150
1e-150
1e-150
1e-150
1e-150
1e-150
1e-150
1e-150
1e-150
1e-150
1e-150
1e-150
1e-150
1e-150
1e-150
1e-150
1e-150
1e-150
1e-150
1e-150
1e-150
1e-150
1e-150
1e-150
1e-150
1e-150
1e-150
1e-150
1e-150
1e-150
1e-150
1e-150
1e-150
1e-150
1e-150
1e-150
1e-150
1e-150
1e-150
1e-150
1e-150
1e-150
1e-150
1e-150
1e-150
1e-150
1e-150
1e-150
1e-150
1e-150
1e-150
1e-150
1e-150
1e-150
)
;

boundaryField
{
    Wall
    {
        type            zeroGradient;
    }
    frontAndBack
    {
        type            empty;
    }
    atmosphere
    {
        type            zeroGradient;
    }
}


// ************************************************************************* //
