/*--------------------------------*- C++ -*----------------------------------*\
| =========                 |                                                 |
| \\      /  F ield         | OpenFOAM: The Open Source CFD Toolbox           |
|  \\    /   O peration     | Version:  3.0.1                                 |
|   \\  /    A nd           | Web:      www.OpenFOAM.org                      |
|    \\/     M anipulation  |                                                 |
\*---------------------------------------------------------------------------*/
FoamFile
{
    version     2.0;
    format      ascii;
    class       volScalarField;
    location    "26";
    object      alpha.gas;
}
// * * * * * * * * * * * * * * * * * * * * * * * * * * * * * * * * * * * * * //

dimensions      [0 0 0 0 0 0 0];

internalField   nonuniform List<scalar> 
800
(
2.2512152e-28
2.2876306e-25
4.3971054e-22
8.6112341e-22
1.0366065e-23
1.0636589e-21
9.3050095e-22
5.7767783e-23
1.9797914e-25
3.1615716e-28
3.0449806e-23
2.9625663e-23
3.742479e-25
6.8995201e-23
6.7695269e-23
1.5873384e-27
3.2780151e-32
1.4208558e-35
2.7999562e-39
5.2048382e-43
2.0404678e-12
4.6655309e-13
3.3179127e-11
1.205969e-11
5.3569702e-13
1.5711361e-11
1.2421697e-11
1.4936992e-11
3.0356858e-11
7.6249466e-11
3.8325016e-11
3.8135838e-11
2.0624388e-11
1.2231303e-11
1.1515842e-11
2.2394827e-12
5.6320449e-16
8.1931852e-14
6.4229387e-12
8.8934224e-15
2.0033359e-07
1.8240649e-07
1.7772178e-07
1.7696372e-07
1.7708014e-07
1.7742909e-07
1.7772305e-07
1.7793585e-07
1.780738e-07
1.7816327e-07
1.7813833e-07
1.7807901e-07
1.7793975e-07
1.7772315e-07
1.7742675e-07
1.7708177e-07
1.7695636e-07
1.7770073e-07
1.8241133e-07
2.0033364e-07
9.0848979e-07
8.2455782e-07
8.0317547e-07
8.0030829e-07
8.0106553e-07
8.0266093e-07
8.0400299e-07
8.0494489e-07
8.0552645e-07
8.0581806e-07
8.0579638e-07
8.0553138e-07
8.0494902e-07
8.0400408e-07
8.0266024e-07
8.010686e-07
8.0030375e-07
8.0315924e-07
8.2456474e-07
9.0849351e-07
2.4537093e-06
2.222072e-06
2.162437e-06
2.155831e-06
2.158525e-06
2.1630276e-06
2.1667112e-06
2.1692354e-06
2.1707761e-06
2.1715087e-06
2.171488e-06
2.1707817e-06
2.1692409e-06
2.1667143e-06
2.1630294e-06
2.1585309e-06
2.1558296e-06
2.1624246e-06
2.2220824e-06
2.4537175e-06
5.1453493e-06
4.6512908e-06
4.5192748e-06
4.5076647e-06
4.5148425e-06
4.5248695e-06
4.5327797e-06
4.538071e-06
4.5412662e-06
4.5427479e-06
4.5427279e-06
4.5412733e-06
4.5380786e-06
4.5327857e-06
4.5248743e-06
4.5148519e-06
4.5076663e-06
4.5192656e-06
4.651304e-06
5.1453602e-06
9.2469856e-06
8.3472342e-06
8.0904698e-06
8.0734272e-06
8.0900015e-06
8.1092133e-06
8.1237981e-06
8.1333036e-06
8.1389766e-06
8.1415549e-06
8.1415358e-06
8.1389853e-06
8.1333133e-06
8.123807e-06
8.1092205e-06
8.0900136e-06
8.07343e-06
8.0904615e-06
8.3472476e-06
9.2469955e-06
1.4966163e-05
1.3496109e-05
1.3036525e-05
1.3014174e-05
1.3046512e-05
1.3080229e-05
1.3104283e-05
1.3119509e-05
1.3128506e-05
1.3132518e-05
1.31325e-05
1.3128516e-05
1.3119521e-05
1.3104293e-05
1.3080238e-05
1.3046524e-05
1.3014174e-05
1.3036514e-05
1.3496119e-05
1.4966168e-05
2.2473575e-05
2.0242456e-05
1.9473655e-05
1.9447086e-05
1.9503228e-05
1.955594e-05
1.9591736e-05
1.9613856e-05
1.9626936e-05
1.963262e-05
1.9632603e-05
1.9626947e-05
1.9613868e-05
1.9591747e-05
1.9555947e-05
1.9503237e-05
1.9447081e-05
1.947364e-05
2.0242462e-05
2.2473577e-05
3.1960585e-05
2.8710027e-05
2.7520287e-05
2.7495644e-05
2.7584146e-05
2.7658949e-05
2.7707678e-05
2.7737232e-05
2.7754935e-05
2.7762434e-05
2.7762417e-05
2.7754945e-05
2.7737243e-05
2.7707686e-05
2.7658952e-05
2.7584148e-05
2.7495632e-05
2.7520268e-05
2.8710031e-05
3.1960587e-05
4.3768651e-05
3.9022666e-05
3.7420013e-05
3.7411479e-05
3.7538361e-05
3.7637658e-05
3.7699417e-05
3.7735862e-05
3.7760734e-05
3.7770141e-05
3.7770125e-05
3.7760743e-05
3.7735872e-05
3.7699422e-05
3.7637655e-05
3.7538357e-05
3.741146e-05
3.7419989e-05
3.9022672e-05
4.3768662e-05
5.9057765e-05
5.1745489e-05
4.9953445e-05
4.9959293e-05
5.0125717e-05
5.0247854e-05
5.0319518e-05
5.0358833e-05
5.0387851e-05
5.0398749e-05
5.0398733e-05
5.0387858e-05
5.035884e-05
5.0319518e-05
5.0247844e-05
5.0125705e-05
4.9959267e-05
4.9953417e-05
5.1745496e-05
5.9057788e-05
8.3158652e-05
7.0414044e-05
6.8219269e-05
6.8111499e-05
6.8255653e-05
6.8366009e-05
6.8426755e-05
6.8454536e-05
6.8483905e-05
6.8500297e-05
6.8500281e-05
6.8483909e-05
6.8454538e-05
6.8426747e-05
6.8365987e-05
6.8255629e-05
6.811146e-05
6.8219234e-05
7.0414041e-05
8.3158671e-05
0.00014112676
0.00011157418
0.00010615069
0.0001051664
0.0001048459
0.00010470576
0.00010464047
0.00010456814
0.00010452142
0.00010452589
0.00010452587
0.00010452141
0.00010456812
0.00010464043
0.00010470569
0.00010484582
0.00010516631
0.0001061506
0.00011157411
0.00014112662
0.00040396302
0.00028294781
0.0002537628
0.00024559806
0.0002409797
0.00023866082
0.00023725556
0.00023638334
0.00023558509
0.00023541545
0.0002354154
0.00023558497
0.00023638317
0.00023725529
0.00023866046
0.00024097926
0.00024559755
0.00025376223
0.00028294699
0.00040396111
0.0029862672
0.0017818621
0.0014573008
0.0013571671
0.0012979575
0.0012666051
0.0012466223
0.0012357359
0.001225201
0.0012215445
0.001221544
0.0012251993
0.0012357336
0.0012466189
0.0012666009
0.0012979525
0.0013571612
0.0014572931
0.0017818499
0.0029862322
0.081787716
0.042000031
0.031718157
0.028239726
0.026175227
0.025101816
0.024483404
0.024140025
0.023815378
0.02368335
0.023683335
0.023815325
0.024139948
0.024483294
0.025101681
0.026175051
0.028239517
0.031717896
0.041999589
0.081786504
0.67114913
0.54469495
0.49325563
0.47143002
0.45749573
0.44957657
0.44477744
0.44203849
0.43948898
0.43845453
0.43845441
0.43948855
0.44203787
0.44477656
0.44957551
0.45749449
0.47142862
0.49325403
0.54469294
0.67114639
0.97788705
0.95683712
0.94503093
0.9394411
0.93566448
0.93339031
0.93197046
0.9311476
0.93038725
0.93008376
0.93008372
0.93038712
0.93114741
0.93197019
0.93339
0.93566413
0.93944072
0.94503052
0.9568367
0.9778867
0.99981823
0.99942202
0.99912438
0.99897716
0.99887535
0.9988107
0.99876949
0.99874554
0.99872322
0.99871476
0.99871476
0.99872321
0.99874553
0.99876949
0.99881069
0.99887534
0.99897715
0.99912437
0.99942201
0.99981822
0.99999991
0.99999929
0.99999861
0.99999826
0.99999803
0.99999789
0.99999781
0.99999776
0.99999771
0.9999977
0.9999977
0.99999771
0.99999776
0.99999781
0.99999789
0.99999803
0.99999826
0.99999861
0.99999929
0.99999991
1
1
1
1
1
1
1
1
1
1
1
1
1
1
1
1
1
1
1
1
1
1
1
1
1
1
1
1
1
1
1
1
1
1
1
1
1
1
1
1
1
1
1
1
1
1
1
1
1
1
1
1
1
1
1
1
1
1
1
1
1
1
1
1
1
1
1
1
1
1
1
1
1
1
1
1
1
1
1
1
1
1
1
1
1
1
1
1
1
1
1
1
1
1
1
1
1
1
1
1
1
1
1
1
1
1
1
1
1
1
1
1
1
1
1
1
1
1
1
1
1
1
1
1
1
1
1
1
1
1
1
1
1
1
1
1
1
1
1
1
1
1
1
1
1
1
1
1
1
1
1
1
1
1
1
1
1
1
1
1
1
1
1
1
1
1
1
1
1
1
1
1
1
1
1
1
1
1
1
1
1
1
1
1
1
1
1
1
1
1
1
1
1
1
1
1
1
1
1
1
1
1
1
1
1
1
1
1
1
1
1
1
1
1
1
1
1
1
1
1
1
1
1
1
1
1
1
1
1
1
1
1
1
1
1
1
1
1
1
1
1
1
1
1
1
1
1
1
1
1
1
1
1
1
1
1
1
1
1
1
1
1
1
1
1
1
1
1
1
1
1
1
1
1
1
1
1
1
1
1
1
1
1
1
1
1
1
1
1
1
1
1
1
1
1
1
1
1
1
1
1
1
1
1
1
1
1
1
1
1
1
1
1
1
1
1
1
1
1
1
1
1
1
1
1
1
1
1
1
1
1
1
1
1
1
1
1
1
1
1
1
1
1
1
1
1
1
1
1
1
1
1
1
1
1
1
1
1
1
1
1
1
1
1
1
1
1
1
1
1
1
1
1
1
1
1
1
1
1
1
)
;

boundaryField
{
    Wall
    {
        type            zeroGradient;
    }
    frontAndBack
    {
        type            empty;
    }
    atmosphere
    {
        type            zeroGradient;
    }
}


// ************************************************************************* //
