/*--------------------------------*- C++ -*----------------------------------*\
| =========                 |                                                 |
| \\      /  F ield         | OpenFOAM: The Open Source CFD Toolbox           |
|  \\    /   O peration     | Version:  3.0.1                                 |
|   \\  /    A nd           | Web:      www.OpenFOAM.org                      |
|    \\/     M anipulation  |                                                 |
\*---------------------------------------------------------------------------*/
FoamFile
{
    version     2.0;
    format      ascii;
    class       volScalarField;
    location    "26";
    object      g1_BA;
}
// * * * * * * * * * * * * * * * * * * * * * * * * * * * * * * * * * * * * * //

dimensions      [0 0 0 0 0 0 0];

internalField   nonuniform List<scalar> 
800
(
0.48173607
0.4818494
0.48187119
0.48187423
0.48187476
0.48187519
0.48187574
0.48187628
0.48187667
0.48187687
0.48187687
0.48187667
0.48187627
0.48187575
0.48187519
0.48187476
0.48187424
0.48187121
0.48184941
0.48173607
0.45899408
0.46011565
0.46038999
0.46043651
0.46043034
0.46041715
0.46040733
0.4604017
0.46039894
0.46039783
0.46039784
0.46039893
0.4604017
0.46040732
0.46041714
0.46043033
0.4604365
0.46038997
0.46011562
0.45899401
0.42633129
0.42842302
0.42906068
0.42918844
0.4291886
0.42916592
0.42914685
0.42913521
0.42912919
0.42912674
0.42912674
0.42912919
0.4291352
0.42914684
0.4291659
0.42918856
0.4291884
0.42906062
0.42842294
0.42633116
0.39033663
0.39333193
0.39430146
0.39449918
0.39450287
0.39447
0.39444163
0.3944238
0.39441434
0.3944104
0.3944104
0.39441433
0.39442378
0.3944416
0.39446996
0.39450281
0.39449912
0.39430138
0.39333183
0.39033647
0.35550443
0.35919745
0.36044616
0.36069533
0.36069537
0.36064918
0.36061029
0.36058544
0.36057201
0.36056631
0.3605663
0.360572
0.36058541
0.36061026
0.36064914
0.36069531
0.36069527
0.36044608
0.35919736
0.35550428
0.32400641
0.32817876
0.32967966
0.32997055
0.32996214
0.3299
0.32984935
0.32981652
0.3297986
0.32979079
0.32979079
0.32979859
0.32981649
0.32984932
0.32989996
0.32996209
0.3299705
0.3296796
0.32817869
0.32400631
0.2966299
0.30115973
0.30284344
0.30317285
0.30315343
0.30307352
0.30301004
0.30296826
0.30294526
0.30293499
0.30293499
0.30294525
0.30296824
0.30301002
0.30307349
0.3031534
0.30317282
0.30284341
0.3011597
0.29662986
0.27274335
0.27770036
0.27947321
0.27985056
0.27982412
0.27972753
0.27965182
0.27960129
0.27957323
0.27956041
0.27956041
0.27957322
0.27960127
0.27965181
0.27972752
0.27982411
0.27985056
0.27947321
0.27770037
0.27274337
0.25087054
0.25648297
0.25827115
0.25872057
0.25869508
0.25858788
0.25850348
0.25844644
0.25841437
0.25839944
0.25839944
0.25841436
0.25844643
0.25850348
0.25858788
0.25869509
0.25872061
0.25827119
0.25648303
0.2508706
0.2291165
0.2357068
0.23750915
0.23807135
0.23806947
0.23796096
0.23787641
0.23781827
0.23778469
0.23776891
0.23776891
0.23778468
0.23781826
0.23787641
0.23796098
0.2380695
0.23807141
0.23750922
0.23570689
0.22911659
0.20534389
0.21327595
0.21518397
0.21592051
0.21598882
0.21590703
0.21583826
0.21578888
0.21575809
0.21574377
0.21574377
0.21575808
0.21578888
0.21583827
0.21590705
0.21598887
0.21592058
0.21518405
0.21327604
0.20534398
0.17736751
0.18674429
0.18914565
0.19014932
0.19016434
0.19015021
0.19012024
0.19009582
0.19008006
0.19007171
0.19007171
0.19008005
0.19009581
0.19012024
0.19015024
0.19016439
0.19014938
0.18914573
0.18674438
0.17736758
0.14309691
0.1536933
0.15714802
0.15822681
0.15824353
0.15834433
0.15838599
0.15842061
0.15849648
0.15851028
0.15851028
0.15849647
0.1584206
0.15838599
0.15834435
0.15824357
0.15822687
0.15714808
0.15369336
0.14309695
0.10061862
0.11228435
0.11672559
0.11802704
0.1183127
0.11857952
0.11874673
0.11886047
0.11867742
0.11870327
0.11870326
0.11867741
0.11886046
0.11874673
0.11857953
0.11831272
0.11802708
0.11672562
0.11228438
0.10061864
0.05798105
0.070449404
0.075898845
0.077909459
0.078691535
0.079216893
0.079739369
0.079957813
0.079727647
0.079769441
0.079769438
0.079727647
0.079957809
0.07973938
0.079216919
0.078691573
0.077909509
0.075898891
0.070449455
0.057981123
0.011486639
0.019761214
0.024117459
0.026010909
0.027018239
0.027941414
0.028065928
0.02829504
0.02837769
0.028435617
0.028435617
0.028377697
0.028295046
0.028065946
0.027941441
0.027018272
0.026010948
0.024117499
0.019761264
0.011486705
0
0
0
0
0
0
0
0
0
0
0
0
0
0
0
0
0
0
0
0
0
0
0
0
0
0
0
0
0
0
0
0
0
0
0
0
0
0
0
0
0
0
0
0
0
0
0
0
0
0
0
0
0
0
0
0
0
0
0
0
0
0
0
0
0
0
0
0
0
0
0
0
0
0
0
0
0
0
0
0
0
0
0
0
0
0
0
0
0
0
0
0
0
0
0
0
0
0
0
0
0
0
0
0
0
0
0
0
0
0
0
0
0
0
0
0
0
0
0
0
0
0
0
0
0
0
0
0
0
0
0
0
0
0
0
0
0
0
0
0
0
0
0
0
0
0
0
0
0
0
0
0
0
0
0
0
0
0
0
0
0
0
0
0
0
0
0
0
0
0
0
0
0
0
0
0
0
0
0
0
0
0
0
0
0
0
0
0
0
0
0
0
0
0
0
0
0
0
0
0
0
0
0
0
0
0
0
0
0
0
0
0
0
0
0
0
0
0
0
0
0
0
0
0
0
0
0
0
0
0
0
0
0
0
0
0
0
0
0
0
0
0
0
0
0
0
0
0
0
0
0
0
0
0
0
0
0
0
0
0
0
0
0
0
0
0
0
0
0
0
0
0
0
0
0
0
0
0
0
0
0
0
0
0
0
0
0
0
0
0
0
0
0
0
0
0
0
0
0
0
0
0
0
0
0
0
0
0
0
0
0
0
0
0
0
0
0
0
0
0
0
0
0
0
0
0
0
0
0
0
0
0
0
0
0
0
0
0
0
0
0
0
0
0
0
0
0
0
0
0
0
0
0
0
0
0
0
0
0
0
0
0
0
0
0
0
0
0
0
0
0
0
0
0
0
0
0
0
0
0
0
0
0
0
0
0
0
0
0
0
0
0
0
0
0
0
0
0
0
0
0
0
0
0
0
0
0
0
0
0
0
0
0
0
0
0
0
0
0
0
0
0
0
0
0
0
0
0
0
0
0
0
0
0
0
0
0
0
0
0
0
0
0
0
0
0
0
0
0
0
0
0
0
0
0
0
0
0
0
0
0
0
0
0
0
0
0
0
0
0
0
0
0
0
0
0
0
0
0
0
)
;

boundaryField
{
    Wall
    {
        type            zeroGradient;
    }
    frontAndBack
    {
        type            empty;
    }
    atmosphere
    {
        type            zeroGradient;
    }
}


// ************************************************************************* //
