/*--------------------------------*- C++ -*----------------------------------*\
| =========                 |                                                 |
| \\      /  F ield         | OpenFOAM: The Open Source CFD Toolbox           |
|  \\    /   O peration     | Version:  3.0.1                                 |
|   \\  /    A nd           | Web:      www.OpenFOAM.org                      |
|    \\/     M anipulation  |                                                 |
\*---------------------------------------------------------------------------*/
FoamFile
{
    version     2.0;
    format      ascii;
    class       volScalarField;
    location    "26";
    object      g1_CO2;
}
// * * * * * * * * * * * * * * * * * * * * * * * * * * * * * * * * * * * * * //

dimensions      [0 0 0 0 0 0 0];

internalField   nonuniform List<scalar> 
800
(
0.48480245
0.48484219
0.48485058
0.48485181
0.48485205
0.48485227
0.48485252
0.48485275
0.48485292
0.48485301
0.48485301
0.48485292
0.48485275
0.48485252
0.48485227
0.48485206
0.48485181
0.48485058
0.48484219
0.48480245
0.5031402
0.50303448
0.50307204
0.50308682
0.50308357
0.50307326
0.50306236
0.50305358
0.50304771
0.5030448
0.5030448
0.50304771
0.50305357
0.50306235
0.50307325
0.50308356
0.5030868
0.50307202
0.50303445
0.50314015
0.52268638
0.52239045
0.52241146
0.52243467
0.52243102
0.52241564
0.52239864
0.52238467
0.52237515
0.52237037
0.52237038
0.52237515
0.52238466
0.52239864
0.52241563
0.522431
0.52243464
0.52241142
0.5223904
0.52268629
0.54631839
0.54556981
0.5455291
0.54556085
0.54555863
0.54554233
0.54552272
0.54550622
0.5454947
0.54548886
0.54548887
0.5454947
0.54550621
0.54552271
0.54554232
0.5455586
0.54556082
0.54552904
0.54556975
0.5463183
0.577089
0.57550182
0.57534052
0.57532945
0.57532542
0.57530898
0.57528791
0.57526994
0.57525709
0.57525057
0.57525057
0.5752571
0.57526994
0.57528791
0.57530897
0.57532539
0.57532942
0.57534048
0.57550177
0.57708892
0.61736843
0.61446318
0.61413956
0.61404097
0.6140303
0.61401165
0.61398839
0.61396856
0.61395408
0.61394675
0.61394675
0.61395408
0.61396856
0.61398839
0.61401164
0.61403028
0.61404094
0.61413953
0.61446314
0.61736838
0.66934902
0.66458644
0.66396536
0.66376199
0.66373587
0.66370885
0.66367917
0.66365433
0.6636362
0.66362704
0.66362704
0.66363621
0.66365434
0.66367918
0.66370885
0.66373587
0.66376199
0.66396534
0.66458642
0.669349
0.73421621
0.72729078
0.72609108
0.72578552
0.72574098
0.7256964
0.72565262
0.72561686
0.72559147
0.72557869
0.7255787
0.72559148
0.72561688
0.72565264
0.72569642
0.72574099
0.72578553
0.72609108
0.72729079
0.73421622
0.81251511
0.80339853
0.80129376
0.80087829
0.80078226
0.80071302
0.8006409
0.80058419
0.80054584
0.8005266
0.80052661
0.80054585
0.80058422
0.80064092
0.80071305
0.80078228
0.80087831
0.80129378
0.80339856
0.81251516
0.90430249
0.89338544
0.89008497
0.88952353
0.88938615
0.88930187
0.88917377
0.88907982
0.88902015
0.88899016
0.88899017
0.88902016
0.88907984
0.8891738
0.8893019
0.88938618
0.88952357
0.89008501
0.8933855
0.90430259
1.0082698
0.99670667
0.99218973
0.99138073
0.99132321
0.99127916
0.99104824
0.99088997
0.99079687
0.99074958
0.99074958
0.99079688
0.99088999
0.99104826
0.99127919
0.99132325
0.99138078
0.99218979
0.99670677
1.00827
1.1202826
1.1098322
1.1052366
1.1038791
1.1040663
1.10406
1.1036593
1.1033926
1.1032398
1.1031624
1.1031624
1.1032398
1.1033926
1.1036593
1.10406
1.1040664
1.1038792
1.1052367
1.1098323
1.1202827
1.2303445
1.2243941
1.2221971
1.2193686
1.2200197
1.2198945
1.2192372
1.2187485
1.2193559
1.2191698
1.2191698
1.2193559
1.2187484
1.2192372
1.2198945
1.2200197
1.2193686
1.2221971
1.2243941
1.2303446
1.3105223
1.3186945
1.3218687
1.3208916
1.3220131
1.3215484
1.320583
1.3198662
1.3205567
1.3202409
1.3202409
1.3205567
1.3198662
1.3205829
1.3215483
1.322013
1.3208916
1.3218686
1.3186944
1.3105221
1.4245923
1.4662401
1.4838067
1.488038
1.4894691
1.4880927
1.4845715
1.4830879
1.4834519
1.4899432
1.4899432
1.4834518
1.4830878
1.4845715
1.4880927
1.489469
1.488038
1.4838066
1.46624
1.4245922
1.1652375
1.2958583
1.3513182
1.3837401
1.3891256
1.3860179
1.3796529
1.378501
1.3806837
1.3894736
1.3894736
1.3806837
1.3785009
1.3796528
1.3860179
1.3891256
1.3837401
1.3513182
1.2958583
1.1652378
0.73043622
0.84127062
0.89888067
0.92744744
0.93767408
0.93693356
0.93589908
0.93535768
0.94017685
0.94746063
0.9474606
0.94017683
0.93535761
0.93589905
0.93693354
0.93767404
0.92744741
0.89888062
0.84127064
0.73043654
0
0
0.5151548
0.53938627
0.55132222
0.55473721
0.55497254
0.55444317
0.56567073
0.56967211
0.56967209
0.56567072
0.55444314
0.55497255
0.55473721
0.55132222
0.53938627
0.51515481
0
0
0
0
0
0
0
0
0
0
0
0
0
0
0
0
0
0
0
0
0
0
0
0
0
0
0
0
0
0
0
0
0
0
0
0
0
0
0
0
0
0
0
0
0
0
0
0
0
0
0
0
0
0
0
0
0
0
0
0
0
0
0
0
0
0
0
0
0
0
0
0
0
0
0
0
0
0
0
0
0
0
0
0
0
0
0
0
0
0
0
0
0
0
0
0
0
0
0
0
0
0
0
0
0
0
0
0
0
0
0
0
0
0
0
0
0
0
0
0
0
0
0
0
0
0
0
0
0
0
0
0
0
0
0
0
0
0
0
0
0
0
0
0
0
0
0
0
0
0
0
0
0
0
0
0
0
0
0
0
0
0
0
0
0
0
0
0
0
0
0
0
0
0
0
0
0
0
0
0
0
0
0
0
0
0
0
0
0
0
0
0
0
0
0
0
0
0
0
0
0
0
0
0
0
0
0
0
0
0
0
0
0
0
0
0
0
0
0
0
0
0
0
0
0
0
0
0
0
0
0
0
0
0
0
0
0
0
0
0
0
0
0
0
0
0
0
0
0
0
0
0
0
0
0
0
0
0
0
0
0
0
0
0
0
0
0
0
0
0
0
0
0
0
0
0
0
0
0
0
0
0
0
0
0
0
0
0
0
0
0
0
0
0
0
0
0
0
0
0
0
0
0
0
0
0
0
0
0
0
0
0
0
0
0
0
0
0
0
0
0
0
0
0
0
0
0
0
0
0
0
0
0
0
0
0
0
0
0
0
0
0
0
0
0
0
0
0
0
0
0
0
0
0
0
0
0
0
0
0
0
0
0
0
0
0
0
0
0
0
0
0
0
0
0
0
0
0
0
0
0
0
0
0
0
0
0
0
0
0
0
0
0
0
0
0
0
0
0
0
0
0
0
0
0
0
0
0
0
0
0
0
0
0
0
0
0
0
0
0
0
0
0
0
0
0
0
0
0
0
0
0
0
0
0
0
0
0
0
0
0
0
)
;

boundaryField
{
    Wall
    {
        type            zeroGradient;
    }
    frontAndBack
    {
        type            empty;
    }
    atmosphere
    {
        type            zeroGradient;
    }
}


// ************************************************************************* //
