/*--------------------------------*- C++ -*----------------------------------*\
| =========                 |                                                 |
| \\      /  F ield         | OpenFOAM: The Open Source CFD Toolbox           |
|  \\    /   O peration     | Version:  3.0.1                                 |
|   \\  /    A nd           | Web:      www.OpenFOAM.org                      |
|    \\/     M anipulation  |                                                 |
\*---------------------------------------------------------------------------*/
FoamFile
{
    version     2.0;
    format      ascii;
    class       volScalarField;
    location    "26";
    object      M1;
}
// * * * * * * * * * * * * * * * * * * * * * * * * * * * * * * * * * * * * * //

dimensions      [0 0 0 0 0 0 0];

internalField   nonuniform List<scalar> 
800
(
0.92230742
0.9223138
0.92231465
0.92231466
0.92231461
0.92231457
0.92231456
0.92231455
0.92231455
0.92231455
0.92231455
0.92231455
0.92231455
0.92231456
0.92231457
0.92231461
0.92231466
0.92231465
0.9223138
0.92230743
0.92036915
0.92046756
0.92048659
0.92048916
0.92048836
0.92048741
0.92048687
0.92048665
0.9204866
0.92048659
0.92048659
0.9204866
0.92048665
0.92048687
0.92048741
0.92048836
0.92048916
0.92048659
0.92046756
0.92036914
0.91842553
0.91858011
0.91862428
0.91863115
0.91863067
0.91862938
0.91862858
0.91862828
0.91862822
0.91862824
0.91862824
0.91862822
0.91862828
0.91862858
0.91862938
0.91863067
0.91863114
0.91862428
0.91858011
0.91842552
0.91669783
0.91689295
0.9169588
0.91696874
0.91696836
0.91696672
0.91696571
0.91696534
0.9169653
0.91696534
0.91696534
0.9169653
0.91696534
0.91696571
0.91696672
0.91696836
0.91696873
0.91695879
0.91689295
0.91669782
0.91530266
0.91552151
0.91560444
0.91561988
0.91561906
0.91561684
0.91561552
0.91561504
0.91561498
0.91561502
0.91561502
0.91561498
0.91561504
0.91561552
0.91561684
0.91561906
0.91561988
0.91560444
0.9155215
0.91530265
0.9142365
0.91447234
0.91456846
0.91459176
0.91458987
0.9145867
0.91458488
0.91458417
0.91458401
0.91458403
0.91458403
0.91458401
0.91458417
0.91458488
0.9145867
0.91458987
0.91459176
0.91456846
0.91447234
0.9142365
0.91339408
0.91366146
0.91376336
0.91379508
0.91379147
0.91378693
0.91378434
0.91378322
0.91378288
0.91378283
0.91378283
0.91378288
0.91378322
0.91378434
0.91378693
0.91379147
0.91379508
0.91376336
0.91366146
0.91339407
0.91259364
0.91292462
0.91302839
0.91306752
0.91306146
0.91305506
0.9130514
0.91304968
0.91304905
0.91304888
0.91304888
0.91304905
0.91304968
0.9130514
0.91305505
0.91306145
0.91306752
0.91302839
0.91292462
0.91259364
0.91159186
0.91204067
0.91214568
0.91219061
0.91219042
0.91218149
0.91217649
0.91217403
0.91217302
0.9121727
0.9121727
0.91217302
0.91217403
0.91217648
0.91218149
0.91219042
0.91219061
0.91214568
0.91204067
0.91159186
0.91007295
0.9107379
0.91084535
0.91089474
0.91091109
0.91091175
0.91090527
0.91090203
0.9109006
0.91090011
0.91090011
0.9109006
0.91090203
0.91090527
0.91091175
0.91091109
0.91089474
0.91084535
0.9107379
0.91007295
0.90761748
0.90863618
0.90877265
0.90882616
0.90888076
0.9089058
0.90889789
0.90889398
0.90889202
0.90889138
0.90889138
0.90889202
0.90889397
0.90889789
0.9089058
0.90888076
0.90882616
0.90877265
0.90863618
0.90761747
0.90364932
0.90519029
0.90543363
0.90549051
0.9056193
0.90567558
0.90566675
0.90566263
0.90565933
0.90565863
0.90565863
0.90565933
0.90566262
0.90566674
0.90567558
0.9056193
0.9054905
0.90543362
0.90519029
0.9036493
0.89728293
0.89959152
0.90006922
0.90012433
0.90035568
0.90044346
0.90043528
0.90043199
0.90046548
0.90046429
0.90046429
0.90046548
0.90043199
0.90043527
0.90044345
0.90035568
0.90012432
0.90006921
0.8995915
0.89728291
0.88690915
0.89042838
0.89130977
0.89145974
0.89181664
0.89193856
0.8919361
0.89193772
0.89202786
0.89202528
0.89202527
0.89202785
0.89193771
0.89193609
0.89193855
0.89181663
0.89145973
0.89130975
0.89042836
0.88690912
0.8714685
0.87691335
0.87851946
0.87888738
0.87940721
0.8795719
0.87956347
0.87957137
0.87973653
0.87984605
0.87984604
0.87973653
0.87957136
0.87956346
0.87957188
0.8794072
0.87888736
0.87851943
0.87691332
0.87146846
0.84546222
0.85393234
0.85680971
0.85768028
0.85846748
0.85870137
0.85876692
0.85879281
0.85907577
0.85927966
0.85927966
0.85907576
0.8587928
0.8587669
0.85870135
0.85846745
0.85768025
0.85680968
0.85393231
0.84546219
0.80376031
0.81646937
0.82138774
0.82286171
0.82406076
0.82471006
0.82496462
0.82501627
0.82544392
0.82569286
0.82569286
0.82544392
0.82501625
0.8249646
0.82471004
0.82406074
0.82286167
0.8213877
0.81646934
0.8037603
0.73438854
0.75309968
0.76252654
0.76513889
0.76695884
0.76805196
0.7685307
0.76862408
0.77032701
0.7705621
0.77056209
0.77032701
0.76862407
0.76853069
0.76805194
0.76695881
0.76513885
0.76252651
0.75309967
0.73438862
0.63247815
0.66381317
0.67926582
0.68484533
0.68776516
0.68920616
0.68981134
0.68988666
0.69078278
0.69094054
0.69094054
0.69078279
0.68988666
0.68981135
0.68920616
0.68776515
0.68484531
0.67926582
0.66381322
0.63247841
0.47991692
0.5463602
0.57531627
0.5868605
0.59160152
0.59306129
0.59326134
0.59290424
0.59320726
0.59314902
0.59314902
0.59320728
0.59290425
0.59326137
0.59306131
0.59160152
0.58686049
0.57531627
0.5463603
0.47991745
0.27970866
0.40853433
0.45934642
0.48009354
0.4876032
0.4888218
0.48780256
0.48625168
0.48554827
0.48500062
0.48500062
0.48554828
0.48625169
0.48780258
0.48882182
0.48760317
0.48009351
0.45934642
0.40853445
0.27970933
0.11092203
0.27040684
0.34185549
0.37291523
0.38421175
0.38567579
0.38337127
0.38031841
0.37830343
0.37708434
0.37708433
0.37830343
0.38031839
0.38337125
0.38567577
0.38421168
0.37291515
0.34185546
0.27040695
0.11092249
0.030403771
0.15713233
0.23561771
0.2737447
0.28859474
0.29098179
0.28811854
0.28405576
0.28100766
0.27923679
0.27923677
0.28100763
0.2840557
0.28811848
0.29098172
0.28859462
0.27374457
0.23561764
0.15713241
0.03040395
0.0064549161
0.080833411
0.15045344
0.18960766
0.2063406
0.20986348
0.20731673
0.20312819
0.19972116
0.1977451
0.19774507
0.19972109
0.20312809
0.20731662
0.20986336
0.20634046
0.18960753
0.15045336
0.080833454
0.0064549626
0.001171909
0.037517228
0.089535877
0.12415244
0.14053819
0.14484088
0.14312591
0.13954087
0.13641861
0.134589
0.13458897
0.13641853
0.13954076
0.14312579
0.14484075
0.14053806
0.12415232
0.089535809
0.037517249
0.0011719188
0.00019307424
0.016058809
0.050100316
0.077191035
0.091436493
0.095890473
0.095070103
0.092416453
0.089940026
0.088465591
0.088465558
0.089939949
0.092416343
0.095069993
0.095890365
0.09143639
0.077190953
0.050100277
0.01605882
0.00019307604
2.9863805e-05
0.0064594674
0.026604149
0.045827315
0.057052124
0.061094601
0.060950891
0.059209291
0.057450899
0.056382584
0.056382556
0.057450832
0.059209199
0.060950801
0.06109452
0.057052057
0.045827269
0.026604134
0.0064594751
2.9864112e-05
4.4239268e-06
0.0024749083
0.013514508
0.026123909
0.034283289
0.037590388
0.037832252
0.036805054
0.035661885
0.034949928
0.034949906
0.035661833
0.036804983
0.037832186
0.037590333
0.03428325
0.026123888
0.013514506
0.002474913
4.423978e-06
6.3510357e-07
0.00091135596
0.006608195
0.014367446
0.019917053
0.022406939
0.022796384
0.02225072
0.021559868
0.021116419
0.021116403
0.021559831
0.022250669
0.022796338
0.022406904
0.019917032
0.014367439
0.0066081975
0.00091135851
6.3511199e-07
8.8981105e-08
0.00032440248
0.0031242802
0.0076520848
0.011222378
0.012974218
0.013364483
0.01310698
0.01271504
0.012453976
0.012453964
0.012715014
0.013106944
0.013364452
0.012974196
0.011222367
0.0076520837
0.0031242833
0.0003244037
8.8982446e-08
1.221686e-08
0.00011203856
0.0014327861
0.0039578614
0.0061480959
0.0073128969
0.0076360578
0.0075332572
0.0073233088
0.0071769121
0.0071769045
0.0073232915
0.0075332338
0.0076360379
0.0073128836
0.0061480906
0.0039578623
0.0014327884
0.00011203909
1.2217065e-08
1.6476717e-09
3.763711e-05
0.00063878519
0.0019921396
0.0032810014
0.0040189074
0.004257812
0.0042289146
0.0041224961
0.004043889
0.0040438842
0.004122485
0.0042288997
0.0042577996
0.0040188995
0.0032809989
0.0019921409
0.00063878663
3.7637325e-05
1.6477019e-09
2.1868062e-10
1.2319018e-05
0.00027732084
0.00097728641
0.0017080216
0.002156099
0.0023191975
0.0023204724
0.0022695048
0.0022289569
0.0022289539
0.002269498
0.0023204632
0.0023191899
0.0021560944
0.0017080204
0.00097728743
0.00027732164
1.23191e-05
2.1868682e-10
2.9921997e-11
3.9335751e-06
0.00011738322
0.00046781411
0.00086829759
0.0011302692
0.0012349849
0.0012453458
0.0012224253
0.0012022967
0.0012022949
0.0012224213
0.0012453404
0.0012349805
0.0011302667
0.00086829704
0.00046781481
0.00011738364
3.9336053e-06
2.9925454e-11
7.6494049e-12
1.2264987e-06
4.8490718e-05
0.00021871447
0.00043142212
0.00057939622
0.00064333104
0.00065402116
0.00064448083
0.00063486081
0.0006348598
0.0006444785
0.00065401802
0.00064332853
0.00057939483
0.0004314219
0.00021871489
4.8490929e-05
1.2265096e-06
7.6643735e-12
6.4215118e-12
3.7380419e-07
1.9566036e-05
9.9947398e-05
0.00020965352
0.00029061936
0.0003280148
0.00033626402
0.00033270509
0.000328283
0.00032828243
0.00033270379
0.00033626228
0.00032801342
0.00029061864
0.00020965345
9.9947646e-05
1.9566137e-05
3.7380813e-07
6.4325821e-12
3.1014879e-12
1.1158781e-07
7.7172121e-06
4.4673326e-05
9.9709153e-05
0.00014271494
0.00016377673
0.00016933328
0.00016824181
0.0001662919
0.00016629159
0.00016824111
0.00016933234
0.000163776
0.00014271457
9.9709137e-05
4.4673464e-05
7.717259e-06
1.1158946e-07
3.1059999e-12
1.0098496e-12
3.2639924e-08
2.9776849e-06
1.9542051e-05
4.6434548e-05
6.8648332e-05
8.011441e-05
8.3552321e-05
8.3367844e-05
8.2547229e-05
8.2547065e-05
8.3367475e-05
8.3551827e-05
8.0114032e-05
6.8648154e-05
4.6434551e-05
1.9542124e-05
2.9777064e-06
3.2640547e-08
1.0112257e-12
2.5854311e-13
9.3494395e-09
1.1245824e-06
8.3714921e-06
2.1185665e-05
3.2360255e-05
3.841142e-05
4.0411743e-05
4.0496852e-05
4.0170245e-05
4.017016e-05
4.0496662e-05
4.041149e-05
3.8411229e-05
3.2360171e-05
2.1185671e-05
8.371529e-06
1.1245918e-06
9.3496644e-09
2.5925632e-13
5.4680171e-14
2.6216835e-09
4.1591926e-07
3.5137796e-06
9.4745352e-06
1.4955867e-05
1.805874e-05
1.9167557e-05
1.929178e-05
1.917094e-05
1.9170898e-05
1.9291685e-05
1.916743e-05
1.8058646e-05
1.4955827e-05
9.4745399e-06
3.5137974e-06
4.1592331e-07
2.6217601e-09
5.4876321e-14
)
;

boundaryField
{
    Wall
    {
        type            zeroGradient;
    }
    frontAndBack
    {
        type            empty;
    }
    atmosphere
    {
        type            zeroGradient;
    }
}


// ************************************************************************* //
