/*--------------------------------*- C++ -*----------------------------------*\
| =========                 |                                                 |
| \\      /  F ield         | OpenFOAM: The Open Source CFD Toolbox           |
|  \\    /   O peration     | Version:  3.0.1                                 |
|   \\  /    A nd           | Web:      www.OpenFOAM.org                      |
|    \\/     M anipulation  |                                                 |
\*---------------------------------------------------------------------------*/
FoamFile
{
    version     2.0;
    format      ascii;
    class       volScalarField;
    location    "26";
    object      mOne;
}
// * * * * * * * * * * * * * * * * * * * * * * * * * * * * * * * * * * * * * //

dimensions      [0 0 0 0 0 0 0];

internalField   nonuniform List<scalar> 
800
(
11.871243
11.872299
11.872439
11.872442
11.872433
11.872427
11.872425
11.872424
11.872424
11.872423
11.872423
11.872424
11.872424
11.872425
11.872427
11.872433
11.872442
11.872439
11.872299
11.871243
11.557947
11.573486
11.576495
11.576902
11.576775
11.576625
11.576539
11.576504
11.576496
11.576496
11.576496
11.576496
11.576504
11.576539
11.576625
11.576775
11.576901
11.576495
11.573485
11.557946
11.258737
11.282011
11.288677
11.289715
11.289643
11.289448
11.289327
11.289281
11.289273
11.289275
11.289275
11.289273
11.289281
11.289327
11.289448
11.289643
11.289714
11.288677
11.282011
11.258736
11.004489
11.032674
11.042215
11.043656
11.043602
11.043364
11.043217
11.043164
11.043157
11.043163
11.043163
11.043157
11.043164
11.043217
11.043364
11.043602
11.043656
11.042214
11.032673
11.004488
10.806746
10.837332
10.848965
10.851133
10.851018
10.850706
10.850521
10.850454
10.850444
10.850451
10.850451
10.850444
10.850453
10.850521
10.850706
10.851018
10.851133
10.848964
10.837332
10.806745
10.659973
10.692124
10.705279
10.708472
10.708213
10.707779
10.70753
10.707432
10.70741
10.707413
10.707413
10.70741
10.707431
10.707529
10.707779
10.708213
10.708472
10.705279
10.692124
10.659972
10.546554
10.582313
10.595999
10.600266
10.599781
10.59917
10.598821
10.59867
10.598624
10.598618
10.598618
10.598624
10.59867
10.598821
10.599169
10.59978
10.600266
10.595999
10.582313
10.546554
10.440816
10.484302
10.498005
10.503181
10.502378
10.501531
10.501047
10.50082
10.500737
10.500714
10.500714
10.500736
10.50082
10.501047
10.501531
10.502378
10.503181
10.498005
10.484302
10.440816
10.311176
10.368891
10.382479
10.388303
10.388279
10.387121
10.386472
10.386153
10.386023
10.385981
10.385981
10.386023
10.386153
10.386472
10.387121
10.388279
10.388303
10.382479
10.368891
10.311175
10.120124
10.202963
10.216465
10.222682
10.224742
10.224825
10.224008
10.223601
10.22342
10.223358
10.223358
10.22342
10.2236
10.224008
10.224825
10.224742
10.222682
10.216465
10.202963
10.120124
9.8245582
9.945252
9.9616253
9.9680583
9.9746305
9.9776473
9.9766941
9.9762227
9.9759869
9.9759098
9.9759097
9.9759866
9.9762223
9.9766936
9.9776469
9.9746301
9.968058
9.961625
9.9452517
9.8245576
9.3787535
9.5474434
9.5745834
9.5809479
9.5953869
9.6017087
9.6007155
9.6002526
9.5998829
9.5998034
9.5998033
9.5998825
9.600252
9.6007149
9.6017081
9.5953863
9.5809474
9.5745828
9.5474427
9.3787522
8.7354804
8.9593177
9.006927
9.0124484
9.0356954
9.0445435
9.0437186
9.0433868
9.0467661
9.0466452
9.0466451
9.0467657
9.0433861
9.0437177
9.0445427
9.0356945
9.0124475
9.0069259
8.9593164
8.7354784
7.8424485
8.1264512
8.200459
8.2131715
8.2435657
8.2539948
8.2537842
8.253923
8.2616481
8.2614268
8.2614267
8.2616476
8.2539222
8.2537832
8.2539937
8.2435645
8.2131701
8.2004574
8.1264493
7.8424458
6.7801941
7.1243577
7.2317709
7.2567782
7.29237
7.3037098
7.3031289
7.3036732
7.3150772
7.3226557
7.3226556
7.3150768
7.3036724
7.3031279
7.3037087
7.2923688
7.2567767
7.2317692
7.1243557
6.7801918
5.4709095
5.8461425
5.9837139
6.0264329
6.0655138
6.0772093
6.0804942
6.0817925
6.0960119
6.1062931
6.106293
6.0960115
6.0817918
6.0804934
6.0772083
6.0655127
6.0264316
5.9837124
5.8461408
5.4709082
4.095809
4.4486819
4.5987198
4.6453067
4.6837805
4.704834
4.7131306
4.7148169
4.728818
4.7369997
4.7369996
4.7288178
4.7148165
4.71313
4.7048333
4.6837796
4.6453057
4.5987187
4.4486809
4.0958089
2.7648978
3.0502175
3.2109969
3.2578355
3.2910874
3.3113104
3.3202274
3.3219708
3.3540166
3.3584778
3.3584777
3.3540166
3.3219707
3.3202272
3.3113101
3.2910869
3.257835
3.2109964
3.0502173
2.7648989
1.7209267
1.9745365
2.1178467
2.1730451
2.2027175
2.217567
2.2238445
2.2246275
2.2339725
2.2356233
2.2356233
2.2339726
2.2246275
2.2238446
2.217567
2.2027174
2.173045
2.1178467
1.974537
1.7209286
0.92276972
1.2043921
1.3546935
1.42049
1.448589
1.4573725
1.4585812
1.4564245
1.4582543
1.4579024
1.4579024
1.4582544
1.4564246
1.4585813
1.4573726
1.4485889
1.4204899
1.3546935
1.2043926
0.92277168
0.38832712
0.69071519
0.84961321
0.92342292
0.95161248
0.95626495
0.95237211
0.94647839
0.94381696
0.94174992
0.9417499
0.94381701
0.94647842
0.95237219
0.95626503
0.95161238
0.9234228
0.84961322
0.69071554
0.38832841
0.12476075
0.37062689
0.51942315
0.59468072
0.62393486
0.62780496
0.62172138
0.61373198
0.60850173
0.60535377
0.60535374
0.60850171
0.61373192
0.62172134
0.62780491
0.62393467
0.59468053
0.51942308
0.3706271
0.12476133
0.031357146
0.18642586
0.3082459
0.37692626
0.40566855
0.41040102
0.40472826
0.39675682
0.39083541
0.38741821
0.38741817
0.39083534
0.3967567
0.40472813
0.41040088
0.40566831
0.37692603
0.30824578
0.18642597
0.031357337
0.0064968528
0.087942068
0.17709852
0.23397021
0.25998633
0.26560407
0.26153792
0.25490698
0.24956446
0.24648663
0.24648658
0.24956436
0.25490682
0.26153775
0.26560389
0.25998611
0.23397
0.17709841
0.087942119
0.0064968998
0.001173284
0.038979636
0.098340917
0.1417512
0.16351883
0.16937301
0.1670326
0.16217025
0.15796845
0.15552033
0.15552028
0.15796834
0.16217009
0.16703244
0.16937284
0.16351865
0.14175104
0.098340835
0.038979658
0.0011732938
0.00019311153
0.016320903
0.052742744
0.083647904
0.10063853
0.10606068
0.10505798
0.10182694
0.09882868
0.097051291
0.097051251
0.098828588
0.1018268
0.10505784
0.10606055
0.1006384
0.083647807
0.052742701
0.016320915
0.00019311332
2.9864697e-05
0.0065014634
0.027331274
0.048028324
0.060504006
0.065070028
0.064907032
0.062935667
0.060952685
0.05975153
0.059751498
0.060952611
0.062935563
0.064906931
0.065069936
0.06050393
0.048028274
0.027331258
0.0065014712
2.9865004e-05
4.4239463e-06
0.0024810487
0.013699652
0.026824674
0.035500358
0.039058617
0.039319809
0.038211427
0.036980685
0.036215663
0.03621564
0.03698063
0.038211351
0.039319738
0.039058557
0.035500316
0.026824652
0.01369965
0.0024810534
4.4239976e-06
6.3510397e-07
0.00091218729
0.0066521537
0.014576879
0.020321803
0.022920518
0.023328182
0.022757081
0.022034939
0.021571941
0.021571924
0.022034899
0.022757028
0.023328134
0.022920481
0.020321781
0.014576872
0.0066521563
0.00091218984
6.3511239e-07
8.8981113e-08
0.00032450775
0.0031340719
0.0077110907
0.011349749
0.013144761
0.013545512
0.013281054
0.012878794
0.012611033
0.012611022
0.012878767
0.013281018
0.01354548
0.013144738
0.011349738
0.0077110896
0.003134075
0.00032450897
8.8982454e-08
1.221686e-08
0.00011205112
0.0014348419
0.0039735883
0.0061861288
0.0073667693
0.0076948159
0.0075904379
0.0073773353
0.0072287925
0.0072287848
0.0073773177
0.0075904142
0.0076947956
0.0073667558
0.0061861235
0.0039735892
0.0014348443
0.00011205165
1.2217066e-08
1.6476717e-09
3.7638526e-05
0.0006391935
0.0019961162
0.0032918018
0.0040351242
0.0042760185
0.0042468743
0.0041395614
0.0040603085
0.0040603036
0.0041395502
0.0042468593
0.0042760059
0.0040351162
0.0032917993
0.0019961174
0.00063919494
3.7638741e-05
1.6477019e-09
2.1868062e-10
1.2319169e-05
0.00027739776
0.00097824243
0.0017109439
0.0021607578
0.0023245886
0.0023258695
0.0022746671
0.0022339362
0.0022339333
0.0022746603
0.0023258603
0.0023245811
0.0021607532
0.0017109427
0.00097824346
0.00027739857
1.2319252e-05
2.1868682e-10
2.9921997e-11
3.9335906e-06
0.000117397
0.00046803307
0.00086905218
0.0011315482
0.001236512
0.0012468987
0.0012239215
0.0012037439
0.0012037422
0.0012239174
0.0012468932
0.0012365076
0.0011315456
0.00086905164
0.00046803376
0.00011739743
3.9336208e-06
2.9925454e-11
7.6494049e-12
1.2265003e-06
4.8493069e-05
0.00021876232
0.00043160832
0.00057973211
0.00064374518
0.00065444918
0.00064489645
0.00063526411
0.0006352631
0.00064489412
0.00065444604
0.00064374267
0.00057973072
0.0004316081
0.00021876274
4.849328e-05
1.2265111e-06
7.6643735e-12
6.4215118e-12
3.7380433e-07
1.9566419e-05
9.9957388e-05
0.00020969749
0.00029070385
0.00032812243
0.00033637713
0.00033281582
0.00032839081
0.00032839024
0.00033281452
0.00033637539
0.00032812105
0.00029070312
0.00020969741
9.9957636e-05
1.956652e-05
3.7380827e-07
6.4325821e-12
3.1014879e-12
1.1158782e-07
7.7172716e-06
4.4675322e-05
9.9719096e-05
0.00014273531
0.00016380355
0.00016936196
0.00016827012
0.00016631955
0.00016631924
0.00016826942
0.00016936101
0.00016380282
0.00014273494
9.971908e-05
4.4675459e-05
7.7173185e-06
1.1158947e-07
3.1059999e-12
1.0098496e-12
3.2639925e-08
2.9776938e-06
1.9542433e-05
4.6436705e-05
6.8653045e-05
8.0120829e-05
8.3559303e-05
8.3374795e-05
8.2554044e-05
8.2553879e-05
8.3374425e-05
8.3558809e-05
8.0120451e-05
6.8652867e-05
4.6436708e-05
1.9542506e-05
2.9777153e-06
3.2640548e-08
1.0112257e-12
2.5854311e-13
9.3494396e-09
1.1245836e-06
8.3715622e-06
2.1186114e-05
3.2361302e-05
3.8412895e-05
4.0413376e-05
4.0498492e-05
4.0171859e-05
4.0171774e-05
4.0498302e-05
4.0413123e-05
3.8412705e-05
3.2361218e-05
2.118612e-05
8.3715991e-06
1.1245931e-06
9.3496645e-09
2.5925632e-13
5.4680171e-14
2.6216835e-09
4.1591944e-07
3.5137919e-06
9.474625e-06
1.495609e-05
1.8059066e-05
1.9167925e-05
1.9292153e-05
1.9171307e-05
1.9171265e-05
1.9292057e-05
1.9167797e-05
1.8058972e-05
1.4956051e-05
9.4746297e-06
3.5138097e-06
4.1592348e-07
2.6217601e-09
5.4876321e-14
)
;

boundaryField
{
    Wall
    {
        type            zeroGradient;
    }
    frontAndBack
    {
        type            empty;
    }
    atmosphere
    {
        type            zeroGradient;
    }
}


// ************************************************************************* //
