/*--------------------------------*- C++ -*----------------------------------*\
| =========                 |                                                 |
| \\      /  F ield         | OpenFOAM: The Open Source CFD Toolbox           |
|  \\    /   O peration     | Version:  3.0.1                                 |
|   \\  /    A nd           | Web:      www.OpenFOAM.org                      |
|    \\/     M anipulation  |                                                 |
\*---------------------------------------------------------------------------*/
FoamFile
{
    version     2.0;
    format      ascii;
    class       volScalarField;
    location    "26";
    object      mThree;
}
// * * * * * * * * * * * * * * * * * * * * * * * * * * * * * * * * * * * * * //

dimensions      [0 0 0 0 0 0 0];

internalField   nonuniform List<scalar> 
800
(
1.6498667e-23
1.6503158e-23
1.6503764e-23
1.650378e-23
1.6503749e-23
1.6503727e-23
1.650372e-23
1.6503718e-23
1.6503718e-23
1.6503718e-23
1.6503718e-23
1.6503718e-23
1.6503718e-23
1.650372e-23
1.6503728e-23
1.6503749e-23
1.6503781e-23
1.6503764e-23
1.6503159e-23
1.6498668e-23
1.5237565e-23
1.5298704e-23
1.5310617e-23
1.531223e-23
1.5311727e-23
1.531113e-23
1.5310784e-23
1.5310644e-23
1.5310608e-23
1.5310605e-23
1.5310605e-23
1.5310608e-23
1.5310643e-23
1.5310783e-23
1.531113e-23
1.5311726e-23
1.5312229e-23
1.5310616e-23
1.5298703e-23
1.5237562e-23
1.443805e-23
1.4519414e-23
1.4542296e-23
1.4545626e-23
1.4545324e-23
1.4544687e-23
1.4544337e-23
1.454424e-23
1.4544256e-23
1.4544286e-23
1.4544287e-23
1.4544256e-23
1.454424e-23
1.4544337e-23
1.4544686e-23
1.4545323e-23
1.4545625e-23
1.4542295e-23
1.4519412e-23
1.4438047e-23
1.4104458e-23
1.4190151e-23
1.4220164e-23
1.4224286e-23
1.4224072e-23
1.4223492e-23
1.422325e-23
1.4223272e-23
1.4223384e-23
1.4223467e-23
1.4223467e-23
1.4223384e-23
1.4223272e-23
1.422325e-23
1.4223492e-23
1.4224071e-23
1.4224285e-23
1.4220164e-23
1.419015e-23
1.4104456e-23
1.4221807e-23
1.4298196e-23
1.4332461e-23
1.4338815e-23
1.4338483e-23
1.4337926e-23
1.4337807e-23
1.4337971e-23
1.4338194e-23
1.4338339e-23
1.4338339e-23
1.4338194e-23
1.4337971e-23
1.4337807e-23
1.4337926e-23
1.4338483e-23
1.4338816e-23
1.4332461e-23
1.4298197e-23
1.4221806e-23
1.4754234e-23
1.4813668e-23
1.4850368e-23
1.4860626e-23
1.4859949e-23
1.4859302e-23
1.4859265e-23
1.4859552e-23
1.4859881e-23
1.4860085e-23
1.4860085e-23
1.4859881e-23
1.4859553e-23
1.4859266e-23
1.4859303e-23
1.485995e-23
1.4860628e-23
1.485037e-23
1.481367e-23
1.4754234e-23
1.5643026e-23
1.5687544e-23
1.5722241e-23
1.5737246e-23
1.573596e-23
1.5735037e-23
1.5734971e-23
1.5735313e-23
1.5735711e-23
1.5735957e-23
1.5735957e-23
1.5735712e-23
1.5735313e-23
1.5734972e-23
1.5735039e-23
1.5735962e-23
1.5737248e-23
1.5722243e-23
1.5687546e-23
1.5643028e-23
1.6804157e-23
1.6844318e-23
1.6872972e-23
1.6892538e-23
1.6890283e-23
1.6888792e-23
1.6888494e-23
1.6888759e-23
1.6889158e-23
1.6889413e-23
1.6889413e-23
1.6889158e-23
1.6888759e-23
1.6888495e-23
1.6888794e-23
1.6890285e-23
1.6892541e-23
1.6872975e-23
1.684432e-23
1.6804159e-23
1.8113394e-23
1.8174183e-23
1.8192406e-23
1.8215445e-23
1.8218208e-23
1.821566e-23
1.8214798e-23
1.8214786e-23
1.8215082e-23
1.82153e-23
1.82153e-23
1.8215083e-23
1.8214787e-23
1.8214799e-23
1.8215661e-23
1.821821e-23
1.8215448e-23
1.8192408e-23
1.8174185e-23
1.8113395e-23
1.938437e-23
1.9521954e-23
1.9523965e-23
1.9548748e-23
1.9564627e-23
1.9569816e-23
1.9567925e-23
1.9567382e-23
1.9567448e-23
1.956757e-23
1.9567571e-23
1.9567448e-23
1.9567382e-23
1.9567926e-23
1.9569817e-23
1.9564628e-23
1.954875e-23
1.9523967e-23
1.9521956e-23
1.9384371e-23
2.0357978e-23
2.065031e-23
2.0646472e-23
2.0670815e-23
2.0715795e-23
2.0739225e-23
2.0735767e-23
2.0734405e-23
2.0734077e-23
2.0734039e-23
2.0734039e-23
2.0734077e-23
2.0734404e-23
2.0735767e-23
2.0739226e-23
2.0715795e-23
2.0670816e-23
2.0646473e-23
2.0650311e-23
2.0357978e-23
2.071622e-23
2.1234889e-23
2.1269443e-23
2.1289472e-23
2.1385089e-23
2.1429424e-23
2.1424069e-23
2.1421698e-23
2.1420526e-23
2.1420271e-23
2.142027e-23
2.1420526e-23
2.1421697e-23
2.1424068e-23
2.1429423e-23
2.1385088e-23
2.1289471e-23
2.1269443e-23
2.1234888e-23
2.0716218e-23
2.0106511e-23
2.0904511e-23
2.1039578e-23
2.1045371e-23
2.1195803e-23
2.1255335e-23
2.1248407e-23
2.1244899e-23
2.1268171e-23
2.12672e-23
2.1267199e-23
2.126817e-23
2.1244897e-23
2.1248405e-23
2.1255333e-23
2.11958e-23
2.1045369e-23
2.1039576e-23
2.0904508e-23
2.0106505e-23
1.8155086e-23
1.926168e-23
1.9533069e-23
1.9571053e-23
1.9759747e-23
1.9826006e-23
1.9819606e-23
1.9816453e-23
1.986401e-23
1.9862121e-23
1.9862121e-23
1.9864009e-23
1.9816451e-23
1.9819603e-23
1.9826003e-23
1.9759743e-23
1.9571049e-23
1.9533065e-23
1.9261673e-23
1.8155077e-23
1.4726974e-23
1.6057986e-23
1.6447666e-23
1.6522332e-23
1.6721384e-23
1.6787458e-23
1.6779577e-23
1.6779234e-23
1.6844329e-23
1.6887032e-23
1.6887032e-23
1.6844328e-23
1.6779232e-23
1.6779574e-23
1.6787454e-23
1.6721379e-23
1.6522327e-23
1.644766e-23
1.6057979e-23
1.4726965e-23
1.0401464e-23
1.1683895e-23
1.2115038e-23
1.2236716e-23
1.241766e-23
1.24752e-23
1.2479974e-23
1.2484195e-23
1.2554721e-23
1.2606788e-23
1.2606788e-23
1.255472e-23
1.2484194e-23
1.2479972e-23
1.2475196e-23
1.2417656e-23
1.2236712e-23
1.2115033e-23
1.1683888e-23
1.0401458e-23
6.5030254e-24
7.4641522e-24
7.8233851e-24
7.9172946e-24
8.0550327e-24
8.1261793e-24
8.1474094e-24
8.153504e-24
8.2116997e-24
8.2473216e-24
8.2473215e-24
8.2116992e-24
8.1535029e-24
8.1474078e-24
8.1261771e-24
8.0550297e-24
7.917291e-24
7.8233813e-24
7.4641481e-24
6.5030228e-24
3.4891837e-24
4.0487239e-24
4.3402389e-24
4.4015105e-24
4.4874946e-24
4.5418006e-24
4.56227e-24
4.5678714e-24
4.6622428e-24
4.6790535e-24
4.6790535e-24
4.6622427e-24
4.5678711e-24
4.5622693e-24
4.5417996e-24
4.4874931e-24
4.4015087e-24
4.3402372e-24
4.0487224e-24
3.489184e-24
1.7491878e-24
2.0788957e-24
2.2370015e-24
2.282093e-24
2.3314796e-24
2.3640019e-24
2.378633e-24
2.3830015e-24
2.4105835e-24
2.4170386e-24
2.4170387e-24
2.4105836e-24
2.3830016e-24
2.378633e-24
2.3640017e-24
2.3314791e-24
2.2820925e-24
2.2370011e-24
2.0788957e-24
1.7491893e-24
7.6902457e-25
1.0163153e-24
1.1258622e-24
1.1599835e-24
1.1845977e-24
1.1990866e-24
1.2059246e-24
1.2074547e-24
1.216849e-24
1.21893e-24
1.2189301e-24
1.2168491e-24
1.2074549e-24
1.2059248e-24
1.1990868e-24
1.1845976e-24
1.1599834e-24
1.1258622e-24
1.0163155e-24
7.6902609e-25
2.6869652e-25
4.7098227e-25
5.6070475e-25
5.9068746e-25
6.0323058e-25
6.0709825e-25
6.0741593e-25
6.0585584e-25
6.0820548e-25
6.0821517e-25
6.0821519e-25
6.0820559e-25
6.0585597e-25
6.074161e-25
6.070984e-25
6.0323056e-25
5.9068741e-25
5.6070476e-25
4.7098246e-25
2.6869741e-25
7.245419e-26
2.0375529e-25
2.7303033e-25
2.998547e-25
3.0864175e-25
3.0907586e-25
3.0684998e-25
3.0401827e-25
3.0350867e-25
3.026949e-25
3.0269491e-25
3.0350873e-25
3.0401833e-25
3.0685004e-25
3.0907591e-25
3.0864168e-25
2.9985461e-25
2.730303e-25
2.0375541e-25
7.2454543e-26
1.5395644e-26
8.2140971e-26
1.288827e-25
1.5029474e-25
1.5752471e-25
1.5767204e-25
1.5542068e-25
1.5281044e-25
1.5153924e-25
1.5062049e-25
1.5062049e-25
1.5153925e-25
1.5281044e-25
1.5542067e-25
1.5767202e-25
1.5752462e-25
1.5029465e-25
1.2888265e-25
8.2141029e-26
1.5395745e-26
2.7058188e-27
3.091071e-26
5.8761048e-26
7.3884982e-26
7.9615577e-26
8.0121168e-26
7.862965e-26
7.6781175e-26
7.5634348e-26
7.4908273e-26
7.490827e-26
7.5634343e-26
7.6781155e-26
7.8629621e-26
8.0121125e-26
7.96155e-26
7.3884905e-26
5.8761006e-26
3.0910735e-26
2.7058402e-27
4.146659e-28
1.0908894e-26
2.5851716e-26
3.5488072e-26
3.9634716e-26
4.0332951e-26
3.9551744e-26
3.8431706e-26
3.7638188e-26
3.7155244e-26
3.715524e-26
3.7638178e-26
3.8431683e-26
3.9551715e-26
4.0332912e-26
3.9634663e-26
3.5488021e-26
2.5851691e-26
1.0908903e-26
4.1466972e-28
5.7825409e-29
3.6373798e-27
1.0982997e-26
1.6624235e-26
1.9369129e-26
2.0030685e-26
1.9700307e-26
1.9093143e-26
1.8616255e-26
1.8328337e-26
1.8328334e-26
1.8616246e-26
1.9093125e-26
1.9700285e-26
2.0030658e-26
1.9369097e-26
1.6624208e-26
1.0982985e-26
3.6373831e-27
5.7826007e-29
7.5552184e-30
1.1553167e-27
4.5135688e-27
7.5909473e-27
9.2736713e-27
9.7862116e-27
9.685112e-27
9.384584e-27
9.1239053e-27
8.9653492e-27
8.9653469e-27
9.1238986e-27
9.3845726e-27
9.6850984e-27
9.7861961e-27
9.2736551e-27
7.5909348e-27
4.5135642e-27
1.1553182e-27
7.5553045e-30
9.4201445e-31
3.5212319e-28
1.7978921e-27
3.3790811e-27
4.3455993e-27
4.6946038e-27
4.6882453e-27
4.5514412e-27
4.4189493e-27
4.3369253e-27
4.3369237e-27
4.418945e-27
4.5514344e-27
4.6882376e-27
4.6945955e-27
4.3455916e-27
3.3790759e-27
1.7978908e-27
3.5212384e-28
9.4202645e-31
1.1333391e-31
1.0357398e-28
6.9549251e-28
1.4670084e-27
1.9919991e-27
2.2086308e-27
2.2306258e-27
2.1735549e-27
2.1102103e-27
2.0699413e-27
2.0699404e-27
2.1102078e-27
2.1735511e-27
2.2306216e-27
2.2086266e-27
1.9919956e-27
1.4670064e-27
6.954923e-28
1.0357425e-28
1.1333555e-31
1.3243577e-32
2.9523272e-29
2.6171209e-28
6.2146723e-28
8.930723e-28
1.0182493e-27
1.041858e-27
1.0204328e-27
9.9177227e-28
9.7288927e-28
9.7288874e-28
9.9177085e-28
1.0204307e-27
1.0418558e-27
1.0182472e-27
8.9307081e-28
6.2146654e-28
2.6171215e-28
2.9523374e-29
1.3243794e-32
1.5089643e-33
8.1786248e-30
9.5923932e-29
2.5701984e-28
3.9158629e-28
4.5981573e-28
4.7727817e-28
4.7040238e-28
4.5810182e-28
4.4960959e-28
4.496093e-28
4.5810106e-28
4.7040127e-28
4.7727702e-28
4.5981474e-28
3.9158566e-28
2.5701962e-28
9.5924005e-29
8.1786605e-30
1.508992e-33
1.6802865e-34
2.2061949e-30
3.4279622e-29
1.0381541e-28
1.6793102e-28
2.0332244e-28
2.1431351e-28
2.1273778e-28
2.077345e-28
2.0406254e-28
2.0406238e-28
2.077341e-28
2.1273721e-28
2.1431294e-28
2.0332198e-28
1.6793075e-28
1.0381535e-28
3.4279668e-29
2.2062064e-30
1.6803204e-34
1.8312031e-35
5.8027047e-31
1.1953011e-29
4.0969298e-29
7.0442117e-29
8.8020831e-29
9.4289443e-29
9.4327482e-29
9.2407559e-29
9.08792e-29
9.0879125e-29
9.2407361e-29
9.4327201e-29
9.4289168e-29
8.8020612e-29
7.0442007e-29
4.0969287e-29
1.1953033e-29
5.8027402e-31
1.8312456e-35
1.9713674e-36
1.4894961e-31
4.0691082e-30
1.5801103e-29
2.8905199e-29
3.7303404e-29
4.0634713e-29
4.098874e-29
4.030086e-29
3.9688456e-29
3.9688419e-29
4.0300765e-29
4.0988605e-29
4.0634584e-29
3.7303306e-29
2.8905156e-29
1.5801103e-29
4.069118e-30
1.4895065e-31
1.9714534e-36
2.5880684e-37
3.7338745e-32
1.353e-30
5.9574804e-30
1.1604113e-29
1.5476261e-29
1.7150856e-29
1.745036e-29
1.7225213e-29
1.6989245e-29
1.6989228e-29
1.7225169e-29
1.7450298e-29
1.7150797e-29
1.5476218e-29
1.1604097e-29
5.9574825e-30
1.3530041e-30
3.7339042e-32
2.5905026e-37
1.186559e-37
9.1464585e-33
4.3957746e-31
2.196286e-30
4.5582373e-30
6.285668e-30
7.0892489e-30
7.277636e-30
7.2136819e-30
7.1264769e-30
7.1264692e-30
7.2136621e-30
7.2776085e-30
7.0892234e-30
6.2856504e-30
4.5582316e-30
2.1962877e-30
4.3957909e-31
9.1465436e-33
1.1884291e-37
4.5459983e-38
2.1925423e-33
1.3959031e-31
7.9189262e-31
1.7522434e-30
2.4993994e-30
2.8697317e-30
2.9730024e-30
2.9596442e-30
2.9288797e-30
2.9288763e-30
2.9596356e-30
2.9729906e-30
2.8697211e-30
2.4993924e-30
1.7522415e-30
7.9189362e-31
1.3959094e-31
2.1925703e-33
4.552901e-38
1.2059772e-38
5.1450367e-34
4.3345111e-32
2.7931304e-31
6.5928738e-31
9.7311636e-31
1.1377142e-30
1.1896617e-30
1.1895936e-30
1.1793187e-30
1.1793172e-30
1.18959e-30
1.1896568e-30
1.1377099e-30
9.7311372e-31
6.5928691e-31
2.7931356e-31
4.3345351e-32
5.1451222e-34
1.2076926e-38
2.5201348e-39
1.1813871e-34
1.3164373e-32
9.6401136e-32
2.4283634e-31
3.7102025e-31
4.41793e-31
4.663412e-31
4.6843634e-31
4.6523612e-31
4.6523551e-31
4.6843488e-31
4.6633925e-31
4.4179132e-31
3.7101929e-31
2.4283625e-31
9.640138e-32
1.3164461e-32
1.1814126e-34
2.5274167e-39
4.3517362e-40
2.6536357e-35
3.9114402e-33
3.2564421e-32
8.7579687e-32
1.3854908e-31
1.6805694e-31
1.7909535e-31
1.8073181e-31
1.7983031e-31
1.7983007e-31
1.8073123e-31
1.7909459e-31
1.680563e-31
1.3854875e-31
8.7579691e-32
3.2564527e-32
3.9114714e-33
2.6537067e-35
4.3678463e-40
)
;

boundaryField
{
    Wall
    {
        type            zeroGradient;
    }
    frontAndBack
    {
        type            empty;
    }
    atmosphere
    {
        type            zeroGradient;
    }
}


// ************************************************************************* //
