/*--------------------------------*- C++ -*----------------------------------*\
| =========                 |                                                 |
| \\      /  F ield         | OpenFOAM: The Open Source CFD Toolbox           |
|  \\    /   O peration     | Version:  3.0.1                                 |
|   \\  /    A nd           | Web:      www.OpenFOAM.org                      |
|    \\/     M anipulation  |                                                 |
\*---------------------------------------------------------------------------*/
FoamFile
{
    version     2.0;
    format      ascii;
    class       volScalarField;
    location    "26";
    object      mTwo;
}
// * * * * * * * * * * * * * * * * * * * * * * * * * * * * * * * * * * * * * //

dimensions      [0 0 0 0 0 0 0];

internalField   nonuniform List<scalar> 
800
(
1.4077562e-11
1.4080065e-11
1.4080398e-11
1.4080404e-11
1.4080384e-11
1.408037e-11
1.4080363e-11
1.4080361e-11
1.408036e-11
1.408036e-11
1.408036e-11
1.408036e-11
1.4080361e-11
1.4080364e-11
1.408037e-11
1.4080384e-11
1.4080404e-11
1.4080399e-11
1.4080065e-11
1.4077562e-11
1.3349742e-11
1.338523e-11
1.3392131e-11
1.3393062e-11
1.3392766e-11
1.3392417e-11
1.3392214e-11
1.3392132e-11
1.339211e-11
1.3392108e-11
1.3392109e-11
1.339211e-11
1.3392132e-11
1.3392214e-11
1.3392417e-11
1.3392766e-11
1.3393062e-11
1.339213e-11
1.338523e-11
1.334974e-11
1.2824025e-11
1.2873124e-11
1.2886954e-11
1.2889009e-11
1.2888832e-11
1.2888437e-11
1.2888211e-11
1.288814e-11
1.2888141e-11
1.2888155e-11
1.2888155e-11
1.2888141e-11
1.288814e-11
1.2888211e-11
1.2888437e-11
1.2888832e-11
1.2889009e-11
1.2886954e-11
1.2873123e-11
1.2824023e-11
1.2527398e-11
1.258129e-11
1.2599881e-11
1.2602515e-11
1.2602387e-11
1.2601993e-11
1.2601799e-11
1.2601777e-11
1.260182e-11
1.260186e-11
1.260186e-11
1.260182e-11
1.2601776e-11
1.2601799e-11
1.2601993e-11
1.2602387e-11
1.2602515e-11
1.2599881e-11
1.2581289e-11
1.2527397e-11
1.2460056e-11
1.2511118e-11
1.2532674e-11
1.2536671e-11
1.2536459e-11
1.2536033e-11
1.2535872e-11
1.2535902e-11
1.2535992e-11
1.2536058e-11
1.2536058e-11
1.2535992e-11
1.2535902e-11
1.2535872e-11
1.2536033e-11
1.2536458e-11
1.2536671e-11
1.2532674e-11
1.2511118e-11
1.2460055e-11
1.25974e-11
1.264183e-11
1.2665136e-11
1.2671319e-11
1.2670877e-11
1.2670343e-11
1.2670177e-11
1.2670239e-11
1.2670365e-11
1.2670452e-11
1.2670452e-11
1.2670365e-11
1.2670239e-11
1.2670177e-11
1.2670343e-11
1.2670877e-11
1.2671319e-11
1.2665137e-11
1.264183e-11
1.25974e-11
1.2895144e-11
1.2935308e-11
1.2957903e-11
1.2966566e-11
1.296574e-11
1.2964987e-11
1.2964745e-11
1.2964792e-11
1.2964927e-11
1.2965023e-11
1.2965023e-11
1.2964927e-11
1.2964792e-11
1.2964745e-11
1.2964987e-11
1.2965741e-11
1.2966566e-11
1.2957904e-11
1.2935309e-11
1.2895144e-11
1.3293263e-11
1.3336451e-11
1.3356493e-11
1.3367375e-11
1.3365977e-11
1.3364853e-11
1.3364429e-11
1.336439e-11
1.3364495e-11
1.3364581e-11
1.3364581e-11
1.3364495e-11
1.336439e-11
1.336443e-11
1.3364854e-11
1.3365977e-11
1.3367376e-11
1.3356494e-11
1.3336452e-11
1.3293264e-11
1.371462e-11
1.3775047e-11
1.3791019e-11
1.3803479e-11
1.3804432e-11
1.3802711e-11
1.3801961e-11
1.3801749e-11
1.3801776e-11
1.3801831e-11
1.3801831e-11
1.3801776e-11
1.3801749e-11
1.3801962e-11
1.3802712e-11
1.3804433e-11
1.380348e-11
1.379102e-11
1.3775048e-11
1.3714621e-11
1.405961e-11
1.4165223e-11
1.4175447e-11
1.4188666e-11
1.4195658e-11
1.4197519e-11
1.4196282e-11
1.419581e-11
1.4195712e-11
1.4195714e-11
1.4195714e-11
1.4195712e-11
1.4195809e-11
1.4196282e-11
1.419752e-11
1.4195659e-11
1.4188666e-11
1.4175448e-11
1.4165224e-11
1.4059611e-11
1.420454e-11
1.4391229e-11
1.4401872e-11
1.441499e-11
1.4435076e-11
1.4445238e-11
1.4443366e-11
1.4442562e-11
1.4442282e-11
1.4442215e-11
1.4442215e-11
1.4442282e-11
1.4442561e-11
1.4443365e-11
1.4445237e-11
1.4435075e-11
1.441499e-11
1.4401872e-11
1.4391229e-11
1.4204539e-11
1.4009421e-11
1.4308201e-11
1.4340283e-11
1.4351847e-11
1.4394479e-11
1.4413944e-11
1.4411427e-11
1.4410298e-11
1.4409637e-11
1.4409494e-11
1.4409493e-11
1.4409636e-11
1.4410297e-11
1.4411426e-11
1.4413943e-11
1.4394478e-11
1.4351847e-11
1.4340283e-11
1.43082e-11
1.4009419e-11
1.3325201e-11
1.3758806e-11
1.3840123e-11
1.3846384e-11
1.3913508e-11
1.393973e-11
1.3936867e-11
1.3935487e-11
1.3945756e-11
1.3945351e-11
1.3945351e-11
1.3945755e-11
1.3935486e-11
1.3936866e-11
1.3939728e-11
1.3913506e-11
1.3846382e-11
1.3840122e-11
1.3758804e-11
1.3325198e-11
1.1991424e-11
1.2574622e-11
1.2721374e-11
1.2743887e-11
1.2829027e-11
1.2858622e-11
1.2856468e-11
1.2855612e-11
1.2877331e-11
1.2876561e-11
1.2876561e-11
1.287733e-11
1.285561e-11
1.2856466e-11
1.285862e-11
1.2829025e-11
1.2743885e-11
1.2721372e-11
1.2574619e-11
1.1991419e-11
9.9622056e-12
1.0666574e-11
1.0875586e-11
1.0918164e-11
1.1011026e-11
1.104159e-11
1.1038937e-11
1.1039536e-11
1.1070347e-11
1.1090164e-11
1.1090164e-11
1.1070346e-11
1.1039535e-11
1.1038935e-11
1.1041588e-11
1.1011023e-11
1.0918161e-11
1.0875583e-11
1.0666569e-11
9.9622007e-12
7.4550366e-12
8.16894e-12
8.412707e-12
8.4827521e-12
8.5729671e-12
8.6014389e-12
8.6063922e-12
8.6092778e-12
8.6447354e-12
8.6700568e-12
8.6700566e-12
8.6447349e-12
8.6092767e-12
8.6063907e-12
8.6014371e-12
8.5729647e-12
8.4827493e-12
8.4127039e-12
8.1689365e-12
7.4550333e-12
5.0525728e-12
5.6382379e-12
5.8636802e-12
5.9251265e-12
6.0005146e-12
6.0411745e-12
6.055667e-12
6.0596443e-12
6.0912756e-12
6.1097632e-12
6.1097631e-12
6.0912753e-12
6.0596436e-12
6.0556661e-12
6.0411732e-12
6.0005129e-12
5.9251243e-12
5.863678e-12
5.6382356e-12
5.0525716e-12
3.0177496e-12
3.407112e-12
3.6121665e-12
3.6604556e-12
3.7137621e-12
3.7479087e-12
3.7624121e-12
3.7663166e-12
3.8233156e-12
3.8326755e-12
3.8326755e-12
3.8233156e-12
3.7663164e-12
3.7624117e-12
3.7479081e-12
3.7137612e-12
3.6604544e-12
3.6121654e-12
3.4071113e-12
3.0177502e-12
1.6789201e-12
1.9525722e-12
2.0907972e-12
2.135294e-12
2.1711501e-12
2.193298e-12
2.2038096e-12
2.2067748e-12
2.2243275e-12
2.2281217e-12
2.2281217e-12
2.2243276e-12
2.2067749e-12
2.2038097e-12
2.1932979e-12
2.1711498e-12
2.1352937e-12
2.0907969e-12
1.9525724e-12
1.6789217e-12
8.1477359e-13
1.0640604e-12
1.1824138e-12
1.2254277e-12
1.2482084e-12
1.2587463e-12
1.2630094e-12
1.263277e-12
1.2691703e-12
1.2701732e-12
1.2701733e-12
1.2691704e-12
1.2632771e-12
1.2630096e-12
1.2587464e-12
1.2482084e-12
1.2254276e-12
1.1824137e-12
1.0640607e-12
8.1477526e-13
3.1315331e-13
5.4890758e-13
6.6101967e-13
7.0487231e-13
7.2112849e-13
7.2420984e-13
7.2275571e-13
7.1978859e-13
7.203024e-13
7.195996e-13
7.1959961e-13
7.203025e-13
7.1978869e-13
7.2275583e-13
7.2420995e-13
7.2112842e-13
7.0487221e-13
6.6101966e-13
5.4890781e-13
3.1315434e-13
9.2631183e-14
2.652741e-13
3.6180779e-13
4.0434121e-13
4.1891573e-13
4.1975177e-13
4.1596316e-13
4.1143535e-13
4.0937591e-13
4.0782404e-13
4.0782404e-13
4.0937594e-13
4.1143536e-13
4.1596318e-13
4.1975178e-13
4.189156e-13
4.0434107e-13
3.6180773e-13
2.6527425e-13
9.2631621e-14
2.1573302e-14
1.2015868e-13
1.9267149e-13
2.2940647e-13
2.4295327e-13
2.4402327e-13
2.404102e-13
2.3603532e-13
2.3328831e-13
2.3159291e-13
2.3159291e-13
2.332883e-13
2.3603528e-13
2.4041015e-13
2.440232e-13
2.4295311e-13
2.2940631e-13
1.926714e-13
1.2015875e-13
2.1573436e-14
4.1608888e-15
5.1101893e-14
9.9539016e-14
1.2797869e-13
1.3969833e-13
1.4141088e-13
1.3890854e-13
1.3551616e-13
1.3307138e-13
1.3162869e-13
1.3162868e-13
1.3307135e-13
1.355161e-13
1.3890846e-13
1.4141079e-13
1.3969819e-13
1.2797855e-13
9.9538938e-14
5.1101924e-14
4.1609198e-15
7.0178015e-16
2.0480416e-14
4.9836206e-14
6.995102e-14
7.923916e-14
8.1244156e-14
7.985014e-14
7.756115e-14
7.5746631e-14
7.4682665e-14
7.468265e-14
7.5746596e-14
7.7561089e-14
7.9850066e-14
8.1244068e-14
7.9239055e-14
6.9950924e-14
4.9836155e-14
2.0480427e-14
7.0178619e-16
1.0813231e-16
7.7852582e-15
2.4184327e-14
3.7387838e-14
4.4191735e-14
4.6090045e-14
4.5477251e-14
4.4083699e-14
4.2880401e-14
4.2168467e-14
4.2168455e-14
4.288037e-14
4.4083649e-14
4.5477194e-14
4.6089982e-14
4.4191668e-14
3.7387783e-14
2.41843e-14
7.7852632e-15
1.0813335e-16
1.5684288e-17
2.8284306e-15
1.1386488e-14
1.9524071e-14
2.4184113e-14
2.5746686e-14
2.5579813e-14
2.4801439e-14
2.4065966e-14
2.3623083e-14
2.3623074e-14
2.4065942e-14
2.4801403e-14
2.5579773e-14
2.5746645e-14
2.4184074e-14
1.9524042e-14
1.1386478e-14
2.8284335e-15
1.5684454e-17
2.1825116e-18
9.8897153e-16
5.2087725e-15
9.9593133e-15
1.2972498e-14
1.4136574e-14
1.4176659e-14
1.3775759e-14
1.3354604e-14
1.309474e-14
1.3094734e-14
1.3354587e-14
1.3775735e-14
1.4176634e-14
1.4136549e-14
1.2972478e-14
9.9593005e-15
5.2087698e-15
9.8897318e-16
2.1825375e-18
2.9474109e-19
3.3465188e-16
2.3187008e-15
4.9635351e-15
6.8168677e-15
7.6204595e-15
7.7288512e-15
7.5394531e-15
7.3114391e-15
7.1663055e-15
7.1663012e-15
7.3114284e-15
7.5394377e-15
7.7288357e-15
7.6204456e-15
6.8168577e-15
4.96353e-15
2.3187007e-15
3.3465272e-16
2.9474508e-19
3.8897014e-20
1.100367e-16
1.0058931e-15
2.4178349e-15
3.5085914e-15
4.030346e-15
4.1403985e-15
4.0599971e-15
3.9427082e-15
3.8650914e-15
3.8650887e-15
3.9427014e-15
4.0599875e-15
4.1403892e-15
4.0303383e-15
3.5085866e-15
2.4178332e-15
1.0058936e-15
1.1003707e-16
3.8897611e-20
5.0368667e-21
3.5257739e-17
4.2580249e-16
1.1517138e-15
1.7688103e-15
2.0906276e-15
2.1779518e-15
2.1489934e-15
2.0915604e-15
2.0516549e-15
2.0516532e-15
2.0915562e-15
2.1489876e-15
2.1779463e-15
2.0906234e-15
1.768808e-15
1.1517134e-15
4.2580297e-16
3.5257892e-17
5.036953e-21
6.4152434e-22
1.1030541e-17
1.7606541e-16
5.3673782e-16
8.7357509e-16
1.0634739e-15
1.1244794e-15
1.1173164e-15
1.0905657e-15
1.070791e-15
1.07079e-15
1.0905632e-15
1.1173131e-15
1.1244763e-15
1.0634717e-15
8.7357407e-16
5.3673783e-16
1.7606572e-16
1.1030599e-17
6.4153636e-22
8.0491708e-23
3.3740619e-18
7.1175085e-17
2.4484525e-16
4.2275798e-16
5.305157e-16
5.6971963e-16
5.7038779e-16
5.5858364e-16
5.4912513e-16
5.4912456e-16
5.5858224e-16
5.7038588e-16
5.6971792e-16
5.3051452e-16
4.2275753e-16
2.4484535e-16
7.1175254e-17
3.374083e-18
8.0493706e-23
1.0213557e-23
1.0100378e-18
2.8150316e-17
1.0937913e-16
2.0052833e-16
2.595603e-16
2.8323848e-16
2.8584072e-16
2.8095036e-16
2.7658136e-16
2.7658104e-16
2.8094959e-16
2.8583967e-16
2.8323755e-16
2.5955969e-16
2.0052814e-16
1.0937922e-16
2.8150401e-17
1.0100451e-18
1.0214347e-23
1.9980954e-24
2.9611224e-19
1.0899439e-17
4.787188e-17
9.3256965e-17
1.2457254e-16
1.3818046e-16
1.4060759e-16
1.3874062e-16
1.3679275e-16
1.3679258e-16
1.387402e-16
1.4060703e-16
1.3817997e-16
1.2457224e-16
9.3256893e-17
4.7871941e-17
1.089948e-17
2.961147e-19
2.0011924e-24
1.3680465e-24
8.5077917e-20
4.1335087e-18
2.053569e-17
4.253462e-17
5.8660339e-17
6.6160617e-17
6.7895715e-17
6.7266145e-17
6.6429386e-17
6.6429296e-17
6.7265929e-17
6.7895425e-17
6.6160373e-17
5.8660196e-17
4.2534597e-17
2.0535728e-17
4.1335275e-18
8.5078757e-20
1.3703505e-24
6.2150653e-25
2.3996548e-20
1.5361512e-18
8.6375557e-18
1.9032512e-17
2.7108886e-17
3.109494e-17
3.218675e-17
3.2021213e-17
3.167605e-17
3.1676003e-17
3.2021104e-17
3.2186605e-17
3.1094821e-17
2.7108821e-17
1.9032508e-17
8.637577e-18
1.5361596e-18
2.3996879e-20
6.2242235e-25
1.9272459e-25
6.6459925e-21
5.5974877e-19
3.5635698e-18
8.3575419e-18
1.2298117e-17
1.4348687e-17
1.4982685e-17
1.4968838e-17
1.483294e-17
1.4832917e-17
1.4968784e-17
1.4982614e-17
1.434863e-17
1.2298088e-17
8.3575427e-18
3.5635811e-18
5.5975249e-19
6.6461113e-21
1.9299066e-25
4.7136368e-26
1.8062869e-21
2.0005342e-19
1.4426779e-18
3.6026715e-18
5.4782947e-18
6.5023901e-18
6.8497304e-18
6.8727468e-18
6.8222211e-18
6.8222098e-18
6.8727209e-18
6.8496964e-18
6.5023637e-18
5.4782826e-18
3.6026732e-18
1.4426836e-18
2.0005499e-19
1.8063279e-21
4.726793e-26
9.5447725e-27
4.8157123e-22
7.0149865e-20
5.7331647e-19
1.5250331e-18
2.3969288e-18
2.8945827e-18
3.0763369e-18
3.1000077e-18
3.0826267e-18
3.0826213e-18
3.0999955e-18
3.076321e-18
2.8945706e-18
2.3969237e-18
1.5250344e-18
5.7331918e-19
7.0150513e-20
4.815846e-22
9.5792698e-27
)
;

boundaryField
{
    Wall
    {
        type            zeroGradient;
    }
    frontAndBack
    {
        type            empty;
    }
    atmosphere
    {
        type            zeroGradient;
    }
}


// ************************************************************************* //
