/*--------------------------------*- C++ -*----------------------------------*\
| =========                 |                                                 |
| \\      /  F ield         | OpenFOAM: The Open Source CFD Toolbox           |
|  \\    /   O peration     | Version:  3.0.1                                 |
|   \\  /    A nd           | Web:      www.OpenFOAM.org                      |
|    \\/     M anipulation  |                                                 |
\*---------------------------------------------------------------------------*/
FoamFile
{
    version     2.0;
    format      ascii;
    class       volScalarField;
    location    "26";
    object      muMixture;
}
// * * * * * * * * * * * * * * * * * * * * * * * * * * * * * * * * * * * * * //

dimensions      [1 -1 -1 0 0 0 0];

internalField   nonuniform List<scalar> 
800
(
0.001
0.001
0.001
0.001
0.001
0.001
0.001
0.001
0.001
0.001
0.001
0.001
0.001
0.001
0.001
0.001
0.001
0.001
0.001
0.001
0.001
0.001
0.001
0.001
0.001
0.001
0.001
0.001
0.001
0.001
0.001
0.001
0.001
0.001
0.001
0.001
0.001
0.001
0.001
0.001
0.0009999998
0.00099999982
0.00099999982
0.00099999982
0.00099999982
0.00099999982
0.00099999982
0.00099999982
0.00099999982
0.00099999982
0.00099999982
0.00099999982
0.00099999982
0.00099999982
0.00099999982
0.00099999982
0.00099999982
0.00099999982
0.00099999982
0.0009999998
0.0009999991
0.00099999918
0.0009999992
0.00099999921
0.00099999921
0.00099999921
0.0009999992
0.0009999992
0.0009999992
0.0009999992
0.0009999992
0.0009999992
0.0009999992
0.0009999992
0.00099999921
0.00099999921
0.00099999921
0.0009999992
0.00099999918
0.0009999991
0.00099999757
0.0009999978
0.00099999786
0.00099999787
0.00099999786
0.00099999786
0.00099999785
0.00099999785
0.00099999785
0.00099999785
0.00099999785
0.00099999785
0.00099999785
0.00099999785
0.00099999786
0.00099999786
0.00099999787
0.00099999786
0.0009999978
0.00099999757
0.00099999491
0.0009999954
0.00099999553
0.00099999554
0.00099999553
0.00099999552
0.00099999551
0.00099999551
0.0009999955
0.0009999955
0.0009999955
0.0009999955
0.00099999551
0.00099999551
0.00099999552
0.00099999553
0.00099999554
0.00099999553
0.0009999954
0.00099999491
0.00099999085
0.00099999174
0.00099999199
0.00099999201
0.00099999199
0.00099999197
0.00099999196
0.00099999195
0.00099999194
0.00099999194
0.00099999194
0.00099999194
0.00099999195
0.00099999196
0.00099999197
0.00099999199
0.00099999201
0.00099999199
0.00099999174
0.00099999085
0.00099998518
0.00099998664
0.00099998709
0.00099998712
0.00099998708
0.00099998705
0.00099998703
0.00099998701
0.000999987
0.000999987
0.000999987
0.000999987
0.00099998701
0.00099998703
0.00099998705
0.00099998708
0.00099998712
0.00099998709
0.00099998664
0.00099998518
0.00099997775
0.00099997996
0.00099998072
0.00099998075
0.00099998069
0.00099998064
0.0009999806
0.00099998058
0.00099998057
0.00099998056
0.00099998056
0.00099998057
0.00099998058
0.0009999806
0.00099998064
0.00099998069
0.00099998075
0.00099998072
0.00099997996
0.00099997775
0.00099996836
0.00099997158
0.00099997275
0.00099997278
0.00099997269
0.00099997262
0.00099997257
0.00099997254
0.00099997252
0.00099997252
0.00099997252
0.00099997252
0.00099997254
0.00099997257
0.00099997262
0.00099997269
0.00099997278
0.00099997275
0.00099997158
0.00099996836
0.00099995667
0.00099996137
0.00099996295
0.00099996296
0.00099996284
0.00099996274
0.00099996268
0.00099996264
0.00099996262
0.00099996261
0.00099996261
0.00099996262
0.00099996264
0.00099996268
0.00099996274
0.00099996284
0.00099996296
0.00099996295
0.00099996137
0.00099995667
0.00099994153
0.00099994877
0.00099995055
0.00099995054
0.00099995038
0.00099995025
0.00099995018
0.00099995014
0.00099995012
0.00099995011
0.00099995011
0.00099995012
0.00099995014
0.00099995018
0.00099995025
0.00099995038
0.00099995054
0.00099995055
0.00099994877
0.00099994153
0.00099991767
0.00099993029
0.00099993246
0.00099993257
0.00099993243
0.00099993232
0.00099993226
0.00099993223
0.0009999322
0.00099993218
0.00099993218
0.0009999322
0.00099993223
0.00099993226
0.00099993232
0.00099993243
0.00099993257
0.00099993246
0.00099993029
0.00099991767
0.00099986028
0.00099988954
0.00099989491
0.00099989589
0.0009998962
0.00099989634
0.00099989641
0.00099989648
0.00099989652
0.00099989652
0.00099989652
0.00099989652
0.00099989648
0.00099989641
0.00099989634
0.0009998962
0.00099989589
0.00099989491
0.00099988954
0.00099986028
0.00099960008
0.00099971988
0.00099974877
0.00099975686
0.00099976143
0.00099976373
0.00099976512
0.00099976598
0.00099976677
0.00099976694
0.00099976694
0.00099976677
0.00099976598
0.00099976512
0.00099976373
0.00099976143
0.00099975686
0.00099974878
0.00099971988
0.00099960008
0.0009970436
0.00099823596
0.00099855727
0.0009986564
0.00099871502
0.00099874606
0.00099876584
0.00099877662
0.00099878705
0.00099879067
0.00099879067
0.00099878705
0.00099877662
0.00099876585
0.00099874607
0.00099871503
0.00099865641
0.00099855728
0.00099823597
0.00099704363
0.00091903016
0.00095841997
0.00096859902
0.00097204267
0.00097408652
0.0009751492
0.00097576143
0.00097610138
0.00097642278
0.00097655348
0.0009765535
0.00097642283
0.00097610145
0.00097576154
0.00097514934
0.0009740867
0.00097204288
0.00096859928
0.00095842041
0.00091903136
1e-05
1e-05
0.00051167692
0.00053328428
0.00054707923
0.0005549192
0.00055967034
0.0005623819
0.00056490591
0.00056593002
0.00056593013
0.00056490633
0.00056238251
0.00055967121
0.00055492025
0.00054708045
0.00053328567
0.00051167851
1e-05
1e-05
1e-05
1e-05
1e-05
1e-05
1e-05
1e-05
1e-05
1e-05
1e-05
1e-05
1e-05
1e-05
1e-05
1e-05
1e-05
1e-05
1e-05
1e-05
1e-05
1e-05
1e-05
1e-05
1e-05
1e-05
1e-05
1e-05
1e-05
1e-05
1e-05
1e-05
1e-05
1e-05
1e-05
1e-05
1e-05
1e-05
1e-05
1e-05
1e-05
1e-05
1e-05
1e-05
1e-05
1e-05
1e-05
1e-05
1e-05
1e-05
1e-05
1e-05
1e-05
1e-05
1e-05
1e-05
1e-05
1e-05
1e-05
1e-05
1e-05
1e-05
1e-05
1e-05
1e-05
1e-05
1e-05
1e-05
1e-05
1e-05
1e-05
1e-05
1e-05
1e-05
1e-05
1e-05
1e-05
1e-05
1e-05
1e-05
1e-05
1e-05
1e-05
1e-05
1e-05
1e-05
1e-05
1e-05
1e-05
1e-05
1e-05
1e-05
1e-05
1e-05
1e-05
1e-05
1e-05
1e-05
1e-05
1e-05
1e-05
1e-05
1e-05
1e-05
1e-05
1e-05
1e-05
1e-05
1e-05
1e-05
1e-05
1e-05
1e-05
1e-05
1e-05
1e-05
1e-05
1e-05
1e-05
1e-05
1e-05
1e-05
1e-05
1e-05
1e-05
1e-05
1e-05
1e-05
1e-05
1e-05
1e-05
1e-05
1e-05
1e-05
1e-05
1e-05
1e-05
1e-05
1e-05
1e-05
1e-05
1e-05
1e-05
1e-05
1e-05
1e-05
1e-05
1e-05
1e-05
1e-05
1e-05
1e-05
1e-05
1e-05
1e-05
1e-05
1e-05
1e-05
1e-05
1e-05
1e-05
1e-05
1e-05
1e-05
1e-05
1e-05
1e-05
1e-05
1e-05
1e-05
1e-05
1e-05
1e-05
1e-05
1e-05
1e-05
1e-05
1e-05
1e-05
1e-05
1e-05
1e-05
1e-05
1e-05
1e-05
1e-05
1e-05
1e-05
1e-05
1e-05
1e-05
1e-05
1e-05
1e-05
1e-05
1e-05
1e-05
1e-05
1e-05
1e-05
1e-05
1e-05
1e-05
1e-05
1e-05
1e-05
1e-05
1e-05
1e-05
1e-05
1e-05
1e-05
1e-05
1e-05
1e-05
1e-05
1e-05
1e-05
1e-05
1e-05
1e-05
1e-05
1e-05
1e-05
1e-05
1e-05
1e-05
1e-05
1e-05
1e-05
1e-05
1e-05
1e-05
1e-05
1e-05
1e-05
1e-05
1e-05
1e-05
1e-05
1e-05
1e-05
1e-05
1e-05
1e-05
1e-05
1e-05
1e-05
1e-05
1e-05
1e-05
1e-05
1e-05
1e-05
1e-05
1e-05
1e-05
1e-05
1e-05
1e-05
1e-05
1e-05
1e-05
1e-05
1e-05
1e-05
1e-05
1e-05
1e-05
1e-05
1e-05
1e-05
1e-05
1e-05
1e-05
1e-05
1e-05
1e-05
1e-05
1e-05
1e-05
1e-05
1e-05
1e-05
1e-05
1e-05
1e-05
1e-05
1e-05
1e-05
1e-05
1e-05
1e-05
1e-05
1e-05
1e-05
1e-05
1e-05
1e-05
1e-05
1e-05
1e-05
1e-05
1e-05
1e-05
1e-05
1e-05
1e-05
1e-05
1e-05
1e-05
1e-05
1e-05
1e-05
1e-05
1e-05
1e-05
1e-05
1e-05
1e-05
1e-05
1e-05
1e-05
1e-05
1e-05
1e-05
1e-05
1e-05
1e-05
1e-05
1e-05
1e-05
1e-05
1e-05
1e-05
1e-05
1e-05
1e-05
1e-05
1e-05
1e-05
1e-05
1e-05
1e-05
1e-05
1e-05
1e-05
1e-05
1e-05
1e-05
1e-05
1e-05
1e-05
1e-05
1e-05
1e-05
1e-05
1e-05
1e-05
1e-05
1e-05
1e-05
1e-05
1e-05
1e-05
1e-05
1e-05
1e-05
1e-05
1e-05
1e-05
1e-05
1e-05
1e-05
1e-05
1e-05
1e-05
1e-05
1e-05
1e-05
1e-05
1e-05
1e-05
1e-05
1e-05
1e-05
1e-05
1e-05
1e-05
1e-05
1e-05
1e-05
1e-05
1e-05
1e-05
1e-05
1e-05
1e-05
1e-05
1e-05
1e-05
1e-05
1e-05
1e-05
1e-05
1e-05
1e-05
1e-05
1e-05
1e-05
1e-05
1e-05
1e-05
1e-05
1e-05
1e-05
1e-05
1e-05
1e-05
1e-05
1e-05
1e-05
1e-05
1e-05
1e-05
1e-05
1e-05
1e-05
1e-05
1e-05
1e-05
1e-05
1e-05
1e-05
1e-05
1e-05
1e-05
1e-05
1e-05
1e-05
1e-05
1e-05
)
;

boundaryField
{
    Wall
    {
        type            zeroGradient;
    }
    frontAndBack
    {
        type            empty;
    }
    atmosphere
    {
        type            zeroGradient;
    }
}


// ************************************************************************* //
