/*--------------------------------*- C++ -*----------------------------------*\
| =========                 |                                                 |
| \\      /  F ield         | OpenFOAM: The Open Source CFD Toolbox           |
|  \\    /   O peration     | Version:  3.0.1                                 |
|   \\  /    A nd           | Web:      www.OpenFOAM.org                      |
|    \\/     M anipulation  |                                                 |
\*---------------------------------------------------------------------------*/
FoamFile
{
    version     2.0;
    format      ascii;
    class       volScalarField;
    location    "26";
    object      mZero;
}
// * * * * * * * * * * * * * * * * * * * * * * * * * * * * * * * * * * * * * //

dimensions      [0 0 0 0 0 0 0];

internalField   nonuniform List<scalar> 
800
(
1e+13
1e+13
1e+13
1e+13
1e+13
1e+13
1e+13
1e+13
1e+13
1e+13
1e+13
1e+13
1e+13
1e+13
1e+13
1e+13
1e+13
1e+13
1e+13
1e+13
1e+13
1e+13
1e+13
1e+13
1e+13
1e+13
1e+13
1e+13
1e+13
1e+13
1e+13
1e+13
1e+13
1e+13
1e+13
1e+13
1e+13
1e+13
1e+13
1e+13
9.8794961e+12
9.8821771e+12
9.8831234e+12
9.8833465e+12
9.8833503e+12
9.8833061e+12
9.8832633e+12
9.8832334e+12
9.8832157e+12
9.8832078e+12
9.8832078e+12
9.8832157e+12
9.8832333e+12
9.8832632e+12
9.883306e+12
9.8833502e+12
9.8833464e+12
9.8831232e+12
9.8821768e+12
9.8794957e+12
9.6631509e+12
9.6706845e+12
9.6729671e+12
9.6734467e+12
9.673439e+12
9.6733179e+12
9.6732044e+12
9.6731247e+12
9.6730768e+12
9.673055e+12
9.673055e+12
9.6730767e+12
9.6731245e+12
9.6732042e+12
9.6733176e+12
9.6734387e+12
9.6734463e+12
9.6729667e+12
9.670684e+12
9.6631503e+12
9.3729123e+12
9.3869204e+12
9.3907049e+12
9.3914346e+12
9.39138e+12
9.3911506e+12
9.390946e+12
9.3908032e+12
9.3907168e+12
9.3906774e+12
9.3906774e+12
9.3907167e+12
9.390803e+12
9.3909457e+12
9.3911502e+12
9.3913795e+12
9.391434e+12
9.3907042e+12
9.3869197e+12
9.3729114e+12
9.0279005e+12
9.0495527e+12
9.0549278e+12
9.0558914e+12
9.0557483e+12
9.055386e+12
9.0550768e+12
9.0548632e+12
9.0547348e+12
9.0546761e+12
9.054676e+12
9.0547346e+12
9.0548629e+12
9.0550764e+12
9.0553855e+12
9.0557477e+12
9.0558907e+12
9.054927e+12
9.0495519e+12
9.0278996e+12
8.6440381e+12
8.6743788e+12
8.6814087e+12
8.6825912e+12
8.6823164e+12
8.6818023e+12
8.6813832e+12
8.6810976e+12
8.6809277e+12
8.6808502e+12
8.6808502e+12
8.6809275e+12
8.6810972e+12
8.6813827e+12
8.6818017e+12
8.6823158e+12
8.6825905e+12
8.6814079e+12
8.6743781e+12
8.6440373e+12
8.2340477e+12
8.2740372e+12
8.2829292e+12
8.2843535e+12
8.283901e+12
8.2832246e+12
8.2827002e+12
8.2823498e+12
8.2821432e+12
8.2820492e+12
8.2820492e+12
8.282143e+12
8.2823494e+12
8.2826997e+12
8.2832241e+12
8.2839004e+12
8.2843529e+12
8.2829286e+12
8.2740366e+12
8.2340471e+12
7.8074275e+12
7.8579985e+12
7.8691471e+12
7.8709224e+12
7.8703336e+12
7.8694885e+12
7.8688785e+12
7.86848e+12
7.8682446e+12
7.8681375e+12
7.8681374e+12
7.8682443e+12
7.8684797e+12
7.8688781e+12
7.869488e+12
7.870333e+12
7.8709219e+12
7.8691467e+12
7.8579981e+12
7.8074271e+12
7.3704614e+12
7.4326887e+12
7.4467196e+12
7.4490814e+12
7.4484369e+12
7.4475041e+12
7.4468508e+12
7.4464285e+12
7.4461708e+12
7.4460543e+12
7.4460542e+12
7.4461705e+12
7.4464282e+12
7.4468504e+12
7.4475037e+12
7.4484365e+12
7.4490811e+12
7.4467192e+12
7.4326884e+12
7.370461e+12
6.926412e+12
7.0015051e+12
7.0194832e+12
7.0228702e+12
7.0223488e+12
7.0214411e+12
7.020787e+12
7.0203638e+12
7.0200791e+12
7.019954e+12
7.0199539e+12
7.0200789e+12
7.0203634e+12
7.0207867e+12
7.0214407e+12
7.0223485e+12
7.02287e+12
7.019483e+12
7.0015049e+12
6.9264116e+12
6.4758092e+12
6.5651921e+12
6.5887799e+12
6.593934e+12
6.5939038e+12
6.59314e+12
6.5925092e+12
6.5921002e+12
6.5917401e+12
6.5916028e+12
6.5916028e+12
6.5917399e+12
6.5920999e+12
6.5925088e+12
6.5931397e+12
6.5939036e+12
6.5939338e+12
6.5887796e+12
6.5651918e+12
6.4758088e+12
6.0163394e+12
6.1219417e+12
6.1535875e+12
6.1617396e+12
6.1627319e+12
6.1622383e+12
6.1616242e+12
6.1612345e+12
6.1608246e+12
6.1606667e+12
6.1606666e+12
6.1608244e+12
6.1612342e+12
6.1616239e+12
6.162238e+12
6.1627317e+12
6.1617394e+12
6.1535872e+12
6.1219413e+12
6.0163389e+12
5.5420748e+12
5.6666375e+12
5.7100784e+12
5.7233678e+12
5.7262295e+12
5.7261687e+12
5.7255203e+12
5.7250924e+12
5.7246856e+12
5.7244345e+12
5.7244344e+12
5.7246854e+12
5.725092e+12
5.72552e+12
5.7261685e+12
5.7262293e+12
5.7233677e+12
5.7100781e+12
5.6666372e+12
5.5420744e+12
5.0462553e+12
5.1940937e+12
5.2552172e+12
5.2770219e+12
5.2831139e+12
5.2837194e+12
5.282855e+12
5.2822222e+12
5.2818066e+12
5.2814359e+12
5.2814358e+12
5.2818064e+12
5.2822218e+12
5.2828547e+12
5.2837192e+12
5.2831137e+12
5.2770218e+12
5.2552169e+12
5.1940935e+12
5.0462552e+12
4.5141799e+12
4.692128e+12
4.7800293e+12
4.8157663e+12
4.827354e+12
4.8290023e+12
4.8280126e+12
4.8268591e+12
4.8262447e+12
4.8257055e+12
4.8257053e+12
4.8262445e+12
4.8268587e+12
4.8280123e+12
4.8290021e+12
4.8273538e+12
4.8157663e+12
4.7800291e+12
4.692128e+12
4.5141804e+12
3.919523e+12
4.1390063e+12
4.267724e+12
4.326375e+12
4.3474321e+12
4.351359e+12
4.3498495e+12
4.3475877e+12
4.3463411e+12
4.345488e+12
4.3454879e+12
4.3463409e+12
4.3475873e+12
4.3498493e+12
4.3513589e+12
4.347432e+12
4.3263751e+12
4.2677241e+12
4.1390068e+12
3.9195244e+12
3.2163162e+12
3.5010293e+12
3.6926619e+12
3.789013e+12
3.8268901e+12
3.8352315e+12
3.8329636e+12
3.8287311e+12
3.8261044e+12
3.8245449e+12
3.8245447e+12
3.8261041e+12
3.8287307e+12
3.8329635e+12
3.8352315e+12
3.8268902e+12
3.7890132e+12
3.6926622e+12
3.5010303e+12
3.2163187e+12
2.3643954e+12
2.7372903e+12
3.0130159e+12
3.1676296e+12
3.2346317e+12
3.2520611e+12
3.2489876e+12
3.2412995e+12
3.2357108e+12
3.2324931e+12
3.2324929e+12
3.2357105e+12
3.2412991e+12
3.2489874e+12
3.2520612e+12
3.2346318e+12
3.1676298e+12
3.0130163e+12
2.7372918e+12
2.3643988e+12
1.4567006e+12
1.9650814e+12
2.3150142e+12
2.5288715e+12
2.6319721e+12
2.66248e+12
2.658695e+12
2.64559e+12
2.6349501e+12
2.6288516e+12
2.6288513e+12
2.6349497e+12
2.6455894e+12
2.6586948e+12
2.6624799e+12
2.6319721e+12
2.5288715e+12
2.3150145e+12
1.9650827e+12
1.4567041e+12
6.9169773e+11
1.3090325e+12
1.7100471e+12
1.9610902e+12
2.0892178e+12
2.1299334e+12
2.1247498e+12
2.1053724e+12
2.0886124e+12
2.078979e+12
2.0789787e+12
2.0886118e+12
2.1053716e+12
2.1247494e+12
2.1299332e+12
2.0892175e+12
1.96109e+12
1.7100472e+12
1.3090334e+12
6.917002e+11
2.4723923e+11
8.1423315e+11
1.221077e+12
1.4848703e+12
1.6244917e+12
1.6711012e+12
1.6653058e+12
1.6415761e+12
1.6200346e+12
1.6074992e+12
1.6074988e+12
1.6200339e+12
1.6415751e+12
1.6653051e+12
1.6711007e+12
1.6244912e+12
1.4848699e+12
1.221077e+12
8.1423372e+11
2.4724043e+11
6.8439375e+10
4.7465814e+11
8.4311102e+11
1.097018e+12
1.2362623e+12
1.2850541e+12
1.2802468e+12
1.2555858e+12
1.2321867e+12
1.2183528e+12
1.2183523e+12
1.2321858e+12
1.2555846e+12
1.2802459e+12
1.2850534e+12
1.2362615e+12
1.0970175e+12
8.4311077e+11
4.7465845e+11
6.8439797e+10
1.551279e+10
2.5872772e+11
5.6171675e+11
7.8883688e+11
9.1861253e+11
9.6657912e+11
9.6402509e+11
9.415458e+11
9.1924226e+11
9.0583799e+11
9.0583749e+11
9.1924128e+11
9.4154453e+11
9.6402404e+11
9.6657825e+11
9.1861175e+11
7.8883628e+11
5.6171643e+11
2.5872788e+11
1.5512903e+10
3.0515099e+09
1.3174907e+11
3.6013142e+11
5.505794e+11
6.6484332e+11
7.0960764e+11
7.0975159e+11
6.9135396e+11
6.7217523e+11
6.60456e+11
6.6045553e+11
6.7217427e+11
6.913527e+11
7.0975053e+11
7.0960674e+11
6.6484257e+11
5.5057885e+11
3.6013114e+11
1.3174913e+11
3.0515353e+09
5.4547134e+08
6.2924022e+10
2.2177874e+11
3.7221889e+11
4.6778148e+11
5.0759302e+11
5.1011598e+11
4.9641018e+11
4.8125133e+11
4.7182411e+11
4.7182368e+11
4.8125045e+11
4.9640902e+11
5.1011499e+11
5.0759221e+11
4.6778085e+11
3.7221848e+11
2.2177856e+11
6.2924062e+10
5.4547639e+08
91421837
2.8382022e+10
1.3113925e+11
2.4345544e+11
3.1958603e+11
3.5336885e+11
3.5749761e+11
3.4814774e+11
3.3699676e+11
3.2992371e+11
3.2992335e+11
3.36996e+11
3.4814675e+11
3.5749675e+11
3.5336817e+11
3.1958554e+11
2.4345516e+11
1.3113916e+11
2.8382052e+10
91422775
14651622
1.2177935e+10
7.4522235e+10
1.5401501e+11
2.118989e+11
2.3926934e+11
2.441172e+11
2.3828454e+11
2.3058768e+11
2.2559072e+11
2.2559043e+11
2.3058707e+11
2.3828372e+11
2.4411651e+11
2.3926881e+11
2.1189854e+11
1.5401485e+11
7.4522203e+10
1.2177955e+10
14651791
2272154.5
5.0017664e+09
4.0766802e+10
9.427522e+10
1.3635461e+11
1.5754741e+11
1.6236127e+11
1.5907153e+11
1.5406057e+11
1.5071397e+11
1.5071375e+11
1.5406009e+11
1.5907089e+11
1.6236073e+11
1.5754701e+11
1.3635435e+11
9.4275128e+10
4.0766797e+10
5.0017783e+09
2272184.7
343366.24
1.9762199e+09
2.1511321e+10
5.5882697e+10
8.518766e+10
1.0089287e+11
1.0516953e+11
1.0354377e+11
1.0045783e+11
9.8322992e+10
9.8322827e+10
1.0045748e+11
1.0354329e+11
1.0516912e+11
1.0089257e+11
8.5187486e+10
5.5882648e+10
2.1511326e+10
1.976226e+09
343371.41
50771.283
7.5393917e+08
1.0971131e+10
3.2111288e+10
5.1703262e+10
6.2862547e+10
6.6356306e+10
6.5714149e+10
6.391505e+10
6.2613598e+10
6.2613481e+10
6.3914793e+10
6.5713801e+10
6.635601e+10
6.2862336e+10
5.1703143e+10
3.2111263e+10
1.0971138e+10
7.5394206e+08
50772.135
7362.5917
2.7851796e+08
5.4185888e+09
1.7907481e+10
3.0508487e+10
3.8126521e+10
4.0793528e+10
4.0667245e+10
3.9675846e+10
3.8916003e+10
3.8915923e+10
3.9675668e+10
4.0667002e+10
4.0793321e+10
3.8126376e+10
3.0508408e+10
1.7907468e+10
5.4185941e+09
2.7851922e+08
7362.7248
1050.1131
99844242
2.5960571e+09
9.7030062e+09
1.7516174e+10
2.2522991e+10
2.4445497e+10
2.4546567e+10
2.4032666e+10
2.3607322e+10
2.3607269e+10
2.4032547e+10
2.4546403e+10
2.4445357e+10
2.2522895e+10
1.7516123e+10
9.7029999e+09
2.5960605e+09
99844760
1050.1555
165.10854
34792117
1.2083489e+09
5.1139175e+09
9.7934348e+09
1.2967889e+10
1.4286301e+10
1.445613e+10
1.4208121e+10
1.3979819e+10
1.3979785e+10
1.4208044e+10
1.4456023e+10
1.428621e+10
1.2967827e+10
9.7934032e+09
5.1139143e+09
1.2083509e+09
34792321
165.14524
70.643586
11801349
5.471416e+08
2.6243961e+09
5.3365942e+09
7.2819166e+09
8.1468405e+09
8.3102912e+09
8.2012455e+09
8.0838809e+09
8.0838598e+09
8.201197e+09
8.3102245e+09
8.1467831e+09
7.2818779e+09
5.3365752e+09
2.6243945e+09
5.4714274e+08
11801427
70.819062
74.838312
3902360.5
2.4129534e+08
1.3126676e+09
2.8364211e+09
3.9906557e+09
4.5357922e+09
4.6654404e+09
4.623935e+09
4.5663111e+09
4.5662984e+09
4.6239055e+09
4.6653999e+09
4.5357573e+09
3.9906324e+09
2.8364101e+09
1.3126669e+09
2.4129595e+08
3902392.4
74.967601
38.96952
1261544.7
1.0375445e+08
6.4049975e+08
1.4715775e+09
2.1357421e+09
2.4669573e+09
2.5591945e+09
2.5476106e+09
2.5207334e+09
2.5207259e+09
2.5475932e+09
2.5591707e+09
2.4669367e+09
2.1357286e+09
1.4715713e+09
6.4049944e+08
1.0375476e+08
1261560.5
39.024237
13.581027
398941.66
43546857
3.051269e+08
7.4578202e+08
1.1169531e+09
1.3114864e+09
1.3723864e+09
1.3723237e+09
1.3605306e+09
1.3605264e+09
1.3723137e+09
1.3723728e+09
1.3114746e+09
1.1169455e+09
7.4577867e+08
3.0512677e+08
43547020
398948.39
13.598946
3.7157031
123327.63
17854018
1.4203528e+08
3.6944444e+08
5.7117304e+08
6.8187479e+08
7.1984905e+08
7.2310376e+08
7.1832697e+08
7.1832464e+08
7.2309819e+08
7.1984146e+08
6.8186822e+08
5.7116885e+08
3.6944266e+08
1.4203523e+08
17854097
123330.29
3.7257148
0.83818176
37256.99
7155599.1
64650542
1.7901207e+08
2.8575992e+08
3.469147e+08
3.6950939e+08
3.7289332e+08
3.711793e+08
3.7117804e+08
3.7289029e+08
3.6950526e+08
3.4691113e+08
2.8575767e+08
1.7901115e+08
64650518
7155636.2
37257.976
0.84114302
)
;

boundaryField
{
    Wall
    {
        type            zeroGradient;
    }
    frontAndBack
    {
        type            empty;
    }
    atmosphere
    {
        type            zeroGradient;
    }
}


// ************************************************************************* //
