/*--------------------------------*- C++ -*----------------------------------*\
| =========                 |                                                 |
| \\      /  F ield         | OpenFOAM: The Open Source CFD Toolbox           |
|  \\    /   O peration     | Version:  3.0.1                                 |
|   \\  /    A nd           | Web:      www.OpenFOAM.org                      |
|    \\/     M anipulation  |                                                 |
\*---------------------------------------------------------------------------*/
FoamFile
{
    version     2.0;
    format      ascii;
    class       volScalarField;
    location    "26";
    object      node1;
}
// * * * * * * * * * * * * * * * * * * * * * * * * * * * * * * * * * * * * * //

dimensions      [0 0 0 0 0 0 0];

internalField   nonuniform List<scalar> 
800
(
1.183802e-12
1.1839071e-12
1.1839211e-12
1.1839213e-12
1.1839205e-12
1.1839199e-12
1.1839196e-12
1.1839195e-12
1.1839195e-12
1.1839195e-12
1.1839195e-12
1.1839195e-12
1.1839195e-12
1.1839196e-12
1.1839199e-12
1.1839205e-12
1.1839213e-12
1.1839211e-12
1.1839071e-12
1.183802e-12
1.151882e-12
1.1534729e-12
1.1537782e-12
1.1538193e-12
1.1538068e-12
1.1537921e-12
1.1537838e-12
1.1537807e-12
1.1537801e-12
1.1537802e-12
1.1537802e-12
1.1537801e-12
1.1537807e-12
1.1537838e-12
1.1537921e-12
1.1538068e-12
1.1538193e-12
1.1537782e-12
1.1534729e-12
1.151882e-12
1.1355016e-12
1.137587e-12
1.1381644e-12
1.138245e-12
1.1382381e-12
1.1382242e-12
1.1382176e-12
1.138217e-12
1.1382186e-12
1.1382199e-12
1.13822e-12
1.1382186e-12
1.138217e-12
1.1382176e-12
1.1382241e-12
1.138238e-12
1.1382449e-12
1.1381644e-12
1.137587e-12
1.1355016e-12
1.1346053e-12
1.1366762e-12
1.1374106e-12
1.1375051e-12
1.1375016e-12
1.1374923e-12
1.1374914e-12
1.137496e-12
1.1375014e-12
1.1375047e-12
1.1375047e-12
1.1375014e-12
1.137496e-12
1.1374914e-12
1.1374923e-12
1.1375016e-12
1.1375051e-12
1.1374106e-12
1.1366762e-12
1.1346053e-12
1.1484574e-12
1.1500324e-12
1.1508288e-12
1.150974e-12
1.1509704e-12
1.1509667e-12
1.1509731e-12
1.1509841e-12
1.1509942e-12
1.151e-12
1.151e-12
1.1509942e-12
1.1509842e-12
1.1509731e-12
1.1509667e-12
1.1509705e-12
1.150974e-12
1.1508289e-12
1.1500324e-12
1.1484575e-12
1.1764238e-12
1.1771273e-12
1.1778739e-12
1.1781028e-12
1.1780928e-12
1.1780924e-12
1.1781054e-12
1.1781226e-12
1.1781371e-12
1.1781451e-12
1.1781451e-12
1.1781371e-12
1.1781226e-12
1.1781054e-12
1.1780924e-12
1.1780928e-12
1.1781028e-12
1.177874e-12
1.1771274e-12
1.1764238e-12
1.2162262e-12
1.2160192e-12
1.2165949e-12
1.2169251e-12
1.2169066e-12
1.216908e-12
1.2169266e-12
1.2169492e-12
1.2169676e-12
1.2169777e-12
1.2169777e-12
1.2169677e-12
1.2169492e-12
1.2169266e-12
1.2169081e-12
1.2169067e-12
1.2169251e-12
1.216595e-12
1.2160193e-12
1.2162262e-12
1.2653701e-12
1.2643698e-12
1.2646393e-12
1.265056e-12
1.265024e-12
1.2650222e-12
1.265042e-12
1.2650669e-12
1.2650875e-12
1.2650988e-12
1.2650988e-12
1.2650876e-12
1.2650669e-12
1.2650421e-12
1.2650223e-12
1.2650241e-12
1.2650561e-12
1.2646394e-12
1.2643698e-12
1.2653702e-12
1.3205779e-12
1.3192253e-12
1.3190441e-12
1.3195069e-12
1.3196102e-12
1.319595e-12
1.3196077e-12
1.3196292e-12
1.3196493e-12
1.3196604e-12
1.3196604e-12
1.3196493e-12
1.3196293e-12
1.3196077e-12
1.3195951e-12
1.3196103e-12
1.319507e-12
1.3190442e-12
1.3192254e-12
1.320578e-12
1.377516e-12
1.3769414e-12
1.376121e-12
1.3765724e-12
1.3769994e-12
1.3771836e-12
1.3771752e-12
1.3771857e-12
1.3772015e-12
1.3772107e-12
1.3772107e-12
1.3772015e-12
1.3771857e-12
1.3771753e-12
1.3771836e-12
1.3769994e-12
1.3765725e-12
1.3761211e-12
1.3769415e-12
1.377516e-12
1.4309001e-12
1.4326549e-12
1.4313656e-12
1.4317376e-12
1.4328489e-12
1.4334629e-12
1.4334155e-12
1.4334049e-12
1.4334121e-12
1.4334173e-12
1.4334173e-12
1.4334121e-12
1.4334049e-12
1.4334155e-12
1.4334629e-12
1.432849e-12
1.4317376e-12
1.4313656e-12
1.432655e-12
1.4309002e-12
1.4747919e-12
1.4803406e-12
1.4794948e-12
1.4796782e-12
1.4819482e-12
1.4830285e-12
1.482924e-12
1.4828811e-12
1.4828706e-12
1.4828691e-12
1.4828691e-12
1.4828706e-12
1.4828811e-12
1.482924e-12
1.4830285e-12
1.4819482e-12
1.4796783e-12
1.4794948e-12
1.4803406e-12
1.4747919e-12
1.5022586e-12
1.5131215e-12
1.5140855e-12
1.5137964e-12
1.5173345e-12
1.5187576e-12
1.5185835e-12
1.5184896e-12
1.5190649e-12
1.5190414e-12
1.5190414e-12
1.5190649e-12
1.5184896e-12
1.5185835e-12
1.5187576e-12
1.5173345e-12
1.5137964e-12
1.5140855e-12
1.5131215e-12
1.5022586e-12
1.5032174e-12
1.5216922e-12
1.5255714e-12
1.5258796e-12
1.5304729e-12
1.5321022e-12
1.5318767e-12
1.5317446e-12
1.5328896e-12
1.532838e-12
1.532838e-12
1.5328896e-12
1.5317446e-12
1.5318766e-12
1.5321022e-12
1.5304729e-12
1.5258795e-12
1.5255713e-12
1.5216921e-12
1.5032173e-12
1.462823e-12
1.4904971e-12
1.4976308e-12
1.4986608e-12
1.5040196e-12
1.5058132e-12
1.5054659e-12
1.505352e-12
1.50701e-12
1.5081729e-12
1.5081729e-12
1.50701e-12
1.505352e-12
1.5054658e-12
1.5058131e-12
1.5040196e-12
1.4986607e-12
1.4976307e-12
1.490497e-12
1.4628229e-12
1.3834907e-12
1.4188229e-12
1.4291244e-12
1.4318216e-12
1.4378149e-12
1.4397166e-12
1.4393863e-12
1.4393455e-12
1.4414726e-12
1.4432642e-12
1.4432642e-12
1.4414726e-12
1.4393455e-12
1.4393863e-12
1.4397165e-12
1.4378148e-12
1.4318215e-12
1.4291243e-12
1.4188227e-12
1.3834906e-12
1.2819704e-12
1.3201964e-12
1.3316981e-12
1.3340191e-12
1.3403171e-12
1.3432549e-12
1.3434807e-12
1.3435197e-12
1.3459756e-12
1.3477732e-12
1.3477732e-12
1.3459756e-12
1.3435197e-12
1.3434807e-12
1.3432549e-12
1.340317e-12
1.334019e-12
1.331698e-12
1.3201963e-12
1.2819702e-12
0
0
1.196129e-12
1.1969609e-12
1.2028291e-12
1.2065252e-12
1.2072893e-12
1.2074544e-12
1.2154788e-12
1.2168891e-12
1.2168891e-12
1.2154788e-12
1.2074544e-12
1.2072893e-12
1.2065251e-12
1.202829e-12
1.1969608e-12
1.1961288e-12
0
0
0
0
0
0
0
0
0
0
0
0
0
0
0
0
0
0
0
0
0
0
0
0
0
0
0
0
0
0
0
0
0
0
0
0
0
0
0
0
0
0
0
0
0
0
0
0
0
0
0
0
0
0
0
0
0
0
0
0
0
0
0
0
0
0
0
0
0
0
0
0
0
0
0
0
0
0
0
0
0
0
0
0
0
0
0
0
0
0
0
0
0
0
0
0
0
0
0
0
0
0
0
0
0
0
0
0
0
0
0
0
0
0
0
0
0
0
0
0
0
0
0
0
0
0
0
0
0
0
0
0
0
0
0
0
0
0
0
0
0
0
0
0
0
0
0
0
0
0
0
0
0
0
0
0
0
0
0
0
0
0
0
0
0
0
0
0
0
0
0
0
0
0
0
0
0
0
0
0
0
0
0
0
0
0
0
0
0
0
0
0
0
0
0
0
0
0
0
0
0
0
0
0
0
0
0
0
0
0
0
0
0
0
0
0
0
0
0
0
0
0
0
0
0
0
0
0
0
0
0
0
0
0
0
0
0
0
0
0
0
0
0
0
0
0
0
0
0
0
0
0
0
0
0
0
0
0
0
0
0
0
0
0
0
0
0
0
0
0
0
0
0
0
0
0
0
0
0
0
0
0
0
0
0
0
0
0
0
0
0
0
0
0
0
0
0
0
0
0
0
0
0
0
0
0
0
0
0
0
0
0
0
0
0
0
0
0
0
0
0
0
0
0
0
0
0
0
0
0
0
0
0
0
0
0
0
0
0
0
0
0
0
0
0
0
0
0
0
0
0
0
0
0
0
0
0
0
0
0
0
0
0
0
0
0
0
0
0
0
0
0
0
0
0
0
0
0
0
0
0
0
0
0
0
0
0
0
0
0
0
0
0
0
0
0
0
0
0
0
0
0
0
0
0
0
0
0
0
0
0
0
0
0
0
0
0
0
0
0
0
0
0
0
0
0
0
0
0
0
0
0
0
0
0
0
0
0
0
0
0
0
)
;

boundaryField
{
    Wall
    {
        type            zeroGradient;
    }
    frontAndBack
    {
        type            empty;
    }
    atmosphere
    {
        type            zeroGradient;
    }
}


// ************************************************************************* //
