/*--------------------------------*- C++ -*----------------------------------*\
| =========                 |                                                 |
| \\      /  F ield         | OpenFOAM: The Open Source CFD Toolbox           |
|  \\    /   O peration     | Version:  3.0.1                                 |
|   \\  /    A nd           | Web:      www.OpenFOAM.org                      |
|    \\/     M anipulation  |                                                 |
\*---------------------------------------------------------------------------*/
FoamFile
{
    version     2.0;
    format      ascii;
    class       surfaceScalarField;
    location    "26";
    object      phi;
}
// * * * * * * * * * * * * * * * * * * * * * * * * * * * * * * * * * * * * * //

dimensions      [0 3 -1 0 0 0 0];

internalField   nonuniform List<scalar> 
1540
(
3.8264934e-10
1.7766441e-08
4.7440035e-10
1.8065477e-08
4.6040192e-10
1.8172424e-08
4.0051681e-10
1.8218146e-08
3.2679739e-10
1.8231757e-08
2.5307606e-10
1.8231672e-08
1.8390003e-10
1.8227134e-08
1.1956409e-10
1.8222341e-08
5.8777156e-11
1.8218838e-08
-1.7850375e-13
1.8217037e-08
-5.9127884e-11
1.8217033e-08
-1.1989529e-10
1.8218829e-08
-1.8420135e-10
1.8222324e-08
-2.5333978e-10
1.8227111e-08
-3.2702152e-10
1.8231643e-08
-4.0070201e-10
1.8231721e-08
-4.6055059e-10
1.82181e-08
-4.7452041e-10
1.8172366e-08
-3.8275035e-10
1.8065408e-08
1.7766328e-08
2.2472785e-10
3.6077135e-08
3.8266909e-10
3.6439555e-08
4.0770722e-10
3.6682826e-08
3.7235244e-10
3.6789497e-08
3.1274614e-10
3.6827251e-08
2.4656263e-10
3.683346e-08
1.8108186e-10
3.6827953e-08
1.1843111e-10
3.6820134e-08
5.8424643e-11
3.6813867e-08
-1.2074072e-13
3.6810549e-08
-5.8661263e-11
3.6810543e-08
-1.1865489e-10
3.6813852e-08
-1.81285e-10
3.6820108e-08
-2.4674078e-10
3.6827915e-08
-3.1289748e-10
3.6833409e-08
-3.7247825e-10
3.6827186e-08
-4.0781216e-10
3.6789415e-08
-3.8276144e-10
3.6682724e-08
-2.248056e-10
3.6439427e-08
3.607694e-08
3.187265e-10
5.4581382e-08
3.9884932e-10
5.5179375e-08
3.9728847e-10
5.5507756e-08
3.5477051e-10
5.5656551e-08
2.9581606e-10
5.571062e-08
2.3274328e-10
5.5720412e-08
1.7082508e-10
5.5713201e-08
1.1166833e-10
5.570219e-08
5.5056079e-11
5.5693098e-08
-9.7609781e-14
5.5688184e-08
-5.5247646e-11
5.5688178e-08
-1.118498e-10
5.5693077e-08
-1.70991e-10
5.5702154e-08
-2.3288971e-10
5.5713148e-08
-2.9594105e-10
5.572034e-08
-3.5487503e-10
5.5710528e-08
-3.9737564e-10
5.5656436e-08
-3.9892439e-10
5.5507616e-08
-3.1879032e-10
5.5179201e-08
5.4581139e-08
3.169656e-10
7.3346277e-08
3.9414591e-10
7.4179464e-08
3.8215985e-10
7.4600385e-08
3.3468876e-10
7.478845e-08
2.7509116e-10
7.4854538e-08
2.1422567e-10
7.4864833e-08
1.5606497e-10
7.4854105e-08
1.0147938e-10
7.4838873e-08
4.9875725e-11
7.4826369e-08
-8.9282731e-14
7.4819607e-08
-5.0051699e-11
7.4819599e-08
-1.0164766e-10
7.4826343e-08
-1.5622062e-10
7.4838827e-08
-2.1436524e-10
7.4854038e-08
-2.7521225e-10
7.4864742e-08
-3.3479182e-10
7.4854422e-08
-3.8224599e-10
7.4788308e-08
-3.9421757e-10
7.4600216e-08
-3.170228e-10
7.4179262e-08
7.3346015e-08
2.9432528e-10
9.2445357e-08
3.7586856e-10
9.3482992e-08
3.6056823e-10
9.4003592e-08
3.099051e-10
9.4230296e-08
2.5002818e-10
9.4305397e-08
1.9153736e-10
9.4313281e-08
1.3763404e-10
9.4296883e-08
8.8553594e-11
9.4275964e-08
4.3226809e-11
9.4259131e-08
-8.5985203e-14
9.4250072e-08
-4.3396864e-11
9.4250061e-08
-8.8718017e-11
9.42591e-08
-1.3778899e-10
9.427591e-08
-1.916796e-10
9.4296805e-08
-2.5015355e-10
9.4313176e-08
-3.1001242e-10
9.4305265e-08
-3.6065671e-10
9.4230138e-08
-3.7593691e-10
9.4003409e-08
-2.9436957e-10
9.3482784e-08
9.244511e-08
2.9619766e-10
1.119812e-07
3.6607725e-10
1.1322713e-07
3.4075578e-10
1.1384172e-07
2.8266435e-10
1.1410092e-07
2.2095014e-10
1.1417927e-07
1.6455199e-10
1.1418053e-07
1.1531156e-10
1.1415563e-07
7.2669615e-11
1.1412703e-07
3.4991547e-11
1.1410452e-07
-8.3770703e-14
1.140925e-07
-3.5157929e-11
1.1409249e-07
-7.2832028e-11
1.1410448e-07
-1.1546761e-10
1.1412697e-07
-1.6469666e-10
1.1415554e-07
-2.2108073e-10
1.1418042e-07
-2.8277458e-10
1.1417913e-07
-3.4084337e-10
1.1410076e-07
-3.6613691e-10
1.1384154e-07
-2.9622309e-10
1.1322693e-07
1.11981e-07
3.1111517e-10
1.3214529e-07
3.6152775e-10
1.3360731e-07
3.2019358e-10
1.3430917e-07
2.5060412e-10
1.345915e-07
1.8602703e-10
1.3466411e-07
1.3186495e-10
1.3465332e-07
8.8123167e-11
1.3461636e-07
5.3146486e-11
1.345777e-07
2.4799991e-11
1.3454769e-07
-8.1028345e-14
1.3453177e-07
-2.4961413e-11
1.3453176e-07
-5.3305944e-11
1.3454765e-07
-8.8277415e-11
1.3457764e-07
-1.3200995e-10
1.3461628e-07
-1.8615664e-10
1.3465321e-07
-2.5071139e-10
1.3466398e-07
-3.2027296e-10
1.3459135e-07
-3.6157171e-10
1.3430901e-07
-3.1111584e-10
1.3360716e-07
1.3214515e-07
3.2797415e-10
1.5318452e-07
3.5478915e-10
1.5486897e-07
2.9198161e-10
1.5564523e-07
2.0771851e-10
1.5593946e-07
1.4122483e-10
1.5600163e-07
9.1011826e-11
1.5597246e-07
5.4237016e-11
1.5592018e-07
2.8677097e-11
1.558688e-07
1.1966539e-11
1.5582893e-07
-7.7695301e-14
1.5580784e-07
-1.2120109e-11
1.5580782e-07
-2.8830723e-11
1.558289e-07
-5.4386953e-11
1.5586874e-07
-9.1152506e-11
1.559201e-07
-1.4134612e-10
1.5597236e-07
-2.0781506e-10
1.5600151e-07
-2.9204564e-10
1.5593933e-07
-3.5481104e-10
1.556451e-07
-3.2794677e-10
1.5486885e-07
1.5318444e-07
3.4043336e-10
1.7536907e-07
3.3680022e-10
1.772959e-07
2.4870469e-10
1.7812061e-07
1.5119749e-10
1.7841122e-07
8.2079728e-11
1.7845347e-07
3.9192038e-11
1.7840896e-07
1.1728026e-11
1.7833922e-07
-2.2827218e-12
1.7827271e-07
-4.4586684e-12
1.7821986e-07
-7.4806085e-14
1.7819164e-07
4.3101059e-12
1.7819163e-07
2.1359139e-12
1.7821983e-07
-1.1867271e-11
1.7827266e-07
-3.9315087e-11
1.7833914e-07
-8.2187128e-11
1.7840888e-07
-1.5127637e-10
1.7845337e-07
-2.48747e-10
1.7841112e-07
-3.3679758e-10
1.7812051e-07
-3.4038379e-10
1.7729582e-07
1.7536902e-07
3.4856342e-10
1.9898593e-07
2.910078e-10
2.0117264e-07
1.794685e-10
2.0201361e-07
7.385705e-11
2.0228268e-07
1.0219139e-11
2.0230038e-07
-2.4251594e-11
2.0223959e-07
-4.1288906e-11
2.021501e-07
-4.1775373e-11
2.0206522e-07
-2.5938474e-11
2.0199472e-07
-7.243501e-14
2.0195588e-07
2.5788239e-11
2.0195588e-07
4.1637439e-11
2.0199468e-07
4.1160528e-11
2.0206516e-07
2.4137197e-11
2.0215003e-07
-1.0309128e-11
2.0223951e-07
-7.391541e-11
2.0230029e-07
-1.7948857e-10
2.0228259e-07
-2.9098375e-10
2.0201351e-07
-3.4850254e-10
2.0117256e-07
1.9898589e-07
3.4267707e-10
2.2436484e-07
2.0281264e-10
2.2679947e-07
6.8200563e-11
2.2762429e-07
-2.7556386e-11
2.2783402e-07
-7.524683e-11
2.27831e-07
-1.0202133e-10
2.277474e-07
-1.0793504e-10
2.2763448e-07
-9.5056162e-11
2.2752902e-07
-5.5497561e-11
2.2742979e-07
-6.3407196e-14
2.2737465e-07
5.5375374e-11
2.2737464e-07
9.4934865e-11
2.2742976e-07
1.0782279e-10
2.2752897e-07
1.0192581e-10
2.2763441e-07
7.5177121e-11
2.2774732e-07
2.7516732e-11
2.2783092e-07
-6.8202362e-11
2.2783393e-07
-2.0278177e-10
2.2762419e-07
-3.4261903e-10
2.2679937e-07
2.2436476e-07
2.8892882e-10
2.5185182e-07
5.9789321e-11
2.5447105e-07
-9.7322962e-11
2.5524224e-07
-1.6005432e-10
2.553226e-07
-1.8339364e-10
2.5527178e-07
-1.9938446e-10
2.5515983e-07
-1.9437454e-10
2.5502325e-07
-1.7204172e-10
2.5489872e-07
-9.8423307e-11
2.5479915e-07
-5.8270601e-14
2.5471859e-07
9.830963e-11
2.5471858e-07
1.7193258e-10
2.5479912e-07
1.9427708e-10
2.5489868e-07
1.9930452e-10
2.5502319e-07
1.8333661e-10
2.5515976e-07
1.6002573e-10
2.552717e-07
9.7325231e-11
2.553225e-07
-5.9759502e-11
2.5524213e-07
-2.8889025e-10
2.5447093e-07
2.518517e-07
1.0202761e-10
2.8164524e-07
-2.25134e-10
2.8431453e-07
-3.8469871e-10
2.8494403e-07
-3.5242062e-10
2.8490792e-07
-3.3042554e-10
2.8480677e-07
-3.2000312e-10
2.8467207e-07
-2.9996382e-10
2.8452449e-07
-2.5445536e-10
2.8437507e-07
-1.595192e-10
2.8425504e-07
-5.4158477e-14
2.8411021e-07
1.5941326e-10
2.841102e-07
2.5435656e-10
2.8425502e-07
2.9987776e-10
2.8437503e-07
3.1993375e-10
2.8452443e-07
3.3037725e-10
2.84672e-07
3.523948e-10
2.8480668e-07
3.846949e-10
2.8490782e-07
2.2514306e-10
2.8494391e-07
-1.0202124e-10
2.8431439e-07
2.816451e-07
-2.582474e-10
3.1611859e-07
-7.0892084e-10
3.1863998e-07
-8.0370027e-10
3.1907891e-07
-6.2804685e-10
3.1887038e-07
-5.1863329e-10
3.187402e-07
-4.6064132e-10
3.1860645e-07
-4.3045369e-10
3.1845379e-07
-3.7078035e-10
3.1826868e-07
-2.5921722e-10
3.1809289e-07
-5.021176e-14
3.1796504e-07
2.59119e-10
3.1796504e-07
3.7069083e-10
3.1809287e-07
4.3037554e-10
3.1826865e-07
4.605777e-10
3.1845375e-07
5.185857e-10
3.1860639e-07
6.280146e-10
3.1874012e-07
8.0368112e-10
3.1887028e-07
7.0890557e-10
3.190788e-07
2.5822671e-10
3.1863985e-07
3.1611848e-07
-9.1691753e-10
3.542228e-07
-1.4521663e-09
3.5598021e-07
-1.4062573e-09
3.5616655e-07
-9.8577018e-10
3.5588039e-07
-7.4481681e-10
3.5581218e-07
-6.2517021e-10
3.5571897e-07
-5.9944142e-10
3.5570105e-07
-5.4865746e-10
3.5548508e-07
-3.4795822e-10
3.5514659e-07
-4.4712567e-14
3.5495426e-07
3.4787086e-10
3.5495426e-07
5.4857673e-10
3.5514659e-07
5.9936953e-10
3.5548507e-07
6.2510924e-10
3.5570103e-07
7.447669e-10
3.5571894e-07
9.8573011e-10
3.5581214e-07
1.4062247e-09
3.5588034e-07
1.4521337e-09
3.5616648e-07
9.1687985e-10
3.5598014e-07
3.5422278e-07
-2.1489267e-09
3.939173e-07
-2.4971101e-09
3.9465867e-07
-2.1059776e-09
3.9500938e-07
-1.3654128e-09
3.9495693e-07
-9.61366e-10
3.9505863e-07
-7.2869476e-10
3.9534891e-07
-7.7534735e-10
3.9543129e-07
-8.6827925e-10
3.9524816e-07
-5.0490542e-10
3.9448084e-07
-3.7066093e-14
3.9428962e-07
5.0483278e-10
3.9428963e-07
8.6821161e-10
3.9448085e-07
7.7528392e-10
3.9524818e-07
7.2863858e-10
3.954313e-07
9.6131597e-10
3.9534892e-07
1.3653692e-09
3.9505864e-07
2.1059398e-09
3.9495694e-07
2.4970723e-09
3.9500939e-07
2.1488878e-09
3.946587e-07
3.9391739e-07
-3.2386177e-09
4.3897441e-07
-3.1451333e-09
4.3696435e-07
-2.4956879e-09
4.367411e-07
-1.5728833e-09
4.3688829e-07
-8.7116923e-10
4.3696977e-07
-6.9117755e-10
4.3699505e-07
-8.9896916e-10
4.3708252e-07
-1.5639203e-09
4.3726785e-07
-6.8967478e-10
4.3630132e-07
-2.8339511e-14
4.3648266e-07
6.8961782e-10
4.3648267e-07
1.5638675e-09
4.3630134e-07
8.9891631e-10
4.3726789e-07
6.9112638e-10
4.3708257e-07
8.7112314e-10
4.3699511e-07
1.5728429e-09
4.3696983e-07
2.4956534e-09
4.3688836e-07
3.1451034e-09
4.3674119e-07
3.238587e-09
4.3696449e-07
4.3897468e-07
-2.1610344e-09
4.3592128e-07
-2.4049113e-09
4.4042163e-07
-1.8888893e-09
4.4311035e-07
-1.2725517e-09
4.4485582e-07
-7.2984659e-10
4.4597428e-07
-5.3195391e-10
4.467004e-07
-8.7637087e-10
4.4749158e-07
-3.1284409e-09
4.4961218e-07
-7.7920401e-10
4.5890706e-07
-2.5452057e-14
4.6080392e-07
7.7915907e-10
4.6080394e-07
3.128401e-09
4.5890714e-07
8.7632016e-10
4.496123e-07
5.3190513e-10
4.4749172e-07
7.2979525e-10
4.4670057e-07
1.2725069e-09
4.4597447e-07
1.8888505e-09
4.4485603e-07
2.4048853e-09
4.431106e-07
2.161037e-09
4.4042196e-07
4.3592182e-07
1.8262737e-08
4.0900645e-07
9.7173194e-09
4.3810719e-07
4.6905532e-09
4.3689333e-07
2.6026664e-09
4.3563531e-07
1.5741363e-09
4.3557004e-07
8.9179912e-10
4.3583869e-07
3.3754516e-11
4.3671131e-07
-1.121428e-09
4.3899228e-07
-4.7009905e-10
4.4591556e-07
-4.4575132e-14
4.4787617e-07
4.7000741e-10
4.478762e-07
1.1213363e-09
4.4591565e-07
-3.3839977e-11
4.3899244e-07
-8.918913e-10
4.3671149e-07
-1.5742306e-09
4.3583891e-07
-2.6027561e-09
4.3557026e-07
-4.6906382e-09
4.3563554e-07
-9.7173883e-09
4.3689358e-07
-1.8262702e-08
4.3810741e-07
4.0900706e-07
6.9058539e-08
3.3929969e-07
6.8329887e-08
4.3765375e-07
5.2343457e-08
4.5146968e-07
3.689798e-08
4.4958346e-07
2.488746e-08
4.4600354e-07
1.5682039e-08
4.4340542e-07
8.4219905e-09
4.4228628e-07
2.729354e-09
4.4296247e-07
1.0074909e-09
4.4585399e-07
-1.9058598e-13
4.4707936e-07
-1.007865e-09
4.4707939e-07
-2.7297356e-09
4.4585409e-07
-8.4223941e-09
4.4296262e-07
-1.568242e-08
4.4228647e-07
-2.4887838e-08
4.4340566e-07
-3.6898315e-08
4.4600372e-07
-5.2343755e-08
4.4958369e-07
-6.8330182e-08
4.5146996e-07
-6.90588e-08
4.3765397e-07
3.3930027e-07
6.7406558e-08
2.7188866e-07
8.7327404e-08
4.1771827e-07
8.1377095e-08
4.5739909e-07
6.6483427e-08
4.6445388e-07
5.0352491e-08
4.6210958e-07
3.5685673e-08
4.580461e-07
2.3177063e-08
4.5476775e-07
1.3045736e-08
4.5306597e-07
5.9100883e-09
4.5296106e-07
-2.0630599e-13
4.5296074e-07
-5.9105198e-09
4.5296075e-07
-1.304619e-08
4.5296111e-07
-2.317754e-08
4.5306606e-07
-3.5686121e-08
4.5476788e-07
-5.0352955e-08
4.5804625e-07
-6.6483834e-08
4.6210969e-07
-8.1377365e-08
4.6445404e-07
-8.7327617e-08
4.5739931e-07
-6.7406773e-08
4.1771858e-07
2.7188929e-07
5.01445e-08
2.2174399e-07
7.6164543e-08
3.9169809e-07
7.9896056e-08
4.5366742e-07
7.1620599e-08
4.7272928e-07
5.8509568e-08
4.752206e-07
4.4408619e-08
4.7214716e-07
3.1078294e-08
4.6809832e-07
1.9246881e-08
4.648977e-07
9.1773721e-09
4.6303098e-07
-1.6304971e-13
4.6213876e-07
-9.1777542e-09
4.6213875e-07
-1.9247258e-08
4.6303097e-07
-3.1078677e-08
4.6489772e-07
-4.4409005e-08
4.6809832e-07
-5.8509923e-08
4.721472e-07
-7.1620905e-08
4.7522062e-07
-7.9896283e-08
4.7272932e-07
-7.6164637e-08
4.5366758e-07
-5.0144578e-08
3.9169842e-07
2.2174468e-07
3.3017425e-08
1.8872655e-07
5.7561884e-08
3.6715363e-07
6.6534772e-08
4.4469454e-07
6.4332906e-08
4.7493115e-07
5.5894565e-08
4.8365901e-07
4.4699606e-08
4.8334224e-07
3.2792417e-08
4.8000573e-07
2.1226907e-08
4.7646351e-07
1.0387308e-08
4.7387092e-07
-1.5846992e-13
4.7252658e-07
-1.038762e-08
4.7252656e-07
-2.1227205e-08
4.7387087e-07
-3.2792723e-08
4.7646342e-07
-4.4699908e-08
4.8000565e-07
-5.5894779e-08
4.8334219e-07
-6.4333102e-08
4.8365897e-07
-6.6534899e-08
4.7493116e-07
-5.7561997e-08
4.4469467e-07
-3.3017551e-08
3.67154e-07
1.8872714e-07
2.0253913e-08
1.6847267e-07
4.0203971e-08
3.4720367e-07
5.0712848e-08
4.3418572e-07
5.2424678e-08
4.7321935e-07
4.8062226e-08
4.8802158e-07
4.0168136e-08
4.9123638e-07
3.0563632e-08
4.8961032e-07
2.0372282e-08
4.8665505e-07
1.0149715e-08
4.8409369e-07
-1.2953238e-13
4.8267659e-07
-1.0149959e-08
4.8267659e-07
-2.0372512e-08
4.8409361e-07
-3.0563871e-08
4.8665491e-07
-4.0168347e-08
4.896102e-07
-4.8062368e-08
4.912363e-07
-5.2424774e-08
4.8802154e-07
-5.0712905e-08
4.7321935e-07
-4.0204002e-08
4.3418586e-07
-2.025396e-08
3.4720402e-07
1.6847321e-07
1.1998279e-08
1.5647451e-07
2.6779955e-08
3.324221e-07
3.6564961e-08
4.2440077e-07
4.014724e-08
4.6963712e-07
3.8616534e-08
4.8955231e-07
3.3546474e-08
4.9630649e-07
2.6322449e-08
4.9683433e-07
1.7954165e-08
4.9502335e-07
9.0716224e-09
4.9297629e-07
-9.8418513e-14
4.9174839e-07
-9.071858e-09
4.9174836e-07
-1.7954366e-08
4.9297621e-07
-2.6322625e-08
4.9502326e-07
-3.3546584e-08
4.9683425e-07
-3.8616628e-08
4.9630641e-07
-4.0147293e-08
4.8955227e-07
-3.6565004e-08
4.6963716e-07
-2.6779974e-08
4.2440093e-07
-1.19983e-08
3.3242243e-07
1.5647496e-07
7.0299957e-09
1.4944462e-07
1.7334064e-08
3.2211809e-07
2.5387337e-08
4.1634752e-07
2.9429146e-08
4.6559532e-07
2.9559496e-08
4.8942193e-07
2.6581362e-08
4.9928456e-07
2.1426266e-08
5.0198937e-07
1.4902864e-08
5.0154665e-07
7.6189626e-09
5.0026011e-07
-9.7405507e-14
4.9936736e-07
-7.619154e-09
4.9936735e-07
-1.4903005e-08
5.0026007e-07
-2.1426382e-08
5.0154659e-07
-2.6581462e-08
5.019893e-07
-2.9559544e-08
4.9928452e-07
-2.942915e-08
4.8942194e-07
-2.5387332e-08
4.6559539e-07
-1.7334058e-08
4.1634774e-07
-7.0299799e-09
3.2211845e-07
1.4944502e-07
4.1160654e-09
1.4532863e-07
1.1006759e-08
3.1522745e-07
1.7135743e-08
4.1021855e-07
2.0858869e-08
4.6187213e-07
2.179222e-08
4.884885e-07
2.0219787e-08
5.0085689e-07
1.6695957e-08
5.0551307e-07
1.181421e-08
5.0642824e-07
6.1019595e-09
5.0597222e-07
-8.4685729e-14
5.0546922e-07
-6.1020844e-09
5.0546923e-07
-1.1814313e-08
5.059722e-07
-1.6696041e-08
5.0642821e-07
-2.0219846e-08
5.0551304e-07
-2.179226e-08
5.0085691e-07
-2.0858851e-08
4.8848859e-07
-1.7135701e-08
4.6187229e-07
-1.1006727e-08
4.1021882e-07
-4.1160402e-09
3.1522782e-07
1.45329e-07
2.4094366e-09
1.4291924e-07
6.8795009e-09
3.1075739e-07
1.129472e-08
4.0580328e-07
1.4371851e-08
4.5879496e-07
1.5568242e-08
4.8729201e-07
1.4866733e-08
5.0155826e-07
1.2548874e-08
5.078308e-07
9.01874e-09
5.0995823e-07
4.7008444e-09
5.1028992e-07
-6.5682408e-14
5.1016995e-07
-4.7009317e-09
5.1016996e-07
-9.0188144e-09
5.1028991e-07
-1.254893e-08
5.0995823e-07
-1.4866768e-08
5.078308e-07
-1.556823e-08
5.0155831e-07
-1.4371826e-08
4.8729212e-07
-1.1294677e-08
4.5879516e-07
-6.8794534e-09
4.0580357e-07
-2.4093984e-09
3.1075779e-07
1.4291961e-07
1.4025465e-09
1.4151673e-07
4.2299035e-09
3.0793e-07
7.2794883e-09
4.0275368e-07
9.6487084e-09
4.5642567e-07
1.0811511e-08
4.8612909e-07
1.0606388e-08
5.0176327e-07
9.1381485e-09
5.0929888e-07
6.6624914e-09
5.1243372e-07
3.5019187e-09
5.1345036e-07
-2.6327736e-14
5.1367174e-07
-3.5019927e-09
5.1367175e-07
-6.6625465e-09
5.1345033e-07
-9.1382006e-09
5.1243372e-07
-1.0606421e-08
5.0929893e-07
-1.0811513e-08
5.0176337e-07
-9.6486769e-09
4.8612928e-07
-7.2794406e-09
4.5642591e-07
-4.2298796e-09
4.0275402e-07
-1.4025013e-09
3.0793039e-07
1.4151708e-07
8.0374458e-10
1.4071299e-07
2.5484257e-09
3.0618525e-07
4.5817504e-09
4.0072035e-07
6.3129457e-09
4.5469443e-07
7.306713e-09
4.8513527e-07
7.3555952e-09
5.0171427e-07
6.4624936e-09
5.1019188e-07
4.776317e-09
5.1411979e-07
2.530426e-09
5.1569611e-07
-1.6971328e-14
5.1620204e-07
-2.5304605e-09
5.1620205e-07
-4.776325e-09
5.1569612e-07
-6.4625004e-09
5.1411982e-07
-7.3556101e-09
5.1019192e-07
-7.3066842e-09
5.0171439e-07
-6.3129218e-09
4.8513545e-07
-4.5817333e-09
4.5469467e-07
-2.5484282e-09
4.0072069e-07
-8.0371808e-10
3.0618569e-07
1.4071334e-07
4.4643388e-10
1.4026656e-07
1.4930508e-09
3.0513859e-07
2.8051906e-09
3.9940818e-07
4.0175764e-09
4.5348199e-07
4.8022475e-09
4.8435055e-07
4.9594609e-09
5.0155707e-07
4.4417952e-09
5.1070946e-07
3.3267927e-09
5.1523474e-07
1.7760643e-09
5.1724675e-07
-3.8587681e-15
5.1797806e-07
-1.7760573e-09
5.1797806e-07
-3.3267685e-09
5.1724674e-07
-4.4418077e-09
5.1523475e-07
-4.9594475e-09
5.107095e-07
-4.802241e-09
5.0155715e-07
-4.0175762e-09
4.8435071e-07
-2.8051813e-09
4.5348227e-07
-1.4930515e-09
3.9940853e-07
-4.4641434e-10
3.0513903e-07
1.4026691e-07
2.3426016e-10
1.400323e-07
8.3964222e-10
3.045332e-07
1.6583311e-09
3.9858944e-07
2.4760892e-09
4.526642e-07
3.0615124e-09
4.8376511e-07
3.2462615e-09
5.0137229e-07
2.9650096e-09
5.1099067e-07
2.2508013e-09
5.1594895e-07
1.2109651e-09
5.1828654e-07
1.7831714e-14
5.1918897e-07
-1.2109396e-09
5.1918898e-07
-2.2507584e-09
5.1828654e-07
-2.9649943e-09
5.1594895e-07
-3.2462556e-09
5.1099071e-07
-3.0614996e-09
5.0137238e-07
-2.4760661e-09
4.8376528e-07
-1.6583341e-09
4.5266446e-07
-8.3961851e-10
3.9858983e-07
-2.342608e-10
3.0453365e-07
1.4003265e-07
1.1030057e-10
1.3992196e-07
4.4271073e-10
3.0420083e-07
9.3420805e-10
3.9809793e-07
1.4662252e-09
4.5213219e-07
1.8836645e-09
4.8334766e-07
2.055956e-09
5.0120001e-07
1.9178184e-09
5.1112884e-07
1.4767256e-09
5.1639004e-07
8.0099678e-10
5.1896227e-07
6.2614265e-15
5.1998994e-07
-8.0096249e-10
5.1998996e-07
-1.4766928e-09
5.1896228e-07
-1.9177755e-09
5.1639004e-07
-2.0559403e-09
5.1112888e-07
-1.8836409e-09
5.0120009e-07
-1.4661937e-09
4.8334781e-07
-9.3420521e-10
4.5213244e-07
-4.4269466e-10
3.9809828e-07
-1.1030913e-10
3.0420126e-07
1.3992232e-07
4.0008337e-11
1.3988194e-07
2.0815054e-10
3.0403272e-07
4.8930301e-10
3.9781677e-07
8.2255685e-10
4.5179897e-07
1.108761e-09
4.8306146e-07
1.2523966e-09
5.0105636e-07
1.1967659e-09
5.1118448e-07
9.363536e-10
5.1665047e-07
5.1248156e-10
5.1938616e-07
2.4978961e-14
5.2050247e-07
-5.124791e-10
5.2050248e-07
-9.3632956e-10
5.1938614e-07
-1.1967534e-09
5.1665046e-07
-1.252402e-09
5.111845e-07
-1.1087528e-09
5.0105643e-07
-8.2253571e-10
4.8306162e-07
-4.8927723e-10
4.5179919e-07
-2.0813556e-10
3.9781712e-07
-4.0012755e-11
3.0403316e-07
1.3988232e-07
1.9696313e-12
1.3987997e-07
7.5216105e-11
3.0395945e-07
2.2570721e-10
3.9766628e-07
4.257163e-10
4.5159894e-07
6.1482247e-10
4.8287235e-07
7.2645264e-10
5.0094474e-07
7.1531734e-10
5.1119563e-07
5.7052325e-10
5.1679528e-07
3.1561931e-10
5.1964111e-07
4.5101104e-15
5.2081808e-07
-3.1560101e-10
5.208181e-07
-5.7049355e-10
5.196411e-07
-7.1530539e-10
5.1679525e-07
-7.2645626e-10
5.1119565e-07
-6.1483212e-10
5.009448e-07
-4.2570952e-10
4.8287252e-07
-2.2570455e-10
4.5159918e-07
-7.52055e-11
3.9766664e-07
-1.9521145e-12
3.0395991e-07
1.3988036e-07
-1.5505625e-11
1.3989543e-07
5.0045296e-12
3.0393895e-07
7.77671e-11
3.9759352e-07
1.9172731e-10
4.5148499e-07
3.1204101e-10
4.8275206e-07
3.9439739e-10
5.0086242e-07
4.046874e-10
5.1118535e-07
3.3098717e-10
5.1686898e-07
1.8558986e-10
5.1978652e-07
1.1802224e-14
5.2100374e-07
-1.8559979e-10
5.2100373e-07
-3.3098613e-10
5.1978651e-07
-4.0468522e-10
5.1686898e-07
-3.9438784e-10
5.1118535e-07
-3.1203761e-10
5.0086247e-07
-1.9170557e-10
4.8275221e-07
-7.7764494e-11
4.5148525e-07
-4.9817009e-12
3.9759391e-07
1.5494068e-11
3.0393942e-07
1.3989585e-07
-2.0495835e-11
1.3991591e-07
-2.6216774e-11
3.0394463e-07
1.9620735e-12
3.9756532e-07
6.2665959e-11
4.5142429e-07
1.3617874e-10
4.8267855e-07
1.9424419e-10
5.0080431e-07
2.1255609e-10
5.1116704e-07
1.8027035e-10
5.1690129e-07
1.0300697e-10
5.198638e-07
-5.922993e-15
5.2110677e-07
-1.0302574e-10
5.2110676e-07
-1.8029413e-10
5.1986379e-07
-2.1257866e-10
5.1690128e-07
-1.9424141e-10
5.1116706e-07
-1.3617501e-10
5.0080441e-07
-6.2652797e-11
4.8267872e-07
-1.9491163e-12
4.5142458e-07
2.6242527e-11
3.9756573e-07
2.0520055e-11
3.0394518e-07
1.3991638e-07
-1.9377314e-11
1.3993527e-07
-3.4327146e-11
3.0395955e-07
-2.9425282e-11
3.9756042e-07
-3.4175284e-13
4.5139521e-07
4.2511061e-11
4.8263568e-07
8.1615586e-11
5.0076523e-07
1.0045506e-10
5.1114815e-07
9.0326314e-11
5.169114e-07
5.3092652e-11
5.1990102e-07
-1.2517346e-14
5.2115987e-07
-5.3122246e-11
5.2115988e-07
-9.0363359e-11
5.1990105e-07
-1.0049837e-10
5.1691144e-07
-8.1618814e-11
5.1114822e-07
-4.2511528e-11
5.0076532e-07
3.6521914e-13
4.8263587e-07
2.9451226e-11
4.5139548e-07
3.435541e-11
3.9756084e-07
1.9385427e-11
3.0396014e-07
1.3993577e-07
-1.5272705e-11
1.3995054e-07
-2.9522601e-11
3.0397375e-07
-3.4041231e-11
3.9756491e-07
-2.2705348e-11
4.5138387e-07
7.0139735e-13
4.826123e-07
2.5492283e-11
5.0074045e-07
4.0955698e-11
5.1113266e-07
4.0795159e-11
5.1691159e-07
2.506317e-11
5.1991675e-07
-2.6671478e-14
5.2118496e-07
-2.5095027e-11
5.2118497e-07
-4.0832724e-11
5.1991678e-07
-4.0990805e-11
5.1691161e-07
-2.5503034e-11
5.1113271e-07
-6.9606754e-13
5.0074056e-07
2.2731315e-11
4.8261247e-07
3.4067005e-11
4.5138415e-07
2.9554185e-11
3.9756535e-07
1.5314185e-11
3.0397435e-07
1.3995108e-07
-9.8868025e-12
-1.9738554e-11
-2.532695e-11
-2.1755882e-11
-9.853068e-12
4.7962805e-12
1.5488237e-11
1.7903878e-11
1.1648706e-11
-2.1510723e-14
-1.1667865e-11
-1.795256e-11
-1.5522226e-11
-4.8137626e-12
9.8615524e-12
2.1766708e-11
2.5365976e-11
1.9782951e-11
9.9099672e-12
)
;

boundaryField
{
    Wall
    {
        type            calculated;
        value           uniform 0;
    }
    frontAndBack
    {
        type            empty;
        value           nonuniform 0();
    }
    atmosphere
    {
        type            calculated;
        value           nonuniform List<scalar> 
20
(
1.399604e-07
3.0398365e-07
3.9757043e-07
4.5138031e-07
4.8260038e-07
5.0072581e-07
5.1112199e-07
5.1690916e-07
5.1992305e-07
5.2119663e-07
5.2119664e-07
5.1992302e-07
5.1690918e-07
5.11122e-07
5.0072589e-07
4.8260054e-07
4.5138059e-07
3.9757091e-07
3.0398423e-07
1.3996096e-07
)
;
    }
}


// ************************************************************************* //
