/*--------------------------------*- C++ -*----------------------------------*\
| =========                 |                                                 |
| \\      /  F ield         | OpenFOAM: The Open Source CFD Toolbox           |
|  \\    /   O peration     | Version:  3.0.1                                 |
|   \\  /    A nd           | Web:      www.OpenFOAM.org                      |
|    \\/     M anipulation  |                                                 |
\*---------------------------------------------------------------------------*/
FoamFile
{
    version     2.0;
    format      ascii;
    class       volScalarField;
    location    "26";
    object      Psi2;
}
// * * * * * * * * * * * * * * * * * * * * * * * * * * * * * * * * * * * * * //

dimensions      [0 -2 2 0 0 0 0];

internalField   nonuniform List<scalar> 
800
(
0.00087621678
0.00087614664
0.00087613732
0.00087613716
0.00087613773
0.00087613812
0.00087613829
0.00087613835
0.00087613838
0.00087613839
0.00087613838
0.00087613838
0.00087613835
0.00087613829
0.00087613811
0.00087613772
0.00087613715
0.0008761373
0.00087614663
0.00087621678
0.00089782905
0.00089673956
0.00089652925
0.00089650096
0.00089650985
0.00089652029
0.00089652627
0.00089652862
0.00089652918
0.00089652918
0.00089652918
0.00089652918
0.00089652863
0.00089652627
0.00089652029
0.00089650986
0.00089650097
0.00089652926
0.00089673958
0.0008978291
0.00091940842
0.00091769954
0.00091721214
0.00091713661
0.0009171419
0.00091715612
0.00091716483
0.00091716811
0.00091716864
0.00091716842
0.00091716842
0.00091716864
0.00091716812
0.00091716484
0.00091715613
0.00091714192
0.00091713663
0.00091721216
0.00091769958
0.00091940849
0.00093852493
0.00093637029
0.00093564421
0.00093553506
0.00093553933
0.00093555737
0.00093556838
0.00093557229
0.00093557269
0.00093557222
0.00093557222
0.0009355727
0.0009355723
0.00093556839
0.00093555739
0.00093553936
0.00093553509
0.00093564424
0.00093637033
0.00093852501
0.00095391755
0.00095150252
0.00095058813
0.00095041808
0.00095042731
0.00095045176
0.00095046613
0.00095047126
0.00095047188
0.00095047131
0.00095047131
0.00095047189
0.00095047128
0.00095046615
0.00095045178
0.00095042733
0.0009504181
0.00095058816
0.00095150256
0.00095391762
0.00096566164
0.00096305776
0.0009619974
0.0009617401
0.00096176119
0.00096179607
0.00096181598
0.0009618237
0.0009618253
0.000961825
0.00096182499
0.0009618253
0.00096182371
0.000961816
0.00096179608
0.00096176121
0.00096174012
0.00096199742
0.00096305778
0.00096566169
0.0009749667
0.00097200611
0.0009708814
0.00097053057
0.00097057058
0.00097062065
0.00097064904
0.00097066128
0.00097066492
0.0009706654
0.0009706654
0.00097066493
0.00097066129
0.00097064906
0.00097062067
0.00097057059
0.00097053058
0.00097088141
0.00097200612
0.00097496673
0.00098388995
0.00098021012
0.00097906287
0.00097862957
0.00097869666
0.00097876726
0.00097880744
0.00097882624
0.00097883307
0.00097883486
0.00097883486
0.00097883308
0.00097882625
0.00097880746
0.00097876727
0.00097869667
0.00097862957
0.00097906287
0.00098021011
0.00098388996
0.00099517882
0.00099016777
0.00098900319
0.00098850486
0.00098850443
0.00098860296
0.00098865798
0.00098868487
0.00098869577
0.00098869927
0.00098869927
0.00098869579
0.00098868489
0.000988658
0.00098860297
0.00098850445
0.00098850486
0.00098900319
0.00099016777
0.00099517883
0.0010124053
0.001004953
0.0010037554
0.001003206
0.001003019
0.0010030076
0.0010030786
0.0010031139
0.0010031294
0.0010031346
0.0010031346
0.0010031294
0.0010031139
0.0010030786
0.0010030076
0.001003019
0.001003206
0.0010037554
0.001004953
0.0010124053
0.0010403345
0.001028889
0.0010273528
0.0010267545
0.0010261355
0.0010258486
0.0010259347
0.0010259769
0.001025998
0.0010260047
0.0010260047
0.001025998
0.001025977
0.0010259347
0.0010258486
0.0010261355
0.0010267545
0.0010273528
0.0010288891
0.0010403346
0.0010855504
0.0010682073
0.0010654443
0.0010648026
0.0010633459
0.0010627083
0.001062803
0.0010628464
0.0010628818
0.0010628889
0.001062889
0.0010628819
0.0010628464
0.0010628031
0.0010627083
0.0010633459
0.0010648027
0.0010654444
0.0010682074
0.0010855506
0.001158247
0.0011322108
0.0011267712
0.0011261402
0.0011235266
0.0011225345
0.0011226185
0.0011226501
0.0011222612
0.0011222729
0.0011222729
0.0011222613
0.0011226501
0.0011226186
0.0011225346
0.0011235267
0.0011261403
0.0011267713
0.0011322109
0.0011582473
0.0012770447
0.0012372336
0.0012271923
0.0012254494
0.0012214114
0.0012200287
0.0012200418
0.0012200133
0.0012189825
0.0012190076
0.0012190076
0.0012189826
0.0012200134
0.001220042
0.0012200288
0.0012214115
0.0012254496
0.0012271925
0.0012372339
0.0012770451
0.0014547134
0.0013929142
0.0013745765
0.0013703201
0.001364407
0.0013625221
0.0013625852
0.0013624772
0.001360585
0.0013593305
0.0013593306
0.0013605851
0.0013624773
0.0013625853
0.0013625222
0.0013644072
0.0013703204
0.0013745768
0.0013929146
0.0014547138
0.0017533103
0.0016576709
0.0016249592
0.001615098
0.0016061104
0.0016033866
0.0016025091
0.0016021869
0.0015989456
0.0015966837
0.0015966837
0.0015989456
0.0016021871
0.0016025093
0.0016033868
0.0016061107
0.0016150983
0.0016249596
0.0016576713
0.0017533106
0.0022305339
0.0020866821
0.0020306165
0.0020140082
0.0020003804
0.0019926586
0.0019895763
0.0019889585
0.0019841081
0.0019814343
0.0019814343
0.0019841082
0.0019889587
0.0019895765
0.0019926588
0.0020003807
0.0020140086
0.0020306169
0.0020866824
0.002230534
0.003018671
0.002805508
0.0027117498
0.0026819406
0.0026612969
0.0026486306
0.0026429787
0.0026418644
0.0026213307
0.0026189233
0.0026189233
0.0026213307
0.0026418645
0.0026429788
0.0026486308
0.0026612972
0.0026819409
0.0027117501
0.002805508
0.00301867
0.0041764018
0.0038151247
0.0036390662
0.0035742345
0.0035410529
0.0035250127
0.0035183258
0.0035176194
0.0035093941
0.0035078808
0.0035078808
0.003509394
0.0035176194
0.0035183257
0.0035250127
0.003541053
0.0035742347
0.0036390663
0.003815124
0.0041763988
0.0059018131
0.0051267851
0.0047945285
0.0046619193
0.0046084187
0.0045928749
0.004591481
0.0045961241
0.0045938028
0.0045948115
0.0045948115
0.0045938026
0.0045961239
0.0045914808
0.0045928747
0.0046084188
0.0046619195
0.0047945284
0.005126784
0.005901807
0.0081013903
0.0066465516
0.0060720013
0.005836882
0.0057523751
0.0057395588
0.0057520837
0.0057703606
0.0057792217
0.0057857872
0.0057857872
0.0057792216
0.0057703605
0.0057520835
0.0057395586
0.0057523754
0.0058368825
0.0060720013
0.0066465502
0.0081013831
0.0098678469
0.0081419376
0.0073520885
0.0070063488
0.0068805058
0.0068645359
0.006890764
0.0069252822
0.0069483918
0.00696227
0.0069622701
0.0069483919
0.0069252825
0.0068907642
0.0068645362
0.0068805067
0.0070063497
0.0073520889
0.0081419364
0.0098678423
0.010671626
0.0093446704
0.0084954282
0.0080784297
0.0079152857
0.00788892
0.0079203939
0.007965121
0.0079989075
0.0080184958
0.0080184961
0.0079989079
0.0079651217
0.0079203947
0.0078889208
0.007915287
0.0080784311
0.008495429
0.0093446696
0.010671625
0.010903151
0.010140486
0.0094007281
0.008979164
0.0087978653
0.0087593024
0.0087866024
0.0088318084
0.0088687538
0.0088901684
0.0088901688
0.0088687545
0.0088318095
0.0087866035
0.0087593036
0.0087978669
0.0089791655
0.009400729
0.010140485
0.010903151
0.01095328
0.010585549
0.01004091
0.0096731835
0.0094978548
0.0094513516
0.0094693038
0.0095073879
0.0095406949
0.0095602123
0.0095602126
0.0095406958
0.0095073891
0.0094693051
0.0094513529
0.0094978562
0.0096731848
0.010040911
0.010585549
0.01095328
0.010962464
0.010803422
0.010451176
0.010166641
0.01001587
0.0099683022
0.0099766061
0.010004424
0.0100305
0.010046032
0.010046032
0.010030501
0.010004425
0.0099766073
0.0099683034
0.010015871
0.010166642
0.010451176
0.010803422
0.010962464
0.010963985
0.01089999
0.010693508
0.010493526
0.01037584
0.010333114
0.010334314
0.010352359
0.010370677
0.010381815
0.010381816
0.010370678
0.01035236
0.010334315
0.010333115
0.01037584
0.010493527
0.010693508
0.01089999
0.010963985
0.01096422
0.010939778
0.01082751
0.010697398
0.010612547
0.010577906
0.010575168
0.010585695
0.010597496
0.010604855
0.010604855
0.010597497
0.010585696
0.010575168
0.010577907
0.010612547
0.010697398
0.01082751
0.010939778
0.01096422
0.010964255
0.010955294
0.010897752
0.010818256
0.010760958
0.010735081
0.010730909
0.01073644
0.010743514
0.010748063
0.010748063
0.010743515
0.01073644
0.010730909
0.010735082
0.010760958
0.010818256
0.010897752
0.010955293
0.010964255
0.01096426
0.010961085
0.010932977
0.010886885
0.010850261
0.010832181
0.01082808
0.010830657
0.010834641
0.010837302
0.010837302
0.010834642
0.010830658
0.010828081
0.010832181
0.010850261
0.010886885
0.010932977
0.010961085
0.01096426
0.010964261
0.01096317
0.010949986
0.010924433
0.010902099
0.010890154
0.010886799
0.010887808
0.010889927
0.01089141
0.01089141
0.010889928
0.010887808
0.010886799
0.010890154
0.010902099
0.010924433
0.010949986
0.01096317
0.010964261
0.010964261
0.010963896
0.010957928
0.010944309
0.01093124
0.010923717
0.010921259
0.010921529
0.010922596
0.010923388
0.010923388
0.010922596
0.01092153
0.010921259
0.010923717
0.01093124
0.010944309
0.010957928
0.010963896
0.010964261
0.010964261
0.010964142
0.010961525
0.010954519
0.010947149
0.010942607
0.010940941
0.010940915
0.010941423
0.010941829
0.010941829
0.010941423
0.010940915
0.010940941
0.010942607
0.010947149
0.010954519
0.010961525
0.010964142
0.010964261
0.010964261
0.010964223
0.010963108
0.010959619
0.010955601
0.01095296
0.010951897
0.010951786
0.010952013
0.010952213
0.010952213
0.010952013
0.010951786
0.010951897
0.01095296
0.010955601
0.010959619
0.010963108
0.010964223
0.010964261
0.010964261
0.010964249
0.010963787
0.010962101
0.010959978
0.010958493
0.010957849
0.010957738
0.010957832
0.010957927
0.010957927
0.010957832
0.010957738
0.010957849
0.010958493
0.010959978
0.010962101
0.010963787
0.010964249
0.010964261
0.010964261
0.010964257
0.010964071
0.010963279
0.010962189
0.010961381
0.010961006
0.010960922
0.010960956
0.010961
0.010961
0.010960956
0.010960922
0.010961006
0.010961381
0.010962189
0.010963279
0.010964071
0.010964257
0.010964261
0.010964261
0.01096426
0.010964186
0.010963824
0.01096328
0.010962853
0.010962643
0.010962587
0.010962597
0.010962616
0.010962616
0.010962597
0.010962587
0.010962643
0.010962853
0.01096328
0.010963824
0.010964186
0.01096426
0.010964261
0.010964261
0.010964261
0.010964232
0.010964071
0.010963806
0.010963587
0.010963473
0.010963439
0.01096344
0.010963448
0.010963448
0.01096344
0.010963439
0.010963473
0.010963587
0.010963806
0.010964071
0.010964232
0.010964261
0.010964261
0.010964261
0.010964261
0.01096425
0.01096418
0.010964054
0.010963945
0.010963885
0.010963865
0.010963864
0.010963867
0.010963867
0.010963864
0.010963865
0.010963885
0.010963945
0.010964054
0.01096418
0.01096425
0.010964261
0.010964261
0.010964261
0.010964261
0.010964257
0.010964227
0.010964169
0.010964115
0.010964085
0.010964074
0.010964073
0.010964074
0.010964074
0.010964073
0.010964074
0.010964085
0.010964115
0.010964169
0.010964227
0.010964257
0.010964261
0.010964261
)
;

boundaryField
{
    Wall
    {
        type            calculated;
        value           nonuniform List<scalar> 
100
(
9.9999997e-21
9.9999997e-21
9.9999997e-21
9.9999997e-21
9.9999997e-21
9.9999997e-21
9.9999997e-21
9.9999997e-21
9.9999997e-21
9.9999997e-21
9.9999997e-21
9.9999997e-21
9.9999997e-21
9.9999997e-21
9.9999997e-21
9.9999997e-21
9.9999998e-21
1e-20
1e-20
1e-20
1e-20
1e-20
1e-20
1e-20
1e-20
1e-20
1e-20
1e-20
1e-20
1e-20
1e-20
1e-20
1e-20
1e-20
1e-20
1e-20
1e-20
1e-20
1e-20
1e-20
9.9999997e-21
9.9999997e-21
9.9999997e-21
9.9999997e-21
9.9999997e-21
9.9999997e-21
9.9999997e-21
9.9999997e-21
9.9999997e-21
9.9999997e-21
9.9999997e-21
9.9999997e-21
9.9999997e-21
9.9999997e-21
9.9999997e-21
9.9999997e-21
9.9999998e-21
1e-20
1e-20
1e-20
1e-20
1e-20
1e-20
1e-20
1e-20
1e-20
1e-20
1e-20
1e-20
1e-20
1e-20
1e-20
1e-20
1e-20
1e-20
1e-20
1e-20
1e-20
1e-20
1e-20
9.9999997e-21
9.9999997e-21
9.9999997e-21
9.9999997e-21
9.9999997e-21
9.9999997e-21
9.9999997e-21
9.9999997e-21
9.9999997e-21
9.9999997e-21
9.9999997e-21
9.9999997e-21
9.9999997e-21
9.9999997e-21
9.9999997e-21
9.9999997e-21
9.9999997e-21
9.9999997e-21
9.9999997e-21
9.9999997e-21
)
;
    }
    frontAndBack
    {
        type            empty;
    }
    atmosphere
    {
        type            calculated;
        value           uniform 1e-20;
    }
}


// ************************************************************************* //
