/*--------------------------------*- C++ -*----------------------------------*\
| =========                 |                                                 |
| \\      /  F ield         | OpenFOAM: The Open Source CFD Toolbox           |
|  \\    /   O peration     | Version:  3.0.1                                 |
|   \\  /    A nd           | Web:      www.OpenFOAM.org                      |
|    \\/     M anipulation  |                                                 |
\*---------------------------------------------------------------------------*/
FoamFile
{
    version     2.0;
    format      ascii;
    class       volScalarField;
    location    "26";
    object      rho;
}
// * * * * * * * * * * * * * * * * * * * * * * * * * * * * * * * * * * * * * //

dimensions      [1 -3 0 0 0 0 0];

internalField   nonuniform List<scalar> 
800
(
87.621682
87.614667
87.613735
87.613719
87.613776
87.613815
87.613832
87.613839
87.613841
87.613842
87.613842
87.613841
87.613839
87.613832
87.613815
87.613775
87.613718
87.613734
87.614667
87.621681
89.782909
89.67396
89.652929
89.6501
89.650988
89.652032
89.652631
89.652866
89.652921
89.652921
89.652921
89.652921
89.652866
89.652631
89.652032
89.650989
89.6501
89.65293
89.673962
89.782913
91.940827
91.769941
91.721201
91.713648
91.714177
91.7156
91.71647
91.716798
91.716851
91.716829
91.716829
91.716851
91.716799
91.716471
91.715601
91.714179
91.71365
91.721204
91.769945
91.940835
93.852412
93.636956
93.56435
93.553436
93.553863
93.555666
93.556767
93.557158
93.557199
93.557151
93.557151
93.557199
93.55716
93.556769
93.555669
93.553865
93.553438
93.564353
93.63696
93.85242
95.391528
95.150047
95.058614
95.041609
95.042532
95.044977
95.046413
95.046926
95.046988
95.046931
95.046931
95.046989
95.046928
95.046415
95.044979
95.042534
95.041612
95.058617
95.15005
95.391535
96.565677
96.305337
96.199314
96.173585
96.175694
96.17918
96.181171
96.181942
96.182102
96.182072
96.182071
96.182103
96.181944
96.181173
96.179182
96.175696
96.173587
96.199316
96.305339
96.565682
97.495783
97.199813
97.087368
97.052287
97.056286
97.061291
97.064129
97.065351
97.065715
97.065763
97.065763
97.065716
97.065353
97.064131
97.061293
97.056287
97.052287
97.087368
97.199814
97.495786
98.387544
98.019708
97.90503
97.861702
97.868408
97.875465
97.879481
97.881359
97.882041
97.88222
97.88222
97.882042
97.88136
97.879482
97.875466
97.868409
97.861702
97.90503
98.019708
98.387545
99.515676
99.014801
98.89842
98.848591
98.848542
98.858389
98.863888
98.866575
98.867664
98.868013
98.868013
98.867665
98.866577
98.86389
98.858391
98.848544
98.848591
98.89842
99.0148
99.515677
101.23734
100.49246
100.37282
100.31788
100.29916
100.29802
100.30512
100.30864
100.31019
100.31071
100.31071
100.31019
100.30865
100.30512
100.29802
100.29917
100.31788
100.37282
100.49246
101.23734
104.02895
102.88494
102.73148
102.67166
102.60974
102.58105
102.58965
102.59387
102.59597
102.59664
102.59664
102.59597
102.59387
102.58965
102.58105
102.60975
102.67166
102.73149
102.88494
104.02896
108.54871
106.81527
106.53918
106.47501
106.32932
106.26555
106.27502
106.27935
106.28289
106.2836
106.2836
106.2829
106.27935
106.27502
106.26556
106.32933
106.47501
106.53918
106.81527
108.54872
115.81517
113.2132
112.66952
112.60643
112.34507
112.24586
112.25426
112.25741
112.21852
112.21969
112.21969
112.21853
112.25742
112.25426
112.24587
112.34508
112.60644
112.66953
113.21321
115.8152
127.68662
123.7097
122.70634
122.53218
122.12846
121.99022
121.99155
121.9887
121.88564
121.88815
121.88815
121.88565
121.98871
121.99156
121.99023
122.12848
122.5322
122.70636
123.70972
127.68666
145.41307
139.25235
137.42307
136.99866
136.40812
136.21998
136.22648
136.2158
136.02674
135.90134
135.90134
136.02674
136.21581
136.22649
136.22
136.40814
136.99868
137.4231
139.25239
145.41311
174.81103
165.47386
162.26087
161.29223
160.40414
160.1371
160.05264
160.02219
159.70013
159.47479
159.4748
159.70013
160.02221
160.05265
160.13712
160.40416
161.29226
162.2609
165.4739
174.81107
204.90851
199.95454
196.65897
195.74721
194.83341
194.29405
194.11586
194.12347
193.71417
193.47915
193.47916
193.71418
194.1235
194.1159
194.2941
194.83348
195.74729
196.65906
199.95467
204.90879
100.07464
128.38983
138.0083
142.32505
144.92549
146.32633
147.27788
147.93631
147.45586
147.5906
147.59063
147.45597
147.93648
147.27811
146.32662
144.92583
142.32544
138.00875
128.39039
100.07543
10.408721
17.615382
21.137647
22.7725
23.904346
24.600067
25.053374
25.33703
25.546323
25.641885
25.641898
25.546368
25.337096
25.053467
24.600179
23.904471
22.772637
21.137794
17.615537
10.408859
1.3070615
1.4956243
1.618769
1.6756133
1.7169381
1.7448021
1.7635078
1.7750597
1.7849973
1.7889999
1.7890004
1.7849992
1.7750624
1.7635116
1.7448066
1.7169429
1.6756184
1.6187741
1.4956288
1.3070641
1.2000702
1.2004694
1.2008449
1.2010144
1.2011283
1.2012061
1.2012583
1.2012899
1.2013195
1.2013303
1.2013303
1.2013195
1.2012899
1.2012583
1.2012061
1.2011283
1.2010144
1.2008449
1.2004694
1.2000702
1.2000003
1.2000003
1.2000003
1.2000003
1.2000003
1.2000004
1.2000004
1.2000004
1.2000004
1.2000004
1.2000004
1.2000004
1.2000004
1.2000004
1.2000004
1.2000003
1.2000003
1.2000003
1.2000003
1.2000003
1.2000001
1.2000003
1.2000003
1.2000003
1.2000004
1.2000004
1.2000004
1.2000004
1.2000004
1.2000004
1.2000004
1.2000004
1.2000004
1.2000004
1.2000004
1.2000004
1.2000003
1.2000003
1.2000003
1.2000001
1.2
1.2000002
1.2000003
1.2000004
1.2000004
1.2000005
1.2000005
1.2000005
1.2000005
1.2000005
1.2000005
1.2000005
1.2000005
1.2000005
1.2000005
1.2000004
1.2000004
1.2000003
1.2000002
1.2
1.2
1.2000001
1.2000003
1.2000004
1.2000005
1.2000005
1.2000005
1.2000005
1.2000005
1.2000005
1.2000005
1.2000005
1.2000005
1.2000005
1.2000005
1.2000005
1.2000004
1.2000003
1.2000001
1.2
1.2
1.2000001
1.2000002
1.2000003
1.2000004
1.2000005
1.2000005
1.2000005
1.2000005
1.2000005
1.2000005
1.2000005
1.2000005
1.2000005
1.2000005
1.2000004
1.2000003
1.2000002
1.2000001
1.2
1.2
1.2
1.2000002
1.2000003
1.2000004
1.2000004
1.2000004
1.2000004
1.2000004
1.2000004
1.2000004
1.2000004
1.2000004
1.2000004
1.2000004
1.2000004
1.2000003
1.2000002
1.2
1.2
1.2
1.2
1.2000001
1.2000002
1.2000003
1.2000003
1.2000004
1.2000004
1.2000004
1.2000003
1.2000003
1.2000004
1.2000004
1.2000004
1.2000003
1.2000003
1.2000002
1.2000001
1.2
1.2
1.2
1.2
1.2000001
1.2000002
1.2000002
1.2000003
1.2000003
1.2000003
1.2000003
1.2000003
1.2000003
1.2000003
1.2000003
1.2000003
1.2000003
1.2000002
1.2000002
1.2000001
1.2
1.2
1.2
1.2
1.2
1.2000001
1.2000002
1.2000002
1.2000002
1.2000002
1.2000002
1.2000002
1.2000002
1.2000002
1.2000002
1.2000002
1.2000002
1.2000002
1.2000001
1.2
1.2
1.2
1.2
1.2
1.2
1.2000001
1.2000001
1.2000001
1.2000001
1.2000002
1.2000002
1.2000001
1.2000001
1.2000002
1.2000002
1.2000001
1.2000001
1.2000001
1.2000001
1.2
1.2
1.2
1.2
1.2
1.2
1.2
1.2000001
1.2000001
1.2000001
1.2000001
1.2000001
1.2000001
1.2000001
1.2000001
1.2000001
1.2000001
1.2000001
1.2000001
1.2
1.2
1.2
1.2
1.2
1.2
1.2
1.2
1.2
1.2000001
1.2000001
1.2000001
1.2000001
1.2000001
1.2000001
1.2000001
1.2000001
1.2000001
1.2000001
1.2
1.2
1.2
1.2
1.2
1.2
1.2
1.2
1.2
1.2
1.2
1.2
1.2
1.2
1.2
1.2
1.2
1.2
1.2
1.2
1.2
1.2
1.2
1.2
1.2
1.2
1.2
1.2
1.2
1.2
1.2
1.2
1.2
1.2
1.2
1.2
1.2
1.2
1.2
1.2
1.2
1.2
1.2
1.2
1.2
1.2
1.2
1.2
1.2
1.2
1.2
1.2
1.2
1.2
1.2
1.2
1.2
1.2
1.2
1.2
1.2
1.2
1.2
1.2
1.2
1.2
1.2
1.2
1.2
1.2
1.2
1.2
1.2
1.2
1.2
1.2
1.2
1.2
1.2
1.2
1.2
1.2
1.2
1.2
1.2
1.2
1.2
1.2
1.2
1.2
1.2
1.2
1.2
1.2
1.2
1.2
1.2
1.2
1.2
1.2
1.2
1.2
1.2
1.2
1.2
1.2
1.2
1.2
1.2
1.2
1.2
1.2
1.2
1.2
1.2
1.2
1.2
1.2
1.2
1.2
1.2
1.2
1.2
1.2
1.2
1.2
1.2
1.2
1.2
1.2
1.2
1.2
1.2
1.2
1.2
1.2
1.2
1.2
1.2
1.2
1.2
1.2
1.2
1.2
1.2
)
;

boundaryField
{
    Wall
    {
        type            calculated;
        value           nonuniform List<scalar> 
100
(
1e-15
2.4495614e-12
2.4040032e-07
1.0901878e-06
2.9444511e-06
6.1744191e-06
1.1096383e-05
1.7959396e-05
2.6968291e-05
3.8352702e-05
5.2522381e-05
7.0869318e-05
9.9790382e-05
0.00016935211
0.00048475562
0.0035835206
0.098145259
0.80537896
1.1734645
1.1997819
1.1999999
1.2
1.2
1.2
1.2
1.2
1.2
1.2
1.2
1.2
1.2
1.2
1.2
1.2
1.2
1.2
1.2
1.2
1.2
1.2
1e-15
1.1672107e-14
2.4040037e-07
1.0901922e-06
2.944461e-06
6.1744323e-06
1.1096395e-05
1.7959402e-05
2.6968292e-05
3.8352705e-05
5.2522394e-05
7.0869345e-05
9.9790405e-05
0.00016935195
0.00048475333
0.0035834786
0.098143804
0.80537567
1.173464
1.1997819
1.1999999
1.2
1.2
1.2
1.2
1.2
1.2
1.2
1.2
1.2
1.2
1.2
1.2
1.2
1.2
1.2
1.2
1.2
1.2
1.2
1e-15
1e-15
1.0000005e-15
1.000001e-15
1e-15
1.0000013e-15
1.0000011e-15
1.0000001e-15
1e-15
1e-15
1e-15
1e-15
1e-15
1.0000001e-15
1.0000001e-15
1e-15
1e-15
1e-15
1e-15
1e-15
)
;
    }
    frontAndBack
    {
        type            empty;
    }
    atmosphere
    {
        type            calculated;
        value           nonuniform List<scalar> 
20
(
1.2
1.2
1.2
1.2
1.2
1.2
1.2
1.2
1.2
1.2
1.2
1.2
1.2
1.2
1.2
1.2
1.2
1.2
1.2
1.2
)
;
    }
}


// ************************************************************************* //
