/*--------------------------------*- C++ -*----------------------------------*\
| =========                 |                                                 |
| \\      /  F ield         | OpenFOAM: The Open Source CFD Toolbox           |
|  \\    /   O peration     | Version:  3.0.1                                 |
|   \\  /    A nd           | Web:      www.OpenFOAM.org                      |
|    \\/     M anipulation  |                                                 |
\*---------------------------------------------------------------------------*/
FoamFile
{
    version     2.0;
    format      ascii;
    class       volScalarField;
    location    "26";
    object      rho_foam;
}
// * * * * * * * * * * * * * * * * * * * * * * * * * * * * * * * * * * * * * //

dimensions      [1 -3 0 0 0 0 0];

internalField   nonuniform List<scalar> 
800
(
87.621682
87.614667
87.613735
87.613719
87.613776
87.613815
87.613832
87.613839
87.613841
87.613842
87.613842
87.613841
87.613839
87.613832
87.613815
87.613775
87.613718
87.613734
87.614667
87.621681
89.782909
89.67396
89.652929
89.6501
89.650988
89.652032
89.652631
89.652866
89.652921
89.652921
89.652921
89.652921
89.652866
89.652631
89.652032
89.650989
89.6501
89.65293
89.673962
89.782913
91.940845
91.769958
91.721217
91.713664
91.714193
91.715616
91.716487
91.716814
91.716867
91.716845
91.716845
91.716868
91.716815
91.716487
91.715617
91.714195
91.713666
91.72122
91.769961
91.940853
93.852496
93.637032
93.564424
93.55351
93.553937
93.555741
93.556841
93.557233
93.557273
93.557226
93.557226
93.557273
93.557234
93.556843
93.555743
93.553939
93.553512
93.564427
93.637037
93.852504
95.391759
95.150255
95.058817
95.041811
95.042734
95.04518
95.046617
95.04713
95.047192
95.047135
95.047135
95.047192
95.047131
95.046618
95.045182
95.042737
95.041814
95.05882
95.150259
95.391766
96.566168
96.305779
96.199744
96.174014
96.176123
96.17961
96.181601
96.182373
96.182533
96.182503
96.182503
96.182534
96.182375
96.181603
96.179612
96.176125
96.174015
96.199745
96.305782
96.566172
97.496674
97.200614
97.088143
97.05306
97.057061
97.062069
97.064908
97.066131
97.066496
97.066543
97.066543
97.066496
97.066133
97.064909
97.06207
97.057063
97.053061
97.088144
97.200615
97.496676
98.388998
98.021015
97.906291
97.86296
97.869669
97.87673
97.880748
97.882627
97.88331
97.88349
97.88349
97.883311
97.882629
97.880749
97.876731
97.869671
97.86296
97.906291
98.021015
98.388999
99.517885
99.016781
98.900322
98.85049
98.850447
98.860299
98.865801
98.868491
98.869581
98.869931
98.869931
98.869582
98.868493
98.865803
98.860301
98.850448
98.85049
98.900322
99.01678
99.517886
101.24053
100.49531
100.37554
100.3206
100.3019
100.30076
100.30787
100.31139
100.31294
100.31346
100.31347
100.31294
100.31139
100.30787
100.30076
100.3019
100.3206
100.37554
100.49531
101.24053
104.03346
102.88891
102.73528
102.67545
102.61355
102.58486
102.59347
102.5977
102.5998
102.60047
102.60047
102.5998
102.5977
102.59348
102.58487
102.61355
102.67546
102.73529
102.88891
104.03346
108.55505
106.82073
106.54444
106.48027
106.33459
106.27083
106.2803
106.28464
106.28819
106.2889
106.2889
106.28819
106.28465
106.28031
106.27083
106.3346
106.48027
106.54444
106.82074
108.55506
115.8247
113.22108
112.67713
112.61402
112.35266
112.25345
112.26186
112.26501
112.22612
112.2273
112.2273
112.22613
112.26502
112.26186
112.25346
112.35267
112.61403
112.67714
113.2211
115.82473
127.70448
123.72337
122.71923
122.54495
122.14114
122.00287
122.00419
122.00134
121.89826
121.90077
121.90077
121.89826
122.00135
122.0042
122.00288
122.14116
122.54496
122.71926
123.72339
127.70451
145.47135
139.29143
137.45765
137.03202
136.44071
136.25221
136.25852
136.24772
136.05851
135.93306
135.93306
136.05851
136.24774
136.25854
136.25223
136.44073
137.03204
137.45768
139.29146
145.47139
175.33103
165.76709
162.49593
161.5098
160.61104
160.33866
160.25091
160.2187
159.89456
159.66837
159.66837
159.89457
160.21871
160.25093
160.33868
160.61107
161.50983
162.49596
165.76713
175.33107
223.0534
208.66821
203.06165
201.40083
200.03804
199.26586
198.95764
198.89586
198.41082
198.14343
198.14344
198.41082
198.89587
198.95765
199.26588
200.03807
201.40086
203.06169
208.66825
223.0534
301.8671
280.5508
271.17498
268.19406
266.1297
264.86306
264.29787
264.18644
262.13307
261.89234
261.89234
262.13307
264.18645
264.29789
264.86308
266.12972
268.1941
271.17501
280.5508
301.86701
417.64018
381.51247
363.90662
357.42345
354.10529
352.50127
351.83258
351.76194
350.93941
350.78808
350.78808
350.9394
351.76194
351.83257
352.50127
354.1053
357.42347
363.90663
381.5124
417.63988
590.18131
512.67852
479.45285
466.19194
460.84187
459.2875
459.1481
459.61241
459.38028
459.48115
459.48115
459.38026
459.61239
459.14808
459.28748
460.84188
466.19195
479.45284
512.6784
590.18071
810.13903
664.65516
607.20013
583.6882
575.23751
573.95588
575.20837
577.03606
577.92217
578.57872
578.57872
577.92216
577.03605
575.20835
573.95586
575.23754
583.68825
607.20013
664.65503
810.13831
986.78469
814.19376
735.20885
700.63488
688.05058
686.45359
689.0764
692.52822
694.83918
696.227
696.22701
694.83919
692.52825
689.07642
686.45362
688.05067
700.63497
735.20889
814.19364
986.78423
1067.1626
934.46704
849.54282
807.84298
791.52857
788.892
792.0394
796.5121
799.89075
801.84958
801.84961
799.89079
796.51217
792.03947
788.89208
791.52871
807.84311
849.5429
934.46696
1067.1625
1090.3151
1014.0486
940.07281
897.9164
879.78653
875.93024
878.66024
883.18084
886.87538
889.01684
889.01688
886.87546
883.18095
878.66036
875.93037
879.78669
897.91655
940.0729
1014.0485
1090.3151
1095.328
1058.5549
1004.091
967.31835
949.78548
945.13516
946.93038
950.73879
954.06949
956.02123
956.02126
954.06958
950.73891
946.93051
945.13529
949.78562
967.31848
1004.0911
1058.5549
1095.328
1096.2464
1080.3422
1045.1176
1016.6641
1001.587
996.83023
997.66061
1000.4424
1003.05
1004.6032
1004.6032
1003.0501
1000.4425
997.66073
996.83034
1001.5871
1016.6642
1045.1176
1080.3422
1096.2464
1096.3985
1089.999
1069.3508
1049.3526
1037.584
1033.3114
1033.4314
1035.2359
1037.0677
1038.1815
1038.1816
1037.0678
1035.236
1033.4315
1033.3115
1037.584
1049.3527
1069.3508
1089.999
1096.3985
1096.422
1093.9778
1082.751
1069.7398
1061.2547
1057.7906
1057.5168
1058.5695
1059.7496
1060.4855
1060.4855
1059.7497
1058.5696
1057.5168
1057.7907
1061.2547
1069.7398
1082.751
1093.9778
1096.422
1096.4255
1095.5294
1089.7752
1081.8256
1076.0958
1073.5081
1073.0909
1073.644
1074.3514
1074.8063
1074.8063
1074.3515
1073.644
1073.0909
1073.5082
1076.0958
1081.8256
1089.7752
1095.5294
1096.4255
1096.426
1096.1085
1093.2977
1088.6885
1085.0261
1083.2181
1082.808
1083.0657
1083.4641
1083.7302
1083.7302
1083.4642
1083.0658
1082.8081
1083.2181
1085.0261
1088.6885
1093.2977
1096.1085
1096.426
1096.4261
1096.317
1094.9986
1092.4433
1090.2099
1089.0154
1088.6799
1088.7808
1088.9927
1089.141
1089.141
1088.9928
1088.7808
1088.6799
1089.0154
1090.2099
1092.4433
1094.9986
1096.317
1096.4261
1096.4261
1096.3896
1095.7928
1094.4309
1093.124
1092.3717
1092.1259
1092.1529
1092.2596
1092.3388
1092.3388
1092.2596
1092.153
1092.1259
1092.3717
1093.124
1094.4309
1095.7928
1096.3896
1096.4261
1096.4261
1096.4142
1096.1525
1095.4519
1094.7149
1094.2607
1094.0941
1094.0915
1094.1423
1094.1829
1094.1829
1094.1423
1094.0915
1094.0941
1094.2607
1094.7149
1095.4519
1096.1525
1096.4142
1096.4261
1096.4261
1096.4223
1096.3108
1095.9619
1095.5601
1095.296
1095.1897
1095.1786
1095.2013
1095.2213
1095.2213
1095.2013
1095.1786
1095.1897
1095.296
1095.5601
1095.9619
1096.3108
1096.4223
1096.4261
1096.4261
1096.4249
1096.3787
1096.2101
1095.9978
1095.8493
1095.7849
1095.7738
1095.7832
1095.7927
1095.7927
1095.7832
1095.7738
1095.7849
1095.8493
1095.9978
1096.2101
1096.3787
1096.4249
1096.4261
1096.4261
1096.4257
1096.4071
1096.3279
1096.2189
1096.1381
1096.1006
1096.0922
1096.0956
1096.1
1096.1
1096.0956
1096.0922
1096.1006
1096.1381
1096.2189
1096.3279
1096.4071
1096.4257
1096.4261
1096.4261
1096.426
1096.4186
1096.3824
1096.328
1096.2853
1096.2643
1096.2587
1096.2597
1096.2616
1096.2616
1096.2597
1096.2587
1096.2643
1096.2853
1096.328
1096.3824
1096.4186
1096.426
1096.4261
1096.4261
1096.4261
1096.4232
1096.4071
1096.3806
1096.3587
1096.3473
1096.3439
1096.344
1096.3448
1096.3448
1096.344
1096.3439
1096.3473
1096.3587
1096.3806
1096.4071
1096.4232
1096.4261
1096.4261
1096.4261
1096.4261
1096.425
1096.418
1096.4054
1096.3945
1096.3885
1096.3865
1096.3864
1096.3867
1096.3867
1096.3864
1096.3865
1096.3885
1096.3945
1096.4054
1096.418
1096.425
1096.4261
1096.4261
1096.4261
1096.4261
1096.4257
1096.4227
1096.4169
1096.4115
1096.4085
1096.4074
1096.4073
1096.4074
1096.4074
1096.4073
1096.4074
1096.4085
1096.4115
1096.4169
1096.4227
1096.4257
1096.4261
1096.4261
)
;

boundaryField
{
    Wall
    {
        type            zeroGradient;
    }
    frontAndBack
    {
        type            empty;
    }
    atmosphere
    {
        type            zeroGradient;
    }
}


// ************************************************************************* //
