/*--------------------------------*- C++ -*----------------------------------*\
| =========                 |                                                 |
| \\      /  F ield         | OpenFOAM: The Open Source CFD Toolbox           |
|  \\    /   O peration     | Version:  3.0.1                                 |
|   \\  /    A nd           | Web:      www.OpenFOAM.org                      |
|    \\/     M anipulation  |                                                 |
\*---------------------------------------------------------------------------*/
FoamFile
{
    version     2.0;
    format      ascii;
    class       volScalarField;
    location    "26";
    object      thermalDiffusivity;
}
// * * * * * * * * * * * * * * * * * * * * * * * * * * * * * * * * * * * * * //

dimensions      [0 2 -1 0 0 0 0];

internalField   nonuniform List<scalar> 
800
(
1.2458336e-07
1.2458886e-07
1.2458959e-07
1.2458961e-07
1.2458956e-07
1.2458953e-07
1.2458952e-07
1.2458951e-07
1.2458951e-07
1.2458951e-07
1.2458951e-07
1.2458951e-07
1.2458951e-07
1.2458952e-07
1.2458953e-07
1.2458956e-07
1.2458961e-07
1.245896e-07
1.2458887e-07
1.2458336e-07
1.2291354e-07
1.2299537e-07
1.2301115e-07
1.2301325e-07
1.2301258e-07
1.230118e-07
1.2301135e-07
1.2301118e-07
1.2301115e-07
1.2301116e-07
1.2301115e-07
1.2301115e-07
1.2301118e-07
1.2301135e-07
1.230118e-07
1.2301258e-07
1.2301325e-07
1.2301114e-07
1.2299537e-07
1.2291354e-07
1.2139047e-07
1.215072e-07
1.2154068e-07
1.2154583e-07
1.2154547e-07
1.2154456e-07
1.2154403e-07
1.2154387e-07
1.2154388e-07
1.2154392e-07
1.2154391e-07
1.2154388e-07
1.2154387e-07
1.2154403e-07
1.2154456e-07
1.2154547e-07
1.2154582e-07
1.2154067e-07
1.215072e-07
1.2139047e-07
1.2026161e-07
1.2038443e-07
1.2042797e-07
1.2043457e-07
1.2043449e-07
1.2043372e-07
1.2043337e-07
1.2043338e-07
1.2043353e-07
1.2043365e-07
1.2043365e-07
1.2043353e-07
1.2043338e-07
1.2043337e-07
1.2043372e-07
1.2043449e-07
1.2043457e-07
1.2042796e-07
1.2038443e-07
1.2026161e-07
1.1967621e-07
1.1976871e-07
1.1981206e-07
1.1982144e-07
1.1982159e-07
1.1982128e-07
1.198214e-07
1.1982181e-07
1.1982222e-07
1.1982247e-07
1.1982247e-07
1.1982222e-07
1.1982181e-07
1.198214e-07
1.1982128e-07
1.1982159e-07
1.1982144e-07
1.1981206e-07
1.1976871e-07
1.1967621e-07
1.1968877e-07
1.1971416e-07
1.1974469e-07
1.1975809e-07
1.1975879e-07
1.1975943e-07
1.1976044e-07
1.1976148e-07
1.1976231e-07
1.1976276e-07
1.1976276e-07
1.1976231e-07
1.1976148e-07
1.1976044e-07
1.1975943e-07
1.1975879e-07
1.1975809e-07
1.1974468e-07
1.1971416e-07
1.1968877e-07
1.2027988e-07
1.2020831e-07
1.2020579e-07
1.2022338e-07
1.2022562e-07
1.2022799e-07
1.2023041e-07
1.2023239e-07
1.2023381e-07
1.2023452e-07
1.2023452e-07
1.2023381e-07
1.2023239e-07
1.2023041e-07
1.2022799e-07
1.2022563e-07
1.2022338e-07
1.2020579e-07
1.2020831e-07
1.2027988e-07
1.2137581e-07
1.2118151e-07
1.2112077e-07
1.2114174e-07
1.2114692e-07
1.2115226e-07
1.2115671e-07
1.2115995e-07
1.2116213e-07
1.2116318e-07
1.2116318e-07
1.2116213e-07
1.2115995e-07
1.2115671e-07
1.2115226e-07
1.2114693e-07
1.2114174e-07
1.2112076e-07
1.2118151e-07
1.2137581e-07
1.2286383e-07
1.2252549e-07
1.2237469e-07
1.2239812e-07
1.2241469e-07
1.2242393e-07
1.2243094e-07
1.224357e-07
1.2243883e-07
1.2244026e-07
1.2244026e-07
1.2243883e-07
1.224357e-07
1.2243094e-07
1.2242393e-07
1.2241469e-07
1.2239812e-07
1.2237468e-07
1.2252549e-07
1.2286383e-07
1.2460528e-07
1.2410547e-07
1.2383153e-07
1.238582e-07
1.2389571e-07
1.2391839e-07
1.2392834e-07
1.2393483e-07
1.2393906e-07
1.2394093e-07
1.2394092e-07
1.2393906e-07
1.2393483e-07
1.2392834e-07
1.2391839e-07
1.2389571e-07
1.238582e-07
1.2383153e-07
1.2410548e-07
1.2460528e-07
1.264702e-07
1.2573782e-07
1.2535892e-07
1.2539279e-07
1.2546633e-07
1.2551216e-07
1.2552535e-07
1.255336e-07
1.2553968e-07
1.2554205e-07
1.2554204e-07
1.2553968e-07
1.255336e-07
1.2552535e-07
1.2551215e-07
1.2546632e-07
1.2539278e-07
1.2535891e-07
1.2573782e-07
1.264702e-07
1.2854103e-07
1.2731783e-07
1.2694478e-07
1.2698552e-07
1.2711209e-07
1.2718223e-07
1.271985e-07
1.2720787e-07
1.2721461e-07
1.2721747e-07
1.2721746e-07
1.2721461e-07
1.2720787e-07
1.271985e-07
1.2718222e-07
1.2711209e-07
1.2698551e-07
1.2694477e-07
1.2731782e-07
1.2854103e-07
1.320775e-07
1.2957496e-07
1.2920568e-07
1.2921175e-07
1.2937574e-07
1.2945599e-07
1.2947093e-07
1.2947836e-07
1.2950681e-07
1.2951137e-07
1.2951137e-07
1.2950681e-07
1.2947836e-07
1.2947092e-07
1.2945597e-07
1.2937573e-07
1.2921174e-07
1.2920566e-07
1.2957495e-07
1.320775e-07
1.4388353e-07
1.3691474e-07
1.3577688e-07
1.3557577e-07
1.3564088e-07
1.3565886e-07
1.3564345e-07
1.3562623e-07
1.3564894e-07
1.3565012e-07
1.3565012e-07
1.3564893e-07
1.3562622e-07
1.3564343e-07
1.3565884e-07
1.3564086e-07
1.3557574e-07
1.3577685e-07
1.3691471e-07
1.4388348e-07
2.1178468e-07
1.797831e-07
1.722085e-07
1.7007671e-07
1.6896567e-07
1.6838736e-07
1.6801456e-07
1.677819e-07
1.676007e-07
1.6759321e-07
1.6759319e-07
1.6760066e-07
1.6778185e-07
1.6801448e-07
1.6838725e-07
1.6896554e-07
1.7007656e-07
1.7220833e-07
1.7978286e-07
2.1178413e-07
9.0209555e-07
5.8060353e-07
4.9386836e-07
4.6713005e-07
4.5136627e-07
4.4317212e-07
4.3774888e-07
4.3485646e-07
4.3205637e-07
4.3111972e-07
4.3111959e-07
4.3205592e-07
4.3485582e-07
4.3774794e-07
4.4317097e-07
4.5136489e-07
4.6712845e-07
4.9386625e-07
5.8060022e-07
9.0208611e-07
2.1518394e-05
1.110466e-05
8.4149857e-06
7.5066958e-06
6.9677815e-06
6.6870403e-06
6.5262718e-06
6.4378094e-06
6.367002e-06
6.333047e-06
6.333043e-06
6.3669881e-06
6.4377892e-06
6.5262428e-06
6.6870048e-06
6.9677352e-06
7.5066408e-06
8.414917e-06
1.1104544e-05
2.1518076e-05
0.00025714692
0.00025719429
0.00012694999
0.00012138472
0.00011784184
0.00011583665
0.00011463389
0.00011397501
0.0001135082
0.00011328149
0.00011328146
0.00011350809
0.00011397485
0.00011463367
0.00011583637
0.00011784152
0.00012138436
0.00012694957
0.00025719429
0.00025714692
0.00025425569
0.00025430576
0.00025438766
0.00025448041
0.00025456872
0.000254645
0.00025471051
0.00025475952
0.00025472622
0.00025474277
0.00025474277
0.00025472622
0.00025475952
0.00025471051
0.00025464499
0.00025456872
0.00025448041
0.00025438765
0.00025430576
0.00025425569
0.00025156202
0.00025163289
0.00025172326
0.00025181796
0.00025190692
0.00025198423
0.00025204782
0.00025209404
0.000252113
0.00025212702
0.00025212702
0.000252113
0.00025209404
0.00025204782
0.00025198423
0.00025190691
0.00025181796
0.00025172326
0.00025163289
0.00025156201
0.00024906993
0.00024917453
0.00024928965
0.00024939745
0.00024949246
0.00024957234
0.00024963623
0.00024968326
0.00024971221
0.00024972717
0.00024972717
0.00024971221
0.00024968326
0.00024963623
0.00024957234
0.00024949246
0.00024939745
0.00024928965
0.00024917452
0.00024906993
0.00024679585
0.00024692737
0.00024707068
0.00024719816
0.00024730465
0.00024739038
0.00024745671
0.00024750493
0.00024753598
0.00024755136
0.00024755136
0.00024753598
0.00024750493
0.00024745671
0.00024739037
0.00024730464
0.00024719815
0.00024707068
0.00024692736
0.00024679585
0.000244743
0.00024488921
0.00024505455
0.0002452014
0.00024532156
0.00024541571
0.00024548666
0.00024553724
0.00024556964
0.00024558548
0.00024558548
0.00024556964
0.00024553724
0.00024548666
0.00024541571
0.00024532156
0.0002452014
0.00024505455
0.0002448892
0.000244743
0.00024290215
0.00024305243
0.00024323046
0.00024339194
0.00024352455
0.00024362771
0.00024370452
0.00024375858
0.0002437929
0.00024380956
0.00024380956
0.0002437929
0.00024375858
0.00024370452
0.00024362771
0.00024352455
0.00024339194
0.00024323046
0.00024305243
0.00024290214
0.00024125727
0.00024140448
0.0002415865
0.00024175626
0.00024189788
0.00024200878
0.00024209139
0.00024214937
0.00024218605
0.00024220379
0.00024220379
0.00024218605
0.00024214937
0.00024209139
0.00024200878
0.00024189788
0.00024175626
0.00024158649
0.00024140448
0.00024125727
0.00023979007
0.00023993013
0.00024010948
0.00024028145
0.00024042781
0.00024054399
0.00024063124
0.00024069275
0.00024073173
0.00024075061
0.00024075061
0.00024073173
0.00024069275
0.00024063124
0.00024054399
0.00024042781
0.00024028145
0.00024010948
0.00023993013
0.00023979007
0.00023848253
0.00023861341
0.00023878563
0.00023895485
0.00023910181
0.00023922033
0.00023931042
0.00023937445
0.00023941527
0.00023943508
0.00023943508
0.00023941527
0.00023937445
0.00023931042
0.00023922033
0.00023910181
0.00023895485
0.00023878563
0.00023861341
0.00023848254
0.00023731809
0.00023743896
0.00023760135
0.00023776418
0.00023790822
0.00023802625
0.00023811712
0.00023818237
0.00023822425
0.00023824467
0.00023824467
0.00023822425
0.00023818237
0.00023811712
0.00023802625
0.00023790822
0.00023776418
0.00023760135
0.00023743896
0.0002373181
0.00023628199
0.0002363927
0.00023654377
0.00023669777
0.00023683619
0.00023695127
0.00023704099
0.00023710608
0.00023714815
0.00023716876
0.00023716876
0.00023714815
0.00023710608
0.000237041
0.00023695127
0.00023683619
0.00023669777
0.00023654377
0.0002363927
0.000236282
0.00023536137
0.0002354621
0.00023560119
0.00023574486
0.00023587574
0.00023598595
0.00023607286
0.0002361365
0.00023617793
0.00023619832
0.00023619832
0.00023617793
0.0002361365
0.00023607286
0.00023598595
0.00023587574
0.00023574486
0.00023560119
0.0002354621
0.00023536137
0.0002345452
0.0002346363
0.00023476326
0.00023489578
0.00023501787
0.0002351218
0.00023520459
0.00023526572
0.00023530579
0.00023532557
0.00023532557
0.00023530579
0.00023526572
0.00023520459
0.0002351218
0.00023501787
0.00023489578
0.00023476326
0.0002346363
0.0002345452
0.0002338242
0.0002339061
0.00023402106
0.00023414211
0.00023425467
0.00023435138
0.0002344291
0.00023448692
0.00023452503
0.00023454392
0.00023454392
0.00023452503
0.00023448692
0.0002344291
0.00023435139
0.00023425467
0.00023414211
0.00023402107
0.0002339061
0.0002338242
0.00023319079
0.00023326391
0.00023336719
0.00023347673
0.00023357942
0.00023366837
0.00023374039
0.00023379432
0.00023383006
0.00023384782
0.00023384782
0.00023383006
0.00023379433
0.00023374039
0.00023366837
0.00023357942
0.00023347674
0.00023336719
0.00023326391
0.00023319079
0.00023263901
0.00023270375
0.00023279574
0.00023289398
0.00023298672
0.00023306766
0.00023313365
0.00023318336
0.00023321645
0.00023323294
0.00023323294
0.00023321645
0.00023318336
0.00023313365
0.00023306766
0.00023298673
0.00023289398
0.00023279575
0.00023270376
0.00023263901
0.00023216458
0.00023222131
0.00023230244
0.00023238968
0.00023247266
0.00023254559
0.00023260544
0.00023265079
0.00023268111
0.00023269626
0.00023269626
0.00023268111
0.00023265079
0.00023260544
0.00023254559
0.00023247266
0.00023238968
0.00023230244
0.00023222132
0.00023216458
0.00023176489
0.00023181395
0.00023188469
0.0002319614
0.00023203496
0.00023210012
0.00023215397
0.00023219501
0.00023222256
0.00023223637
0.00023223637
0.00023222256
0.00023219501
0.00023215397
0.00023210012
0.00023203496
0.0002319614
0.00023188469
0.00023181395
0.00023176489
0.00023143913
0.00023148088
0.00023154179
0.0002316086
0.00023167334
0.00023173122
0.00023177942
0.0002318164
0.00023184134
0.00023185388
0.00023185388
0.00023184134
0.0002318164
0.00023177943
0.00023173122
0.00023167334
0.0002316086
0.00023154179
0.00023148088
0.00023143914
0.00023118841
0.00023122331
0.00023127521
0.00023133308
0.00023138994
0.00023144135
0.00023148457
0.00023151795
0.00023154058
0.000231552
0.000231552
0.00023154058
0.00023151795
0.00023148457
0.00023144135
0.00023138994
0.00023133308
0.00023127521
0.00023122331
0.00023118842
0.00023101583
0.0002310447
0.00023108897
0.00023113947
0.00023118995
0.0002312362
0.00023127547
0.00023130603
0.00023132686
0.00023133739
0.00023133739
0.00023132686
0.00023130603
0.00023127547
0.0002312362
0.00023118995
0.00023113947
0.00023108897
0.00023104471
0.00023101583
0.00023092639
0.00023095102
0.00023099024
0.00023103606
0.00023108261
0.00023112574
0.00023116266
0.00023119155
0.00023121132
0.00023122134
0.00023122134
0.00023121132
0.00023119155
0.00023116266
0.00023112574
0.00023108261
0.00023103606
0.00023099024
0.00023095102
0.0002309264
)
;

boundaryField
{
    Wall
    {
        type            calculated;
        value           uniform 4e-05;
    }
    frontAndBack
    {
        type            empty;
    }
    atmosphere
    {
        type            calculated;
        value           uniform 4e-05;
    }
}


// ************************************************************************* //
