/*--------------------------------*- C++ -*----------------------------------*\
| =========                 |                                                 |
| \\      /  F ield         | OpenFOAM: The Open Source CFD Toolbox           |
|  \\    /   O peration     | Version:  3.0.1                                 |
|   \\  /    A nd           | Web:      www.OpenFOAM.org                      |
|    \\/     M anipulation  |                                                 |
\*---------------------------------------------------------------------------*/
FoamFile
{
    version     2.0;
    format      ascii;
    class       volScalarField;
    location    "26";
    object      thermalDiff_gas;
}
// * * * * * * * * * * * * * * * * * * * * * * * * * * * * * * * * * * * * * //

dimensions      [0 2 -1 0 0 0 0];

internalField   nonuniform List<scalar> 
800
(
0.00029707224
0.00029708233
0.00029708419
0.00029708443
0.00029708447
0.00029708451
0.00029708455
0.0002970846
0.00029708463
0.00029708465
0.00029708465
0.00029708463
0.0002970846
0.00029708455
0.00029708451
0.00029708447
0.00029708443
0.00029708419
0.00029708233
0.00029707224
0.00029477681
0.00029487682
0.00029490037
0.00029490442
0.00029490403
0.00029490307
0.00029490238
0.00029490202
0.00029490186
0.0002949018
0.0002949018
0.00029490186
0.00029490201
0.00029490238
0.00029490307
0.00029490403
0.00029490442
0.00029490037
0.00029487682
0.00029477681
0.00029280917
0.00029296344
0.00029300857
0.00029301743
0.00029301764
0.00029301636
0.00029301534
0.00029301478
0.00029301453
0.00029301444
0.00029301445
0.00029301453
0.00029301478
0.00029301534
0.00029301636
0.00029301764
0.00029301743
0.00029300857
0.00029296343
0.00029280916
0.00029128338
0.00029147674
0.00029153925
0.00029155187
0.00029155246
0.00029155091
0.00029154964
0.00029154893
0.00029154862
0.00029154851
0.00029154851
0.00029154862
0.00029154893
0.00029154964
0.00029155091
0.00029155246
0.00029155186
0.00029153924
0.00029147674
0.00029128337
0.00029026204
0.00029047686
0.00029055449
0.00029057012
0.00029057076
0.00029056877
0.00029056718
0.00029056627
0.00029056586
0.00029056571
0.00029056571
0.00029056586
0.00029056627
0.00029056718
0.00029056877
0.00029057076
0.00029057012
0.00029055448
0.00029047686
0.00029026203
0.0002897694
0.00028998857
0.00029008143
0.00029009998
0.00029010046
0.00029009781
0.00029009576
0.00029009454
0.00029009397
0.00029009375
0.00029009375
0.00029009397
0.00029009454
0.00029009576
0.00029009781
0.00029010046
0.00029009998
0.00029008143
0.00028998857
0.0002897694
0.00028978971
0.00029000296
0.00029010869
0.0002901308
0.00029013118
0.0002901277
0.00029012502
0.00029012334
0.00029012253
0.00029012218
0.00029012218
0.00029012253
0.00029012334
0.00029012502
0.0002901277
0.00029013119
0.0002901308
0.0002901087
0.00029000296
0.00028978971
0.00029026126
0.00029047112
0.00029058272
0.00029061
0.00029061079
0.00029060643
0.00029060299
0.00029060072
0.00029059957
0.00029059904
0.00029059904
0.00029059957
0.00029060072
0.000290603
0.00029060643
0.00029061079
0.00029061001
0.00029058273
0.00029047112
0.00029026127
0.00029106686
0.00029129337
0.00029140242
0.00029143808
0.00029144017
0.00029143514
0.00029143094
0.00029142801
0.00029142648
0.00029142574
0.00029142574
0.00029142648
0.00029142802
0.00029143094
0.00029143514
0.00029144018
0.00029143809
0.00029140243
0.00029129338
0.00029106687
0.00029202389
0.00029230778
0.00029240984
0.0002924595
0.0002924653
0.00029246021
0.00029245559
0.00029245219
0.00029245037
0.00029244946
0.00029244946
0.00029245037
0.00029245219
0.00029245559
0.00029246022
0.00029246531
0.00029245951
0.00029240986
0.0002923078
0.00029202391
0.00029285185
0.00029325902
0.000293359
0.00029343236
0.00029344747
0.00029344482
0.00029344116
0.00029343813
0.00029343644
0.00029343558
0.00029343558
0.00029343645
0.00029343813
0.00029344117
0.00029344483
0.00029344748
0.00029343237
0.00029335902
0.00029325903
0.00029285187
0.00029312687
0.00029371785
0.00029386852
0.00029398255
0.00029398541
0.0002939899
0.00029399038
0.00029398986
0.00029399032
0.00029399013
0.00029399013
0.00029399032
0.00029398986
0.00029399038
0.0002939899
0.00029398542
0.00029398256
0.00029386853
0.00029371787
0.00029312689
0.00029220732
0.00029303033
0.00029334016
0.00029346491
0.00029345525
0.0002934753
0.00029348628
0.0002934945
0.00029350989
0.0002935134
0.0002935134
0.00029350989
0.0002934945
0.00029348629
0.0002934753
0.00029345526
0.00029346493
0.00029334017
0.00029303035
0.00029220733
0.00028907545
0.00029028836
0.00029080128
0.0002909622
0.00029098828
0.00029103807
0.00029107299
0.00029109617
0.00029105482
0.00029106179
0.00029106179
0.00029105482
0.00029109617
0.000291073
0.00029103807
0.00029098829
0.00029096221
0.00029080129
0.00029028837
0.00028907546
0.00028244157
0.00028423633
0.0002849776
0.00028525175
0.00028537804
0.00028548993
0.00028561406
0.00028566794
0.00028562301
0.00028563485
0.00028563485
0.00028562302
0.00028566794
0.00028561406
0.00028548994
0.00028537805
0.00028525176
0.00028497762
0.00028423634
0.00028244159
0.00027148323
0.00027359445
0.00027456907
0.00027497868
0.0002752365
0.0002755343
0.00027558303
0.00027566381
0.00027569455
0.00027571641
0.00027571641
0.00027569455
0.00027566381
0.00027558303
0.00027553431
0.00027523651
0.00027497869
0.00027456909
0.00027359447
0.00027148325
0.00026213245
0.00026240142
0.00026261776
0.00026278538
0.00026291074
0.00026296211
0.00026303403
0.00026310945
0.00026371954
0.00026375433
0.00026375433
0.00026371954
0.00026310945
0.00026303402
0.00026296211
0.00026291074
0.00026278538
0.00026261776
0.00026240141
0.00026213245
0.00025714692
0.00025719429
0.00025728568
0.00025738806
0.0002574808
0.00025755454
0.00025762844
0.00025773367
0.00025816612
0.00025825794
0.00025825794
0.00025816612
0.00025773367
0.00025762844
0.00025755453
0.0002574808
0.00025738806
0.00025728567
0.00025719429
0.00025714692
0.00025425569
0.00025430576
0.00025438766
0.00025448041
0.00025456872
0.000254645
0.00025471051
0.00025475952
0.00025472622
0.00025474277
0.00025474277
0.00025472622
0.00025475952
0.00025471051
0.00025464499
0.00025456872
0.00025448041
0.00025438765
0.00025430576
0.00025425569
0.00025156202
0.00025163289
0.00025172326
0.00025181796
0.00025190692
0.00025198423
0.00025204782
0.00025209404
0.000252113
0.00025212702
0.00025212702
0.000252113
0.00025209404
0.00025204782
0.00025198423
0.00025190691
0.00025181796
0.00025172326
0.00025163289
0.00025156201
0.00024906993
0.00024917453
0.00024928965
0.00024939745
0.00024949246
0.00024957234
0.00024963623
0.00024968326
0.00024971221
0.00024972717
0.00024972717
0.00024971221
0.00024968326
0.00024963623
0.00024957234
0.00024949246
0.00024939745
0.00024928965
0.00024917452
0.00024906993
0.00024679585
0.00024692737
0.00024707068
0.00024719816
0.00024730465
0.00024739038
0.00024745671
0.00024750493
0.00024753598
0.00024755136
0.00024755136
0.00024753598
0.00024750493
0.00024745671
0.00024739037
0.00024730464
0.00024719815
0.00024707068
0.00024692736
0.00024679585
0.000244743
0.00024488921
0.00024505455
0.0002452014
0.00024532156
0.00024541571
0.00024548666
0.00024553724
0.00024556964
0.00024558548
0.00024558548
0.00024556964
0.00024553724
0.00024548666
0.00024541571
0.00024532156
0.0002452014
0.00024505455
0.0002448892
0.000244743
0.00024290215
0.00024305243
0.00024323046
0.00024339194
0.00024352455
0.00024362771
0.00024370452
0.00024375858
0.0002437929
0.00024380956
0.00024380956
0.0002437929
0.00024375858
0.00024370452
0.00024362771
0.00024352455
0.00024339194
0.00024323046
0.00024305243
0.00024290214
0.00024125727
0.00024140448
0.0002415865
0.00024175626
0.00024189788
0.00024200878
0.00024209139
0.00024214937
0.00024218605
0.00024220379
0.00024220379
0.00024218605
0.00024214937
0.00024209139
0.00024200878
0.00024189788
0.00024175626
0.00024158649
0.00024140448
0.00024125727
0.00023979007
0.00023993013
0.00024010948
0.00024028145
0.00024042781
0.00024054399
0.00024063124
0.00024069275
0.00024073173
0.00024075061
0.00024075061
0.00024073173
0.00024069275
0.00024063124
0.00024054399
0.00024042781
0.00024028145
0.00024010948
0.00023993013
0.00023979007
0.00023848253
0.00023861341
0.00023878563
0.00023895485
0.00023910181
0.00023922033
0.00023931042
0.00023937445
0.00023941527
0.00023943508
0.00023943508
0.00023941527
0.00023937445
0.00023931042
0.00023922033
0.00023910181
0.00023895485
0.00023878563
0.00023861341
0.00023848254
0.00023731809
0.00023743896
0.00023760135
0.00023776418
0.00023790822
0.00023802625
0.00023811712
0.00023818237
0.00023822425
0.00023824467
0.00023824467
0.00023822425
0.00023818237
0.00023811712
0.00023802625
0.00023790822
0.00023776418
0.00023760135
0.00023743896
0.0002373181
0.00023628199
0.0002363927
0.00023654377
0.00023669777
0.00023683619
0.00023695127
0.00023704099
0.00023710608
0.00023714815
0.00023716876
0.00023716876
0.00023714815
0.00023710608
0.000237041
0.00023695127
0.00023683619
0.00023669777
0.00023654377
0.0002363927
0.000236282
0.00023536137
0.0002354621
0.00023560119
0.00023574486
0.00023587574
0.00023598595
0.00023607286
0.0002361365
0.00023617793
0.00023619832
0.00023619832
0.00023617793
0.0002361365
0.00023607286
0.00023598595
0.00023587574
0.00023574486
0.00023560119
0.0002354621
0.00023536137
0.0002345452
0.0002346363
0.00023476326
0.00023489578
0.00023501787
0.0002351218
0.00023520459
0.00023526572
0.00023530579
0.00023532557
0.00023532557
0.00023530579
0.00023526572
0.00023520459
0.0002351218
0.00023501787
0.00023489578
0.00023476326
0.0002346363
0.0002345452
0.0002338242
0.0002339061
0.00023402106
0.00023414211
0.00023425467
0.00023435138
0.0002344291
0.00023448692
0.00023452503
0.00023454392
0.00023454392
0.00023452503
0.00023448692
0.0002344291
0.00023435139
0.00023425467
0.00023414211
0.00023402107
0.0002339061
0.0002338242
0.00023319079
0.00023326391
0.00023336719
0.00023347673
0.00023357942
0.00023366837
0.00023374039
0.00023379432
0.00023383006
0.00023384782
0.00023384782
0.00023383006
0.00023379433
0.00023374039
0.00023366837
0.00023357942
0.00023347674
0.00023336719
0.00023326391
0.00023319079
0.00023263901
0.00023270375
0.00023279574
0.00023289398
0.00023298672
0.00023306766
0.00023313365
0.00023318336
0.00023321645
0.00023323294
0.00023323294
0.00023321645
0.00023318336
0.00023313365
0.00023306766
0.00023298673
0.00023289398
0.00023279575
0.00023270376
0.00023263901
0.00023216458
0.00023222131
0.00023230244
0.00023238968
0.00023247266
0.00023254559
0.00023260544
0.00023265079
0.00023268111
0.00023269626
0.00023269626
0.00023268111
0.00023265079
0.00023260544
0.00023254559
0.00023247266
0.00023238968
0.00023230244
0.00023222132
0.00023216458
0.00023176489
0.00023181395
0.00023188469
0.0002319614
0.00023203496
0.00023210012
0.00023215397
0.00023219501
0.00023222256
0.00023223637
0.00023223637
0.00023222256
0.00023219501
0.00023215397
0.00023210012
0.00023203496
0.0002319614
0.00023188469
0.00023181395
0.00023176489
0.00023143913
0.00023148088
0.00023154179
0.0002316086
0.00023167334
0.00023173122
0.00023177942
0.0002318164
0.00023184134
0.00023185388
0.00023185388
0.00023184134
0.0002318164
0.00023177943
0.00023173122
0.00023167334
0.0002316086
0.00023154179
0.00023148088
0.00023143914
0.00023118841
0.00023122331
0.00023127521
0.00023133308
0.00023138994
0.00023144135
0.00023148457
0.00023151795
0.00023154058
0.000231552
0.000231552
0.00023154058
0.00023151795
0.00023148457
0.00023144135
0.00023138994
0.00023133308
0.00023127521
0.00023122331
0.00023118842
0.00023101583
0.0002310447
0.00023108897
0.00023113947
0.00023118995
0.0002312362
0.00023127547
0.00023130603
0.00023132686
0.00023133739
0.00023133739
0.00023132686
0.00023130603
0.00023127547
0.0002312362
0.00023118995
0.00023113947
0.00023108897
0.00023104471
0.00023101583
0.00023092639
0.00023095102
0.00023099024
0.00023103606
0.00023108261
0.00023112574
0.00023116266
0.00023119155
0.00023121132
0.00023122134
0.00023122134
0.00023121132
0.00023119155
0.00023116266
0.00023112574
0.00023108261
0.00023103606
0.00023099024
0.00023095102
0.0002309264
)
;

boundaryField
{
    Wall
    {
        type            calculated;
        value           uniform 0.1;
    }
    frontAndBack
    {
        type            empty;
    }
    atmosphere
    {
        type            calculated;
        value           uniform 0.1;
    }
}


// ************************************************************************* //
