/*--------------------------------*- C++ -*----------------------------------*\
| =========                 |                                                 |
| \\      /  F ield         | OpenFOAM: The Open Source CFD Toolbox           |
|  \\    /   O peration     | Version:  3.0.1                                 |
|   \\  /    A nd           | Web:      www.OpenFOAM.org                      |
|    \\/     M anipulation  |                                                 |
\*---------------------------------------------------------------------------*/
FoamFile
{
    version     2.0;
    format      ascii;
    class       volScalarField;
    location    "26";
    object      thermalConductivity;
}
// * * * * * * * * * * * * * * * * * * * * * * * * * * * * * * * * * * * * * //

dimensions      [0 2 -1 0 0 0 0];

internalField   nonuniform List<scalar> 
800
(
0.019717912
0.019717211
0.019717118
0.019717117
0.019717122
0.019717126
0.019717128
0.019717129
0.019717129
0.019717129
0.019717129
0.019717129
0.019717129
0.019717128
0.019717126
0.019717122
0.019717116
0.019717118
0.019717211
0.019717912
0.019936543
0.019925541
0.019923423
0.01992314
0.01992323
0.019923335
0.019923395
0.019923418
0.019923424
0.019923423
0.019923423
0.019923424
0.019923418
0.019923395
0.019923335
0.01992323
0.01992314
0.019923423
0.019925541
0.019936543
0.020155414
0.020138108
0.020133177
0.020132418
0.020132472
0.020132616
0.020132703
0.020132735
0.02013274
0.020132737
0.020132737
0.02013274
0.020132735
0.020132703
0.020132616
0.020132473
0.020132418
0.020133178
0.020138109
0.020155414
0.020349796
0.020327917
0.020320548
0.020319447
0.020319493
0.020319675
0.020319785
0.020319824
0.020319827
0.020319821
0.020319821
0.020319827
0.020319824
0.020319786
0.020319675
0.020319493
0.020319448
0.020320548
0.020327917
0.020349797
0.020506754
0.020482168
0.020472864
0.020471134
0.020471231
0.020471479
0.020471624
0.020471674
0.020471679
0.020471673
0.020471673
0.020471679
0.020471674
0.020471624
0.02047148
0.020471231
0.020471134
0.020472864
0.020482169
0.020506755
0.020627063
0.020600461
0.020589648
0.020587013
0.020587232
0.020587588
0.020587789
0.020587866
0.020587881
0.020587877
0.020587877
0.020587881
0.020587866
0.020587789
0.020587588
0.020587232
0.020587013
0.020589648
0.020600461
0.020627063
0.020723289
0.020692874
0.020681391
0.020677785
0.020678199
0.020678711
0.020679
0.020679123
0.020679159
0.020679163
0.020679163
0.020679159
0.020679123
0.020679
0.020678711
0.020678199
0.020677785
0.020681391
0.020692874
0.020723289
0.02081684
0.020778801
0.020767055
0.020762593
0.020763288
0.020764012
0.020764422
0.020764612
0.020764681
0.020764698
0.020764698
0.020764681
0.020764613
0.020764422
0.020764012
0.020763288
0.020762594
0.020767055
0.020778801
0.02081684
0.020936449
0.020884336
0.020872353
0.020867214
0.020867184
0.020868199
0.020868762
0.020869035
0.020869145
0.02086918
0.02086918
0.020869145
0.020869035
0.020868762
0.020868199
0.020867185
0.020867214
0.020872353
0.020884336
0.020936449
0.021119876
0.021041877
0.021029465
0.021023784
0.021021781
0.021021615
0.021022343
0.021022701
0.021022858
0.02102291
0.02102291
0.021022858
0.021022702
0.021022343
0.021021615
0.021021782
0.021023784
0.021029465
0.021041877
0.021119876
0.02141838
0.021297755
0.021281598
0.02127538
0.021268779
0.02126568
0.021266562
0.02126699
0.021267203
0.021267269
0.02126727
0.021267203
0.021266991
0.021266562
0.02126568
0.021268779
0.021275381
0.021281599
0.021297755
0.021418381
0.021904684
0.021720228
0.021690693
0.021683958
0.021668329
0.021661487
0.021662453
0.021662887
0.021663251
0.021663319
0.021663319
0.021663251
0.021662888
0.021662454
0.021661487
0.021668329
0.021683959
0.021690693
0.021720229
0.021904685
0.022695478
0.022414611
0.022355629
0.022348857
0.022320564
0.022309852
0.022310688
0.022310982
0.022306662
0.022306774
0.022306774
0.022306663
0.022310983
0.022310689
0.022309853
0.022320565
0.022348859
0.022355631
0.022414612
0.02269548
0.024012588
0.023573331
0.023462346
0.023442776
0.023398324
0.023383116
0.023383138
0.02338274
0.023371228
0.023371466
0.023371466
0.023371228
0.023382741
0.023383139
0.023383117
0.023398326
0.023442778
0.023462349
0.023573334
0.024012592
0.026042147
0.025338371
0.025129761
0.025080888
0.025013939
0.024992539
0.024992991
0.024991616
0.024969986
0.024955633
0.024955634
0.024969987
0.024991617
0.024992993
0.024992541
0.025013942
0.02508089
0.025129764
0.025338374
0.026042151
0.029580952
0.028447001
0.028060479
0.027944891
0.027838736
0.027806142
0.027794295
0.02779026
0.027751854
0.027725897
0.027725897
0.027751855
0.027790262
0.027794297
0.027806145
0.027838739
0.027944895
0.028060483
0.028447006
0.029580956
0.035585671
0.033748704
0.033038894
0.032832114
0.032661562
0.032560674
0.032519964
0.03251197
0.032451837
0.03242032
0.03242032
0.032451837
0.032511972
0.032519966
0.032560677
0.032661565
0.032832119
0.033038899
0.033748709
0.035585671
0.024
0.024
0.042003921
0.041585356
0.041300551
0.041124564
0.041045258
0.041029776
0.040947072
0.040917628
0.040917628
0.040947072
0.041029777
0.041045259
0.041124566
0.041300554
0.041585361
0.042003925
0.024
0.024
0.024
0.024
0.024
0.024
0.024
0.024
0.024
0.024
0.024
0.024
0.024
0.024
0.024
0.024
0.024
0.024
0.024
0.024
0.024
0.024
0.024
0.024
0.024
0.024
0.024
0.024
0.024
0.024
0.024
0.024
0.024
0.024
0.024
0.024
0.024
0.024
0.024
0.024
0.024
0.024
0.024
0.024
0.024
0.024
0.024
0.024
0.024
0.024
0.024
0.024
0.024
0.024
0.024
0.024
0.024
0.024
0.024
0.024
0.024
0.024
0.024
0.024
0.024
0.024
0.024
0.024
0.024
0.024
0.024
0.024
0.024
0.024
0.024
0.024
0.024
0.024
0.024
0.024
0.024
0.024
0.024
0.024
0.024
0.024
0.024
0.024
0.024
0.024
0.024
0.024
0.024
0.024
0.024
0.024
0.024
0.024
0.024
0.024
0.024
0.024
0.024
0.024
0.024
0.024
0.024
0.024
0.024
0.024
0.024
0.024
0.024
0.024
0.024
0.024
0.024
0.024
0.024
0.024
0.024
0.024
0.024
0.024
0.024
0.024
0.024
0.024
0.024
0.024
0.024
0.024
0.024
0.024
0.024
0.024
0.024
0.024
0.024
0.024
0.024
0.024
0.024
0.024
0.024
0.024
0.024
0.024
0.024
0.024
0.024
0.024
0.024
0.024
0.024
0.024
0.024
0.024
0.024
0.024
0.024
0.024
0.024
0.024
0.024
0.024
0.024
0.024
0.024
0.024
0.024
0.024
0.024
0.024
0.024
0.024
0.024
0.024
0.024
0.024
0.024
0.024
0.024
0.024
0.024
0.024
0.024
0.024
0.024
0.024
0.024
0.024
0.024
0.024
0.024
0.024
0.024
0.024
0.024
0.024
0.024
0.024
0.024
0.024
0.024
0.024
0.024
0.024
0.024
0.024
0.024
0.024
0.024
0.024
0.024
0.024
0.024
0.024
0.024
0.024
0.024
0.024
0.024
0.024
0.024
0.024
0.024
0.024
0.024
0.024
0.024
0.024
0.024
0.024
0.024
0.024
0.024
0.024
0.024
0.024
0.024
0.024
0.024
0.024
0.024
0.024
0.024
0.024
0.024
0.024
0.024
0.024
0.024
0.024
0.024
0.024
0.024
0.024
0.024
0.024
0.024
0.024
0.024
0.024
0.024
0.024
0.024
0.024
0.024
0.024
0.024
0.024
0.024
0.024
0.024
0.024
0.024
0.024
0.024
0.024
0.024
0.024
0.024
0.024
0.024
0.024
0.024
0.024
0.024
0.024
0.024
0.024
0.024
0.024
0.024
0.024
0.024
0.024
0.024
0.024
0.024
0.024
0.024
0.024
0.024
0.024
0.024
0.024
0.024
0.024
0.024
0.024
0.024
0.024
0.024
0.024
0.024
0.024
0.024
0.024
0.024
0.024
0.024
0.024
0.024
0.024
0.024
0.024
0.024
0.024
0.024
0.024
0.024
0.024
0.024
0.024
0.024
0.024
0.024
0.024
0.024
0.024
0.024
0.024
0.024
0.024
0.024
0.024
0.024
0.024
0.024
0.024
0.024
0.024
0.024
0.024
0.024
0.024
0.024
0.024
0.024
0.024
0.024
0.024
0.024
0.024
0.024
0.024
0.024
0.024
0.024
0.024
0.024
0.024
0.024
0.024
0.024
0.024
0.024
0.024
0.024
0.024
0.024
0.024
0.024
0.024
0.024
0.024
0.024
0.024
0.024
0.024
0.024
0.024
0.024
0.024
0.024
0.024
0.024
0.024
0.024
0.024
0.024
0.024
0.024
0.024
0.024
0.024
0.024
0.024
0.024
0.024
0.024
0.024
0.024
0.024
0.024
0.024
0.024
0.024
0.024
0.024
0.024
0.024
0.024
0.024
0.024
0.024
0.024
0.024
0.024
0.024
0.024
0.024
0.024
0.024
0.024
0.024
0.024
0.024
0.024
0.024
)
;

boundaryField
{
    Wall
    {
        type            calculated;
        value           uniform 0.024;
    }
    frontAndBack
    {
        type            empty;
    }
    atmosphere
    {
        type            calculated;
        value           uniform 0.024;
    }
}


// ************************************************************************* //
