/*--------------------------------*- C++ -*----------------------------------*\
| =========                 |                                                 |
| \\      /  F ield         | OpenFOAM: The Open Source CFD Toolbox           |
|  \\    /   O peration     | Version:  3.0.1                                 |
|   \\  /    A nd           | Web:      www.OpenFOAM.org                      |
|    \\/     M anipulation  |                                                 |
\*---------------------------------------------------------------------------*/
FoamFile
{
    version     2.0;
    format      ascii;
    class       volScalarField;
    location    "26";
    object      thermalDiff_foam;
}
// * * * * * * * * * * * * * * * * * * * * * * * * * * * * * * * * * * * * * //

dimensions      [0 2 -1 0 0 0 0];

internalField   nonuniform List<scalar> 
800
(
1.2458336e-07
1.2458886e-07
1.2458959e-07
1.2458961e-07
1.2458956e-07
1.2458953e-07
1.2458952e-07
1.2458951e-07
1.2458951e-07
1.2458951e-07
1.2458951e-07
1.2458951e-07
1.2458951e-07
1.2458952e-07
1.2458953e-07
1.2458956e-07
1.2458961e-07
1.245896e-07
1.2458887e-07
1.2458336e-07
1.2291354e-07
1.2299537e-07
1.2301114e-07
1.2301325e-07
1.2301258e-07
1.2301179e-07
1.2301135e-07
1.2301118e-07
1.2301114e-07
1.2301114e-07
1.2301114e-07
1.2301114e-07
1.2301118e-07
1.2301135e-07
1.2301179e-07
1.2301258e-07
1.2301325e-07
1.2301114e-07
1.2299536e-07
1.2291354e-07
1.2133184e-07
1.2145378e-07
1.2148862e-07
1.21494e-07
1.2149361e-07
1.2149259e-07
1.2149198e-07
1.2149175e-07
1.2149172e-07
1.2149174e-07
1.2149174e-07
1.2149172e-07
1.2149175e-07
1.2149198e-07
1.2149259e-07
1.2149361e-07
1.21494e-07
1.2148862e-07
1.2145378e-07
1.2133183e-07
1.1999709e-07
1.2014419e-07
1.2019391e-07
1.2020134e-07
1.2020103e-07
1.201998e-07
1.2019906e-07
1.201988e-07
1.2019878e-07
1.2019881e-07
1.2019881e-07
1.2019878e-07
1.201988e-07
1.2019905e-07
1.201998e-07
1.2020103e-07
1.2020134e-07
1.2019391e-07
1.2014418e-07
1.1999709e-07
1.1896429e-07
1.1912351e-07
1.1918402e-07
1.1919528e-07
1.1919465e-07
1.1919303e-07
1.1919209e-07
1.1919176e-07
1.1919173e-07
1.1919177e-07
1.1919177e-07
1.1919173e-07
1.1919176e-07
1.1919209e-07
1.1919303e-07
1.1919464e-07
1.1919527e-07
1.1918401e-07
1.1912351e-07
1.1896428e-07
1.1819842e-07
1.1836589e-07
1.1843427e-07
1.1845095e-07
1.1844956e-07
1.1844731e-07
1.1844604e-07
1.1844555e-07
1.1844545e-07
1.1844548e-07
1.1844548e-07
1.1844545e-07
1.1844555e-07
1.1844603e-07
1.1844731e-07
1.1844956e-07
1.1845095e-07
1.1843426e-07
1.1836589e-07
1.1819841e-07
1.1760129e-07
1.1778857e-07
1.1785963e-07
1.1788198e-07
1.1787941e-07
1.1787624e-07
1.1787445e-07
1.1787369e-07
1.1787346e-07
1.1787344e-07
1.1787344e-07
1.1787346e-07
1.1787369e-07
1.1787445e-07
1.1787624e-07
1.1787941e-07
1.1788198e-07
1.1785963e-07
1.1778857e-07
1.1760129e-07
1.1703347e-07
1.1726286e-07
1.1733411e-07
1.1736122e-07
1.17357e-07
1.173526e-07
1.173501e-07
1.1734895e-07
1.1734853e-07
1.1734842e-07
1.1734842e-07
1.1734853e-07
1.1734895e-07
1.173501e-07
1.173526e-07
1.17357e-07
1.1736122e-07
1.1733411e-07
1.1726286e-07
1.1703347e-07
1.1632513e-07
1.1663135e-07
1.1670229e-07
1.1673277e-07
1.1673294e-07
1.1672693e-07
1.1672359e-07
1.1672196e-07
1.1672131e-07
1.1672111e-07
1.1672111e-07
1.1672131e-07
1.1672196e-07
1.1672358e-07
1.1672693e-07
1.1673294e-07
1.1673277e-07
1.1670229e-07
1.1663136e-07
1.1632513e-07
1.1527571e-07
1.1571663e-07
1.1578752e-07
1.1582002e-07
1.158315e-07
1.1583245e-07
1.1582828e-07
1.1582623e-07
1.1582533e-07
1.1582503e-07
1.1582503e-07
1.1582533e-07
1.1582622e-07
1.1582828e-07
1.1583245e-07
1.158315e-07
1.1582002e-07
1.1578752e-07
1.1571663e-07
1.1527571e-07
1.1365744e-07
1.1429853e-07
1.143857e-07
1.1441933e-07
1.1445509e-07
1.1447189e-07
1.144671e-07
1.1446478e-07
1.1446363e-07
1.1446327e-07
1.1446327e-07
1.1446363e-07
1.1446478e-07
1.144671e-07
1.1447189e-07
1.1445508e-07
1.1441933e-07
1.143857e-07
1.1429853e-07
1.1365744e-07
1.1123618e-07
1.1212505e-07
1.1227064e-07
1.1230397e-07
1.123815e-07
1.1241551e-07
1.1241071e-07
1.1240855e-07
1.1240674e-07
1.124064e-07
1.124064e-07
1.1240673e-07
1.1240854e-07
1.124107e-07
1.1241551e-07
1.1238149e-07
1.1230396e-07
1.1227064e-07
1.1212505e-07
1.1123617e-07
1.077869e-07
1.0894918e-07
1.0920168e-07
1.0923086e-07
1.0935322e-07
1.0939973e-07
1.093961e-07
1.0939482e-07
1.094136e-07
1.0941311e-07
1.0941311e-07
1.094136e-07
1.0939482e-07
1.0939609e-07
1.0939973e-07
1.0935322e-07
1.0923085e-07
1.0920167e-07
1.0894917e-07
1.0778689e-07
1.031018e-07
1.0453772e-07
1.0491926e-07
1.0498736e-07
1.0514298e-07
1.0519652e-07
1.0519644e-07
1.0519784e-07
1.0523847e-07
1.0523763e-07
1.0523763e-07
1.0523847e-07
1.0519784e-07
1.0519643e-07
1.0519651e-07
1.0514297e-07
1.0498736e-07
1.0491925e-07
1.0453771e-07
1.0310178e-07
9.7728209e-08
9.9387175e-08
9.9917135e-08
1.0004401e-07
1.002195e-07
1.0027602e-07
1.0027483e-07
1.0027847e-07
1.0033581e-07
1.0037398e-07
1.0037398e-07
1.0033581e-07
1.0027846e-07
1.0027482e-07
1.0027602e-07
1.002195e-07
1.00044e-07
9.9917127e-08
9.9387165e-08
9.7728198e-08
9.1647767e-08
9.3262124e-08
9.3875428e-08
9.4065692e-08
9.4243316e-08
9.4298416e-08
9.4318512e-08
9.4325363e-08
9.4390787e-08
9.4435219e-08
9.4435218e-08
9.4390786e-08
9.432536e-08
9.4318508e-08
9.4298412e-08
9.4243311e-08
9.4065686e-08
9.3875422e-08
9.3262117e-08
9.1647762e-08
8.6232383e-08
8.746618e-08
8.8026246e-08
8.8199306e-08
8.8345587e-08
8.843366e-08
8.8469528e-08
8.8476594e-08
8.8529982e-08
8.8558131e-08
8.8558131e-08
8.8529981e-08
8.8476593e-08
8.8469526e-08
8.8433658e-08
8.8345584e-08
8.8199302e-08
8.8026242e-08
8.7466176e-08
8.6232383e-08
0.00025714692
0.00025719429
8.3623537e-08
8.3734869e-08
8.3814368e-08
8.3865057e-08
8.3888296e-08
8.3892862e-08
8.3917416e-08
8.3926223e-08
8.3926223e-08
8.3917416e-08
8.3892862e-08
8.3888296e-08
8.3865056e-08
8.3814367e-08
8.3734868e-08
8.3623536e-08
0.00025719429
0.00025714692
0.00025425569
0.00025430576
0.00025438766
0.00025448041
0.00025456872
0.000254645
0.00025471051
0.00025475952
0.00025472622
0.00025474277
0.00025474277
0.00025472622
0.00025475952
0.00025471051
0.00025464499
0.00025456872
0.00025448041
0.00025438765
0.00025430576
0.00025425569
0.00025156202
0.00025163289
0.00025172326
0.00025181796
0.00025190692
0.00025198423
0.00025204782
0.00025209404
0.000252113
0.00025212702
0.00025212702
0.000252113
0.00025209404
0.00025204782
0.00025198423
0.00025190691
0.00025181796
0.00025172326
0.00025163289
0.00025156201
0.00024906993
0.00024917453
0.00024928965
0.00024939745
0.00024949246
0.00024957234
0.00024963623
0.00024968326
0.00024971221
0.00024972717
0.00024972717
0.00024971221
0.00024968326
0.00024963623
0.00024957234
0.00024949246
0.00024939745
0.00024928965
0.00024917452
0.00024906993
0.00024679585
0.00024692737
0.00024707068
0.00024719816
0.00024730465
0.00024739038
0.00024745671
0.00024750493
0.00024753598
0.00024755136
0.00024755136
0.00024753598
0.00024750493
0.00024745671
0.00024739037
0.00024730464
0.00024719815
0.00024707068
0.00024692736
0.00024679585
0.000244743
0.00024488921
0.00024505455
0.0002452014
0.00024532156
0.00024541571
0.00024548666
0.00024553724
0.00024556964
0.00024558548
0.00024558548
0.00024556964
0.00024553724
0.00024548666
0.00024541571
0.00024532156
0.0002452014
0.00024505455
0.0002448892
0.000244743
0.00024290215
0.00024305243
0.00024323046
0.00024339194
0.00024352455
0.00024362771
0.00024370452
0.00024375858
0.0002437929
0.00024380956
0.00024380956
0.0002437929
0.00024375858
0.00024370452
0.00024362771
0.00024352455
0.00024339194
0.00024323046
0.00024305243
0.00024290214
0.00024125727
0.00024140448
0.0002415865
0.00024175626
0.00024189788
0.00024200878
0.00024209139
0.00024214937
0.00024218605
0.00024220379
0.00024220379
0.00024218605
0.00024214937
0.00024209139
0.00024200878
0.00024189788
0.00024175626
0.00024158649
0.00024140448
0.00024125727
0.00023979007
0.00023993013
0.00024010948
0.00024028145
0.00024042781
0.00024054399
0.00024063124
0.00024069275
0.00024073173
0.00024075061
0.00024075061
0.00024073173
0.00024069275
0.00024063124
0.00024054399
0.00024042781
0.00024028145
0.00024010948
0.00023993013
0.00023979007
0.00023848253
0.00023861341
0.00023878563
0.00023895485
0.00023910181
0.00023922033
0.00023931042
0.00023937445
0.00023941527
0.00023943508
0.00023943508
0.00023941527
0.00023937445
0.00023931042
0.00023922033
0.00023910181
0.00023895485
0.00023878563
0.00023861341
0.00023848254
0.00023731809
0.00023743896
0.00023760135
0.00023776418
0.00023790822
0.00023802625
0.00023811712
0.00023818237
0.00023822425
0.00023824467
0.00023824467
0.00023822425
0.00023818237
0.00023811712
0.00023802625
0.00023790822
0.00023776418
0.00023760135
0.00023743896
0.0002373181
0.00023628199
0.0002363927
0.00023654377
0.00023669777
0.00023683619
0.00023695127
0.00023704099
0.00023710608
0.00023714815
0.00023716876
0.00023716876
0.00023714815
0.00023710608
0.000237041
0.00023695127
0.00023683619
0.00023669777
0.00023654377
0.0002363927
0.000236282
0.00023536137
0.0002354621
0.00023560119
0.00023574486
0.00023587574
0.00023598595
0.00023607286
0.0002361365
0.00023617793
0.00023619832
0.00023619832
0.00023617793
0.0002361365
0.00023607286
0.00023598595
0.00023587574
0.00023574486
0.00023560119
0.0002354621
0.00023536137
0.0002345452
0.0002346363
0.00023476326
0.00023489578
0.00023501787
0.0002351218
0.00023520459
0.00023526572
0.00023530579
0.00023532557
0.00023532557
0.00023530579
0.00023526572
0.00023520459
0.0002351218
0.00023501787
0.00023489578
0.00023476326
0.0002346363
0.0002345452
0.0002338242
0.0002339061
0.00023402106
0.00023414211
0.00023425467
0.00023435138
0.0002344291
0.00023448692
0.00023452503
0.00023454392
0.00023454392
0.00023452503
0.00023448692
0.0002344291
0.00023435139
0.00023425467
0.00023414211
0.00023402107
0.0002339061
0.0002338242
0.00023319079
0.00023326391
0.00023336719
0.00023347673
0.00023357942
0.00023366837
0.00023374039
0.00023379432
0.00023383006
0.00023384782
0.00023384782
0.00023383006
0.00023379433
0.00023374039
0.00023366837
0.00023357942
0.00023347674
0.00023336719
0.00023326391
0.00023319079
0.00023263901
0.00023270375
0.00023279574
0.00023289398
0.00023298672
0.00023306766
0.00023313365
0.00023318336
0.00023321645
0.00023323294
0.00023323294
0.00023321645
0.00023318336
0.00023313365
0.00023306766
0.00023298673
0.00023289398
0.00023279575
0.00023270376
0.00023263901
0.00023216458
0.00023222131
0.00023230244
0.00023238968
0.00023247266
0.00023254559
0.00023260544
0.00023265079
0.00023268111
0.00023269626
0.00023269626
0.00023268111
0.00023265079
0.00023260544
0.00023254559
0.00023247266
0.00023238968
0.00023230244
0.00023222132
0.00023216458
0.00023176489
0.00023181395
0.00023188469
0.0002319614
0.00023203496
0.00023210012
0.00023215397
0.00023219501
0.00023222256
0.00023223637
0.00023223637
0.00023222256
0.00023219501
0.00023215397
0.00023210012
0.00023203496
0.0002319614
0.00023188469
0.00023181395
0.00023176489
0.00023143913
0.00023148088
0.00023154179
0.0002316086
0.00023167334
0.00023173122
0.00023177942
0.0002318164
0.00023184134
0.00023185388
0.00023185388
0.00023184134
0.0002318164
0.00023177943
0.00023173122
0.00023167334
0.0002316086
0.00023154179
0.00023148088
0.00023143914
0.00023118841
0.00023122331
0.00023127521
0.00023133308
0.00023138994
0.00023144135
0.00023148457
0.00023151795
0.00023154058
0.000231552
0.000231552
0.00023154058
0.00023151795
0.00023148457
0.00023144135
0.00023138994
0.00023133308
0.00023127521
0.00023122331
0.00023118842
0.00023101583
0.0002310447
0.00023108897
0.00023113947
0.00023118995
0.0002312362
0.00023127547
0.00023130603
0.00023132686
0.00023133739
0.00023133739
0.00023132686
0.00023130603
0.00023127547
0.0002312362
0.00023118995
0.00023113947
0.00023108897
0.00023104471
0.00023101583
0.00023092639
0.00023095102
0.00023099024
0.00023103606
0.00023108261
0.00023112574
0.00023116266
0.00023119155
0.00023121132
0.00023122134
0.00023122134
0.00023121132
0.00023119155
0.00023116266
0.00023112574
0.00023108261
0.00023103606
0.00023099024
0.00023095102
0.0002309264
)
;

boundaryField
{
    Wall
    {
        type            calculated;
        value           uniform 4e-05;
    }
    frontAndBack
    {
        type            empty;
    }
    atmosphere
    {
        type            calculated;
        value           uniform 4e-05;
    }
}


// ************************************************************************* //
