/*--------------------------------*- C++ -*----------------------------------*\
| =========                 |                                                 |
| \\      /  F ield         | OpenFOAM: The Open Source CFD Toolbox           |
|  \\    /   O peration     | Version:  3.0.1                                 |
|   \\  /    A nd           | Web:      www.OpenFOAM.org                      |
|    \\/     M anipulation  |                                                 |
\*---------------------------------------------------------------------------*/
FoamFile
{
    version     2.0;
    format      ascii;
    class       volScalarField;
    location    "26";
    object      TS;
}
// * * * * * * * * * * * * * * * * * * * * * * * * * * * * * * * * * * * * * //

dimensions      [0 0 0 1 0 0 0];

internalField   nonuniform List<scalar> 
800
(
343.35244
343.35886
343.36005
343.36021
343.36023
343.36025
343.36028
343.36031
343.36033
343.36034
343.36034
343.36033
343.36031
343.36028
343.36025
343.36023
343.36021
343.36005
343.35886
343.35244
341.90478
341.96818
341.98315
341.98574
341.9855
341.98489
341.98445
341.98422
341.98412
341.98409
341.98409
341.98412
341.98422
341.98445
341.98489
341.9855
341.98574
341.98315
341.96817
341.90478
340.66134
340.75929
340.78801
340.79368
340.79382
340.79301
340.79236
340.792
340.79184
340.79178
340.79178
340.79184
340.792
340.79236
340.79301
340.79382
340.79368
340.78801
340.75928
340.66134
339.6954
339.81829
339.8581
339.86618
339.86657
339.8656
339.86479
339.86433
339.86413
339.86405
339.86405
339.86413
339.86433
339.86479
339.86559
339.86657
339.86618
339.8581
339.81829
339.69539
339.0478
339.18444
339.23389
339.24389
339.24432
339.24306
339.24205
339.24147
339.2412
339.24111
339.24111
339.2412
339.24147
339.24205
339.24306
339.24432
339.24389
339.23389
339.18444
339.0478
338.73524
338.87467
338.93376
338.94562
338.94595
338.94427
338.94296
338.94218
338.94182
338.94167
338.94167
338.94182
338.94218
338.94296
338.94427
338.94595
338.94562
338.93376
338.87467
338.73524
338.74907
338.88453
338.95177
338.96585
338.96612
338.96391
338.96221
338.96114
338.96062
338.9604
338.9604
338.96062
338.96114
338.96221
338.96391
338.96612
338.96586
338.95177
338.88454
338.74907
339.05164
339.18441
339.25534
339.27266
339.27317
339.2704
339.26822
339.26678
339.26604
339.26571
339.26571
339.26604
339.26678
339.26822
339.2704
339.27317
339.27266
339.25534
339.18441
339.05164
339.5705
339.71283
339.78208
339.80462
339.80593
339.80274
339.80007
339.79821
339.79723
339.79676
339.79676
339.79723
339.79821
339.80007
339.80274
339.80594
339.80463
339.78208
339.71284
339.57051
340.19258
340.36971
340.43431
340.46558
340.46919
340.46593
340.46297
340.4608
340.45963
340.45905
340.45905
340.45963
340.4608
340.46298
340.46594
340.4692
340.46559
340.43432
340.36971
340.19259
340.74455
340.99748
341.06029
341.10634
341.11568
341.11388
341.11148
341.1095
341.1084
341.10784
341.10784
341.1084
341.1095
341.11148
341.11389
341.11568
341.10635
341.0603
340.99749
340.74456
340.96493
341.33192
341.4253
341.49666
341.4985
341.50104
341.50113
341.50067
341.50087
341.5007
341.5007
341.50087
341.50067
341.50114
341.50104
341.4985
341.49667
341.42531
341.33193
340.96494
340.45788
340.96985
341.16134
341.23988
341.23342
341.24551
341.25203
341.25687
341.26609
341.26816
341.26816
341.26609
341.25687
341.25203
341.24551
341.23343
341.23989
341.16135
340.96986
340.45789
338.59259
339.34847
339.66766
339.76818
339.78275
339.81323
339.8345
339.8486
339.82287
339.82708
339.82708
339.82287
339.8486
339.8345
339.81323
339.78275
339.76819
339.66767
339.34848
338.5926
334.55414
335.68063
336.14474
336.31548
336.39206
336.4612
336.537
336.5702
336.54008
336.54743
336.54743
336.54008
336.5702
336.53701
336.4612
336.39207
336.31549
336.14475
335.68064
334.55415
327.67945
329.06915
329.69997
329.96385
330.12803
330.31281
330.3422
330.39369
330.41244
330.42635
330.42635
330.41244
330.39369
330.3422
330.31282
330.12804
329.96386
329.69998
329.06916
327.67946
321.15709
321.35605
321.87101
322.01115
322.10645
322.14409
322.19388
322.24991
322.59552
322.62412
322.62412
322.59552
322.24991
322.19388
322.14409
322.10645
322.01115
321.87101
321.35605
321.15709
317.85769
317.92797
318.24651
318.36426
318.43165
318.48965
318.54387
318.6153
318.78542
318.84048
318.84048
318.78542
318.6153
318.54386
318.48965
318.43164
318.36425
318.24651
317.92797
317.85769
315.95766
315.99043
315.99826
316.05348
316.10811
316.15756
316.20157
316.24093
316.27186
316.29085
316.29084
316.27186
316.24093
316.20157
316.15756
316.1081
316.05348
315.99826
315.99043
315.95766
314.18375
314.22728
314.27606
314.33471
314.39153
314.44177
314.48381
314.5162
314.53629
314.54776
314.54776
314.53629
314.51619
314.4838
314.44177
314.39153
314.3347
314.27605
314.22728
314.18374
312.53723
312.60387
312.67603
312.74493
312.80638
312.85843
312.90031
312.93147
312.95134
312.96152
312.96152
312.95134
312.93147
312.90031
312.85843
312.80638
312.74493
312.67603
312.60387
312.53723
311.02957
311.11512
311.20786
311.29056
311.35991
311.41592
311.45938
311.49102
311.51144
311.52155
311.52155
311.51144
311.49102
311.45938
311.41592
311.3599
311.29056
311.20786
311.11512
311.02957
309.66491
309.76113
309.8695
309.96562
310.0443
310.10602
310.15258
310.18579
310.20707
310.21748
310.21748
310.20707
310.18579
310.15258
310.10602
310.0443
309.96562
309.86949
309.76113
309.66491
308.43882
308.53842
308.65598
308.76237
308.84963
308.9175
308.96804
309.00362
309.0262
309.03717
309.03717
309.0262
309.00362
308.96804
308.9175
308.84963
308.76237
308.65598
308.53842
308.43881
307.34172
307.43974
307.56054
307.67294
307.76654
307.83976
307.89427
307.93252
307.95671
307.96842
307.96842
307.95671
307.93252
307.89427
307.83976
307.76654
307.67294
307.56054
307.43974
307.34172
306.36208
306.45561
306.57508
306.68938
306.78647
306.86344
306.92119
306.96187
306.98764
307.00012
307.00012
306.98764
306.96187
306.92119
306.86344
306.78647
306.68938
306.57508
306.45561
306.36208
305.48827
305.57584
305.69088
305.80368
305.90148
305.98024
306.04003
306.0825
306.10955
306.12268
306.12268
306.10955
306.0825
306.04003
305.98024
305.90148
305.80368
305.69088
305.57585
305.48827
304.70948
304.79049
304.89917
305.00798
305.10408
305.18271
305.24319
305.28658
305.3144
305.32796
305.32796
305.3144
305.28658
305.24319
305.18272
305.10408
305.00798
304.89917
304.79049
304.70948
304.01604
304.09033
304.1916
304.29471
304.38726
304.46411
304.52396
304.56733
304.59536
304.60908
304.60908
304.59536
304.56733
304.52396
304.46411
304.38726
304.29471
304.1916
304.09033
304.01605
303.39951
303.46717
303.56053
303.65687
303.74453
303.81827
303.87637
303.91887
303.94653
303.96013
303.96013
303.94653
303.91887
303.87637
303.81827
303.74453
303.65687
303.56053
303.46717
303.39951
302.8526
302.91385
302.99916
303.08814
303.17004
303.2397
303.29513
303.33604
303.36284
303.37607
303.37607
303.36284
303.33604
303.29513
303.2397
303.17004
303.08814
302.99917
302.91385
302.8526
302.36922
302.42432
302.50165
302.58301
302.65861
302.72352
302.77564
302.8144
302.83993
302.85258
302.85258
302.83993
302.8144
302.77564
302.72352
302.65861
302.58301
302.50165
302.42432
302.36922
301.94435
301.99358
302.0631
302.1368
302.20584
302.26561
302.31398
302.35018
302.37416
302.38607
302.38607
302.37416
302.35018
302.31398
302.26561
302.20584
302.1368
302.0631
301.99358
301.94435
301.57408
301.6177
301.67966
301.7458
301.80821
301.86265
301.90702
301.94043
301.96265
301.97373
301.97373
301.96265
301.94043
301.90702
301.86265
301.80821
301.7458
301.67966
301.6177
301.57408
301.25558
301.29382
301.34849
301.40727
301.46316
301.51226
301.55253
301.58304
301.60343
301.61362
301.61362
301.60343
301.58304
301.55253
301.51226
301.46316
301.40727
301.34849
301.29382
301.25558
300.98715
301.02024
301.06793
301.11965
301.16922
301.21312
301.24939
301.27702
301.29557
301.30486
301.30486
301.29557
301.27702
301.24939
301.21312
301.16922
301.11965
301.06793
301.02024
300.98715
300.76831
300.79647
300.83756
300.88262
300.92627
300.96529
300.99778
301.02269
301.03949
301.04794
301.04794
301.03949
301.02269
300.99778
300.96529
300.92628
300.88262
300.83756
300.79647
300.76831
300.59983
300.62337
300.65839
300.69744
300.7358
300.77047
300.79961
300.82212
300.83737
300.84507
300.84507
300.83738
300.82212
300.79961
300.77047
300.7358
300.69744
300.6584
300.62337
300.59983
300.48383
300.50332
300.53319
300.56728
300.60134
300.63255
300.65903
300.67965
300.69369
300.70079
300.70079
300.69369
300.67965
300.65903
300.63255
300.60134
300.56728
300.53319
300.50332
300.48383
300.42371
300.44034
300.46681
300.49774
300.52916
300.55826
300.58317
300.60266
300.61599
300.62275
300.62275
300.61599
300.60266
300.58317
300.55826
300.52916
300.49774
300.46681
300.44034
300.42371
)
;

boundaryField
{
    Wall
    {
        type            zeroGradient;
    }
    frontAndBack
    {
        type            empty;
    }
    atmosphere
    {
        type            zeroGradient;
    }
}


// ************************************************************************* //
