/*--------------------------------*- C++ -*----------------------------------*\
| =========                 |                                                 |
| \\      /  F ield         | OpenFOAM: The Open Source CFD Toolbox           |
|  \\    /   O peration     | Version:  3.0.1                                 |
|   \\  /    A nd           | Web:      www.OpenFOAM.org                      |
|    \\/     M anipulation  |                                                 |
\*---------------------------------------------------------------------------*/
FoamFile
{
    version     2.0;
    format      ascii;
    class       volVectorField;
    location    "26";
    object      U;
}
// * * * * * * * * * * * * * * * * * * * * * * * * * * * * * * * * * * * * * //

dimensions      [0 1 -1 0 0 0 0];

internalField   nonuniform List<vector> 
800
(
(6.631419e-06 0.0002817664 0)
(8.6320738e-06 0.00028397908 0)
(9.7435095e-06 0.00028539198 0)
(8.8093099e-06 0.00028600343 0)
(7.3047641e-06 0.00028615715 0)
(5.7806118e-06 0.00028611874 0)
(4.3434586e-06 0.000286026 0)
(3.0116937e-06 0.00028593964 0)
(1.7685967e-06 0.00028587999 0)
(5.809884e-07 0.00028585067 0)
(-5.8807944e-07 0.00028585062 0)
(-1.7754243e-06 0.00028587986 0)
(-3.0180269e-06 0.00028593942 0)
(-4.3491187e-06 0.00028602571 0)
(-5.7855011e-06 0.00028611837 0)
(-7.3088474e-06 0.00028615669 0)
(-8.8125689e-06 0.00028600285 0)
(-9.7461854e-06 0.00028539128 0)
(-8.63424e-06 0.00028397842 0)
(-6.6330894e-06 0.00028176513 0)
(4.1617658e-06 0.00049632182 0)
(6.0066521e-06 0.00050267111 0)
(8.3370733e-06 0.00050600799 0)
(8.0186632e-06 0.00050745035 0)
(6.894518e-06 0.00050793072 0)
(5.5871338e-06 0.00050798561 0)
(4.2583442e-06 0.00050789024 0)
(2.9766549e-06 0.00050777219 0)
(1.7558554e-06 0.00050768145 0)
(5.7863986e-07 0.00050763408 0)
(-5.8342786e-07 0.000507634 0)
(-1.7604634e-06 0.00050768119 0)
(-2.9809294e-06 0.00050777176 0)
(-4.2621656e-06 0.00050788963 0)
(-5.5904427e-06 0.00050798481 0)
(-6.8973019e-06 0.00050792972 0)
(-8.0209322e-06 0.00050744908 0)
(-8.3389475e-06 0.0005060064 0)
(-6.0084005e-06 0.00050266916 0)
(-4.1630128e-06 0.00049631869 0)
(5.5518223e-06 0.00089848873 0)
(7.2252759e-06 0.00091021436 0)
(8.3302753e-06 0.00091608478 0)
(7.6867198e-06 0.00091869699 0)
(6.5373421e-06 0.00091964428 0)
(5.2797764e-06 0.00091981983 0)
(4.0190753e-06 0.00091970035 0)
(2.8075511e-06 0.00091951566 0)
(1.6551246e-06 0.00091936352 0)
(5.4537576e-07 0.00091928134 0)
(-5.4924427e-07 0.00091928122 0)
(-1.6588545e-06 0.00091936316 0)
(-2.8110274e-06 0.00091951504 0)
(-4.0222059e-06 0.00091969945 0)
(-5.2825067e-06 0.00091981862 0)
(-6.5396611e-06 0.00091964274 0)
(-7.6886246e-06 0.00091869505 0)
(-8.3318249e-06 0.00091608238 0)
(-7.2266079e-06 0.00091021132 0)
(-5.5525301e-06 0.00089848441 0)
(5.7501333e-06 0.00128081 0)
(7.238352e-06 0.001295294 0)
(8.0780234e-06 0.0013027925 0)
(7.2966061e-06 0.0013061853 0)
(6.1105132e-06 0.0013074107 0)
(4.8782928e-06 0.0013076276 0)
(3.6817337e-06 0.0013074571 0)
(2.5558642e-06 0.0013071993 0)
(1.5004186e-06 0.0013069856 0)
(4.9336097e-07 0.0013068698 0)
(-4.9690456e-07 0.0013068696 0)
(-1.503861e-06 0.0013069852 0)
(-2.5591074e-06 0.0013071985 0)
(-3.6846943e-06 0.0013074559 0)
(-4.8809161e-06 0.001307626 0)
(-6.1127812e-06 0.0013074087 0)
(-7.2984946e-06 0.0013061827 0)
(-8.0795276e-06 0.0013027894 0)
(-7.2395879e-06 0.0012952902 0)
(-5.7506519e-06 0.0012808049 0)
(5.4730908e-06 0.0016569063 0)
(6.8362258e-06 0.001675319 0)
(7.6719897e-06 0.0016847106 0)
(6.81413e-06 0.0016888747 0)
(5.5936927e-06 0.0016903105 0)
(4.3887892e-06 0.0016905112 0)
(3.2636458e-06 0.0016902516 0)
(2.2382197e-06 0.0016898969 0)
(1.302458e-06 0.0016896075 0)
(4.2627577e-07 0.0016894511 0)
(-4.2969116e-07 0.0016894509 0)
(-1.3058062e-06 0.0016896069 0)
(-2.2414219e-06 0.0016898959 0)
(-3.2666255e-06 0.0016902501 0)
(-4.3914806e-06 0.0016905092 0)
(-5.5960476e-06 0.001690308 0)
(-6.8160846e-06 0.0016888717 0)
(-7.6734828e-06 0.0016847071 0)
(-6.8373254e-06 0.0016753149 0)
(-5.4734096e-06 0.0016569012 0)
(5.5210392e-06 0.002041239 0)
(6.7819412e-06 0.0020640537 0)
(7.3680507e-06 0.0020754347 0)
(6.3154639e-06 0.0020803315 0)
(5.0041987e-06 0.0020818986 0)
(3.8122772e-06 0.0020820146 0)
(2.761715e-06 0.0020816159 0)
(1.8508673e-06 0.0020811287 0)
(1.0584076e-06 0.00208074 0)
(3.4311876e-07 0.0020805314 0)
(-3.4644652e-07 0.0020805312 0)
(-1.0617008e-06 0.0020807393 0)
(-1.8540663e-06 0.0020811276 0)
(-2.7647348e-06 0.0020816142 0)
(-3.8150403e-06 0.0020820124 0)
(-5.0066209e-06 0.002081896 0)
(-6.3174422e-06 0.0020803284 0)
(-7.3694521e-06 0.0020754311 0)
(-6.7827461e-06 0.0020640497 0)
(-5.5210446e-06 0.0020412345 0)
(5.8047588e-06 0.0024372243 0)
(6.9368868e-06 0.0024643402 0)
(7.0900069e-06 0.0024775666 0)
(5.7430833e-06 0.0024830399 0)
(4.2966419e-06 0.0024845906 0)
(3.1184999e-06 0.0024845152 0)
(2.1546208e-06 0.0024839093 0)
(1.3773756e-06 0.0024832436 0)
(7.5749941e-07 0.0024827231 0)
(2.4025984e-07 0.0024824458 0)
(-2.4348412e-07 0.0024824456 0)
(-7.6071564e-07 0.0024827224 0)
(-1.380535e-06 0.0024832424 0)
(-2.1576284e-06 0.0024839076 0)
(-3.1212638e-06 0.002484513 0)
(-4.2990356e-06 0.0024845879 0)
(-5.7449457e-06 0.0024830369 0)
(-7.091171e-06 0.0024775633 0)
(-6.9372737e-06 0.0024643367 0)
(-5.8043787e-06 0.0024372209 0)
(6.1253011e-06 0.0028482062 0)
(7.10463e-06 0.0028796485 0)
(6.6936303e-06 0.0028945026 0)
(4.9729389e-06 0.0029003469 0)
(3.3715776e-06 0.0029017315 0)
(2.2429017e-06 0.0029013459 0)
(1.40298e-06 0.0029004569 0)
(7.8978909e-07 0.0028995593 0)
(3.8096757e-07 0.0028988654 0)
(1.111919e-07 0.0028984975 0)
(-1.1426695e-07 0.0028984973 0)
(-3.8404418e-07 0.0028988648 0)
(-7.928363e-07 0.0028995582 0)
(-1.4058934e-06 0.0029004553 0)
(-2.2455557e-06 0.0029013437 0)
(-3.3737922e-06 0.002901729 0)
(-4.9745477e-06 0.0029003442 0)
(-6.6944204e-06 0.0028944997 0)
(-7.1045121e-06 0.0028796458 0)
(-6.1245371e-06 0.002848204 0)
(6.3683823e-06 0.0032792377 0)
(7.1369998e-06 0.0033152755 0)
(5.9907721e-06 0.0033313886 0)
(3.9023418e-06 0.003337337 0)
(2.15973e-06 0.0033384082 0)
(1.1229839e-06 0.0033376753 0)
(4.6300731e-07 0.0033364503 0)
(5.2619545e-08 0.0033352707 0)
(-9.7086938e-08 0.0033343499 0)
(-5.3286221e-08 0.0033338608 0)
(5.0400765e-08 0.0033338606 0)
(9.4224658e-08 0.0033343492 0)
(-5.548508e-08 0.0033352696 0)
(-4.6574588e-07 0.0033364488 0)
(-1.1254217e-06 0.0033376734 0)
(-2.1616186e-06 0.003338406 0)
(-3.903548e-06 0.0033373347 0)
(-5.9910949e-06 0.0033313862 0)
(-7.1364114e-06 0.0033152734 0)
(-6.3673264e-06 0.0032792364 0)
(6.5379277e-06 0.0037360722 0)
(6.8925603e-06 0.0037770771 0)
(4.6531081e-06 0.0037939118 0)
(2.3657649e-06 0.0037996339 0)
(6.3251879e-07 0.0038002793 0)
(-2.2186684e-07 0.0037992144 0)
(-6.8978552e-07 0.003797613 0)
(-8.7394448e-07 0.0037960902 0)
(-7.1467148e-07 0.0037948442 0)
(-2.6722812e-07 0.0037941792 0)
(2.6455053e-07 0.003794179 0)
(7.1206109e-07 0.0037948435 0)
(8.7128858e-07 0.0037960892 0)
(6.8734699e-07 0.0037976116 0)
(2.1978284e-07 0.0037992128 0)
(-6.3403278e-07 0.0038002774 0)
(-2.3665645e-06 0.003799632 0)
(-4.6529954e-06 0.0037939099 0)
(-6.8916523e-06 0.0037770754 0)
(-6.5367827e-06 0.0037360712 0)
(6.4781044e-06 0.0042250653 0)
(6.1276733e-06 0.0042711678 0)
(2.2899055e-06 0.0042881039 0)
(2.1381074e-07 0.0042930432 0)
(-1.2405469e-06 0.0042932376 0)
(-1.8164279e-06 0.0042917894 0)
(-2.1116269e-06 0.0042897464 0)
(-2.0843466e-06 0.0042878019 0)
(-1.5643074e-06 0.0042860758 0)
(-5.6199919e-07 0.0042851315 0)
(5.5951277e-07 0.0042851313 0)
(1.5618715e-06 0.0042860751 0)
(2.0820072e-06 0.0042878009 0)
(2.1095407e-06 0.0042897451 0)
(1.8147244e-06 0.0042917879 0)
(1.2394098e-06 0.0042932359 0)
(-2.1425487e-07 0.0042930414 0)
(-2.2895016e-06 0.004288102 0)
(-6.1267301e-06 0.004271166 0)
(-6.4771355e-06 0.004225064 0)
(5.5338573e-06 0.0047524691 0)
(4.3441391e-06 0.0048030193 0)
(-1.6385838e-06 0.0048193056 0)
(-2.849569e-06 0.0048223804 0)
(-3.5514298e-06 0.0048218366 0)
(-3.8100206e-06 0.0048198655 0)
(-3.9058693e-06 0.0048173327 0)
(-3.7172764e-06 0.0048149659 0)
(-2.7998997e-06 0.0048129224 0)
(-9.9915558e-07 0.0048115342 0)
(9.9685054e-07 0.004811534 0)
(2.7976682e-06 0.0048129218 0)
(3.7152051e-06 0.0048149649 0)
(3.9040852e-06 0.0048173315 0)
(3.8086446e-06 0.0048198641 0)
(3.5505646e-06 0.004821835 0)
(2.849287e-06 0.0048223786 0)
(1.6390107e-06 0.0048193036 0)
(-4.3434781e-06 0.0048030171 0)
(-5.5332575e-06 0.0047524671 0)
(2.3309971e-06 0.0053240982 0)
(4.2892348e-07 0.0053766139 0)
(-8.0350417e-06 0.005390864 0)
(-7.7479771e-06 0.0053913424 0)
(-6.7707608e-06 0.0053897391 0)
(-6.3793898e-06 0.0053872012 0)
(-6.0822406e-06 0.0053842444 0)
(-5.5342654e-06 0.005381423 0)
(-4.2965693e-06 0.0053791008 0)
(-1.6680828e-06 0.0053768105 0)
(1.6659489e-06 0.0053768103 0)
(4.2945177e-06 0.0053791003 0)
(5.5324024e-06 0.0053814221 0)
(6.0806806e-06 0.0053842433 0)
(6.378212e-06 0.0053871998 0)
(6.7700096e-06 0.0053897374 0)
(7.7476761e-06 0.0053913405 0)
(8.0352282e-06 0.0053908616 0)
(-4.2878443e-07 0.0053766112 0)
(-2.3308419e-06 0.0053240956 0)
(-5.6392871e-06 0.00596866 0)
(-8.4396791e-06 0.0060204385 0)
(-1.7682735e-05 0.0060310002 0)
(-1.4614968e-05 0.0060281515 0)
(-1.1123468e-05 0.0060255573 0)
(-9.5346221e-06 0.0060225935 0)
(-8.6659943e-06 0.0060194056 0)
(-7.7527104e-06 0.0060159307 0)
(-6.5275429e-06 0.0060128751 0)
(-2.8853206e-06 0.0060100958 0)
(2.8833582e-06 0.0060100957 0)
(6.5256603e-06 0.0060128746 0)
(7.7510018e-06 0.00601593 0)
(8.6645726e-06 0.0060194046 0)
(9.5335115e-06 0.0060225922 0)
(1.1122659e-05 0.0060255557 0)
(1.4614438e-05 0.0060281496 0)
(1.7682506e-05 0.0060309979 0)
(8.4392539e-06 0.0060204358 0)
(5.6390469e-06 0.0059686575 0)
(-1.8983226e-05 0.0066957944 0)
(-2.3962494e-05 0.0067424282 0)
(-3.1592909e-05 0.0067482429 0)
(-2.3875217e-05 0.0067426011 0)
(-1.6646521e-05 0.0067401254 0)
(-1.3280215e-05 0.0067375435 0)
(-1.1832564e-05 0.0067356255 0)
(-1.096692e-05 0.006731516 0)
(-9.2519066e-06 0.0067261729 0)
(-3.9951893e-06 0.0067227351 0)
(3.9934296e-06 0.0067227351 0)
(9.2502158e-06 0.0067261726 0)
(1.0965372e-05 0.0067315156 0)
(1.1831233e-05 0.0067356249 0)
(1.3279106e-05 0.0067375426 0)
(1.6645604e-05 0.0067401243 0)
(2.3874471e-05 0.0067425996 0)
(3.1592329e-05 0.0067482411 0)
(2.3961743e-05 0.0067424262 0)
(1.8982854e-05 0.0066957931 0)
(-3.9606269e-05 0.0074462804 0)
(-4.9758521e-05 0.007491167 0)
(-4.9180831e-05 0.0074987536 0)
(-3.4074576e-05 0.0074956549 0)
(-2.2369861e-05 0.0074963801 0)
(-1.6086363e-05 0.0074988145 0)
(-1.4208795e-05 0.0074998391 0)
(-1.5901326e-05 0.0074960237 0)
(-1.4082397e-05 0.0074844433 0)
(-5.6504558e-06 0.0074804937 0)
(5.648999e-06 0.0074804937 0)
(1.408099e-05 0.0074844433 0)
(1.5900007e-05 0.0074960238 0)
(1.4207593e-05 0.0074998391 0)
(1.6085294e-05 0.0074988143 0)
(2.2368909e-05 0.0074963797 0)
(3.4073749e-05 0.0074956543 0)
(4.9180101e-05 0.007498753 0)
(4.9757774e-05 0.0074911665 0)
(3.9605998e-05 0.0074462811 0)
(-5.6314132e-05 0.0081214277 0)
(-7.0041154e-05 0.0081707744 0)
(-5.9315983e-05 0.0081841989 0)
(-3.9322325e-05 0.0081883982 0)
(-2.313178e-05 0.0081934174 0)
(-1.4154339e-05 0.0081987092 0)
(-1.4712297e-05 0.0082019627 0)
(-2.4338772e-05 0.0082027477 0)
(-2.3068975e-05 0.0081904527 0)
(-7.4609713e-06 0.008190773 0)
(7.4598504e-06 0.0081907731 0)
(2.3067893e-05 0.008190453 0)
(2.4337725e-05 0.0082027481 0)
(1.4711262e-05 0.0082019631 0)
(1.4153353e-05 0.0081987096 0)
(2.3130861e-05 0.0081934177 0)
(3.9321546e-05 0.0081883984 0)
(5.9315326e-05 0.0081841993 0)
(7.0040584e-05 0.0081707752 0)
(5.6313942e-05 0.0081214303 0)
(-3.2080391e-05 0.0087219558 0)
(-4.5864776e-05 0.0087242484 0)
(-4.6331061e-05 0.0087247759 0)
(-3.0969421e-05 0.0087314372 0)
(-1.9367102e-05 0.0087370905 0)
(-1.1214371e-05 0.0087394503 0)
(-1.3060406e-05 0.0087429762 0)
(-4.0206981e-05 0.0087520534 0)
(-3.987044e-05 0.0087692332 0)
(-8.3166909e-06 0.0087782358 0)
(8.3156301e-06 0.008778236 0)
(3.9869435e-05 0.0087692335 0)
(4.0206021e-05 0.0087520539 0)
(1.3059376e-05 0.0087429767 0)
(1.121334e-05 0.0087394507 0)
(1.9366102e-05 0.0087370908 0)
(3.0968581e-05 0.0087314375 0)
(4.6330409e-05 0.0087247765 0)
(4.5864552e-05 0.0087242496 0)
(3.2080635e-05 0.0087219589 0)
(0.00025636291 0.009004018 0)
(0.00027317888 0.0091760987 0)
(0.00014250632 0.0091762649 0)
(7.9322587e-05 0.0091880309 0)
(4.5463955e-05 0.0091991012 0)
(2.8243868e-05 0.0092051172 0)
(1.2912632e-05 0.0092170998 0)
(-1.1327399e-05 0.0092562781 0)
(-1.7664233e-05 0.0094208237 0)
(-4.0401704e-06 0.0094572899 0)
(4.0383471e-06 0.0094572902 0)
(1.7662394e-05 0.0094208245 0)
(1.1325556e-05 0.0092562796 0)
(-1.2914567e-05 0.0092171015 0)
(-2.8245855e-05 0.0092051192 0)
(-4.5465906e-05 0.0091991034 0)
(-7.9324489e-05 0.0091880334 0)
(-0.00014250778 0.009176268 0)
(-0.00027317915 0.0091761033 0)
(-0.00025636159 0.0090040289 0)
(0.00093091803 0.0076985918 0)
(0.0014727391 0.0089658225 0)
(0.0012280271 0.0090312055 0)
(0.00089431769 0.0089840406 0)
(0.00061147739 0.0089566384 0)
(0.00039988254 0.0089489592 0)
(0.00023717979 0.0089639792 0)
(0.00010791186 0.0090186292 0)
(3.464175e-05 0.009179021 0)
(9.6182496e-06 0.0092279059 0)
(-9.6258193e-06 0.0092279068 0)
(-3.4649283e-05 0.009179024 0)
(-0.00010791973 0.0090186339 0)
(-0.00023718788 0.0089639852 0)
(-0.00039989017 0.0089489664 0)
(-0.0006114849 0.0089566453 0)
(-0.00089432444 0.0089840482 0)
(-0.001228033 0.0090312145 0)
(-0.001472744 0.0089658307 0)
(-0.00093091777 0.007698612 0)
(0.00085445463 0.0060414869 0)
(0.0016973907 0.0085398269 0)
(0.0017524232 0.0090636767 0)
(0.0014993259 0.0090898561 0)
(0.0011674102 0.0090129034 0)
(0.00085313503 0.0089382562 0)
(0.00058086422 0.0088927002 0)
(0.00035501131 0.0088847581 0)
(0.00018450744 0.0089166946 0)
(5.8336611e-05 0.0089311333 0)
(-5.8345166e-05 0.008931134 0)
(-0.00018451629 0.0089166967 0)
(-0.00035502055 0.0088847614 0)
(-0.00058087366 0.0088927048 0)
(-0.00085314447 0.0089382617 0)
(-0.0011674186 0.0090129079 0)
(-0.0014993334 0.009089862 0)
(-0.0017524286 0.0090636834 0)
(-0.0016973928 0.0085398332 0)
(-0.00085445448 0.0060414963 0)
(0.00056898627 0.0048579536 0)
(0.0013833182 0.008086384 0)
(0.0016375342 0.009121188 0)
(0.0015519717 0.009376926 0)
(0.0013127396 0.0093667326 0)
(0.0010290103 0.0092849392 0)
(0.00075039776 0.009204467 0)
(0.00049788328 0.0091507424 0)
(0.00028012942 0.0091268637 0)
(9.1475882e-05 0.0091164494 0)
(-9.1483101e-05 0.0091164494 0)
(-0.00028013704 0.0091268639 0)
(-0.00049789081 0.0091507434 0)
(-0.00075040551 0.0092044682 0)
(-0.0010290181 0.009284941 0)
(-0.0013127458 0.0093667336 0)
(-0.0015519766 0.0093769278 0)
(-0.0016375393 0.0091211917 0)
(-0.0013833176 0.0080863895 0)
(-0.00056898502 0.0048579673 0)
(0.00032961757 0.004049498 0)
(0.00097754726 0.007579997 0)
(0.0013085611 0.0090016164 0)
(0.0013502652 0.009501671 0)
(0.0012221016 0.0096112393 0)
(0.0010131715 0.0095715677 0)
(0.00077574355 0.0094920679 0)
(0.000538398 0.0094201761 0)
(0.00031406104 0.0093724101 0)
(0.0001043395 0.0093485394 0)
(-0.00010434596 0.009348539 0)
(-0.00031406719 0.0093724094 0)
(-0.00053840398 0.0094201753 0)
(-0.00077574958 0.009492067 0)
(-0.0010131771 0.0095715674 0)
(-0.0012221053 0.0096112388 0)
(-0.0013502679 0.009501671 0)
(-0.0013085639 0.009001619 0)
(-0.00097754931 0.0075800049 0)
(-0.00032961945 0.00404951 0)
(0.00017818831 0.0035358073 0)
(0.00063591274 0.0071257699 0)
(0.00095965455 0.0087929206 0)
(0.0010695008 0.0094963966 0)
(0.0010276163 0.0097342482 0)
(0.00089421743 0.009761546 0)
(0.00071249257 0.0097087835 0)
(0.00051090471 0.0096407093 0)
(0.00030518617 0.0095868234 0)
(0.00010257258 0.0095579885 0)
(-0.00010257773 0.0095579882 0)
(-0.00030519096 0.0095868221 0)
(-0.00051090937 0.009640707 0)
(-0.00071249694 0.0097087815 0)
(-0.00089422105 0.0097615446 0)
(-0.0010276187 0.0097342473 0)
(-0.0010695019 0.0094963963 0)
(-0.00095965507 0.008792923 0)
(-0.00063591399 0.0071257768 0)
(-0.00017818933 0.0035358197 0)
(9.401429e-05 0.0032274125 0)
(0.00039411915 0.006776792 0)
(0.00066685075 0.0085810056 0)
(0.00079784068 0.0094340045 0)
(0.00080925014 0.0097858918 0)
(0.00073526206 0.0098864935 0)
(0.00060640701 0.0098744899 0)
(0.00044664054 0.0098251749 0)
(0.00027179085 0.0097776167 0)
(9.2126814e-05 0.0097503343 0)
(-9.2131166e-05 0.009750334 0)
(-0.00027179524 0.0097776151 0)
(-0.0004466443 0.0098251725 0)
(-0.00060640977 0.0098744877 0)
(-0.000735264 0.0098864918 0)
(-0.00080925163 0.009785891 0)
(-0.00079784142 0.0094340049 0)
(-0.00066685121 0.0085810083 0)
(-0.00039411997 0.0067767985 0)
(-9.401476e-05 0.0032274225 0)
(4.9946336e-05 0.003046211 0)
(0.00023845433 0.0065292862 0)
(0.00044704649 0.0083998525 0)
(0.00057067321 0.009352935 0)
(0.00060818067 0.0097954753 0)
(0.00057457869 0.0099639353 0)
(0.00048865311 0.0099967258 0)
(0.00036836053 0.009973755 0)
(0.00022769016 0.0099397754 0)
(7.7688875e-05 0.009918154 0)
(-7.769284e-05 0.0099181535 0)
(-0.00022769356 0.0099397741 0)
(-0.00036836308 0.0099737534 0)
(-0.00048865519 0.0099967242 0)
(-0.00057458007 0.009963934 0)
(-0.00060818116 0.0097954749 0)
(-0.00057067313 0.0093529361 0)
(-0.00044704636 0.0083998565 0)
(-0.00023845439 0.0065292935 0)
(-4.9946278e-05 0.0030462197 0)
(2.7018284e-05 0.0029400908 0)
(0.00014268362 0.0063615123 0)
(0.00029196123 0.0082579749 0)
(0.00039524349 0.0092728636 0)
(0.00044079603 0.0097818729 0)
(0.00043159119 0.010006943 0)
(0.00037739538 0.010081854 0)
(0.0002904409 0.010086973 0)
(0.00018201062 0.010069531 0)
(6.2438798e-05 0.010055491 0)
(-6.2441834e-05 0.010055491 0)
(-0.00018201289 0.01006953 0)
(-0.00029044275 0.010086972 0)
(-0.00037739676 0.010081853 0)
(-0.00043159211 0.010006943 0)
(-0.00044079619 0.0097818737 0)
(-0.00039524285 0.0092728659 0)
(-0.00029196047 0.0082579799 0)
(-0.00014268318 0.0063615197 0)
(-2.7018043e-05 0.0029400985 0)
(1.481656e-05 0.002877916 0)
(8.4756345e-05 0.006251464 0)
(0.00018660599 0.0081535858 0)
(0.00026642268 0.0092038513 0)
(0.00030989037 0.0097586134 0)
(0.0003136405 0.010027602 0)
(0.0002813733 0.010138508 0)
(0.00022066908 0.01016978 0)
(0.00014001193 0.010168907 0)
(4.8254696e-05 0.010162811 0)
(-4.8257004e-05 0.010162811 0)
(-0.00014001353 0.010168907 0)
(-0.00022067037 0.010169779 0)
(-0.0002813742 0.010138508 0)
(-0.00031364069 0.010027603 0)
(-0.00030988999 0.0097586154 0)
(-0.00026642198 0.0092038549 0)
(-0.00018660505 0.0081535915 0)
(-8.4755528e-05 0.0062514716 0)
(-1.4816148e-05 0.0028779234 0)
(8.1268332e-06 0.0028416073 0)
(4.9855934e-05 0.0061812034 0)
(0.00011683935 0.0080803682 0)
(0.00017514973 0.00914929 0)
(0.00021192615 0.0097339375 0)
(0.00022129672 0.010035181 0)
(0.00020336571 0.010174865 0)
(0.00016232065 0.010228497 0)
(0.0001041776 0.010242539 0)
(3.6056571e-05 0.010243801 0)
(-3.6057869e-05 0.010243801 0)
(-0.00010417883 0.010242539 0)
(-0.00016232171 0.010228497 0)
(-0.00020336655 0.010174865 0)
(-0.00022129703 0.010035182 0)
(-0.00021192585 0.0097339405 0)
(-0.00017514895 0.0091492944 0)
(-0.00011683858 0.0080803746 0)
(-4.9855245e-05 0.0061812113 0)
(-8.1263511e-06 0.0028416147 0)
(4.3642368e-06 0.0028206285 0)
(2.8824296e-05 0.0061374207 0)
(7.151638e-05 0.0080309141 0)
(0.0001122655 0.0091086478 0)
(0.00014108943 0.0097119015 0)
(0.00015183316 0.010035788 0)
(0.00014279465 0.010197329 0)
(0.00011590354 0.010268948 0)
(7.5199761e-05 0.010295486 0)
(2.6132494e-05 0.010303046 0)
(-2.6133192e-05 0.010303046 0)
(-7.5200132e-05 0.010295486 0)
(-0.00011590368 0.010268948 0)
(-0.00014279488 0.01019733 0)
(-0.00015183301 0.01003579 0)
(-0.0001410889 0.0097119052 0)
(-0.00011226508 0.0091086527 0)
(-7.1516204e-05 0.0080309209 0)
(-2.8824072e-05 0.0061374292 0)
(-4.3639611e-06 0.0028206356 0)
(2.2178001e-06 0.0028087841 0)
(1.6168591e-05 0.0061108331 0)
(4.2558393e-05 0.007998592 0)
(6.9969156e-05 0.0090797248 0)
(9.1333753e-05 0.009694 0)
(0.00010128247 0.010033155 0)
(9.7457927e-05 0.010210602 0)
(8.0418923e-05 0.010296009 0)
(5.2732986e-05 0.010332464 0)
(1.8399701e-05 0.010345116 0)
(-1.8399685e-05 0.010345117 0)
(-5.2732631e-05 0.010332464 0)
(-8.0418813e-05 0.010296009 0)
(-9.7457924e-05 0.010210603 0)
(-0.00010128228 0.010033157 0)
(-9.1333681e-05 0.0096940035 0)
(-6.9969063e-05 0.00907973 0)
(-4.255829e-05 0.007998599 0)
(-1.6168416e-05 0.006110842 0)
(-2.2175541e-06 0.0028087911 0)
(9.9554499e-07 0.0028023803 0)
(8.608838e-06 0.0060951976 0)
(2.4372369e-05 0.007978144 0)
(4.2161729e-05 0.0090599286 0)
(5.7301427e-05 0.00968036 0)
(6.5563592e-05 0.010029416 0)
(6.4590793e-05 0.010218008 0)
(5.4199741e-05 0.010313562 0)
(3.5923124e-05 0.01035755 0)
(1.2588258e-05 0.010374135 0)
(-1.2587605e-05 0.010374135 0)
(-3.592238e-05 0.01035755 0)
(-5.4199174e-05 0.010313562 0)
(-6.459058e-05 0.010218008 0)
(-6.556342e-05 0.010029417 0)
(-5.7301076e-05 0.0096803634 0)
(-4.2161536e-05 0.009059934 0)
(-2.4372174e-05 0.0079781514 0)
(-8.608589e-06 0.0060952064 0)
(-9.9548881e-07 0.0028023873 0)
(3.1459419e-07 0.0027991825 0)
(4.1675382e-06 0.0060864007 0)
(1.3185105e-05 0.0079656645 0)
(2.4311389e-05 0.0090468631 0)
(3.4625344e-05 0.0096704659 0)
(4.1022388e-05 0.010025686 0)
(4.1459189e-05 0.010221808 0)
(3.5417124e-05 0.010324562 0)
(2.3740556e-05 0.010374059 0)
(8.358309e-06 0.010393564 0)
(-8.3578087e-06 0.010393564 0)
(-2.3739854e-05 0.010374059 0)
(-3.5416364e-05 0.010324562 0)
(-4.1458594e-05 0.010221809 0)
(-4.1022022e-05 0.010025687 0)
(-3.4624824e-05 0.0096704692 0)
(-2.4311065e-05 0.0090468682 0)
(-1.3184894e-05 0.0079656719 0)
(-4.1674475e-06 0.0060864095 0)
(-3.1464846e-07 0.0027991895 0)
(-4.5070309e-08 0.0027978306 0)
(1.636411e-06 0.0060817725 0)
(6.4900852e-06 0.0079583734 0)
(1.3164188e-05 0.0090385515 0)
(1.9932701e-05 0.0096635792 0)
(2.4635694e-05 0.01002246 0)
(2.5647601e-05 0.01022349 0)
(2.2357181e-05 0.010331179 0)
(1.5175436e-05 0.010384565 0)
(5.3718616e-06 0.010406165 0)
(-5.3712348e-06 0.010406165 0)
(-1.5175134e-05 0.010384565 0)
(-2.2356842e-05 0.010331179 0)
(-2.5647489e-05 0.010223491 0)
(-2.4635689e-05 0.010022462 0)
(-1.9932435e-05 0.0096635823 0)
(-1.3163723e-05 0.0090385562 0)
(-6.48968e-06 0.0079583804 0)
(-1.6362647e-06 0.0060817812 0)
(4.509902e-08 0.0027978379 0)
(-2.1209566e-07 0.0027975013 0)
(2.7022052e-07 0.0060795991 0)
(2.638833e-06 0.0079543534 0)
(6.4410604e-06 0.0090334727 0)
(1.0716431e-05 0.009658962 0)
(1.4030489e-05 0.010019892 0)
(1.5167291e-05 0.010223996 0)
(1.3550651e-05 0.010334951 0)
(9.3358127e-06 0.010390994 0)
(3.3263823e-06 0.010414047 0)
(-3.3260793e-06 0.010414047 0)
(-9.3353194e-06 0.010390993 0)
(-1.3550242e-05 0.010334951 0)
(-1.51672e-05 0.010223997 0)
(-1.4030613e-05 0.010019893 0)
(-1.0716485e-05 0.0096589652 0)
(-6.440999e-06 0.0090334774 0)
(-2.6386702e-06 0.0079543605 0)
(-2.6991741e-07 0.0060796081 0)
(2.1228107e-07 0.0027975091 0)
(-2.609045e-07 0.0027977071 0)
(-3.8954614e-07 0.0060787952 0)
(5.5873857e-07 0.0079523185 0)
(2.580131e-06 0.0090305154 0)
(5.1698823e-06 0.0096559799 0)
(7.4176644e-06 0.010017962 0)
(8.4588123e-06 0.010223907 0)
(7.8083455e-06 0.010336946 0)
(5.4828753e-06 0.010394742 0)
(1.9700592e-06 0.010418771 0)
(-1.9699276e-06 0.010418771 0)
(-5.4829667e-06 0.010394742 0)
(-7.8083096e-06 0.010336946 0)
(-8.4586627e-06 0.010223907 0)
(-7.4175658e-06 0.010017963 0)
(-5.1696538e-06 0.009655983 0)
(-2.5799192e-06 0.0090305203 0)
(-5.5845481e-07 0.007952326 0)
(3.8974398e-07 0.0060788045 0)
(2.6076769e-07 0.0027977153 0)
(-2.3930737e-07 0.0027981254 0)
(-6.2212135e-07 0.0060787678 0)
(-4.3473892e-07 0.0079514342 0)
(5.2948466e-07 0.0090289086 0)
(2.0236608e-06 0.0096541405 0)
(3.4921156e-06 0.010016589 0)
(4.3475866e-06 0.010223575 0)
(4.2123633e-06 0.010337892 0)
(3.037709e-06 0.010396804 0)
(1.1041747e-06 0.010421466 0)
(-1.104528e-06 0.010421466 0)
(-3.0381446e-06 0.010396804 0)
(-4.2128484e-06 0.010337892 0)
(-4.3477658e-06 0.010223575 0)
(-3.4920685e-06 0.01001659 0)
(-2.0235055e-06 0.0096541438 0)
(-5.2924871e-07 0.009028914 0)
(4.3516819e-07 0.0079514421 0)
(6.2269117e-07 0.0060787779 0)
(2.3953854e-07 0.0027981344 0)
(-1.9245423e-07 0.0027985027 0)
(-6.1071749e-07 0.0060790189 0)
(-7.6718657e-07 0.0079511751 0)
(-3.9974149e-07 0.0090280729 0)
(4.083726e-07 0.0096530291 0)
(1.3300252e-06 0.010015627 0)
(1.9789587e-06 0.010223162 0)
(2.0793489e-06 0.010338225 0)
(1.561847e-06 0.010397819 0)
(5.7740796e-07 0.010422878 0)
(-5.7807159e-07 0.010422878 0)
(-1.562515e-06 0.010397819 0)
(-2.080209e-06 0.010338225 0)
(-1.9794207e-06 0.010223163 0)
(-1.3300628e-06 0.010015629 0)
(-4.0808342e-07 0.0096530328 0)
(4.0029576e-07 0.0090280785 0)
(7.677969e-07 0.0079511833 0)
(6.1117121e-07 0.0060790302 0)
(1.9254477e-07 0.0027985124 0)
(-1.3617106e-07 0.0027980594 0)
(-4.7331057e-07 0.0060786169 0)
(-7.1600556e-07 0.0079505798 0)
(-6.4651367e-07 0.0090271171 0)
(-2.5075004e-07 0.009651813 0)
(2.9545828e-07 0.010014422 0)
(7.4788831e-07 0.010222224 0)
(9.161992e-07 0.010337704 0)
(7.348601e-07 0.010397702 0)
(2.7863175e-07 0.010423001 0)
(-2.794732e-07 0.010423002 0)
(-7.3555839e-07 0.010397703 0)
(-9.1694971e-07 0.010337705 0)
(-7.483703e-07 0.010222225 0)
(-2.9551782e-07 0.010014425 0)
(2.5108461e-07 0.0096518168 0)
(6.4706108e-07 0.0090271227 0)
(7.1664815e-07 0.0079505884 0)
(4.7412269e-07 0.0060786287 0)
(1.3665941e-07 0.0027980699 0)
(-7.9738151e-08 0.0027993558 0)
(-2.969987e-07 0.0060798181 0)
(-4.9606951e-07 0.0079515576 0)
(-5.2863277e-07 0.0090277648 0)
(-3.4876681e-07 0.009652177 0)
(-4.2672158e-08 0.010014691 0)
(2.4443449e-07 0.010222614 0)
(3.893301e-07 0.010338352 0)
(3.4051947e-07 0.010398622 0)
(1.3326166e-07 0.010424089 0)
(-1.3379656e-07 0.01042409 0)
(-3.4123391e-07 0.010398622 0)
(-3.902193e-07 0.010338353 0)
(-2.4500884e-07 0.010222615 0)
(4.2579107e-08 0.010014693 0)
(3.4897146e-07 0.0096521804 0)
(5.2917152e-07 0.0090277703 0)
(4.9697614e-07 0.0079515668 0)
(2.9780582e-07 0.0060798299 0)
(8.0064071e-08 0.0027993672 0)
)
;

boundaryField
{
    Wall
    {
        type            fixedValue;
        value           uniform (0 0 0);
    }
    frontAndBack
    {
        type            empty;
    }
    atmosphere
    {
        type            pressureInletOutletVelocity;
        value           nonuniform List<vector> 
20
(
(-7.9738151e-08 0.0027993558 0)
(-2.969987e-07 0.0060798181 0)
(-4.9606951e-07 0.0079515576 0)
(-5.2863277e-07 0.0090277648 0)
(-3.4876681e-07 0.009652177 0)
(-4.2672158e-08 0.010014691 0)
(2.4443449e-07 0.010222614 0)
(3.893301e-07 0.010338352 0)
(3.4051947e-07 0.010398622 0)
(1.3326166e-07 0.010424089 0)
(-1.3379656e-07 0.01042409 0)
(-3.4123391e-07 0.010398622 0)
(-3.902193e-07 0.010338353 0)
(-2.4500884e-07 0.010222615 0)
(4.2579107e-08 0.010014693 0)
(3.4897146e-07 0.0096521804 0)
(5.2917152e-07 0.0090277703 0)
(4.9697614e-07 0.0079515668 0)
(2.9780582e-07 0.0060798299 0)
(8.0064071e-08 0.0027993672 0)
)
;
    }
}


// ************************************************************************* //
