/*--------------------------------*- C++ -*----------------------------------*\
| =========                 |                                                 |
| \\      /  F ield         | OpenFOAM: The Open Source CFD Toolbox           |
|  \\    /   O peration     | Version:  3.0.1                                 |
|   \\  /    A nd           | Web:      www.OpenFOAM.org                      |
|    \\/     M anipulation  |                                                 |
\*---------------------------------------------------------------------------*/
FoamFile
{
    version     2.0;
    format      ascii;
    class       volScalarField;
    location    "26";
    object      wBA_l_0;
}
// * * * * * * * * * * * * * * * * * * * * * * * * * * * * * * * * * * * * * //

dimensions      [0 0 0 0 0 0 0];

internalField   nonuniform List<scalar> 
800
(
0.049754999
0.049753223
0.049752964
0.049752943
0.049752944
0.049752943
0.049752938
0.049752933
0.049752929
0.049752927
0.049752927
0.049752929
0.049752933
0.049752938
0.049752943
0.049752944
0.049752943
0.049752964
0.049753223
0.049754999
0.050507459
0.050481126
0.050475688
0.050474659
0.050474594
0.050474651
0.050474665
0.050474638
0.050474601
0.050474578
0.050474578
0.050474601
0.050474638
0.050474665
0.050474651
0.050474595
0.050474659
0.050475689
0.050481127
0.05050746
0.050612753
0.050586431
0.05058053
0.050579385
0.050579099
0.050578921
0.050578732
0.050578555
0.050578421
0.05057835
0.05057835
0.050578421
0.050578555
0.050578732
0.050578921
0.050579099
0.050579384
0.05058053
0.050586431
0.050612753
0.050142669
0.050132464
0.050129915
0.050129421
0.050128959
0.05012842
0.050127906
0.050127496
0.050127216
0.050127077
0.050127077
0.050127216
0.050127496
0.050127905
0.050128419
0.050128958
0.050129419
0.050129913
0.050132463
0.050142667
0.049183256
0.049202856
0.049205932
0.049206314
0.049205607
0.049204586
0.049203655
0.049202957
0.049202498
0.049202276
0.049202276
0.049202497
0.049202956
0.049203654
0.049204584
0.049205606
0.049206312
0.04920593
0.049202854
0.049183252
0.047828485
0.047888263
0.047898334
0.047899687
0.047898575
0.047896952
0.047895537
0.047894513
0.047893858
0.047893548
0.047893548
0.047893857
0.047894512
0.047895535
0.047896949
0.047898572
0.047899684
0.04789833
0.047888259
0.04782848
0.04616989
0.046277387
0.046295908
0.046298273
0.046296525
0.046294182
0.04629224
0.046290879
0.046290028
0.046289631
0.046289631
0.046290027
0.046290877
0.046292238
0.046294179
0.046296521
0.046298269
0.046295904
0.046277383
0.046169884
0.044290247
0.044451106
0.04447996
0.044483436
0.044480962
0.044477798
0.044475323
0.044473643
0.044472613
0.044472138
0.044472138
0.044472612
0.044473641
0.04447532
0.044477795
0.044480959
0.044483432
0.044479956
0.044451102
0.044290242
0.042258469
0.04247731
0.042519036
0.042524013
0.042520748
0.042516917
0.042513969
0.042512031
0.042510848
0.042510308
0.042510308
0.042510847
0.042512029
0.042513966
0.042516914
0.042520745
0.04252401
0.042519032
0.042477306
0.042258466
0.040125696
0.040407014
0.040465197
0.040472611
0.040468987
0.040464609
0.040461353
0.04045925
0.040457935
0.040457343
0.040457342
0.040457934
0.040459249
0.04046135
0.040464606
0.040468984
0.040472608
0.040465194
0.040407011
0.040125693
0.037923112
0.038273016
0.038352613
0.038364357
0.03836124
0.03835669
0.038353296
0.038351116
0.038349637
0.038348988
0.038348988
0.038349636
0.038351114
0.038353294
0.038356688
0.038361237
0.038364354
0.03835261
0.038273014
0.037923109
0.035660117
0.036088263
0.036196189
0.036215923
0.036215317
0.036211229
0.036207795
0.036205598
0.036203944
0.036203215
0.036203214
0.036203943
0.036205596
0.036207793
0.036211227
0.036215315
0.036215921
0.036196186
0.03608826
0.035660115
0.033322494
0.033842404
0.033990418
0.03402492
0.034029573
0.034026658
0.034023187
0.034020997
0.034019222
0.034018349
0.034018348
0.034019221
0.034020995
0.034023185
0.034026656
0.034029571
0.034024919
0.033990415
0.033842402
0.033322492
0.030864275
0.031495015
0.031704379
0.031764623
0.031778499
0.031777735
0.031774176
0.031771859
0.031770698
0.031769024
0.031769023
0.031770697
0.031771857
0.031774174
0.031777733
0.031778497
0.031764622
0.031704377
0.031495014
0.030864274
0.028218067
0.028986149
0.029289014
0.029391779
0.029421617
0.029424502
0.029420929
0.029417932
0.029416931
0.029415605
0.029415604
0.02941693
0.02941793
0.029420928
0.029424501
0.029421616
0.029391779
0.029289012
0.028986148
0.028218067
0.025284325
0.026221723
0.026666192
0.026841343
0.026900045
0.02690928
0.026905161
0.026900497
0.026898908
0.026896675
0.026896674
0.026898907
0.026900495
0.02690516
0.026909279
0.026900044
0.026841343
0.026666191
0.026221723
0.025284329
0.021846998
0.023020606
0.023692151
0.023990771
0.02410117
0.024126059
0.024122393
0.02411348
0.024109324
0.024104833
0.024104832
0.024109323
0.024113478
0.024122392
0.024126058
0.02410117
0.023990772
0.023692152
0.023020609
0.021847005
0.017959632
0.019429307
0.020428685
0.020926166
0.021119212
0.021162601
0.02115271
0.021132427
0.021119898
0.021111408
0.021111407
0.021119897
0.021132424
0.021152709
0.021162601
0.021119213
0.020926167
0.020428686
0.019429312
0.017959645
0.013163117
0.015152769
0.016652604
0.017491853
0.017851879
0.017944158
0.017928383
0.017888615
0.01786
0.017843234
0.017843233
0.017859999
0.017888612
0.017928382
0.017944158
0.01785188
0.017491854
0.016652606
0.015152778
0.013163137
0.0079111936
0.0106961
0.012633575
0.013820599
0.014390431
0.014556405
0.014534249
0.014462232
0.014404521
0.014371495
0.014371494
0.014404519
0.014462229
0.014534248
0.014556404
0.01439043
0.013820599
0.012633576
0.010696107
0.0079112136
0.0035354755
0.006940958
0.0091612466
0.010555166
0.011264032
0.011484094
0.011449692
0.011338863
0.011244622
0.011190795
0.011190793
0.011244618
0.011338859
0.011449689
0.011484093
0.011264031
0.010555165
0.0091612475
0.0069409629
0.0035354888
0.0011417695
0.0041752428
0.0063974932
0.0078480247
0.0086128772
0.008860582
0.0088188948
0.008681088
0.0085585209
0.0084877658
0.0084877634
0.0085585166
0.0086810827
0.0088188912
0.0088605797
0.0086128745
0.0078480227
0.006397493
0.0041752458
0.0011417753
0.0002756315
0.002333811
0.0043014031
0.0056750564
0.0064262625
0.0066809608
0.0066431539
0.0065001222
0.0063675693
0.0062899122
0.0062899095
0.0063675643
0.0065001157
0.0066431489
0.0066809569
0.0064262587
0.0056750535
0.0043014019
0.0023338125
0.00027563329
5.311483e-05
0.0012060873
0.0027754155
0.003977541
0.0046642927
0.0049103675
0.0048855152
0.0047567216
0.0046322873
0.0045582543
0.0045582516
0.004632282
0.0047567146
0.0048855095
0.0049103628
0.0046642885
0.0039775379
0.0027754138
0.001206088
5.311523e-05
8.7448874e-06
0.00057515668
0.0017117667
0.0026921128
0.0032828084
0.0035083215
0.003499869
0.0033965971
0.0032920731
0.003228901
0.0032288984
0.0032920678
0.0033965902
0.0034998632
0.0035083167
0.0032828044
0.00269211
0.0017117653
0.00057515699
8.7449618e-06
1.2976594e-06
0.00025432773
0.0010064243
0.0017545704
0.0022348592
0.0024312464
0.002437427
0.0023625812
0.0022824358
0.0022331728
0.0022331706
0.0022824312
0.0023625751
0.0024374218
0.0024312421
0.0022348559
0.0017545683
0.0010064235
0.00025432789
1.2976714e-06
1.7990964e-07
0.00010517211
0.00056367263
0.0010993822
0.0014692872
0.0016316944
0.0016477504
0.0015984064
0.0015415822
0.0015059724
0.0015059706
0.0015415784
0.0015984013
0.0016477459
0.0016316909
0.0014692846
0.0010993809
0.0005636722
0.00010517222
1.7991147e-07
2.3827266e-08
4.1031841e-05
0.00030103424
0.00066195101
0.00093215319
0.001059616
0.001080165
0.0010506136
0.0010130501
0.00098895726
0.00098895584
0.001013047
0.0010506095
0.0010801615
0.0010596133
0.00093215142
0.00066195024
0.00030103409
4.1031912e-05
2.3827539e-08
3.0539575e-09
1.5215207e-05
0.00015361519
0.00038315361
0.0005706244
0.00066559039
0.00068623987
0.00067035232
0.00064708419
0.00063172467
0.0006317236
0.00064708191
0.00067034923
0.00068623725
0.00066558844
0.0005706232
0.0003831532
0.00015361516
1.5215244e-05
3.0539977e-09
3.815672e-10
5.3933307e-06
7.5084432e-05
0.00021340124
0.00033717435
0.00040442149
0.00042242497
0.0004150058
0.00040146619
0.00039219708
0.00039219633
0.00040146455
0.00041500357
0.00042242309
0.00040442013
0.00033717355
0.00021340103
7.5084445e-05
5.3933483e-06
3.8157289e-10
4.6649088e-11
1.8352815e-06
3.5239936e-05
0.00011450641
0.00019243559
0.00023777648
0.00025195819
0.00024923014
0.00024182779
0.00023651663
0.00023651613
0.00024182667
0.00024922861
0.00025195689
0.00023777555
0.00019243507
0.00011450631
3.5239955e-05
1.8352888e-06
4.6649862e-11
5.5903772e-12
6.0141268e-07
1.5917557e-05
5.9272067e-05
0.00010616942
0.00013534057
0.00014565202
0.00014519213
0.00014139975
0.00013850501
0.00013850468
0.00014139901
0.00014519112
0.00014565115
0.00013533997
0.00010616909
5.9272015e-05
1.5917571e-05
6.0141547e-07
5.5904763e-12
6.5894877e-13
1.9023097e-07
6.9333829e-06
2.9637029e-05
5.6674178e-05
7.4623591e-05
8.1635495e-05
8.2065091e-05
8.0256673e-05
7.875503e-05
7.8754825e-05
8.025621e-05
8.2064449e-05
8.1634948e-05
7.4623214e-05
5.6673979e-05
2.9637003e-05
6.9333914e-06
1.9023197e-07
6.5899175e-13
9.757005e-14
5.8184872e-08
2.91742e-06
1.4332876e-05
2.929804e-05
3.9884441e-05
4.4383662e-05
4.5017446e-05
4.4226223e-05
4.3485293e-05
4.348517e-05
4.4225942e-05
4.5017056e-05
4.4383328e-05
3.9884214e-05
2.9297923e-05
1.4332863e-05
2.9174245e-06
5.8185214e-08
9.7615958e-14
6.5483864e-14
1.723434e-08
1.1876692e-06
6.7120841e-06
1.4680723e-05
2.0678117e-05
2.3419746e-05
2.3976501e-05
2.3668735e-05
2.3321803e-05
2.3321732e-05
2.3668571e-05
2.3976274e-05
2.341955e-05
2.0677985e-05
1.4680657e-05
6.7120776e-06
1.1876715e-06
1.7234455e-08
6.568776e-14
7.7182266e-14
4.9516258e-09
4.6839203e-07
3.0470307e-06
7.1364798e-06
1.0406391e-05
1.2000635e-05
1.2404429e-05
1.2306543e-05
1.2153114e-05
1.2153074e-05
1.230645e-05
1.2404301e-05
1.2000525e-05
1.0406318e-05
7.1364446e-06
3.0470276e-06
4.6839314e-07
4.9516675e-09
7.7322542e-14
3.555845e-14
1.3851888e-09
1.7916709e-07
1.3422103e-06
3.3682239e-06
5.0870613e-06
5.9750766e-06
6.2369784e-06
6.2195422e-06
6.1560239e-06
6.1560027e-06
6.219492e-06
6.2369092e-06
5.9750165e-06
5.0870223e-06
3.3682057e-06
1.3422089e-06
1.7916761e-07
1.3852088e-09
3.560925e-14
1.0569345e-14
3.7756539e-10
6.6555076e-08
5.7422074e-07
1.5446449e-06
2.4171185e-06
2.8923718e-06
3.0493512e-06
3.0567039e-06
3.0325074e-06
3.0324963e-06
3.0566776e-06
3.049315e-06
2.8923402e-06
2.4170983e-06
1.5446358e-06
5.7422008e-07
6.6555316e-08
3.7757287e-10
1.058313e-14
2.4395189e-15
1.0013928e-10
2.4029477e-08
2.3880114e-07
6.887711e-07
1.1170368e-06
1.3620283e-06
1.4504676e-06
1.4616385e-06
1.453465e-06
1.4534595e-06
1.4616251e-06
1.4504493e-06
1.3620123e-06
1.1170267e-06
6.8876669e-07
2.3880084e-07
2.4029579e-08
1.0014187e-10
2.4461935e-15
4.597511e-16
2.5820306e-11
8.4384952e-09
9.6609269e-08
2.988411e-07
5.0238545e-07
6.2428447e-07
6.7159218e-07
6.8036053e-07
6.7814839e-07
6.781457e-07
6.8035391e-07
6.7158316e-07
6.2427656e-07
5.0238049e-07
2.9883901e-07
9.6609126e-08
8.4385367e-09
2.5821114e-11
4.614004e-16
)
;

boundaryField
{
    Wall
    {
        type            zeroGradient;
    }
    frontAndBack
    {
        type            empty;
    }
    atmosphere
    {
        type            zeroGradient;
    }
}


// ************************************************************************* //
