/*--------------------------------*- C++ -*----------------------------------*\
| =========                 |                                                 |
| \\      /  F ield         | OpenFOAM: The Open Source CFD Toolbox           |
|  \\    /   O peration     | Version:  3.0.1                                 |
|   \\  /    A nd           | Web:      www.OpenFOAM.org                      |
|    \\/     M anipulation  |                                                 |
\*---------------------------------------------------------------------------*/
FoamFile
{
    version     2.0;
    format      ascii;
    class       volScalarField;
    location    "26";
    object      wBA_g;
}
// * * * * * * * * * * * * * * * * * * * * * * * * * * * * * * * * * * * * * //

dimensions      [0 0 0 0 0 0 0];

internalField   nonuniform List<scalar> 
800
(
0.047515703
0.047518141
0.047518698
0.047518843
0.047518921
0.047518982
0.047519032
0.047519069
0.047519093
0.047519105
0.047519105
0.047519093
0.047519069
0.047519031
0.047518982
0.047518921
0.047518843
0.047518698
0.047518141
0.047515703
0.051168068
0.05112385
0.051112981
0.051110472
0.051109809
0.051109603
0.051109471
0.051109349
0.05110925
0.051109195
0.051109195
0.051109249
0.051109348
0.051109471
0.051109602
0.051109809
0.051110472
0.051112981
0.051123851
0.051168069
0.053263933
0.053212023
0.053217456
0.053213773
0.053212304
0.053211578
0.053211111
0.053210795
0.053210585
0.053210482
0.053210481
0.053210585
0.053210794
0.053211109
0.053211576
0.053212302
0.053213771
0.053217454
0.053212021
0.05326393
0.053968301
0.053931343
0.053956012
0.053952494
0.053950751
0.053949724
0.053949011
0.053948603
0.053948344
0.05394823
0.05394823
0.053948342
0.0539486
0.053949008
0.05394972
0.053950746
0.053952489
0.053956007
0.053931337
0.053968292
0.053522136
0.053522767
0.053555306
0.053566124
0.053563899
0.053562561
0.05356164
0.053561235
0.053560986
0.053560907
0.053560906
0.053560984
0.053561231
0.053561634
0.053562554
0.05356389
0.053566115
0.053555296
0.053522756
0.053522122
0.052235977
0.052295187
0.052317699
0.052348519
0.052344558
0.05234245
0.05234115
0.052340718
0.052340477
0.052340449
0.052340448
0.052340473
0.052340712
0.052341142
0.05234244
0.052344546
0.052348505
0.052317685
0.052295172
0.052235957
0.05045099
0.050579764
0.050580024
0.050623914
0.050615962
0.050612106
0.050609974
0.050609292
0.050608945
0.050608931
0.05060893
0.050608941
0.050609285
0.050609964
0.050612094
0.050615947
0.050623897
0.050580006
0.050579745
0.050450967
0.048507027
0.048683001
0.04867189
0.048714294
0.048699439
0.048692351
0.048688615
0.04868724
0.048686538
0.048686428
0.048686427
0.048686533
0.048687232
0.048688604
0.048692337
0.048699422
0.048714275
0.04867187
0.04868298
0.048507003
0.046686366
0.046880577
0.04686354
0.046887582
0.046885093
0.046872979
0.046866486
0.046863688
0.0468622
0.046861792
0.046861791
0.046862196
0.04686368
0.046866474
0.046872964
0.046885075
0.046887561
0.046863519
0.046880554
0.046686341
0.04514613
0.045385483
0.045342617
0.045331665
0.045357639
0.045368472
0.045357454
0.045352064
0.045349087
0.045348044
0.045348043
0.045349083
0.045352056
0.045357442
0.045368457
0.04535762
0.045331644
0.045342595
0.04538546
0.045146105
0.043944276
0.044272394
0.044210547
0.044147547
0.044233008
0.044286856
0.044268057
0.044258052
0.044252397
0.044250157
0.044250156
0.044252393
0.044258046
0.044268047
0.044286842
0.04423299
0.044147526
0.044210526
0.044272371
0.043944252
0.043079043
0.043553093
0.043501143
0.04335953
0.043590783
0.043676994
0.043645858
0.043628142
0.043616904
0.043612494
0.043612493
0.043616901
0.043628136
0.043645849
0.043676982
0.043590767
0.043359512
0.043501123
0.043553072
0.043079021
0.042437406
0.043159251
0.043155641
0.042950571
0.043313325
0.043400349
0.043350916
0.043317844
0.043380645
0.043368732
0.043368731
0.043380643
0.04331784
0.043350908
0.043400338
0.04331331
0.042950555
0.043155624
0.043159231
0.042437386
0.041419635
0.042559904
0.042737729
0.042654131
0.043036052
0.043092835
0.043020644
0.042970983
0.04315961
0.043139808
0.043139807
0.043159607
0.042970979
0.043020637
0.043092825
0.043036039
0.042654116
0.042737713
0.042559885
0.041419613
0.038671041
0.040665015
0.041238915
0.041231921
0.04154226
0.041551914
0.041381117
0.041311483
0.041533372
0.041840299
0.041840298
0.041533369
0.041311479
0.04138111
0.041551905
0.041542249
0.041231907
0.041238899
0.040664996
0.03867102
0.028616724
0.032581528
0.034075007
0.034853438
0.035135883
0.035037667
0.034912811
0.034860121
0.035055109
0.035438387
0.035438386
0.035055108
0.034860119
0.034912807
0.035037662
0.035135877
0.034853431
0.034074998
0.032581518
0.028616717
0.015678522
0.01820321
0.019301976
0.019828431
0.020106149
0.020128281
0.020079336
0.020061819
0.020219058
0.020497246
0.020497246
0.020219057
0.020061819
0.020079335
0.020128278
0.020106145
0.019828426
0.019301971
0.018203204
0.015678519
0.0089150469
0.010351605
0.011020676
0.011288529
0.011511511
0.011564296
0.011550803
0.011548755
0.011632845
0.011785565
0.011785566
0.011632846
0.011548755
0.011550803
0.011564295
0.011511509
0.011288526
0.011020673
0.010351603
0.008915049
0.0048273883
0.0057150447
0.0061675422
0.0063292414
0.0064901499
0.0065431576
0.0065453356
0.0065495832
0.0066252133
0.0066938763
0.0066938765
0.006625214
0.006549584
0.0065453362
0.0065431579
0.0064901496
0.0063292408
0.0061675418
0.0057150454
0.004827393
0.0022995723
0.0030103737
0.0033562848
0.0034810917
0.0035808695
0.0036165671
0.0036181444
0.0036179964
0.0036550094
0.0036789112
0.0036789114
0.0036550099
0.0036179972
0.0036181452
0.0036165677
0.0035808695
0.0034810915
0.0033562848
0.0030103746
0.0022995769
0.00087108962
0.0015081842
0.0018134268
0.0019302523
0.0019930578
0.0020097884
0.002003299
0.0019951716
0.0020054171
0.0020100575
0.0020100575
0.0020054174
0.001995172
0.0020032995
0.0020097888
0.0019930576
0.001930252
0.0018134268
0.0015081848
0.00087109244
0.0002531285
0.00071053367
0.00096605137
0.0010774349
0.0011257116
0.0011340102
0.0011237614
0.0011115543
0.0011090456
0.0011065759
0.001106576
0.0011090458
0.0011115544
0.0011237615
0.0011340103
0.0011257113
0.0010774346
0.00096605121
0.00071053403
0.0002531297
5.7469348e-05
0.00031516279
0.00050474696
0.0006010441
0.00064194705
0.0006486146
0.00063944223
0.0006276516
0.00062106455
0.0006168262
0.00061682617
0.00062106452
0.00062765151
0.00063944211
0.00064861443
0.00064194665
0.00060104368
0.00050474673
0.00031516296
5.7469715e-05
1.0712803e-05
0.00013199219
0.0002581822
0.00033328163
0.00036723481
0.00037410953
0.0003678692
0.00035865659
0.00035211464
0.00034818765
0.0003481876
0.00035211453
0.00035865641
0.00036786899
0.00037410927
0.00036723445
0.00033328129
0.000258182
0.00013199227
1.0712885e-05
1.7340468e-06
5.2391126e-05
0.00012918418
0.00018297977
0.00020954696
0.00021631359
0.00021285867
0.00020653623
0.00020144858
0.00019844492
0.00019844487
0.00020144846
0.00020653603
0.00021285846
0.00021631336
0.00020954669
0.00018297952
0.00012918405
5.2391157e-05
1.7340623e-06
2.5519632e-07
1.9820841e-05
6.3183072e-05
9.9146012e-05
0.00011868731
0.00012468488
0.00012318268
0.00011922941
0.00011573521
0.00011366336
0.00011366331
0.0001157351
0.00011922925
0.00012318251
0.0001246847
0.00011868714
9.9145871e-05
6.3183005e-05
1.9820855e-05
2.5519885e-07
3.5242465e-08
7.1923638e-06
3.0181045e-05
5.2865422e-05
6.645313e-05
7.1292883e-05
7.0918877e-05
6.8629885e-05
6.6417558e-05
6.5085583e-05
6.5085548e-05
6.6417476e-05
6.8629766e-05
7.0918758e-05
7.1292768e-05
6.6453027e-05
5.286535e-05
3.018102e-05
7.1923718e-06
3.5242848e-08
4.6577999e-09
2.5168501e-06
1.4067923e-05
2.7667821e-05
3.6651992e-05
4.0268734e-05
4.0430754e-05
3.9197875e-05
3.7881643e-05
3.7071157e-05
3.7071132e-05
3.7881584e-05
3.9197792e-05
4.0430674e-05
4.0268663e-05
3.6651938e-05
2.766779e-05
1.4067917e-05
2.5168545e-06
4.6578561e-09
5.960088e-10
8.5270152e-07
6.3936489e-06
1.4182228e-05
1.985691e-05
2.2392604e-05
2.2736915e-05
2.212211e-05
2.13795e-05
2.090895e-05
2.0908933e-05
2.137946e-05
2.2122054e-05
2.2736863e-05
2.2392562e-05
1.9856882e-05
1.4182217e-05
6.3936495e-06
8.5270378e-07
5.9601695e-10
7.4327094e-11
2.8042977e-07
2.831594e-06
7.1079795e-06
1.0543708e-05
1.2226627e-05
1.2574886e-05
1.229567e-05
1.1896725e-05
1.1634887e-05
1.1634876e-05
1.1896698e-05
1.2295634e-05
1.2574854e-05
1.2226603e-05
1.0543695e-05
7.1079765e-06
2.8315961e-06
2.8043078e-07
7.4328246e-11
9.0667679e-12
8.9669485e-08
1.2215441e-06
3.4789919e-06
5.4781465e-06
6.5421165e-06
6.8239299e-06
6.7130818e-06
6.5087749e-06
6.36877e-06
6.3687627e-06
6.508758e-06
6.7130589e-06
6.8239101e-06
6.5421029e-06
5.4781404e-06
3.4789918e-06
1.2215458e-06
8.9669901e-08
9.0669252e-12
1.0839996e-12
2.790569e-08
5.1322031e-07
1.6615927e-06
2.7819193e-06
3.4255771e-06
3.6274748e-06
3.5934585e-06
3.4938305e-06
3.421793e-06
3.4217886e-06
3.4938201e-06
3.5934445e-06
3.627463e-06
3.4255694e-06
2.7819164e-06
1.6615934e-06
5.1322135e-07
2.7905848e-08
1.0840203e-12
1.271821e-13
8.4575905e-09
2.0999605e-07
7.7405082e-07
1.3798071e-06
1.753681e-06
1.8867773e-06
1.8834132e-06
1.8373143e-06
1.8016246e-06
1.801622e-06
1.8373082e-06
1.8834049e-06
1.8867705e-06
1.7536767e-06
1.3798057e-06
7.7405147e-07
2.0999663e-07
8.4576469e-09
1.2718548e-13
1.5147178e-14
2.4974941e-09
8.3692824e-08
3.5165356e-07
6.6817142e-07
8.772534e-07
9.5955078e-07
9.656885e-07
9.4558808e-07
9.285642e-07
9.285627e-07
9.4558462e-07
9.6568376e-07
9.5954693e-07
8.7725111e-07
6.6817079e-07
3.5165401e-07
8.3693112e-08
2.4975133e-09
1.5148665e-14
3.1645217e-15
7.1883864e-10
3.2496715e-08
1.5580261e-07
3.158575e-07
4.2868048e-07
4.7694324e-07
4.841211e-07
4.7596945e-07
4.6815776e-07
4.6815693e-07
4.7596753e-07
4.8411848e-07
4.7694114e-07
4.2867928e-07
3.1585723e-07
1.5580288e-07
3.249685e-08
7.1884498e-10
3.1705311e-15
3.0914657e-15
2.0176888e-10
1.229713e-08
6.7332424e-08
1.4576167e-07
2.0461714e-07
2.316534e-07
2.3723426e-07
2.342401e-07
2.3079791e-07
2.3079747e-07
2.3423908e-07
2.3723286e-07
2.3165229e-07
2.0461654e-07
1.4576156e-07
6.7332577e-08
1.2297191e-08
2.01771e-10
3.0955794e-15
1.3973262e-15
5.5343485e-11
4.536773e-09
2.8391069e-08
6.5677168e-08
9.5406946e-08
1.0994616e-07
1.1362466e-07
1.1269076e-07
1.1123872e-07
1.1123849e-07
1.1269022e-07
1.1362393e-07
1.0994559e-07
9.5406651e-08
6.5677128e-08
2.839115e-08
4.5367997e-09
5.5344314e-11
1.3993623e-15
4.2058421e-16
1.4836463e-11
1.632755e-09
1.1683975e-08
2.8900948e-08
4.3463384e-08
5.0996531e-08
5.3194456e-08
5.2999077e-08
5.2415776e-08
5.2415657e-08
5.2998811e-08
5.3194093e-08
5.099625e-08
4.3463247e-08
2.8900935e-08
1.1684015e-08
1.6327665e-09
1.4836761e-11
4.2112449e-16
9.9064336e-17
3.8844304e-12
5.734375e-10
4.6950416e-09
1.2424173e-08
1.9349973e-08
2.3121086e-08
2.4346107e-08
2.4370175e-08
2.4149031e-08
2.4148972e-08
2.4370045e-08
2.434593e-08
2.3120951e-08
1.934991e-08
1.2424169e-08
4.6950611e-09
5.7344225e-10
3.884532e-12
9.932675e-17
1.9166765e-17
9.9264841e-13
1.9661084e-10
1.842906e-09
5.219642e-09
8.4213074e-09
1.0249368e-08
1.0895917e-08
1.0958508e-08
1.0880675e-08
1.0880647e-08
1.0958446e-08
1.0895833e-08
1.0249305e-08
8.4212791e-09
5.2196412e-09
1.8429149e-09
1.9661274e-10
9.9268126e-13
1.923199e-17
)
;

boundaryField
{
    Wall
    {
        type            zeroGradient;
    }
    frontAndBack
    {
        type            empty;
    }
    atmosphere
    {
        type            zeroGradient;
    }
}


// ************************************************************************* //
