/*--------------------------------*- C++ -*----------------------------------*\
| =========                 |                                                 |
| \\      /  F ield         | OpenFOAM: The Open Source CFD Toolbox           |
|  \\    /   O peration     | Version:  3.0.1                                 |
|   \\  /    A nd           | Web:      www.OpenFOAM.org                      |
|    \\/     M anipulation  |                                                 |
\*---------------------------------------------------------------------------*/
FoamFile
{
    version     2.0;
    format      ascii;
    class       volScalarField;
    location    "26";
    object      wBA_l;
}
// * * * * * * * * * * * * * * * * * * * * * * * * * * * * * * * * * * * * * //

dimensions      [0 0 0 0 0 0 0];

internalField   nonuniform List<scalar> 
800
(
0.049702575
0.049700788
0.049700528
0.049700506
0.049700507
0.049700506
0.049700501
0.049700495
0.049700491
0.049700489
0.049700489
0.049700491
0.049700495
0.049700501
0.049700506
0.049700507
0.049700506
0.049700528
0.049700789
0.049702575
0.050454734
0.050428331
0.050422868
0.050421831
0.050421766
0.050421823
0.050421838
0.050421812
0.050421777
0.050421754
0.050421754
0.050421777
0.050421812
0.050421838
0.050421823
0.050421766
0.050421831
0.050422869
0.050428333
0.050454735
0.05056524
0.050538698
0.050532728
0.050531568
0.050531282
0.050531108
0.050530923
0.050530747
0.050530614
0.050530544
0.050530544
0.050530614
0.050530747
0.050530922
0.050531108
0.050531282
0.050531567
0.050532728
0.050538698
0.05056524
0.050104604
0.05009397
0.050091312
0.050090803
0.050090346
0.050089816
0.050089307
0.0500889
0.050088622
0.050088483
0.050088483
0.050088621
0.0500889
0.050089306
0.050089815
0.050090346
0.050090802
0.050091311
0.050093969
0.050104602
0.049157503
0.049176446
0.049179385
0.049179761
0.049179069
0.04917806
0.049177138
0.049176443
0.049175985
0.049175764
0.049175764
0.049175984
0.049176442
0.049177136
0.049178059
0.049179067
0.049179759
0.049179382
0.049176443
0.049157499
0.0478167
0.047875578
0.047885496
0.047886857
0.047885771
0.047884167
0.047882761
0.047881742
0.047881087
0.047880777
0.047880777
0.047881087
0.04788174
0.04788276
0.047884164
0.047885769
0.047886853
0.047885493
0.047875574
0.047816694
0.046172759
0.046279121
0.046297472
0.046299858
0.046298149
0.046295831
0.046293899
0.04629254
0.046291688
0.046291291
0.04629129
0.046291687
0.046292538
0.046293896
0.046295828
0.046298146
0.046299854
0.046297468
0.046279117
0.046172754
0.044307853
0.044467323
0.044495973
0.044499477
0.044497052
0.044493915
0.044491448
0.044489767
0.044488734
0.044488257
0.044488256
0.044488733
0.044489766
0.044491445
0.044493911
0.044497049
0.044499473
0.044495968
0.044467318
0.044307849
0.042290659
0.042507814
0.042549264
0.04255426
0.042551045
0.042547237
0.042544291
0.042542346
0.042541156
0.042540611
0.04254061
0.042541154
0.042542344
0.042544288
0.042547234
0.042551041
0.042554256
0.04254926
0.04250781
0.042290656
0.040172456
0.040451706
0.040509478
0.040516865
0.040513273
0.040508909
0.040505642
0.040503522
0.040502192
0.04050159
0.04050159
0.040502191
0.040503521
0.040505639
0.040508906
0.04051327
0.040516861
0.040509475
0.040451703
0.040172453
0.037984937
0.038332237
0.038411177
0.038422787
0.038419657
0.038415092
0.038411669
0.038409456
0.038407952
0.038407288
0.038407287
0.038407951
0.038409454
0.038411667
0.03841509
0.038419654
0.038422784
0.038411174
0.038332234
0.037984934
0.0357384
0.036163176
0.036270004
0.036289374
0.036288651
0.036284498
0.03628101
0.036278758
0.036277075
0.036276318
0.036276318
0.036277074
0.036278756
0.036281008
0.036284496
0.036288649
0.036289372
0.036270001
0.036163173
0.035738398
0.033419954
0.033935469
0.034081545
0.034115293
0.034119653
0.034116606
0.03411305
0.034110767
0.034108916
0.034107993
0.034107992
0.034108915
0.034110765
0.034113048
0.034116604
0.034119651
0.034115291
0.034081543
0.033935467
0.033419952
0.030986156
0.031611037
0.031816999
0.031875726
0.031889021
0.03188803
0.031884346
0.031881885
0.031880572
0.03187886
0.03187886
0.031880571
0.031881883
0.031884344
0.031888028
0.03188902
0.031875725
0.031816997
0.031611035
0.030986154
0.028372252
0.029132071
0.029429
0.029528844
0.029557551
0.029560075
0.029556363
0.029553151
0.02955185
0.029550351
0.029550351
0.029551849
0.029553149
0.029556361
0.029560073
0.02955755
0.029528843
0.029428999
0.02913207
0.028372252
0.025478559
0.02640642
0.026841515
0.027011848
0.027068393
0.027077204
0.027072922
0.027068018
0.027065654
0.027063277
0.027063276
0.027065653
0.027068016
0.027072921
0.027077203
0.027068392
0.027011848
0.026841514
0.02640642
0.025478561
0.02210226
0.023264543
0.023920605
0.024210605
0.024317674
0.024341518
0.02433799
0.024329328
0.024318683
0.024314259
0.024314258
0.024318681
0.024329326
0.024337988
0.024341518
0.024317674
0.024210606
0.023920605
0.023264545
0.022102267
0.018276629
0.019715201
0.020685517
0.021165924
0.021352021
0.02139408
0.02138502
0.021366313
0.021294881
0.021286747
0.021286746
0.02129488
0.021366311
0.021385019
0.02139408
0.021352021
0.021165925
0.020685518
0.019715206
0.018276642
0.013564143
0.015507622
0.016971367
0.017784829
0.01813186
0.018220506
0.018205754
0.018169207
0.018149453
0.018134876
0.018134875
0.018149451
0.018169204
0.018205753
0.018220506
0.01813186
0.01778483
0.01697137
0.015507631
0.013564163
0.008320457
0.011031839
0.012943502
0.014114214
0.014674511
0.014837811
0.01481763
0.01474987
0.014699164
0.014668822
0.01466882
0.014699162
0.014749867
0.014817629
0.014837811
0.014674511
0.014114214
0.012943504
0.011031847
0.0083204779
0.0038181632
0.0072101749
0.0094228267
0.010813112
0.011520573
0.011741387
0.011709706
0.011602803
0.011513128
0.011461637
0.011461635
0.011513125
0.011602799
0.011709704
0.011741387
0.011520571
0.010813111
0.0094228276
0.0072101801
0.0038181775
0.0012656874
0.0043662501
0.0066059613
0.0080653599
0.0088357141
0.0090866276
0.0090470454
0.0089111764
0.0087906326
0.0087210118
0.0087210096
0.0087906286
0.0089111712
0.0090470422
0.0090866253
0.0088357113
0.0080653577
0.006605961
0.0043662533
0.001265694
0.00031220034
0.0024582064
0.0044608974
0.0058532408
0.0066149129
0.0068741938
0.0068373931
0.0066940692
0.0065612642
0.00648346
0.0064834574
0.0065612593
0.006694063
0.0068373883
0.00687419
0.006614909
0.0058532377
0.0044608961
0.0024582081
0.00031220243
6.1110741e-05
0.0012804767
0.0028926091
0.0041194365
0.0048196972
0.0050710626
0.0050463434
0.004915632
0.0047893378
0.0047141949
0.0047141922
0.0047893324
0.0049156251
0.0050463377
0.0050710579
0.004819693
0.0041194333
0.0028926075
0.0012804775
6.1111217e-05
1.0168169e-05
0.00061557254
0.0017939031
0.0028011074
0.0034066612
0.0036378004
0.0036290971
0.0035231442
0.0034159614
0.0033511813
0.0033511787
0.0034159561
0.0035231373
0.0036290913
0.0036377956
0.0034066572
0.0028011045
0.0017939016
0.00061557291
1.0168258e-05
1.5195356e-06
0.00027429558
0.0010609387
0.0018347891
0.0023298493
0.0025319226
0.0025379011
0.0024603463
0.0023774317
0.0023264744
0.0023264721
0.0023774269
0.0024603401
0.0025378958
0.0025319182
0.002329846
0.001834787
0.0010609377
0.00027429577
1.5195501e-06
2.1171479e-07
0.00011423785
0.00059781027
0.0011557171
0.0015391595
0.00170703
0.0017231658
0.0016715387
0.0016122769
0.0015751566
0.0015751547
0.0016122729
0.0016715334
0.0017231613
0.0017070264
0.0015391569
0.0011557157
0.00059780982
0.00011423798
2.1171699e-07
2.814621e-08
4.4862733e-05
0.00032120747
0.00069964324
0.00098137232
0.001113794
0.0011347374
0.0011035052
0.0010640325
0.0010387377
0.0010387362
0.0010640293
0.001103501
0.0011347338
0.0011137913
0.0009813705
0.00069964244
0.00032120732
4.4862811e-05
2.8146537e-08
3.6192444e-09
1.6738688e-05
0.0001648942
0.00040719
0.00060382321
0.00070302353
0.00072428766
0.00070730231
0.00068267112
0.00066643562
0.00066643453
0.00068266875
0.00070729912
0.00072428496
0.00070302151
0.00060382196
0.00040718957
0.00016489417
1.673873e-05
3.6192923e-09
4.535751e-10
5.9683683e-06
8.1072769e-05
0.00022803283
0.00035863375
0.00042927922
0.00044798236
0.00043992874
0.00042549066
0.00041562839
0.00041562761
0.00042548895
0.00043992643
0.0004479804
0.00042927781
0.00035863293
0.00022803261
8.1072786e-05
5.9683877e-06
4.5358192e-10
5.5622246e-11
2.0425542e-06
3.82705e-05
0.00012302589
0.00020574563
0.00025365422
0.00026850425
0.00026546017
0.00025750734
0.00025181966
0.00025181912
0.00025750617
0.00026545857
0.00026850289
0.00025365326
0.0002057451
0.00012302578
3.8270522e-05
2.0425624e-06
5.5623174e-11
6.6869361e-12
6.7307257e-07
1.7384542e-05
6.4027537e-05
0.00011410291
0.00014510596
0.00015598289
0.00015539873
0.00015129203
0.00014817201
0.00014817166
0.00015129126
0.00015539766
0.00015598199
0.00014510533
0.00011410256
6.4027484e-05
1.7384558e-05
6.7307572e-07
6.6870559e-12
7.9043294e-13
2.1406888e-07
7.614645e-06
3.2187187e-05
6.122564e-05
8.0413349e-05
8.7861166e-05
8.8266405e-05
8.6290965e-05
8.4661835e-05
8.4661617e-05
8.6290475e-05
8.8265726e-05
8.7860587e-05
8.0412951e-05
6.122543e-05
3.218716e-05
7.6146547e-06
2.1407002e-07
7.9047775e-13
1.1252601e-13
6.5832616e-08
3.2217119e-06
1.5649302e-05
3.1815138e-05
4.3197353e-05
4.8007945e-05
4.8659897e-05
4.7786594e-05
4.6977328e-05
4.6977198e-05
4.7786295e-05
4.8659483e-05
4.800759e-05
4.3197112e-05
3.1815014e-05
1.5649289e-05
3.2217171e-06
6.5833007e-08
1.1257188e-13
6.6338443e-14
1.9604901e-08
1.3186729e-06
7.3674149e-06
1.602452e-05
2.2509743e-05
2.5459801e-05
2.6046255e-05
2.5701747e-05
2.5320126e-05
2.532005e-05
2.5701572e-05
2.6046011e-05
2.5459591e-05
2.2509603e-05
1.602445e-05
7.3674081e-06
1.3186755e-06
1.9605033e-08
6.6538134e-14
9.1489197e-14
5.6624831e-09
5.2285283e-07
3.3621341e-06
7.8299488e-06
1.1385925e-05
1.3111971e-05
1.3543079e-05
1.3430735e-05
1.3260662e-05
1.326062e-05
1.3430635e-05
1.3542941e-05
1.3111852e-05
1.1385847e-05
7.829911e-06
3.3621309e-06
5.2285408e-07
5.6625303e-09
9.1620393e-14
4.2072661e-14
1.5924685e-09
2.0106222e-07
1.4887628e-06
3.7145671e-06
5.594297e-06
6.561517e-06
6.8439258e-06
6.8219648e-06
6.7509388e-06
6.7509158e-06
6.8219105e-06
6.8438509e-06
6.561452e-06
5.5942547e-06
3.7145475e-06
1.4887613e-06
2.0106281e-07
1.5924909e-09
4.2132312e-14
1.2628047e-14
4.363109e-10
7.5082358e-08
6.4023126e-07
1.7122376e-06
2.6717021e-06
3.1923962e-06
3.3630722e-06
3.3697721e-06
3.342423e-06
3.3424109e-06
3.3697434e-06
3.3630327e-06
3.1923619e-06
2.6716802e-06
1.7122277e-06
6.4023058e-07
7.508263e-08
4.3631957e-10
1.2643431e-14
2.9473241e-15
1.1632973e-10
2.7249907e-08
2.6763131e-07
7.6742162e-07
1.2409956e-06
1.5109661e-06
1.6078309e-06
1.6195347e-06
1.6101536e-06
1.6101475e-06
1.61952e-06
1.6078109e-06
1.5109485e-06
1.2409845e-06
7.6741682e-07
2.67631e-07
2.7250024e-08
1.1633278e-10
2.9549873e-15
5.6111094e-16
3.0153308e-11
9.6191162e-09
1.0883073e-07
3.3467237e-07
5.6098766e-07
6.9608226e-07
7.4824992e-07
7.5770188e-07
7.5508685e-07
7.5508389e-07
7.5769461e-07
7.4823998e-07
6.9607356e-07
5.6098222e-07
3.3467008e-07
1.0883058e-07
9.6191642e-09
3.0154298e-11
5.6300976e-16
)
;

boundaryField
{
    Wall
    {
        type            zeroGradient;
    }
    frontAndBack
    {
        type            empty;
    }
    atmosphere
    {
        type            zeroGradient;
    }
}


// ************************************************************************* //
