/*--------------------------------*- C++ -*----------------------------------*\
| =========                 |                                                 |
| \\      /  F ield         | OpenFOAM: The Open Source CFD Toolbox           |
|  \\    /   O peration     | Version:  3.0.1                                 |
|   \\  /    A nd           | Web:      www.OpenFOAM.org                      |
|    \\/     M anipulation  |                                                 |
\*---------------------------------------------------------------------------*/
FoamFile
{
    version     2.0;
    format      ascii;
    class       volScalarField;
    location    "26";
    object      wCO2_g;
}
// * * * * * * * * * * * * * * * * * * * * * * * * * * * * * * * * * * * * * //

dimensions      [0 0 0 0 0 0 0];

internalField   nonuniform List<scalar> 
800
(
0.013198809
0.013199455
0.013199569
0.013199601
0.013199621
0.013199637
0.01319965
0.013199659
0.013199665
0.013199668
0.013199668
0.013199665
0.013199659
0.01319965
0.013199637
0.013199621
0.013199601
0.013199569
0.013199455
0.013198809
0.013290507
0.013295336
0.013296151
0.013296188
0.013296085
0.013296005
0.013295963
0.013295945
0.01329594
0.013295939
0.013295939
0.01329594
0.013295945
0.013295963
0.013296005
0.013296085
0.013296188
0.013296151
0.013295336
0.013290507
0.013391271
0.013397169
0.013399621
0.01339973
0.013399595
0.013399494
0.013399452
0.013399447
0.013399455
0.013399461
0.013399461
0.013399455
0.013399447
0.013399452
0.013399494
0.013399595
0.01339973
0.013399621
0.013397169
0.013391271
0.013513112
0.013518339
0.013522316
0.013522489
0.013522331
0.013522232
0.013522212
0.013522235
0.013522266
0.013522285
0.013522285
0.013522266
0.013522235
0.013522212
0.013522232
0.013522331
0.013522489
0.013522316
0.013518339
0.013513111
0.013656057
0.01365971
0.013664772
0.013665695
0.013665468
0.01366535
0.013665341
0.01366539
0.013665442
0.013665474
0.013665474
0.013665441
0.01366539
0.013665341
0.01366535
0.013665468
0.013665695
0.013664772
0.01365971
0.013656056
0.013808189
0.013811528
0.013817219
0.013819462
0.013819074
0.013818875
0.013818839
0.013818891
0.013818951
0.013818991
0.013818991
0.013818951
0.013818891
0.013818839
0.013818875
0.013819074
0.013819462
0.013817219
0.013811528
0.013808188
0.013948108
0.013955589
0.013961003
0.013964681
0.013964006
0.013963631
0.013963508
0.013963523
0.01396357
0.013963607
0.013963607
0.013963569
0.013963523
0.013963508
0.013963631
0.013964006
0.013964681
0.013961003
0.013955589
0.013948107
0.01404742
0.014065684
0.014070681
0.014075491
0.014074429
0.014073759
0.01407347
0.0140734
0.014073405
0.014073427
0.014073427
0.014073405
0.0140734
0.01407347
0.014073759
0.014074429
0.014075491
0.014070681
0.014065683
0.014047419
0.014071206
0.014109814
0.014114799
0.014120206
0.014120254
0.014119216
0.014118677
0.014118471
0.014118407
0.014118402
0.014118402
0.014118407
0.014118471
0.014118676
0.014119216
0.014120253
0.014120205
0.014114799
0.014109813
0.014071205
0.013975691
0.014050337
0.014055839
0.014061274
0.014064356
0.014065092
0.014064237
0.01406386
0.014063703
0.014063661
0.014063661
0.014063703
0.01406386
0.014064236
0.014065092
0.014064355
0.014061273
0.014055838
0.014050336
0.01397569
0.013707147
0.01383673
0.013847198
0.013852198
0.013861784
0.013866674
0.013865464
0.0138649
0.013864621
0.013864534
0.013864534
0.01386462
0.013864899
0.013865463
0.013866673
0.013861783
0.013852196
0.013847197
0.013836728
0.013707145
0.013204685
0.013405827
0.013432214
0.013436237
0.013457542
0.013467047
0.013465534
0.013464823
0.013464361
0.013464228
0.013464228
0.01346436
0.013464822
0.013465533
0.013467045
0.013457541
0.013436235
0.013432212
0.013405825
0.013204682
0.012401528
0.012687552
0.012743449
0.012746076
0.012780524
0.012793375
0.012791788
0.012791008
0.012795816
0.012795526
0.012795526
0.012795816
0.012791007
0.012791787
0.012793374
0.012780522
0.012746074
0.012743447
0.01268755
0.012401525
0.011218423
0.011600077
0.011695353
0.01170864
0.011753312
0.011768037
0.011767014
0.011766655
0.011778195
0.011777583
0.011777583
0.011778194
0.011766653
0.011767013
0.011768035
0.011753309
0.011708637
0.01169535
0.011600074
0.011218419
0.0097580974
0.010238701
0.010385135
0.010416456
0.010468083
0.010483705
0.010481807
0.010481808
0.010498847
0.010509843
0.010509843
0.010498846
0.010481806
0.010481806
0.010483703
0.01046808
0.010416454
0.010385132
0.010238698
0.0097580938
0.0078920057
0.0084322056
0.0086269729
0.008685646
0.0087422836
0.0087582242
0.008762146
0.0087633216
0.008784239
0.0087992144
0.0087992142
0.0087842384
0.0087633206
0.0087621448
0.0087582227
0.0087422817
0.0086856438
0.0086269704
0.008432203
0.0078920035
0.0058609637
0.0063813416
0.0065998866
0.0066662227
0.0067228574
0.0067542147
0.0067666004
0.0067688427
0.0067877086
0.0067994719
0.0067994718
0.0067877083
0.0067688421
0.0067665996
0.0067542136
0.0067228561
0.0066662211
0.0065998849
0.0063813401
0.0058609634
0.0039235119
0.0043262858
0.0045529208
0.0046165644
0.0046632811
0.0046926616
0.0047059572
0.0047085434
0.0047437109
0.0047499344
0.0047499343
0.0047437108
0.0047085431
0.0047059568
0.004692661
0.0046632803
0.0046165635
0.0045529199
0.0043262854
0.0039235133
0.0024274436
0.0027771235
0.0029734009
0.0030474535
0.0030882797
0.0031094997
0.0031191647
0.003121072
0.00313707
0.0031399674
0.0031399674
0.0031370702
0.0031210721
0.0031191648
0.0031094997
0.0030882795
0.0030474532
0.0029734008
0.0027771242
0.0024274463
0.0012921604
0.0016664414
0.0018671518
0.0019544261
0.0019921117
0.0020043139
0.0020068102
0.0020047631
0.002009313
0.0020094039
0.0020094039
0.0020093132
0.0020047633
0.0020068104
0.0020043141
0.0019921117
0.001954426
0.0018671519
0.0016664421
0.0012921632
0.00053686888
0.00093520346
0.0011443161
0.0012408049
0.001277356
0.0012831206
0.0012781591
0.001270777
0.0012680879
0.0012656805
0.0012656805
0.001268088
0.0012707771
0.0012781592
0.0012831207
0.0012773559
0.0012408048
0.0011443161
0.00093520395
0.0005368707
0.00016791331
0.00048779762
0.00068112689
0.00077839417
0.00081557809
0.00081977034
0.00081143825
0.0008009503
0.00079431325
0.00079030729
0.00079030727
0.00079431325
0.00080095026
0.00081143825
0.00081977033
0.00081557786
0.00077839394
0.00068112682
0.00048779793
0.00016791413
4.0296609e-05
0.000236709
0.00039196345
0.00047940206
0.00051541315
0.00052056777
0.00051266144
0.00050211975
0.00049442897
0.0004900245
0.00049002445
0.00049442889
0.00050211961
0.0005126613
0.00052056761
0.00051541287
0.00047940178
0.00039196332
0.00023670916
4.0296872e-05
7.8080522e-06
0.00010685758
0.0002174349
0.00028833581
0.00032038254
0.00032667422
0.00032094817
0.00031224364
0.00030534977
0.00030141683
0.00030141677
0.00030534964
0.00031224345
0.00032094797
0.00032667401
0.00032038227
0.00028833556
0.00021743477
0.00010685766
7.8081139e-06
1.2934288e-06
4.4946102e-05
0.00011604066
0.00016871533
0.00019494763
0.00020156157
0.00019819589
0.00019190773
0.00018658003
0.00018350939
0.00018350934
0.0001865799
0.00019190754
0.00019819569
0.00020156137
0.00019494742
0.00016871514
0.00011604057
4.4946136e-05
1.2934407e-06
1.9201257e-07
1.7710174e-05
5.9520186e-05
9.5806814e-05
0.00011573334
0.00012181508
0.00012026539
0.00011616836
0.00011245662
0.00011028224
0.00011028219
0.00011245651
0.0001161682
0.00012026523
0.00012181493
0.00011573319
9.5806703e-05
5.9520139e-05
1.771019e-05
1.9201453e-07
2.6400517e-08
6.5871375e-06
2.9346193e-05
5.272619e-05
6.6891283e-05
7.1919246e-05
7.1498333e-05
6.905518e-05
6.6670055e-05
6.5244022e-05
6.5243985e-05
6.6669968e-05
6.9055059e-05
7.1498215e-05
7.191914e-05
6.6891195e-05
5.2726133e-05
2.9346177e-05
6.5871466e-06
2.6400813e-08
3.4344444e-09
2.3302204e-06
1.3922346e-05
2.8106846e-05
3.7594409e-05
4.1408657e-05
4.1556727e-05
4.0216692e-05
3.8784599e-05
3.7907164e-05
3.7907137e-05
3.8784536e-05
4.0216606e-05
4.1556647e-05
4.140859e-05
3.7594362e-05
2.8106823e-05
1.3922345e-05
2.3302252e-06
3.4344872e-09
4.2847884e-10
7.8901866e-07
6.3650925e-06
1.4513755e-05
2.0533993e-05
2.322676e-05
2.3580271e-05
2.29066e-05
2.2097026e-05
2.1586256e-05
2.1586237e-05
2.2096983e-05
2.2906542e-05
2.3580218e-05
2.322672e-05
2.0533969e-05
1.4513747e-05
6.3650952e-06
7.8902103e-07
4.2848488e-10
5.1710614e-11
2.5698287e-07
2.8090786e-06
7.2631034e-06
1.0898517e-05
1.268533e-05
1.3050139e-05
1.2744377e-05
1.2311649e-05
1.2028777e-05
1.2028765e-05
1.2311621e-05
1.2744339e-05
1.3050106e-05
1.2685307e-05
1.0898506e-05
7.2631025e-06
2.8090816e-06
2.569839e-07
5.1711437e-11
6.0709754e-12
8.0804151e-08
1.1986951e-06
3.5247441e-06
5.6218645e-06
6.7444385e-06
7.0405574e-06
6.9201833e-06
6.7010875e-06
6.5514835e-06
6.5514758e-06
6.7010699e-06
6.9201597e-06
7.0405374e-06
6.7444255e-06
5.6218595e-06
3.524745e-06
1.1986972e-06
8.0804561e-08
6.0710832e-12
6.9599607e-13
2.4594426e-08
4.9533073e-07
1.6600808e-06
2.8194695e-06
3.490922e-06
3.7018389e-06
3.6655312e-06
3.560498e-06
3.4847521e-06
3.4847474e-06
3.5604874e-06
3.6655169e-06
3.701827e-06
3.4909147e-06
2.8194672e-06
1.6600821e-06
4.9533192e-07
2.4594577e-08
6.9600961e-13
7.8133346e-14
7.2604944e-09
1.9847354e-07
7.5940619e-07
1.3754047e-06
1.7594406e-06
1.8968464e-06
1.8935083e-06
1.8459791e-06
1.8092113e-06
1.8092086e-06
1.8459729e-06
1.8934999e-06
1.8968397e-06
1.7594366e-06
1.3754037e-06
7.5940709e-07
1.9847417e-07
7.2605465e-09
7.8135529e-14
8.9573211e-15
2.0818979e-09
7.720334e-08
3.3767963e-07
6.5297548e-07
8.6374481e-07
9.4733553e-07
9.5385999e-07
9.3370023e-07
9.1658045e-07
9.1657894e-07
9.3369677e-07
9.5385528e-07
9.4733176e-07
8.6374267e-07
6.5297503e-07
3.3768019e-07
7.7203638e-08
2.081915e-09
8.9583532e-15
2.0094547e-15
5.8050719e-10
2.9183503e-08
1.460666e-07
3.0185974e-07
4.1317942e-07
4.6124646e-07
4.6862991e-07
4.6072828e-07
4.5308546e-07
4.5308464e-07
4.607264e-07
4.6862736e-07
4.6124444e-07
4.1317833e-07
3.0185956e-07
1.4606691e-07
2.9183639e-08
5.8051267e-10
2.013839e-15
2.2452502e-15
1.5757058e-10
1.0729912e-08
6.1507111e-08
1.3595568e-07
1.9267204e-07
2.1900492e-07
2.2459072e-07
2.218148e-07
2.1854874e-07
2.1854831e-07
2.2181381e-07
2.2458938e-07
2.1900387e-07
1.926715e-07
1.3595561e-07
6.1507276e-08
1.072997e-08
1.5757235e-10
2.2482446e-15
9.9896693e-16
4.1743566e-11
3.8402763e-09
2.5230366e-08
5.9691671e-08
8.7623478e-08
1.0144322e-07
1.0502505e-07
1.0421733e-07
1.0288576e-07
1.0288554e-07
1.0421684e-07
1.0502437e-07
1.014427e-07
8.7623218e-08
5.969165e-08
2.5230449e-08
3.8403011e-09
4.1744236e-11
1.0004389e-15
2.9163556e-16
1.0797799e-11
1.3391378e-09
1.0088371e-08
2.5561706e-08
3.8881623e-08
4.5857688e-08
4.7938032e-08
4.7799187e-08
4.7284321e-08
4.7284212e-08
4.7798942e-08
4.79377e-08
4.5857434e-08
3.8881504e-08
2.5561702e-08
1.008841e-08
1.339148e-09
1.0798033e-11
2.9201226e-16
6.6392837e-17
2.7254862e-12
4.5524319e-10
3.9346404e-09
1.0682008e-08
1.6841952e-08
2.023961e-08
2.1365686e-08
2.140827e-08
2.1221485e-08
2.1221433e-08
2.1408153e-08
2.1365529e-08
2.0239491e-08
1.6841898e-08
1.0682008e-08
3.9346587e-09
4.5524727e-10
2.7255634e-12
6.6569767e-17
1.2396512e-17
6.7092347e-13
1.5095752e-10
1.4976991e-09
4.3584878e-09
7.1246829e-09
8.7252714e-09
9.3020003e-09
9.3667135e-09
9.3044351e-09
9.304411e-09
9.3666597e-09
9.3019271e-09
8.7252169e-09
7.1246595e-09
4.3584883e-09
1.4977071e-09
1.5095909e-10
6.7094765e-13
1.2438842e-17
)
;

boundaryField
{
    Wall
    {
        type            zeroGradient;
    }
    frontAndBack
    {
        type            empty;
    }
    atmosphere
    {
        type            zeroGradient;
    }
}


// ************************************************************************* //
