/*--------------------------------*- C++ -*----------------------------------*\
| =========                 |                                                 |
| \\      /  F ield         | OpenFOAM: The Open Source CFD Toolbox           |
|  \\    /   O peration     | Version:  3.0.1                                 |
|   \\  /    A nd           | Web:      www.OpenFOAM.org                      |
|    \\/     M anipulation  |                                                 |
\*---------------------------------------------------------------------------*/
FoamFile
{
    version     2.0;
    format      ascii;
    class       volScalarField;
    location    "26";
    object      wCO2_l;
}
// * * * * * * * * * * * * * * * * * * * * * * * * * * * * * * * * * * * * * //

dimensions      [0 0 0 0 0 0 0];

internalField   nonuniform List<scalar> 
800
(
0.0034889207
0.0034890944
0.0034891265
0.003489131
0.003489132
0.0034891329
0.0034891339
0.0034891348
0.0034891355
0.0034891358
0.0034891358
0.0034891355
0.0034891348
0.0034891339
0.0034891329
0.003489132
0.003489131
0.0034891265
0.0034890944
0.0034889208
0.0034453235
0.0034472212
0.0034479791
0.0034481692
0.0034481672
0.0034481103
0.0034480516
0.0034480071
0.0034479789
0.0034479654
0.0034479654
0.0034479789
0.0034480071
0.0034480516
0.0034481103
0.0034481671
0.0034481691
0.003447979
0.003447221
0.0034453231
0.0035218447
0.0035221326
0.0035219461
0.0035221595
0.003522184
0.0035221356
0.0035220745
0.0035220231
0.0035219883
0.0035219708
0.0035219708
0.0035219883
0.0035220231
0.0035220745
0.0035221356
0.003522184
0.0035221595
0.003521946
0.0035221324
0.0035218444
0.0037221652
0.0037171994
0.0037154656
0.0037156317
0.0037156776
0.0037156672
0.0037156323
0.0037155938
0.0037155647
0.0037155488
0.0037155489
0.0037155648
0.003715594
0.0037156324
0.0037156674
0.0037156778
0.0037156319
0.0037154658
0.0037171995
0.0037221653
0.0040615175
0.0040462371
0.004042757
0.0040419496
0.0040420207
0.0040420712
0.0040420809
0.0040420656
0.0040420484
0.0040420364
0.0040420364
0.0040420486
0.0040420659
0.0040420813
0.0040420716
0.0040420212
0.0040419501
0.0040427576
0.0040462376
0.0040615181
0.0045617755
0.0045292595
0.0045241137
0.0045215839
0.0045217287
0.0045218712
0.0045219443
0.0045219587
0.0045219553
0.0045219468
0.0045219469
0.0045219556
0.0045219592
0.004521945
0.004521872
0.0045217296
0.0045215849
0.0045241147
0.0045292605
0.0045617767
0.0052467069
0.0051886188
0.0051811208
0.0051767602
0.0051771157
0.005177411
0.0051775725
0.0051776207
0.0051776302
0.0051776223
0.0051776224
0.0051776307
0.0051776214
0.0051775735
0.0051774122
0.0051771171
0.0051767617
0.0051811223
0.0051886203
0.0052467086
0.0061368201
0.0060466376
0.0060331934
0.0060275696
0.0060284701
0.0060290277
0.0060293115
0.006029394
0.0060294135
0.0060294013
0.0060294015
0.006029414
0.006029395
0.0060293129
0.0060290293
0.006028472
0.0060275715
0.0060331953
0.0060466396
0.0061368224
0.0072461422
0.0071199315
0.0070959327
0.0070901731
0.0070901517
0.0070912134
0.0070916505
0.0070917638
0.0070917927
0.007091772
0.0070917722
0.0070917934
0.007091765
0.0070916521
0.0070912154
0.007090154
0.0070901755
0.0070959351
0.0071199339
0.0072461452
0.0085826686
0.008416236
0.0083789787
0.0083747396
0.0083722653
0.0083715079
0.008372095
0.0083722399
0.0083722972
0.0083722696
0.0083722699
0.008372298
0.0083722413
0.0083720969
0.0083715102
0.0083722679
0.0083747424
0.0083789817
0.0084162392
0.0085826724
0.010138784
0.0099329448
0.0098798932
0.0098793204
0.009871255
0.0098662793
0.0098670694
0.0098672902
0.0098674593
0.0098674483
0.0098674486
0.0098674601
0.0098672915
0.0098670713
0.0098662817
0.0098712578
0.0098793237
0.0098798967
0.0099329487
0.010138789
0.011875809
0.011634013
0.011571754
0.011577786
0.011550398
0.011541113
0.011542289
0.011542699
0.01154332
0.011543375
0.011543376
0.011543321
0.011542701
0.011542291
0.011541116
0.011550401
0.011577789
0.011571758
0.011634018
0.011875815
0.013706829
0.013438488
0.013386321
0.013389089
0.013340078
0.013328716
0.013330718
0.013331642
0.013327271
0.01332759
0.01332759
0.013327272
0.013331643
0.013330719
0.013328718
0.01334008
0.013389093
0.013386325
0.013438492
0.013706834
0.015465431
0.015225861
0.015186363
0.015181577
0.015127523
0.015117504
0.015121079
0.015123031
0.015091707
0.015092343
0.015092343
0.015091708
0.015123031
0.01512108
0.015117506
0.015127525
0.01518158
0.015186365
0.015225865
0.015465434
0.016715061
0.016593367
0.016561877
0.016566399
0.016528059
0.016523173
0.016532187
0.016536692
0.016498184
0.016488364
0.016488364
0.016498184
0.016536692
0.016532187
0.016523174
0.01652806
0.0165664
0.016561878
0.016593368
0.016715062
0.017143409
0.017264214
0.017286485
0.017310858
0.017300171
0.017303763
0.01727873
0.017285998
0.017270514
0.017257461
0.01725746
0.017270513
0.017285998
0.01727873
0.017303762
0.01730017
0.017310857
0.017286484
0.017264214
0.017143409
0.015740592
0.016324806
0.016549716
0.016624858
0.01664754
0.01664774
0.016676034
0.016685413
0.016695689
0.016686916
0.016686916
0.016695689
0.016685413
0.016676034
0.016647739
0.016647539
0.016624857
0.016549716
0.016324805
0.015740594
0.011572072
0.012401004
0.013058664
0.013202431
0.013255969
0.01331411
0.013357603
0.01336437
0.0135423
0.013539773
0.013539773
0.0135423
0.01336437
0.013357604
0.01331411
0.013255969
0.01320243
0.013058664
0.012401005
0.011572078
0.0076895718
0.008676316
0.0092885455
0.0095317882
0.0096252188
0.009679525
0.0097104341
0.0097115644
0.0097661496
0.0097661685
0.0097661685
0.0097661501
0.009711565
0.0097104349
0.0096795257
0.0096252192
0.0095317885
0.0092885464
0.0086763195
0.0076895813
0.0043624743
0.0056008641
0.0063123812
0.0066488855
0.0067803976
0.0068212334
0.0068291903
0.0068167059
0.0068272397
0.0068229794
0.0068229793
0.0068272402
0.0068167065
0.0068291911
0.0068212342
0.0067803978
0.0066488856
0.006312382
0.0056008671
0.0043624841
0.0019328509
0.0033662426
0.0041587774
0.0045551797
0.0047121745
0.0047431239
0.0047273242
0.0046969106
0.0046841159
0.0046726858
0.0046726857
0.0046841162
0.0046969108
0.0047273247
0.0047431244
0.0047121743
0.0045551793
0.0041587778
0.0033662447
0.0019328575
0.00064684202
0.0018837901
0.0026550547
0.0030690344
0.0032411871
0.0032723575
0.0032449488
0.0032029767
0.0031756972
0.0031584454
0.0031584452
0.003175697
0.0032029763
0.0032449487
0.0032723574
0.0032411864
0.0030690336
0.0026550546
0.0018837914
0.00064684511
0.00016699014
0.00098503731
0.0016398044
0.0020264196
0.0021989263
0.0022350461
0.0022082617
0.0021648919
0.0021323038
0.0021129478
0.0021129475
0.0021323033
0.0021648912
0.0022082611
0.0022350454
0.0021989251
0.0020264186
0.0016398039
0.00098503796
0.00016699119
3.5057491e-05
0.00048148401
0.00097814473
0.0013066749
0.0014652419
0.0015051703
0.0014854421
0.0014479741
0.0014171894
0.0013990878
0.0013990874
0.0014171887
0.0014479731
0.0014854411
0.0015051693
0.0014652407
0.0013066739
0.00097814419
0.00048148434
3.5057756e-05
6.3458901e-06
0.00022027639
0.00056270427
0.00082063107
0.00095573742
0.00099583882
0.00098445851
0.00095592889
0.00093069433
0.00091575615
0.00091575581
0.00093069359
0.00095592784
0.00098445749
0.00099583784
0.00095573643
0.00082063024
0.00056270385
0.00022027654
6.3459453e-06
1.0389699e-06
9.4796358e-05
0.00031197008
0.00050106624
0.00060881275
0.00064553925
0.00064101181
0.00062134349
0.00060263553
0.00059140192
0.00059140161
0.00060263485
0.00062134256
0.00064101093
0.00064553843
0.00060881203
0.0005010657
0.00031196985
9.4796435e-05
1.0389799e-06
1.5902108e-07
3.8655878e-05
0.00016673056
0.00029716777
0.00037819445
0.0004092479
0.00040920797
0.00039677114
0.00038394643
0.00037609624
0.00037609599
0.00038394587
0.00039677038
0.00040920727
0.00040924729
0.00037819397
0.00029716747
0.00016673047
3.8655927e-05
1.5902275e-07
2.323285e-08
1.5045284e-05
8.5989574e-05
0.00017114154
0.00022892804
0.00025344147
0.00025572977
0.00024849038
0.00024025561
0.00023509358
0.00023509338
0.00024025518
0.0002484898
0.00025572925
0.00025344105
0.00022892775
0.0001711414
8.5989561e-05
1.5045313e-05
2.3233123e-08
3.2810475e-09
5.6232277e-06
4.2860677e-05
9.5730847e-05
0.00013499353
0.00015321915
0.00015629443
0.00015243607
0.00014744524
0.00014422457
0.00014422443
0.00014744492
0.00015243564
0.00015629405
0.00015321887
0.00013499336
9.5730793e-05
4.286069e-05
5.6232433e-06
3.2810914e-09
4.5123691e-10
2.0275933e-06
2.0680907e-05
5.2037449e-05
7.7549254e-05
9.0399336e-05
9.3360406e-05
9.1513352e-05
8.8645904e-05
8.672858e-05
8.672848e-05
8.864568e-05
9.1513053e-05
9.3360151e-05
9.0399154e-05
7.7549163e-05
5.2037436e-05
2.0680925e-05
2.0276008e-06
4.5124374e-10
6.0692956e-11
7.0769846e-07
9.6753128e-06
2.7506886e-05
4.3411487e-05
5.2049311e-05
5.4487366e-05
5.3733323e-05
5.2168685e-05
5.1075447e-05
5.1075379e-05
5.2168534e-05
5.3733119e-05
5.4487195e-05
5.2049197e-05
4.3411436e-05
2.7506887e-05
9.6753265e-06
7.0770175e-07
6.0693979e-11
8.0031366e-12
2.3968272e-07
4.3950569e-06
1.4149776e-05
2.3689731e-05
2.9249349e-05
3.1066471e-05
3.0847289e-05
3.0036884e-05
2.9438373e-05
2.9438328e-05
3.0036785e-05
3.0847155e-05
3.106636e-05
2.9249277e-05
2.3689701e-05
1.4149782e-05
4.3950656e-06
2.3968406e-07
8.0032839e-12
1.0365088e-12
7.8905058e-08
1.9409259e-06
7.0886718e-06
1.2607818e-05
1.6046168e-05
1.7304852e-05
1.731174e-05
1.6914621e-05
1.6599575e-05
1.6599548e-05
1.6914558e-05
1.7311655e-05
1.7304783e-05
1.6046124e-05
1.2607802e-05
7.0886767e-06
1.9409309e-06
7.890557e-08
1.03654e-12
1.3955281e-13
2.5282285e-08
8.3419446e-07
3.4610027e-06
6.5471833e-06
8.5963546e-06
9.4186686e-06
9.4976583e-06
9.3149343e-06
9.155422e-06
9.1554051e-06
9.3148961e-06
9.4976061e-06
9.418626e-06
8.5963284e-06
6.5471743e-06
3.4610061e-06
8.341971e-07
2.5282472e-08
1.39572e-13
3.8794177e-14
7.8924544e-09
3.4925991e-07
1.6480115e-06
3.3190924e-06
4.4988236e-06
5.0102258e-06
5.0944296e-06
5.0166874e-06
4.9390516e-06
4.9390416e-06
5.0166647e-06
5.0943986e-06
5.0102006e-06
4.4988085e-06
3.3190875e-06
1.6480136e-06
3.4926123e-07
7.8925209e-09
3.8877109e-14
4.1793094e-14
2.402944e-09
1.4256562e-07
7.6581308e-07
1.6434249e-06
2.3008642e-06
2.6055293e-06
2.6721768e-06
2.6425939e-06
2.6063403e-06
2.6063346e-06
2.6425808e-06
2.672159e-06
2.6055149e-06
2.3008558e-06
1.6434224e-06
7.6581432e-07
1.4256625e-07
2.4029681e-09
4.1850341e-14
2.0247331e-14
7.1530718e-10
5.6779861e-08
3.4750073e-07
7.9516713e-07
1.1504368e-06
1.3250935e-06
1.3710042e-06
1.3617919e-06
1.3456092e-06
1.345606e-06
1.3617847e-06
1.3709943e-06
1.3250855e-06
1.1504322e-06
7.9516585e-07
3.4750142e-07
5.6780156e-08
7.1531748e-10
2.0276119e-14
6.5640637e-15
2.0826005e-10
2.2082999e-08
1.5406609e-07
3.7614199e-07
5.6258677e-07
6.5926545e-07
6.8825207e-07
6.8670971e-07
6.7984988e-07
6.7984815e-07
6.8670578e-07
6.8824671e-07
6.5926114e-07
5.6258439e-07
3.7614136e-07
1.5406646e-07
2.2083135e-08
2.0826405e-10
6.5723408e-15
1.669242e-15
5.9266617e-11
8.391635e-09
6.6778839e-08
1.7403192e-07
2.6918242e-07
3.2099246e-07
3.3816932e-07
3.3896064e-07
3.3623168e-07
3.3623076e-07
3.3895857e-07
3.381665e-07
3.2099021e-07
2.691812e-07
1.7403162e-07
6.6779023e-08
8.391695e-09
5.926808e-11
1.6735926e-15
3.4911656e-16
1.6477428e-11
3.1173268e-09
2.8312252e-08
7.8794347e-08
1.260689e-07
1.530067e-07
1.626854e-07
1.638253e-07
1.6282961e-07
1.6282915e-07
1.6382423e-07
1.6268395e-07
1.5300555e-07
1.2606829e-07
7.8794201e-08
2.831234e-08
3.1173525e-09
1.6477937e-11
3.5029347e-16
)
;

boundaryField
{
    Wall
    {
        type            zeroGradient;
    }
    frontAndBack
    {
        type            empty;
    }
    atmosphere
    {
        type            zeroGradient;
    }
}


// ************************************************************************* //
