/*--------------------------------*- C++ -*----------------------------------*\
| =========                 |                                                 |
| \\      /  F ield         | OpenFOAM: The Open Source CFD Toolbox           |
|  \\    /   O peration     | Version:  3.0.1                                 |
|   \\  /    A nd           | Web:      www.OpenFOAM.org                      |
|    \\/     M anipulation  |                                                 |
\*---------------------------------------------------------------------------*/
FoamFile
{
    version     2.0;
    format      ascii;
    class       volScalarField;
    location    "26";
    object      weight1;
}
// * * * * * * * * * * * * * * * * * * * * * * * * * * * * * * * * * * * * * //

dimensions      [0 0 0 0 0 0 0];

internalField   nonuniform List<scalar> 
800
(
9.9893416e+12
9.9893408e+12
9.9893406e+12
9.9893405e+12
9.9893405e+12
9.9893405e+12
9.9893405e+12
9.9893405e+12
9.9893404e+12
9.9893404e+12
9.9893404e+12
9.9893404e+12
9.9893405e+12
9.9893405e+12
9.9893405e+12
9.9893405e+12
9.9893405e+12
9.9893406e+12
9.9893408e+12
9.9893416e+12
9.9934227e+12
9.9930985e+12
9.993053e+12
9.9930453e+12
9.9930434e+12
9.9930414e+12
9.9930391e+12
9.993037e+12
9.9930354e+12
9.9930345e+12
9.9930345e+12
9.9930354e+12
9.993037e+12
9.9930391e+12
9.9930414e+12
9.9930434e+12
9.9930453e+12
9.993053e+12
9.9930985e+12
9.9934227e+12
9.8737518e+12
9.8760671e+12
9.8768961e+12
9.8771009e+12
9.8770966e+12
9.8770466e+12
9.876999e+12
9.8769653e+12
9.876945e+12
9.8769358e+12
9.8769358e+12
9.876945e+12
9.8769652e+12
9.8769989e+12
9.8770465e+12
9.8770965e+12
9.8771007e+12
9.8768959e+12
9.8760669e+12
9.8737514e+12
9.6574676e+12
9.6645963e+12
9.6667189e+12
9.6671707e+12
9.6671501e+12
9.6670209e+12
9.6669017e+12
9.6668178e+12
9.6667672e+12
9.6667442e+12
9.6667441e+12
9.6667672e+12
9.6668177e+12
9.6669015e+12
9.6670206e+12
9.6671498e+12
9.6671703e+12
9.6667184e+12
9.6645958e+12
9.6574669e+12
9.3688675e+12
9.3825491e+12
9.3861305e+12
9.3868231e+12
9.3867493e+12
9.3865099e+12
9.3862992e+12
9.3861525e+12
9.3860636e+12
9.386023e+12
9.386023e+12
9.3860635e+12
9.3861523e+12
9.3862989e+12
9.3865095e+12
9.3867489e+12
9.3868225e+12
9.3861298e+12
9.3825484e+12
9.3688666e+12
9.0217846e+12
9.0435238e+12
9.0488964e+12
9.0498496e+12
9.0497002e+12
9.049335e+12
9.0490248e+12
9.0488111e+12
9.0486828e+12
9.0486243e+12
9.0486242e+12
9.0486826e+12
9.0488108e+12
9.0490244e+12
9.0493344e+12
9.0496996e+12
9.0498489e+12
9.0488956e+12
9.043523e+12
9.0217837e+12
8.6350189e+12
8.6656049e+12
8.6726501e+12
8.6738165e+12
8.6735364e+12
8.6730205e+12
8.6726015e+12
8.6723167e+12
8.6721476e+12
8.6720707e+12
8.6720706e+12
8.6721474e+12
8.6723163e+12
8.672601e+12
8.6730199e+12
8.6735357e+12
8.6738158e+12
8.6726494e+12
8.6656041e+12
8.6350181e+12
8.219243e+12
8.2598468e+12
8.2688101e+12
8.2702003e+12
8.2697533e+12
8.2690846e+12
8.2685671e+12
8.2682223e+12
8.2680195e+12
8.2679275e+12
8.2679275e+12
8.2680193e+12
8.2682219e+12
8.2685666e+12
8.2690841e+12
8.2697527e+12
8.2701997e+12
8.2688095e+12
8.2598462e+12
8.2192423e+12
7.7809966e+12
7.8325991e+12
7.8439045e+12
7.8455974e+12
7.8449834e+12
7.8441761e+12
7.8435968e+12
7.8432199e+12
7.842998e+12
7.8428979e+12
7.8428978e+12
7.8429977e+12
7.8432195e+12
7.8435963e+12
7.8441755e+12
7.8449828e+12
7.8455969e+12
7.843904e+12
7.8325987e+12
7.7809962e+12
7.3238581e+12
7.387227e+12
7.4014564e+12
7.4036005e+12
7.4028474e+12
7.4019342e+12
7.4013684e+12
7.4010053e+12
7.4007831e+12
7.4006855e+12
7.4006854e+12
7.4007829e+12
7.4010049e+12
7.401368e+12
7.4019337e+12
7.4028469e+12
7.4036001e+12
7.4014561e+12
7.3872267e+12
7.3238577e+12
6.846745e+12
6.9230186e+12
6.9409106e+12
6.943712e+12
6.9429904e+12
6.9421526e+12
6.9416968e+12
6.9414063e+12
6.9411992e+12
6.9411161e+12
6.941116e+12
6.9411989e+12
6.9414059e+12
6.9416964e+12
6.9421522e+12
6.94299e+12
6.9437116e+12
6.9409102e+12
6.9230182e+12
6.8467444e+12
6.3419071e+12
6.4329025e+12
6.4554904e+12
6.4591827e+12
6.4591764e+12
6.4587582e+12
6.4585264e+12
6.45839e+12
6.4581782e+12
6.4581274e+12
6.4581273e+12
6.4581779e+12
6.4583896e+12
6.458526e+12
6.4587578e+12
6.459176e+12
6.4591823e+12
6.4554899e+12
6.432902e+12
6.3419063e+12
5.7941781e+12
5.9022295e+12
5.9309903e+12
5.9360425e+12
5.9377891e+12
5.9380878e+12
5.938229e+12
5.938379e+12
5.9384617e+12
5.9384736e+12
5.9384735e+12
5.9384615e+12
5.9383786e+12
5.9382285e+12
5.9380872e+12
5.9377886e+12
5.9360419e+12
5.9309896e+12
5.9022287e+12
5.794177e+12
5.18143e+12
5.3085788e+12
5.3453008e+12
5.3531587e+12
5.3574134e+12
5.3586128e+12
5.3593319e+12
5.359932e+12
5.3612661e+12
5.361317e+12
5.3613169e+12
5.3612658e+12
5.3599316e+12
5.3593313e+12
5.3586122e+12
5.3574127e+12
5.353158e+12
5.3452999e+12
5.3085777e+12
5.1814287e+12
4.5094916e+12
4.658869e+12
4.7077136e+12
4.7203919e+12
4.7276608e+12
4.7298661e+12
4.7310815e+12
4.7321911e+12
4.7355136e+12
4.7369945e+12
4.7369944e+12
4.7355133e+12
4.7321906e+12
4.7310809e+12
4.7298655e+12
4.7276601e+12
4.7203911e+12
4.7077126e+12
4.6588679e+12
4.5094904e+12
3.712605e+12
3.8723538e+12
3.9313421e+12
3.9486715e+12
3.9584445e+12
3.9617348e+12
3.9668036e+12
3.9687069e+12
3.9741937e+12
3.9758005e+12
3.9758005e+12
3.9741935e+12
3.9687065e+12
3.9668031e+12
3.9617342e+12
3.9584438e+12
3.9486707e+12
3.9313411e+12
3.8723528e+12
3.7126043e+12
2.877809e+12
3.0278167e+12
3.0933262e+12
3.1135742e+12
3.1241632e+12
3.1327655e+12
3.1403067e+12
3.142609e+12
3.1481324e+12
3.1486212e+12
3.1486211e+12
3.1481324e+12
3.1426088e+12
3.1403064e+12
3.1327651e+12
3.1241627e+12
3.1135735e+12
3.0933255e+12
3.0278162e+12
2.8778091e+12
0
0
2.317416e+12
2.3453765e+12
2.3570298e+12
2.3648888e+12
2.3718019e+12
2.3739484e+12
2.3791923e+12
2.378828e+12
2.378828e+12
2.3791923e+12
2.3739484e+12
2.3718018e+12
2.3648886e+12
2.3570296e+12
2.3453762e+12
2.3174158e+12
0
0
0
0
0
0
0
0
0
0
0
0
0
0
0
0
0
0
0
0
0
0
0
0
0
0
0
0
0
0
0
0
0
0
0
0
0
0
0
0
0
0
0
0
0
0
0
0
0
0
0
0
0
0
0
0
0
0
0
0
0
0
0
0
0
0
0
0
0
0
0
0
0
0
0
0
0
0
0
0
0
0
0
0
0
0
0
0
0
0
0
0
0
0
0
0
0
0
0
0
0
0
0
0
0
0
0
0
0
0
0
0
0
0
0
0
0
0
0
0
0
0
0
0
0
0
0
0
0
0
0
0
0
0
0
0
0
0
0
0
0
0
0
0
0
0
0
0
0
0
0
0
0
0
0
0
0
0
0
0
0
0
0
0
0
0
0
0
0
0
0
0
0
0
0
0
0
0
0
0
0
0
0
0
0
0
0
0
0
0
0
0
0
0
0
0
0
0
0
0
0
0
0
0
0
0
0
0
0
0
0
0
0
0
0
0
0
0
0
0
0
0
0
0
0
0
0
0
0
0
0
0
0
0
0
0
0
0
0
0
0
0
0
0
0
0
0
0
0
0
0
0
0
0
0
0
0
0
0
0
0
0
0
0
0
0
0
0
0
0
0
0
0
0
0
0
0
0
0
0
0
0
0
0
0
0
0
0
0
0
0
0
0
0
0
0
0
0
0
0
0
0
0
0
0
0
0
0
0
0
0
0
0
0
0
0
0
0
0
0
0
0
0
0
0
0
0
0
0
0
0
0
0
0
0
0
0
0
0
0
0
0
0
0
0
0
0
0
0
0
0
0
0
0
0
0
0
0
0
0
0
0
0
0
0
0
0
0
0
0
0
0
0
0
0
0
0
0
0
0
0
0
0
0
0
0
0
0
0
0
0
0
0
0
0
0
0
0
0
0
0
0
0
0
0
0
0
0
0
0
0
0
0
0
0
0
0
0
0
0
0
0
0
0
0
0
0
0
0
0
0
0
0
0
0
0
0
0
0
0
0
0
)
;

boundaryField
{
    Wall
    {
        type            zeroGradient;
    }
    frontAndBack
    {
        type            empty;
    }
    atmosphere
    {
        type            zeroGradient;
    }
}


// ************************************************************************* //
