/*--------------------------------*- C++ -*----------------------------------*\
| =========                 |                                                 |
| \\      /  F ield         | OpenFOAM: The Open Source CFD Toolbox           |
|  \\    /   O peration     | Version:  3.0.1                                 |
|   \\  /    A nd           | Web:      www.OpenFOAM.org                      |
|    \\/     M anipulation  |                                                 |
\*---------------------------------------------------------------------------*/
FoamFile
{
    version     2.0;
    format      ascii;
    class       volScalarField;
    location    "26";
    object      weight0;
}
// * * * * * * * * * * * * * * * * * * * * * * * * * * * * * * * * * * * * * //

dimensions      [0 0 0 0 0 0 0];

internalField   nonuniform List<scalar> 
800
(
1.0658377e+10
1.0659233e+10
1.0659431e+10
1.0659477e+10
1.06595e+10
1.0659518e+10
1.0659534e+10
1.0659546e+10
1.0659554e+10
1.0659559e+10
1.0659559e+10
1.0659554e+10
1.0659546e+10
1.0659534e+10
1.0659518e+10
1.06595e+10
1.0659477e+10
1.0659431e+10
1.0659233e+10
1.0658377e+10
6.5772577e+09
6.9014712e+09
6.9470446e+09
6.9546682e+09
6.9565773e+09
6.9585562e+09
6.9608789e+09
6.9630411e+09
6.9646363e+09
6.9654715e+09
6.9654712e+09
6.9646359e+09
6.9630405e+09
6.9608781e+09
6.9585553e+09
6.9565767e+09
6.954668e+09
6.9470445e+09
6.9014713e+09
6.5772551e+09
4.9180446e+09
5.2940851e+09
5.4125405e+09
5.4300273e+09
5.4372132e+09
5.4425502e+09
5.4471876e+09
5.4509328e+09
5.4535286e+09
5.4548537e+09
5.4548531e+09
5.4535279e+09
5.4509318e+09
5.4471863e+09
5.4425486e+09
5.437212e+09
5.4300266e+09
5.41254e+09
5.2940845e+09
4.9180407e+09
3.4394435e+09
3.8710125e+09
4.0317074e+09
4.0561268e+09
4.0666898e+09
4.0734762e+09
4.0786832e+09
4.0826394e+09
4.0853153e+09
4.086669e+09
4.0866682e+09
4.085314e+09
4.0826373e+09
4.0786802e+09
4.0734721e+09
4.0666857e+09
4.0561225e+09
4.0317028e+09
3.8710073e+09
3.4394341e+09
2660.386
3.7266106e+08
5.7379725e+08
6.0412985e+08
6.1891906e+08
6.2679963e+08
6.3202329e+08
6.3574578e+08
6.3822121e+08
6.3947058e+08
6.3946928e+08
6.3821795e+08
6.3574025e+08
6.3201567e+08
6.2679004e+08
6.189083e+08
6.0411778e+08
5.7378463e+08
3.7264747e+08
2660.9121
56376346
38332834
35106755
34904491
34588695
34435095
34348430
34292002
34255838
34237750
34237784
34255927
34292155
34348637
34435350
34588981
34904805
35107073
38333176
56376898
8.5325715e+08
7.0581053e+08
6.8110958e+08
6.8321717e+08
6.7980629e+08
6.7789656e+08
6.7679391e+08
6.7608373e+08
6.7564579e+08
6.7542722e+08
6.7542753e+08
6.7564677e+08
6.7608525e+08
6.7679597e+08
6.7789899e+08
6.7980896e+08
6.8322004e+08
6.8111231e+08
7.058132e+08
8.5326083e+08
4.513118e+09
4.0321854e+09
3.9532233e+09
3.9715297e+09
3.9556478e+09
3.9441775e+09
3.9367753e+09
3.931875e+09
3.9288946e+09
3.9273912e+09
3.9273924e+09
3.9288982e+09
3.9318809e+09
3.9367833e+09
3.9441865e+09
3.9556573e+09
3.9715402e+09
3.9532325e+09
4.0321941e+09
4.5131303e+09
1.4017258e+10
1.3163766e+10
1.3009951e+10
1.3078936e+10
1.3094806e+10
1.3053714e+10
1.3023729e+10
1.3003735e+10
1.2991672e+10
1.2985484e+10
1.2985487e+10
1.2991681e+10
1.3003749e+10
1.3023749e+10
1.3053736e+10
1.3094829e+10
1.3078963e+10
1.3009974e+10
1.3163789e+10
1.4017292e+10
3.2047649e+10
3.1142657e+10
3.0972107e+10
3.1185819e+10
3.1288783e+10
3.1268775e+10
3.1184041e+10
3.1127945e+10
3.1094472e+10
3.1076886e+10
3.1076892e+10
3.109449e+10
3.1127973e+10
3.1184083e+10
3.1268823e+10
3.1288835e+10
3.1185883e+10
3.0972161e+10
3.1142713e+10
3.2047737e+10
6.2883853e+10
6.2015122e+10
6.2180729e+10
6.2783668e+10
6.2986717e+10
6.292132e+10
6.2728284e+10
6.2599953e+10
6.2525026e+10
6.2484448e+10
6.2484457e+10
6.2525057e+10
6.2600002e+10
6.2728364e+10
6.2921415e+10
6.2986826e+10
6.2783805e+10
6.2180846e+10
6.2015252e+10
6.2884052e+10
1.1469933e+11
1.1349865e+11
1.1467029e+11
1.1619218e+11
1.1618933e+11
1.158549e+11
1.15463e+11
1.1519593e+11
1.1504925e+11
1.1496461e+11
1.1496463e+11
1.150493e+11
1.15196e+11
1.1546314e+11
1.1585507e+11
1.1618953e+11
1.1619244e+11
1.1467052e+11
1.1349891e+11
1.1469973e+11
2.0018087e+11
1.9828793e+11
2.0150212e+11
2.0474365e+11
2.0404285e+11
2.032704e+11
2.0252279e+11
2.0198832e+11
2.0149561e+11
2.0132784e+11
2.0132785e+11
2.0149568e+11
2.0198841e+11
2.0252299e+11
2.0327067e+11
2.0404318e+11
2.0474408e+11
2.0150251e+11
1.982884e+11
2.0018154e+11
3.3527293e+11
3.3347677e+11
3.407905e+11
3.4650839e+11
3.4522511e+11
3.4399663e+11
3.4263338e+11
3.4160647e+11
3.3986545e+11
3.3956522e+11
3.3956523e+11
3.3986552e+11
3.4160656e+11
3.4263363e+11
3.43997e+11
3.4522558e+11
3.4650903e+11
3.4079109e+11
3.334775e+11
3.3527391e+11
5.0697131e+11
5.0662565e+11
5.1996025e+11
5.2963119e+11
5.2866216e+11
5.2711108e+11
5.2502399e+11
5.2327099e+11
5.195287e+11
5.1767062e+11
5.176706e+11
5.1952874e+11
5.2327104e+11
5.2502426e+11
5.2711151e+11
5.2866273e+11
5.2963197e+11
5.1996099e+11
5.0662657e+11
5.0697248e+11
7.6567142e+11
7.8580501e+11
8.1656298e+11
8.3596029e+11
8.3815527e+11
8.3659251e+11
8.305181e+11
8.2742594e+11
8.2130552e+11
8.191491e+11
8.1914903e+11
8.2130549e+11
8.2742587e+11
8.3051831e+11
8.3659294e+11
8.3815589e+11
8.3596115e+11
8.1656379e+11
7.8580604e+11
7.6567266e+11
9.9712076e+11
1.0697438e+12
1.1360308e+12
1.1761793e+12
1.1873529e+12
1.1828177e+12
1.1737174e+12
1.1690686e+12
1.1622468e+12
1.1608802e+12
1.1608801e+12
1.1622467e+12
1.1690683e+12
1.1737174e+12
1.182818e+12
1.1873535e+12
1.1761801e+12
1.1360315e+12
1.0697447e+12
9.9712199e+11
0
0
1.3271801e+12
1.398722e+12
1.4263532e+12
1.4272121e+12
1.4179757e+12
1.4114308e+12
1.4034456e+12
1.4021816e+12
1.4021814e+12
1.4034453e+12
1.4114304e+12
1.4179757e+12
1.4272123e+12
1.4263535e+12
1.3987225e+12
1.3271806e+12
0
0
0
0
0
0
0
0
0
0
0
0
0
0
0
0
0
0
0
0
0
0
0
0
0
0
0
0
0
0
0
0
0
0
0
0
0
0
0
0
0
0
0
0
0
0
0
0
0
0
0
0
0
0
0
0
0
0
0
0
0
0
0
0
0
0
0
0
0
0
0
0
0
0
0
0
0
0
0
0
0
0
0
0
0
0
0
0
0
0
0
0
0
0
0
0
0
0
0
0
0
0
0
0
0
0
0
0
0
0
0
0
0
0
0
0
0
0
0
0
0
0
0
0
0
0
0
0
0
0
0
0
0
0
0
0
0
0
0
0
0
0
0
0
0
0
0
0
0
0
0
0
0
0
0
0
0
0
0
0
0
0
0
0
0
0
0
0
0
0
0
0
0
0
0
0
0
0
0
0
0
0
0
0
0
0
0
0
0
0
0
0
0
0
0
0
0
0
0
0
0
0
0
0
0
0
0
0
0
0
0
0
0
0
0
0
0
0
0
0
0
0
0
0
0
0
0
0
0
0
0
0
0
0
0
0
0
0
0
0
0
0
0
0
0
0
0
0
0
0
0
0
0
0
0
0
0
0
0
0
0
0
0
0
0
0
0
0
0
0
0
0
0
0
0
0
0
0
0
0
0
0
0
0
0
0
0
0
0
0
0
0
0
0
0
0
0
0
0
0
0
0
0
0
0
0
0
0
0
0
0
0
0
0
0
0
0
0
0
0
0
0
0
0
0
0
0
0
0
0
0
0
0
0
0
0
0
0
0
0
0
0
0
0
0
0
0
0
0
0
0
0
0
0
0
0
0
0
0
0
0
0
0
0
0
0
0
0
0
0
0
0
0
0
0
0
0
0
0
0
0
0
0
0
0
0
0
0
0
0
0
0
0
0
0
0
0
0
0
0
0
0
0
0
0
0
0
0
0
0
0
0
0
0
0
0
0
0
0
0
0
0
0
0
0
0
0
0
0
0
0
0
0
0
0
0
0
0
0
0
0
0
)
;

boundaryField
{
    Wall
    {
        type            zeroGradient;
    }
    frontAndBack
    {
        type            empty;
    }
    atmosphere
    {
        type            zeroGradient;
    }
}


// ************************************************************************* //
