/*--------------------------------*- C++ -*----------------------------------*\
| =========                 |                                                 |
| \\      /  F ield         | OpenFOAM: The Open Source CFD Toolbox           |
|  \\    /   O peration     | Version:  3.0.1                                 |
|   \\  /    A nd           | Web:      www.OpenFOAM.org                      |
|    \\/     M anipulation  |                                                 |
\*---------------------------------------------------------------------------*/
FoamFile
{
    version     2.0;
    format      ascii;
    class       volScalarField;
    location    "26";
    object      XOH;
}
// * * * * * * * * * * * * * * * * * * * * * * * * * * * * * * * * * * * * * //

dimensions      [0 0 0 0 0 0 0];

internalField   nonuniform List<scalar> 
800
(
0.15000988
0.15002125
0.15002295
0.15002316
0.15002322
0.15002327
0.15002333
0.15002338
0.15002342
0.15002343
0.15002343
0.15002342
0.15002338
0.15002333
0.15002327
0.15002322
0.15002316
0.15002295
0.15002125
0.15000988
0.14366761
0.14387113
0.14391151
0.14391859
0.14391857
0.14391778
0.14391741
0.14391743
0.14391759
0.14391771
0.14391771
0.14391759
0.14391743
0.14391741
0.14391778
0.14391857
0.14391859
0.1439115
0.14387112
0.1436676
0.13801869
0.13833844
0.13841797
0.13843394
0.13843555
0.13843479
0.13843431
0.13843434
0.13843457
0.13843475
0.13843475
0.13843457
0.13843434
0.13843431
0.13843478
0.13843555
0.13843394
0.13841796
0.13833843
0.13801867
0.13297589
0.13339954
0.13351047
0.13353285
0.13353543
0.13353442
0.13353372
0.13353364
0.13353386
0.13353405
0.13353405
0.13353386
0.13353364
0.13353372
0.13353442
0.13353542
0.13353285
0.13351046
0.13339953
0.13297588
0.12842964
0.12894964
0.12908972
0.1291177
0.12912066
0.12911903
0.12911791
0.12911756
0.12911768
0.12911783
0.12911783
0.12911768
0.12911756
0.1291179
0.12911903
0.12912065
0.1291177
0.12908972
0.12894963
0.12842963
0.12422982
0.12484649
0.12501791
0.125052
0.12505513
0.12505265
0.12505094
0.12505022
0.12505018
0.12505026
0.12505026
0.12505018
0.12505022
0.12505094
0.12505264
0.12505512
0.125052
0.12501791
0.12484649
0.12422981
0.12018772
0.12091526
0.12112091
0.12116244
0.12116584
0.12116244
0.12116011
0.12115898
0.12115877
0.12115878
0.12115878
0.12115877
0.12115898
0.1211601
0.12116243
0.12116584
0.12116244
0.12112091
0.12091526
0.12018772
0.11607716
0.11694432
0.11718882
0.11723991
0.11724372
0.11723951
0.11723669
0.11723528
0.11723498
0.11723494
0.11723494
0.11723498
0.11723527
0.11723668
0.11723951
0.11724372
0.11723991
0.11718882
0.11694433
0.11607716
0.1116301
0.11267924
0.11297141
0.11303509
0.11304048
0.1130356
0.11303273
0.11303139
0.1130312
0.11303123
0.11303123
0.1130312
0.11303139
0.11303273
0.1130356
0.11304048
0.11303509
0.11297141
0.11267925
0.11163011
0.10653088
0.10781679
0.10817175
0.10825177
0.10826064
0.10825674
0.10825499
0.10825446
0.10825473
0.10825503
0.10825503
0.10825473
0.10825446
0.10825499
0.10825674
0.10826064
0.10825177
0.10817176
0.10781679
0.10653088
0.10040474
0.10199061
0.10243161
0.10253259
0.10255021
0.10255091
0.1025524
0.10255403
0.10255524
0.10255613
0.10255613
0.10255524
0.10255403
0.1025524
0.10255091
0.10255022
0.10253259
0.10243162
0.10199062
0.10040474
0.092810515
0.094765833
0.095318056
0.095446746
0.095487222
0.095497375
0.095505231
0.095511218
0.095513778
0.09551582
0.095515819
0.095513776
0.095511214
0.095505228
0.095497374
0.095487222
0.095446748
0.095318058
0.094765834
0.092810511
0.083255547
0.085657775
0.08632708
0.086503671
0.086586179
0.086610867
0.086628789
0.08664336
0.08665604
0.086661067
0.086661066
0.086656038
0.086643356
0.086628785
0.086610864
0.086586177
0.08650367
0.086327078
0.08565777
0.083255536
0.071282514
0.07415219
0.074951309
0.075189245
0.075322542
0.075364885
0.075396216
0.075421909
0.075501103
0.075508068
0.075508067
0.075501101
0.075421905
0.075396212
0.075364881
0.075322539
0.075189241
0.074951303
0.074152181
0.071282501
0.056739051
0.059987275
0.060971391
0.061241113
0.06140782
0.061466741
0.061522554
0.061559609
0.061722371
0.061730794
0.061730794
0.061722369
0.061559607
0.061522551
0.061466737
0.061407817
0.061241108
0.060971384
0.059987266
0.056739041
0.039661801
0.043138281
0.044388263
0.044619117
0.044775996
0.044852897
0.045230029
0.045270333
0.045456507
0.045467086
0.045467086
0.045456507
0.045270332
0.045230028
0.044852895
0.044775993
0.044619113
0.044388258
0.043138274
0.039661798
0.019760472
0.023519313
0.025148498
0.025278562
0.025375968
0.026203037
0.02654741
0.026576333
0.026705775
0.026717083
0.026717083
0.026705774
0.026576332
0.026547408
0.026203034
0.025375965
0.025278557
0.025148493
0.023519308
0.019760471
1e-150
1e-150
0.0022395051
0.002251091
0.0022595202
0.0023226896
0.0023495423
0.0023527399
0.0044275587
0.0044309267
0.0044309267
0.0044275586
0.0023527398
0.0023495421
0.0023226893
0.0022595197
0.0022510905
0.0022395045
1e-150
1e-150
1e-150
1e-150
1e-150
1e-150
1e-150
1e-150
1e-150
1e-150
1e-150
1e-150
1e-150
1e-150
1e-150
1e-150
1e-150
1e-150
1e-150
1e-150
1e-150
1e-150
1e-150
1e-150
1e-150
1e-150
1e-150
1e-150
1e-150
1e-150
1e-150
1e-150
1e-150
1e-150
1e-150
1e-150
1e-150
1e-150
1e-150
1e-150
1e-150
1e-150
1e-150
1e-150
1e-150
1e-150
1e-150
1e-150
1e-150
1e-150
1e-150
1e-150
1e-150
1e-150
1e-150
1e-150
1e-150
1e-150
1e-150
1e-150
1e-150
1e-150
1e-150
1e-150
1e-150
1e-150
1e-150
1e-150
1e-150
1e-150
1e-150
1e-150
1e-150
1e-150
1e-150
1e-150
1e-150
1e-150
1e-150
1e-150
1e-150
1e-150
1e-150
1e-150
1e-150
1e-150
1e-150
1e-150
1e-150
1e-150
1e-150
1e-150
1e-150
1e-150
1e-150
1e-150
1e-150
1e-150
1e-150
1e-150
1e-150
1e-150
1e-150
1e-150
1e-150
1e-150
1e-150
1e-150
1e-150
1e-150
1e-150
1e-150
1e-150
1e-150
1e-150
1e-150
1e-150
1e-150
1e-150
1e-150
1e-150
1e-150
1e-150
1e-150
1e-150
1e-150
1e-150
1e-150
1e-150
1e-150
1e-150
1e-150
1e-150
1e-150
1e-150
1e-150
1e-150
1e-150
1e-150
1e-150
1e-150
1e-150
1e-150
1e-150
1e-150
1e-150
1e-150
1e-150
1e-150
1e-150
1e-150
1e-150
1e-150
1e-150
1e-150
1e-150
1e-150
1e-150
1e-150
1e-150
1e-150
1e-150
1e-150
1e-150
1e-150
1e-150
1e-150
1e-150
1e-150
1e-150
1e-150
1e-150
1e-150
1e-150
1e-150
1e-150
1e-150
1e-150
1e-150
1e-150
1e-150
1e-150
1e-150
1e-150
1e-150
1e-150
1e-150
1e-150
1e-150
1e-150
1e-150
1e-150
1e-150
1e-150
1e-150
1e-150
1e-150
1e-150
1e-150
1e-150
1e-150
1e-150
1e-150
1e-150
1e-150
1e-150
1e-150
1e-150
1e-150
1e-150
1e-150
1e-150
1e-150
1e-150
1e-150
1e-150
1e-150
1e-150
1e-150
1e-150
1e-150
1e-150
1e-150
1e-150
1e-150
1e-150
1e-150
1e-150
1e-150
1e-150
1e-150
1e-150
1e-150
1e-150
1e-150
1e-150
1e-150
1e-150
1e-150
1e-150
1e-150
1e-150
1e-150
1e-150
1e-150
1e-150
1e-150
1e-150
1e-150
1e-150
1e-150
1e-150
1e-150
1e-150
1e-150
1e-150
1e-150
1e-150
1e-150
1e-150
1e-150
1e-150
1e-150
1e-150
1e-150
1e-150
1e-150
1e-150
1e-150
1e-150
1e-150
1e-150
1e-150
1e-150
1e-150
1e-150
1e-150
1e-150
1e-150
1e-150
1e-150
1e-150
1e-150
1e-150
1e-150
1e-150
1e-150
1e-150
1e-150
1e-150
1e-150
1e-150
1e-150
1e-150
1e-150
1e-150
1e-150
1e-150
1e-150
1e-150
1e-150
1e-150
1e-150
1e-150
1e-150
1e-150
1e-150
1e-150
1e-150
1e-150
1e-150
1e-150
1e-150
1e-150
1e-150
1e-150
1e-150
1e-150
1e-150
1e-150
1e-150
1e-150
1e-150
1e-150
1e-150
1e-150
1e-150
1e-150
1e-150
1e-150
1e-150
1e-150
1e-150
1e-150
1e-150
1e-150
1e-150
1e-150
1e-150
1e-150
1e-150
1e-150
1e-150
1e-150
1e-150
1e-150
1e-150
1e-150
1e-150
1e-150
1e-150
1e-150
1e-150
1e-150
1e-150
1e-150
1e-150
1e-150
1e-150
1e-150
1e-150
1e-150
1e-150
1e-150
1e-150
1e-150
1e-150
1e-150
1e-150
1e-150
1e-150
1e-150
1e-150
1e-150
1e-150
1e-150
1e-150
1e-150
1e-150
1e-150
1e-150
1e-150
1e-150
1e-150
1e-150
1e-150
1e-150
1e-150
1e-150
1e-150
1e-150
1e-150
1e-150
1e-150
1e-150
1e-150
1e-150
1e-150
1e-150
1e-150
1e-150
1e-150
1e-150
1e-150
1e-150
1e-150
1e-150
1e-150
1e-150
1e-150
1e-150
1e-150
1e-150
1e-150
1e-150
1e-150
1e-150
1e-150
1e-150
1e-150
1e-150
1e-150
1e-150
1e-150
1e-150
1e-150
1e-150
1e-150
1e-150
1e-150
1e-150
1e-150
1e-150
1e-150
1e-150
1e-150
1e-150
1e-150
1e-150
1e-150
1e-150
1e-150
)
;

boundaryField
{
    Wall
    {
        type            zeroGradient;
    }
    frontAndBack
    {
        type            empty;
    }
    atmosphere
    {
        type            zeroGradient;
    }
}


// ************************************************************************* //
