/*--------------------------------*- C++ -*----------------------------------*\
| =========                 |                                                 |
| \\      /  F ield         | OpenFOAM: The Open Source CFD Toolbox           |
|  \\    /   O peration     | Version:  3.0.1                                 |
|   \\  /    A nd           | Web:      www.OpenFOAM.org                      |
|    \\/     M anipulation  |                                                 |
\*---------------------------------------------------------------------------*/
FoamFile
{
    version     2.0;
    format      ascii;
    class       volScalarField;
    location    "26";
    object      XW;
}
// * * * * * * * * * * * * * * * * * * * * * * * * * * * * * * * * * * * * * //

dimensions      [0 0 0 0 0 0 0];

internalField   nonuniform List<scalar> 
800
(
0.62604558
0.6260714
0.62607518
0.62607565
0.62607577
0.62607589
0.62607601
0.62607612
0.62607619
0.62607623
0.62607623
0.62607619
0.62607612
0.62607601
0.62607589
0.62607578
0.62607565
0.62607518
0.6260714
0.62604559
0.61000524
0.61051847
0.61061943
0.61063748
0.61063781
0.61063617
0.6106355
0.61063573
0.61063624
0.61063659
0.61063659
0.61063624
0.61063573
0.6106355
0.61063616
0.61063781
0.61063747
0.61061942
0.61051846
0.61000522
0.59483591
0.59568403
0.59589206
0.59593457
0.59593941
0.59593786
0.59593691
0.59593717
0.59593788
0.5959384
0.5959384
0.59593787
0.59593716
0.59593691
0.59593785
0.59593941
0.59593456
0.59589205
0.59568401
0.59483588
0.58033356
0.58152105
0.58182286
0.58188453
0.58189229
0.58188994
0.5818882
0.58188804
0.58188865
0.58188917
0.58188917
0.58188865
0.58188803
0.5818882
0.58188993
0.58189228
0.58188452
0.58182284
0.58152103
0.58033352
0.56620683
0.56775416
0.56814962
0.56822961
0.5682388
0.5682345
0.56823131
0.56823024
0.56823047
0.56823085
0.56823085
0.56823046
0.56823023
0.5682313
0.56823449
0.56823879
0.5682296
0.56814961
0.56775414
0.56620679
0.55202546
0.55397811
0.55447849
0.55457943
0.55458949
0.55458246
0.55457731
0.554575
0.55457469
0.55457483
0.55457483
0.55457468
0.55457499
0.5545773
0.55458244
0.55458947
0.55457941
0.55447847
0.55397809
0.55202543
0.53721659
0.53966251
0.54028669
0.54041322
0.54042418
0.54041406
0.54040681
0.5404032
0.54040236
0.54040228
0.54040228
0.54040235
0.54040319
0.54040679
0.54041405
0.54042417
0.5404132
0.54028668
0.5396625
0.53721658
0.52106147
0.52413247
0.52491537
0.52507402
0.52508533
0.52507221
0.5250632
0.52505872
0.52505766
0.52505752
0.52505752
0.52505765
0.5250587
0.52506318
0.5250722
0.52508531
0.52507401
0.52491537
0.52413247
0.52106146
0.50267116
0.50654164
0.50754134
0.50774081
0.50775516
0.50773871
0.50772938
0.50772527
0.50772468
0.50772487
0.50772487
0.50772467
0.50772526
0.50772937
0.5077387
0.50775515
0.5077408
0.50754134
0.50654164
0.50267116
0.48093475
0.48582633
0.48712782
0.48737822
0.48739991
0.48738522
0.48737942
0.48737822
0.48737927
0.48738049
0.48738049
0.48737926
0.48737821
0.48737941
0.4873852
0.4873999
0.48737822
0.48712782
0.48582633
0.48093475
0.45447201
0.46064411
0.46236261
0.46267614
0.46271996
0.46271866
0.46272355
0.46272977
0.46273383
0.46273716
0.46273715
0.46273382
0.46272976
0.46272353
0.46271865
0.46271995
0.46267614
0.46236261
0.46064411
0.45447199
0.42159829
0.42938568
0.43160501
0.43200069
0.4321514
0.43218025
0.43220644
0.43222774
0.4322349
0.43224221
0.4322422
0.43223489
0.43222772
0.43220642
0.43218023
0.43215138
0.43200068
0.431605
0.42938566
0.42159825
0.38031383
0.39016383
0.39285202
0.39345783
0.393815
0.39389292
0.39395372
0.39400513
0.39404351
0.39406079
0.39406078
0.39404349
0.3940051
0.39395369
0.3938929
0.39381498
0.3934578
0.39285199
0.39016378
0.38031376
0.32847646
0.34060296
0.34384752
0.34474467
0.34533246
0.34547346
0.3455818
0.34567441
0.34605061
0.34607397
0.34607397
0.3460506
0.34567439
0.34558177
0.34547343
0.34533243
0.34474464
0.34384748
0.3406029
0.32847638
0.26464039
0.27882652
0.2829959
0.28405528
0.28478065
0.28498465
0.28517689
0.28531367
0.28609836
0.28612712
0.28612712
0.28609835
0.28531366
0.28517688
0.28498463
0.28478063
0.28405524
0.28299586
0.27882646
0.26464034
0.18750375
0.20331579
0.20893103
0.20985549
0.21053325
0.21080668
0.21257706
0.21273168
0.21362131
0.21366071
0.21366071
0.21362131
0.21273168
0.21257705
0.21080667
0.21053323
0.20985546
0.208931
0.20331575
0.18750373
0.094375714
0.11213022
0.1198063
0.12033264
0.12075587
0.12470169
0.12633329
0.12644722
0.12705714
0.12710343
0.12710343
0.12705714
0.12644721
0.12633328
0.12470168
0.12075585
0.12033261
0.11980627
0.1121302
0.094375707
1e-150
1e-150
0.010748806
0.010795972
0.010832241
0.011132469
0.011259008
0.011271603
0.021226956
0.021241068
0.021241068
0.021226955
0.011271603
0.011259007
0.011132467
0.010832239
0.01079597
0.010748803
1e-150
1e-150
1e-150
1e-150
1e-150
1e-150
1e-150
1e-150
1e-150
1e-150
1e-150
1e-150
1e-150
1e-150
1e-150
1e-150
1e-150
1e-150
1e-150
1e-150
1e-150
1e-150
1e-150
1e-150
1e-150
1e-150
1e-150
1e-150
1e-150
1e-150
1e-150
1e-150
1e-150
1e-150
1e-150
1e-150
1e-150
1e-150
1e-150
1e-150
1e-150
1e-150
1e-150
1e-150
1e-150
1e-150
1e-150
1e-150
1e-150
1e-150
1e-150
1e-150
1e-150
1e-150
1e-150
1e-150
1e-150
1e-150
1e-150
1e-150
1e-150
1e-150
1e-150
1e-150
1e-150
1e-150
1e-150
1e-150
1e-150
1e-150
1e-150
1e-150
1e-150
1e-150
1e-150
1e-150
1e-150
1e-150
1e-150
1e-150
1e-150
1e-150
1e-150
1e-150
1e-150
1e-150
1e-150
1e-150
1e-150
1e-150
1e-150
1e-150
1e-150
1e-150
1e-150
1e-150
1e-150
1e-150
1e-150
1e-150
1e-150
1e-150
1e-150
1e-150
1e-150
1e-150
1e-150
1e-150
1e-150
1e-150
1e-150
1e-150
1e-150
1e-150
1e-150
1e-150
1e-150
1e-150
1e-150
1e-150
1e-150
1e-150
1e-150
1e-150
1e-150
1e-150
1e-150
1e-150
1e-150
1e-150
1e-150
1e-150
1e-150
1e-150
1e-150
1e-150
1e-150
1e-150
1e-150
1e-150
1e-150
1e-150
1e-150
1e-150
1e-150
1e-150
1e-150
1e-150
1e-150
1e-150
1e-150
1e-150
1e-150
1e-150
1e-150
1e-150
1e-150
1e-150
1e-150
1e-150
1e-150
1e-150
1e-150
1e-150
1e-150
1e-150
1e-150
1e-150
1e-150
1e-150
1e-150
1e-150
1e-150
1e-150
1e-150
1e-150
1e-150
1e-150
1e-150
1e-150
1e-150
1e-150
1e-150
1e-150
1e-150
1e-150
1e-150
1e-150
1e-150
1e-150
1e-150
1e-150
1e-150
1e-150
1e-150
1e-150
1e-150
1e-150
1e-150
1e-150
1e-150
1e-150
1e-150
1e-150
1e-150
1e-150
1e-150
1e-150
1e-150
1e-150
1e-150
1e-150
1e-150
1e-150
1e-150
1e-150
1e-150
1e-150
1e-150
1e-150
1e-150
1e-150
1e-150
1e-150
1e-150
1e-150
1e-150
1e-150
1e-150
1e-150
1e-150
1e-150
1e-150
1e-150
1e-150
1e-150
1e-150
1e-150
1e-150
1e-150
1e-150
1e-150
1e-150
1e-150
1e-150
1e-150
1e-150
1e-150
1e-150
1e-150
1e-150
1e-150
1e-150
1e-150
1e-150
1e-150
1e-150
1e-150
1e-150
1e-150
1e-150
1e-150
1e-150
1e-150
1e-150
1e-150
1e-150
1e-150
1e-150
1e-150
1e-150
1e-150
1e-150
1e-150
1e-150
1e-150
1e-150
1e-150
1e-150
1e-150
1e-150
1e-150
1e-150
1e-150
1e-150
1e-150
1e-150
1e-150
1e-150
1e-150
1e-150
1e-150
1e-150
1e-150
1e-150
1e-150
1e-150
1e-150
1e-150
1e-150
1e-150
1e-150
1e-150
1e-150
1e-150
1e-150
1e-150
1e-150
1e-150
1e-150
1e-150
1e-150
1e-150
1e-150
1e-150
1e-150
1e-150
1e-150
1e-150
1e-150
1e-150
1e-150
1e-150
1e-150
1e-150
1e-150
1e-150
1e-150
1e-150
1e-150
1e-150
1e-150
1e-150
1e-150
1e-150
1e-150
1e-150
1e-150
1e-150
1e-150
1e-150
1e-150
1e-150
1e-150
1e-150
1e-150
1e-150
1e-150
1e-150
1e-150
1e-150
1e-150
1e-150
1e-150
1e-150
1e-150
1e-150
1e-150
1e-150
1e-150
1e-150
1e-150
1e-150
1e-150
1e-150
1e-150
1e-150
1e-150
1e-150
1e-150
1e-150
1e-150
1e-150
1e-150
1e-150
1e-150
1e-150
1e-150
1e-150
1e-150
1e-150
1e-150
1e-150
1e-150
1e-150
1e-150
1e-150
1e-150
1e-150
1e-150
1e-150
1e-150
1e-150
1e-150
1e-150
1e-150
1e-150
1e-150
1e-150
1e-150
1e-150
1e-150
1e-150
1e-150
1e-150
1e-150
1e-150
1e-150
1e-150
1e-150
1e-150
1e-150
1e-150
1e-150
1e-150
1e-150
1e-150
1e-150
1e-150
1e-150
1e-150
1e-150
1e-150
1e-150
1e-150
1e-150
1e-150
1e-150
1e-150
1e-150
1e-150
1e-150
1e-150
1e-150
1e-150
1e-150
1e-150
1e-150
1e-150
1e-150
1e-150
1e-150
)
;

boundaryField
{
    Wall
    {
        type            zeroGradient;
    }
    frontAndBack
    {
        type            empty;
    }
    atmosphere
    {
        type            zeroGradient;
    }
}


// ************************************************************************* //
