/*--------------------------------*- C++ -*----------------------------------*\
| =========                 |                                                 |
| \\      /  F ield         | OpenFOAM: The Open Source CFD Toolbox           |
|  \\    /   O peration     | Version:  3.0.1                                 |
|   \\  /    A nd           | Web:      www.OpenFOAM.org                      |
|    \\/     M anipulation  |                                                 |
\*---------------------------------------------------------------------------*/
FoamFile
{
    version     2.0;
    format      ascii;
    class       volScalarField;
    location    "7";
    object      M0;
}
// * * * * * * * * * * * * * * * * * * * * * * * * * * * * * * * * * * * * * //

dimensions      [0 0 0 0 0 0 0];

internalField   nonuniform List<scalar> 
800
(
6.2488058e+12
6.2489839e+12
6.2490435e+12
6.2490628e+12
6.2490748e+12
6.2490838e+12
6.2490904e+12
6.249095e+12
6.249098e+12
6.2490994e+12
6.2490994e+12
6.249098e+12
6.2490951e+12
6.2490904e+12
6.2490838e+12
6.2490748e+12
6.2490628e+12
6.2490434e+12
6.2489839e+12
6.2488058e+12
7.6661195e+12
7.664216e+12
7.6635167e+12
7.6630779e+12
7.6628089e+12
7.6626347e+12
7.6625189e+12
7.6624425e+12
7.6623957e+12
7.6623734e+12
7.6623734e+12
7.6623958e+12
7.6624427e+12
7.6625191e+12
7.6626349e+12
7.6628092e+12
7.6630783e+12
7.663517e+12
7.6642164e+12
7.6661199e+12
4.6226651e+12
4.6227014e+12
4.6224154e+12
4.6218427e+12
4.6213564e+12
4.6209784e+12
4.6207007e+12
4.6205074e+12
4.6203855e+12
4.6203267e+12
4.6203268e+12
4.6203857e+12
4.6205078e+12
4.6207013e+12
4.6209791e+12
4.6213572e+12
4.6218436e+12
4.6224163e+12
4.6227025e+12
4.6226663e+12
1.4417666e+12
1.4764996e+12
1.4776535e+12
1.4773385e+12
1.4770254e+12
1.4767763e+12
1.4765921e+12
1.4764639e+12
1.476383e+12
1.4763436e+12
1.4763436e+12
1.4763831e+12
1.476464e+12
1.4765923e+12
1.4767765e+12
1.4770257e+12
1.4773387e+12
1.4776535e+12
1.4764996e+12
1.4417667e+12
2.9716823e+11
3.70976e+11
3.8178555e+11
3.8321041e+11
3.8326846e+11
3.8316913e+11
3.8307958e+11
3.8301649e+11
3.8297711e+11
3.829578e+11
3.8295773e+11
3.8297694e+11
3.8301625e+11
3.8307927e+11
3.8316875e+11
3.8326795e+11
3.8320968e+11
3.8178451e+11
3.7097474e+11
2.9716694e+11
4.4047989e+10
8.598979e+10
9.4663949e+10
9.6037803e+10
9.6173947e+10
9.6139922e+10
9.6097462e+10
9.6066671e+10
9.6047616e+10
9.6038428e+10
9.6038377e+10
9.6047469e+10
9.606645e+10
9.6097172e+10
9.6139552e+10
9.6173461e+10
9.6037129e+10
9.4663039e+10
8.5988734e+10
4.4047197e+10
5.5760478e+09
1.8321562e+10
2.1941378e+10
2.2577355e+10
2.2649508e+10
2.2638418e+10
2.2621264e+10
2.2608485e+10
2.2600536e+10
2.2596721e+10
2.2596696e+10
2.2600461e+10
2.2608371e+10
2.2621115e+10
2.2638229e+10
2.2649264e+10
2.2577024e+10
2.1940944e+10
1.8321088e+10
5.5758328e+09
6.3726998e+08
3.4652204e+09
4.5175654e+09
4.7171028e+09
4.7411344e+09
4.7380595e+09
4.7326914e+09
4.7285963e+09
4.726022e+09
4.7247835e+09
4.7247741e+09
4.7259944e+09
4.7285541e+09
4.7326368e+09
4.737992e+09
4.7410493e+09
4.7169909e+09
4.5174229e+09
3.4650767e+09
6.3723193e+08
65519559
5.7769473e+08
8.183169e+08
8.6697673e+08
8.7312267e+08
8.7245551e+08
8.7113978e+08
8.7011053e+08
8.6945502e+08
8.6913793e+08
8.691352e+08
8.6944704e+08
8.7009835e+08
8.7112426e+08
8.7243682e+08
8.7309998e+08
8.6694806e+08
8.182818e+08
5.7766248e+08
65514533
6081976.5
85642005
1.3154158e+08
1.4137464e+08
1.4267436e+08
1.4256177e+08
1.4229985e+08
1.4208935e+08
1.4195342e+08
1.4188722e+08
1.4188657e+08
1.4195152e+08
1.4208646e+08
1.4229622e+08
1.4255753e+08
1.4266941e+08
1.413687e+08
1.3153468e+08
85636297
6081444.4
514099.83
11436418
19015409
20728302
20964921
20950125
20906185
20869855
20846072
20834408
20834277
20845691
20869275
20905463
20949297
20963994
20727245
19014259
11435572
514051.84
39932.95
1392391.6
2503266.3
2767401.2
2805448.9
2803995.8
2797593.5
2792141.5
2788525.3
2786739.9
2786717.1
2788459.1
2792040.5
2797468.1
2803854
2805294.3
2767233.3
2503095.6
1392280.3
39929.043
2874.0677
156153.54
303299.31
340033.96
345535.04
345452.08
344622.68
343894.5
343405.57
343162.65
343159.17
343395.47
343879.05
344603.46
345430.43
345511.8
340009.51
303275.84
156139.92
2873.7662
193.05908
16269.227
34119.74
38791.143
39515.984
39520.341
39423.099
39334.984
39275.137
39245.237
39244.766
39273.769
39332.88
39420.468
39517.367
39512.802
38787.849
34116.7
16267.638
193.03653
12.1795
1586.0185
3589.858
4138.812
4226.7823
4228.9672
4218.5074
4208.7121
4201.9876
4198.6114
4198.5542
4201.8214
4208.4551
4218.1833
4228.598
4226.3853
4138.4019
3589.4877
1585.8415
12.177875
0.72553711
145.54479
355.42723
415.54555
425.4655
425.87658
424.83339
423.82216
423.1209
422.7673
422.76104
423.10264
423.79376
424.79728
425.83503
425.42034
415.49863
355.38523
145.52619
0.72542639
0.041002319
12.637697
33.288338
39.466501
40.513417
40.572056
40.474778
40.37698
40.308502
40.273846
40.273218
40.306667
40.374109
40.471099
40.567779
40.508717
39.46157
33.283934
12.635877
0.040995288
0.0022071762
1.0429095
2.9624297
3.5616616
3.6657011
3.6728575
3.6643193
3.6553962
3.6490898
3.6458877
3.6458292
3.6489186
3.6551272
3.6639722
3.6724505
3.6652491
3.5611828
2.9620024
1.0427443
0.0022067621
0.00011357515
0.082111379
0.25148116
0.30660406
0.31639057
0.31717354
0.31646435
0.31569184
0.31514084
0.31486022
0.31485509
0.31512579
0.3156681
0.31643357
0.31713719
0.31634989
0.30656064
0.25144249
0.0820974
0.00011355242
5.6039963e-06
0.0061886995
0.020433282
0.025262611
0.026137882
0.026216559
0.02616057
0.026096806
0.026050909
0.026027466
0.026027034
0.02604964
0.026094799
0.026157958
0.026213461
0.026134396
0.025258876
0.020429974
0.0061875841
5.6028192e-06
2.6587194e-07
0.00044783847
0.001593832
0.0019982519
0.0020729694
0.002080339
0.0020761227
0.0020710845
0.0020674246
0.0020655496
0.0020655142
0.0020673203
0.0020709193
0.0020759071
0.0020800825
0.0020726801
0.001997942
0.0015935604
0.00044775333
2.6581358e-07
1.2158058e-08
3.1196706e-05
0.00011966473
0.00015213927
0.00015824773
0.00015889771
0.00015859396
0.0001582116
0.00015793126
0.00015778718
0.00015778431
0.00015792283
0.00015819822
0.00015857646
0.00015887684
0.00015822419
0.00015211413
0.000119643
3.1190399e-05
1.2155247e-08
5.3704903e-10
2.0968881e-06
8.6682107e-06
1.1175634e-05
1.1655318e-05
1.170969e-05
1.1688708e-05
1.1660756e-05
1.1640067e-05
1.1629398e-05
1.162917e-05
1.1639394e-05
1.1659687e-05
1.1687305e-05
1.1708014e-05
1.1653427e-05
1.1173624e-05
8.6665035e-06
2.0964305e-06
5.3691607e-10
2.2959494e-11
1.3627836e-07
6.0707748e-07
7.9369651e-07
8.2997299e-07
8.3431103e-07
8.329189e-07
8.3094572e-07
8.2947105e-07
8.287079e-07
8.2869003e-07
8.2941842e-07
8.3086179e-07
8.3280843e-07
8.3417871e-07
8.2982358e-07
7.9353835e-07
6.0694553e-07
1.3624573e-07
2.2953303e-11
9.5161885e-13
8.5797839e-09
4.1183925e-08
5.4601664e-08
5.7249846e-08
5.7581418e-08
5.7492583e-08
5.7357793e-08
5.7256061e-08
5.7203219e-08
5.7201859e-08
5.7252049e-08
5.7351375e-08
5.7484101e-08
5.7571221e-08
5.723831e-08
5.458949e-08
4.1173938e-08
8.577505e-09
9.5133589e-13
3.8299594e-14
5.2414962e-10
2.7109174e-09
3.6447059e-09
3.8316957e-09
3.8560621e-09
3.850606e-09
3.8416792e-09
3.8348742e-09
3.8313263e-09
3.8312263e-09
3.8345788e-09
3.8412051e-09
3.8499764e-09
3.8553017e-09
3.8308328e-09
3.6437963e-09
2.7101823e-09
5.2399458e-10
3.8287798e-14
1.4993441e-15
3.1118944e-11
1.7341026e-10
2.3642283e-10
2.4921772e-10
2.5094448e-10
2.5062189e-10
2.500478e-10
2.4960571e-10
2.4937437e-10
2.4936731e-10
2.4958481e-10
2.5001414e-10
2.5057699e-10
2.5088997e-10
2.4915559e-10
2.3635731e-10
1.7335798e-10
3.1108735e-11
1.4989482e-15
5.7250488e-17
1.7979805e-12
1.0794594e-11
1.4924159e-11
1.5773975e-11
1.589228e-11
1.5873929e-11
1.5838023e-11
1.5810089e-11
1.579542e-11
1.5794942e-11
1.5808673e-11
1.5835734e-11
1.587086e-11
1.5888535e-11
1.5769687e-11
1.4919629e-11
1.0791021e-11
1.7973327e-12
5.7111494e-17
2.1359255e-18
1.012236e-13
6.5472678e-13
9.1793755e-13
9.7280745e-13
9.8066066e-13
9.796575e-13
9.7747078e-13
9.7575182e-13
9.7484621e-13
9.7481525e-13
9.7565993e-13
9.7732174e-13
9.7945679e-13
9.8041441e-13
9.7252404e-13
9.1763757e-13
6.5449257e-13
1.011841e-13
2.1211121e-18
7.8021621e-20
5.5592281e-15
3.8738087e-14
5.507587e-14
5.8524563e-14
5.9030608e-14
5.8978055e-14
5.8848213e-14
5.8745072e-14
5.869057e-14
5.8688646e-14
5.8739356e-14
5.8838912e-14
5.8965476e-14
5.9015097e-14
5.8506625e-14
5.5056839e-14
3.8723374e-14
5.5569179e-15
7.6872507e-20
2.7968223e-21
2.9815442e-16
2.2382115e-15
3.2269726e-15
3.4382361e-15
3.4699428e-15
3.4673165e-15
3.4597916e-15
3.4537505e-15
3.4505494e-15
3.4504345e-15
3.4534087e-15
3.4592339e-15
3.4665594e-15
3.469005e-15
3.4371468e-15
3.2258144e-15
2.2373249e-15
2.9802472e-16
2.7212617e-21
9.860561e-23
1.5630891e-17
1.2640753e-16
1.8481574e-16
1.974438e-16
1.9937835e-16
1.9925417e-16
1.9882808e-16
1.9848232e-16
1.9829864e-16
1.9829203e-16
1.9846263e-16
1.9879587e-16
1.9921029e-16
1.9932379e-16
1.9738021e-16
1.8474802e-16
1.2635621e-16
1.5623894e-17
9.41784e-23
3.4234891e-24
8.0173556e-19
6.9846554e-18
1.0355805e-17
1.1093105e-17
1.1208197e-17
1.1202724e-17
1.117913e-17
1.1159774e-17
1.1149468e-17
1.11491e-17
1.1158678e-17
1.1177333e-17
1.1200269e-17
1.1205136e-17
1.1089527e-17
1.0351993e-17
6.9817965e-18
8.0137238e-19
3.1891368e-24
1.1687452e-25
4.0266472e-20
3.7790212e-19
5.6818825e-19
6.102766e-19
6.1696109e-19
6.1674317e-19
6.1546445e-19
6.1440369e-19
6.1383757e-19
6.1381772e-19
6.1434448e-19
6.1536731e-19
6.166103e-19
6.1679511e-19
6.1008225e-19
5.6798114e-19
3.7774854e-19
4.0248297e-20
1.0574687e-25
3.8915489e-27
1.9817765e-21
2.0036024e-20
3.0549196e-20
3.2900314e-20
3.3279731e-20
3.3272487e-20
3.3204602e-20
3.3147645e-20
3.3117182e-20
3.3116141e-20
3.314454e-20
3.3199505e-20
3.3265511e-20
3.327101e-20
3.2890096e-20
3.0538317e-20
2.0028051e-20
1.980898e-21
3.4359066e-27
1.231249e-28
9.5647598e-23
1.0417252e-21
1.6107131e-21
1.7393414e-21
1.7604091e-21
1.7602652e-21
1.7567324e-21
1.7537337e-21
1.7521265e-21
1.7520734e-21
1.7535751e-21
1.7564721e-21
1.7599091e-21
1.7599642e-21
1.7388206e-21
1.6101596e-21
1.0413244e-21
9.5606534e-23
1.0946596e-28
3.7286932e-30
4.5299075e-24
5.3148839e-23
8.3336888e-23
9.0234153e-23
9.1379541e-23
9.1384521e-23
9.120418e-23
9.104927e-23
9.0966069e-23
9.0963419e-23
9.1041364e-23
9.1191221e-23
9.1366826e-23
9.1357476e-23
9.0208377e-23
8.3309569e-23
5.3129301e-23
4.528049e-24
3.4217182e-30
1.1185503e-31
2.1065262e-25
2.6625779e-24
4.2337648e-24
4.5965098e-24
4.6575307e-24
4.6584203e-24
4.6493836e-24
4.641526e-24
4.6372969e-24
4.6371676e-24
4.6411407e-24
4.6487533e-24
4.6575624e-24
4.656465e-24
4.5952697e-24
4.2324558e-24
2.6616537e-24
2.1057093e-25
1.0499735e-31
3.316659e-33
9.6237766e-27
1.3104675e-25
2.1131822e-25
2.300423e-25
2.3323038e-25
2.3330679e-25
2.3286203e-25
2.3247043e-25
2.3225922e-25
2.3225304e-25
2.3245205e-25
2.3283205e-25
2.3326615e-25
2.3318018e-25
2.2998425e-25
2.1125728e-25
1.3100431e-25
9.6202887e-27
3.1643618e-33
9.7062085e-35
4.3214724e-28
6.3399914e-27
1.0368102e-26
1.1317317e-26
1.1480788e-26
1.1486122e-26
1.146461e-26
1.1445424e-26
1.1435053e-26
1.1434764e-26
1.1444564e-26
1.1463212e-26
1.1484238e-26
1.1478478e-26
1.131467e-26
1.0365345e-26
6.3380984e-27
4.3200254e-28
9.3699561e-35
)
;

boundaryField
{
    Wall
    {
        type            zeroGradient;
    }
    frontAndBack
    {
        type            empty;
    }
    atmosphere
    {
        type            zeroGradient;
    }
}


// ************************************************************************* //
