/*--------------------------------*- C++ -*----------------------------------*\
| =========                 |                                                 |
| \\      /  F ield         | OpenFOAM: The Open Source CFD Toolbox           |
|  \\    /   O peration     | Version:  3.0.1                                 |
|   \\  /    A nd           | Web:      www.OpenFOAM.org                      |
|    \\/     M anipulation  |                                                 |
\*---------------------------------------------------------------------------*/
FoamFile
{
    version     2.0;
    format      ascii;
    class       volScalarField;
    location    "7";
    object      M2;
}
// * * * * * * * * * * * * * * * * * * * * * * * * * * * * * * * * * * * * * //

dimensions      [0 0 0 0 0 0 0];

internalField   nonuniform List<scalar> 
800
(
2.2329806e-14
2.2327055e-14
2.2326135e-14
2.2325836e-14
2.2325651e-14
2.2325513e-14
2.2325411e-14
2.232534e-14
2.2325294e-14
2.2325272e-14
2.2325272e-14
2.2325294e-14
2.232534e-14
2.2325411e-14
2.2325513e-14
2.2325652e-14
2.2325837e-14
2.2326135e-14
2.2327056e-14
2.2329807e-14
8.1555114e-15
8.1701173e-15
8.1752204e-15
8.1784773e-15
8.1805014e-15
8.1818229e-15
8.1827056e-15
8.1832897e-15
8.1836483e-15
8.1838193e-15
8.1838192e-15
8.1836476e-15
8.1832884e-15
8.1827041e-15
8.1818212e-15
8.1804993e-15
8.1784749e-15
8.175218e-15
8.1701143e-15
8.1555085e-15
1.6385621e-15
1.6590473e-15
1.6594203e-15
1.6594345e-15
1.6593399e-15
1.6592262e-15
1.6591282e-15
1.6590549e-15
1.6590071e-15
1.6589838e-15
1.6589838e-15
1.6590072e-15
1.659055e-15
1.6591284e-15
1.6592264e-15
1.6593401e-15
1.6594347e-15
1.6594206e-15
1.6590475e-15
1.6385623e-15
2.0320627e-16
2.0765179e-16
2.0763941e-16
2.0754737e-16
2.0747459e-16
2.0741831e-16
2.0737669e-16
2.0734757e-16
2.0732914e-16
2.073202e-16
2.0732021e-16
2.0732917e-16
2.0734761e-16
2.0737675e-16
2.0741839e-16
2.0747468e-16
2.0754747e-16
2.076395e-16
2.0765189e-16
2.0320645e-16
1.9753124e-17
2.4597503e-17
2.539165e-17
2.5503534e-17
2.5506553e-17
2.549681e-17
2.5488208e-17
2.5482106e-17
2.5478268e-17
2.5476398e-17
2.5476396e-17
2.5478262e-17
2.5482098e-17
2.5488198e-17
2.5496798e-17
2.5506535e-17
2.5503506e-17
2.5391607e-17
2.4597454e-17
1.9753078e-17
1.4742789e-18
3.0348092e-18
3.4086504e-18
3.4735006e-18
3.4806449e-18
3.4793633e-18
3.4775325e-18
3.476172e-18
3.4753192e-18
3.4749079e-18
3.4749065e-18
3.4753148e-18
3.4761653e-18
3.4775237e-18
3.4793521e-18
3.4806298e-18
3.4734798e-18
3.4086227e-18
3.0347784e-18
1.4742585e-18
1.0122076e-19
3.8535262e-19
4.815384e-19
5.0010484e-19
5.0246414e-19
5.02291e-19
5.0188774e-19
5.0157632e-19
5.0138012e-19
5.0128577e-19
5.0128525e-19
5.013786e-19
5.0157396e-19
5.0188465e-19
5.0228709e-19
5.0245904e-19
5.0009802e-19
4.8152966e-19
3.853437e-19
1.0121744e-19
6.9541609e-21
4.7918707e-20
6.6450879e-20
7.0312231e-20
7.0829014e-20
7.080343e-20
7.0723018e-20
7.0659264e-20
7.0618724e-20
7.0599175e-20
7.059904e-20
7.061833e-20
7.0658655e-20
7.072223e-20
7.0802455e-20
7.0827783e-20
7.0310633e-20
6.6448901e-20
4.7916876e-20
6.9537922e-21
4.7430671e-22
5.6861902e-21
8.6900235e-21
9.3560229e-21
9.4482126e-21
9.4447057e-21
9.4307846e-21
9.4194771e-21
9.4122014e-21
9.4086735e-21
9.4086447e-21
9.4121175e-21
9.419348e-21
9.4306199e-21
9.4445074e-21
9.4479716e-21
9.3557223e-21
8.6896669e-21
5.6858932e-21
4.742735e-22
3.1662577e-23
6.3821358e-22
1.0679588e-21
1.168512e-21
1.1828543e-21
1.1824692e-21
1.180371e-21
1.1786228e-21
1.1774833e-21
1.176927e-21
1.1769217e-21
1.1774679e-21
1.1785993e-21
1.1803413e-21
1.1824344e-21
1.1828138e-21
1.1684639e-21
1.0679047e-21
6.3817337e-22
3.166e-23
2.0478724e-24
6.7655886e-23
1.2335243e-22
1.3703843e-22
1.3904905e-22
1.3902143e-22
1.3874152e-22
1.385019e-22
1.3834364e-22
1.3826583e-22
1.3826497e-22
1.3834115e-22
1.3849809e-22
1.3873678e-22
1.3901599e-22
1.3904296e-22
1.3703157e-22
1.2334519e-22
6.7651113e-23
2.047692e-24
1.2753447e-25
6.7814795e-24
1.3425511e-23
1.5135064e-23
1.5393702e-23
1.5393915e-23
1.5360288e-23
1.533066e-23
1.5310841e-23
1.5301032e-23
1.5300908e-23
1.5310483e-23
1.5330111e-23
1.5359606e-23
1.5393143e-23
1.539286e-23
1.5134158e-23
1.3424618e-23
6.780959e-24
1.2752254e-25
7.6230632e-27
6.4403369e-25
1.3812451e-24
1.5795164e-24
1.6103861e-24
1.6108752e-24
1.6071835e-24
1.6038307e-24
1.6015608e-24
1.6004302e-24
1.6004141e-24
1.6015142e-24
1.6037592e-24
1.6070945e-24
1.6107749e-24
1.6102784e-24
1.579404e-24
1.3811404e-24
6.439794e-25
7.6222911e-27
4.3685576e-28
5.8092102e-26
1.3475748e-25
1.562827e-25
1.5972753e-25
1.5983265e-25
1.5945794e-25
1.5910661e-25
1.5886606e-25
1.5874555e-25
1.5874366e-25
1.5886057e-25
1.5909816e-25
1.5944736e-25
1.5982069e-25
1.5971472e-25
1.5626954e-25
1.3474567e-25
5.8086583e-26
4.3680609e-28
2.4008828e-29
4.9897874e-27
1.2506144e-26
1.47072e-26
1.5068736e-26
1.5084767e-26
1.5049278e-26
1.501487e-26
1.4991057e-26
1.4979069e-26
1.4978866e-26
1.4990469e-26
1.5013959e-26
1.5048129e-26
1.5083456e-26
1.5067326e-26
1.4705753e-26
1.2504873e-26
4.9892427e-27
2.4005691e-29
1.2667517e-30
4.0921059e-28
1.1073009e-27
1.3203477e-27
1.3562072e-27
1.3582539e-27
1.3550949e-27
1.3519213e-27
1.3497027e-27
1.3485809e-27
1.348561e-27
1.3496449e-27
1.3518313e-27
1.3549804e-27
1.3581219e-27
1.3560638e-27
1.3201995e-27
1.1071716e-27
4.0915929e-28
1.2665616e-30
6.4261051e-32
3.2123798e-29
9.3796499e-29
1.1339848e-28
1.1677414e-28
1.1700587e-28
1.1674003e-28
1.1646267e-28
1.1626688e-28
1.1616751e-28
1.1616571e-28
1.1626162e-28
1.1645443e-28
1.1672947e-28
1.1699359e-28
1.1676064e-28
1.1338439e-28
9.3784225e-29
3.2119249e-29
6.4250185e-32
3.1395898e-33
2.4198369e-30
7.6209938e-30
9.341584e-30
9.644293e-30
9.6682331e-30
9.6469831e-30
9.6238959e-30
9.6074447e-30
9.5990669e-30
9.5989136e-30
9.6069967e-30
9.6231911e-30
9.6460734e-30
9.6671658e-30
9.6431074e-30
9.3403346e-30
7.6199055e-30
2.4194593e-30
3.1390079e-33
1.4798755e-34
1.7531762e-31
5.9536453e-31
7.3990422e-31
7.6584837e-31
7.6814373e-31
7.6652397e-31
7.6468588e-31
7.6336393e-31
7.6268864e-31
7.6267626e-31
7.6332767e-31
7.6462864e-31
7.6644971e-31
7.6805602e-31
7.6575015e-31
7.3979993e-31
5.9527383e-31
1.7528818e-31
1.4795825e-34
6.7414597e-36
1.2242745e-32
4.4819038e-32
5.6472482e-32
5.8603986e-32
5.8810544e-32
5.8692443e-32
5.8551969e-32
5.8450003e-32
5.839776e-32
5.8396793e-32
5.844717e-32
5.8547484e-32
5.8686603e-32
5.8803615e-32
5.8596189e-32
5.6464169e-32
4.4811845e-32
1.2240567e-32
6.7400574e-36
2.9728983e-37
8.2567908e-34
3.2578841e-33
4.1618986e-33
4.3302125e-33
4.3478001e-33
4.3395419e-33
4.3292052e-33
4.321632e-33
4.3177399e-33
4.3176659e-33
4.321415e-33
4.3288611e-33
4.3390926e-33
4.3472656e-33
4.3296096e-33
4.1612558e-33
3.2573333e-33
8.2552397e-34
2.9722513e-37
1.2711173e-38
5.387934e-35
2.2909508e-34
2.9672466e-34
3.0952968e-34
3.1095527e-34
3.1040035e-34
3.0966608e-34
3.0912301e-34
3.08843e-34
3.088374e-34
3.0910657e-34
3.0963996e-34
3.1036618e-34
3.1091453e-34
3.0948371e-34
2.9667579e-34
2.2905379e-34
5.3868567e-35
1.2708256e-38
5.2772693e-40
3.4075949e-36
1.5611677e-35
2.0500774e-35
2.1441376e-35
2.1551907e-35
2.1516017e-35
2.1465552e-35
2.1427865e-35
2.1408367e-35
2.1407947e-35
2.1426632e-35
2.1463588e-35
2.1513441e-35
2.1548829e-35
2.1437902e-35
2.0497097e-35
1.5608622e-35
3.4068585e-36
5.2759712e-40
2.130318e-41
2.0920175e-37
1.0325755e-36
1.3747577e-36
1.4415991e-36
1.4498285e-36
1.4475919e-36
1.4442295e-36
1.4416939e-36
1.4403772e-36
1.4403461e-36
1.4416026e-36
1.4440839e-36
1.4474002e-36
1.449599e-36
1.4413399e-36
1.3744844e-36
1.0323523e-36
2.091521e-37
2.1297467e-41
8.3722173e-43
1.2485225e-38
6.638357e-38
8.960853e-38
9.4211816e-38
9.4802072e-38
9.466768e-38
9.4450147e-38
9.4284447e-38
9.4198078e-38
9.419584e-38
9.4277855e-38
9.4439595e-38
9.4653736e-38
9.4785308e-38
9.4192853e-38
8.9588595e-38
6.6367551e-38
1.2481934e-38
8.3697392e-43
3.2070407e-44
7.2529174e-40
4.1537689e-39
5.6848107e-39
5.9925421e-39
6.0334372e-39
6.0256505e-39
6.011964e-39
6.0014322e-39
5.9959217e-39
5.9957652e-39
6.0009707e-39
6.0112229e-39
6.0246666e-39
6.032249e-39
5.9911938e-39
5.6833947e-39
4.1526472e-39
7.2507861e-40
3.2060823e-44
1.1992546e-45
4.1061992e-41
2.5327744e-40
3.5144342e-40
3.7144169e-40
3.7418495e-40
3.7375013e-40
3.7291161e-40
3.7225967e-40
3.7191729e-40
3.7190675e-40
3.7222855e-40
3.7286146e-40
3.7368324e-40
3.7410376e-40
3.7134917e-40
3.5134619e-40
2.5320136e-40
4.1048599e-41
1.1989987e-45
4.3924069e-47
2.268102e-42
1.5066433e-41
2.1196037e-41
2.2461095e-41
2.2639619e-41
2.2616249e-41
2.2566164e-41
2.2526815e-41
2.2506075e-41
2.2505394e-41
2.2524799e-41
2.2562905e-41
2.2611881e-41
2.263429e-41
2.2454993e-41
2.1189614e-41
1.5061462e-41
2.2672889e-42
4.37661e-47
1.5785812e-48
1.2235657e-43
8.7525325e-43
1.248427e-42
1.32642e-42
1.3377108e-42
1.3365048e-42
1.333585e-42
1.3312668e-42
1.3300409e-42
1.3299986e-42
1.3311415e-42
1.3333818e-42
1.3362312e-42
1.3373752e-42
1.3260339e-42
1.2480196e-42
8.7494109e-43
1.2230904e-43
1.5617974e-48
5.5798706e-50
6.4527926e-45
4.9702955e-44
7.1878073e-44
7.6569629e-44
7.7264677e-44
7.7205186e-44
7.7038891e-44
7.6905442e-44
7.6834654e-44
7.6832135e-44
7.6897965e-44
7.7026722e-44
7.7188731e-44
7.7244394e-44
7.6546176e-44
7.1853269e-44
4.968413e-44
6.450121e-45
5.453202e-50
1.9451658e-51
3.3297169e-46
2.7614771e-45
4.0489265e-45
4.3245667e-45
4.3662703e-45
4.3634856e-45
4.3542239e-45
4.3467108e-45
4.3427142e-45
4.3425695e-45
4.3462809e-45
4.3535224e-45
4.3625334e-45
4.3650913e-45
4.3231975e-45
4.0474753e-45
2.7603861e-45
3.3282731e-46
1.8645011e-51
6.7044707e-53
1.6825295e-47
1.5023454e-46
2.233324e-46
2.3916484e-46
2.416068e-46
2.4148478e-46
2.4097992e-46
2.4056588e-46
2.4034504e-46
2.4033703e-46
2.4054202e-46
2.409409e-46
2.4143164e-46
2.4154075e-46
2.3908786e-46
2.2325068e-46
1.501737e-46
1.6817785e-47
6.2470733e-53
2.286954e-54
8.331934e-49
8.0094173e-48
1.2071618e-47
1.2961469e-47
1.3101169e-47
1.3096298e-47
1.3069342e-47
1.3046987e-47
1.3035035e-47
1.3034605e-47
1.3045705e-47
1.3067241e-47
1.309343e-47
1.3097594e-47
1.2957292e-47
1.2067179e-47
8.006147e-48
8.3281687e-49
2.0525296e-54
7.6958726e-56
4.046376e-50
4.187414e-49
6.3987053e-49
6.8884927e-49
6.9666535e-49
6.9649942e-49
6.9508863e-49
6.939053e-49
6.9327119e-49
6.9324875e-49
6.9383844e-49
6.9497894e-49
6.9634944e-49
6.9647807e-49
6.8863005e-49
6.3963758e-49
4.1857163e-49
4.0445534e-50
6.6172316e-56
2.5229557e-57
1.9284696e-51
2.1483009e-50
3.3282957e-50
3.5925063e-50
3.6353139e-50
3.6349354e-50
3.6276928e-50
3.6215471e-50
3.6182465e-50
3.6181327e-50
3.6212078e-50
3.6271359e-50
3.6341735e-50
3.634362e-50
3.5913914e-50
3.327112e-50
2.1474481e-50
1.9276163e-51
2.0945632e-57
7.7592853e-59
9.0251663e-53
1.0822308e-51
1.6999109e-51
1.8396936e-51
1.8626636e-51
1.8627199e-51
1.8590704e-51
1.8559368e-51
1.8542502e-51
1.8541939e-51
1.8557689e-51
1.8587949e-51
1.8623432e-51
1.8621933e-51
1.8391432e-51
1.6993275e-51
1.0818153e-51
9.0212986e-53
6.5129756e-59
2.2622267e-60
4.1499745e-54
5.3564087e-53
8.5301858e-53
9.2559656e-53
9.3768152e-53
9.3783608e-53
9.3603002e-53
9.3446027e-53
9.3361361e-53
9.3358635e-53
9.343791e-53
9.3589698e-53
9.3765452e-53
9.3745527e-53
9.2533235e-53
8.5273932e-53
5.3544445e-53
4.1482752e-54
1.9904723e-60
6.5710789e-62
1.8759352e-55
2.6061136e-54
4.2078106e-54
4.5778714e-54
4.6402571e-54
4.6416473e-54
4.632864e-54
4.6251342e-54
4.6209562e-54
4.6208271e-54
4.6247501e-54
4.6322356e-54
4.6407926e-54
4.6391961e-54
4.5766372e-54
4.2065114e-54
2.6052113e-54
1.8752093e-55
5.9817337e-62
1.8954592e-63
8.3403164e-57
1.2470882e-55
2.0414579e-55
2.2268604e-55
2.2584814e-55
2.2594626e-55
2.2552625e-55
2.2515188e-55
2.2494908e-55
2.2494308e-55
2.2513406e-55
2.2549719e-55
2.259069e-55
2.2579956e-55
2.2262988e-55
2.0408701e-55
1.2466853e-55
8.3373006e-57
1.7683255e-63
5.4168009e-65
3.6485456e-58
5.8719454e-57
9.7457713e-57
1.0659027e-56
1.0816505e-56
1.0822666e-56
1.0802908e-56
1.0785064e-56
1.0775377e-56
1.0775104e-56
1.0784254e-56
1.080159e-56
1.082089e-56
1.0814331e-56
1.0656535e-56
9.7431836e-57
5.870197e-57
3.647327e-58
5.143982e-65
)
;

boundaryField
{
    Wall
    {
        type            zeroGradient;
    }
    frontAndBack
    {
        type            empty;
    }
    atmosphere
    {
        type            zeroGradient;
    }
}


// ************************************************************************* //
