/*--------------------------------*- C++ -*----------------------------------*\
| =========                 |                                                 |
| \\      /  F ield         | OpenFOAM: The Open Source CFD Toolbox           |
|  \\    /   O peration     | Version:  3.0.1                                 |
|   \\  /    A nd           | Web:      www.OpenFOAM.org                      |
|    \\/     M anipulation  |                                                 |
\*---------------------------------------------------------------------------*/
FoamFile
{
    version     2.0;
    format      ascii;
    class       volScalarField;
    location    "7";
    object      mOne;
}
// * * * * * * * * * * * * * * * * * * * * * * * * * * * * * * * * * * * * * //

dimensions      [0 0 0 0 0 0 0];

internalField   nonuniform List<scalar> 
800
(
0.60030577
0.60026016
0.6002449
0.60023995
0.60023688
0.60023457
0.60023288
0.6002317
0.60023095
0.60023058
0.60023058
0.60023095
0.6002317
0.60023289
0.60023458
0.60023688
0.60023996
0.60024492
0.60026017
0.60030577
0.30444093
0.30476489
0.30488396
0.30495867
0.30500449
0.30503416
0.30505387
0.30506688
0.30507486
0.30507867
0.30507866
0.30507485
0.30506686
0.30505384
0.30503411
0.30500444
0.30495861
0.3048839
0.30476482
0.30444086
0.073529914
0.074297527
0.074294697
0.074283725
0.074272882
0.074263754
0.074256777
0.074251821
0.074248665
0.074247136
0.074247139
0.074248671
0.07425183
0.07425679
0.074263771
0.0742729
0.074283746
0.074294719
0.074297551
0.073529936
0.01194799
0.012207411
0.012207669
0.012201985
0.012197623
0.012194336
0.012191939
0.012190273
0.012189223
0.012188714
0.012188714
0.012189224
0.012190276
0.012191942
0.01219434
0.012197628
0.012201991
0.012207674
0.012207417
0.011947998
0.0015540158
0.0019388157
0.0019996125
0.0020078957
0.0020081199
0.0020074251
0.0020068143
0.0020063829
0.0020061123
0.0020059802
0.00200598
0.0020061117
0.0020063821
0.0020068133
0.0020074238
0.0020081181
0.002007893
0.0019996085
0.0019388111
0.0015540112
0.00015645528
0.00031633401
0.00035247992
0.00035850814
0.00035914392
0.00035901466
0.00035884022
0.00035871186
0.00035863179
0.00035859318
0.00035859301
0.0003586313
0.00035871111
0.00035883925
0.00035901341
0.00035914226
0.00035850584
0.00035247685
0.00031633054
0.00015645286
1.4417441e-05
5.1599651e-05
6.324732e-05
6.5398469e-05
6.5658952e-05
6.5632282e-05
6.5581608e-05
6.55431e-05
6.5518978e-05
6.5507386e-05
6.5507315e-05
6.551877e-05
6.5542781e-05
6.5581191e-05
6.5631754e-05
6.5658266e-05
6.5397546e-05
6.3246125e-05
5.1598394e-05
1.441693e-05
1.2907705e-06
7.962156e-06
1.0711379e-05
1.1257553e-05
1.1327162e-05
1.1321512e-05
1.1308803e-05
1.1298917e-05
1.1292665e-05
1.1289653e-05
1.1289631e-05
1.12926e-05
1.1298817e-05
1.1308675e-05
1.1321354e-05
1.1326962e-05
1.1257291e-05
1.0711051e-05
7.9618394e-06
1.2906977e-06
1.1022757e-07
1.1336386e-06
1.6657445e-06
1.7780632e-06
1.7929144e-06
1.7918874e-06
1.7892362e-06
1.7871245e-06
1.7857729e-06
1.7851182e-06
1.7851126e-06
1.7857567e-06
1.7870997e-06
1.7892046e-06
1.7918494e-06
1.7928682e-06
1.7780052e-06
1.6656746e-06
1.1335774e-06
1.1021946e-07
8.8628617e-09
1.4825578e-07
2.3695898e-07
2.5672086e-07
2.5942751e-07
2.5927846e-07
2.5881264e-07
2.5843206e-07
2.581852e-07
2.5806482e-07
2.5806364e-07
2.5818179e-07
2.5842684e-07
2.5880608e-07
2.5927079e-07
2.5941856e-07
2.5671017e-07
2.3694676e-07
1.4824616e-07
8.8621106e-09
6.6829452e-10
1.7874894e-08
3.0984938e-08
3.4055794e-08
3.4491589e-08
3.4475035e-08
3.4404405e-08
3.4345104e-08
3.4306121e-08
3.4286978e-08
3.4286763e-08
3.4305499e-08
3.4344154e-08
3.4403222e-08
3.447368e-08
3.4490069e-08
3.4054072e-08
3.0983091e-08
1.78736e-08
6.6823368e-10
4.7286558e-11
1.9985759e-09
3.7498444e-09
4.180129e-09
4.2433706e-09
4.2421475e-09
4.2326891e-09
4.2245157e-09
4.2190734e-09
4.2163828e-09
4.2163483e-09
4.2189738e-09
4.2243636e-09
4.2325002e-09
4.2419338e-09
4.2431376e-09
4.1798769e-09
3.7495917e-09
1.9984191e-09
4.7282019e-11
3.1479687e-12
2.084726e-10
4.2281949e-10
4.7797302e-10
4.8635665e-10
4.8635129e-10
4.8521124e-10
4.8419592e-10
4.8351162e-10
4.8317119e-10
4.831663e-10
4.8349747e-10
4.8417423e-10
4.8518426e-10
4.8632089e-10
4.8632401e-10
4.7793882e-10
4.2278708e-10
2.0845471e-10
3.1476433e-12
1.9785195e-13
2.0400958e-11
4.4686991e-11
5.1223254e-11
5.2248697e-11
5.2266259e-11
5.2140725e-11
5.2025349e-11
5.19467e-11
5.1907352e-11
5.1906729e-11
5.1944897e-11
5.2022574e-11
5.2137254e-11
5.2262335e-11
5.2244498e-11
5.1218922e-11
4.468304e-11
2.0398991e-11
1.978291e-13
1.1782807e-14
1.8824094e-12
4.4503636e-12
5.1725077e-12
5.2891714e-12
5.2930748e-12
5.2802997e-12
5.2681643e-12
5.2598033e-12
5.2555994e-12
5.2555279e-12
5.2595959e-12
5.2678433e-12
5.279895e-12
5.2926138e-12
5.2886755e-12
5.1719969e-12
4.4499077e-12
1.8822014e-12
1.1781249e-14
6.6726419e-16
1.645115e-13
4.1959354e-13
4.9447528e-13
5.0690414e-13
5.0750311e-13
5.0629059e-13
5.0509803e-13
5.0426805e-13
5.0384894e-13
5.0384149e-13
5.0424635e-13
5.0506425e-13
5.0624765e-13
5.0745369e-13
5.0685043e-13
4.9441961e-13
4.1954424e-13
1.6449067e-13
6.6716307e-16
3.6052393e-17
1.3672231e-14
3.7607286e-14
4.4935879e-14
4.618297e-14
4.6259477e-14
4.6151362e-14
4.6041031e-14
4.59635e-14
4.5924203e-14
4.5923488e-14
4.5961413e-14
4.6037763e-14
4.6147174e-14
4.625461e-14
4.617762e-14
4.4930279e-14
3.7602337e-14
1.3670278e-14
3.6046246e-17
1.8641824e-18
1.0844109e-15
3.2159468e-15
3.8961293e-15
4.0145685e-15
4.0232198e-15
4.01411e-15
4.0044408e-15
3.9975823e-15
3.9940945e-15
3.9940305e-15
3.9973952e-15
4.0041465e-15
4.0137304e-15
4.0227747e-15
4.0140742e-15
3.8956068e-15
3.2154851e-15
1.0842403e-15
1.8638344e-18
9.2506703e-20
8.2345815e-17
2.6323555e-16
3.2334892e-16
3.3404196e-16
3.3493407e-16
3.342053e-16
3.3339846e-16
3.3282088e-16
3.3252626e-16
3.3252084e-16
3.3280501e-16
3.3337343e-16
3.3417284e-16
3.3489575e-16
3.3399906e-16
3.2330323e-16
2.6319525e-16
8.2331886e-17
9.2488269e-20
4.4165997e-21
6.0036745e-18
2.068381e-17
2.5760813e-17
2.668202e-17
2.6767381e-17
2.6711813e-17
2.6647435e-17
2.6600925e-17
2.6577131e-17
2.6576689e-17
2.6599631e-17
2.6645388e-17
2.6709149e-17
2.6764222e-17
2.6678465e-17
2.5757012e-17
2.0680475e-17
6.0025989e-18
4.4156757e-21
2.0334247e-22
4.2133445e-19
1.5641759e-18
1.9752262e-18
2.0512076e-18
2.0588736e-18
2.0548225e-18
2.049893e-18
2.0462986e-18
2.0444541e-18
2.044419e-18
2.0461955e-18
2.0497296e-18
2.0546094e-18
2.0586201e-18
2.0509217e-18
1.9749205e-18
1.5639104e-18
4.2125479e-19
2.0329799e-22
9.0467712e-24
2.8527582e-20
1.1410722e-19
1.4609882e-19
1.5211648e-19
1.5276792e-19
1.5248483e-19
1.5212148e-19
1.5185405e-19
1.5171638e-19
1.5171362e-19
1.5184595e-19
1.5210862e-19
1.5246801e-19
1.5274788e-19
1.5209387e-19
1.4607472e-19
1.1408658e-19
2.8521844e-20
9.0446854e-24
3.8967169e-25
1.8673522e-21
8.0466614e-21
1.0446043e-20
1.090487e-20
1.0957573e-20
1.0938573e-20
1.0912726e-20
1.0893519e-20
1.0883598e-20
1.0883384e-20
1.089289e-20
1.0911725e-20
1.0937261e-20
1.0956007e-20
1.0903102e-20
1.0444167e-20
8.0450815e-21
1.8669465e-21
3.8957547e-25
1.6277245e-26
1.1839103e-22
5.4955024e-22
7.2334589e-22
7.5710427e-22
7.6118318e-22
7.5995651e-22
7.5817794e-22
7.5684342e-22
7.5615158e-22
7.5613526e-22
7.5679543e-22
7.5810136e-22
7.5985576e-22
7.6106254e-22
7.5696806e-22
7.2320194e-22
5.4943112e-22
1.183628e-22
1.6272866e-26
6.6040082e-28
7.2823865e-24
3.6410297e-23
4.8592065e-23
5.0993803e-23
5.1296968e-23
5.1220713e-23
5.1102105e-23
5.1012224e-23
5.0965453e-23
5.0964239e-23
5.1008651e-23
5.1096387e-23
5.1213159e-23
5.1287889e-23
5.0983533e-23
4.8581244e-23
3.6401488e-23
7.280459e-24
6.602048e-28
2.6060637e-29
4.352654e-25
2.3438697e-24
3.1715898e-24
3.3371251e-24
3.3588338e-24
3.3542671e-24
3.3465885e-24
3.3407108e-24
3.3376406e-24
3.3375533e-24
3.3404535e-24
3.3461754e-24
3.3537188e-24
3.3581718e-24
3.3363739e-24
3.1707991e-24
2.3432354e-24
4.3513705e-25
2.6052694e-29
1.0018963e-30
2.5314138e-26
1.4680532e-25
2.0141304e-25
2.1248453e-25
2.139862e-25
2.1372276e-25
2.1323944e-25
2.1286568e-25
2.1266972e-25
2.1266369e-25
2.1284786e-25
2.1321073e-25
2.1368447e-25
2.1393974e-25
2.1243158e-25
2.0135727e-25
1.4676114e-25
2.5305856e-26
1.0016488e-30
3.7634446e-32
1.4343365e-27
8.9578228e-27
1.2460923e-26
1.3180591e-26
1.3281169e-26
1.3266542e-26
1.3236924e-26
1.3213782e-26
1.3201606e-26
1.3201206e-26
1.3212598e-26
1.323501e-26
1.3263977e-26
1.3278041e-26
1.3177009e-26
1.2457144e-26
8.9548623e-27
1.4338209e-27
3.7528456e-32
1.383653e-33
7.9272275e-29
5.3311601e-28
7.5191914e-28
7.9744593e-28
8.039815e-28
8.0320116e-28
8.0143199e-28
8.0003515e-28
7.9929778e-28
7.9927236e-28
7.999598e-28
8.0130975e-28
8.0303661e-28
8.0377969e-28
7.9721369e-28
7.5167361e-28
5.3292559e-28
7.924141e-29
1.3723724e-33
4.9896203e-35
4.2779569e-30
3.0978789e-29
4.4301164e-29
4.710761e-29
4.7520348e-29
4.7480477e-29
4.7377352e-29
4.7295066e-29
4.7251495e-29
4.7249944e-29
4.7290462e-29
4.7369861e-29
4.747035e-29
4.7507866e-29
4.7093177e-29
4.4285868e-29
3.0967039e-29
4.2761824e-30
4.9031416e-35
1.7690896e-36
2.2564324e-31
1.7593766e-30
2.5509997e-30
2.719772e-30
2.7451434e-30
2.7432031e-30
2.737331e-30
2.7325952e-30
2.7300806e-30
2.7299896e-30
2.7323247e-30
2.7368896e-30
2.7426041e-30
2.7444017e-30
2.7189106e-30
2.5500848e-30
1.7586806e-30
2.2554524e-31
1.7130043e-36
6.1811278e-38
1.164321e-32
9.7746341e-32
1.4369861e-31
1.5361056e-31
1.5513074e-31
1.5504169e-31
1.5471476e-31
1.5444821e-31
1.5430632e-31
1.5430116e-31
1.5443288e-31
1.5468968e-31
1.5500755e-31
1.550883e-31
1.535611e-31
1.43646e-31
9.7706708e-32
1.1638006e-32
5.857112e-38
2.1306246e-39
5.8823679e-34
5.3168688e-33
7.9251602e-33
8.4942147e-33
8.5831058e-33
8.5793231e-33
8.5615095e-33
8.5468258e-33
8.53899e-33
8.5387078e-33
8.5459853e-33
8.5601321e-33
8.5774431e-33
8.5807627e-33
8.4914764e-33
7.9222446e-33
5.3146953e-33
5.8797068e-34
1.9614708e-39
7.2305825e-41
2.9120509e-35
2.8337735e-34
4.2826926e-34
4.6023433e-34
4.6531268e-34
4.6516984e-34
4.6421922e-34
4.6342679e-34
4.6300295e-34
4.6298796e-34
4.633821e-34
4.641459e-34
4.6506961e-34
4.6518753e-34
4.6008781e-34
4.2811327e-34
2.8326233e-34
2.9107381e-35
6.4381464e-41
2.3928266e-42
1.4136027e-36
1.4809627e-35
2.2693171e-35
2.445144e-35
2.4735187e-35
2.4730911e-35
2.4681189e-35
2.4639263e-35
2.4616789e-35
2.4616014e-35
2.4636953e-35
2.4677397e-35
2.4725725e-35
2.4728706e-35
2.444385e-35
2.2685096e-35
1.4803741e-35
1.4129768e-36
2.072553e-42
7.4955055e-44
6.7333292e-38
7.594287e-37
1.179878e-36
1.2746583e-36
1.2901778e-36
1.2901283e-36
1.2875774e-36
1.2854012e-36
1.2842322e-36
1.2841931e-36
1.2852848e-36
1.2873865e-36
1.2898673e-36
1.2898519e-36
1.2742768e-36
1.1794729e-36
7.5913686e-37
6.7304418e-38
6.5475823e-44
2.2414271e-45
3.1490425e-39
3.8235585e-38
6.0230545e-38
6.524108e-38
6.6072719e-38
6.6079089e-38
6.5950646e-38
6.5839741e-38
6.5780041e-38
6.577812e-38
6.5834018e-38
6.5941265e-38
6.6066288e-38
6.6056768e-38
6.5222451e-38
6.0210816e-38
3.8221547e-38
3.1477522e-39
2.0311046e-45
6.6539125e-47
1.4468582e-40
1.8912168e-39
3.0205767e-39
3.2805171e-39
3.3242122e-39
3.3249813e-39
3.3186296e-39
3.3130774e-39
3.3100823e-39
3.3099897e-39
3.312802e-39
3.3181792e-39
3.3243686e-39
3.3234517e-39
3.2796324e-39
3.0196436e-39
1.8905612e-39
1.4462979e-40
6.1899147e-47
1.95587e-48
6.5342931e-42
9.1948063e-41
1.4889978e-40
1.6214208e-40
1.6439471e-40
1.6445494e-40
1.6414628e-40
1.6387305e-40
1.6372533e-40
1.6372097e-40
1.6386007e-40
1.6412512e-40
1.6442627e-40
1.6435933e-40
1.6210118e-40
1.4885689e-40
9.1918327e-41
6.5319283e-42
1.8540767e-48
5.6823948e-50
2.9019606e-43
4.3962588e-42
7.2185391e-42
7.8814106e-42
7.9954432e-42
7.9994549e-42
7.9847078e-42
7.9714826e-42
7.9643174e-42
7.9641153e-42
7.9708829e-42
7.9837326e-42
7.9981418e-42
7.9938353e-42
7.8795678e-42
7.2166214e-42
4.3949482e-42
2.9009904e-43
5.4603105e-50
)
;

boundaryField
{
    Wall
    {
        type            zeroGradient;
    }
    frontAndBack
    {
        type            empty;
    }
    atmosphere
    {
        type            zeroGradient;
    }
}


// ************************************************************************* //
