/*--------------------------------*- C++ -*----------------------------------*\
| =========                 |                                                 |
| \\      /  F ield         | OpenFOAM: The Open Source CFD Toolbox           |
|  \\    /   O peration     | Version:  3.0.1                                 |
|   \\  /    A nd           | Web:      www.OpenFOAM.org                      |
|    \\/     M anipulation  |                                                 |
\*---------------------------------------------------------------------------*/
FoamFile
{
    version     2.0;
    format      ascii;
    class       surfaceScalarField;
    location    "7";
    object      phi;
}
// * * * * * * * * * * * * * * * * * * * * * * * * * * * * * * * * * * * * * //

dimensions      [0 3 -1 0 0 0 0];

internalField   nonuniform List<scalar> 
1540
(
-3.5609536e-11
5.2028471e-08
-2.781243e-11
5.224951e-08
-1.1305446e-11
5.2315003e-08
-3.00473e-12
5.2359362e-08
9.5581529e-14
5.2389855e-08
1.0012092e-12
5.2410887e-08
1.0380424e-12
5.2425417e-08
7.6393143e-13
5.2435211e-08
3.9521907e-13
5.2441284e-08
3.5109463e-15
5.2444192e-08
-3.8824035e-13
5.244419e-08
-7.5730811e-13
5.2441276e-08
-1.0318839e-12
5.2435198e-08
-9.9567144e-13
5.24254e-08
-9.0581931e-14
5.2410866e-08
3.0092908e-12
5.2389831e-08
1.1309481e-11
5.2359337e-08
2.7815293e-11
5.2314977e-08
3.5610942e-11
5.2249483e-08
5.2028441e-08
3.9968627e-11
7.6716299e-08
7.3611832e-11
7.6869411e-08
6.6913346e-11
7.6896963e-08
5.2098826e-11
7.6902026e-08
3.8328899e-11
7.6880006e-08
2.745213e-11
7.6860927e-08
1.8860849e-11
7.6846988e-08
1.1815754e-11
7.6837306e-08
5.6961658e-12
7.6831211e-08
-1.8626186e-15
7.6828275e-08
-5.6996387e-12
7.6828278e-08
-1.1819005e-11
7.683122e-08
-1.886374e-11
7.6837321e-08
-2.7454361e-11
7.6847008e-08
-3.8330266e-11
7.6860951e-08
-5.2098863e-11
7.6880032e-08
-6.6914235e-11
7.6902015e-08
-7.3611154e-11
7.689695e-08
-3.9968547e-11
7.6869399e-08
7.6716287e-08
1.1288717e-10
7.4521592e-08
9.0716461e-11
7.4970176e-08
6.8673195e-11
7.4683247e-08
2.5524415e-11
7.4468704e-08
1.6231792e-11
7.4427537e-08
1.1620144e-11
7.4408552e-08
7.9812197e-12
7.439503e-08
5.0050364e-12
7.4385762e-08
2.4176122e-12
7.4379959e-08
8.2420166e-15
7.4377155e-08
-2.4021787e-12
7.4377157e-08
-4.9906282e-12
7.4379965e-08
-7.9681839e-12
7.4385773e-08
-1.1608446e-11
7.4395045e-08
-1.6221379e-11
7.440857e-08
-2.5560329e-11
7.4427558e-08
-6.8669014e-11
7.446893e-08
-9.0714202e-11
7.4683488e-08
-1.1288056e-10
7.4970424e-08
7.4521873e-08
2.6134877e-11
6.6287506e-08
3.6623396e-11
7.9881489e-08
3.5284613e-11
8.2482289e-08
2.7916607e-11
8.2915089e-08
2.0510665e-11
8.2957667e-08
1.4841243e-11
8.2945288e-08
1.037639e-11
8.2930252e-08
6.5994499e-12
8.291925e-08
3.2325356e-12
8.2912328e-08
5.7202345e-14
8.2908951e-08
-3.1297871e-12
8.2908942e-08
-6.5037327e-12
8.2912304e-08
-1.0290119e-11
8.2919216e-08
-1.4764452e-11
8.2930208e-08
-2.0441778e-11
8.2945233e-08
-2.785315e-11
8.2957594e-08
-3.5228664e-11
8.2914984e-08
-3.6579036e-11
8.2482149e-08
-2.6108118e-11
7.9881332e-08
6.628738e-08
1.5713414e-10
5.2086982e-08
2.3206091e-10
8.7940753e-08
2.357231e-10
9.732928e-08
2.0438559e-10
9.9270586e-08
1.6407568e-10
9.957434e-08
1.2512736e-10
9.9591049e-08
8.9987574e-11
9.9570938e-08
5.8298112e-11
9.9552969e-08
2.893976e-11
9.9541441e-08
7.0539919e-13
9.9535934e-08
-2.7557465e-11
9.9535902e-08
-5.6998248e-11
9.9541346e-08
-8.8805072e-11
9.9552818e-08
-1.2407523e-10
9.9570736e-08
-1.631525e-10
9.959079e-08
-2.0358935e-10
9.9574003e-08
-2.3506606e-10
9.9270133e-08
-2.3157943e-10
9.7328703e-08
-1.568706e-10
8.7940115e-08
5.2086535e-08
3.0581104e-10
4.6440484e-08
4.7596038e-10
9.5220901e-08
5.0749741e-10
1.1045878e-07
4.5883882e-10
1.1392126e-07
3.7981877e-10
1.1451332e-07
2.9579017e-10
1.1456233e-07
2.156842e-10
1.1453382e-07
1.4095006e-10
1.1450499e-07
7.0332221e-11
1.1448594e-07
1.7994074e-12
1.1447674e-07
-6.6806117e-11
1.1447667e-07
-1.3762697e-10
1.1448574e-07
-2.1265734e-10
1.1450467e-07
-2.9310585e-10
1.145334e-07
-3.7749298e-10
1.145618e-07
-4.5688647e-10
1.1451265e-07
-5.0595967e-10
1.1392041e-07
-4.7490199e-10
1.1045773e-07
-3.0527732e-10
9.5219783e-08
4.6439792e-08
3.0244841e-10
4.5961117e-08
4.9428209e-10
9.8501752e-08
5.4893674e-10
1.1599479e-07
5.1318207e-10
1.2014367e-07
4.3629692e-10
1.2088352e-07
3.4670127e-10
1.2095296e-07
2.5647443e-10
1.2092049e-07
1.6922565e-10
1.2088492e-07
8.4950981e-11
1.2086075e-07
2.30583e-12
1.208489e-07
-8.0429512e-11
1.208488e-07
-1.6495798e-10
1.2086045e-07
-2.5258612e-10
1.2088444e-07
-3.4326921e-10
1.2091988e-07
-4.3336548e-10
1.2095222e-07
-5.1079371e-10
1.2088263e-07
-5.4715148e-10
1.2014259e-07
-4.931504e-10
1.1599351e-07
-3.0194024e-10
9.8500442e-08
4.5960387e-08
2.3738391e-10
4.5917332e-08
4.0605167e-10
9.9495267e-08
4.7056371e-10
1.1777314e-07
4.5642306e-10
1.2220546e-07
4.0010097e-10
1.2302196e-07
3.2565382e-10
1.231092e-07
2.4518906e-10
1.2307912e-07
1.637442e-10
1.2304207e-07
8.2845343e-11
1.2301599e-07
2.4493447e-12
1.2300299e-07
-7.8035758e-11
1.2300284e-07
-1.5918978e-10
1.2301558e-07
-2.4102738e-10
1.2304143e-07
-3.2198974e-10
1.2307833e-07
-3.9701538e-10
1.2310829e-07
-4.539926e-10
1.2302094e-07
-4.6886105e-10
1.2220432e-07
-4.0508851e-10
1.1777189e-07
-2.3702258e-10
9.9494066e-08
4.5916737e-08
1.6783378e-10
4.5866899e-08
2.9834018e-10
9.9667904e-08
3.6016435e-10
1.1818292e-07
3.6276696e-10
1.2272601e-07
3.2845095e-10
1.2358598e-07
2.7434493e-10
1.2369086e-07
2.1060302e-10
1.2366807e-07
1.4256531e-10
1.2363383e-07
7.2791261e-11
1.2360867e-07
2.4002631e-12
1.2359586e-07
-6.8066666e-11
1.2359569e-07
-1.3806183e-10
1.2360816e-07
-2.0645488e-10
1.2363306e-07
-2.7067634e-10
1.2366712e-07
-3.2537781e-10
1.2368981e-07
-3.604021e-10
1.2358488e-07
-3.5859267e-10
1.2272489e-07
-2.9753863e-10
1.1818184e-07
-1.6758398e-10
9.9666992e-08
4.586651e-08
1.1389581e-10
4.5824268e-08
2.0865704e-10
9.9645224e-08
2.6117009e-10
1.1822333e-07
2.725124e-10
1.2281255e-07
2.5451918e-10
1.2370084e-07
2.1804039e-10
1.2382253e-07
1.7063821e-10
1.2380941e-07
1.1710745e-10
1.2378049e-07
6.0373222e-11
1.2375806e-07
2.2549183e-12
1.2374639e-07
-5.5916966e-11
1.2374618e-07
-1.1281377e-10
1.2375747e-07
-1.6662347e-10
1.2377958e-07
-2.144352e-10
1.2380829e-07
-2.5146628e-10
1.2382132e-07
-2.701549e-10
1.2369964e-07
-2.5961061e-10
1.2281145e-07
-2.0786492e-10
1.182224e-07
-1.1363934e-10
9.9644576e-08
4.5824031e-08
7.6774097e-11
4.5796174e-08
1.4382108e-10
9.9602791e-08
1.8544763e-10
1.1819747e-07
1.9949124e-10
1.2280996e-07
1.9150961e-10
1.2371849e-07
1.6784191e-10
1.2385503e-07
1.3369182e-10
1.2385185e-07
9.2935657e-11
1.2382917e-07
4.8368773e-11
1.2381033e-07
2.059021e-12
1.2380027e-07
-4.4277927e-11
1.2380004e-07
-8.8933927e-11
1.2380967e-07
-1.2986658e-10
1.2382816e-07
-1.6431729e-10
1.238506e-07
-1.88441e-10
1.2385367e-07
-1.9704494e-10
1.2371714e-07
-1.8374943e-10
1.2280876e-07
-1.428682e-10
1.1819654e-07
-7.6392563e-11
9.9602215e-08
4.5795952e-08
5.2227922e-11
4.5778328e-08
9.9389443e-11
9.957092e-08
1.3113256e-10
1.1817098e-07
1.4457778e-10
1.2279753e-07
1.4198698e-10
1.2372095e-07
1.2685809e-10
1.2386977e-07
1.0259483e-10
1.238756e-07
7.2129066e-11
1.2385904e-07
3.7874518e-11
1.2384393e-07
1.8350433e-12
1.2383563e-07
-3.4204393e-11
1.238354e-07
-6.8471225e-11
1.2384325e-07
-9.9002685e-11
1.2385798e-07
-1.2343897e-10
1.2387427e-07
-1.3889609e-10
1.2386827e-07
-1.4199551e-10
1.2371943e-07
-1.2921245e-10
1.2279613e-07
-9.8182581e-11
1.1816986e-07
-5.16628e-11
9.9570178e-08
4.5777977e-08
3.6038247e-11
4.5766573e-08
6.931449e-11
9.9549084e-08
9.3008096e-11
1.1815152e-07
1.0449699e-10
1.2278734e-07
1.0448211e-10
1.2372164e-07
9.4811064e-11
1.2388015e-07
7.7644506e-11
1.2389359e-07
5.5113212e-11
1.2388248e-07
2.9174353e-11
1.2387084e-07
1.6014241e-12
1.2386423e-07
-2.5947072e-11
1.23864e-07
-5.1831289e-11
1.2387019e-07
-7.4328225e-11
1.2388145e-07
-9.154552e-11
1.2389226e-07
-1.0141511e-10
1.2387861e-07
-1.0181534e-10
1.2372e-07
-9.0891093e-11
1.2278573e-07
-6.7875926e-11
1.1815011e-07
-3.5311454e-11
9.9548021e-08
4.5766016e-08
2.5211348e-11
4.5758389e-08
4.8829572e-11
9.9533666e-08
6.63065e-11
1.1813729e-07
7.554221e-11
1.2277936e-07
7.6571354e-11
1.2372154e-07
7.0333921e-11
1.2388746e-07
5.8182188e-11
1.2390701e-07
4.1628622e-11
1.2390047e-07
2.220068e-11
1.2389184e-07
1.3789685e-12
1.2388674e-07
-1.9401691e-11
1.2388655e-07
-3.8727496e-11
1.2389129e-07
-5.5172806e-11
1.2389956e-07
-6.7282422e-11
1.239058e-07
-7.3614073e-11
1.23886e-07
-7.2867198e-11
1.2371989e-07
-6.4112195e-11
1.2277763e-07
-4.7279123e-11
1.1813562e-07
-2.4409878e-11
9.9532285e-08
4.5757644e-08
1.782831e-11
4.5752309e-08
3.4686808e-11
9.9522067e-08
4.7492968e-11
1.1812619e-07
5.4656975e-11
1.2277251e-07
5.5972191e-11
1.2372033e-07
5.1898005e-11
1.2389182e-07
4.3278291e-11
1.2391613e-07
3.1173932e-11
1.2391327e-07
1.6748086e-11
1.2390715e-07
1.188178e-12
1.2390332e-07
-1.4322498e-11
1.2390317e-07
-2.8623444e-11
1.2390672e-07
-4.0581646e-11
1.2391256e-07
-4.9108019e-11
1.2391514e-07
-5.3216167e-11
1.2389056e-07
-5.2120464e-11
1.2371883e-07
-4.5383599e-11
1.2277082e-07
-3.3190809e-11
1.1812444e-07
-1.7067205e-11
9.9520512e-08
4.5751472e-08
1.2690797e-11
4.574749e-08
2.4771757e-11
9.9512729e-08
3.4118823e-11
1.1811689e-07
3.9557716e-11
1.2276609e-07
4.0825704e-11
1.2371795e-07
3.8133915e-11
1.2389356e-07
3.2010932e-11
1.2392151e-07
2.3198818e-11
1.2392154e-07
1.2567512e-11
1.2391741e-07
1.0444273e-12
1.2391462e-07
-1.0430254e-11
1.2391453e-07
-2.0936242e-11
1.2391713e-07
-2.9599134e-11
1.2392106e-07
-3.5620311e-11
1.239208e-07
-3.8333264e-11
1.238926e-07
-3.7268904e-11
1.2371674e-07
-3.2240313e-11
1.2276463e-07
-2.3482115e-11
1.1811528e-07
-1.2071517e-11
9.9511208e-08
4.5746686e-08
9.049546e-12
4.5743499e-08
1.7718914e-11
9.9504842e-08
2.4522766e-11
1.1810874e-07
2.8600041e-11
1.2275988e-07
2.9702364e-11
1.2371463e-07
2.79141e-11
1.2389327e-07
2.3568888e-11
1.2392397e-07
1.7187233e-11
1.2392621e-07
9.4119625e-12
1.2392363e-07
9.5194624e-13
1.2392165e-07
-7.4654446e-12
1.239216e-07
-1.5131622e-11
1.2392347e-07
-2.1386024e-11
1.2392592e-07
-2.5653695e-11
1.2392351e-07
-2.7488443e-11
1.2389261e-07
-2.6613087e-11
1.2371374e-07
-2.2960068e-11
1.2275874e-07
-1.6726817e-11
1.181074e-07
-8.6292573e-12
9.9503522e-08
4.5742822e-08
6.4313471e-12
4.5740165e-08
1.2641335e-11
9.9498107e-08
1.7580772e-11
1.1810157e-07
2.0615884e-11
1.2275402e-07
2.1530697e-11
1.2371084e-07
2.0347584e-11
1.238917e-07
1.727899e-11
1.2392443e-07
1.2690472e-11
1.2392835e-07
7.0546332e-12
1.2392694e-07
9.0273124e-13
1.2392558e-07
-5.2148375e-12
1.2392555e-07
-1.0764889e-11
1.2392684e-07
-1.5259974e-11
1.2392815e-07
-1.8292138e-11
1.2392412e-07
-1.9566484e-11
1.2389123e-07
-1.8922135e-11
1.2371018e-07
-1.6341883e-11
1.2275315e-07
-1.1958057e-11
1.1810051e-07
-6.211876e-12
9.9497043e-08
4.5739642e-08
4.5312966e-12
4.5737465e-08
8.9545781e-12
9.9492518e-08
1.2527277e-11
1.1809547e-07
1.4776196e-11
1.2274881e-07
1.5519459e-11
1.2370713e-07
1.4748873e-11
1.238896e-07
1.2601863e-11
1.2392385e-07
9.3363712e-12
1.23929e-07
5.2969322e-12
1.2392847e-07
8.7673216e-13
1.2392755e-07
-3.5173717e-12
1.2392751e-07
-7.4925821e-12
1.2392835e-07
-1.0697047e-11
1.2392879e-07
-1.2847251e-11
1.2392353e-07
-1.375208e-11
1.2388915e-07
-1.3321946e-11
1.2370652e-07
-1.15563e-11
1.2274805e-07
-8.5228513e-12
1.1809457e-07
-4.4680232e-12
9.9491629e-08
4.5737048e-08
3.1476711e-12
4.5735416e-08
6.2674118e-12
9.9488167e-08
8.8347784e-12
1.1809065e-07
1.0492434e-11
1.227446e-07
1.1087584e-11
1.2370399e-07
1.0599157e-11
1.2388766e-07
9.1170921e-12
1.2392301e-07
6.8248245e-12
1.2392907e-07
3.9720129e-12
1.2392917e-07
8.4495299e-13
1.2392857e-07
-2.2605258e-12
1.239285e-07
-5.0627997e-12
1.2392896e-07
-7.3129683e-12
1.2392871e-07
-8.8212921e-12
1.239225e-07
-9.4686394e-12
1.2388701e-07
-9.2081057e-12
1.2370321e-07
-8.0429549e-12
1.2274371e-07
-5.9910456e-12
1.1808968e-07
-3.1705528e-12
9.9487266e-08
4.5735002e-08
2.1433684e-12
4.5734015e-08
4.3101478e-12
9.9485097e-08
6.1346502e-12
1.1808721e-07
7.3438054e-12
1.227416e-07
7.8110157e-12
1.2370177e-07
7.5115974e-12
1.2388631e-07
6.5051897e-12
1.2392247e-07
4.9233479e-12
1.2392919e-07
2.9454728e-12
1.2392975e-07
7.7852814e-13
1.2392936e-07
-1.367043e-12
1.2392924e-07
-3.2945922e-12
1.2392938e-07
-4.8346984e-12
1.2392858e-07
-5.8654592e-12
1.2392164e-07
-6.3186867e-12
1.2388529e-07
-6.1743469e-12
1.2370061e-07
-5.4353415e-12
1.2274033e-07
-4.0895082e-12
1.1808592e-07
-2.1809827e-12
9.948396e-08
4.5733485e-08
1.4200839e-12
4.5733197e-08
2.8914246e-12
9.9483227e-08
4.1633518e-12
1.180851e-07
5.0272108e-12
1.2273982e-07
5.3810897e-12
1.2370057e-07
5.2014155e-12
1.2388574e-07
4.5286076e-12
1.239225e-07
3.4578415e-12
1.2392971e-07
2.1179168e-12
1.239306e-07
6.5672292e-13
1.2393035e-07
-7.7934916e-13
1.2393017e-07
-2.0571726e-12
1.2393005e-07
-3.0672907e-12
1.2392881e-07
-3.7369693e-12
1.2392128e-07
-4.0330019e-12
1.2388425e-07
-3.9531692e-12
1.2369888e-07
-3.5010779e-12
1.2273801e-07
-2.653579e-12
1.180833e-07
-1.4196369e-12
9.9481664e-08
4.5732453e-08
9.049734e-13
4.5732841e-08
1.870988e-12
9.9482343e-08
2.7291749e-12
1.1808412e-07
3.3230745e-12
1.2273909e-07
3.5736589e-12
1.2370027e-07
3.4613238e-12
1.2388591e-07
3.0155925e-12
1.2392311e-07
2.3055053e-12
1.2393068e-07
1.422682e-12
1.2393182e-07
4.7186086e-13
1.2393167e-07
-4.4773074e-13
1.2393143e-07
-1.2493831e-12
1.2393111e-07
-1.8668457e-12
1.2392951e-07
-2.2620259e-12
1.2392152e-07
-2.425919e-12
1.2388395e-07
-2.3680893e-12
1.2369803e-07
-2.0953213e-12
1.2273668e-07
-1.5877274e-12
1.180817e-07
-8.4372838e-13
9.9480255e-08
4.5731835e-08
5.4288548e-13
4.5732792e-08
1.143459e-12
9.9482143e-08
1.6904293e-12
1.1808392e-07
2.0709187e-12
1.2273909e-07
2.2265497e-12
1.2370059e-07
2.1441407e-12
1.2388658e-07
1.8466583e-12
1.2392411e-07
1.3835003e-12
1.2393196e-07
8.2087653e-13
1.2393329e-07
2.3012917e-13
1.2393322e-07
-3.2317761e-13
1.2393294e-07
-7.8490296e-13
1.2393246e-07
-1.1180587e-12
1.239306e-07
-1.3084424e-12
1.2392224e-07
-1.3618942e-12
1.2388426e-07
-1.2961419e-12
1.2369789e-07
-1.1238962e-12
1.2273615e-07
-8.3435329e-13
1.1808093e-07
-4.3147106e-13
9.9479543e-08
4.5731535e-08
2.8959469e-13
4.5732888e-08
6.2661985e-13
9.9482292e-08
9.3994271e-13
1.1808412e-07
1.1520479e-12
1.2273946e-07
1.2230432e-12
1.2370119e-07
1.1462332e-12
1.2388745e-07
9.4021948e-13
1.2392523e-07
6.4093617e-13
1.239333e-07
2.9433457e-13
1.2393479e-07
-5.1606918e-14
1.2393479e-07
-3.5514134e-13
1.239345e-07
-5.8400373e-13
1.2393392e-07
-7.21246e-13
1.2393186e-07
-7.6516174e-13
1.2392324e-07
-7.3124881e-13
1.2388493e-07
-6.4206851e-13
1.2369823e-07
-5.1450657e-13
1.2273616e-07
-3.5027258e-13
1.1808072e-07
-1.6342516e-13
9.9479303e-08
4.5731447e-08
1.1167757e-13
4.5732994e-08
2.5859492e-13
9.9482494e-08
3.9753974e-13
1.1808439e-07
4.7885031e-13
1.2273985e-07
4.7853511e-13
1.2370176e-07
3.9454157e-13
1.2388822e-07
2.4222921e-13
1.239262e-07
4.6817222e-14
1.2393445e-07
-1.6060022e-13
1.2393607e-07
-3.4819028e-13
1.2393615e-07
-4.9117295e-13
1.2393588e-07
-5.7241996e-13
1.2393523e-07
-5.8480075e-13
1.2393305e-07
-5.3389676e-13
1.2392425e-07
-4.3788167e-13
1.2388571e-07
-3.20535e-13
1.2369875e-07
-2.0149767e-13
1.2273645e-07
-9.3765651e-14
1.1808081e-07
-2.0660197e-14
9.9479314e-08
4.573147e-08
-1.6134574e-14
4.5733019e-08
-6.1738496e-15
9.9482535e-08
4.7140915e-15
1.1808446e-07
-1.1934365e-14
1.2274001e-07
-6.8490745e-14
1.2370205e-07
-1.6320508e-13
1.2388867e-07
-2.853215e-13
1.2392682e-07
-4.1745858e-13
1.2393521e-07
-5.3914787e-13
1.2393695e-07
-6.3138859e-13
1.2393712e-07
-6.8173216e-13
1.2393688e-07
-6.8057861e-13
1.2393622e-07
-6.2635401e-13
1.2393397e-07
-5.2508929e-13
1.2392506e-07
-3.9282121e-13
1.2388637e-07
-2.5072017e-13
1.2369924e-07
-1.1919334e-13
1.2273676e-07
-1.8322611e-14
1.1808099e-07
2.1297551e-14
9.9479407e-08
4.5731523e-08
-1.1154875e-13
4.5732919e-08
-2.0101324e-13
9.9482313e-08
-2.8115792e-13
1.1808422e-07
-3.6720462e-13
1.2273982e-07
-4.6322401e-13
1.2370197e-07
-5.6644493e-13
1.2388871e-07
-6.7012336e-13
1.2392698e-07
-7.6394284e-13
1.239355e-07
-8.3615413e-13
1.2393734e-07
-8.7765739e-13
1.239376e-07
-8.8364647e-13
1.2393741e-07
-8.4966683e-13
1.2393677e-07
-7.7357825e-13
1.239345e-07
-6.5876627e-13
1.2392554e-07
-5.1419408e-13
1.2388678e-07
-3.5478139e-13
1.2369955e-07
-1.9905617e-13
1.2273696e-07
-7.1775491e-14
1.180811e-07
-8.2087286e-15
9.9479468e-08
4.5731561e-08
-1.8533825e-13
4.5732695e-08
-3.4699235e-13
9.9481824e-08
-4.8974526e-13
1.1808366e-07
-6.2061908e-13
1.2273929e-07
-7.3979307e-13
1.2370151e-07
-8.4487259e-13
1.2388834e-07
-9.3438885e-13
1.2392672e-07
-1.0039596e-12
1.2393534e-07
-1.0497803e-12
1.2393728e-07
-1.0700523e-12
1.2393762e-07
-1.0653912e-12
1.2393749e-07
-1.0329267e-12
1.2393689e-07
-9.6751812e-13
1.2393464e-07
-8.6609915e-13
1.2392567e-07
-7.2820129e-13
1.2388688e-07
-5.5923829e-13
1.2369962e-07
-3.7444802e-13
1.22737e-07
-2.0080323e-13
1.180811e-07
-7.8116912e-14
9.9479457e-08
4.5731574e-08
-2.4266475e-13
4.5732388e-08
-4.5650145e-13
9.9481145e-08
-6.3953489e-13
1.1808287e-07
-7.9493166e-13
1.2273851e-07
-9.2241987e-13
1.2370079e-07
-1.022574e-12
1.238877e-07
-1.0973323e-12
1.2392616e-07
-1.1497793e-12
1.2393487e-07
-1.1824662e-12
1.2393689e-07
-1.2003846e-12
1.239373e-07
-1.206165e-12
1.2393723e-07
-1.1965102e-12
1.2393668e-07
-1.1622684e-12
1.2393447e-07
-1.0915276e-12
1.2392553e-07
-9.7250292e-13
1.2388676e-07
-8.0069911e-13
1.2369951e-07
-5.859546e-13
1.2273689e-07
-3.5655032e-13
1.18081e-07
-1.6015144e-13
9.9479397e-08
4.5731573e-08
-2.8399223e-13
4.5732053e-08
-5.3298151e-13
9.9480395e-08
-7.3913891e-13
1.1808198e-07
-9.03271e-13
1.2273763e-07
-1.0286233e-12
1.2369996e-07
-1.1174784e-12
1.2388694e-07
-1.1766552e-12
1.2392547e-07
-1.2150212e-12
1.2393425e-07
-1.2423566e-12
1.2393634e-07
-1.2672321e-12
1.2393681e-07
-1.2945613e-12
1.239368e-07
-1.3189244e-12
1.2393631e-07
-1.3261769e-12
1.2393414e-07
-1.2941288e-12
1.2392524e-07
-1.2008902e-12
1.2388652e-07
-1.0303721e-12
1.2369932e-07
-7.8633263e-13
1.2273674e-07
-5.0102938e-13
1.1808089e-07
-2.3293228e-13
9.9479345e-08
4.5731582e-08
-3.0647064e-13
4.5731743e-08
-5.7408018e-13
9.9479685e-08
-7.8852633e-13
1.1808115e-07
-9.5158771e-13
1.227368e-07
-1.0678566e-12
1.2369918e-07
-1.1428355e-12
1.2388622e-07
-1.1865516e-12
1.2392482e-07
-1.2133806e-12
1.2393366e-07
-1.2389643e-12
1.239358e-07
-1.2755638e-12
1.2393633e-07
-1.328293e-12
1.2393637e-07
-1.3904315e-12
1.2393592e-07
-1.4409856e-12
1.2393381e-07
-1.4492815e-12
1.2392496e-07
-1.3825189e-12
1.238863e-07
-1.2153277e-12
1.2369915e-07
-9.4598427e-13
1.2273664e-07
-6.1137595e-13
1.1808084e-07
-2.8539274e-13
9.9479352e-08
4.5731619e-08
-3.0474816e-13
4.5731487e-08
-5.7192139e-13
9.9479096e-08
-7.8341901e-13
1.1808046e-07
-9.3916492e-13
1.2273614e-07
-1.0444608e-12
1.2369857e-07
-1.1068154e-12
1.2388567e-07
-1.1377422e-12
1.2392432e-07
-1.1571136e-12
1.2393321e-07
-1.1834744e-12
1.239354e-07
-1.2331006e-12
1.2393596e-07
-1.3113496e-12
1.2393604e-07
-1.4088876e-12
1.2393564e-07
-1.4994018e-12
1.2393358e-07
-1.5442632e-12
1.2392479e-07
-1.5021684e-12
1.2388619e-07
-1.3405214e-12
1.236991e-07
-1.0536761e-12
1.2273664e-07
-6.8321876e-13
1.180809e-07
-3.1762837e-13
9.947944e-08
4.5731687e-08
-2.7255317e-13
4.5731291e-08
-5.1844105e-13
9.9478655e-08
-7.1609636e-13
1.1807996e-07
-8.6237484e-13
1.2273568e-07
-9.6020789e-13
1.2369817e-07
-1.0148035e-12
1.2388533e-07
-1.0399705e-12
1.2392404e-07
-1.0562484e-12
1.2393296e-07
-1.0867372e-12
1.2393519e-07
-1.1494444e-12
1.2393578e-07
-1.2501014e-12
1.2393589e-07
-1.3775845e-12
1.2393552e-07
-1.5009146e-12
1.2393351e-07
-1.5774458e-12
1.2392477e-07
-1.5586212e-12
1.2388623e-07
-1.4078651e-12
1.236992e-07
-1.1164451e-12
1.2273678e-07
-7.2848526e-13
1.1808106e-07
-3.394507e-13
9.9479598e-08
4.5731777e-08
-2.0123867e-13
4.5731132e-08
-4.0173512e-13
9.9478343e-08
-5.776213e-13
1.1807966e-07
-7.170353e-13
1.2273544e-07
-8.1497272e-13
1.2369801e-07
-8.7247475e-13
1.2388523e-07
-9.0043194e-13
1.2392397e-07
-9.2092659e-13
1.2393293e-07
-9.5932404e-13
1.2393518e-07
-1.0342836e-12
1.2393579e-07
-1.1528059e-12
1.2393592e-07
-1.3017209e-12
1.2393558e-07
-1.4509036e-12
1.239336e-07
-1.5536756e-12
1.2392491e-07
-1.5604798e-12
1.2388642e-07
-1.4318638e-12
1.2369944e-07
-1.1558256e-12
1.2273705e-07
-7.711136e-13
1.1808131e-07
-3.6894678e-13
9.9479788e-08
4.5731859e-08
-7.3273246e-14
4.5730889e-08
-2.0232628e-13
9.9478009e-08
-3.5543545e-13
1.1807946e-07
-4.9918979e-13
1.2273536e-07
-6.1224239e-13
1.2369801e-07
-6.8619943e-13
1.2388528e-07
-7.2865127e-13
1.2392406e-07
-7.6208583e-13
1.2393304e-07
-8.1108977e-13
1.239353e-07
-8.9699039e-13
1.2393592e-07
-1.0267856e-12
1.2393607e-07
-1.1889297e-12
1.2393575e-07
-1.3551784e-12
1.239338e-07
-1.4811463e-12
1.2392516e-07
-1.5205144e-12
1.2388671e-07
-1.433458e-12
1.2369976e-07
-1.2025703e-12
1.2273738e-07
-8.4842717e-13
1.1808157e-07
-4.3376811e-13
9.9479869e-08
4.5731813e-08
1.494292e-13
4.5730107e-08
1.1860574e-13
9.9477137e-08
-3.2712595e-14
1.1807909e-07
-2.1054923e-13
1.227353e-07
-3.6171511e-13
1.2369808e-07
-4.6850277e-13
1.238854e-07
-5.3754264e-13
1.2392421e-07
-5.9009768e-13
1.2393319e-07
-6.5196888e-13
1.2393545e-07
-7.4455587e-13
1.2393607e-07
-8.7800123e-13
1.2393623e-07
-1.044145e-12
1.2393593e-07
-1.2187692e-12
1.2393401e-07
-1.3656724e-12
1.2392541e-07
-1.4472499e-12
1.2388701e-07
-1.4306984e-12
1.2370009e-07
-1.2907566e-12
1.2273766e-07
-1.0114686e-12
1.1808158e-07
-5.7998521e-13
9.9479344e-08
4.5731191e-08
5.2225696e-13
4.5726595e-08
6.0638919e-13
9.9473443e-08
3.9647015e-13
1.1807745e-07
1.3002633e-13
1.2273483e-07
-8.8460275e-14
1.2369798e-07
-2.4155861e-13
1.238854e-07
-3.4336036e-13
1.2392422e-07
-4.1748235e-13
1.2393319e-07
-4.9035202e-13
1.2393543e-07
-5.8414355e-13
1.2393605e-07
-7.1214983e-13
1.2393621e-07
-8.7108595e-13
1.2393593e-07
-1.0443705e-12
1.2393405e-07
-1.2072699e-12
1.2392548e-07
-1.3389586e-12
1.2388712e-07
-1.4255359e-12
1.2370019e-07
-1.4431013e-12
1.2273745e-07
-1.3146131e-12
1.1808025e-07
-8.6458342e-13
9.947594e-08
4.5727808e-08
1.0231273e-12
4.5718229e-08
1.2090317e-12
9.9463074e-08
8.6860279e-13
1.1807217e-07
4.619721e-13
1.2273308e-07
1.5897359e-13
1.2369744e-07
-4.0341937e-14
1.2388515e-07
-1.6993554e-13
1.2392401e-07
-2.6057484e-13
1.2393297e-07
-3.3849984e-13
1.239352e-07
-4.2685492e-13
1.239358e-07
-5.4044714e-13
1.2393596e-07
-6.8154681e-13
1.239357e-07
-8.4176703e-13
1.2393384e-07
-1.0096849e-12
1.239253e-07
-1.1876425e-12
1.2388693e-07
-1.3934108e-12
1.2369977e-07
-1.6225288e-12
1.2273589e-07
-1.7205849e-12
1.1807521e-07
-1.270327e-12
9.9465794e-08
4.5719536e-08
1.3892905e-12
1.6488139e-12
1.1934382e-12
6.7615988e-13
3.1680698e-13
9.1757523e-14
-5.1131379e-14
-1.4829851e-13
-2.2554585e-13
-3.0491159e-13
-4.0229417e-13
-5.2244603e-13
-6.6425318e-13
-8.2553099e-13
-1.0269225e-12
-1.3161925e-12
-1.7124147e-12
-2.0019593e-12
-1.5593461e-12
)
;

boundaryField
{
    Wall
    {
        type            calculated;
        value           uniform 0;
    }
    frontAndBack
    {
        type            empty;
        value           nonuniform 0();
    }
    atmosphere
    {
        type            calculated;
        value           nonuniform List<scalar> 
20
(
4.5712571e-08
9.9455633e-08
1.1806813e-07
1.2273166e-07
1.2369693e-07
1.2388493e-07
1.2392383e-07
1.2393279e-07
1.2393495e-07
1.2393554e-07
1.239357e-07
1.2393547e-07
1.2393365e-07
1.2392506e-07
1.2388667e-07
1.2369932e-07
1.2273453e-07
1.1807132e-07
9.945844e-08
4.5713977e-08
)
;
    }
}


// ************************************************************************* //
