/*--------------------------------*- C++ -*----------------------------------*\
| =========                 |                                                 |
| \\      /  F ield         | OpenFOAM: The Open Source CFD Toolbox           |
|  \\    /   O peration     | Version:  3.0.1                                 |
|   \\  /    A nd           | Web:      www.OpenFOAM.org                      |
|    \\/     M anipulation  |                                                 |
\*---------------------------------------------------------------------------*/
FoamFile
{
    version     2.0;
    format      ascii;
    class       volScalarField;
    location    "7";
    object      thermalDiffusivity;
}
// * * * * * * * * * * * * * * * * * * * * * * * * * * * * * * * * * * * * * //

dimensions      [0 2 -1 0 0 0 0];

internalField   nonuniform List<scalar> 
800
(
9.0075209e-08
9.0075878e-08
9.0076103e-08
9.0076174e-08
9.0076217e-08
9.007625e-08
9.0076273e-08
9.007629e-08
9.00763e-08
9.0076306e-08
9.0076306e-08
9.00763e-08
9.007629e-08
9.0076273e-08
9.0076249e-08
9.0076217e-08
9.0076174e-08
9.0076103e-08
9.0075878e-08
9.0075209e-08
9.5888146e-08
9.5880637e-08
9.5877849e-08
9.5876062e-08
9.587494e-08
9.5874374e-08
9.5873859e-08
9.5873559e-08
9.5873358e-08
9.5873352e-08
9.5873285e-08
9.5873372e-08
9.5873621e-08
9.5873858e-08
9.5874313e-08
9.5874945e-08
9.5876017e-08
9.5877791e-08
9.5880656e-08
9.5888144e-08
9.0734012e-05
8.957693e-05
8.9520951e-05
8.953718e-05
8.955523e-05
8.9569666e-05
8.958027e-05
8.9587617e-05
8.9592234e-05
8.9594469e-05
8.9594468e-05
8.9592229e-05
8.9587607e-05
8.9580257e-05
8.956965e-05
8.9555211e-05
8.9537161e-05
8.9520937e-05
8.9576915e-05
9.0733992e-05
0.0002300301
0.00023003391
0.00023003887
0.0002300431
0.00023004612
0.00023004811
0.00023004936
0.00023005011
0.00023005054
0.00023005073
0.00023005073
0.00023005054
0.00023005011
0.00023004936
0.00023004811
0.00023004612
0.0002300431
0.00023003887
0.00023003391
0.0002300301
0.00022957137
0.00022957557
0.00022958034
0.00022958439
0.00022958736
0.00022958938
0.00022959069
0.00022959149
0.00022959195
0.00022959216
0.00022959216
0.00022959195
0.00022959149
0.00022959069
0.00022958938
0.00022958736
0.00022958439
0.00022958034
0.00022957557
0.00022957137
0.00022919952
0.00022920467
0.00022920985
0.00022921395
0.00022921691
0.00022921892
0.00022922024
0.00022922107
0.00022922154
0.00022922176
0.00022922176
0.00022922154
0.00022922107
0.00022922024
0.00022921892
0.00022921691
0.00022921395
0.00022920985
0.00022920467
0.00022919952
0.00022889706
0.00022890253
0.00022890793
0.00022891205
0.00022891497
0.00022891695
0.00022891827
0.00022891909
0.00022891958
0.0002289198
0.0002289198
0.00022891958
0.00022891909
0.00022891826
0.00022891695
0.00022891497
0.00022891205
0.00022890792
0.00022890253
0.00022889706
0.00022864819
0.00022865338
0.00022865857
0.00022866256
0.00022866537
0.0002286673
0.00022866858
0.0002286694
0.00022866988
0.0002286701
0.0002286701
0.00022866988
0.0002286694
0.00022866858
0.0002286673
0.00022866537
0.00022866255
0.00022865857
0.00022865338
0.00022864819
0.00022844099
0.00022844564
0.0002284504
0.00022845411
0.00022845676
0.00022845859
0.00022845982
0.00022846061
0.00022846108
0.0002284613
0.0002284613
0.00022846108
0.00022846061
0.00022845982
0.00022845859
0.00022845676
0.00022845411
0.0002284504
0.00022844564
0.00022844098
0.00022826701
0.00022827109
0.00022827534
0.00022827869
0.00022828113
0.00022828284
0.00022828399
0.00022828474
0.00022828519
0.0002282854
0.0002282854
0.00022828519
0.00022828474
0.00022828399
0.00022828283
0.00022828113
0.00022827869
0.00022827534
0.00022827109
0.00022826701
0.00022812023
0.00022812375
0.00022812748
0.00022813047
0.00022813267
0.00022813422
0.00022813529
0.00022813599
0.00022813641
0.00022813661
0.00022813661
0.00022813641
0.00022813599
0.00022813529
0.00022813422
0.00022813266
0.00022813047
0.00022812748
0.00022812375
0.00022812023
0.00022799607
0.0002279991
0.00022800234
0.00022800496
0.00022800692
0.00022800831
0.00022800928
0.00022800993
0.00022801031
0.0002280105
0.00022801049
0.00022801031
0.00022800992
0.00022800928
0.00022800831
0.00022800692
0.00022800496
0.00022800234
0.0002279991
0.00022799607
0.00022789093
0.00022789353
0.00022789632
0.0002278986
0.00022790031
0.00022790156
0.00022790242
0.000227903
0.00022790335
0.00022790352
0.00022790352
0.00022790335
0.000227903
0.00022790242
0.00022790155
0.00022790031
0.0002278986
0.00022789632
0.00022789353
0.00022789093
0.00022780183
0.00022780404
0.00022780644
0.00022780841
0.0002278099
0.00022781099
0.00022781176
0.00022781227
0.00022781259
0.00022781273
0.00022781273
0.00022781259
0.00022781227
0.00022781176
0.00022781099
0.0002278099
0.00022780841
0.00022780644
0.00022780404
0.00022780183
0.00022772626
0.00022772815
0.0002277302
0.0002277319
0.00022773319
0.00022773414
0.00022773481
0.00022773526
0.00022773554
0.00022773567
0.00022773567
0.00022773554
0.00022773526
0.00022773481
0.00022773414
0.00022773319
0.0002277319
0.0002277302
0.00022772815
0.00022772626
0.00022766213
0.00022766374
0.00022766549
0.00022766695
0.00022766806
0.00022766888
0.00022766947
0.00022766986
0.0002276701
0.00022767022
0.00022767022
0.0002276701
0.00022766986
0.00022766947
0.00022766888
0.00022766806
0.00022766695
0.00022766549
0.00022766374
0.00022766213
0.00022760768
0.00022760905
0.00022761054
0.00022761179
0.00022761275
0.00022761345
0.00022761396
0.0002276143
0.00022761451
0.00022761461
0.00022761461
0.00022761451
0.0002276143
0.00022761396
0.00022761345
0.00022761275
0.00022761179
0.00022761054
0.00022760905
0.00022760768
0.00022756143
0.00022756259
0.00022756387
0.00022756493
0.00022756575
0.00022756636
0.00022756679
0.00022756709
0.00022756727
0.00022756736
0.00022756736
0.00022756727
0.00022756709
0.00022756679
0.00022756635
0.00022756575
0.00022756493
0.00022756387
0.00022756259
0.00022756143
0.00022752214
0.00022752313
0.00022752422
0.00022752513
0.00022752582
0.00022752634
0.00022752672
0.00022752697
0.00022752713
0.0002275272
0.0002275272
0.00022752713
0.00022752697
0.00022752672
0.00022752634
0.00022752582
0.00022752513
0.00022752422
0.00022752313
0.00022752214
0.0002274888
0.00022748965
0.00022749057
0.00022749134
0.00022749194
0.00022749238
0.0002274927
0.00022749292
0.00022749305
0.00022749312
0.00022749312
0.00022749305
0.00022749292
0.0002274927
0.00022749238
0.00022749194
0.00022749134
0.00022749057
0.00022748965
0.0002274888
0.00022746055
0.00022746127
0.00022746205
0.00022746271
0.00022746321
0.00022746359
0.00022746386
0.00022746405
0.00022746416
0.00022746422
0.00022746422
0.00022746416
0.00022746405
0.00022746386
0.00022746359
0.00022746321
0.00022746271
0.00022746205
0.00022746127
0.00022746055
0.00022743667
0.00022743728
0.00022743794
0.00022743849
0.00022743892
0.00022743924
0.00022743947
0.00022743963
0.00022743973
0.00022743978
0.00022743978
0.00022743973
0.00022743963
0.00022743947
0.00022743924
0.00022743892
0.00022743849
0.00022743794
0.00022743728
0.00022743667
0.00022741654
0.00022741705
0.00022741761
0.00022741808
0.00022741844
0.00022741871
0.00022741891
0.00022741904
0.00022741912
0.00022741916
0.00022741916
0.00022741912
0.00022741904
0.00022741891
0.00022741871
0.00022741844
0.00022741808
0.00022741761
0.00022741705
0.00022741654
0.00022739963
0.00022740006
0.00022740053
0.00022740093
0.00022740123
0.00022740146
0.00022740162
0.00022740174
0.00022740181
0.00022740184
0.00022740184
0.00022740181
0.00022740174
0.00022740162
0.00022740146
0.00022740123
0.00022740093
0.00022740053
0.00022740006
0.00022739963
0.0002273855
0.00022738586
0.00022738625
0.00022738658
0.00022738683
0.00022738703
0.00022738716
0.00022738726
0.00022738732
0.00022738734
0.00022738734
0.00022738732
0.00022738726
0.00022738716
0.00022738703
0.00022738683
0.00022738658
0.00022738625
0.00022738586
0.0002273855
0.00022737373
0.00022737403
0.00022737436
0.00022737464
0.00022737485
0.00022737501
0.00022737512
0.0002273752
0.00022737525
0.00022737527
0.00022737527
0.00022737525
0.0002273752
0.00022737512
0.00022737501
0.00022737485
0.00022737463
0.00022737436
0.00022737403
0.00022737373
0.000227364
0.00022736425
0.00022736452
0.00022736474
0.00022736492
0.00022736505
0.00022736515
0.00022736521
0.00022736525
0.00022736527
0.00022736527
0.00022736525
0.00022736521
0.00022736515
0.00022736505
0.00022736492
0.00022736474
0.00022736452
0.00022736425
0.000227364
0.00022735599
0.00022735619
0.00022735641
0.0002273566
0.00022735674
0.00022735685
0.00022735693
0.00022735699
0.00022735702
0.00022735704
0.00022735704
0.00022735702
0.00022735699
0.00022735693
0.00022735685
0.00022735674
0.0002273566
0.00022735641
0.00022735619
0.00022735599
0.00022734943
0.0002273496
0.00022734978
0.00022734993
0.00022735005
0.00022735014
0.00022735021
0.00022735025
0.00022735028
0.00022735029
0.00022735029
0.00022735028
0.00022735025
0.00022735021
0.00022735014
0.00022735005
0.00022734993
0.00022734978
0.0002273496
0.00022734943
0.0002273441
0.00022734424
0.00022734439
0.00022734451
0.00022734461
0.00022734468
0.00022734473
0.00022734477
0.00022734479
0.0002273448
0.0002273448
0.00022734479
0.00022734477
0.00022734473
0.00022734468
0.00022734461
0.00022734451
0.00022734439
0.00022734424
0.0002273441
0.0002273398
0.00022733991
0.00022734003
0.00022734013
0.00022734021
0.00022734027
0.00022734031
0.00022734034
0.00022734036
0.00022734036
0.00022734036
0.00022734036
0.00022734034
0.00022734031
0.00022734027
0.00022734021
0.00022734013
0.00022734003
0.00022733991
0.0002273398
0.00022733635
0.00022733644
0.00022733653
0.00022733661
0.00022733668
0.00022733672
0.00022733676
0.00022733678
0.0002273368
0.0002273368
0.0002273368
0.0002273368
0.00022733678
0.00022733676
0.00022733672
0.00022733668
0.00022733661
0.00022733653
0.00022733644
0.00022733635
0.00022733361
0.00022733368
0.00022733375
0.00022733382
0.00022733387
0.00022733391
0.00022733393
0.00022733395
0.00022733396
0.00022733397
0.00022733397
0.00022733396
0.00022733395
0.00022733393
0.00022733391
0.00022733387
0.00022733382
0.00022733375
0.00022733368
0.00022733361
0.00022733145
0.0002273315
0.00022733156
0.00022733161
0.00022733165
0.00022733168
0.00022733171
0.00022733172
0.00022733173
0.00022733173
0.00022733173
0.00022733173
0.00022733172
0.00022733171
0.00022733168
0.00022733165
0.00022733161
0.00022733156
0.0002273315
0.00022733145
0.00022732977
0.00022732981
0.00022732986
0.0002273299
0.00022732993
0.00022732995
0.00022732997
0.00022732998
0.00022732999
0.00022732999
0.00022732999
0.00022732999
0.00022732998
0.00022732997
0.00022732995
0.00022732993
0.0002273299
0.00022732986
0.00022732981
0.00022732977
0.00022732848
0.00022732852
0.00022732855
0.00022732858
0.00022732861
0.00022732863
0.00022732864
0.00022732865
0.00022732866
0.00022732866
0.00022732866
0.00022732866
0.00022732865
0.00022732864
0.00022732863
0.00022732861
0.00022732858
0.00022732855
0.00022732852
0.00022732848
0.00022732753
0.00022732755
0.00022732758
0.00022732761
0.00022732762
0.00022732764
0.00022732765
0.00022732766
0.00022732766
0.00022732766
0.00022732766
0.00022732766
0.00022732766
0.00022732765
0.00022732764
0.00022732762
0.00022732761
0.00022732758
0.00022732755
0.00022732753
0.00022732685
0.00022732687
0.00022732689
0.00022732691
0.00022732692
0.00022732694
0.00022732694
0.00022732695
0.00022732695
0.00022732695
0.00022732695
0.00022732695
0.00022732695
0.00022732694
0.00022732694
0.00022732692
0.00022732691
0.00022732689
0.00022732687
0.00022732685
0.00022732642
0.00022732643
0.00022732645
0.00022732646
0.00022732647
0.00022732648
0.00022732649
0.00022732649
0.0002273265
0.0002273265
0.0002273265
0.0002273265
0.00022732649
0.00022732649
0.00022732648
0.00022732647
0.00022732646
0.00022732645
0.00022732643
0.00022732642
0.0002273262
0.00022732621
0.00022732623
0.00022732624
0.00022732625
0.00022732626
0.00022732626
0.00022732627
0.00022732627
0.00022732627
0.00022732627
0.00022732627
0.00022732627
0.00022732626
0.00022732626
0.00022732625
0.00022732624
0.00022732623
0.00022732621
0.0002273262
)
;

boundaryField
{
    Wall
    {
        type            calculated;
        value           uniform 4e-05;
    }
    frontAndBack
    {
        type            empty;
    }
    atmosphere
    {
        type            calculated;
        value           uniform 4e-05;
    }
}


// ************************************************************************* //
