/*--------------------------------*- C++ -*----------------------------------*\
| =========                 |                                                 |
| \\      /  F ield         | OpenFOAM: The Open Source CFD Toolbox           |
|  \\    /   O peration     | Version:  3.0.1                                 |
|   \\  /    A nd           | Web:      www.OpenFOAM.org                      |
|    \\/     M anipulation  |                                                 |
\*---------------------------------------------------------------------------*/
FoamFile
{
    version     2.0;
    format      ascii;
    class       volScalarField;
    location    "7";
    object      TS;
}
// * * * * * * * * * * * * * * * * * * * * * * * * * * * * * * * * * * * * * //

dimensions      [0 0 0 1 0 0 0];

internalField   nonuniform List<scalar> 
800
(
308.21469
308.21468
308.21466
308.21466
308.21466
308.21465
308.21465
308.21465
308.21465
308.21465
308.21465
308.21465
308.21465
308.21465
308.21465
308.21466
308.21466
308.21466
308.21468
308.21469
301.02489
301.0592
301.06473
301.06738
301.06882
301.06967
301.07019
301.07051
301.0707
301.07078
301.07078
301.0707
301.07051
301.07019
301.06967
301.06882
301.06737
301.06473
301.0592
301.02489
300.36336
300.36794
300.37214
300.37513
300.37707
300.37827
300.379
300.37943
300.37968
300.37979
300.37979
300.37968
300.37943
300.379
300.37827
300.37707
300.37513
300.37214
300.36794
300.36336
299.83048
299.83275
299.83583
299.83855
299.84056
299.84191
299.84278
299.84332
299.84362
299.84376
299.84376
299.84362
299.84332
299.84278
299.84191
299.84056
299.83855
299.83583
299.83275
299.83048
299.52101
299.5237
299.52679
299.52945
299.53145
299.53284
299.53375
299.53432
299.53465
299.5348
299.5348
299.53465
299.53432
299.53375
299.53284
299.53145
299.52945
299.52679
299.5237
299.52101
299.26875
299.27218
299.27564
299.27841
299.28042
299.28182
299.28274
299.28332
299.28366
299.28381
299.28381
299.28366
299.28332
299.28274
299.28181
299.28042
299.2784
299.27564
299.27218
299.26875
299.06318
299.06689
299.07055
299.07337
299.07538
299.07676
299.07768
299.07826
299.07861
299.07876
299.07876
299.07861
299.07826
299.07768
299.07676
299.07538
299.07337
299.07055
299.06689
299.06318
298.8942
298.89772
298.90128
298.90402
298.90597
298.90731
298.9082
298.90878
298.90912
298.90928
298.90928
298.90912
298.90878
298.9082
298.90731
298.90597
298.90402
298.90128
298.89772
298.8942
298.75379
298.75696
298.76023
298.76278
298.76462
298.76589
298.76675
298.7673
298.76763
298.76779
298.76779
298.76763
298.7673
298.76675
298.76589
298.76462
298.76278
298.76023
298.75696
298.75379
298.63615
298.63893
298.64184
298.64416
298.64584
298.64703
298.64783
298.64836
298.64867
298.64882
298.64882
298.64867
298.64836
298.64783
298.64702
298.64584
298.64416
298.64184
298.63893
298.63615
298.53705
298.53945
298.542
298.54406
298.54558
298.54666
298.5474
298.54789
298.54819
298.54832
298.54832
298.54819
298.54789
298.5474
298.54666
298.54558
298.54406
298.542
298.53945
298.53705
298.4533
298.45536
298.45758
298.45938
298.46073
298.4617
298.46238
298.46282
298.46309
298.46322
298.46322
298.46309
298.46282
298.46238
298.4617
298.46073
298.45938
298.45758
298.45536
298.4533
298.3824
298.38417
298.38608
298.38765
298.38883
298.38969
298.3903
298.3907
298.39094
298.39106
298.39106
298.39094
298.3907
298.3903
298.38969
298.38883
298.38765
298.38608
298.38417
298.3824
298.32233
298.32384
298.32548
298.32683
298.32787
298.32862
298.32915
298.32951
298.32973
298.32983
298.32983
298.32973
298.32951
298.32915
298.32862
298.32787
298.32683
298.32548
298.32384
298.32233
298.27139
298.27267
298.27408
298.27524
298.27614
298.27679
298.27726
298.27758
298.27777
298.27786
298.27786
298.27777
298.27758
298.27726
298.27679
298.27614
298.27524
298.27408
298.27267
298.27138
298.22816
298.22925
298.23045
298.23146
298.23223
298.23279
298.2332
298.23347
298.23364
298.23373
298.23373
298.23364
298.23347
298.2332
298.23279
298.23222
298.23146
298.23045
298.22925
298.22816
298.19146
298.19239
298.19341
298.19427
298.19493
298.19542
298.19577
298.19601
298.19616
298.19623
298.19623
298.19616
298.19601
298.19577
298.19542
298.19493
298.19427
298.19341
298.19239
298.19146
298.16029
298.16108
298.16196
298.16269
298.16325
298.16367
298.16398
298.16418
298.16431
298.16437
298.16437
298.16431
298.16418
298.16398
298.16367
298.16325
298.16269
298.16196
298.16108
298.16029
298.13382
298.1345
298.13524
298.13586
298.13635
298.13671
298.13697
298.13714
298.13725
298.13731
298.13731
298.13725
298.13714
298.13697
298.13671
298.13635
298.13586
298.13524
298.1345
298.13382
298.11136
298.11194
298.11257
298.1131
298.11351
298.11382
298.11404
298.11419
298.11429
298.11433
298.11433
298.11429
298.11419
298.11404
298.11382
298.11351
298.1131
298.11257
298.11194
298.11136
298.09233
298.09282
298.09335
298.09381
298.09416
298.09442
298.09461
298.09474
298.09482
298.09486
298.09486
298.09482
298.09474
298.09461
298.09442
298.09416
298.09381
298.09335
298.09282
298.09233
298.07624
298.07665
298.07711
298.07749
298.07779
298.07801
298.07817
298.07828
298.07835
298.07838
298.07838
298.07835
298.07828
298.07817
298.07801
298.07779
298.07749
298.07711
298.07665
298.07624
298.06267
298.06302
298.0634
298.06373
298.06398
298.06417
298.0643
298.06439
298.06445
298.06448
298.06448
298.06445
298.06439
298.0643
298.06417
298.06398
298.06373
298.0634
298.06302
298.06267
298.05128
298.05157
298.05189
298.05216
298.05237
298.05253
298.05264
298.05272
298.05277
298.0528
298.0528
298.05277
298.05272
298.05264
298.05253
298.05237
298.05216
298.05189
298.05157
298.05128
298.04174
298.04198
298.04225
298.04248
298.04266
298.04279
298.04289
298.04295
298.04299
298.04301
298.04301
298.04299
298.04295
298.04289
298.04279
298.04266
298.04248
298.04225
298.04198
298.04174
298.0338
298.034
298.03423
298.03442
298.03456
298.03468
298.03476
298.03481
298.03484
298.03486
298.03486
298.03484
298.03481
298.03476
298.03468
298.03456
298.03442
298.03423
298.034
298.0338
298.02722
298.02739
298.02758
298.02773
298.02786
298.02795
298.02801
298.02806
298.02809
298.0281
298.0281
298.02809
298.02806
298.02801
298.02795
298.02786
298.02773
298.02758
298.02739
298.02722
298.0218
298.02194
298.02209
298.02222
298.02233
298.0224
298.02246
298.02249
298.02252
298.02253
298.02253
298.02252
298.02249
298.02246
298.0224
298.02232
298.02222
298.02209
298.02194
298.0218
298.01736
298.01748
298.0176
298.01771
298.01779
298.01785
298.0179
298.01793
298.01795
298.01796
298.01796
298.01795
298.01793
298.0179
298.01785
298.01779
298.01771
298.0176
298.01748
298.01736
298.01375
298.01384
298.01395
298.01403
298.0141
298.01415
298.01419
298.01421
298.01423
298.01424
298.01424
298.01423
298.01421
298.01419
298.01415
298.0141
298.01403
298.01395
298.01384
298.01375
298.01083
298.01091
298.01099
298.01106
298.01111
298.01116
298.01119
298.01121
298.01122
298.01122
298.01122
298.01122
298.01121
298.01119
298.01116
298.01111
298.01106
298.01099
298.01091
298.01083
298.00849
298.00855
298.00862
298.00867
298.00872
298.00875
298.00877
298.00879
298.0088
298.0088
298.0088
298.0088
298.00879
298.00877
298.00875
298.00872
298.00867
298.00862
298.00855
298.00849
298.00662
298.00667
298.00672
298.00677
298.0068
298.00683
298.00685
298.00686
298.00687
298.00687
298.00687
298.00687
298.00686
298.00685
298.00683
298.0068
298.00677
298.00672
298.00667
298.00662
298.00515
298.00519
298.00523
298.00527
298.00529
298.00532
298.00533
298.00534
298.00535
298.00535
298.00535
298.00535
298.00534
298.00533
298.00532
298.00529
298.00527
298.00523
298.00519
298.00515
298.00401
298.00404
298.00407
298.0041
298.00412
298.00413
298.00415
298.00415
298.00416
298.00416
298.00416
298.00416
298.00415
298.00415
298.00413
298.00412
298.0041
298.00407
298.00404
298.00401
298.00313
298.00315
298.00318
298.0032
298.00322
298.00323
298.00324
298.00324
298.00325
298.00325
298.00325
298.00325
298.00324
298.00324
298.00323
298.00322
298.0032
298.00318
298.00315
298.00313
298.00247
298.00249
298.00251
298.00253
298.00254
298.00255
298.00256
298.00256
298.00257
298.00257
298.00257
298.00257
298.00256
298.00256
298.00255
298.00254
298.00253
298.00251
298.00249
298.00247
298.00201
298.00202
298.00204
298.00205
298.00206
298.00207
298.00208
298.00208
298.00208
298.00208
298.00208
298.00208
298.00208
298.00208
298.00207
298.00206
298.00205
298.00204
298.00202
298.00201
298.00171
298.00172
298.00173
298.00174
298.00175
298.00176
298.00176
298.00177
298.00177
298.00177
298.00177
298.00177
298.00177
298.00176
298.00176
298.00175
298.00174
298.00173
298.00172
298.00171
298.00157
298.00157
298.00158
298.00159
298.0016
298.0016
298.00161
298.00161
298.00161
298.00162
298.00162
298.00161
298.00161
298.00161
298.0016
298.0016
298.00159
298.00158
298.00157
298.00157
)
;

boundaryField
{
    Wall
    {
        type            zeroGradient;
    }
    frontAndBack
    {
        type            empty;
    }
    atmosphere
    {
        type            zeroGradient;
    }
}


// ************************************************************************* //
