/*--------------------------------*- C++ -*----------------------------------*\
| =========                 |                                                 |
| \\      /  F ield         | OpenFOAM: The Open Source CFD Toolbox           |
|  \\    /   O peration     | Version:  3.0.1                                 |
|   \\  /    A nd           | Web:      www.OpenFOAM.org                      |
|    \\/     M anipulation  |                                                 |
\*---------------------------------------------------------------------------*/
FoamFile
{
    version     2.0;
    format      ascii;
    class       volVectorField;
    location    "7";
    object      U;
}
// * * * * * * * * * * * * * * * * * * * * * * * * * * * * * * * * * * * * * //

dimensions      [0 1 -1 0 0 0 0];

internalField   nonuniform List<vector> 
800
(
(-6.2471316e-07 0.001019804 0)
(-7.7729668e-07 0.0010236284 0)
(-3.4972721e-07 0.0010252997 0)
(-1.0882244e-07 0.0010264471 0)
(-1.3568025e-08 0.0010272272 0)
(1.7391286e-08 0.0010277642 0)
(2.2657081e-08 0.0010281345 0)
(1.8675433e-08 0.0010283837 0)
(1.1737196e-08 0.0010285382 0)
(4.0067984e-09 0.0010286123 0)
(-3.8659218e-09 0.0010286122 0)
(-1.1600894e-08 0.001028538 0)
(-1.8548703e-08 0.0010283833 0)
(-2.2540357e-08 0.001028134 0)
(-1.7286501e-08 0.0010277636 0)
(1.3663223e-08 0.0010272265 0)
(1.0891175e-07 0.0010264462 0)
(3.4980105e-07 0.0010252989 0)
(7.7733838e-07 0.0010236275 0)
(6.2472693e-07 0.0010198031 0)
(4.8260919e-07 0.0012499705 0)
(1.2505561e-06 0.0012537241 0)
(1.4526558e-06 0.0012547606 0)
(1.2042898e-06 0.001255325 0)
(9.0076818e-07 0.0012554892 0)
(6.542051e-07 0.0012555676 0)
(4.6033157e-07 0.0012556145 0)
(3.0496735e-07 0.0012556433 0)
(1.7415238e-07 0.0012556603 0)
(5.6643766e-08 0.0012556683 0)
(-5.6715954e-08 0.0012556683 0)
(-1.7421873e-07 0.0012556603 0)
(-3.0502959e-07 0.0012556433 0)
(-4.6038263e-07 0.0012556144 0)
(-6.5424135e-07 0.0012555676 0)
(-9.0079023e-07 0.0012554892 0)
(-1.2042707e-06 0.0012553246 0)
(-1.4526446e-06 0.0012547602 0)
(-1.2505583e-06 0.0012537236 0)
(-4.8259368e-07 0.00124997 0)
(1.1493265e-06 0.0015818508 0)
(2.0915504e-06 0.0015845655 0)
(1.6410818e-06 0.0015835174 0)
(9.5460484e-07 0.0015825601 0)
(4.1310108e-07 0.0015818422 0)
(2.7442313e-07 0.0015813142 0)
(1.9301943e-07 0.0015809362 0)
(1.2806207e-07 0.0015806763 0)
(7.3287854e-08 0.0015805134 0)
(2.3971556e-08 0.0015804348 0)
(-2.3650829e-08 0.0015804349 0)
(-7.2979513e-08 0.0015805136 0)
(-1.2778046e-07 0.0015806767 0)
(-1.927635e-07 0.0015809368 0)
(-2.7419583e-07 0.0015813149 0)
(-4.1335608e-07 0.001581843 0)
(-9.5488942e-07 0.0015825611 0)
(-1.6409582e-06 0.0015835183 0)
(-2.0915305e-06 0.0015845665 0)
(-1.1493523e-06 0.0015818518 0)
(2.8406939e-07 0.0015397121 0)
(7.1790039e-07 0.0015672091 0)
(7.9867652e-07 0.0015630426 0)
(6.6608662e-07 0.0015591828 0)
(4.9311801e-07 0.0015583504 0)
(3.5919693e-07 0.001557935 0)
(2.5754616e-07 0.0015576397 0)
(1.7346451e-07 0.0015574379 0)
(1.005397e-07 0.0015573118 0)
(3.3622253e-08 0.0015572511 0)
(-3.1449183e-08 0.0015572512 0)
(-9.8462497e-08 0.0015573119 0)
(-1.7156153e-07 0.001557438 0)
(-2.5583931e-07 0.0015576399 0)
(-3.5768257e-07 0.0015579352 0)
(-4.9173358e-07 0.0015583506 0)
(-6.648094e-07 0.0015591865 0)
(-7.9760946e-07 0.0015630466 0)
(-7.1716808e-07 0.0015672132 0)
(-2.837967e-07 0.0015397171 0)
(1.9364565e-06 0.0011455811 0)
(4.2995802e-06 0.0016623923 0)
(4.9218636e-06 0.0017663096 0)
(4.4864171e-06 0.0017843764 0)
(3.6941888e-06 0.0017866579 0)
(2.8782736e-06 0.0017865827 0)
(2.1347337e-06 0.0017862801 0)
(1.4703254e-06 0.0017860458 0)
(8.6501311e-07 0.0017858994 0)
(2.9416157e-07 0.00178583 0)
(-2.659795e-07 0.0017858297 0)
(-8.3799314e-07 0.0017858986 0)
(-1.4453904e-06 0.0017860445 0)
(-2.1123573e-06 0.0017862784 0)
(-2.8585292e-06 0.0017865805 0)
(-3.6769703e-06 0.0017866549 0)
(-4.4717747e-06 0.0017843721 0)
(-4.9103147e-06 0.0017663039 0)
(-4.2919848e-06 0.0016623857 0)
(-1.9335689e-06 0.0011455757 0)
(3.5828858e-06 0.00093798255 0)
(8.6290412e-06 0.0018551553 0)
(1.0383282e-05 0.0021267667 0)
(9.9015627e-06 0.0021863713 0)
(8.4466823e-06 0.0021962556 0)
(6.7458691e-06 0.0021970086 0)
(5.0871398e-06 0.0021965119 0)
(3.5416903e-06 0.0021960303 0)
(2.0973692e-06 0.002195717 0)
(7.1644929e-07 0.0021955667 0)
(-6.4450341e-07 0.0021955657 0)
(-2.0283145e-06 0.002195714 0)
(-3.4778558e-06 0.0021960255 0)
(-5.0299042e-06 0.0021965056 0)
(-6.6957298e-06 0.0021970005 0)
(-8.4037818e-06 0.0021962452 0)
(-9.8663744e-06 0.0021863576 0)
(-1.0357004e-05 0.0021267495 0)
(-8.61304e-06 0.0018551366 0)
(-3.5775379e-06 0.00093797022 0)
(3.3576063e-06 0.00091961035 0)
(8.7294177e-06 0.0019536127 0)
(1.1026344e-05 0.0022915067 0)
(1.091976e-05 0.0023704015 0)
(9.6011071e-06 0.0023842026 0)
(7.8479195e-06 0.0023854133 0)
(6.0192364e-06 0.0023847719 0)
(4.2396974e-06 0.0023841018 0)
(2.5295135e-06 0.0023836542 0)
(8.6866246e-07 0.0023834366 0)
(-7.7645596e-07 0.0023834348 0)
(-2.440898e-06 0.002383649 0)
(-4.1576525e-06 0.0023840938 0)
(-5.9457689e-06 0.0023847615 0)
(-7.7841107e-06 0.0023854004 0)
(-9.5476667e-06 0.0023841866 0)
(-1.0877689e-05 0.0023703814 0)
(-1.0997037e-05 0.0022914822 0)
(-8.7134914e-06 0.0019535869 0)
(-3.3531481e-06 0.00091959518 0)
(2.5157021e-06 0.00091885492 0)
(6.9739555e-06 0.0019864754 0)
(9.2589141e-06 0.0023482928 0)
(9.5557274e-06 0.0024353498 0)
(8.6956368e-06 0.0024511424 0)
(7.3050224e-06 0.0024527102 0)
(5.7192973e-06 0.0024520541 0)
(4.0873654e-06 0.0024513023 0)
(2.4620076e-06 0.0024507839 0)
(8.5166148e-07 0.0024505277 0)
(-7.5370807e-07 0.0024505252 0)
(-2.3676114e-06 0.0024507767 0)
(-3.9996164e-06 0.0024512912 0)
(-5.6406143e-06 0.0024520399 0)
(-7.2371646e-06 0.0024526935 0)
(-8.6400876e-06 0.002451123 0)
(-9.5140879e-06 0.0024353269 0)
(-9.2324763e-06 0.0023482663 0)
(-6.9618797e-06 0.0019864489 0)
(-2.5132148e-06 0.00091884101 0)
(1.7193374e-06 0.00091784985 0)
(4.9910406e-06 0.0019933461 0)
(6.9370597e-06 0.0023626377 0)
(7.4641714e-06 0.00245287 0)
(7.0421893e-06 0.0024697359 0)
(6.0927633e-06 0.0024716578 0)
(4.8790256e-06 0.0024711108 0)
(3.5438883e-06 0.0024703808 0)
(2.1580585e-06 0.0024698567 0)
(7.5330366e-07 0.0024695928 0)
(-6.5730965e-07 0.0024695896 0)
(-2.0650888e-06 0.0024698475 0)
(-3.4567415e-06 0.0024703667 0)
(-4.8002828e-06 0.0024710933 0)
(-6.0247901e-06 0.0024716381 0)
(-6.9872715e-06 0.0024697147 0)
(-7.4245281e-06 0.0024528473 0)
(-6.913867e-06 0.0023626139 0)
(-4.9821619e-06 0.0019933245 0)
(-1.7180949e-06 0.00091783991 0)
(1.141518e-06 0.00091683294 0)
(3.4127528e-06 0.0019933769 0)
(4.9301615e-06 0.0023646823 0)
(5.5130569e-06 0.002456171 0)
(5.3842409e-06 0.0024737026 0)
(4.7939972e-06 0.0024759755 0)
(3.9257896e-06 0.0024756107 0)
(2.8985176e-06 0.0024749712 0)
(1.785053e-06 0.0024744889 0)
(6.2953699e-07 0.0024742407 0)
(-5.3934325e-07 0.0024742368 0)
(-1.6970106e-06 0.0024744778 0)
(-2.8148286e-06 0.0024749543 0)
(-3.8489201e-06 0.00247559 0)
(-4.7266981e-06 0.0024759529 0)
(-5.3294564e-06 0.0024736798 0)
(-5.473582e-06 0.0024561492 0)
(-4.9072899e-06 0.0023646627 0)
(-3.4039297e-06 0.0019933619 0)
(-1.1399785e-06 0.00091682715 0)
(7.5965444e-07 0.00091614204 0)
(2.3104716e-06 0.0019924367 0)
(3.4402593e-06 0.0023642534 0)
(3.9752264e-06 0.0024563319 0)
(4.0021104e-06 0.0024743305 0)
(3.6563034e-06 0.0024769247 0)
(3.0558454e-06 0.0024767642 0)
(2.290743e-06 0.0024762469 0)
(1.4260017e-06 0.002475832 0)
(5.0842425e-07 0.0024756132 0)
(-4.2606341e-07 0.0024756088 0)
(-1.3447271e-06 0.0024758193 0)
(-2.2119566e-06 0.0024762275 0)
(-2.9816502e-06 0.0024767404 0)
(-3.5895502e-06 0.002476899 0)
(-3.9461592e-06 0.0024743053 0)
(-3.9333663e-06 0.0024563095 0)
(-3.4142256e-06 0.0023642358 0)
(-2.2983938e-06 0.0019924256 0)
(-7.5643065e-07 0.00091613819 0)
(5.131842e-07 0.00091570761 0)
(1.5754695e-06 0.001991678 0)
(2.3987397e-06 0.0023636471 0)
(2.844917e-06 0.0024560669 0)
(2.9365332e-06 0.0024744088 0)
(2.7414573e-06 0.0024772756 0)
(2.3316548e-06 0.0024773085 0)
(1.7712337e-06 0.0024769186 0)
(1.1133437e-06 0.0024765796 0)
(4.0135486e-07 0.0024763959 0)
(-3.2794873e-07 0.0024763911 0)
(-1.0399278e-06 0.0024765659 0)
(-1.6983459e-06 0.0024768976 0)
(-2.2608814e-06 0.0024772823 0)
(-2.6754931e-06 0.0024772468 0)
(-2.8789032e-06 0.0024743801 0)
(-2.7993049e-06 0.0024560413 0)
(-2.3675785e-06 0.0023636274 0)
(-1.5583858e-06 0.0019916659 0)
(-5.0768912e-07 0.00091570247 0)
(3.52862e-07 0.00091542714 0)
(1.0883942e-06 0.0019911606 0)
(1.683277e-06 0.0023631931 0)
(2.0359102e-06 0.0024558346 0)
(2.1427834e-06 0.0024744287 0)
(2.0353927e-06 0.0024775143 0)
(1.7561134e-06 0.0024777145 0)
(1.3489534e-06 0.0024774419 0)
(8.5509286e-07 0.0024771763 0)
(3.1164858e-07 0.0024770279 0)
(-2.4757738e-07 0.0024770232 0)
(-7.9005878e-07 0.0024771627 0)
(-1.2827174e-06 0.0024774205 0)
(-1.6897081e-06 0.0024776873 0)
(-1.9712085e-06 0.0024774834 0)
(-2.0843278e-06 0.0024743967 0)
(-1.9871445e-06 0.0024558043 0)
(-1.6474049e-06 0.0023631679 0)
(-1.0667689e-06 0.001991143 0)
(-3.4548033e-07 0.00091541824 0)
(2.464598e-07 0.0009152367 0)
(7.6182759e-07 0.0019908038 0)
(1.1907312e-06 0.0023628683 0)
(1.4607415e-06 0.002455659 0)
(1.5600973e-06 0.0024744365 0)
(1.5019408e-06 0.002477691 0)
(1.3107099e-06 0.002478028 0)
(1.0160204e-06 0.0024778559 0)
(6.487488e-07 0.0024776558 0)
(2.3909428e-07 0.0024775397 0)
(-1.8392173e-07 0.0024775355 0)
(-5.9194612e-07 0.0024776435 0)
(-9.5677749e-07 0.0024778362 0)
(-1.2495933e-06 0.002478002 0)
(-1.4410211e-06 0.0024776603 0)
(-1.5027674e-06 0.0024744028 0)
(-1.4111113e-06 0.0024556249 0)
(-1.152634e-06 0.002362837 0)
(-7.3796938e-07 0.001990779 0)
(-2.3830603e-07 0.0009152234 0)
(1.741655e-07 0.00091509934 0)
(5.3886725e-07 0.0019905434 0)
(8.48173e-07 0.0023626234 0)
(1.0509946e-06 0.0024555153 0)
(1.1346728e-06 0.0024744246 0)
(1.1036189e-06 0.0024778067 0)
(9.717793e-07 0.0024782515 0)
(7.5892279e-07 0.0024781617 0)
(4.8775194e-07 0.0024780168 0)
(1.8202307e-07 0.0024779286 0)
(-1.3447979e-07 0.0024779252 0)
(-4.382656e-07 0.0024780067 0)
(-7.0638561e-07 0.0024781452 0)
(-9.1646403e-07 0.002478229 0)
(-1.0473585e-06 0.0024777789 0)
(-1.0807301e-06 0.0024743924 0)
(-1.0035144e-06 0.0024554803 0)
(-8.1132881e-07 0.0023625883 0)
(-5.1593849e-07 0.0019905131 0)
(-1.6662636e-07 0.00091508295 0)
(1.2390591e-07 0.00091499329 0)
(3.8368166e-07 0.0019903396 0)
(6.0688973e-07 0.0023624242 0)
(7.574722e-07 0.0024553848 0)
(8.2439969e-07 0.0024743883 0)
(8.081946e-07 0.0024778654 0)
(7.1677606e-07 0.0024783931 0)
(5.6334024e-07 0.0024783684 0)
(3.6439592e-07 0.0024782682 0)
(1.3819731e-07 0.0024782031 0)
(-9.6411134e-08 0.0024782008 0)
(-3.2068051e-07 0.0024782611 0)
(-5.1655557e-07 0.0024783564 0)
(-6.6709877e-07 0.0024783759 0)
(-7.5735372e-07 0.002477843 0)
(-7.7557881e-07 0.0024743607 0)
(-7.1477683e-07 0.0024553527 0)
(-5.7449592e-07 0.0023623896 0)
(-3.6455459e-07 0.0019903078 0)
(-1.1815254e-07 0.00091497631 0)
(8.8253512e-08 0.00091490655 0)
(2.7374075e-07 0.0019901699 0)
(4.3481015e-07 0.0023622516 0)
(5.4582149e-07 0.0024552587 0)
(5.9787392e-07 0.0024743296 0)
(5.899025e-07 0.0024778766 0)
(5.2637393e-07 0.0024784671 0)
(4.1615062e-07 0.0024784928 0)
(2.7117345e-07 0.0024784277 0)
(1.0522676e-07 0.002478381 0)
(-6.713987e-08 0.0024783796 0)
(-2.3139596e-07 0.0024784234 0)
(-3.737069e-07 0.0024784852 0)
(-4.815116e-07 0.0024784556 0)
(-5.4438089e-07 0.0024778606 0)
(-5.5487462e-07 0.0024743085 0)
(-5.0937396e-07 0.0024552324 0)
(-4.0880297e-07 0.0023622215 0)
(-2.6011497e-07 0.0019901408 0)
(-8.4892106e-08 0.00091489141 0)
(6.2572605e-08 0.00091483367 0)
(1.947349e-07 0.0019900242 0)
(3.1077841e-07 0.0023620983 0)
(3.9225843e-07 0.0024551367 0)
(4.3215278e-07 0.0024742558 0)
(4.2884992e-07 0.0024778542 0)
(3.8484505e-07 0.0024784915 0)
(3.061425e-07 0.0024785555 0)
(2.0135975e-07 0.0024785173 0)
(8.0764412e-08 0.0024784847 0)
(-4.4647229e-08 0.002478484 0)
(-1.6388618e-07 0.002478515 0)
(-2.6659671e-07 0.0024785511 0)
(-3.4364449e-07 0.0024784844 0)
(-3.8786254e-07 0.0024778435 0)
(-3.946041e-07 0.0024742409 0)
(-3.6209535e-07 0.0024551171 0)
(-2.9143416e-07 0.0023620745 0)
(-1.8678447e-07 0.0019900004 0)
(-6.1539033e-08 0.00091482171 0)
(4.3904015e-08 0.00091477326 0)
(1.3741418e-07 0.0019899005 0)
(2.20683e-07 0.0023619647 0)
(2.8027186e-07 0.0024550243 0)
(3.1061573e-07 0.002474178 0)
(3.1000069e-07 0.0024778138 0)
(2.798063e-07 0.0024784859 0)
(2.2414401e-07 0.0024785784 0)
(1.4922554e-07 0.0024785604 0)
(6.2612412e-08 0.0024785383 0)
(-2.7541637e-08 0.0024785377 0)
(-1.1311101e-07 0.0024785586 0)
(-1.8651589e-07 0.002478575 0)
(-2.4125697e-07 0.0024784804 0)
(-2.7250898e-07 0.0024778056 0)
(-2.7745241e-07 0.0024741664 0)
(-2.5530398e-07 0.002455009 0)
(-2.0685289e-07 0.002361946 0)
(-1.3399875e-07 0.0019898817 0)
(-4.4594938e-08 0.00091476423 0)
(3.0305893e-08 0.00091472567 0)
(9.5666589e-08 0.0019898007 0)
(1.5497364e-07 0.0023618546 0)
(1.9832633e-07 0.0024549286 0)
(2.2125501e-07 0.0024741073 0)
(2.2213563e-07 0.0024777706 0)
(2.0172464e-07 0.0024784682 0)
(1.628745e-07 0.0024785817 0)
(1.1006011e-07 0.0024785784 0)
(4.8791476e-08 0.0024785638 0)
(-1.4989113e-08 0.0024785628 0)
(-7.5407519e-08 0.0024785755 0)
(-1.2704511e-07 0.0024785766 0)
(-1.6540772e-07 0.0024784607 0)
(-1.8736548e-07 0.0024777606 0)
(-1.9130044e-07 0.0024740947 0)
(-1.7695254e-07 0.0024549134 0)
(-1.4470799e-07 0.0023618372 0)
(-9.4890821e-08 0.0019897838 0)
(-3.183886e-08 0.00091471792 0)
(2.045613e-08 0.0009146913 0)
(6.5329718e-08 0.0019897265 0)
(1.0704805e-07 0.0023617717 0)
(1.3827422e-07 0.0024548559 0)
(1.5539515e-07 0.0024740527 0)
(1.5697186e-07 0.002477736 0)
(1.4341695e-07 0.0024784523 0)
(1.1673625e-07 0.0024785812 0)
(8.0153845e-08 0.0024785886 0)
(3.7651203e-08 0.002478579 0)
(-6.5023218e-09 0.0024785771 0)
(-4.8164831e-08 0.002478583 0)
(-8.3580735e-08 0.0024785719 0)
(-1.0976404e-07 0.0024784396 0)
(-1.248084e-07 0.0024777201 0)
(-1.2789351e-07 0.0024740341 0)
(-1.1904241e-07 0.0024548354 0)
(-9.8340315e-08 0.0023617504 0)
(-6.5217368e-08 0.0019897072 0)
(-2.1962795e-08 0.00091468241 0)
(1.3398632e-08 0.00091466954 0)
(4.3439547e-08 0.0019896778 0)
(7.2208885e-08 0.0023617169 0)
(9.4278773e-08 0.0024548085 0)
(1.0675584e-07 0.0024740185 0)
(1.0844075e-07 0.0024777165 0)
(9.9561503e-08 0.0024784465 0)
(8.1550499e-08 0.0024785866 0)
(5.67364e-08 0.0024786017 0)
(2.7977313e-08 0.0024785955 0)
(-1.7020461e-09 0.0024785925 0)
(-2.9461073e-08 0.0024785926 0)
(-5.2804152e-08 0.0024785717 0)
(-6.9861505e-08 0.0024784263 0)
(-7.9591197e-08 0.0024776917 0)
(-8.1706749e-08 0.0024739903 0)
(-7.6402497e-08 0.0024547782 0)
(-6.3631953e-08 0.0023616867 0)
(-4.2505704e-08 0.0019896515 0)
(-1.4255523e-08 0.00091465718 0)
(8.4109136e-09 0.00091465849 0)
(2.7806688e-08 0.0019896515 0)
(4.702976e-08 0.0023616874 0)
(6.2105129e-08 0.0024547846 0)
(7.0784139e-08 0.0024740045 0)
(7.2129781e-08 0.0024777133 0)
(6.6291929e-08 0.0024784534 0)
(5.4316949e-08 0.0024786018 0)
(3.7884778e-08 0.0024786225 0)
(1.9028025e-08 0.0024786186 0)
(-1.4809865e-10 0.0024786143 0)
(-1.7752638e-08 0.0024786097 0)
(-3.2209107e-08 0.0024785809 0)
(-4.2447997e-08 0.0024784251 0)
(-4.8023741e-08 0.0024776786 0)
(-4.9006107e-08 0.002473965 0)
(-4.5710583e-08 0.0024547423 0)
(-3.8111439e-08 0.0023616453 0)
(-2.5400404e-08 0.0019896153 0)
(-8.3655678e-09 0.00091464109 0)
(4.9418648e-09 0.00091465523 0)
(1.6773555e-08 0.0019896423 0)
(2.8955825e-08 0.0023616774 0)
(3.8642959e-08 0.0024547791 0)
(4.4172782e-08 0.0024740063 0)
(4.4871382e-08 0.0024777231 0)
(4.0879529e-08 0.0024784708 0)
(3.2975595e-08 0.0024786253 0)
(2.2364419e-08 0.0024786502 0)
(1.0474281e-08 0.0024786481 0)
(-1.2691144e-09 0.0024786428 0)
(-1.165116e-08 0.0024786345 0)
(-1.9732263e-08 0.0024785996 0)
(-2.4983779e-08 0.0024784356 0)
(-2.7348715e-08 0.0024776796 0)
(-2.7125602e-08 0.0024739562 0)
(-2.4727029e-08 0.0024547248 0)
(-2.0235247e-08 0.0023616228 0)
(-1.3140438e-08 0.0019895951 0)
(-4.1184042e-09 0.00091463241 0)
(2.5482894e-09 0.00091465644 0)
(9.0354982e-09 0.0019896434 0)
(1.6025478e-08 0.0023616792 0)
(2.1564233e-08 0.0024547846 0)
(2.4505186e-08 0.0024740172 0)
(2.4408957e-08 0.00247774 0)
(2.1436705e-08 0.0024784935 0)
(1.6172074e-08 0.0024786529 0)
(9.465941e-09 0.0024786812 0)
(2.3080752e-09 0.0024786806 0)
(-4.3696888e-09 0.0024786748 0)
(-9.8233868e-09 0.0024786638 0)
(-1.3533968e-08 0.0024786243 0)
(-1.5305709e-08 0.0024784541 0)
(-1.5302189e-08 0.0024776907 0)
(-1.3952228e-08 0.0024739595 0)
(-1.1731271e-08 0.0024547211 0)
(-8.8489915e-09 0.0023616144 0)
(-5.1651416e-09 0.0019895867 0)
(-1.3741949e-09 0.00091462904 0)
(8.8241886e-10 0.00091465901 0)
(3.5854666e-09 0.0019896482 0)
(6.7590857e-09 0.0023616855 0)
(9.1404891e-09 0.0024547936 0)
(1.0011607e-08 0.0024740303 0)
(9.1269257e-09 0.0024777577 0)
(6.6577514e-09 0.0024785157 0)
(3.0339028e-09 0.002478679 0)
(-1.1598272e-09 0.0024787101 0)
(-5.2532536e-09 0.002478711 0)
(-8.6657404e-09 0.0024787052 0)
(-1.0973537e-08 0.0024786927 0)
(-1.1915698e-08 0.00247865 0)
(-1.1470018e-08 0.0024784753 0)
(-9.8872943e-09 0.0024777065 0)
(-7.6314024e-09 0.0024739695 0)
(-5.1899974e-09 0.0024547254 0)
(-2.8720125e-09 0.0023616145 0)
(-8.8307455e-10 0.0019895854 0)
(5.0457677e-11 0.00091462884 0)
(-3.1692045e-10 0.00091466065 0)
(-3.2249122e-10 0.0019896514 0)
(7.3667442e-11 0.0023616898 0)
(1.1229014e-10 0.0024548001 0)
(-5.9238169e-10 0.0024740398 0)
(-2.1420896e-09 0.0024777708 0)
(-4.3846418e-09 0.0024785323 0)
(-7.022777e-09 0.0024786988 0)
(-9.6665591e-09 0.0024787324 0)
(-1.188811e-08 0.002478735 0)
(-1.3367433e-08 0.0024787297 0)
(-1.3890599e-08 0.0024787165 0)
(-1.3329648e-08 0.002478672 0)
(-1.1717894e-08 0.0024784944 0)
(-9.2842089e-09 0.0024777219 0)
(-6.431379e-09 0.0024739806 0)
(-3.6029755e-09 0.0024547324 0)
(-1.1625233e-09 0.0023616181 0)
(4.2553617e-10 0.0019895871 0)
(4.1979522e-10 0.00091462994 0)
(-1.2299611e-09 0.00091466003 0)
(-3.2220392e-09 0.0019896499 0)
(-4.8137528e-09 0.0023616885 0)
(-6.4353983e-09 0.0024548001 0)
(-8.2513054e-09 0.0024740422 0)
(-1.0269794e-08 0.0024777759 0)
(-1.2382435e-08 0.0024785402 0)
(-1.4415617e-08 0.0024787094 0)
(-1.6133934e-08 0.0024787453 0)
(-1.730404e-08 0.0024787496 0)
(-1.7800759e-08 0.0024787452 0)
(-1.7540782e-08 0.0024787321 0)
(-1.6440263e-08 0.0024786868 0)
(-1.4501376e-08 0.0024785077 0)
(-1.1843758e-08 0.002477733 0)
(-8.7186109e-09 0.002473989 0)
(-5.4726458e-09 0.0024547381 0)
(-2.4869303e-09 0.0023616214 0)
(-3.8771603e-10 0.0019895891 0)
(5.8596748e-11 0.00091463095 0)
(-1.9568282e-09 0.00091465667 0)
(-5.4437612e-09 0.0019896425 0)
(-8.4322846e-09 0.0023616802 0)
(-1.115752e-08 0.0024547927 0)
(-1.3661698e-08 0.0024740364 0)
(-1.5916512e-08 0.0024777722 0)
(-1.7876895e-08 0.0024785389 0)
(-1.9490426e-08 0.0024787103 0)
(-2.0662262e-08 0.0024787483 0)
(-2.1321935e-08 0.0024787542 0)
(-2.1483103e-08 0.002478751 0)
(-2.1134044e-08 0.0024787385 0)
(-2.0177331e-08 0.0024786933 0)
(-1.8521896e-08 0.0024785137 0)
(-1.6116416e-08 0.002477738 0)
(-1.2996271e-08 0.0024739928 0)
(-9.3677552e-09 0.0024547404 0)
(-5.6026712e-09 0.0023616225 0)
(-2.4288638e-09 0.0019895896 0)
(-6.9581265e-10 0.00091463146 0)
(-2.535527e-09 0.0009146511 0)
(-7.1558518e-09 0.0019896304 0)
(-1.1096908e-08 0.0023616661 0)
(-1.4478929e-08 0.0024547789 0)
(-1.7309093e-08 0.0024740239 0)
(-1.9579516e-08 0.0024777614 0)
(-2.1313978e-08 0.0024785299 0)
(-2.2574969e-08 0.0024787032 0)
(-2.3410489e-08 0.002478743 0)
(-2.3892515e-08 0.0024787505 0)
(-2.4125823e-08 0.0024787486 0)
(-2.4122279e-08 0.002478737 0)
(-2.3738128e-08 0.0024786923 0)
(-2.2749652e-08 0.002478513 0)
(-2.0899467e-08 0.0024777374 0)
(-1.798347e-08 0.002473992 0)
(-1.4033966e-08 0.0024547394 0)
(-9.3854222e-09 0.0023616213 0)
(-4.8708219e-09 0.0019895887 0)
(-1.5352355e-09 0.00091463149 0)
(-2.957001e-09 0.00091464441 0)
(-8.3859882e-09 0.0019896155 0)
(-1.2927057e-08 0.0023616486 0)
(-1.6623396e-08 0.0024547615 0)
(-1.9505941e-08 0.0024740076 0)
(-2.1625095e-08 0.0024777465 0)
(-2.3065773e-08 0.0024785166 0)
(-2.3996085e-08 0.0024786914 0)
(-2.4606259e-08 0.0024787327 0)
(-2.5089503e-08 0.0024787415 0)
(-2.5609345e-08 0.0024787408 0)
(-2.6177473e-08 0.0024787303 0)
(-2.6585257e-08 0.0024786866 0)
(-2.6452124e-08 0.002478508 0)
(-2.5305906e-08 0.0024777331 0)
(-2.2705214e-08 0.0024739884 0)
(-1.8486704e-08 0.0024547363 0)
(-1.2947345e-08 0.0023616188 0)
(-7.0792533e-09 0.0019895872 0)
(-2.2380379e-09 0.00091463145 0)
(-3.1804294e-09 0.00091463775 0)
(-9.0614173e-09 0.0019896004 0)
(-1.3886773e-08 0.0023616308 0)
(-1.7645078e-08 0.0024547438 0)
(-2.0411509e-08 0.0024739908 0)
(-2.2289943e-08 0.002477731 0)
(-2.3414005e-08 0.0024785024 0)
(-2.4043721e-08 0.0024786786 0)
(-2.4497191e-08 0.002478721 0)
(-2.5068377e-08 0.002478731 0)
(-2.5962466e-08 0.0024787314 0)
(-2.718122e-08 0.002478722 0)
(-2.8439005e-08 0.0024786793 0)
(-2.9191969e-08 0.0024785018 0)
(-2.8765814e-08 0.0024777279 0)
(-2.6508995e-08 0.0024739843 0)
(-2.2075408e-08 0.0024547333 0)
(-1.5737778e-08 0.0023616169 0)
(-8.7067706e-09 0.0019895866 0)
(-2.7089389e-09 0.00091463184 0)
(-3.139911e-09 0.000914632 0)
(-9.0333747e-09 0.0019895871 0)
(-1.3837254e-08 0.0023616152 0)
(-1.7487281e-08 0.0024547284 0)
(-2.0067849e-08 0.0024739765 0)
(-2.1702433e-08 0.0024777179 0)
(-2.2556398e-08 0.0024784905 0)
(-2.2958941e-08 0.0024786677 0)
(-2.332411e-08 0.0024787111 0)
(-2.402652e-08 0.002478722 0)
(-2.5309246e-08 0.0024787234 0)
(-2.7156626e-08 0.0024787148 0)
(-2.9203252e-08 0.0024786732 0)
(-3.0763078e-08 0.0024784968 0)
(-3.099046e-08 0.0024777242 0)
(-2.9070097e-08 0.0024739819 0)
(-2.4519289e-08 0.0024547321 0)
(-1.7596439e-08 0.0023616169 0)
(-9.7276419e-09 0.0019895875 0)
(-2.9774928e-09 0.00091463291 0)
(-2.7587944e-09 0.00091462751 0)
(-8.1297126e-09 0.0019895768 0)
(-1.260175e-08 0.0023616033 0)
(-1.6033221e-08 0.002454717 0)
(-1.8453822e-08 0.0024739663 0)
(-1.9939282e-08 0.0024777089 0)
(-2.0648571e-08 0.0024784825 0)
(-2.0945962e-08 0.0024786606 0)
(-2.1308253e-08 0.0024787048 0)
(-2.2173675e-08 0.0024787164 0)
(-2.3816691e-08 0.0024787185 0)
(-2.6201274e-08 0.0024787107 0)
(-2.8900605e-08 0.00247867 0)
(-3.1135979e-08 0.0024784948 0)
(-3.1937639e-08 0.0024777233 0)
(-3.0381024e-08 0.0024739822 0)
(-2.5901267e-08 0.0024547336 0)
(-1.8727004e-08 0.0023616191 0)
(-1.0398912e-08 0.0019895901 0)
(-3.1791161e-09 0.00091463457 0)
(-1.9257328e-09 0.00091462413 0)
(-6.1152551e-09 0.0019895694 0)
(-9.9573778e-09 0.0023615953 0)
(-1.3142211e-08 0.0024547101 0)
(-1.5529608e-08 0.0024739607 0)
(-1.7060466e-08 0.0024777045 0)
(-1.7826606e-08 0.002478479 0)
(-1.8187782e-08 0.0024786579 0)
(-1.8659246e-08 0.0024787026 0)
(-1.9720444e-08 0.0024787147 0)
(-2.1666769e-08 0.0024787173 0)
(-2.4451099e-08 0.0024787102 0)
(-2.7629565e-08 0.0024786703 0)
(-3.0396927e-08 0.002478496 0)
(-3.1730057e-08 0.0024777257 0)
(-3.0663131e-08 0.0024739856 0)
(-2.6581572e-08 0.0024547376 0)
(-1.9619241e-08 0.0023616234 0)
(-1.1212685e-08 0.0019895938 0)
(-3.545186e-09 0.00091463645 0)
(-3.9349106e-10 0.0009146211 0)
(-2.537756e-09 0.0019895643 0)
(-5.5552952e-09 0.0023615911 0)
(-8.6607385e-09 0.0024547075 0)
(-1.1303017e-08 0.0024739596 0)
(-1.3175592e-08 0.0024777045 0)
(-1.4259994e-08 0.0024784799 0)
(-1.4890165e-08 0.0024786592 0)
(-1.5591799e-08 0.0024787044 0)
(-1.6863997e-08 0.0024787168 0)
(-1.9027389e-08 0.0024787197 0)
(-2.2049591e-08 0.0024787131 0)
(-2.5519211e-08 0.0024786738 0)
(-2.8678371e-08 0.0024785004 0)
(-3.0556567e-08 0.0024777311 0)
(-3.0237429e-08 0.0024739918 0)
(-2.7077143e-08 0.0024547441 0)
(-2.09917e-08 0.0023616292 0)
(-1.2924631e-08 0.0019895977 0)
(-4.4445065e-09 0.00091463783 0)
(2.4111602e-09 0.00091461492 0)
(3.5520407e-09 0.0019895569 0)
(1.1741235e-09 0.002361588 0)
(-2.4878344e-09 0.0024547076 0)
(-5.9330679e-09 0.0024739615 0)
(-8.5283451e-09 0.0024777074 0)
(-1.0204128e-08 0.0024784834 0)
(-1.1292627e-08 0.002478663 0)
(-1.2312736e-08 0.0024787083 0)
(-1.3770057e-08 0.0024787208 0)
(-1.602539e-08 0.0024787239 0)
(-1.9103469e-08 0.0024787177 0)
(-2.26679e-08 0.0024786791 0)
(-2.6078544e-08 0.0024785065 0)
(-2.8542631e-08 0.0024777381 0)
(-2.9334101e-08 0.0024739995 0)
(-2.7870144e-08 0.0024547517 0)
(-2.3732263e-08 0.0023616343 0)
(-1.6690175e-08 0.0019895978 0)
(-6.5106072e-09 0.00091463517 0)
(7.3656204e-09 0.00091458868 0)
(1.3474476e-08 0.0019895286 0)
(1.0730475e-08 0.0023615756 0)
(5.1403581e-09 0.0024547046 0)
(7.6494964e-11 0.0024739617 0)
(-3.61129e-09 0.0024777086 0)
(-6.0510546e-09 0.0024784848 0)
(-7.6781489e-09 0.0024786645 0)
(-9.022552e-09 0.0024787096 0)
(-1.0591533e-08 0.002478722 0)
(-1.2784158e-08 0.0024787252 0)
(-1.5708185e-08 0.0024787194 0)
(-1.9144029e-08 0.0024786814 0)
(-2.2629301e-08 0.0024785097 0)
(-2.5659999e-08 0.0024777422 0)
(-2.7905372e-08 0.0024740042 0)
(-2.9120444e-08 0.0024547546 0)
(-2.8602068e-08 0.0023616289 0)
(-2.3916107e-08 0.0019895759 0)
(-1.0609318e-08 0.00091461176 0)
(1.4185121e-08 0.00091447844 0)
(2.6574145e-08 0.0019894113 0)
(2.1914122e-08 0.0023615236 0)
(1.2893897e-08 0.0024546898 0)
(5.6145444e-09 0.0024739586 0)
(7.5784679e-10 0.0024777083 0)
(-2.3675523e-09 0.0024784848 0)
(-4.4298693e-09 0.0024786642 0)
(-5.9909266e-09 0.0024787088 0)
(-7.5515263e-09 0.002478721 0)
(-9.5271915e-09 0.0024787243 0)
(-1.2096473e-08 0.0024787188 0)
(-1.5173426e-08 0.0024786816 0)
(-1.8495782e-08 0.0024785105 0)
(-2.1899455e-08 0.0024777436 0)
(-2.5624218e-08 0.0024740043 0)
(-3.0148941e-08 0.0024547444 0)
(-3.4828679e-08 0.0023615826 0)
(-3.4135248e-08 0.0019894639 0)
(-1.6500593e-08 0.0009145039 0)
(1.8962191e-08 0.00091425142 0)
(3.6319869e-08 0.0019891125 0)
(2.9855024e-08 0.0023613627 0)
(1.7981983e-08 0.0024546331 0)
(9.1097413e-09 0.0024739387 0)
(3.5736253e-09 0.0024776985 0)
(1.0913019e-10 0.0024784767 0)
(-2.1525515e-09 0.0024786558 0)
(-3.778228e-09 0.0024786991 0)
(-5.2436058e-09 0.0024787108 0)
(-6.9575756e-09 0.0024787141 0)
(-9.1316303e-09 0.0024787093 0)
(-1.1778284e-08 0.002478673 0)
(-1.478459e-08 0.0024785013 0)
(-1.8239476e-08 0.0024777334 0)
(-2.2860256e-08 0.0024739864 0)
(-2.9835207e-08 0.0024546906 0)
(-3.8767283e-08 0.0023614263 0)
(-4.1542299e-08 0.0019891688 0)
(-2.0534447e-08 0.0009142794 0)
)
;

boundaryField
{
    Wall
    {
        type            fixedValue;
        value           uniform (0 0 0);
    }
    frontAndBack
    {
        type            empty;
    }
    atmosphere
    {
        type            pressureInletOutletVelocity;
        value           nonuniform List<vector> 
20
(
(1.8962191e-08 0.00091425142 0)
(3.6319869e-08 0.0019891125 0)
(2.9855024e-08 0.0023613627 0)
(1.7981983e-08 0.0024546331 0)
(9.1097413e-09 0.0024739387 0)
(3.5736253e-09 0.0024776985 0)
(1.0913019e-10 0.0024784767 0)
(-2.1525515e-09 0.0024786558 0)
(-3.778228e-09 0.0024786991 0)
(-5.2436058e-09 0.0024787108 0)
(-6.9575756e-09 0.0024787141 0)
(-9.1316303e-09 0.0024787093 0)
(-1.1778284e-08 0.002478673 0)
(-1.478459e-08 0.0024785013 0)
(-1.8239476e-08 0.0024777334 0)
(-2.2860256e-08 0.0024739864 0)
(-2.9835207e-08 0.0024546906 0)
(-3.8767283e-08 0.0023614263 0)
(-4.1542299e-08 0.0019891688 0)
(-2.0534447e-08 0.0009142794 0)
)
;
    }
}


// ************************************************************************* //
