/*--------------------------------*- C++ -*----------------------------------*\
| =========                 |                                                 |
| \\      /  F ield         | OpenFOAM: The Open Source CFD Toolbox           |
|  \\    /   O peration     | Version:  3.0.1                                 |
|   \\  /    A nd           | Web:      www.OpenFOAM.org                      |
|    \\/     M anipulation  |                                                 |
\*---------------------------------------------------------------------------*/
FoamFile
{
    version     2.0;
    format      ascii;
    class       volScalarField;
    location    "7";
    object      wBA_l_0;
}
// * * * * * * * * * * * * * * * * * * * * * * * * * * * * * * * * * * * * * //

dimensions      [0 0 0 0 0 0 0];

internalField   nonuniform List<scalar> 
800
(
0.056428083
0.056425345
0.056424605
0.056424255
0.05642401
0.056423824
0.056423687
0.056423592
0.056423532
0.056423503
0.056423503
0.056423532
0.056423592
0.056423687
0.056423824
0.05642401
0.056424256
0.056424605
0.056425345
0.056428083
0.0564772
0.05647768
0.056478238
0.056478572
0.056478803
0.056478968
0.056479085
0.056479167
0.056479218
0.056479242
0.056479242
0.056479218
0.056479167
0.056479085
0.056478968
0.056478803
0.056478571
0.056478238
0.056477679
0.056477201
0.027747614
0.027775174
0.027773296
0.027769477
0.027766266
0.027763764
0.02776192
0.027760634
0.027759822
0.02775943
0.027759431
0.027759824
0.027760637
0.027761924
0.027763768
0.027766271
0.027769482
0.027773301
0.027775181
0.027747619
0.0077743724
0.0079785433
0.0079872241
0.0079855182
0.0079837099
0.0079822903
0.0079812482
0.0079805245
0.0079800683
0.0079798459
0.0079798459
0.0079800684
0.0079805249
0.0079812488
0.0079822912
0.0079837109
0.0079855189
0.0079872239
0.0079785427
0.007774373
0.0014405958
0.0018157177
0.0018721472
0.0018795431
0.0018798437
0.0018793456
0.0018788987
0.0018785846
0.0018783887
0.0018782926
0.0018782922
0.0018783876
0.0018785831
0.0018788969
0.0018793434
0.0018798409
0.0018795391
0.0018721415
0.0018157108
0.0014405892
0.00018364525
0.0003703459
0.00041024946
0.00041660705
0.00041724613
0.00041710092
0.00041691485
0.0004167797
0.00041669606
0.00041665571
0.00041665546
0.00041669534
0.00041677862
0.00041691345
0.00041709915
0.00041724384
0.0004166039
0.00041024523
0.00037034101
0.00018364188
1.9175503e-05
6.7358776e-05
8.1673514e-05
8.4214038e-05
8.4506277e-05
8.4466354e-05
8.4401421e-05
8.4352882e-05
8.4322676e-05
8.4308171e-05
8.4308065e-05
8.4322367e-05
8.4352411e-05
8.4400811e-05
8.4465591e-05
8.4505298e-05
8.4212722e-05
8.1671793e-05
6.7356925e-05
1.917475e-05
1.7444478e-06
1.0511496e-05
1.3959631e-05
1.4621267e-05
1.4701809e-05
1.4692573e-05
1.4675581e-05
1.4662574e-05
1.4654393e-05
1.4650455e-05
1.4650423e-05
1.46543e-05
1.4662432e-05
1.4675398e-05
1.4692348e-05
1.4701528e-05
1.4620898e-05
1.3959163e-05
1.0511036e-05
1.7443418e-06
1.3736506e-07
1.3920357e-06
2.0201564e-06
2.1488296e-06
2.1652004e-06
2.163585e-06
2.1602377e-06
2.1576113e-06
2.1559376e-06
2.1551276e-06
2.1551203e-06
2.1559163e-06
2.1575788e-06
2.1601963e-06
2.1635355e-06
2.1651404e-06
2.1487542e-06
2.0200645e-06
1.3919539e-06
1.3735434e-07
9.3719892e-09
1.5744026e-07
2.4906181e-07
2.6895963e-07
2.7160117e-07
2.713909e-07
2.7087749e-07
2.7046383e-07
2.7019654e-07
2.7006631e-07
2.7006499e-07
2.7019269e-07
2.7045797e-07
2.7087014e-07
2.713823e-07
2.7159116e-07
2.6894762e-07
2.4904794e-07
1.5742921e-07
9.3711523e-09
5.5788054e-10
1.5384338e-08
2.6477248e-08
2.9020447e-08
2.9372526e-08
2.9352208e-08
2.9288661e-08
2.9236002e-08
2.9201507e-08
2.9184583e-08
2.9184388e-08
2.9200942e-08
2.9235142e-08
2.9287591e-08
2.9350982e-08
2.9371152e-08
2.901888e-08
2.6475547e-08
1.5383135e-08
5.5782714e-10
2.9208393e-11
1.3135349e-09
2.455974e-09
2.731718e-09
2.7714644e-09
2.7700751e-09
2.7635351e-09
2.7579546e-09
2.754251e-09
2.7524216e-09
2.7523979e-09
2.7541821e-09
2.7578496e-09
2.7634048e-09
2.7699277e-09
2.7713036e-09
2.7315429e-09
2.4557957e-09
1.3134235e-09
2.9205446e-11
1.355142e-12
9.8943994e-11
2.0078314e-10
2.2660994e-10
2.3047643e-10
2.3042635e-10
2.2985365e-10
2.2934992e-10
2.2901148e-10
2.2884327e-10
2.2884083e-10
2.2900441e-10
2.293391e-10
2.2984019e-10
2.3041118e-10
2.3046013e-10
2.2659274e-10
2.0076658e-10
9.89348e-11
1.3549948e-12
5.6081338e-14
6.6281343e-12
1.4587304e-11
1.6704808e-11
1.703309e-11
1.7035514e-11
1.6992091e-11
1.6952677e-11
1.692589e-11
1.6912501e-11
1.6912288e-11
1.6925272e-11
1.6951726e-11
1.6990902e-11
1.7034169e-11
1.7031649e-11
1.6703312e-11
1.4585918e-11
6.6274431e-12
5.6074548e-14
2.081844e-15
3.9748364e-13
9.4824438e-13
1.101755e-12
1.1263265e-12
1.1269578e-12
1.124069e-12
1.1213595e-12
1.1194981e-12
1.1185632e-12
1.1185472e-12
1.1194518e-12
1.1212877e-12
1.1239786e-12
1.1268547e-12
1.1262155e-12
1.10164e-12
9.4814016e-13
3.9743627e-13
2.0815564e-15
6.9654387e-17
2.1456589e-14
5.5463281e-14
6.5381724e-14
6.7016204e-14
6.7084751e-14
6.6914405e-14
6.6749033e-14
6.6634276e-14
6.6576387e-14
6.6575354e-14
6.6631265e-14
6.6744346e-14
6.6908446e-14
6.7077889e-14
6.7008739e-14
6.5373948e-14
5.5456308e-14
2.1453667e-14
6.9643401e-17
2.1089894e-18
1.0473864e-15
2.9326578e-15
3.5074242e-15
3.6046907e-15
3.6101631e-15
3.6011891e-15
3.5921545e-15
3.5858244e-15
3.5826192e-15
3.5825607e-15
3.5856532e-15
3.5918866e-15
3.6008458e-15
3.609764e-15
3.6042515e-15
3.5069626e-15
2.9322454e-15
1.047226e-15
2.1086165e-18
5.79836e-20
4.6411068e-17
1.4072795e-16
1.7075552e-16
1.7596215e-16
1.7632071e-16
1.7589574e-16
1.7545106e-16
1.7513657e-16
1.7497681e-16
1.7497386e-16
1.7512795e-16
1.7543751e-16
1.7587826e-16
1.763002e-16
1.7593936e-16
1.7073133e-16
1.4070638e-16
4.6403264e-17
5.7972401e-20
1.4517142e-21
1.8728063e-18
6.1485547e-18
7.5688047e-18
7.8206453e-18
7.8407837e-18
7.8226071e-18
7.8027858e-18
7.7886386e-18
7.7814302e-18
7.7812971e-18
7.7882482e-18
7.8021698e-18
7.8218083e-18
7.8398401e-18
7.819588e-18
7.5676747e-18
6.1475508e-18
1.8724683e-18
1.4514154e-21
3.3176751e-23
6.900395e-20
2.4525082e-19
3.0627936e-19
3.1732763e-19
3.1831939e-19
3.1761459e-19
3.1681117e-19
3.162325e-19
3.1593679e-19
3.1593128e-19
3.1621633e-19
3.1678559e-19
3.1758129e-19
3.1827987e-19
3.1728313e-19
3.062316e-19
2.4520868e-19
6.899078e-20
3.3169585e-23
6.934418e-25
2.3265548e-21
8.9506779e-21
1.1339921e-20
1.1780884e-20
1.1824297e-20
1.1799452e-20
1.1769743e-20
1.1748148e-20
1.173708e-20
1.1736868e-20
1.1747526e-20
1.1768758e-20
1.1798166e-20
1.1822766e-20
1.1779156e-20
1.1338067e-20
8.94906e-21
2.3260868e-21
6.9328526e-25
1.3276698e-26
7.1908072e-23
2.9942561e-22
3.8484379e-22
4.0089609e-22
4.0260059e-22
4.0180273e-22
4.0079792e-22
4.0006073e-22
3.9968169e-22
3.9967408e-22
4.0003833e-22
4.0076236e-22
4.017562e-22
4.0254511e-22
4.0083343e-22
3.8477678e-22
2.9936801e-22
7.1892712e-23
1.327354e-26
2.3313224e-28
2.0401843e-24
9.1943929e-24
1.1988238e-23
1.252228e-23
1.258268e-23
1.2559306e-23
1.2528162e-23
1.2505096e-23
1.2493196e-23
1.2492939e-23
1.2504339e-23
1.2526957e-23
1.2557725e-23
1.2580792e-23
1.2520147e-23
1.1985969e-23
9.1924772e-24
2.0397145e-24
2.3307287e-28
3.7578e-30
5.3191127e-26
2.5942928e-25
3.4315013e-25
3.5941288e-25
3.6135331e-25
3.6072813e-25
3.5984225e-25
3.591798e-25
3.5883683e-25
3.5882873e-25
3.5915593e-25
3.5980417e-25
3.6067799e-25
3.6129323e-25
3.5934499e-25
3.4307821e-25
2.5936971e-25
5.3177708e-26
3.7567581e-30
5.5633613e-32
1.2752496e-27
6.7312248e-27
9.0321054e-27
9.4859399e-27
9.542639e-27
9.5273713e-27
9.504223e-27
9.4867422e-27
9.4776585e-27
9.4774228e-27
9.4860465e-27
9.5031094e-27
9.5258993e-27
9.5408684e-27
9.4839355e-27
9.029989e-27
6.7295024e-27
1.2748931e-27
5.5616616e-32
7.5672495e-34
2.8126092e-29
1.6066777e-28
2.1870117e-28
2.3031629e-28
2.3182661e-28
2.3148634e-28
2.3093036e-28
2.305063e-28
2.3028512e-28
2.3027884e-28
2.3048772e-28
2.3090053e-28
2.3144672e-28
2.3177874e-28
2.3026193e-28
2.1864386e-28
1.6062186e-28
2.811735e-29
7.5647143e-34
9.4589516e-36
5.707178e-31
3.5283396e-30
4.8721276e-30
5.1448715e-30
5.1816045e-30
5.1746918e-30
5.1624149e-30
5.1529561e-30
5.1480046e-30
5.1478522e-30
5.152505e-30
5.1616879e-30
5.1737217e-30
5.1804262e-30
5.1435282e-30
4.870711e-30
3.5272203e-30
5.705214e-31
9.4560487e-36
1.0877914e-37
1.0652212e-32
7.1274543e-32
9.9840781e-32
1.0571736e-31
1.0653384e-31
1.0640609e-31
1.0615689e-31
1.0596292e-31
1.0586102e-31
1.0585768e-31
1.0595299e-31
1.0614084e-31
1.0638458e-31
1.0650757e-31
1.0568727e-31
9.9809008e-32
7.1249744e-32
1.0648194e-32
1.0852927e-37
1.1509145e-39
1.8278499e-34
1.3237423e-33
1.8810585e-33
1.9972079e-33
2.0138003e-33
2.0116593e-33
2.0070112e-33
2.0033559e-33
2.0014295e-33
2.001363e-33
2.0031586e-33
2.0066911e-33
2.0112281e-33
2.0132711e-33
1.9965987e-33
1.8804142e-33
1.323245e-33
1.8271052e-34
1.1434234e-39
1.1204195e-41
2.8811315e-36
2.2585134e-35
3.2557248e-35
3.4661824e-35
3.4970085e-35
3.4937689e-35
3.4858091e-35
3.4794838e-35
3.4761403e-35
3.4760212e-35
3.4791296e-35
3.4852326e-35
3.492989e-35
3.4960466e-35
3.46507e-35
3.2545458e-35
2.2576133e-35
2.8798844e-36
1.1048652e-41
1.0037262e-43
4.1668051e-38
3.5358432e-37
5.1706562e-37
5.5199147e-37
5.5722426e-37
5.5678461e-37
5.5553447e-37
5.545305e-37
5.5399834e-37
5.5397905e-37
5.5447307e-37
5.5544074e-37
5.5665732e-37
5.5706656e-37
5.5180832e-37
5.1687118e-37
3.5343747e-37
4.164922e-38
9.779916e-44
8.2730037e-46
5.520798e-40
5.0717743e-39
7.5238889e-39
8.0540129e-39
8.1350936e-39
8.1297975e-39
8.1118163e-39
8.0972207e-39
8.0894647e-39
8.0891825e-39
8.0963795e-39
8.1104402e-39
8.1279225e-39
8.1327619e-39
8.0512957e-39
7.5210007e-39
5.069617e-39
5.518238e-40
7.9180213e-46
6.264576e-48
6.6885236e-42
6.6527065e-41
1.0011826e-40
1.0746494e-40
1.0861e-40
1.0855433e-40
1.0831793e-40
1.0812394e-40
1.0802061e-40
1.0801688e-40
1.0811281e-40
1.0829969e-40
1.0852942e-40
1.0857893e-40
1.0742864e-40
1.0007965e-40
6.6498556e-41
6.6853936e-42
5.852224e-48
4.3382231e-50
7.3921247e-44
7.9614489e-43
1.2154655e-42
1.3082181e-42
1.3229278e-42
1.3224335e-42
1.3195991e-42
1.3172472e-42
1.3159918e-42
1.3159473e-42
1.3171143e-42
1.3193808e-42
1.322135e-42
1.3225548e-42
1.3077817e-42
1.2150016e-42
7.9580641e-43
7.3886868e-44
3.9393992e-50
2.7154701e-52
7.4316037e-46
8.6677595e-45
1.3424449e-44
1.4488335e-44
1.4659786e-44
1.4656351e-44
1.4625445e-44
1.4599511e-44
1.4585637e-44
1.4585158e-44
1.4598078e-44
1.4623093e-44
1.465313e-44
1.465576e-44
1.4483621e-44
1.3419445e-44
8.6641539e-45
7.4282165e-46
2.4083233e-52
1.4909397e-54
6.7730012e-48
8.5556839e-47
1.3442719e-46
1.4547693e-46
1.4728438e-46
1.4727043e-46
1.4696503e-46
1.4670577e-46
1.4656679e-46
1.4656214e-46
1.4669186e-46
1.4694221e-46
1.472392e-46
1.4724537e-46
1.454313e-46
1.3437886e-46
8.5522456e-47
6.7700141e-48
1.3326038e-54
7.1944509e-57
5.5728442e-50
7.6251353e-49
1.2154205e-48
1.3189219e-48
1.3360885e-48
1.3361489e-48
1.3334249e-48
1.331085e-48
1.329828e-48
1.3297874e-48
1.3309638e-48
1.3332263e-48
1.3358776e-48
1.3357503e-48
1.3185273e-48
1.2150039e-48
7.6222096e-49
5.5704936e-50
6.6469665e-57
3.1448943e-59
4.1192591e-52
6.1056828e-51
9.8733384e-51
1.0743423e-50
1.0889616e-50
1.0891633e-50
1.0869811e-50
1.0850836e-50
1.0840622e-50
1.0840306e-50
1.0849892e-50
1.0868266e-50
1.088953e-50
1.0887004e-50
1.0740388e-50
9.8701472e-51
6.1034718e-51
4.1176159e-52
2.974152e-59
1.2343858e-61
2.7189656e-54
4.3663056e-53
7.163105e-53
7.815692e-53
7.9266793e-53
7.9292579e-53
7.9136486e-53
7.899906e-53
7.8924932e-53
7.8922736e-53
7.8992508e-53
7.9125801e-53
7.9278093e-53
7.9248904e-53
7.8136264e-53
7.1609461e-53
4.3648309e-53
2.7179513e-54
1.1867273e-61
4.3103112e-64
1.5909323e-56
2.768326e-55
4.6076129e-55
5.041195e-55
5.1157834e-55
5.1181655e-55
5.1082682e-55
5.0994427e-55
5.0946719e-55
5.0945372e-55
5.0990409e-55
5.1076151e-55
5.1172849e-55
5.1147044e-55
5.03996e-55
4.6063323e-55
2.7674642e-55
1.5903836e-56
4.1923595e-64
)
;

boundaryField
{
    Wall
    {
        type            zeroGradient;
    }
    frontAndBack
    {
        type            empty;
    }
    atmosphere
    {
        type            zeroGradient;
    }
}


// ************************************************************************* //
