/*--------------------------------*- C++ -*----------------------------------*\
| =========                 |                                                 |
| \\      /  F ield         | OpenFOAM: The Open Source CFD Toolbox           |
|  \\    /   O peration     | Version:  3.0.1                                 |
|   \\  /    A nd           | Web:      www.OpenFOAM.org                      |
|    \\/     M anipulation  |                                                 |
\*---------------------------------------------------------------------------*/
FoamFile
{
    version     2.0;
    format      ascii;
    class       volScalarField;
    location    "7";
    object      wBA_l;
}
// * * * * * * * * * * * * * * * * * * * * * * * * * * * * * * * * * * * * * //

dimensions      [0 0 0 0 0 0 0];

internalField   nonuniform List<scalar> 
800
(
0.056429462
0.056426678
0.056425899
0.056425515
0.056425247
0.056425048
0.056424903
0.056424803
0.056424739
0.056424709
0.056424709
0.056424739
0.056424803
0.056424903
0.056425048
0.056425247
0.056425516
0.056425899
0.056426678
0.056429462
0.056477715
0.056477407
0.056477441
0.056477453
0.056477686
0.056477865
0.056477992
0.056478079
0.056478133
0.056478159
0.056478159
0.056478133
0.056478078
0.056477991
0.056477865
0.056477686
0.056477454
0.056477441
0.056477407
0.056477715
0.028155451
0.028186708
0.028186806
0.028184279
0.028180909
0.028178321
0.028176429
0.028175109
0.028174277
0.028173875
0.028173875
0.028174278
0.028175112
0.028176432
0.028178326
0.028180914
0.028184283
0.02818681
0.028186714
0.028155457
0.0080559888
0.008259322
0.0082665057
0.0082637238
0.0082617229
0.008260216
0.0082591115
0.0082583452
0.0082578622
0.0082576268
0.0082576269
0.0082578623
0.0082583456
0.0082591122
0.008260217
0.008261724
0.0082637258
0.0082665068
0.0082593228
0.0080559905
0.0015198004
0.0019086169
0.0019673197
0.0019750623
0.0019753754
0.0019748477
0.001974374
0.0019740408
0.0019738328
0.0019737308
0.0019737304
0.0019738318
0.0019740393
0.0019743722
0.0019748455
0.0019753725
0.0019750583
0.0019673139
0.0019086099
0.0015197937
0.00019599788
0.00039429461
0.00043704986
0.0004439583
0.00044467368
0.00044452623
0.00044432969
0.00044418624
0.00044409732
0.00044405441
0.00044405414
0.00044409656
0.0004441851
0.00044432823
0.00044452439
0.00044467129
0.00044395502
0.00043704545
0.00039428953
0.00019599437
2.0614879e-05
7.2791269e-05
8.8508106e-05
9.1345267e-05
9.1682127e-05
9.1643007e-05
9.1573674e-05
9.1521461e-05
9.148891e-05
9.1473271e-05
9.1473157e-05
9.1488579e-05
9.1520957e-05
9.157302e-05
9.1642189e-05
9.1681079e-05
9.1343859e-05
8.8506272e-05
7.2789305e-05
2.0614082e-05
1.8954003e-06
1.1566064e-05
1.5439037e-05
1.6196282e-05
1.6291385e-05
1.6282368e-05
1.6263858e-05
1.6249574e-05
1.6240574e-05
1.623624e-05
1.6236205e-05
1.6240472e-05
1.6249418e-05
1.6263657e-05
1.6282121e-05
1.6291075e-05
1.6195878e-05
1.5438527e-05
1.1565565e-05
1.8952864e-06
1.5126916e-07
1.5629528e-06
2.2850544e-06
2.4359938e-06
2.4557777e-06
2.4541928e-06
2.4504581e-06
2.4475037e-06
2.4456176e-06
2.4447045e-06
2.4446963e-06
2.4455937e-06
2.4474671e-06
2.4504116e-06
2.454137e-06
2.4557102e-06
2.4359089e-06
2.2849515e-06
1.562862e-06
1.5125743e-07
1.0478146e-08
1.8062214e-07
2.8849689e-07
3.1242865e-07
3.1569532e-07
3.1548987e-07
3.1490232e-07
3.1442492e-07
3.1411591e-07
3.139653e-07
3.1396377e-07
3.1411148e-07
3.1441816e-07
3.1489383e-07
3.1547994e-07
3.1568376e-07
3.1241478e-07
2.8848093e-07
1.8060956e-07
1.0477215e-08
6.3398429e-10
1.8051274e-08
3.1435212e-08
3.4572689e-08
3.5018365e-08
3.4999185e-08
3.4924546e-08
3.486215e-08
3.4821206e-08
3.480111e-08
3.4800879e-08
3.4820538e-08
3.4861132e-08
3.4923278e-08
3.4997732e-08
3.5016735e-08
3.4570831e-08
3.1433203e-08
1.804987e-08
6.3392373e-10
3.3770317e-11
1.5775946e-09
2.9909316e-09
3.3400363e-09
3.3915697e-09
3.3904242e-09
3.3825381e-09
3.3757458e-09
3.3712297e-09
3.3689981e-09
3.3689692e-09
3.371146e-09
3.375618e-09
3.3823795e-09
3.3902448e-09
3.3913739e-09
3.3398232e-09
2.9907155e-09
1.5774613e-09
3.3766912e-11
1.5953947e-12
1.2173075e-10
2.5099605e-10
2.8457222e-10
2.8971139e-10
2.8970138e-10
2.889922e-10
2.8836209e-10
2.8793791e-10
2.8772699e-10
2.8772393e-10
2.8792907e-10
2.8834855e-10
2.8897537e-10
2.8968241e-10
2.8969099e-10
2.8455072e-10
2.5097544e-10
1.2171948e-10
1.5952216e-12
6.7283723e-14
8.3596979e-12
1.8732398e-11
2.1561126e-11
2.2008865e-11
2.2016442e-11
2.1961205e-11
2.1910506e-11
2.1875979e-11
2.1858713e-11
2.1858439e-11
2.1875184e-11
2.1909283e-11
2.1959676e-11
2.2014712e-11
2.2007011e-11
2.1559203e-11
1.8730626e-11
8.3588297e-12
6.7275585e-14
2.5474227e-15
5.143343e-13
1.2518425e-12
1.4627208e-12
1.4971435e-12
1.4983142e-12
1.4945377e-12
1.4909517e-12
1.4884827e-12
1.4872419e-12
1.4872208e-12
1.4884213e-12
1.4908567e-12
1.494418e-12
1.4981777e-12
1.4969965e-12
1.4625688e-12
1.2517056e-12
5.1427329e-13
2.5470714e-15
8.7000997e-17
2.8507871e-14
7.5334314e-14
8.935619e-14
9.171051e-14
9.1826433e-14
9.1597474e-14
9.137213e-14
9.1215378e-14
9.1136254e-14
9.1134844e-14
9.121127e-14
9.1365736e-14
9.1589345e-14
9.1817074e-14
9.1700332e-14
8.9345608e-14
7.5324892e-14
2.8504008e-14
8.698731e-17
2.691221e-18
1.4300661e-15
4.1017667e-15
4.9386912e-15
5.0828915e-15
5.0919351e-15
5.0795275e-15
5.0668429e-15
5.0579319e-15
5.0534168e-15
5.0533344e-15
5.0576911e-15
5.066466e-15
5.0790446e-15
5.0913736e-15
5.0822741e-15
4.9380436e-15
4.1011927e-15
1.4298481e-15
2.6907464e-18
7.5661432e-20
6.5178249e-17
2.0286029e-16
2.4793498e-16
2.5588792e-16
2.5648129e-16
2.5587656e-16
2.5523275e-16
2.5477613e-16
2.5454399e-16
2.5453972e-16
2.5476361e-16
2.5521307e-16
2.5585118e-16
2.5645151e-16
2.5585484e-16
2.4789996e-16
2.0282933e-16
6.5167338e-17
7.5646855e-20
1.938933e-21
2.7077939e-18
9.1433417e-18
1.1343248e-17
1.1740007e-17
1.1773776e-17
1.1747141e-17
1.1717522e-17
1.1696317e-17
1.1685504e-17
1.1685304e-17
1.1695732e-17
1.1716598e-17
1.1745942e-17
1.1772361e-17
1.1738423e-17
1.1341558e-17
9.1418538e-18
2.707307e-18
1.9385346e-21
4.5401661e-23
1.0281912e-19
3.7661002e-19
4.7425158e-19
4.92224e-19
4.9392071e-19
4.9285648e-19
4.9161626e-19
4.9072001e-19
4.9026158e-19
4.9025305e-19
4.9069493e-19
4.9157659e-19
4.9280485e-19
4.9385944e-19
4.9215503e-19
4.7417776e-19
3.7654549e-19
1.0279956e-19
4.539187e-23
9.7336937e-25
3.5764756e-21
1.4208572e-20
1.8161232e-20
1.8902755e-20
1.897888e-20
1.89402e-20
1.8892774e-20
1.8858176e-20
1.8840426e-20
1.8840087e-20
1.8857179e-20
1.8891193e-20
1.8938138e-20
1.8976426e-20
1.8899985e-20
1.8158267e-20
1.420601e-20
3.5757582e-21
9.731499e-25
1.9137897e-26
1.1417193e-22
4.9191834e-22
6.3820488e-22
6.6614309e-22
6.692169e-22
6.6793536e-22
6.6627472e-22
6.6505168e-22
6.644222e-22
6.6440956e-22
6.650145e-22
6.6621568e-22
6.6785811e-22
6.6912479e-22
6.660391e-22
6.3809392e-22
4.9182394e-22
1.141476e-22
1.9133349e-26
3.4553078e-28
3.3498491e-24
1.5652003e-23
2.0611247e-23
2.1574485e-23
2.1686815e-23
2.1648057e-23
2.1594706e-23
2.155503e-23
2.1534539e-23
2.1534096e-23
2.1553727e-23
2.1592633e-23
2.1645338e-23
2.1683566e-23
2.1570818e-23
2.0607353e-23
1.564875e-23
3.3490796e-24
3.4544288e-28
5.7343418e-30
9.0436738e-26
4.5822955e-25
6.1246381e-25
6.4290394e-25
6.4663445e-25
6.4556372e-25
6.439887e-25
6.4280569e-25
6.4219252e-25
6.4217806e-25
6.4276307e-25
6.4392069e-25
6.4547421e-25
6.4652719e-25
6.4278279e-25
6.1233577e-25
4.5812462e-25
9.0413984e-26
5.7327538e-30
8.7535504e-32
2.2483958e-27
1.2353672e-26
1.6759188e-26
1.7642028e-26
1.7754963e-26
1.7727941e-26
1.7685166e-26
1.7652712e-26
1.7635827e-26
1.7635389e-26
1.765142e-26
1.7683099e-26
1.7725209e-26
1.7751677e-26
1.7638311e-26
1.6755272e-26
1.2350521e-26
2.2477691e-27
8.75088e-32
1.2296049e-33
5.1503051e-29
3.0686073e-28
4.2252768e-28
4.4604718e-28
4.4917061e-28
4.4854807e-28
4.4747865e-28
4.4665887e-28
4.4623075e-28
4.462186e-28
4.4662297e-28
4.4742099e-28
4.4847151e-28
4.4907812e-28
4.4594221e-28
4.2241728e-28
3.0677331e-28
5.148709e-29
1.2291922e-33
1.5899971e-35
1.0872362e-30
7.0246536e-30
9.8173411e-30
1.0393211e-29
1.0472253e-29
1.0459179e-29
1.0434557e-29
1.0415485e-29
1.0405488e-29
1.0405181e-29
1.0414575e-29
1.0433091e-29
1.0457223e-29
1.0469878e-29
1.0390504e-29
9.8144949e-30
7.022432e-30
1.0868631e-30
1.5895249e-35
1.8957468e-37
2.1150503e-32
1.4819345e-31
2.1020936e-31
2.2317123e-31
2.2500331e-31
2.2475361e-31
2.2423155e-31
2.2382288e-31
2.236079e-31
2.2360084e-31
2.2380196e-31
2.2419772e-31
2.2470827e-31
2.2494796e-31
2.2310787e-31
2.1014265e-31
1.4814203e-31
2.1142547e-32
1.8907542e-37
2.084742e-39
3.790314e-34
2.8801284e-33
4.1465676e-33
4.4147416e-33
4.4536555e-33
4.4493353e-33
4.4391438e-33
4.4310804e-33
4.4268245e-33
4.4266778e-33
4.4306448e-33
4.438437e-33
4.4483834e-33
4.4524875e-33
4.413398e-33
4.1451506e-33
2.8790492e-33
3.7887733e-34
2.0687517e-39
2.1156892e-41
6.2533617e-36
5.1535385e-35
7.530725e-35
8.0405138e-35
8.1162616e-35
8.1095291e-35
8.091222e-35
8.0765805e-35
8.0688288e-35
8.0685527e-35
8.0757593e-35
8.0898856e-35
8.1077215e-35
8.1140325e-35
8.0379378e-35
7.5280031e-35
5.1514891e-35
6.25066e-36
2.0806165e-41
1.9828405e-43
9.4892368e-38
8.4822452e-37
1.2580492e-36
1.3470239e-36
1.3605316e-36
1.3595952e-36
1.3565718e-36
1.3541273e-36
1.3528294e-36
1.3527823e-36
1.3539871e-36
1.3563431e-36
1.3592846e-36
1.360147e-36
1.3465775e-36
1.2575768e-36
8.4787283e-37
9.4849546e-38
1.921611e-43
1.7169576e-45
1.3227722e-39
1.2825936e-38
1.9307822e-38
2.0732029e-38
2.095253e-38
2.0941079e-38
2.0895231e-38
2.0857747e-38
2.0837793e-38
2.0837067e-38
2.0855581e-38
2.0891688e-38
2.0936251e-38
2.0946529e-38
2.072504e-38
1.9300418e-38
1.2820487e-38
1.3221594e-39
1.6277009e-45
1.3723415e-47
1.691146e-41
1.7788955e-40
2.7180317e-40
2.9268078e-40
2.9597183e-40
2.9585217e-40
2.9521474e-40
2.9468768e-40
2.9440643e-40
2.9439626e-40
2.9465734e-40
2.9516502e-40
2.9578427e-40
2.9588717e-40
2.9258194e-40
2.7169842e-40
1.7781338e-40
1.6903549e-41
1.2624649e-47
1.0078551e-49
1.9790609e-43
2.2585933e-42
3.5027162e-42
3.7824761e-42
3.8273138e-42
3.8263125e-42
3.8182033e-42
3.8114204e-42
3.8077927e-42
3.8076638e-42
3.8110355e-42
3.8175716e-42
3.8254485e-42
3.8262346e-42
3.7812142e-42
3.5013795e-42
2.2576333e-42
1.9781404e-43
8.9482446e-50
6.7120241e-52
2.1148123e-45
2.6188278e-44
4.1223047e-44
4.4641968e-44
4.5198407e-44
4.519305e-44
4.5098875e-44
4.5019174e-44
4.4976451e-44
4.4974971e-44
4.5014751e-44
4.5091616e-44
4.5183113e-44
4.5185987e-44
4.4627441e-44
4.1207679e-44
2.6177383e-44
2.1138479e-45
5.7821103e-52
3.9114622e-54
2.0575819e-47
2.7650112e-46
4.4177381e-46
4.7977292e-46
4.860463e-46
4.8605841e-46
4.8506293e-46
4.8421023e-46
4.8375218e-46
4.837368e-46
4.8416429e-46
4.8498754e-46
4.8595527e-46
4.8591747e-46
4.7962236e-46
4.416149e-46
2.7638994e-46
2.0566735e-47
3.3963518e-54
1.9979481e-56
1.816363e-49
2.6490878e-48
4.2960897e-48
4.678883e-48
4.7429267e-48
4.7437264e-48
4.7341813e-48
4.7259037e-48
4.7214476e-48
4.7213034e-48
4.7254729e-48
4.7334753e-48
4.7427624e-48
4.7417251e-48
4.677482e-48
4.2946156e-48
2.6480704e-48
1.815596e-49
1.8072608e-56
9.3169533e-59
1.4487638e-51
2.2934817e-50
3.7752934e-50
4.1233795e-50
4.1823466e-50
4.1836535e-50
4.1753856e-50
4.1681244e-50
4.1642071e-50
4.1640854e-50
4.1677611e-50
4.1747915e-50
4.1828446e-50
4.1813421e-50
4.1222131e-50
3.7740715e-50
2.29265e-50
1.4481849e-51
8.6760729e-59
3.933366e-61
1.0388745e-53
1.7853358e-52
2.9830538e-52
3.2673744e-52
3.3161058e-52
3.3176193e-52
3.3111818e-52
3.3054543e-52
3.3023576e-52
3.3022656e-52
3.3051798e-52
3.3107342e-52
3.3170124e-52
3.3153564e-52
3.2665095e-52
2.9821531e-52
1.7847317e-52
1.0384863e-53
3.7390757e-61
1.4906604e-63
6.6567517e-56
1.2420656e-54
2.1066222e-54
2.314003e-54
2.3499416e-54
2.3513531e-54
2.3468745e-54
2.3428363e-54
2.3406482e-54
2.3405861e-54
2.3426514e-54
2.346574e-54
2.350948e-54
2.3494452e-54
2.313435e-54
2.1060354e-54
1.241678e-54
6.6544509e-56
1.4379413e-63
)
;

boundaryField
{
    Wall
    {
        type            zeroGradient;
    }
    frontAndBack
    {
        type            empty;
    }
    atmosphere
    {
        type            zeroGradient;
    }
}


// ************************************************************************* //
