/*--------------------------------*- C++ -*----------------------------------*\
| =========                 |                                                 |
| \\      /  F ield         | OpenFOAM: The Open Source CFD Toolbox           |
|  \\    /   O peration     | Version:  3.0.1                                 |
|   \\  /    A nd           | Web:      www.OpenFOAM.org                      |
|    \\/     M anipulation  |                                                 |
\*---------------------------------------------------------------------------*/
FoamFile
{
    version     2.0;
    format      ascii;
    class       volScalarField;
    location    "7";
    object      wBA_g;
}
// * * * * * * * * * * * * * * * * * * * * * * * * * * * * * * * * * * * * * //

dimensions      [0 0 0 0 0 0 0];

internalField   nonuniform List<scalar> 
800
(
0.0033056057
0.0033054571
0.0033053862
0.0033053613
0.0033053442
0.0033053308
0.0033053207
0.0033053136
0.003305309
0.0033053067
0.0033053067
0.003305309
0.0033053135
0.0033053207
0.0033053308
0.0033053442
0.0033053614
0.0033053862
0.0033054572
0.0033056057
0.00062208409
0.00062367936
0.00062420808
0.00062454921
0.00062476779
0.00062491259
0.0006250101
0.00062507489
0.00062511479
0.00062513383
0.00062513381
0.00062511472
0.00062507477
0.00062500994
0.00062491241
0.00062476757
0.00062454897
0.00062420784
0.00062367906
0.00062208379
0.00012241052
0.00012272523
0.00012278156
0.00012280386
0.00012280606
0.00012280425
0.00012280171
0.00012279949
0.00012279796
0.0001227972
0.0001227972
0.00012279796
0.00012279949
0.00012280171
0.00012280425
0.00012280606
0.00012280386
0.00012278156
0.00012272523
0.00012241051
1.8211476e-05
1.8535305e-05
1.8536961e-05
1.8527495e-05
1.8522061e-05
1.8517956e-05
1.8514879e-05
1.8512711e-05
1.8511336e-05
1.8510666e-05
1.8510667e-05
1.8511337e-05
1.8512714e-05
1.8514882e-05
1.8517962e-05
1.8522066e-05
1.8527505e-05
1.8536971e-05
1.8535316e-05
1.8211492e-05
2.0696371e-06
2.5746996e-06
2.6578454e-06
2.6695688e-06
2.6700147e-06
2.6691196e-06
2.6683115e-06
2.6677362e-06
2.6673743e-06
2.6671975e-06
2.6671973e-06
2.6673734e-06
2.6677351e-06
2.6683101e-06
2.6691179e-06
2.6700123e-06
2.6695653e-06
2.6578403e-06
2.5746935e-06
2.0696315e-06
1.7601676e-07
3.6085685e-07
4.0451363e-07
4.1203195e-07
4.128704e-07
4.1273398e-07
4.1253084e-07
4.1237947e-07
4.1228464e-07
4.1223887e-07
4.1223867e-07
4.1228407e-07
4.1237861e-07
4.1252972e-07
4.1273255e-07
4.128685e-07
4.1202934e-07
4.0451016e-07
3.6085299e-07
1.760142e-07
1.346513e-08
5.0730632e-08
6.3094101e-08
6.545757e-08
6.5757806e-08
6.5736366e-08
6.5685499e-08
6.5646206e-08
6.5621474e-08
6.5609576e-08
6.5609505e-08
6.5621265e-08
6.5645883e-08
6.5685077e-08
6.5735835e-08
6.5757117e-08
6.5456649e-08
6.309292e-08
5.0729418e-08
1.3464673e-08
1.0057667e-09
6.8066728e-09
9.3679998e-09
9.8951225e-09
9.9652384e-09
9.9615387e-09
9.9504117e-09
9.94161e-09
9.9360196e-09
9.9333235e-09
9.9333039e-09
9.9359622e-09
9.9415215e-09
9.9502975e-09
9.9613977e-09
9.9650608e-09
9.894892e-09
9.3677137e-09
6.8064054e-09
1.0057119e-09
7.2038668e-11
8.4785866e-10
1.2837819e-09
1.3790702e-09
1.3921428e-09
1.391572e-09
1.3895286e-09
1.3878753e-09
1.3868127e-09
1.3862975e-09
1.3862931e-09
1.3868e-09
1.3878557e-09
1.3895038e-09
1.3915421e-09
1.3921065e-09
1.3790249e-09
1.2837279e-09
8.4781323e-10
7.2033509e-11
4.8604585e-12
9.7163756e-11
1.6105886e-10
1.7578625e-10
1.7786618e-10
1.7779726e-10
1.7748044e-10
1.7721767e-10
1.7704659e-10
1.7696309e-10
1.7696227e-10
1.7704423e-10
1.7721405e-10
1.7747588e-10
1.7779193e-10
1.7785997e-10
1.7577885e-10
1.610505e-10
9.7157475e-11
4.8600554e-12
3.0605554e-13
1.0238091e-11
1.8515696e-11
2.0519611e-11
2.0811158e-11
2.0805424e-11
2.0763142e-11
2.0727121e-11
2.0703359e-11
2.0691678e-11
2.0691547e-11
2.0702979e-11
2.0726541e-11
2.076242e-11
2.0804595e-11
2.0810228e-11
2.051856e-11
1.8514582e-11
1.023735e-11
3.0602813e-13
1.7919377e-14
9.9423566e-13
1.9576628e-12
2.2021056e-12
2.238755e-12
2.2385985e-12
2.2336466e-12
2.229305e-12
2.2264041e-12
2.2249685e-12
2.2249502e-12
2.2263511e-12
2.2292239e-12
2.2335458e-12
2.2384843e-12
2.2386305e-12
2.2019711e-12
1.9575293e-12
9.9415733e-13
1.7917676e-14
9.7505755e-16
8.9276062e-14
1.9114963e-13
2.1820493e-13
2.2238289e-13
2.224318e-13
2.2191451e-13
2.2144699e-13
2.2113079e-13
2.2097332e-13
2.2097106e-13
2.2112425e-13
2.2143696e-13
2.2190203e-13
2.2241773e-13
2.2236777e-13
2.181891e-13
1.9113478e-13
8.9268341e-14
9.7495743e-16
4.9371456e-17
7.438469e-15
1.7306302e-14
2.0047013e-14
2.0482379e-14
2.049425e-14
2.0445426e-14
2.0399865e-14
2.0368696e-14
2.0353084e-14
2.0352838e-14
2.0367982e-14
2.0398764e-14
2.0444049e-14
2.0492693e-14
2.048071e-14
2.0045293e-14
1.7304748e-14
7.4377443e-15
4.9365772e-17
2.3313104e-18
5.7710573e-16
1.4584352e-15
1.7142477e-15
1.755981e-15
1.757727e-15
1.7535212e-15
1.7494615e-15
1.7466542e-15
1.7452411e-15
1.7452171e-15
1.7465846e-15
1.7493537e-15
1.7533852e-15
1.7575719e-15
1.755814e-15
1.714076e-15
1.4582834e-15
5.7704121e-16
2.3310024e-18
1.0292129e-19
4.1831766e-17
1.1480437e-16
1.3692552e-16
1.4062531e-16
1.4082941e-16
1.404961e-16
1.4016264e-16
1.3992968e-16
1.398119e-16
1.3980981e-16
1.3992359e-16
1.4015316e-16
1.4048403e-16
1.4081551e-16
1.4061019e-16
1.3690987e-16
1.1479066e-16
4.1826398e-17
1.0290569e-19
4.2592347e-21
2.8418265e-18
8.468918e-18
1.0249382e-17
1.055415e-17
1.057463e-17
1.0550173e-17
1.0524753e-17
1.050682e-17
1.0497718e-17
1.0497552e-17
1.0506336e-17
1.0523996e-17
1.0549202e-17
1.0573501e-17
1.0552908e-17
1.0248084e-17
8.4677845e-18
2.8414149e-18
4.2585081e-21
1.6565024e-22
1.8146183e-19
5.8719273e-19
7.2110902e-19
7.4453224e-19
7.4635895e-19
7.4468886e-19
7.4288061e-19
7.4159269e-19
7.4093681e-19
7.4092478e-19
7.4155752e-19
7.4282529e-19
7.4461744e-19
7.4627514e-19
7.4443908e-19
7.2101068e-19
5.8710694e-19
1.8143288e-19
1.6561929e-22
6.0693271e-24
1.0919888e-20
3.8369247e-20
4.7814725e-20
4.9500475e-20
4.9648207e-20
4.9541627e-20
4.9421042e-20
4.9334345e-20
4.9290056e-20
4.9289242e-20
4.9331962e-20
4.941728e-20
4.9536745e-20
4.9642438e-20
4.9494011e-20
4.780785e-20
3.8363264e-20
1.0918014e-20
6.0681159e-24
2.0997041e-25
6.2078644e-22
2.3686049e-21
2.9952758e-21
3.1092518e-21
3.1202235e-21
3.1138458e-21
3.1062786e-21
3.1007866e-21
3.0979726e-21
3.0979205e-21
3.1006338e-21
3.1060367e-21
3.1135307e-21
3.1198495e-21
3.1088305e-21
2.9948259e-21
2.3682159e-21
6.2067356e-22
2.0992639e-25
6.873042e-27
3.3412345e-23
1.3844111e-22
1.7765701e-22
1.8491734e-22
1.8567235e-22
1.8531351e-22
1.8486518e-22
1.8453672e-22
1.8436789e-22
1.8436468e-22
1.845273e-22
1.8485025e-22
1.85294e-22
1.8564913e-22
1.8489112e-22
1.7762901e-22
1.3841716e-22
3.3405932e-23
6.8715342e-27
2.1327564e-28
1.7059755e-24
7.6765328e-24
9.9968292e-24
1.043368e-23
1.0482141e-23
1.0463116e-23
1.0437972e-23
1.0419371e-23
1.040978e-23
1.0409588e-23
1.0418808e-23
1.0437077e-23
1.0461945e-23
1.0480744e-23
1.0432102e-23
9.9951496e-24
7.6751176e-24
1.7056272e-24
2.1322628e-28
6.284775e-30
8.2778609e-26
4.0455137e-25
5.3463442e-25
5.595192e-25
5.6243544e-25
5.6148347e-25
5.6014532e-25
5.591457e-25
5.5862841e-25
5.5861727e-25
5.5911297e-25
5.6009322e-25
5.6141509e-25
5.6235371e-25
5.594269e-25
5.3453663e-25
4.0447043e-25
8.2760349e-26
6.2832156e-30
1.7614907e-31
3.8233685e-27
2.0295301e-26
2.7218893e-26
2.8563647e-26
2.8728851e-26
2.8683842e-26
2.8616134e-26
2.8565046e-26
2.8538511e-26
2.8537886e-26
2.8563208e-26
2.86132e-26
2.8679978e-26
2.872422e-26
2.8558414e-26
2.7213373e-26
2.0290816e-26
3.8224424e-27
1.761014e-31
4.7025659e-33
1.6834163e-28
9.7065746e-28
1.3211065e-27
1.3901701e-27
1.3990098e-27
1.3969978e-27
1.3937351e-27
1.391248e-27
1.3899512e-27
1.3899176e-27
1.391149e-27
1.3935766e-27
1.3967884e-27
1.3987578e-27
1.3898849e-27
1.3208065e-27
9.7041795e-28
1.6829634e-28
4.7011613e-33
1.1973362e-34
7.0750001e-30
4.4315717e-29
6.1211234e-29
6.458767e-29
6.5035671e-29
6.4950637e-29
6.480067e-29
6.4685166e-29
6.4624709e-29
6.4622993e-29
6.4680105e-29
6.479254e-29
6.4939838e-29
6.5022622e-29
6.4572852e-29
6.1195666e-29
4.4303481e-29
7.0728789e-30
1.1969732e-34
2.9133395e-36
2.8416233e-31
1.9336884e-30
2.7106012e-30
2.8679635e-30
2.8895193e-30
2.8861234e-30
2.8795406e-30
2.8744169e-30
2.8717248e-30
2.871642e-30
2.8741723e-30
2.8791464e-30
2.8855973e-30
2.8888803e-30
2.8672349e-30
2.7098355e-30
1.9330946e-30
2.840678e-31
2.913046e-36
6.8172272e-38
1.0918833e-32
8.0726529e-32
1.1484316e-31
1.2184383e-31
1.2283047e-31
1.2270253e-31
1.2242625e-31
1.222089e-31
1.220943e-31
1.2209054e-31
1.2219777e-31
1.2240824e-31
1.2267839e-31
1.22801e-31
1.2181006e-31
1.1480762e-31
8.0699303e-32
1.0914842e-32
6.7691834e-38
1.5403674e-39
4.0176629e-34
3.2274893e-33
4.6597964e-33
4.9574299e-33
5.000463e-33
4.9959277e-33
4.9848299e-33
4.976005e-33
4.9713357e-33
4.9711749e-33
4.9755283e-33
4.9840562e-33
4.9948855e-33
4.9991838e-33
4.9559571e-33
4.6582432e-33
3.2263128e-33
4.0160728e-34
1.5049016e-39
3.3809424e-41
1.416884e-35
1.2368231e-34
1.8122842e-34
1.933338e-34
1.9512499e-34
1.9497447e-34
1.9454742e-34
1.9420412e-34
1.940219e-34
1.9401542e-34
1.9418488e-34
1.9451611e-34
1.949321e-34
1.9507273e-34
1.9327335e-34
1.8116453e-34
1.2363443e-34
1.4162868e-35
3.2037317e-41
7.2637506e-43
4.7928764e-37
4.5465476e-36
6.7611424e-36
7.2325923e-36
7.3038337e-36
7.2991948e-36
7.2834396e-36
7.2706338e-36
7.263817e-36
7.2635705e-36
7.2699012e-36
7.2822437e-36
7.2975706e-36
7.3018212e-36
7.2302542e-36
6.7586665e-36
4.5447121e-36
4.7907625e-37
6.5362501e-43
1.538926e-44
1.5561871e-38
1.6043133e-37
2.4213078e-37
2.5972683e-37
2.6243743e-37
2.6230668e-37
2.6174899e-37
2.612906e-37
2.6104594e-37
2.6103706e-37
2.6126419e-37
2.6170579e-37
2.6224781e-37
2.6236421e-37
2.5964146e-37
2.4204026e-37
1.6036496e-37
1.5554813e-38
1.2788868e-44
3.2237038e-46
4.8528951e-40
5.437499e-39
8.328853e-39
8.9587075e-39
9.0574649e-39
9.0541976e-39
9.0352451e-39
9.0194888e-39
9.0110581e-39
9.0107549e-39
9.0185858e-39
9.0337649e-39
9.0521756e-39
9.0549429e-39
8.9557594e-39
8.3257249e-39
5.435232e-39
4.8506694e-40
2.4012508e-46
6.6155336e-48
1.4542961e-41
1.7711304e-40
2.7533679e-40
2.9697385e-40
3.0042226e-40
3.0035533e-40
2.9973662e-40
2.9921624e-40
2.9893715e-40
2.989273e-40
2.9918687e-40
2.9968841e-40
3.0028938e-40
3.0033985e-40
2.9687737e-40
2.7523444e-40
1.7703976e-40
1.453632e-41
4.328974e-48
1.2867004e-49
4.1901352e-43
5.5469353e-42
8.7517916e-42
9.4655354e-42
9.5810237e-42
9.5802155e-42
9.5608029e-42
9.544281e-42
9.5353998e-42
9.5350944e-42
9.5433703e-42
9.5593074e-42
9.5781683e-42
9.5784639e-42
9.4625372e-42
8.7486147e-42
5.5446893e-42
4.1882578e-43
7.4969692e-50
2.1498802e-51
1.1612067e-44
1.6710501e-43
2.6758751e-43
2.9020759e-43
2.9391961e-43
2.9393563e-43
2.9334998e-43
2.9284546e-43
2.9257365e-43
2.925646e-43
2.9281847e-43
2.9330569e-43
2.9387504e-43
2.9384391e-43
2.9011898e-43
2.6749382e-43
1.6703962e-43
1.1607031e-44
1.2477395e-51
3.0890926e-53
3.0963771e-46
4.8441309e-45
7.8727633e-45
8.5618042e-45
8.6763768e-45
8.6780568e-45
8.661062e-45
8.6462382e-45
8.6382344e-45
8.6379776e-45
8.6454731e-45
8.6598077e-45
8.6763443e-45
8.6742417e-45
8.559311e-45
7.8701348e-45
4.8423211e-45
3.0950936e-46
1.9964437e-53
4.3654499e-55
7.946775e-48
1.3516458e-46
2.2295238e-46
2.4313417e-46
2.4653162e-46
2.4661371e-46
2.4613917e-46
2.4571994e-46
2.4549308e-46
2.4548609e-46
2.4569915e-46
2.4610516e-46
2.4656743e-46
2.4647413e-46
2.4306731e-46
2.2288219e-46
1.3511692e-46
7.9436614e-48
3.0719499e-55
6.0390446e-57
1.9634372e-49
3.6310605e-48
6.0789201e-48
6.6474869e-48
6.7443166e-48
6.7475034e-48
6.7347493e-48
6.7233337e-48
6.7171427e-48
6.7169604e-48
6.7227918e-48
6.7338653e-48
6.7463054e-48
6.7428373e-48
6.645777e-48
6.0771357e-48
3.6298664e-48
1.9627182e-49
4.5465307e-57
8.1465559e-59
4.6707745e-51
9.392891e-50
1.5960632e-49
1.7501788e-49
1.7767145e-49
1.7778025e-49
1.7745025e-49
1.7715089e-49
1.7698817e-49
1.769836e-49
1.7713732e-49
1.7742819e-49
1.7775052e-49
1.7763503e-49
1.7497615e-49
1.5956312e-49
9.3900443e-50
4.6691944e-51
6.472872e-59
)
;

boundaryField
{
    Wall
    {
        type            zeroGradient;
    }
    frontAndBack
    {
        type            empty;
    }
    atmosphere
    {
        type            zeroGradient;
    }
}


// ************************************************************************* //
