/*--------------------------------*- C++ -*----------------------------------*\
| =========                 |                                                 |
| \\      /  F ield         | OpenFOAM: The Open Source CFD Toolbox           |
|  \\    /   O peration     | Version:  3.0.1                                 |
|   \\  /    A nd           | Web:      www.OpenFOAM.org                      |
|    \\/     M anipulation  |                                                 |
\*---------------------------------------------------------------------------*/
FoamFile
{
    version     2.0;
    format      ascii;
    class       volScalarField;
    location    "7";
    object      wCO2_l;
}
// * * * * * * * * * * * * * * * * * * * * * * * * * * * * * * * * * * * * * //

dimensions      [0 0 0 0 0 0 0];

internalField   nonuniform List<scalar> 
800
(
0.0028379295
0.0028378168
0.0028377867
0.0028377708
0.0028377594
0.0028377509
0.0028377448
0.0028377405
0.0028377379
0.0028377366
0.0028377366
0.0028377379
0.0028377406
0.0028377448
0.0028377509
0.0028377594
0.0028377708
0.0028377867
0.0028378168
0.0028379296
0.0030695288
0.0030697946
0.0030698265
0.003069841
0.0030698618
0.0030698767
0.003069887
0.003069894
0.0030698982
0.0030699003
0.0030699003
0.0030698982
0.003069894
0.003069887
0.0030698767
0.0030698618
0.003069841
0.0030698265
0.0030697946
0.0030695289
0.0019996072
0.0020514131
0.0020513502
0.0020511214
0.0020508463
0.0020506355
0.0020504815
0.0020503742
0.0020503064
0.0020502738
0.0020502738
0.0020503066
0.0020503744
0.0020504818
0.0020506359
0.0020508467
0.0020511217
0.0020513506
0.0020514135
0.0019996076
0.00041561977
0.0004332986
0.00043357792
0.00043339053
0.00043326664
0.0004331747
0.00043310759
0.00043306111
0.00043303186
0.00043301764
0.00043301764
0.00043303188
0.00043306115
0.00043310764
0.00043317477
0.00043326673
0.00043339069
0.00043357804
0.00043329872
0.00041561995
7.1284937e-05
8.9935395e-05
9.2699834e-05
9.3066697e-05
9.3080563e-05
9.3054316e-05
9.3030856e-05
9.3014342e-05
9.3004027e-05
9.2998974e-05
9.2998956e-05
9.300398e-05
9.3014277e-05
9.3030775e-05
9.3054217e-05
9.3080434e-05
9.3066514e-05
9.2699573e-05
8.9935079e-05
7.1284635e-05
9.136452e-06
1.8319124e-05
2.0292257e-05
2.06114e-05
2.0644304e-05
2.0637261e-05
2.0627977e-05
2.06212e-05
2.0616997e-05
2.0614969e-05
2.0614957e-05
2.0616963e-05
2.0621149e-05
2.062791e-05
2.0637176e-05
2.0644195e-05
2.061125e-05
2.0292054e-05
1.8318891e-05
9.1362889e-06
9.8895015e-07
3.4462738e-06
4.1797115e-06
4.3117216e-06
4.3272951e-06
4.3253764e-06
4.3220709e-06
4.3195852e-06
4.3180354e-06
4.3172909e-06
4.3172855e-06
4.31802e-06
4.3195617e-06
4.3220404e-06
4.3253382e-06
4.3272461e-06
4.3116556e-06
4.1796256e-06
3.4461815e-06
9.8891189e-07
9.5232391e-08
5.6656832e-07
7.5235562e-07
7.8845944e-07
7.9295499e-07
7.9249216e-07
7.9158375e-07
7.9088457e-07
7.9044413e-07
7.9023207e-07
7.9023038e-07
7.9043921e-07
7.9087704e-07
7.9157406e-07
7.9248024e-07
7.9294006e-07
7.884399e-07
7.5233092e-07
5.6654401e-07
9.5226661e-08
8.0583009e-09
8.0074954e-08
1.1609395e-07
1.2355435e-07
1.2452236e-07
1.2443608e-07
1.2424523e-07
1.2409477e-07
1.2399877e-07
1.2395231e-07
1.2395189e-07
1.2399757e-07
1.2409293e-07
1.2424289e-07
1.2443328e-07
1.2451897e-07
1.2355008e-07
1.1608876e-07
8.0070324e-08
8.0576759e-09
5.9818948e-10
9.7729959e-09
1.5424702e-08
1.6663327e-08
1.683054e-08
1.6818453e-08
1.678688e-08
1.6761335e-08
1.6744814e-08
1.6736765e-08
1.6736684e-08
1.674458e-08
1.6760977e-08
1.678643e-08
1.6817927e-08
1.6829928e-08
1.6662592e-08
1.5423854e-08
9.7723186e-09
5.9813634e-10
3.9191967e-11
1.0414013e-09
1.7850794e-09
1.956772e-09
1.980881e-09
1.9796187e-09
1.975361e-09
1.9718201e-09
1.969499e-09
1.9683603e-09
1.9683474e-09
1.9694615e-09
1.9717629e-09
1.9752898e-09
1.9795371e-09
1.9807894e-09
1.9566676e-09
1.7849662e-09
1.0413208e-09
3.9188234e-11
2.2842515e-12
9.7984178e-11
1.8208823e-10
2.0248425e-10
2.0545989e-10
2.0536714e-10
2.0488501e-10
2.0447232e-10
2.0419829e-10
2.0406295e-10
2.0406121e-10
2.0419325e-10
2.0446463e-10
2.0487546e-10
2.0535635e-10
2.0544811e-10
2.0247142e-10
1.8207518e-10
9.7975962e-11
2.2840224e-12
1.1933682e-13
8.220513e-12
1.6540558e-11
1.8655652e-11
1.8975594e-11
1.8972286e-11
1.8925357e-11
1.888397e-11
1.8856153e-11
1.884233e-11
1.8842131e-11
1.8855578e-11
1.8883088e-11
1.8924261e-11
1.897105e-11
1.8974266e-11
1.8654253e-11
1.6539212e-11
8.2197592e-12
1.1932396e-13
5.6263293e-15
6.2004072e-13
1.349509e-12
1.5435925e-12
1.5739528e-12
1.5742305e-12
1.5702337e-12
1.566598e-12
1.5641265e-12
1.5628914e-12
1.5628719e-12
1.5640699e-12
1.5665109e-12
1.5701249e-12
1.5741075e-12
1.573821e-12
1.5434559e-12
1.3493826e-12
6.1997698e-13
5.6256539e-15
2.4079829e-16
4.2336062e-14
9.9596612e-14
1.1551978e-13
1.1808859e-13
1.1815756e-13
1.1785562e-13
1.1757195e-13
1.1737707e-13
1.1727921e-13
1.1727755e-13
1.1737225e-13
1.1756449e-13
1.1784622e-13
1.1814685e-13
1.1807706e-13
1.1550786e-13
9.9585815e-14
4.2331091e-14
2.4076531e-16
9.4031001e-18
2.6320053e-15
6.6886667e-15
7.8663328e-15
8.0617526e-15
8.0700913e-15
8.0496424e-15
8.0297706e-15
8.0159825e-15
8.0090295e-15
8.0089062e-15
8.0156233e-15
8.0292111e-15
8.0489315e-15
8.0692729e-15
8.0608626e-15
7.8654068e-15
6.6878366e-15
2.6316519e-15
9.4016284e-18
3.3650279e-19
1.4972093e-16
4.1081036e-16
4.8985366e-16
5.0331282e-16
5.0407595e-16
5.0282407e-16
5.0156344e-16
5.0068046e-16
5.0023357e-16
5.0022545e-16
5.0065675e-16
5.0152631e-16
5.0277651e-16
5.0402065e-16
5.0325199e-16
4.8978978e-16
4.1075327e-16
1.496983e-16
3.3644365e-19
1.1077912e-20
7.8256085e-18
2.3174237e-17
2.8015467e-17
2.8859577e-17
2.8917908e-17
2.8848171e-17
2.8775248e-17
2.8723705e-17
2.8697535e-17
2.8697056e-17
2.8722303e-17
2.8773042e-17
2.8845325e-17
2.891457e-17
2.8855866e-17
2.8011531e-17
2.3170723e-17
7.8243075e-18
1.1075782e-20
3.3659562e-22
3.7718618e-19
1.2050944e-18
1.4769287e-18
1.5253734e-18
1.5292526e-18
1.5256991e-18
1.5218309e-18
1.5190725e-18
1.5176679e-18
1.5176422e-18
1.518997e-18
1.5217117e-18
1.5255444e-18
1.5290699e-18
1.5251686e-18
1.4767099e-18
1.2048994e-18
3.7711876e-19
3.3652651e-22
9.466256e-24
1.6816741e-20
5.7950435e-20
7.1998434e-20
7.4553337e-20
7.4782771e-20
7.461644e-20
7.4427431e-20
7.4291453e-20
7.4222022e-20
7.422074e-20
7.428769e-20
7.4421472e-20
7.4608682e-20
7.4773559e-20
7.4542957e-20
7.198729e-20
5.7940561e-20
1.6813557e-20
9.464214e-24
2.4702348e-25
6.9540733e-22
2.5840122e-21
3.2544218e-21
3.3786842e-21
3.390919e-21
3.383743e-21
3.375203e-21
3.3690047e-21
3.3658309e-21
3.3657709e-21
3.3688283e-21
3.3749231e-21
3.3833776e-21
3.3904837e-21
3.3781925e-21
3.2538937e-21
2.5835486e-21
6.9526843e-22
2.4696773e-25
5.9939376e-27
2.6733309e-23
1.0709197e-22
1.367218e-22
1.4231263e-22
1.4290639e-22
1.4262028e-22
1.4226236e-22
1.4200027e-22
1.4186566e-22
1.4186299e-22
1.4199241e-22
1.4224988e-22
1.4260393e-22
1.4288688e-22
1.4229058e-22
1.3669817e-22
1.0707153e-22
2.6727635e-23
5.9925117e-27
1.3548555e-28
9.5730012e-25
4.1335841e-24
5.3493584e-24
5.5826689e-24
5.6090707e-24
5.5985068e-24
5.5845573e-24
5.5742493e-24
5.5689387e-24
5.5688255e-24
5.5739162e-24
5.5840267e-24
5.5978103e-24
5.6082376e-24
5.5817269e-24
5.348354e-24
4.1327295e-24
9.5708097e-25
1.3545105e-28
2.8572985e-30
3.1986606e-26
1.4885523e-25
1.9526752e-25
2.0431858e-25
2.0539977e-25
2.0503805e-25
2.0453139e-25
2.0415352e-25
2.0395819e-25
2.0395365e-25
2.0414013e-25
2.0451001e-25
2.0500988e-25
2.05366e-25
2.0428037e-25
1.9522696e-25
1.4882132e-25
3.1978584e-26
2.8565065e-30
5.6294843e-32
9.9872337e-28
5.0086319e-27
6.6600573e-27
6.9871118e-27
7.0280517e-27
7.0165541e-27
6.9993745e-27
6.9864411e-27
6.9797323e-27
6.9795609e-27
6.9859357e-27
6.9985646e-27
7.0154829e-27
7.0267621e-27
6.9856501e-27
6.6585106e-27
5.0073604e-27
9.9844583e-28
5.6277659e-32
1.0372981e-33
2.9175072e-29
1.5766795e-28
2.1252153e-28
2.2354762e-28
2.2498558e-28
2.2464623e-28
2.2410165e-28
2.2368774e-28
2.2347227e-28
2.2346625e-28
2.2366995e-28
2.2407305e-28
2.2460823e-28
2.2493963e-28
2.2349537e-28
2.1246633e-28
1.5762325e-28
2.9166057e-29
1.0369521e-33
1.7895493e-35
7.981979e-31
4.6483599e-30
6.3514709e-30
6.6987844e-30
6.7457539e-30
6.7364553e-30
6.7202981e-30
6.707898e-30
6.7014209e-30
6.7012249e-30
6.7073182e-30
6.7193628e-30
6.7352065e-30
6.7442359e-30
6.6970515e-30
6.3496395e-30
4.6468964e-30
7.9792477e-31
1.7890121e-35
2.896901e-37
2.046921e-32
1.2846075e-31
1.7794351e-31
1.881775e-31
1.8960723e-31
1.8937094e-31
1.8892185e-31
1.8857377e-31
1.8839136e-31
1.8838547e-31
1.8855632e-31
1.8889361e-31
1.8933305e-31
1.8956093e-31
1.881244e-31
1.7788733e-31
1.2841637e-31
2.0461531e-32
2.8902327e-37
4.4049241e-39
4.9234325e-34
3.3301603e-33
4.6767613e-33
4.9591401e-33
4.9997662e-33
4.9942089e-33
4.9825057e-33
4.9733437e-33
4.9685274e-33
4.9683643e-33
4.9728596e-33
4.9817193e-33
4.993149e-33
4.9984643e-33
4.9576397e-33
4.6751709e-33
3.3289176e-33
4.9214362e-34
4.3760672e-39
6.2999447e-41
1.1112886e-35
8.1026647e-35
1.1537672e-34
1.2267891e-34
1.2375805e-34
1.2363749e-34
1.2335139e-34
1.2312511e-34
1.2300582e-34
1.2300165e-34
1.2311271e-34
1.2333119e-34
1.2361015e-34
1.2372429e-34
1.2263983e-34
1.1533522e-34
8.0994551e-35
1.1108096e-35
6.2118993e-41
8.4878852e-43
2.35467e-37
1.8511588e-36
2.6730004e-36
2.850099e-36
2.876926e-36
2.8745274e-36
2.8679633e-36
2.8627173e-36
2.8599445e-36
2.859846e-36
2.862424e-36
2.867484e-36
2.873876e-36
2.8761181e-36
2.8491596e-36
2.6720011e-36
1.8503942e-36
2.3536097e-37
8.2688603e-43
1.0788519e-44
4.6845938e-39
3.9723292e-38
5.8174914e-38
6.2205556e-38
6.2830321e-38
6.2786987e-38
6.2645604e-38
6.2531387e-38
6.2470871e-38
6.2468714e-38
6.2524958e-38
6.2635074e-38
6.2772628e-38
6.2812445e-38
6.2184695e-38
5.8152699e-38
3.9706477e-38
4.6824279e-39
1.0322294e-44
1.2943422e-46
8.7517387e-41
8.0079166e-40
1.1896909e-39
1.275819e-39
1.2894607e-39
1.2887626e-39
1.2859033e-39
1.2835674e-39
1.2823269e-39
1.2822831e-39
1.2834366e-39
1.2856887e-39
1.2884692e-39
1.2890943e-39
1.2753904e-39
1.1892343e-39
8.0044998e-40
8.7476525e-41
1.2083269e-46
1.4625143e-48
1.5352956e-42
1.5167556e-41
2.2864727e-41
2.4593396e-41
2.4872863e-41
2.4863218e-41
2.4808917e-41
2.4764034e-41
2.4740148e-41
2.473932e-41
2.4761561e-41
2.4804853e-41
2.4857651e-41
2.4865897e-41
2.4585232e-41
2.2856036e-41
1.5161132e-41
1.5345828e-42
1.3261157e-48
1.5424534e-50
2.5288272e-44
2.6993135e-43
4.1302779e-43
4.4562953e-43
4.5100464e-43
4.5090195e-43
4.4993366e-43
4.4912335e-43
4.4869117e-43
4.4867658e-43
4.4907977e-43
4.4986198e-43
4.508037e-43
4.508816e-43
4.4548524e-43
4.1287441e-43
2.6981945e-43
2.5276761e-44
1.3640317e-50
1.4771374e-52
3.9101856e-46
4.5137191e-45
7.0131012e-45
7.5910579e-45
7.688177e-45
7.6877178e-45
7.6715066e-45
7.6577602e-45
7.6504124e-45
7.6501725e-45
7.6570435e-45
7.6703277e-45
7.6861025e-45
7.6861548e-45
7.5886881e-45
7.0105885e-45
4.511911e-45
3.9084632e-46
1.3143784e-52
1.2894352e-54
5.6744739e-48
7.0918049e-47
1.1194334e-46
1.2157836e-46
1.2322786e-46
1.232424e-46
1.2298762e-46
1.2276848e-46
1.2265108e-46
1.2264739e-46
1.2275747e-46
1.2296952e-46
1.2321763e-46
1.2319691e-46
1.2154215e-46
1.1190509e-46
7.0890923e-47
5.6720842e-48
1.1858478e-54
1.0637079e-56
7.7266637e-50
1.0469606e-48
1.6799867e-48
1.8311075e-48
1.8574608e-48
1.8580323e-48
1.8542743e-48
1.8509913e-48
1.849228e-48
1.849175e-48
1.8508329e-48
1.8540143e-48
1.8576776e-48
1.857019e-48
1.8305927e-48
1.6794454e-48
1.0465828e-48
7.7235879e-50
1.0010715e-56
8.2608068e-59
9.8692377e-52
1.4524372e-50
2.3710435e-50
2.5941875e-50
2.6338249e-50
2.6351737e-50
2.6299723e-50
2.6253495e-50
2.6228599e-50
2.6227884e-50
2.6251363e-50
2.6296231e-50
2.634699e-50
2.6332365e-50
2.5935056e-50
2.3703315e-50
1.4519485e-50
9.8655671e-52
7.9011455e-59
6.0213872e-61
1.1822298e-53
1.8938858e-52
3.1483021e-52
3.4587611e-52
3.5149465e-52
3.5175295e-52
3.5107758e-52
3.5046562e-52
3.5013505e-52
3.5012601e-52
3.5043871e-52
3.5103362e-52
3.5169347e-52
3.5142143e-52
3.4579194e-52
3.1474311e-52
1.8932992e-52
1.1818239e-53
5.8253454e-61
)
;

boundaryField
{
    Wall
    {
        type            zeroGradient;
    }
    frontAndBack
    {
        type            empty;
    }
    atmosphere
    {
        type            zeroGradient;
    }
}


// ************************************************************************* //
