/*--------------------------------*- C++ -*----------------------------------*\
| =========                 |                                                 |
| \\      /  F ield         | OpenFOAM: The Open Source CFD Toolbox           |
|  \\    /   O peration     | Version:  3.0.1                                 |
|   \\  /    A nd           | Web:      www.OpenFOAM.org                      |
|    \\/     M anipulation  |                                                 |
\*---------------------------------------------------------------------------*/
FoamFile
{
    version     2.0;
    format      ascii;
    class       volScalarField;
    location    "7";
    object      wCO2_g;
}
// * * * * * * * * * * * * * * * * * * * * * * * * * * * * * * * * * * * * * //

dimensions      [0 0 0 0 0 0 0];

internalField   nonuniform List<scalar> 
800
(
0.0009339376
0.00093386679
0.00093384456
0.00093383587
0.00093383006
0.00093382569
0.0009338225
0.00093382027
0.00093381885
0.00093381816
0.00093381817
0.00093381885
0.00093382027
0.0009338225
0.0009338257
0.00093383007
0.00093383588
0.00093384457
0.0009338668
0.00093393761
0.00048087818
0.00048136595
0.00048154731
0.00048166147
0.00048173356
0.00048178052
0.00048181182
0.0004818325
0.0004818452
0.00048185126
0.00048185125
0.00048184518
0.00048183246
0.00048181176
0.00048178046
0.00048173348
0.00048166138
0.00048154723
0.00048136585
0.00048087808
0.00011524154
0.0001165157
0.00011652358
0.00011651338
0.00011649589
0.0001164812
0.00011647002
0.00011646209
0.00011645704
0.0001164546
0.0001164546
0.00011645705
0.00011646211
0.00011647004
0.00011648122
0.00011649592
0.0001165134
0.00011652361
0.00011651573
0.00011524156
1.8429227e-05
1.8822124e-05
1.8821435e-05
1.8809349e-05
1.8802168e-05
1.8796946e-05
1.8793139e-05
1.8790497e-05
1.8788832e-05
1.8788025e-05
1.8788026e-05
1.8788834e-05
1.8790501e-05
1.8793145e-05
1.8796952e-05
1.8802175e-05
1.8809362e-05
1.8821448e-05
1.8822137e-05
1.8429244e-05
2.3371782e-06
2.9133781e-06
3.0059254e-06
3.0185575e-06
3.0188824e-06
3.0178112e-06
3.0168723e-06
3.0162094e-06
3.0157937e-06
3.0155909e-06
3.0155905e-06
3.0157927e-06
3.0162081e-06
3.0168707e-06
3.0178093e-06
3.0188797e-06
3.0185533e-06
3.0059193e-06
2.913371e-06
2.3371714e-06
2.243348e-07
4.5687952e-07
5.1035171e-07
5.193735e-07
5.2034536e-07
5.2016322e-07
5.1990891e-07
5.1972106e-07
5.1960375e-07
5.1954716e-07
5.1954691e-07
5.1960301e-07
5.1971995e-07
5.1990746e-07
5.2016137e-07
5.2034291e-07
5.1937013e-07
5.1034722e-07
4.5687448e-07
2.2433138e-07
1.9344179e-08
7.1070427e-08
8.7651454e-08
9.0755415e-08
9.1139465e-08
9.1105645e-08
9.10354e-08
9.0981673e-08
9.0947964e-08
9.0931757e-08
9.0931656e-08
9.0947668e-08
9.0981218e-08
9.1034807e-08
9.1104897e-08
9.1138497e-08
9.0754118e-08
8.7649783e-08
7.1068687e-08
1.9343501e-08
1.6065738e-09
1.0381885e-08
1.4100005e-08
1.4848254e-08
1.4945328e-08
1.493862e-08
1.4921875e-08
1.4908765e-08
1.4900463e-08
1.4896462e-08
1.4896432e-08
1.4900376e-08
1.4908631e-08
1.4921702e-08
1.4938407e-08
1.4945059e-08
1.4847904e-08
1.4099568e-08
1.0381469e-08
1.6064839e-09
1.2587343e-10
1.3863671e-09
2.0624952e-09
2.2068461e-09
2.2261865e-09
2.2250321e-09
2.2217368e-09
2.219098e-09
2.2174068e-09
2.2165873e-09
2.2165803e-09
2.2173863e-09
2.2190666e-09
2.2216968e-09
2.2249839e-09
2.2261281e-09
2.2067729e-09
2.0624075e-09
1.3862917e-09
1.2586423e-10
9.170188e-12
1.6823686e-10
2.7292048e-10
2.9646373e-10
2.997166e-10
2.9955967e-10
2.9901954e-10
2.9857629e-10
2.9828846e-10
2.9814806e-10
2.9814667e-10
2.9828445e-10
2.9857015e-10
2.9901182e-10
2.9955064e-10
2.9970608e-10
2.9645117e-10
2.7290618e-10
1.6822584e-10
9.1694143e-12
6.183228e-13
1.8605053e-11
3.2802937e-11
3.6153293e-11
3.6631044e-11
3.6615054e-11
3.6539596e-11
3.6476013e-11
3.6434178e-11
3.6413627e-11
3.6413395e-11
3.6433506e-11
3.6474988e-11
3.6538319e-11
3.661359e-11
3.6629402e-11
3.6151432e-11
3.2800948e-11
1.8603691e-11
6.1826663e-13
3.8590227e-14
1.8848253e-12
3.6036168e-12
4.0282011e-12
4.0907021e-12
4.0896603e-12
4.0804701e-12
4.0725061e-12
4.0671992e-12
4.0645747e-12
4.064541e-12
4.0671018e-12
4.0723573e-12
4.0802852e-12
4.0894512e-12
4.0904739e-12
4.0279541e-12
3.6033693e-12
1.8846754e-12
3.8586523e-14
2.2339829e-15
1.7587111e-13
3.6406474e-13
4.1265618e-13
4.2003437e-13
4.2003909e-13
4.1904498e-13
4.1815789e-13
4.1755963e-13
4.1726191e-13
4.1725762e-13
4.1754723e-13
4.1813888e-13
4.1902133e-13
4.2001244e-13
4.2000573e-13
4.1262615e-13
3.6403628e-13
1.7585577e-13
2.2337515e-15
1.2030922e-16
1.519141e-14
3.4011811e-14
3.9085207e-14
3.9878601e-14
3.9892392e-14
3.979549e-14
3.9706332e-14
3.9645526e-14
3.9615096e-14
3.9614614e-14
3.964413e-14
3.9704183e-14
3.9792801e-14
3.988935e-14
3.9875343e-14
3.9081843e-14
3.4008742e-14
1.518992e-14
1.2029527e-16
6.0467286e-18
1.220322e-15
2.9526512e-15
3.4397246e-15
3.5180239e-15
3.5206058e-15
3.5119974e-15
3.5038194e-15
3.498183e-15
3.4953484e-15
3.4953002e-15
3.4980431e-15
3.5036027e-15
3.5117242e-15
3.5202944e-15
3.5176885e-15
3.4393788e-15
2.9523424e-15
1.2201847e-15
6.0459252e-18
2.8452248e-19
9.1540006e-17
2.3921981e-16
2.8249127e-16
2.8962765e-16
2.8996434e-16
2.8926118e-16
2.8857033e-16
2.8808946e-16
2.8784658e-16
2.8784226e-16
2.8807687e-16
2.8855073e-16
2.8923626e-16
2.8993564e-16
2.8959643e-16
2.8245888e-16
2.3919111e-16
9.1528193e-17
2.8447914e-19
1.2571515e-20
6.4358087e-18
1.8156734e-17
2.1732845e-17
2.2336755e-17
2.2372968e-17
2.2319785e-17
2.2265644e-17
2.2227602e-17
2.2208316e-17
2.2207965e-17
2.2226576e-17
2.2264038e-17
2.2317727e-17
2.2370574e-17
2.2334121e-17
2.1730084e-17
1.8154292e-17
6.4348713e-18
1.256936e-20
5.2304559e-22
4.2547423e-19
1.2953795e-18
1.5715419e-18
1.6192127e-18
1.6226165e-18
1.6188708e-18
1.6149112e-18
1.6121035e-18
1.6106754e-18
1.6106492e-18
1.6120268e-18
1.6147905e-18
1.6187152e-18
1.6224338e-18
1.6190096e-18
1.571327e-18
1.2951893e-18
4.2540598e-19
5.229474e-22
2.0543692e-23
2.6527116e-20
8.7131183e-20
1.0713589e-19
1.1066013e-19
1.1094775e-19
1.1070099e-19
1.1042941e-19
1.1023511e-19
1.1013599e-19
1.1013417e-19
1.1022977e-19
1.1042098e-19
1.1069006e-19
1.1093484e-19
1.1064565e-19
1.0712045e-19
8.7117537e-20
2.6522538e-20
2.0539575e-23
7.6350766e-25
1.5638215e-21
5.5401793e-21
6.904022e-21
7.148896e-21
7.1711147e-21
7.1558508e-21
7.1383112e-21
7.125651e-21
7.1191741e-21
7.1190541e-21
7.125299e-21
7.1377542e-21
7.1551255e-21
7.1702537e-21
7.147926e-21
6.9029828e-21
5.5392657e-21
1.5635356e-21
7.6334693e-25
2.6906784e-26
8.7373531e-23
3.3379532e-22
4.2156234e-22
4.3760324e-22
4.3918968e-22
4.3830052e-22
4.3723025e-22
4.3645081e-22
4.3605087e-22
4.3604326e-22
4.3642849e-22
4.3719486e-22
4.3825432e-22
4.3913469e-22
4.3754114e-22
4.2149579e-22
3.3373736e-22
8.735668e-23
2.6900859e-26
9.0085891e-28
4.6363781e-24
1.9097093e-23
2.4442163e-23
2.5435531e-23
2.5541056e-23
2.5492157e-23
2.5430274e-23
2.5384799e-23
2.5361392e-23
2.5360924e-23
2.5383424e-23
2.5428091e-23
2.5489301e-23
2.5537649e-23
2.5431682e-23
2.4438051e-23
1.909356e-23
4.6354272e-24
9.0064978e-28
2.8704763e-29
2.3410039e-25
1.0394749e-24
1.3482359e-24
1.4065316e-24
1.4131093e-24
1.4105657e-24
1.4071669e-24
1.4046463e-24
1.4033446e-24
1.4033166e-24
1.404564e-24
1.4070359e-24
1.4103937e-24
1.4129038e-24
1.4062994e-24
1.347989e-24
1.0392663e-24
2.3404854e-25
2.8697623e-29
8.7184268e-31
1.1266406e-26
5.3921895e-26
7.0873878e-26
7.4122801e-26
7.4508801e-26
7.4383456e-26
7.4205779e-26
7.4072772e-26
7.400384e-26
7.4002216e-26
7.4067996e-26
7.4198157e-26
7.4373422e-26
7.4496779e-26
7.4109212e-26
7.0859486e-26
5.3909948e-26
1.1263667e-26
8.7160627e-31
2.5277237e-32
5.175959e-28
2.6698715e-27
3.5560754e-27
3.7283612e-27
3.7497653e-27
3.7439077e-27
3.7350506e-27
3.7283571e-27
3.7248755e-27
3.7247852e-27
3.7280914e-27
3.7346253e-27
3.7433455e-27
3.7490891e-27
3.7275953e-27
3.5552667e-27
2.669211e-27
5.1745617e-28
2.5269674e-32
7.0047139e-34
2.2730807e-29
1.2635499e-28
1.7053897e-28
1.7924672e-28
1.8037166e-28
1.8011191e-28
1.7969024e-28
1.793685e-28
1.7920053e-28
1.7919576e-28
1.7935444e-28
1.7966765e-28
1.8008191e-28
1.8033541e-28
1.7920555e-28
1.7049553e-28
1.2632001e-28
2.272397e-29
7.0025448e-34
1.8583671e-35
9.5542228e-31
5.7228766e-30
7.826868e-30
8.2469858e-30
8.3031656e-30
8.2922339e-30
8.2730359e-30
8.2582442e-30
8.2504939e-30
8.2502555e-30
8.25754e-30
8.2719009e-30
8.2907194e-30
8.3013262e-30
8.2448875e-30
7.824653e-30
5.7211146e-30
9.5510342e-31
1.8579908e-35
4.7381557e-37
3.8478487e-32
2.4833979e-31
3.4415542e-31
3.6353023e-31
3.6620193e-31
3.6576546e-31
3.6492856e-31
3.6427739e-31
3.6393502e-31
3.6392379e-31
3.6424414e-31
3.6487478e-31
3.6569335e-31
3.661139e-31
3.6342932e-31
3.4404872e-31
2.4825581e-31
3.8464381e-32
4.7195702e-37
1.1635382e-38
1.4863511e-33
1.0335483e-32
1.4513311e-32
1.5368451e-32
1.5489665e-32
1.5473148e-32
1.5438179e-32
1.54107e-32
1.5396206e-32
1.5395707e-32
1.540922e-32
1.5435778e-32
1.5469914e-32
1.5485696e-32
1.5363878e-32
1.4508465e-32
1.0331705e-32
1.4857612e-33
1.1494907e-38
2.7602496e-40
5.5119134e-35
4.1292179e-34
5.8752213e-34
6.2368386e-34
6.2893877e-34
6.2834758e-34
6.2694566e-34
6.2583298e-34
6.2524437e-34
6.2522344e-34
6.2577087e-34
6.2684455e-34
6.282108e-34
6.2877003e-34
6.2348855e-34
5.8731463e-34
4.1276154e-34
5.5095849e-35
2.68686e-40
6.3491009e-42
1.9639028e-36
1.5849636e-35
2.2850203e-35
2.4316778e-35
2.4534764e-35
2.4514816e-35
2.4460845e-35
2.4417576e-35
2.4394626e-35
2.4393796e-35
2.4415111e-35
2.4456822e-35
2.4509352e-35
2.4527993e-35
2.4308906e-35
2.2841821e-35
1.5843222e-35
1.9630351e-36
6.0321955e-42
1.4212645e-43
6.7282009e-38
5.8494151e-37
8.5445969e-37
9.1155383e-37
9.202169e-37
9.19586e-37
9.1758915e-37
9.159719e-37
9.1511197e-37
9.1508081e-37
9.1587919e-37
9.1743745e-37
9.1937931e-37
9.1995979e-37
9.1125384e-37
8.5413976e-37
5.84699e-37
6.7251457e-38
1.3017099e-43
3.1019107e-45
2.2178522e-39
2.0770296e-38
3.0741469e-38
3.2876778e-38
3.3206965e-38
3.3188445e-38
3.3117392e-38
3.3059249e-38
3.3028264e-38
3.3027151e-38
3.3055935e-38
3.3111959e-38
3.3181025e-38
3.3197708e-38
3.2865948e-38
3.0729909e-38
2.076162e-38
2.2168345e-39
2.7017616e-45
6.5768253e-47
7.0385821e-41
7.1002902e-40
1.0647694e-39
1.1415457e-39
1.1536268e-39
1.1531313e-39
1.1506983e-39
1.1486863e-39
1.1476118e-39
1.147574e-39
1.1485735e-39
1.150513e-39
1.1528779e-39
1.15331e-39
1.1411745e-39
1.0643732e-39
7.0973478e-40
7.0353686e-41
5.3967384e-47
1.3326998e-48
2.1517594e-42
2.3380368e-41
3.5524131e-41
3.8179791e-41
3.860448e-41
3.8592866e-41
3.8512642e-41
3.8445593e-41
3.8409712e-41
3.840848e-41
3.8441922e-41
3.8506615e-41
3.8584614e-41
3.8594161e-41
3.8167693e-41
3.5511229e-41
2.337089e-41
2.150796e-42
1.0380038e-48
2.4514074e-50
6.3397145e-44
7.4196158e-43
1.1421986e-42
1.2306184e-42
1.2449725e-42
1.2447584e-42
1.2422101e-42
1.240057e-42
1.2389024e-42
1.2388641e-42
1.2399427e-42
1.2420225e-42
1.2445018e-42
1.2446518e-42
1.2302427e-42
1.1417987e-42
7.4167105e-43
6.3369683e-44
1.923346e-50
4.1202712e-52
1.8009445e-45
2.2701521e-44
3.5407816e-44
3.8243008e-44
3.8709772e-44
3.8708114e-44
3.8630095e-44
3.8563435e-44
3.8527621e-44
3.8526476e-44
3.8560023e-44
3.8624502e-44
3.8700477e-44
3.8700249e-44
3.8231877e-44
3.5395998e-44
2.2693037e-44
1.8001992e-45
3.4347162e-52
6.7873326e-54
4.9345609e-47
6.6994186e-46
1.0586733e-45
1.1462665e-45
1.1608776e-45
1.1609779e-45
1.1586746e-45
1.1566842e-45
1.1556127e-45
1.1555798e-45
1.1565864e-45
1.1585146e-45
1.1607601e-45
1.1606071e-45
1.1459516e-45
1.0583403e-45
6.6970565e-46
4.9326314e-47
5.9136841e-54
1.0910175e-55
1.3045064e-48
1.9075144e-47
3.0540295e-47
3.314882e-47
3.3589326e-47
3.3596571e-47
3.353098e-47
3.3473632e-47
3.34427e-47
3.3441792e-47
3.3470935e-47
3.3526581e-47
3.3590611e-47
3.3581966e-47
3.3140304e-47
3.0531342e-47
1.9068875e-47
1.3040299e-48
9.8192334e-56
1.7057804e-57
3.3280427e-50
5.2415357e-49
8.5026224e-49
9.251712e-49
9.3796897e-49
9.382928e-49
9.3649045e-49
9.348957e-49
9.340338e-49
9.3400969e-49
9.3482418e-49
9.3637415e-49
9.3813608e-49
9.3777697e-49
9.2495101e-49
8.5003254e-49
5.239949e-49
3.3269202e-50
1.572636e-57
)
;

boundaryField
{
    Wall
    {
        type            zeroGradient;
    }
    frontAndBack
    {
        type            empty;
    }
    atmosphere
    {
        type            zeroGradient;
    }
}


// ************************************************************************* //
