/*--------------------------------*- C++ -*----------------------------------*\
| =========                 |                                                 |
| \\      /  F ield         | OpenFOAM: The Open Source CFD Toolbox           |
|  \\    /   O peration     | Version:  3.0.1                                 |
|   \\  /    A nd           | Web:      www.OpenFOAM.org                      |
|    \\/     M anipulation  |                                                 |
\*---------------------------------------------------------------------------*/
FoamFile
{
    version     2.0;
    format      ascii;
    class       volScalarField;
    location    "39";
    object      rho;
}
// * * * * * * * * * * * * * * * * * * * * * * * * * * * * * * * * * * * * * //

dimensions      [1 -3 0 0 0 0 0];

internalField   nonuniform List<scalar> 
800
(
49.387848
49.384093
49.383865
49.384051
49.384197
49.38428
49.384322
49.38434
49.384348
49.384351
49.38435
49.384348
49.38434
49.384322
49.38428
49.384197
49.38405
49.383864
49.384092
49.387848
49.42156
49.403742
49.399
49.397726
49.397491
49.397544
49.397648
49.397735
49.397791
49.397818
49.397818
49.397791
49.397735
49.397648
49.397544
49.397492
49.397727
49.399001
49.403743
49.421562
49.579308
49.546666
49.534962
49.531393
49.530456
49.530355
49.530476
49.530614
49.530713
49.530763
49.530763
49.530713
49.530615
49.530477
49.530356
49.530458
49.531395
49.534964
49.546668
49.579312
49.794005
49.747692
49.728583
49.72255
49.720824
49.720519
49.720629
49.720803
49.720938
49.721007
49.721007
49.720938
49.720804
49.720631
49.720521
49.720826
49.722553
49.728587
49.747696
49.794012
50.030456
49.972327
49.946204
49.937788
49.935321
49.934818
49.93491
49.935109
49.935272
49.935357
49.935357
49.935273
49.93511
49.934911
49.93482
49.935324
49.937792
49.946208
49.972332
50.030464
50.266093
50.198845
50.166568
50.156028
50.152986
50.152357
50.152457
50.152688
50.15288
50.15298
50.15298
50.152881
50.15269
50.152459
50.15236
50.15299
50.156032
50.166574
50.198851
50.266103
50.482411
50.409436
50.372274
50.360014
50.356659
50.35603
50.356196
50.356485
50.356717
50.356835
50.356835
50.356718
50.356487
50.356198
50.356034
50.356663
50.360019
50.372279
50.409443
50.482422
50.663756
50.588778
50.548373
50.534921
50.531574
50.531113
50.531428
50.531816
50.532108
50.532252
50.532252
50.532109
50.531818
50.53143
50.531116
50.531578
50.534926
50.548379
50.588786
50.663767
50.799072
50.725409
50.683638
50.669562
50.666527
50.666397
50.666943
50.667474
50.667844
50.668022
50.668022
50.667845
50.667475
50.666946
50.6664
50.666531
50.669566
50.683644
50.725416
50.799083
50.882254
50.812627
50.771524
50.757438
50.75501
50.755385
50.756266
50.756995
50.757474
50.7577
50.7577
50.757475
50.756997
50.756268
50.755388
50.755014
50.757443
50.771529
50.812634
50.882263
50.910903
50.846891
50.808396
50.794867
50.793261
50.794267
50.79557
50.796546
50.797159
50.797442
50.797442
50.79716
50.796548
50.795572
50.794269
50.793264
50.794871
50.808401
50.846897
50.910911
50.870434
50.828643
50.794522
50.782064
50.781452
50.783189
50.784997
50.786268
50.787037
50.787389
50.787389
50.787037
50.78627
50.784999
50.783191
50.781455
50.782067
50.794527
50.828648
50.870441
50.765641
50.727329
50.701083
50.690551
50.690965
50.693474
50.695964
50.69763
50.698596
50.69904
50.69904
50.698597
50.697631
50.695965
50.693476
50.690967
50.690554
50.701086
50.727333
50.765646
50.597861
50.562364
50.545283
50.537127
50.538328
50.541459
50.544771
50.546903
50.548092
50.548643
50.548643
50.548092
50.546904
50.544772
50.54146
50.53833
50.537129
50.545286
50.562367
50.597864
50.372765
50.338698
50.331022
50.325601
50.327251
50.330799
50.335086
50.337786
50.339216
50.3399
50.3399
50.339217
50.337787
50.335088
50.3308
50.327252
50.325602
50.331023
50.338699
50.372767
50.097836
50.062068
50.062855
50.060346
50.062082
50.065907
50.071157
50.074585
50.076399
50.077287
50.077287
50.076399
50.074587
50.071158
50.065908
50.062082
50.060347
50.062855
50.062069
50.097837
49.781159
49.738763
49.745821
49.74622
49.747636
49.751665
49.758275
49.762409
49.764786
49.765731
49.765731
49.764786
49.762409
49.758274
49.751665
49.747636
49.74622
49.745821
49.738763
49.781159
49.43121
49.375694
49.385748
49.388642
49.389245
49.39349
49.401896
49.406982
49.409948
49.410816
49.410816
49.409948
49.406982
49.401895
49.39349
49.389245
49.388641
49.385748
49.375693
49.43121
49.057275
48.980123
48.989292
48.993639
48.992702
48.99745
49.008418
49.014688
49.018378
49.018909
49.018909
49.018379
49.014688
49.008417
48.997452
48.992702
48.993638
48.989291
48.980122
49.057274
48.669515
48.561658
48.563961
48.568044
48.565196
48.571241
48.585334
48.592997
48.597896
48.597763
48.597763
48.597897
48.592998
48.585335
48.571241
48.565196
48.568044
48.56396
48.561657
48.669514
48.281286
48.132152
48.121632
48.12311
48.117724
48.124975
48.142269
48.15139
48.157964
48.156732
48.156733
48.157964
48.151392
48.142273
48.124974
48.117724
48.123109
48.121632
48.132151
48.281285
47.905726
47.701882
47.671915
47.667698
47.658667
47.66764
47.688742
47.699369
47.707718
47.70499
47.704991
47.707719
47.69937
47.688743
47.667641
47.658668
47.667698
47.671914
47.701881
47.905726
47.555421
47.282288
47.225133
47.212173
47.19693
47.208403
47.234094
47.246507
47.257353
47.252652
47.252653
47.257354
47.24651
47.234097
47.208406
47.196932
47.212173
47.225134
47.282288
47.555422
47.244627
46.885814
46.79272
46.766204
46.743557
46.758069
46.788554
46.802768
46.816897
46.809858
46.809859
46.816898
46.802769
46.788554
46.758071
46.743558
46.766205
46.792721
46.885814
47.244629
46.988211
46.525054
46.386318
46.340482
46.308354
46.326158
46.362057
46.378428
46.395711
46.386186
46.386187
46.395712
46.378431
46.362059
46.32616
46.308355
46.340483
46.38632
46.525055
46.988213
46.803647
46.21422
46.016831
45.946413
45.902979
45.924255
45.965819
45.984361
46.003933
45.991981
45.991982
46.003935
45.984363
45.965822
45.924257
45.902981
45.946415
46.016833
46.214221
46.803649
46.712225
45.970074
45.698842
45.59796
45.539744
45.563961
45.611121
45.631975
45.652767
45.638724
45.638724
45.652771
45.631978
45.611124
45.563963
45.539746
45.597961
45.698844
45.970075
46.712225
46.74213
45.81308
45.449407
45.309105
45.232269
45.258261
45.310832
45.334168
45.355448
45.339318
45.339319
45.35545
45.334172
45.310835
45.258264
45.232271
45.309107
45.449408
45.813079
46.742127
46.928942
45.768103
45.289631
45.097727
44.997883
45.023392
45.080757
45.106777
45.127709
45.109548
45.109547
45.12771
45.106781
45.08076
45.023395
44.997886
45.097728
45.289631
45.7681
46.928935
47.325594
45.872626
45.24798
44.988366
44.859622
44.880878
44.941838
44.971005
44.990644
44.970846
44.970847
44.990646
44.97101
44.941842
44.880881
44.859625
44.988366
45.247977
45.872617
47.325577
48.009037
46.179682
45.364526
45.015872
44.848914
44.860831
44.924164
44.956529
44.974178
44.95356
44.95356
44.97418
44.956532
44.924168
44.860834
44.848915
45.01587
45.36452
46.179664
48.009005
49.094249
46.767622
45.697565
45.230797
45.011521
45.006095
45.070396
45.107253
45.122973
45.102289
45.10229
45.122974
45.107255
45.070397
45.006096
45.011519
45.230791
45.697551
46.76759
49.094192
50.759246
47.753392
46.333778
45.707291
45.415323
45.38098
45.444158
45.488333
45.502585
45.482406
45.482407
45.502585
45.488334
45.444158
45.380978
45.415318
45.707278
46.333752
47.753336
50.759147
53.281334
49.315277
47.405153
46.557226
46.162602
46.082719
46.142006
46.196452
46.210274
46.191436
46.191436
46.210273
46.196451
46.142003
46.082714
46.162591
46.557204
47.40511
49.315182
53.281168
57.092259
51.731304
49.117838
47.953928
47.410763
47.263838
47.313126
47.377568
47.392619
47.376228
47.376227
47.392617
47.377564
47.313119
47.263826
47.410744
47.953893
49.11777
51.73115
57.091984
62.869998
55.437232
51.797921
50.175633
49.407422
49.163221
49.188763
49.257342
49.275894
49.263475
49.263474
49.275889
49.257334
49.18875
49.163202
49.40739
50.175578
51.797816
55.436995
62.869552
71.602665
61.102645
55.969322
53.66705
52.55509
52.155415
52.133065
52.197748
52.222718
52.216525
52.216523
52.22271
52.197734
52.133044
52.155384
52.555041
53.666966
55.969164
61.102292
71.601978
84.044621
69.775625
62.482237
59.142007
57.494613
56.837433
56.72945
56.763326
56.797681
56.800917
56.800913
56.797668
56.763302
56.729417
56.837386
57.494541
59.141884
62.482007
69.775123
84.043981
76.266463
81.7355
72.530767
67.68205
65.20831
64.138311
63.890065
63.814872
63.863472
63.882084
63.882078
63.863453
63.81484
63.890021
64.138246
65.208212
67.681885
72.53047
81.735139
76.271975
18.734389
51.42504
60.636415
59.743895
58.408061
57.766413
57.837829
57.93123
58.158884
58.270046
58.27007
58.15896
57.93137
57.838011
57.766644
58.40835
59.744289
60.637282
51.427636
18.737701
)
;

boundaryField
{
    Wall
    {
        type            calculated;
        value           nonuniform List<scalar> 
100
(
1e-15
1.2600765e-12
1.1076131e-08
2.1008118e-08
3.8411381e-08
8.5980283e-08
1.5731111e-07
2.5579386e-07
3.8647511e-07
5.5425084e-07
7.6721747e-07
1.0303433e-06
1.3187825e-06
1.6530818e-06
2.0594163e-06
2.5993381e-06
3.125382e-06
4.0122077e-06
5.6156421e-06
2.448509e-05
3.969872e-05
3.9698688e-05
3.9698811e-05
3.9698786e-05
3.9698796e-05
3.9698664e-05
3.9698619e-05
1.7751434e-05
1.3486584e-05
1.3485447e-05
1.3484307e-05
1.3483137e-05
1.3482085e-05
1.3481423e-05
1.3481685e-05
4.5574666e-05
0.00061471463
0.014499057
0.34200566
1.0409385
1e-15
6.4877311e-15
1.1075087e-08
2.1007662e-08
3.841152e-08
8.5981287e-08
1.5731324e-07
2.5579744e-07
3.8648056e-07
5.5425833e-07
7.6722699e-07
1.0303549e-06
1.3187938e-06
1.6531011e-06
2.0594356e-06
2.5993592e-06
3.1254079e-06
4.0122709e-06
5.6157136e-06
2.4485263e-05
3.9698929e-05
3.9698898e-05
3.9699021e-05
3.9698996e-05
3.9699005e-05
3.9698873e-05
3.9698829e-05
1.7754504e-05
1.3486947e-05
1.348581e-05
1.348467e-05
1.34835e-05
1.3482448e-05
1.3481786e-05
1.3482048e-05
4.5563739e-05
0.00061452424
0.014492998
0.34192776
1.0409049
1e-15
1e-15
1.0000005e-15
1.000001e-15
1e-15
1.0000012e-15
1.0000011e-15
1.0000001e-15
1e-15
1e-15
1e-15
1e-15
1e-15
1.0000001e-15
1.0000001e-15
1e-15
1e-15
1e-15
1e-15
1e-15
)
;
    }
    frontAndBack
    {
        type            empty;
    }
    atmosphere
    {
        type            calculated;
        value           nonuniform List<scalar> 
20
(
1.0409384
0.61926511
0.40072304
0.34382845
0.32583757
0.31510284
0.30914659
0.30522838
0.30279245
0.30171656
0.30171611
0.30279102
0.30522576
0.3091432
0.31509843
0.32583191
0.34382059
0.40070769
0.61922899
1.0409048
)
;
    }
}


// ************************************************************************* //
