/*--------------------------------*- C++ -*----------------------------------*\
| =========                 |                                                 |
| \\      /  F ield         | OpenFOAM: The Open Source CFD Toolbox           |
|  \\    /   O peration     | Version:  3.0.1                                 |
|   \\  /    A nd           | Web:      www.OpenFOAM.org                      |
|    \\/     M anipulation  |                                                 |
\*---------------------------------------------------------------------------*/
FoamFile
{
    version     2.0;
    format      ascii;
    class       volScalarField;
    location    "39";
    object      thermalDiff_gas;
}
// * * * * * * * * * * * * * * * * * * * * * * * * * * * * * * * * * * * * * //

dimensions      [0 2 -1 0 0 0 0];

internalField   nonuniform List<scalar> 
800
(
0.00034445612
0.00034447756
0.00034448299
0.00034448375
0.00034448367
0.00034448354
0.00034448347
0.00034448346
0.00034448347
0.00034448348
0.00034448348
0.00034448347
0.00034448346
0.00034448348
0.00034448354
0.00034448367
0.00034448375
0.00034448299
0.00034447756
0.00034445612
0.00034441548
0.00034447293
0.00034449828
0.0003445076
0.00034451103
0.00034451221
0.00034451252
0.00034451253
0.00034451247
0.00034451243
0.00034451243
0.00034451247
0.00034451253
0.00034451252
0.00034451221
0.00034451103
0.00034450759
0.00034449827
0.00034447293
0.00034441547
0.00034409452
0.00034419359
0.00034424193
0.00034426056
0.00034426746
0.00034426978
0.00034427035
0.00034427032
0.00034427017
0.00034427006
0.00034427006
0.00034427017
0.00034427032
0.00034427034
0.00034426977
0.00034426745
0.00034426056
0.00034424192
0.00034419358
0.0003440945
0.00034380991
0.00034394002
0.000344008
0.00034403438
0.00034404395
0.00034404708
0.00034404779
0.00034404771
0.00034404747
0.00034404732
0.00034404732
0.00034404747
0.00034404771
0.00034404778
0.00034404707
0.00034404394
0.00034403437
0.00034400799
0.00034394001
0.00034380989
0.0003436389
0.00034378951
0.00034387286
0.00034390523
0.00034391675
0.00034392042
0.00034392121
0.00034392109
0.0003439208
0.00034392061
0.00034392061
0.00034392079
0.00034392108
0.0003439212
0.00034392041
0.00034391674
0.00034390522
0.00034387285
0.00034378949
0.00034363887
0.00034360161
0.00034376213
0.00034385628
0.00034389269
0.00034390531
0.00034390919
0.00034390994
0.00034390975
0.00034390941
0.0003439092
0.0003439092
0.00034390941
0.00034390975
0.00034390993
0.00034390918
0.0003439053
0.00034389268
0.00034385627
0.00034376211
0.00034360157
0.00034371758
0.00034387613
0.00034397614
0.00034401441
0.00034402711
0.00034403074
0.00034403124
0.00034403092
0.0003440305
0.00034403026
0.00034403026
0.0003440305
0.00034403091
0.00034403124
0.00034403073
0.0003440271
0.00034401439
0.00034397612
0.00034387611
0.00034371755
0.00034401134
0.00034415427
0.00034425474
0.00034429245
0.00034430411
0.00034430691
0.0003443069
0.0003443063
0.00034430576
0.00034430547
0.00034430547
0.00034430576
0.0003443063
0.0003443069
0.0003443069
0.0003443041
0.00034429243
0.00034425472
0.00034415425
0.00034401131
0.00034450941
0.00034462126
0.00034471623
0.00034475077
0.00034476018
0.00034476155
0.00034476072
0.0003447597
0.00034475895
0.00034475858
0.00034475858
0.00034475895
0.00034475969
0.00034476071
0.00034476154
0.00034476017
0.00034475076
0.00034471622
0.00034462124
0.00034450939
0.00034524028
0.00034530398
0.00034538672
0.00034541522
0.00034542101
0.00034542024
0.0003454182
0.00034541655
0.0003454155
0.00034541502
0.00034541502
0.0003454155
0.00034541655
0.0003454182
0.00034542024
0.00034542101
0.00034541521
0.00034538671
0.00034530396
0.00034524026
0.00034623331
0.00034623028
0.0003462932
0.00034631256
0.0003463133
0.00034630961
0.00034630593
0.00034630341
0.00034630195
0.0003463013
0.0003463013
0.00034630195
0.00034630341
0.00034630593
0.00034630961
0.00034631329
0.00034631256
0.00034629319
0.00034623027
0.00034623329
0.00034751706
0.00034742754
0.00034746207
0.00034746903
0.00034746316
0.00034745573
0.00034744994
0.0003474463
0.0003474443
0.00034744343
0.00034744343
0.00034744431
0.0003474463
0.00034744994
0.00034745573
0.00034746316
0.00034746903
0.00034746207
0.00034742754
0.00034751705
0.00034911981
0.00034892326
0.00034891968
0.00034891072
0.00034889659
0.00034888445
0.000348876
0.00034887093
0.00034886825
0.0003488671
0.0003488671
0.00034886825
0.00034887093
0.000348876
0.00034888446
0.0003488966
0.00034891073
0.00034891968
0.00034892326
0.00034911981
0.00035107023
0.00035074545
0.00035069279
0.00035066424
0.00035064005
0.0003506221
0.00035061037
0.00035060347
0.00035059993
0.0003505984
0.0003505984
0.00035059993
0.00035060348
0.00035061037
0.00035062211
0.00035064006
0.00035066425
0.0003506928
0.00035074546
0.00035107024
0.00035339822
0.00035292358
0.00035280961
0.00035275768
0.0003527214
0.00035269636
0.00035268062
0.00035267142
0.00035266676
0.00035266476
0.00035266476
0.00035266676
0.00035267142
0.00035268063
0.00035269637
0.00035272141
0.00035275769
0.00035280962
0.00035292359
0.00035339824
0.00035613815
0.00035549092
0.00035530236
0.00035522303
0.00035517222
0.0003551385
0.00035511772
0.00035510569
0.00035509967
0.0003550971
0.0003550971
0.00035509967
0.0003551057
0.00035511773
0.00035513851
0.00035517224
0.00035522305
0.00035530238
0.00035549094
0.00035613817
0.0003593165
0.00035847414
0.00035819731
0.00035808662
0.00035801839
0.00035797419
0.00035794729
0.00035793186
0.00035792423
0.00035792096
0.00035792097
0.00035792423
0.00035793187
0.0003579473
0.0003579742
0.00035801841
0.00035808664
0.00035819734
0.00035847417
0.00035931653
0.00036295901
0.00036189897
0.00036152066
0.00036137449
0.0003612851
0.00036122854
0.00036119452
0.00036117494
0.00036116506
0.00036116086
0.00036116087
0.00036116507
0.00036117496
0.00036119454
0.00036122857
0.00036128512
0.00036137452
0.00036152069
0.000361899
0.00036295905
0.00036709373
0.00036579173
0.00036530016
0.00036511403
0.0003649989
0.00036492862
0.00036488683
0.00036486223
0.00036484879
0.00036484335
0.00036484335
0.0003648488
0.00036486224
0.00036488684
0.00036492864
0.00036499893
0.00036511406
0.0003653002
0.00036579177
0.00036709377
0.00037175314
0.00037018389
0.00036956762
0.00036933669
0.00036919138
0.00036910654
0.00036905646
0.00036902613
0.00036900727
0.00036900011
0.00036900011
0.00036900728
0.00036902615
0.00036905647
0.00036910657
0.00036919142
0.00036933673
0.00036956766
0.00037018394
0.0003717532
0.00037695896
0.00037509875
0.00037434622
0.00037406581
0.00037388714
0.0003737863
0.0003737266
0.0003736899
0.00037366309
0.00037365369
0.00037365369
0.0003736631
0.00037368991
0.00037372662
0.00037378633
0.00037388717
0.00037406585
0.00037434627
0.0003750988
0.00037695902
0.00038274195
0.00038056671
0.00037966706
0.00037933313
0.00037911818
0.00037899887
0.00037892714
0.00037888325
0.00037884426
0.00037883212
0.00037883213
0.00037884427
0.00037888327
0.00037892716
0.0003789989
0.00037911822
0.00037933317
0.00037966711
0.00038056677
0.00038274201
0.00038914664
0.00038662964
0.00038557123
0.00038518206
0.00038492656
0.0003847861
0.00038469935
0.00038464763
0.00038459044
0.00038457495
0.00038457495
0.00038459045
0.00038464765
0.00038469938
0.00038478613
0.0003849266
0.0003851821
0.00038557128
0.00038662969
0.0003891467
0.00039620825
0.00039332367
0.00039209388
0.00039164833
0.00039134696
0.00039118203
0.00039107635
0.00039101633
0.00039093517
0.00039091549
0.00039091549
0.00039093517
0.00039101635
0.00039107637
0.00039118206
0.000391347
0.00039164837
0.00039209393
0.00039332372
0.0003962083
0.00040398205
0.00040070157
0.00039928743
0.00039878299
0.00039842956
0.00039823608
0.00039810738
0.00039803918
0.00039792843
0.00039790378
0.00039790378
0.00039792844
0.00039803919
0.0003981074
0.00039823611
0.0003984296
0.00039878303
0.00039928747
0.00040070161
0.00040398209
0.0004125331
0.00040882573
0.00040721165
0.00040664488
0.00040623292
0.00040600606
0.00040585101
0.00040577566
0.00040562915
0.0004055993
0.0004055993
0.00040562915
0.00040577567
0.00040585103
0.00040600608
0.00040623294
0.00040664492
0.00040721168
0.00040882576
0.00041253313
0.00042192672
0.00041776082
0.00041592607
0.00041529465
0.00041481694
0.00041455063
0.00041436595
0.00041428536
0.00041409705
0.00041406309
0.00041406309
0.00041409706
0.00041428536
0.00041436596
0.00041455064
0.00041481696
0.00041529468
0.00041592609
0.00041776084
0.00042192672
0.00043224098
0.00042758498
0.00042550494
0.00042480566
0.00042425284
0.00042393904
0.00042372187
0.00042363922
0.00042340539
0.00042336936
0.00042336936
0.00042340539
0.00042363922
0.00042372187
0.00042393905
0.00042425284
0.00042480567
0.00042550494
0.00042758497
0.00043224096
0.00044354151
0.00043837578
0.00043602637
0.0004352553
0.00043461799
0.00043424716
0.00043399656
0.00043391734
0.00043363913
0.00043360276
0.00043360276
0.00043363913
0.00043391733
0.00043399656
0.00043424716
0.00043461799
0.0004352553
0.00043602636
0.00043837575
0.00044354146
0.0004558627
0.00045019933
0.00044756605
0.00044672245
0.00044599233
0.0004455543
0.00044527222
0.00044520485
0.00044488818
0.00044485364
0.00044485364
0.00044488817
0.00044520484
0.00044527221
0.00044555429
0.00044599232
0.00044672244
0.00044756602
0.00045019928
0.00045586263
0.00046914527
0.00046306701
0.0004601696
0.00045926541
0.00045843944
0.00045792732
0.00045761973
0.00045757411
0.00045722978
0.00045720147
0.00045720147
0.00045722977
0.00045757409
0.00045761971
0.0004579273
0.00045843941
0.00045926538
0.00046016955
0.00046306694
0.00046914521
0.00048309319
0.00047683572
0.00047379019
0.00047286894
0.00047195876
0.00047137701
0.00047105298
0.00047103381
0.00047067862
0.00047066337
0.00047066337
0.00047067861
0.0004710338
0.00047105296
0.00047137699
0.00047195873
0.0004728689
0.00047379013
0.00047683566
0.00048309318
0.00049684008
0.00049102597
0.00048817038
0.00048734672
0.00048639228
0.00048577344
0.00048544499
0.00048543346
0.00048509033
0.00048509716
0.00048509715
0.00048509032
0.00048543345
0.00048544498
0.00048577342
0.00048639226
0.0004873467
0.00048817035
0.00049102598
0.00049684027
0.00050837266
0.0005044455
0.00050258541
0.00050213602
0.00050122707
0.00050066031
0.00050032696
0.00050027633
0.00049997551
0.00050001611
0.00050001611
0.00049997551
0.00050027633
0.00050032697
0.00050066033
0.00050122709
0.00050213605
0.00050258547
0.00050444573
0.00050837332
0.00051385674
0.00051446528
0.0005153233
0.00051587795
0.00051520202
0.00051480849
0.00051448078
0.00051436219
0.00051414377
0.00051423385
0.00051423385
0.0005141438
0.00051436222
0.00051448084
0.00051480857
0.00051520212
0.0005158781
0.00051532358
0.00051446604
0.00051385836
0.00050699996
0.00051607589
0.00052278837
0.00052546092
0.00052561572
0.00052547238
0.00052526601
0.00052517321
0.00052509619
0.00052525706
0.00052525709
0.00052509625
0.00052517331
0.00052526616
0.00052547259
0.000525616
0.00052546132
0.00052278909
0.00051607761
0.00050700311
0.00048404082
0.00050334627
0.00051875603
0.00052506279
0.00052699509
0.00052765153
0.00052787023
0.00052765463
0.00052779527
0.00052805242
0.00052805246
0.0005277954
0.00052765486
0.00052787054
0.00052765196
0.00052699566
0.00052506363
0.00051875745
0.00050334922
0.00048404471
0.00046067147
0.00047686493
0.00049743738
0.00050786378
0.00051223749
0.00051384751
0.0005149677
0.00051533832
0.00051586539
0.00051626501
0.00051626508
0.00051586561
0.00051533871
0.00051496821
0.00051384821
0.00051223844
0.00050786512
0.00049743951
0.00047686814
0.00046067321
0.00045182778
0.00045255287
0.00046395822
0.0004730305
0.0004777435
0.00048153846
0.00048377476
0.00048437847
0.00048524354
0.00048572908
0.00048572913
0.0004852437
0.00048437875
0.00048377516
0.000481539
0.00047774419
0.00047303146
0.00046395948
0.00045255392
0.00045182868
0.00044275797
0.00044524489
0.00045572241
0.00046390336
0.00046992201
0.00047348143
0.00047619761
0.00047783909
0.00047887446
0.00047938777
0.00047938781
0.00047887457
0.00047783928
0.00047619788
0.00047348181
0.0004699225
0.00046390398
0.00045572306
0.00044524555
0.00044275858
)
;

boundaryField
{
    Wall
    {
        type            calculated;
        value           uniform 0.1;
    }
    frontAndBack
    {
        type            empty;
    }
    atmosphere
    {
        type            calculated;
        value           uniform 0.1;
    }
}


// ************************************************************************* //
