/*--------------------------------*- C++ -*----------------------------------*\
| =========                 |                                                 |
| \\      /  F ield         | OpenFOAM: The Open Source CFD Toolbox           |
|  \\    /   O peration     | Version:  3.0.1                                 |
|   \\  /    A nd           | Web:      www.OpenFOAM.org                      |
|    \\/     M anipulation  |                                                 |
\*---------------------------------------------------------------------------*/
FoamFile
{
    version     2.0;
    format      ascii;
    class       volScalarField;
    location    "39";
    object      wCO2_g;
}
// * * * * * * * * * * * * * * * * * * * * * * * * * * * * * * * * * * * * * //

dimensions      [0 0 0 0 0 0 0];

internalField   nonuniform List<scalar> 
800
(
0.019724835
0.019725947
0.019726136
0.01972615
0.01972615
0.019726154
0.019726162
0.019726169
0.019726175
0.019726178
0.019726178
0.019726175
0.019726169
0.019726162
0.019726155
0.01972615
0.01972615
0.019726137
0.019725947
0.019724835
0.019942083
0.019939807
0.019938891
0.01993823
0.019937781
0.019937497
0.019937328
0.019937232
0.019937182
0.01993716
0.019937161
0.019937182
0.019937232
0.019937328
0.019937497
0.019937781
0.01993823
0.019938891
0.019939807
0.019942083
0.020197695
0.020193795
0.020192536
0.020191606
0.020190981
0.020190586
0.020190347
0.020190209
0.020190136
0.020190103
0.020190103
0.020190136
0.02019021
0.020190347
0.020190586
0.020190982
0.020191606
0.020192537
0.020193795
0.020197696
0.020442679
0.02043545
0.020433782
0.02043248
0.020431615
0.020431083
0.020430769
0.020430594
0.020430503
0.020430464
0.020430464
0.020430503
0.020430594
0.020430769
0.020431083
0.020431615
0.02043248
0.020433782
0.02043545
0.020442679
0.020691235
0.020679148
0.020676785
0.020675037
0.020673872
0.020673179
0.020672782
0.02067257
0.020672463
0.020672418
0.020672418
0.020672463
0.02067257
0.020672783
0.02067318
0.020673872
0.020675037
0.020676785
0.020679149
0.020691235
0.020951133
0.020932728
0.020929219
0.020926949
0.020925419
0.02092454
0.02092405
0.020923799
0.020923675
0.020923626
0.020923626
0.020923675
0.020923799
0.020924051
0.020924541
0.020925419
0.02092695
0.02092922
0.020932729
0.020951133
0.021227072
0.021200903
0.02119567
0.021192767
0.021190782
0.021189681
0.021189084
0.021188789
0.021188648
0.021188595
0.021188595
0.021188648
0.02118879
0.021189085
0.021189682
0.021190783
0.021192767
0.021195671
0.021200904
0.021227073
0.02152238
0.021487033
0.021479388
0.021475707
0.021473171
0.021471802
0.021471078
0.021470731
0.021470569
0.02147051
0.021470511
0.02147057
0.021470731
0.021471079
0.021471803
0.021473172
0.021475708
0.02147939
0.021487035
0.021522381
0.021839853
0.021794196
0.021783357
0.021778689
0.021775474
0.021773758
0.021772859
0.021772431
0.021772234
0.021772162
0.021772162
0.021772234
0.021772432
0.02177286
0.021773759
0.021775475
0.02177869
0.021783359
0.021794197
0.021839854
0.022179891
0.022123094
0.022108287
0.022102481
0.022098557
0.022096479
0.022095395
0.022094885
0.022094653
0.02209457
0.02209457
0.022094653
0.022094886
0.022095396
0.02209648
0.022098558
0.022102483
0.022108289
0.022123096
0.022179893
0.022541996
0.022473961
0.022454305
0.022447078
0.022442351
0.022439832
0.022438489
0.022437848
0.022437553
0.022437446
0.022437446
0.022437554
0.022437849
0.02243849
0.022439834
0.022442353
0.02244708
0.022454307
0.022473963
0.022541998
0.022930403
0.022845942
0.022820784
0.022811963
0.022806461
0.022803507
0.02280187
0.022801078
0.022800713
0.022800578
0.022800578
0.022800714
0.022801079
0.022801871
0.022803509
0.022806463
0.022811965
0.022820787
0.022845944
0.022930406
0.023341633
0.023247893
0.023216004
0.023205259
0.023199073
0.023195712
0.023193697
0.023192706
0.023192254
0.02319208
0.02319208
0.023192255
0.023192707
0.023193698
0.023195714
0.023199076
0.023205261
0.023216007
0.023247896
0.023341636
0.023773788
0.02367211
0.023633089
0.0236202
0.023613542
0.023609874
0.023607398
0.023606156
0.023605603
0.023605377
0.023605378
0.023605604
0.023606157
0.0236074
0.023609876
0.023613544
0.023620203
0.023633091
0.023672113
0.02377379
0.024222573
0.024115077
0.024069004
0.02405378
0.024046933
0.024043087
0.024040051
0.024038493
0.024037823
0.024037536
0.024037536
0.024037824
0.024038494
0.024040052
0.024043089
0.024046934
0.024053782
0.024069007
0.024115079
0.024222574
0.024687675
0.024577442
0.024524985
0.024507194
0.024500433
0.024496477
0.024492715
0.024490733
0.024489903
0.024489549
0.024489549
0.024489904
0.024490734
0.024492717
0.024496479
0.024500436
0.024507198
0.024524989
0.024577446
0.024687678
0.025161471
0.025052698
0.024995324
0.02497503
0.024968791
0.024964834
0.0249602
0.024957705
0.024956688
0.024956308
0.024956308
0.024956688
0.024957706
0.024960202
0.024964836
0.024968793
0.024975032
0.024995326
0.025052701
0.025161473
0.02563732
0.025535584
0.025475497
0.025452974
0.025447704
0.025443742
0.025437991
0.025434862
0.025433598
0.025433292
0.025433292
0.025433599
0.025434863
0.025437992
0.025443744
0.025447706
0.025452976
0.025475499
0.025535587
0.025637322
0.02610844
0.026020484
0.025960551
0.025936436
0.025932656
0.025928566
0.025921352
0.025917449
0.025915842
0.025915786
0.025915786
0.025915842
0.025917449
0.025921352
0.025928567
0.025932657
0.025936437
0.025960552
0.026020485
0.02610844
0.026571432
0.026505163
0.026449006
0.026424393
0.026422722
0.026418244
0.026409129
0.026404306
0.026402213
0.026402674
0.026402674
0.026402214
0.026404307
0.02640913
0.026418245
0.026422724
0.026424395
0.026449008
0.026505165
0.026571434
0.027014309
0.026978764
0.026930743
0.026907308
0.026908514
0.026903284
0.026891786
0.026885885
0.026883093
0.026884396
0.026884396
0.026883093
0.026885885
0.026891787
0.026903284
0.026908515
0.026907308
0.026930743
0.026978764
0.02701431
0.027427222
0.027433225
0.027398387
0.02737822
0.02738311
0.027376669
0.027362322
0.027355193
0.027351468
0.027353979
0.027353979
0.027351468
0.027355193
0.027362322
0.02737667
0.02738311
0.027378221
0.027398388
0.027433226
0.027427223
0.027805352
0.027864361
0.027848642
0.027834411
0.027843997
0.027835927
0.027818344
0.027809843
0.027804983
0.027809054
0.027809054
0.027804982
0.027809842
0.027818343
0.027835927
0.027843997
0.027834411
0.027848641
0.027864361
0.027805352
0.028133573
0.028259029
0.028269138
0.02826377
0.028279234
0.028269159
0.028248036
0.028238022
0.028231943
0.028237862
0.028237861
0.028231942
0.028238021
0.028248035
0.028269158
0.028279233
0.02826377
0.028269138
0.028259028
0.028133572
0.028403133
0.028609304
0.028653418
0.028660514
0.028683332
0.028670967
0.028646031
0.02863432
0.028627105
0.028635044
0.028635043
0.028627104
0.028634318
0.02864603
0.028670966
0.028683331
0.028660513
0.028653417
0.028609303
0.028403131
0.028602805
0.028905735
0.02899322
0.029016901
0.029048982
0.029034324
0.029005412
0.028991858
0.028983848
0.028993871
0.028993871
0.028983847
0.028991856
0.02900541
0.029034322
0.029048981
0.029016899
0.028993218
0.028905733
0.028602803
0.028715314
0.02913335
0.029275213
0.029320567
0.02936424
0.029347701
0.029314783
0.029299237
0.029290975
0.029303008
0.029303008
0.029290974
0.029299235
0.02931478
0.029347699
0.029364238
0.029320564
0.029275211
0.029133348
0.028715312
0.028724625
0.029278819
0.029487797
0.029561163
0.029619005
0.029601444
0.029564588
0.029546806
0.029538893
0.0295527
0.029552699
0.029538892
0.029546803
0.029564585
0.029601442
0.029619002
0.029561161
0.029487795
0.029278818
0.028724625
0.02860807
0.029323193
0.029614739
0.029724389
0.029799582
0.029782776
0.029742456
0.029722249
0.029715326
0.029730572
0.029730572
0.029715325
0.029722246
0.029742453
0.029782773
0.029799579
0.029724387
0.029614738
0.029323193
0.028608072
0.02833918
0.029244364
0.029637181
0.029793342
0.029889765
0.029876355
0.029833317
0.029810401
0.029804908
0.029821122
0.029821122
0.029804907
0.029810399
0.029833314
0.029876352
0.029889763
0.029793341
0.029637181
0.029244367
0.028339187
0.027884795
0.029014076
0.0295314
0.029746601
0.029869596
0.029863284
0.029818462
0.02979248
0.029788558
0.029805157
0.029805157
0.029788557
0.029792478
0.029818459
0.029863282
0.029869594
0.029746601
0.029531403
0.029014085
0.02788481
0.027202702
0.028595225
0.029265846
0.029555209
0.029712075
0.029717816
0.029672242
0.029642525
0.029639902
0.029656191
0.029656191
0.029639901
0.029642524
0.029672241
0.029717814
0.029712075
0.029555211
0.029265852
0.028595241
0.027202729
0.026241003
0.02794159
0.028799942
0.029181516
0.029381525
0.029405673
0.029360789
0.029326059
0.029323993
0.029339163
0.029339163
0.029323993
0.029326057
0.029360788
0.029405673
0.029381527
0.029181522
0.028799955
0.027941618
0.026241047
0.024941212
0.026997924
0.028082551
0.02857749
0.028831958
0.028882135
0.028839802
0.028799132
0.028796461
0.028809595
0.028809594
0.028796461
0.028799132
0.028839803
0.028882137
0.028831962
0.0285775
0.028082571
0.026997968
0.024941279
0.023246785
0.025701879
0.02705109
0.027683045
0.028005312
0.028089148
0.028052669
0.028007227
0.028002485
0.028012591
0.028012591
0.028002485
0.028007228
0.028052671
0.028089152
0.02800532
0.02768306
0.02705112
0.025701943
0.023246882
0.021116894
0.023990957
0.025634069
0.026424436
0.026830802
0.026955572
0.026930852
0.026884834
0.026876486
0.026882567
0.026882567
0.026876487
0.026884836
0.026930856
0.026955579
0.026830813
0.026424458
0.02563411
0.023991043
0.021117025
0.018560064
0.021820157
0.02375726
0.024719702
0.025224532
0.025401369
0.025396422
0.025354761
0.025341705
0.025342927
0.025342928
0.025341707
0.025354765
0.025396428
0.025401378
0.025224547
0.02471973
0.023757311
0.021820262
0.018560227
0.015617579
0.019168156
0.021353853
0.022488785
0.023102387
0.023343914
0.02336704
0.023340001
0.023322167
0.023318162
0.023318163
0.02332217
0.023340007
0.023367048
0.023343926
0.023102406
0.022488819
0.021353913
0.019168274
0.015617764
0.012513121
0.016030419
0.018376994
0.019670657
0.020401069
0.020717559
0.020777414
0.020786906
0.02076645
0.020757745
0.020757746
0.020766455
0.020786915
0.020777425
0.020717574
0.020401093
0.019670697
0.018377062
0.016030547
0.012513289
0.0098744922
0.011895073
0.013314002
0.014169282
0.014630671
0.014847868
0.014845004
0.014827801
0.014778898
0.014752769
0.014752768
0.014778897
0.0148278
0.014845003
0.014847866
0.014630669
0.014169283
0.013314009
0.01189511
0.0098746164
)
;

boundaryField
{
    Wall
    {
        type            zeroGradient;
    }
    frontAndBack
    {
        type            empty;
    }
    atmosphere
    {
        type            zeroGradient;
    }
}


// ************************************************************************* //
