/*--------------------------------*- C++ -*----------------------------------*\
| =========                 |                                                 |
| \\      /  F ield         | OpenFOAM: The Open Source CFD Toolbox           |
|  \\    /   O peration     | Version:  3.0.1                                 |
|   \\  /    A nd           | Web:      www.OpenFOAM.org                      |
|    \\/     M anipulation  |                                                 |
\*---------------------------------------------------------------------------*/
FoamFile
{
    version     2.0;
    format      ascii;
    class       volScalarField;
    location    "39";
    object      weight1;
}
// * * * * * * * * * * * * * * * * * * * * * * * * * * * * * * * * * * * * * //

dimensions      [0 0 0 0 0 0 0];

internalField   nonuniform List<scalar> 
800
(
9.9930888e+12
9.9930888e+12
9.9930889e+12
9.993089e+12
9.993089e+12
9.993089e+12
9.993089e+12
9.993089e+12
9.9930891e+12
9.9930891e+12
9.9930891e+12
9.9930891e+12
9.993089e+12
9.993089e+12
9.993089e+12
9.993089e+12
9.993089e+12
9.9930889e+12
9.9930888e+12
9.9930888e+12
9.9932751e+12
9.9932497e+12
9.9932444e+12
9.9932431e+12
9.9932428e+12
9.9932428e+12
9.9932427e+12
9.9932427e+12
9.9932427e+12
9.9932427e+12
9.9932427e+12
9.9932427e+12
9.9932427e+12
9.9932427e+12
9.9932428e+12
9.9932428e+12
9.9932431e+12
9.9932444e+12
9.9932497e+12
9.9932751e+12
9.9559777e+12
9.9573281e+12
9.9580279e+12
9.9583353e+12
9.9584669e+12
9.9585198e+12
9.9585378e+12
9.9585418e+12
9.9585413e+12
9.9585403e+12
9.9585403e+12
9.9585412e+12
9.9585417e+12
9.9585377e+12
9.9585197e+12
9.9584668e+12
9.9583352e+12
9.9580277e+12
9.9573279e+12
9.9559774e+12
9.8837352e+12
9.8877155e+12
9.8896062e+12
9.8904274e+12
9.890781e+12
9.8909225e+12
9.8909703e+12
9.8909804e+12
9.8909783e+12
9.8909753e+12
9.8909753e+12
9.8909783e+12
9.8909803e+12
9.8909701e+12
9.8909222e+12
9.8907807e+12
9.890427e+12
9.8896058e+12
9.8877149e+12
9.8837344e+12
9.7829689e+12
9.7905821e+12
9.7939832e+12
9.795448e+12
9.7960815e+12
9.7963355e+12
9.7964225e+12
9.7964416e+12
9.7964382e+12
9.7964329e+12
9.7964329e+12
9.7964381e+12
9.7964413e+12
9.7964221e+12
9.7963351e+12
9.7960809e+12
9.7954473e+12
9.7939824e+12
9.7905811e+12
9.7829676e+12
9.6585839e+12
9.670596e+12
9.6757395e+12
9.6779362e+12
9.6788854e+12
9.6792664e+12
9.6793982e+12
9.6794281e+12
9.6794238e+12
9.6794162e+12
9.6794161e+12
9.6794236e+12
9.6794277e+12
9.6793977e+12
9.6792658e+12
9.6788846e+12
9.6779352e+12
9.6757384e+12
9.6705946e+12
9.6585821e+12
9.5145528e+12
9.5315464e+12
9.5385973e+12
9.5415853e+12
9.5428694e+12
9.5433831e+12
9.5435611e+12
9.5436017e+12
9.543596e+12
9.5435858e+12
9.5435857e+12
9.5435957e+12
9.5436012e+12
9.5435604e+12
9.5433822e+12
9.5428683e+12
9.541584e+12
9.5385958e+12
9.5315446e+12
9.5145505e+12
9.3543943e+12
9.3767949e+12
9.385857e+12
9.3896713e+12
9.3912941e+12
9.3919392e+12
9.3921617e+12
9.3922114e+12
9.3922034e+12
9.39219e+12
9.3921898e+12
9.392203e+12
9.3922107e+12
9.3921608e+12
9.3919381e+12
9.3912928e+12
9.3896697e+12
9.3858552e+12
9.3767928e+12
9.3543916e+12
9.181362e+12
9.2097731e+12
9.2208544e+12
9.2255048e+12
9.2274561e+12
9.2282247e+12
9.228488e+12
9.2285452e+12
9.2285343e+12
9.2285175e+12
9.2285174e+12
9.2285338e+12
9.2285445e+12
9.228487e+12
9.2282234e+12
9.2274546e+12
9.225503e+12
9.2208523e+12
9.2097707e+12
9.181359e+12
8.9919826e+12
9.0276675e+12
9.0413164e+12
9.046911e+12
9.0492472e+12
9.0501624e+12
9.0504747e+12
9.0505407e+12
9.0505257e+12
9.0505047e+12
9.0505045e+12
9.0505252e+12
9.0505398e+12
9.0504735e+12
9.050161e+12
9.0492454e+12
9.0469089e+12
9.0413141e+12
9.0276648e+12
8.9919794e+12
8.7847883e+12
8.8292157e+12
8.8458786e+12
8.8524834e+12
8.8552037e+12
8.8562709e+12
8.856644e+12
8.8567255e+12
8.8567094e+12
8.8566854e+12
8.8566852e+12
8.8567088e+12
8.8567246e+12
8.8566426e+12
8.8562692e+12
8.8552017e+12
8.8524811e+12
8.845876e+12
8.8292128e+12
8.7847848e+12
8.5563699e+12
8.6098467e+12
8.6302549e+12
8.6379505e+12
8.6409776e+12
8.6421625e+12
8.6426131e+12
8.6427195e+12
8.6427046e+12
8.6426789e+12
8.6426786e+12
8.642704e+12
8.6427185e+12
8.6426116e+12
8.6421607e+12
8.6409754e+12
8.637948e+12
8.6302521e+12
8.6098437e+12
8.5563663e+12
8.303828e+12
8.3714407e+12
8.396022e+12
8.404846e+12
8.40803e+12
8.409251e+12
8.4097879e+12
8.4099267e+12
8.409911e+12
8.4098846e+12
8.4098844e+12
8.4099103e+12
8.4099256e+12
8.4097863e+12
8.409249e+12
8.4080277e+12
8.4048434e+12
8.3960191e+12
8.3714376e+12
8.3038246e+12
8.0287451e+12
8.1074778e+12
8.1369705e+12
8.1470673e+12
8.1500111e+12
8.1510558e+12
8.1517107e+12
8.1519078e+12
8.1518833e+12
8.1518613e+12
8.151861e+12
8.1518826e+12
8.1519066e+12
8.1517091e+12
8.1510538e+12
8.1500088e+12
8.1470647e+12
8.1369676e+12
8.1074748e+12
8.0287418e+12
7.7366481e+12
7.8207468e+12
7.855291e+12
7.8667712e+12
7.8686703e+12
7.8690862e+12
7.8699599e+12
7.8702462e+12
7.8701841e+12
7.8701677e+12
7.8701675e+12
7.8701834e+12
7.870245e+12
7.8699583e+12
7.8690844e+12
7.8686681e+12
7.8667688e+12
7.8552883e+12
7.820744e+12
7.736645e+12
7.4377878e+12
7.5228183e+12
7.5613179e+12
7.5741725e+12
7.5742089e+12
7.5736069e+12
7.5748698e+12
7.5752731e+12
7.5751386e+12
7.5751028e+12
7.5751026e+12
7.5751379e+12
7.575272e+12
7.5748683e+12
7.5736051e+12
7.5742068e+12
7.5741702e+12
7.5613154e+12
7.5228158e+12
7.4377849e+12
7.1422341e+12
7.226548e+12
7.2672574e+12
7.2813466e+12
7.2792549e+12
7.2776845e+12
7.2794477e+12
7.2799835e+12
7.2797654e+12
7.2796294e+12
7.2796292e+12
7.2797648e+12
7.2799826e+12
7.2794465e+12
7.277683e+12
7.2792532e+12
7.2813448e+12
7.2672554e+12
7.226546e+12
7.1422319e+12
6.8541543e+12
6.9379832e+12
6.9795277e+12
6.9946575e+12
6.9907722e+12
6.988675e+12
6.9909849e+12
6.9916683e+12
6.9914057e+12
6.9910323e+12
6.9910321e+12
6.9914053e+12
6.9916676e+12
6.9909839e+12
6.9886739e+12
6.9907709e+12
6.9946561e+12
6.9795261e+12
6.9379817e+12
6.8541526e+12
6.5737167e+12
6.6579114e+12
6.6996388e+12
6.7155846e+12
6.710499e+12
6.708454e+12
6.7113599e+12
6.7122108e+12
6.7120023e+12
6.711221e+12
6.7112209e+12
6.712002e+12
6.7122103e+12
6.7113591e+12
6.7084531e+12
6.710498e+12
6.7155835e+12
6.6996376e+12
6.6579104e+12
6.5737155e+12
6.2998803e+12
6.3852937e+12
6.4271337e+12
6.4436447e+12
6.4379607e+12
6.4365216e+12
6.4400866e+12
6.4411286e+12
6.4411278e+12
6.4397709e+12
6.4397708e+12
6.4411275e+12
6.4411282e+12
6.4400861e+12
6.436521e+12
6.4379599e+12
6.443644e+12
6.4271329e+12
6.385293e+12
6.2998796e+12
6.0324512e+12
6.1196632e+12
6.1619571e+12
6.1788135e+12
6.1730816e+12
6.172699e+12
6.1769611e+12
6.1782234e+12
6.1786161e+12
6.176563e+12
6.176563e+12
6.1786159e+12
6.1782231e+12
6.1769608e+12
6.1726987e+12
6.1730812e+12
6.1788132e+12
6.1619568e+12
6.1196631e+12
6.0324512e+12
5.77099e+12
5.8603127e+12
5.9035993e+12
5.9206755e+12
5.9153944e+12
5.9163591e+12
5.9212754e+12
5.9227807e+12
5.9237195e+12
5.9209264e+12
5.9209264e+12
5.9237194e+12
5.9227806e+12
5.9212753e+12
5.9163591e+12
5.9153943e+12
5.9206756e+12
5.9035993e+12
5.860313e+12
5.7709904e+12
5.5147869e+12
5.6064169e+12
5.6512673e+12
5.668588e+12
5.6641931e+12
5.6666353e+12
5.6720833e+12
5.6738458e+12
5.6753788e+12
5.6718977e+12
5.6718977e+12
5.6753788e+12
5.6738458e+12
5.6720835e+12
5.6666356e+12
5.6641934e+12
5.6685885e+12
5.6512679e+12
5.6064178e+12
5.5147879e+12
5.2640565e+12
5.3580713e+12
5.4049113e+12
5.4226755e+12
5.4194769e+12
5.4234027e+12
5.4292318e+12
5.4312464e+12
5.4332587e+12
5.4292362e+12
5.4292362e+12
5.4332588e+12
5.4312465e+12
5.4292321e+12
5.4234031e+12
5.4194774e+12
5.4226763e+12
5.4049122e+12
5.3580725e+12
5.2640579e+12
5.0182402e+12
5.1148296e+12
5.1638233e+12
5.18232e+12
5.1804598e+12
5.1858038e+12
5.1919045e+12
5.1941432e+12
5.1963655e+12
5.1920173e+12
5.1920173e+12
5.1963656e+12
5.1941434e+12
5.1919048e+12
5.1858044e+12
5.1804605e+12
5.1823211e+12
5.1638245e+12
5.1148312e+12
5.0182419e+12
4.7775127e+12
4.8769057e+12
4.9280015e+12
4.9474595e+12
4.9469992e+12
4.953596e+12
4.9598948e+12
4.9622914e+12
4.9643644e+12
4.9599392e+12
4.9599392e+12
4.9643645e+12
4.9622916e+12
4.9598952e+12
4.9535966e+12
4.947e+12
4.9474607e+12
4.9280029e+12
4.8769076e+12
4.7775145e+12
4.5428081e+12
4.6451807e+12
4.6982125e+12
4.7185898e+12
4.7196647e+12
4.7272264e+12
4.7336321e+12
4.736092e+12
4.737686e+12
4.73343e+12
4.73343e+12
4.7376861e+12
4.7360921e+12
4.7336325e+12
4.7272271e+12
4.7196656e+12
4.7185911e+12
4.6982141e+12
4.6451827e+12
4.54281e+12
4.3151726e+12
4.420743e+12
4.4755547e+12
4.4965725e+12
4.4995009e+12
4.5076229e+12
4.5139573e+12
4.5163533e+12
4.5172659e+12
4.5133851e+12
4.5133851e+12
4.517266e+12
4.5163534e+12
4.5139577e+12
4.5076235e+12
4.4995017e+12
4.4965738e+12
4.4755563e+12
4.420745e+12
4.3151744e+12
4.0968385e+12
4.2061576e+12
4.2627337e+12
4.2842039e+12
4.2895298e+12
4.2977313e+12
4.3037224e+12
4.3058782e+12
4.3060685e+12
4.3026949e+12
4.3026949e+12
4.3060686e+12
4.3058782e+12
4.3037227e+12
4.2977319e+12
4.2895306e+12
4.284205e+12
4.2627352e+12
4.2061595e+12
4.0968401e+12
3.890076e+12
4.0048237e+12
4.063608e+12
4.0861598e+12
4.0946659e+12
4.1027251e+12
4.1081848e+12
4.1099133e+12
4.1094878e+12
4.1066662e+12
4.1066662e+12
4.1094877e+12
4.1099132e+12
4.108185e+12
4.1027255e+12
4.0946665e+12
4.0861607e+12
4.0636094e+12
4.0048253e+12
3.8900773e+12
3.6963592e+12
3.8203571e+12
3.882997e+12
3.9086352e+12
3.9213119e+12
3.9295933e+12
3.9347305e+12
3.9358724e+12
3.9350124e+12
3.9326919e+12
3.9326919e+12
3.9350122e+12
3.9358723e+12
3.9347304e+12
3.9295934e+12
3.9213122e+12
3.9086358e+12
3.8829981e+12
3.8203585e+12
3.6963605e+12
3.5135589e+12
3.6541952e+12
3.7244194e+12
3.7565039e+12
3.7748298e+12
3.7844194e+12
3.7897887e+12
3.7903779e+12
3.7893034e+12
3.7873579e+12
3.7873578e+12
3.7893032e+12
3.7903776e+12
3.7897884e+12
3.7844193e+12
3.7748299e+12
3.7565043e+12
3.7244203e+12
3.6541967e+12
3.5135607e+12
3.3316085e+12
3.5009642e+12
3.5855952e+12
3.6280435e+12
3.6537439e+12
3.666271e+12
3.6723317e+12
3.672409e+12
3.67138e+12
3.6696556e+12
3.6696555e+12
3.6713797e+12
3.6724086e+12
3.6723313e+12
3.6662707e+12
3.6537438e+12
3.6280438e+12
3.5855962e+12
3.5009662e+12
3.3316117e+12
3.1301161e+12
3.3444423e+12
3.4533866e+12
3.5097759e+12
3.5438727e+12
3.5608599e+12
3.5677399e+12
3.5669915e+12
3.566239e+12
3.5645992e+12
3.5645991e+12
3.5662387e+12
3.5669911e+12
3.5677395e+12
3.5608597e+12
3.5438728e+12
3.5097764e+12
3.4533882e+12
3.3444458e+12
3.1301221e+12
2.8865574e+12
3.1595649e+12
3.3035415e+12
3.3770534e+12
3.419875e+12
3.4419228e+12
3.4495071e+12
3.4479908e+12
3.4475415e+12
3.4458666e+12
3.4458665e+12
3.4475413e+12
3.4479905e+12
3.449507e+12
3.4419228e+12
3.4198754e+12
3.3770546e+12
3.3035442e+12
3.1595712e+12
2.8865676e+12
2.5894417e+12
2.923964e+12
3.1101744e+12
3.2035605e+12
3.2562783e+12
3.2831331e+12
3.2919998e+12
3.2906764e+12
3.2903075e+12
3.2884712e+12
3.2884712e+12
3.2903074e+12
3.2906764e+12
3.292e+12
3.2831336e+12
3.2562795e+12
3.2035627e+12
3.1101788e+12
2.9239736e+12
2.5894568e+12
2.2447608e+12
2.6299016e+12
2.8574894e+12
2.9725036e+12
3.0370108e+12
3.0696e+12
3.0811397e+12
3.0807644e+12
3.0802215e+12
3.0781116e+12
3.0781116e+12
3.0802215e+12
3.0807647e+12
3.0811403e+12
3.069601e+12
3.0370126e+12
2.9725069e+12
2.8574956e+12
2.6299142e+12
2.24478e+12
1.8709692e+12
2.2825744e+12
2.5431921e+12
2.6804175e+12
2.7582341e+12
2.798138e+12
2.8137519e+12
2.8159585e+12
2.8151629e+12
2.8127245e+12
2.8127245e+12
2.8151631e+12
2.8159591e+12
2.8137528e+12
2.7981394e+12
2.7582365e+12
2.6804217e+12
2.5431998e+12
2.2825893e+12
1.8709913e+12
1.4919516e+12
1.8971361e+12
2.1763825e+12
2.333705e+12
2.4254857e+12
2.4751048e+12
2.4956171e+12
2.5014983e+12
2.50065e+12
2.4979278e+12
2.4979279e+12
2.5006504e+12
2.5014991e+12
2.4956182e+12
2.4751066e+12
2.4254887e+12
2.3337099e+12
2.1763911e+12
1.8971526e+12
1.4919775e+12
0
0
1.7747675e+12
1.9308482e+12
2.026581e+12
2.0823606e+12
2.1064934e+12
2.1171962e+12
2.1160501e+12
2.1128633e+12
2.1128633e+12
2.1160504e+12
2.1171968e+12
2.1064943e+12
2.0823622e+12
2.0265835e+12
1.9308524e+12
1.7747751e+12
0
0
)
;

boundaryField
{
    Wall
    {
        type            zeroGradient;
    }
    frontAndBack
    {
        type            empty;
    }
    atmosphere
    {
        type            zeroGradient;
    }
}


// ************************************************************************* //
