/*--------------------------------*- C++ -*----------------------------------*\
| =========                 |                                                 |
| \\      /  F ield         | OpenFOAM: The Open Source CFD Toolbox           |
|  \\    /   O peration     | Version:  3.0.1                                 |
|   \\  /    A nd           | Web:      www.OpenFOAM.org                      |
|    \\/     M anipulation  |                                                 |
\*---------------------------------------------------------------------------*/
FoamFile
{
    version     2.0;
    format      ascii;
    class       volScalarField;
    location    "16";
    object      alpha.gas;
}
// * * * * * * * * * * * * * * * * * * * * * * * * * * * * * * * * * * * * * //

dimensions      [0 0 0 0 0 0 0];

internalField   nonuniform List<scalar> 
800
(
2.4169952e-28
2.3294266e-25
4.4825895e-22
8.7133341e-22
2.7033669e-24
1.0777639e-21
9.35694e-22
5.4896731e-23
6.5477242e-26
2.5590842e-29
3.0643877e-23
2.9883737e-23
1.2170798e-25
6.943859e-23
6.8595654e-23
1.0372985e-27
3.0888388e-32
6.4081679e-36
1.2650453e-39
2.3500476e-43
4.5899868e-12
1.0398088e-12
7.6396591e-11
2.7083073e-11
1.0161145e-12
3.6066654e-11
2.8296584e-11
3.4085408e-11
6.9305466e-11
1.7398912e-10
8.7392934e-11
8.7055665e-11
4.7103071e-11
2.7906772e-11
2.6408101e-11
5.1511517e-12
1.1213276e-16
5.1396551e-14
1.4699335e-11
2.0005526e-14
9.42736e-05
9.010678e-05
8.984431e-05
8.9929413e-05
8.9998901e-05
9.0041885e-05
9.0069955e-05
9.0090213e-05
9.0103766e-05
9.0110628e-05
9.0110562e-05
9.0103755e-05
9.0090181e-05
9.0069896e-05
9.00418e-05
8.9998812e-05
8.9929276e-05
8.9844143e-05
9.010667e-05
9.4273507e-05
0.00060224265
0.00056321287
0.00055968194
0.00055996067
0.00056042146
0.00056079872
0.00056113453
0.00056138056
0.00056155527
0.00056164157
0.00056164145
0.00056155506
0.00056138018
0.00056113399
0.00056079799
0.00056042064
0.00055995966
0.00055968095
0.00056321185
0.00060224148
0.0032824938
0.0029537373
0.0029136591
0.002908815
0.0029106022
0.0029139805
0.0029171697
0.002919997
0.0029218653
0.0029228157
0.002922815
0.0029218636
0.002919994
0.0029171654
0.0029139749
0.0029105957
0.0029088076
0.0029136511
0.0029537289
0.0032824828
0.036154346
0.029889553
0.029035677
0.028890502
0.028911886
0.028982479
0.029048916
0.029108679
0.029147161
0.029168239
0.029168228
0.029147136
0.029108634
0.029048846
0.028982388
0.028911775
0.02889037
0.02903554
0.029889404
0.036154139
0.45333945
0.40862029
0.40139726
0.40039151
0.4006414
0.40126007
0.40182503
0.40231433
0.40262818
0.40280068
0.40280061
0.402628
0.40231401
0.40182452
0.40125938
0.40064056
0.4003905
0.40139622
0.40861917
0.45333821
0.92612917
0.90958433
0.90655153
0.90626589
0.90642482
0.9067015
0.90694121
0.90714022
0.90726668
0.90733573
0.9073357
0.90726661
0.9071401
0.90694102
0.90670123
0.9064245
0.90626551
0.90655114
0.90958392
0.92612879
0.99827629
0.99735465
0.99713554
0.9971339
0.99715547
0.9971794
0.99719776
0.99721149
0.99721995
0.99722443
0.99722443
0.99721994
0.99721148
0.99719775
0.99717938
0.99715545
0.99713388
0.99713552
0.99735463
0.99827627
0.9999959
0.99998924
0.99998691
0.99998696
0.99998728
0.9999876
0.99998782
0.99998798
0.99998807
0.99998812
0.99998812
0.99998807
0.99998798
0.99998782
0.9999876
0.99998728
0.99998696
0.99998691
0.99998924
0.9999959
1
1
0.99999999
0.99999999
0.99999999
0.99999999
0.99999999
0.99999999
0.99999999
0.99999999
0.99999999
0.99999999
0.99999999
0.99999999
0.99999999
0.99999999
0.99999999
0.99999999
1
1
1
1
1
1
1
1
1
1
1
1
1
1
1
1
1
1
1
1
1
1
1
1
1
1
1
1
1
1
1
1
1
1
1
1
1
1
1
1
1
1
1
1
1
1
1
1
1
1
1
1
1
1
1
1
1
1
1
1
1
1
1
1
1
1
1
1
1
1
1
1
1
1
1
1
1
1
1
1
1
1
1
1
1
1
1
1
1
1
1
1
1
1
1
1
1
1
1
1
1
1
1
1
1
1
1
1
1
1
1
1
1
1
1
1
1
1
1
1
1
1
1
1
1
1
1
1
1
1
1
1
1
1
1
1
1
1
1
1
1
1
1
1
1
1
1
1
1
1
1
1
1
1
1
1
1
1
1
1
1
1
1
1
1
1
1
1
1
1
1
1
1
1
1
1
1
1
1
1
1
1
1
1
1
1
1
1
1
1
1
1
1
1
1
1
1
1
1
1
1
1
1
1
1
1
1
1
1
1
1
1
1
1
1
1
1
1
1
1
1
1
1
1
1
1
1
1
1
1
1
1
1
1
1
1
1
1
1
1
1
1
1
1
1
1
1
1
1
1
1
1
1
1
1
1
1
1
1
1
1
1
1
1
1
1
1
1
1
1
1
1
1
1
1
1
1
1
1
1
1
1
1
1
1
1
1
1
1
1
1
1
1
1
1
1
1
1
1
1
1
1
1
1
1
1
1
1
1
1
1
1
1
1
1
1
1
1
1
1
1
1
1
1
1
1
1
1
1
1
1
1
1
1
1
1
1
1
1
1
1
1
1
1
1
1
1
1
1
1
1
1
1
1
1
1
1
1
1
1
1
1
1
1
1
1
1
1
1
1
1
1
1
1
1
1
1
1
1
1
1
1
1
1
1
1
1
1
1
1
1
1
1
1
1
1
1
1
1
1
1
1
1
1
1
1
1
1
1
1
1
1
1
1
1
1
1
1
1
1
1
1
1
1
1
1
1
1
1
1
1
1
1
1
1
1
1
1
1
1
1
1
1
1
1
1
1
1
1
1
1
1
1
1
1
1
1
1
1
1
1
1
1
1
1
1
1
1
1
1
1
1
1
1
1
1
1
1
1
1
1
1
1
1
1
1
1
1
1
1
1
1
1
1
1
1
1
1
1
1
1
1
1
1
1
1
1
1
1
1
1
1
1
1
1
1
1
1
1
1
1
1
1
1
1
1
1
1
1
1
1
1
1
1
1
1
1
1
1
1
1
1
1
1
1
1
1
1
1
1
1
1
1
1
1
1
1
1
1
1
1
1
1
1
1
1
1
1
1
1
1
1
1
1
1
1
1
1
1
1
1
1
)
;

boundaryField
{
    Wall
    {
        type            zeroGradient;
    }
    frontAndBack
    {
        type            empty;
    }
    atmosphere
    {
        type            zeroGradient;
    }
}


// ************************************************************************* //
