/*--------------------------------*- C++ -*----------------------------------*\
| =========                 |                                                 |
| \\      /  F ield         | OpenFOAM: The Open Source CFD Toolbox           |
|  \\    /   O peration     | Version:  3.0.1                                 |
|   \\  /    A nd           | Web:      www.OpenFOAM.org                      |
|    \\/     M anipulation  |                                                 |
\*---------------------------------------------------------------------------*/
FoamFile
{
    version     2.0;
    format      ascii;
    class       volScalarField;
    location    "16";
    object      M1;
}
// * * * * * * * * * * * * * * * * * * * * * * * * * * * * * * * * * * * * * //

dimensions      [0 0 0 0 0 0 0];

internalField   nonuniform List<scalar> 
800
(
0.81940244
0.81940279
0.81940168
0.81940097
0.81940043
0.8194
0.81939968
0.81939945
0.8193993
0.81939922
0.81939922
0.8193993
0.81939945
0.81939968
0.8194
0.81940043
0.81940097
0.81940168
0.81940279
0.81940244
0.80519752
0.80560252
0.80564161
0.80565018
0.80565626
0.80566249
0.80566804
0.8056723
0.80567509
0.80567646
0.80567646
0.80567509
0.8056723
0.80566804
0.80566249
0.80565626
0.80565018
0.80564161
0.80560253
0.80519752
0.78184798
0.78250026
0.78282567
0.78285013
0.78286383
0.78287705
0.78288833
0.78289684
0.78290239
0.78290513
0.78290513
0.78290239
0.78289684
0.78288833
0.78287705
0.78286383
0.78285014
0.78282568
0.78250026
0.78184797
0.74253565
0.74376658
0.74421418
0.74425251
0.74427682
0.74429793
0.74431493
0.74432722
0.74433504
0.74433884
0.74433884
0.74433504
0.74432721
0.74431492
0.74429793
0.74427682
0.74425251
0.74421419
0.74376659
0.74253565
0.68978536
0.6919209
0.69242067
0.69249013
0.69253354
0.69256571
0.69258809
0.69260272
0.69261142
0.69261549
0.69261549
0.69261142
0.69260272
0.69258809
0.69256572
0.69253355
0.69249014
0.69242068
0.69192091
0.68978536
0.60683717
0.61171886
0.61239226
0.61256123
0.61265237
0.6127061
0.61273698
0.61275257
0.61276089
0.61276445
0.61276445
0.61276089
0.61275257
0.61273698
0.61270611
0.61265238
0.61256124
0.61239228
0.61171889
0.60683718
0.46150022
0.47188188
0.47426804
0.47463062
0.4747939
0.47486756
0.47489963
0.47490885
0.47491165
0.47491092
0.47491092
0.47491165
0.47490885
0.47489964
0.47486758
0.47479393
0.47463066
0.47426809
0.47188194
0.46150025
0.29481503
0.30688596
0.309589
0.31008568
0.31020845
0.31020817
0.3101744
0.31014047
0.31011476
0.31009724
0.31009724
0.31011476
0.31014046
0.31017441
0.31020821
0.31020852
0.31008577
0.30958909
0.30688606
0.29481512
0.15014661
0.16753841
0.17200173
0.17260231
0.17241707
0.17213004
0.17189177
0.17173878
0.17164375
0.17159155
0.17159154
0.17164374
0.17173874
0.17189177
0.17213009
0.17241715
0.17260242
0.17200182
0.16753853
0.15014673
0.05376503
0.076847858
0.083440083
0.084603243
0.084219992
0.083573604
0.083021581
0.082655462
0.082431812
0.082319716
0.082319693
0.082431784
0.082655403
0.08302156
0.083573629
0.084220042
0.084603326
0.083440141
0.076847936
0.053765114
0.0127708
0.029581361
0.036049613
0.037784761
0.037717811
0.037148649
0.036565854
0.036142496
0.035873463
0.035740068
0.035740045
0.035873429
0.036142432
0.036565819
0.037148651
0.037717829
0.037784808
0.036049638
0.029581393
0.012770828
0.0021325745
0.0096893145
0.014022212
0.015611786
0.015828704
0.01553766
0.015149133
0.01483945
0.014633805
0.014530913
0.014530897
0.014633778
0.0148394
0.0151491
0.015537652
0.015828703
0.015611805
0.014022219
0.0096893227
0.0021325798
0.00027278519
0.0027532001
0.0049659654
0.0060182017
0.0062828187
0.006189171
0.0059934213
0.0058214433
0.00570226
0.0056418813
0.0056418715
0.0057022427
0.0058214121
0.0059933992
0.0061891611
0.0062828117
0.0060182074
0.0049659654
0.0027532005
0.00027278597
2.8772998e-05
0.00069262497
0.0016191662
0.0021786176
0.0023693629
0.0023588248
0.0022778561
0.0021983399
0.0021408444
0.0021113463
0.0021113413
0.0021408351
0.0021983233
0.0022778434
0.0023588179
0.0023693567
0.0021786182
0.0016191655
0.00069262449
2.8773096e-05
2.6421476e-06
0.00015742876
0.00049123838
0.00074502648
0.00085165903
0.00086196719
0.00083350929
0.00080137932
0.00077709387
0.00076447554
0.00076447331
0.00077708935
0.00080137149
0.0008335028
0.0008619632
0.00085165516
0.00074502587
0.00049123799
0.00015742851
2.642159e-06
2.1898378e-07
3.2940298e-05
0.00014007925
0.0002420485
0.00029266249
0.00030248976
0.00029397486
0.00028232147
0.00027307403
0.00026820567
0.00026820474
0.00027307201
0.0002823181
0.00029397186
0.00030248776
0.00029266053
0.00024204796
0.00014007909
3.2940221e-05
2.1898512e-07
1.6761641e-08
6.4479835e-06
3.78908e-05
7.5107519e-05
9.6437065e-05
0.000102112
0.00010003187
9.6180877e-05
9.2949211e-05
9.1223388e-05
9.1223034e-05
9.2948377e-05
9.6179528e-05
0.0001000306
0.0001021111
9.6436194e-05
7.5107226e-05
3.7890744e-05
6.4479652e-06
1.6761785e-08
1.2025878e-09
1.1967579e-06
9.8009513e-06
2.2365842e-05
3.0559696e-05
3.3215987e-05
3.2872409e-05
3.1704287e-05
3.0655835e-05
3.008674e-05
3.0086612e-05
3.0655513e-05
3.1703779e-05
3.2871906e-05
3.3215607e-05
3.055935e-05
2.2365708e-05
9.8009335e-06
1.1967541e-06
1.2026017e-09
8.1717834e-11
2.1297869e-07
2.4406183e-06
6.4175697e-06
9.3370352e-06
1.0429404e-05
1.0443174e-05
1.0117563e-05
9.7994036e-06
9.6233482e-06
9.623304e-06
9.7992853e-06
1.0117382e-05
1.0442986e-05
1.0429254e-05
9.3369082e-06
6.4175159e-06
2.4406125e-06
2.1297795e-07
8.1719083e-11
5.302749e-12
3.66852e-08
5.8825164e-07
1.7801875e-06
2.7566422e-06
3.1657601e-06
3.2103665e-06
3.1274767e-06
3.0367433e-06
2.985337e-06
2.9853224e-06
3.0367021e-06
3.1274147e-06
3.2102998e-06
3.1657043e-06
2.7565986e-06
1.780168e-06
5.882497e-07
3.6685056e-08
5.3028489e-12
3.3113682e-13
6.1638457e-09
1.3779298e-07
4.7859567e-07
7.8783859e-07
9.3017778e-07
9.5578234e-07
9.3686998e-07
9.1249225e-07
8.9826406e-07
8.9825934e-07
9.124785e-07
9.3684966e-07
9.5575971e-07
9.30158e-07
7.8782435e-07
4.7858911e-07
1.3779234e-07
6.163817e-09
3.3114414e-13
2.0063906e-14
1.0164656e-09
3.1458936e-08
1.2493518e-07
2.1826505e-07
2.6483936e-07
2.7577244e-07
2.7208996e-07
2.6591734e-07
2.6217341e-07
2.6217194e-07
2.6591293e-07
2.7208354e-07
2.7576508e-07
2.6483269e-07
2.1826056e-07
1.2493311e-07
3.1458729e-08
1.0164598e-09
2.0064402e-14
1.1910009e-15
1.652437e-10
7.0132613e-09
3.1708616e-08
5.8679277e-08
7.313019e-08
7.7159331e-08
7.6640146e-08
7.5170348e-08
7.42321e-08
7.4231649e-08
7.516899e-08
7.663818e-08
7.7157033e-08
7.3128043e-08
5.867791e-08
3.1707995e-08
7.0131984e-09
1.6524246e-10
1.1910311e-15
7.0061493e-17
2.6550327e-11
1.5282764e-09
7.8311532e-09
1.5321287e-08
1.9597878e-08
2.0945866e-08
2.0944348e-08
2.0617118e-08
2.0393037e-08
2.0392904e-08
2.0616716e-08
2.0943764e-08
2.0945174e-08
1.9597218e-08
1.532088e-08
7.8309749e-09
1.5282582e-09
2.6550061e-11
7.0063131e-17
4.1373717e-18
4.2200142e-12
3.2566559e-10
1.8831307e-09
3.887741e-09
5.1000527e-09
5.519386e-09
5.5552676e-09
5.4879685e-09
5.4369971e-09
5.4369583e-09
5.4878533e-09
5.5550994e-09
5.5191845e-09
5.0998582e-09
3.8876232e-09
1.8830814e-09
3.2566066e-10
4.2199591e-12
4.137444e-18
2.4839335e-19
6.6321307e-13
6.7863953e-11
4.4107327e-10
9.5923685e-10
1.2895048e-09
1.4124483e-09
1.4306881e-09
1.4182252e-09
1.4072061e-09
1.4071952e-09
1.4181932e-09
1.4306411e-09
1.4123916e-09
1.2894497e-09
9.5920366e-10
4.4106007e-10
6.7862675e-11
6.6320208e-13
2.483952e-19
1.5305239e-20
1.0291845e-13
1.3826695e-11
1.0065659e-10
2.3024498e-10
3.1693682e-10
3.5120081e-10
3.5791424e-10
3.5596302e-10
3.5370927e-10
3.537063e-10
3.559544e-10
3.5790148e-10
3.5118537e-10
3.1692175e-10
2.302359e-10
1.0065316e-10
1.3826379e-11
1.0291636e-13
1.5305154e-20
9.7128815e-22
1.574175e-14
2.7535316e-12
2.2386389e-11
5.3788441e-11
7.5760323e-11
8.48909e-11
8.7019924e-11
8.6814845e-11
8.6382372e-11
8.6381593e-11
8.6812586e-11
8.7016562e-11
8.4886833e-11
7.5756353e-11
5.3786028e-11
2.2385526e-11
2.7534569e-12
1.5741366e-14
9.7126864e-22
6.3279351e-23
2.3687937e-15
5.3584817e-13
4.853405e-12
1.2235445e-11
1.7621919e-11
1.9958246e-11
2.0572831e-11
2.0584459e-11
2.0507844e-11
2.0507645e-11
2.0583885e-11
2.0571971e-11
1.9957208e-11
1.7620907e-11
1.2234824e-11
4.8531938e-12
5.3583114e-13
2.3687253e-15
6.3277171e-23
4.1982657e-24
3.5010095e-16
1.0188076e-13
1.0260086e-12
2.7113415e-12
3.9905878e-12
4.5664938e-12
4.7320628e-12
4.7477447e-12
4.7356346e-12
4.7355851e-12
4.7476033e-12
4.7318494e-12
4.5662369e-12
3.9903384e-12
2.7111867e-12
1.0259585e-12
1.0187701e-13
3.5008917e-16
4.1980296e-24
1.4105019e-24
5.0753314e-17
1.8923548e-14
2.115605e-13
5.855854e-13
8.8029901e-13
1.0174081e-12
1.0596087e-12
1.0658552e-12
1.0642951e-12
1.0642832e-12
1.0658213e-12
1.0595574e-12
1.0173464e-12
8.8023938e-13
5.8554808e-13
2.115489e-13
1.8922747e-14
5.0751342e-17
1.3590254e-24
4.5718573e-25
7.2094762e-18
3.4338326e-15
4.2564816e-14
1.2332536e-13
1.8926774e-13
2.2086055e-13
2.3112391e-13
2.3304624e-13
2.3294009e-13
2.3293733e-13
2.3303839e-13
2.3111193e-13
2.208462e-13
1.8925392e-13
1.2331663e-13
4.2562205e-14
3.4336663e-15
7.2091537e-18
4.2388061e-25
9.7363715e-26
1.0028015e-18
6.0879359e-16
8.3592689e-15
2.533908e-14
3.9684749e-14
4.6742765e-14
4.9138184e-14
4.9658618e-14
4.9682451e-14
4.9681824e-14
4.9656852e-14
4.9135468e-14
4.673952e-14
3.9681637e-14
2.5337104e-14
8.3586965e-15
6.0875995e-16
1.0027499e-18
8.9631754e-26
1.2743662e-26
1.365282e-19
1.0547759e-16
1.6031296e-15
5.0819457e-15
8.1193451e-15
9.6504537e-15
1.0189206e-14
1.0318897e-14
1.0332813e-14
1.0332676e-14
1.031851e-14
1.0188607e-14
9.6497399e-15
8.1186631e-15
5.0815116e-15
1.6030077e-15
1.0547095e-16
1.3652011e-19
1.1355577e-26
9.6089141e-28
1.8190599e-20
1.7863404e-17
3.0036075e-16
9.953982e-16
1.621879e-15
1.9448269e-15
2.0619573e-15
2.0923511e-15
2.0968629e-15
2.096834e-15
2.0922686e-15
2.0618292e-15
1.944674e-15
1.6217334e-15
9.9530566e-16
3.0033542e-16
1.7862122e-17
1.8189353e-20
5.7433849e-28
2.760841e-29
2.3718382e-21
2.9581505e-18
5.5003488e-17
1.9051059e-16
3.1649292e-16
3.8280174e-16
4.0747887e-16
4.1425876e-16
4.1546375e-16
4.1545779e-16
4.142416e-16
4.0745223e-16
3.8276991e-16
3.1646264e-16
1.9049139e-16
5.4998363e-17
2.9579091e-18
2.3716496e-21
1.5822159e-29
5.8463174e-31
3.026835e-22
4.79164e-19
9.8494665e-18
3.5647076e-17
6.0367409e-17
7.3634655e-17
7.8682824e-17
8.0133275e-17
8.0422653e-17
8.0421449e-17
8.0129796e-17
7.8677422e-17
7.3628195e-17
6.0361271e-17
3.5643196e-17
9.8484541e-18
4.7911954e-19
3.0265552e-22
3.3416329e-31
1.1336039e-32
3.7813859e-23
7.5949379e-20
1.7255027e-18
6.5243368e-18
1.1260939e-17
1.3850206e-17
1.4854619e-17
1.5153746e-17
1.5218429e-17
1.5218192e-17
1.5153058e-17
1.4853551e-17
1.3848927e-17
1.1259724e-17
6.5235723e-18
1.7253074e-18
7.5941381e-20
3.7809788e-23
6.5900442e-33
2.767218e-34
4.6258698e-24
1.1784669e-20
2.9587253e-19
1.1686345e-18
2.0554915e-18
2.548824e-18
2.7434709e-18
2.8031595e-18
2.8168525e-18
2.8168067e-18
2.8030266e-18
2.7432645e-18
2.5485763e-18
2.0552563e-18
1.1684874e-18
2.9583576e-19
1.1783263e-20
4.6252906e-24
1.5541188e-34
1.2629387e-35
5.5431777e-25
1.790798e-21
4.9680366e-20
2.0496014e-19
3.6732908e-19
4.5916658e-19
4.9595187e-19
5.0750833e-19
5.1028158e-19
5.102729e-19
5.0748327e-19
4.959129e-19
4.5911965e-19
3.6728454e-19
2.0493248e-19
4.9673594e-20
1.7905566e-21
5.5423713e-25
5.485095e-36
)
;

boundaryField
{
    Wall
    {
        type            zeroGradient;
    }
    frontAndBack
    {
        type            empty;
    }
    atmosphere
    {
        type            zeroGradient;
    }
}


// ************************************************************************* //
