/*--------------------------------*- C++ -*----------------------------------*\
| =========                 |                                                 |
| \\      /  F ield         | OpenFOAM: The Open Source CFD Toolbox           |
|  \\    /   O peration     | Version:  3.0.1                                 |
|   \\  /    A nd           | Web:      www.OpenFOAM.org                      |
|    \\/     M anipulation  |                                                 |
\*---------------------------------------------------------------------------*/
FoamFile
{
    version     2.0;
    format      ascii;
    class       volScalarField;
    location    "16";
    object      M3;
}
// * * * * * * * * * * * * * * * * * * * * * * * * * * * * * * * * * * * * * //

dimensions      [0 0 0 0 0 0 0];

internalField   nonuniform List<scalar> 
800
(
1.3407187e-25
1.3407774e-25
1.3407682e-25
1.3407596e-25
1.3407531e-25
1.3407478e-25
1.3407439e-25
1.3407411e-25
1.3407392e-25
1.3407383e-25
1.3407383e-25
1.3407392e-25
1.3407411e-25
1.3407439e-25
1.3407479e-25
1.3407531e-25
1.3407596e-25
1.3407682e-25
1.3407774e-25
1.3407187e-25
1.1402265e-25
1.1457649e-25
1.1463054e-25
1.1463908e-25
1.146446e-25
1.1465133e-25
1.1465781e-25
1.1466293e-25
1.1466632e-25
1.14668e-25
1.14668e-25
1.1466632e-25
1.1466293e-25
1.1465781e-25
1.1465133e-25
1.146446e-25
1.1463909e-25
1.1463055e-25
1.1457649e-25
1.1402265e-25
9.7555947e-26
9.8177526e-26
9.8610219e-26
9.863193e-26
9.864456e-26
9.8657497e-26
9.8668978e-26
9.86778e-26
9.8683609e-26
9.868648e-26
9.868648e-26
9.8683609e-26
9.8677799e-26
9.8668979e-26
9.86575e-26
9.8644564e-26
9.8631936e-26
9.8610227e-26
9.8177532e-26
9.7555947e-26
7.5678991e-26
7.6472209e-26
7.6899346e-26
7.6926976e-26
7.6945451e-26
7.6962063e-26
7.697589e-26
7.6986147e-26
7.6992798e-26
7.6996055e-26
7.6996055e-26
7.6992796e-26
7.6986144e-26
7.6975889e-26
7.6962063e-26
7.6945451e-26
7.6926978e-26
7.6899349e-26
7.6472211e-26
7.5678986e-26
5.8771075e-26
5.952474e-26
5.9831327e-26
5.9867283e-26
5.9892738e-26
5.9912989e-26
5.9928285e-26
5.9938972e-26
5.9945671e-26
5.9948893e-26
5.9948892e-26
5.9945668e-26
5.9938968e-26
5.9928281e-26
5.9912986e-26
5.9892735e-26
5.9867281e-26
5.9831327e-26
5.9524739e-26
5.8771068e-26
4.1120657e-26
4.2167091e-26
4.2372399e-26
4.241752e-26
4.244898e-26
4.2471751e-26
4.2487385e-26
4.2497597e-26
4.2503751e-26
4.2506674e-26
4.2506673e-26
4.2503748e-26
4.2497592e-26
4.248738e-26
4.2471747e-26
4.2448976e-26
4.2417516e-26
4.2372397e-26
4.2167089e-26
4.112065e-26
1.9836625e-26
2.1157273e-26
2.1534887e-26
2.1575305e-26
2.1601558e-26
2.1618951e-26
2.1629862e-26
2.1636594e-26
2.1640459e-26
2.1642266e-26
2.1642266e-26
2.1640457e-26
2.1636591e-26
2.1629858e-26
2.1618949e-26
2.1601556e-26
2.1575303e-26
2.1534886e-26
2.1157272e-26
1.9836621e-26
7.3648726e-27
7.9180593e-27
8.0477302e-27
8.0703493e-27
8.0841034e-27
8.092058e-27
8.0964341e-27
8.0988531e-27
8.1001174e-27
8.1006818e-27
8.1006816e-27
8.1001165e-27
8.0988518e-27
8.096433e-27
8.0920575e-27
8.0841033e-27
8.0703492e-27
8.0477308e-27
7.9180601e-27
7.3648718e-27
2.1843804e-27
2.4793253e-27
2.5283085e-27
2.5316075e-27
2.5320098e-27
2.5320003e-27
2.5317896e-27
2.5315554e-27
2.5313772e-27
2.5312617e-27
2.5312616e-27
2.5313768e-27
2.5315548e-27
2.5317891e-27
2.5320003e-27
2.5320101e-27
2.5316078e-27
2.5283091e-27
2.4793261e-27
2.1843807e-27
4.4546923e-28
6.4374447e-28
6.8040412e-28
6.8067778e-28
6.7563114e-28
6.7113043e-28
6.678952e-28
6.6578908e-28
6.6454791e-28
6.639508e-28
6.639507e-28
6.6454769e-28
6.6578876e-28
6.6789494e-28
6.7113041e-28
6.7563128e-28
6.8067794e-28
6.8040434e-28
6.437448e-28
4.4546949e-28
5.8429374e-29
1.3604675e-28
1.591026e-28
1.6234604e-28
1.6033949e-28
1.5757909e-28
1.5525548e-28
1.5360977e-28
1.5259325e-28
1.5210334e-28
1.5210329e-28
1.5259312e-28
1.536096e-28
1.5525533e-28
1.5757904e-28
1.6033951e-28
1.6234609e-28
1.5910264e-28
1.3604683e-28
5.8429415e-29
5.2487897e-30
2.3565669e-29
3.2482903e-29
3.4825367e-29
3.4645314e-29
3.377857e-29
3.2897819e-29
3.2219809e-29
3.1782246e-29
3.1568192e-29
3.1568169e-29
3.1782196e-29
3.2219738e-29
3.2897758e-29
3.3778541e-29
3.4645305e-29
3.4825372e-29
3.2482908e-29
2.356568e-29
5.2487918e-30
3.5259276e-31
3.4139811e-30
5.8346264e-30
6.7572305e-30
6.8743256e-30
6.694879e-30
6.458652e-30
6.2606291e-30
6.1276804e-30
6.0616482e-30
6.0616419e-30
6.1276651e-30
6.2606074e-30
6.4586326e-30
6.6948672e-30
6.87432e-30
6.7572299e-30
5.8346252e-30
3.4139814e-30
3.5259278e-31
1.9077318e-32
4.2315073e-31
9.3025004e-31
1.1900122e-30
1.2552922e-30
1.230842e-30
1.1808007e-30
1.134682e-30
1.1025216e-30
1.0863182e-30
1.0863166e-30
1.1025178e-30
1.1346764e-30
1.1807957e-30
1.2308386e-30
1.2552904e-30
1.1900117e-30
9.3024969e-31
4.2315063e-31
1.9077311e-32
8.7784791e-34
4.5833414e-32
1.3283328e-31
1.9084253e-31
2.1108608e-31
2.0989102e-31
2.0110928e-31
1.9204628e-31
1.8547633e-31
1.8211934e-31
1.8211901e-31
1.8547552e-31
1.9204507e-31
2.0110814e-31
2.0989021e-31
2.1108564e-31
1.9084238e-31
1.3283323e-31
4.5833398e-32
8.7784713e-34
3.5608849e-35
4.4167998e-33
1.7134346e-32
2.7973093e-32
3.2715957e-32
3.3183701e-32
3.1883127e-32
3.0333826e-32
2.9163055e-32
2.8556158e-32
2.8556094e-32
2.9162901e-32
3.0333594e-32
3.1882899e-32
3.3183536e-32
3.2715869e-32
2.7973065e-32
1.7134344e-32
4.4167994e-33
3.5608816e-35
1.3018831e-36
3.8404421e-34
2.0121781e-33
3.7624764e-33
4.6808693e-33
4.864833e-33
4.7026399e-33
4.4680364e-33
4.2824269e-33
4.18474e-33
4.1847294e-33
4.2824004e-33
4.4679965e-33
4.7025998e-33
4.8648044e-33
4.6808539e-33
3.7624731e-33
2.012179e-33
3.8404444e-34
1.3018823e-36
4.3484685e-38
3.0450526e-35
2.165839e-34
4.6624215e-34
6.1956525e-34
6.6194159e-34
6.454368e-34
6.1360053e-34
5.8707564e-34
5.7288694e-34
5.7288529e-34
5.8707158e-34
6.135943e-34
6.4543057e-34
6.6193712e-34
6.1956295e-34
4.6624188e-34
2.165842e-34
3.0450583e-35
4.3484678e-38
1.3382391e-39
2.219e-36
2.1487904e-35
5.3432212e-35
7.6050901e-35
8.3719034e-35
8.2500449e-35
7.8598405e-35
7.5148994e-35
7.3271228e-35
7.3271002e-35
7.514842e-35
7.859752e-35
8.2499566e-35
8.3718414e-35
7.6050599e-35
5.343221e-35
2.1487965e-35
2.2190083e-36
1.3382409e-39
3.8160881e-41
1.4949496e-37
1.974212e-36
5.6827281e-36
8.6792241e-36
9.8599006e-36
9.8334962e-36
9.3993121e-36
8.9881554e-36
8.76005e-36
8.7600212e-36
8.9880811e-36
9.3991969e-36
9.8333825e-36
9.8598226e-36
8.6791897e-36
5.6827328e-36
1.9742213e-36
1.4949586e-37
3.8161006e-41
1.0124145e-42
9.353403e-39
1.6861644e-37
5.6262803e-37
9.2319333e-37
1.0834731e-36
1.0946702e-36
1.0506839e-36
1.0055081e-36
9.7992469e-37
9.7992123e-37
1.0054992e-36
1.0506702e-36
1.0946567e-36
1.0834641e-36
9.2318989e-37
5.6262914e-37
1.6861761e-37
9.3534861e-39
1.0124207e-42
2.5068418e-44
5.4543853e-40
1.3431054e-38
5.1998325e-38
9.173859e-38
1.1130602e-37
1.140008e-37
1.0994145e-37
1.0534507e-37
1.0268336e-37
1.0268299e-37
1.0534408e-37
1.0993995e-37
1.1399931e-37
1.1130507e-37
9.1738276e-38
5.19985e-38
1.3431179e-38
5.4544518e-40
2.5068674e-44
5.8084066e-46
2.9732244e-41
1.0004721e-39
4.4968856e-39
8.5347653e-39
1.0710282e-38
1.1125349e-38
1.0784911e-38
1.0350265e-38
1.0092383e-38
1.0092345e-38
1.0350163e-38
1.0784757e-38
1.1125197e-38
1.0710188e-38
8.5347403e-39
4.4969074e-39
1.0004839e-39
2.9732712e-41
5.8084932e-46
1.2621805e-47
1.5187301e-42
6.9854571e-41
3.6468298e-40
7.4483483e-40
9.6703461e-40
1.0190862e-39
9.9332115e-40
9.5500712e-40
9.3166575e-40
9.3166215e-40
9.5499733e-40
9.9330628e-40
1.0190718e-39
9.6702593e-40
7.448329e-40
3.6468528e-40
6.985557e-41
1.5187596e-42
1.2622063e-47
2.5773728e-49
7.284746e-44
4.580934e-42
2.7785591e-41
6.1083643e-41
8.2065691e-41
8.7755245e-41
8.6022613e-41
8.2866717e-41
8.0887781e-41
8.0887454e-41
8.2865834e-41
8.6021277e-41
8.7753946e-41
8.2064929e-41
6.1083504e-41
2.7785803e-41
4.5810112e-42
7.284915e-44
2.5774395e-49
4.9543723e-51
3.2871398e-45
2.8264873e-43
1.9922843e-42
4.7149707e-42
6.5557154e-42
7.1142418e-42
7.0143075e-42
6.7709397e-42
6.6134301e-42
6.6134019e-42
6.7708652e-42
7.0141947e-42
7.1141317e-42
6.5556511e-42
4.7149601e-42
1.9923016e-42
2.8265413e-43
3.2872282e-45
4.9545253e-51
8.9792758e-53
1.3976024e-46
1.6434152e-44
1.3463497e-43
3.4304115e-43
4.9365081e-43
5.4369886e-43
5.3922106e-43
5.2162445e-43
5.0983292e-43
5.0983064e-43
5.2161849e-43
5.3921204e-43
5.4369002e-43
4.9364565e-43
3.4304033e-43
1.3463623e-43
1.6434499e-44
1.3976451e-46
8.9795952e-53
1.5365652e-54
5.6068894e-48
9.0167844e-46
8.5865266e-45
2.355531e-44
3.5083967e-44
3.9218921e-44
3.9127138e-44
3.7932849e-44
3.7101249e-44
3.7101075e-44
3.7932395e-44
3.9126451e-44
3.9218251e-44
3.5083572e-44
2.3555244e-44
8.5866098e-45
9.0169912e-46
5.6070795e-48
1.5366255e-54
2.4858178e-56
2.1250829e-49
4.6740284e-47
5.1742519e-46
1.528316e-45
2.3560437e-45
2.6731739e-45
2.6828472e-45
2.606702e-45
2.551376e-45
2.5513633e-45
2.6066693e-45
2.6827978e-45
2.6731255e-45
2.3560149e-45
1.5283108e-45
5.1743022e-46
4.6741431e-47
2.1251614e-49
2.4859237e-56
3.8061754e-58
7.6177752e-51
2.2916062e-48
2.9492486e-47
9.3793966e-47
1.4965564e-46
1.7234388e-46
1.7400302e-46
1.6944038e-46
1.6596405e-46
1.6596319e-46
1.6943815e-46
1.7399964e-46
1.7234058e-46
1.4965365e-46
9.379358e-47
2.9492771e-47
2.2916657e-48
7.6180802e-51
3.8063487e-58
6.8012686e-60
2.585289e-52
1.0637032e-49
1.5915637e-48
5.4498401e-48
9.000017e-48
1.0519683e-47
1.0684579e-47
1.0427623e-47
1.0221122e-47
1.0221066e-47
1.0427479e-47
1.068436e-47
1.0519471e-47
8.9998865e-48
5.4498123e-48
1.5915786e-48
1.0637322e-49
2.5854e-52
6.7433635e-60
2.247566e-61
8.3138372e-54
4.6785352e-51
8.1387296e-50
3.0005929e-49
5.1285974e-49
6.0842821e-49
6.216653e-49
6.0806948e-49
5.964627e-49
5.9645924e-49
6.0806071e-49
6.2165194e-49
6.0841526e-49
5.1285166e-49
3.0005738e-49
8.1388004e-50
4.6786665e-51
8.3142133e-54
2.0837146e-61
9.3391279e-63
2.5353925e-55
1.9513884e-52
3.9467532e-51
1.566654e-50
2.7713123e-50
3.3368798e-50
3.4298671e-50
3.3623411e-50
3.3005672e-50
3.3005469e-50
3.3622906e-50
3.4297896e-50
3.3368051e-50
2.7712648e-50
1.5666417e-50
3.9467841e-51
1.951444e-52
2.5355116e-55
8.7248282e-63
2.7310999e-64
7.3373709e-57
7.7235877e-54
1.8162172e-52
7.7620023e-52
1.4210024e-51
1.7365455e-51
1.7955933e-51
1.7641622e-51
1.7330109e-51
1.7329999e-51
1.7641346e-51
1.7955506e-51
1.7365043e-51
1.4209758e-51
7.7619277e-52
1.8162293e-52
7.7238069e-54
7.3377243e-57
2.4562798e-64
4.7284963e-66
2.0162811e-58
2.9026694e-55
7.9359539e-54
3.6514636e-53
6.9180545e-53
8.5803063e-53
8.9249243e-53
8.7881744e-53
8.6392555e-53
8.6391989e-53
8.7880314e-53
8.9247026e-53
8.5800907e-53
6.9179128e-53
3.6514213e-53
7.9359933e-54
2.9027492e-55
2.0163782e-58
3.4176317e-66
4.800077e-68
5.2638834e-60
1.0363523e-56
3.2942784e-55
1.6318436e-54
3.1994738e-54
4.0273157e-54
4.213973e-54
4.1585946e-54
4.0910775e-54
4.09105e-54
4.158524e-54
4.2138638e-54
4.0272086e-54
3.1994022e-54
1.6318209e-54
3.2942879e-55
1.036379e-56
5.2641319e-60
2.9452711e-68
2.7683973e-70
1.3061798e-61
3.516781e-58
1.2997113e-56
6.9311249e-56
1.4062872e-55
1.7964707e-55
1.8908832e-55
1.8701524e-55
1.8411113e-55
1.8410985e-55
1.8701193e-55
1.8908321e-55
1.7964201e-55
1.4062528e-55
6.9310104e-56
1.2997115e-56
3.5168624e-58
1.3062389e-61
1.7128682e-70
8.3699195e-73
3.0818211e-63
1.1346922e-59
4.8755673e-58
2.7990387e-57
5.8767452e-57
7.6187336e-57
8.0665865e-57
7.9956932e-57
7.8771551e-57
7.8770989e-57
7.9955452e-57
8.0663588e-57
7.6185058e-57
5.8765884e-57
2.7989841e-57
4.8755507e-58
1.1347143e-59
3.0819496e-63
5.4451434e-73
1.9793232e-75
6.9160181e-65
3.4821217e-61
1.7395351e-59
1.0750597e-58
2.3356401e-58
3.072858e-58
3.2726968e-58
3.2510419e-58
3.2051202e-58
3.2050968e-58
3.2509791e-58
3.2726005e-58
3.07276e-58
2.3355714e-58
1.0750348e-58
1.739522e-59
3.4821722e-61
6.9162735e-65
1.6880022e-75
1.5495542e-77
1.4765868e-66
1.0166096e-62
5.9044883e-61
3.928132e-60
8.8306557e-60
1.1789927e-59
1.2630618e-59
1.2574425e-59
1.2405566e-59
1.2405472e-59
1.2574171e-59
1.263023e-59
1.1789525e-59
8.8303694e-60
3.9280256e-60
5.9044143e-61
1.0166182e-62
1.4766317e-66
1.5496169e-77
)
;

boundaryField
{
    Wall
    {
        type            zeroGradient;
    }
    frontAndBack
    {
        type            empty;
    }
    atmosphere
    {
        type            zeroGradient;
    }
}


// ************************************************************************* //
