/*--------------------------------*- C++ -*----------------------------------*\
| =========                 |                                                 |
| \\      /  F ield         | OpenFOAM: The Open Source CFD Toolbox           |
|  \\    /   O peration     | Version:  3.0.1                                 |
|   \\  /    A nd           | Web:      www.OpenFOAM.org                      |
|    \\/     M anipulation  |                                                 |
\*---------------------------------------------------------------------------*/
FoamFile
{
    version     2.0;
    format      ascii;
    class       volScalarField;
    location    "16";
    object      mOne;
}
// * * * * * * * * * * * * * * * * * * * * * * * * * * * * * * * * * * * * * //

dimensions      [0 0 0 0 0 0 0];

internalField   nonuniform List<scalar> 
800
(
4.5371735
4.5371841
4.5371501
4.5371282
4.5371118
4.5370987
4.5370888
4.5370816
4.537077
4.5370747
4.5370747
4.537077
4.5370816
4.5370888
4.5370987
4.5371118
4.5371282
4.5371501
4.5371841
4.5371735
4.1334048
4.1440997
4.1451342
4.145361
4.1455221
4.145687
4.145834
4.1459468
4.1460207
4.146057
4.146057
4.1460207
4.1459468
4.1458341
4.1456871
4.1455222
4.145361
4.1451343
4.1440998
4.1334048
3.5839593
3.5977066
3.6045959
3.6051145
3.605405
3.6056853
3.6059248
3.6061053
3.606223
3.606281
3.6062811
3.606223
3.6061052
3.6059248
3.6056853
3.605405
3.6051146
3.6045959
3.5977066
3.5839592
2.8840329
2.9026916
2.9095209
2.9101068
2.9104785
2.9108014
2.9110613
2.9112493
2.9113691
2.9114272
2.9114272
2.911369
2.9112493
2.9110613
2.9108014
2.9104785
2.9101068
2.909521
2.9026916
2.8840328
2.2235745
2.2459196
2.2511937
2.2519281
2.2523873
2.2527276
2.2529645
2.2531192
2.2532113
2.2532544
2.2532544
2.2532113
2.2531192
2.2529644
2.2527277
2.2523874
2.2519282
2.2511938
2.2459197
2.2235744
1.5434754
1.5754535
1.5799278
1.581053
1.5816603
1.5820185
1.5822243
1.5823283
1.5823838
1.5824075
1.5824075
1.5823838
1.5823283
1.5822244
1.5820185
1.5816604
1.5810531
1.579928
1.5754536
1.5434755
0.85701096
0.89351579
0.90210996
0.90342268
0.90401445
0.90428152
0.90439783
0.90443127
0.90444143
0.90443877
0.90443877
0.90444142
0.90443125
0.90439785
0.90428159
0.90401457
0.90342283
0.90211013
0.89351599
0.85701109
0.41806766
0.44276401
0.44841261
0.44945534
0.44971333
0.44971272
0.44964176
0.44957047
0.44951645
0.44947964
0.44947963
0.44951644
0.44957045
0.44964179
0.44971281
0.44971348
0.44945554
0.44841279
0.44276424
0.41806785
0.17667354
0.20125663
0.20773199
0.20860864
0.20833812
0.20791918
0.20757162
0.20734857
0.20721006
0.20713399
0.20713398
0.20721004
0.20734852
0.20757163
0.20791925
0.20833824
0.2086088
0.20773212
0.2012568
0.17667371
0.056819956
0.083245063
0.091036146
0.092422485
0.09196531
0.091195107
0.090538206
0.090102964
0.08983726
0.089704134
0.089704108
0.089837227
0.090102894
0.090538181
0.091195137
0.091965369
0.092422584
0.091036216
0.083245154
0.05682005
0.012936003
0.030483092
0.037397789
0.039268513
0.039196206
0.038581915
0.037953662
0.037497759
0.037208252
0.037064766
0.037064741
0.037208215
0.037497689
0.037953624
0.038581917
0.039196225
0.039268563
0.037397816
0.030483127
0.012936032
0.0021371321
0.0097841159
0.014221631
0.015859379
0.016083281
0.015782889
0.015382159
0.015062977
0.014851134
0.014745174
0.014745157
0.014851106
0.015062925
0.015382126
0.01578288
0.01608328
0.015859399
0.014221638
0.0097841242
0.0021371374
0.00027285962
0.0027608011
0.0049907493
0.0060546397
0.0063225421
0.0062277154
0.006029559
0.005855531
0.0057349622
0.0056738927
0.0056738828
0.0057349448
0.0058554994
0.0060295366
0.0062277054
0.006322535
0.0060546455
0.0049907493
0.0027608015
0.00027286041
2.8773826e-05
0.00069310504
0.0016217921
0.0021833743
0.0023749901
0.002364402
0.0022830566
0.0022031833
0.0021454375
0.0021158135
0.0021158085
0.0021454281
0.0022031666
0.0022830438
0.0023643951
0.0023749839
0.0021833749
0.0016217915
0.00069310456
2.8773924e-05
2.6421545e-06
0.00015745354
0.00049147981
0.00074558196
0.00085238497
0.00086271082
0.00083420461
0.00080202204
0.00077769822
0.00076506041
0.00076505818
0.00077769369
0.0008020142
0.00083419811
0.00086270683
0.0008523811
0.00074558135
0.00049147942
0.0001574533
2.642166e-06
2.1898383e-07
3.2941383e-05
0.00014009888
0.0002421071
0.00029274816
0.00030258129
0.00029406131
0.0002824012
0.00027314862
0.00026827762
0.0002682767
0.0002731466
0.00028239782
0.00029405831
0.00030257928
0.0002927462
0.00024210656
0.00014009871
3.2941306e-05
2.1898516e-07
1.6761641e-08
6.4480251e-06
3.7892235e-05
7.5113161e-05
9.6446366e-05
0.00010212243
0.00010004188
9.6190128e-05
9.2957852e-05
9.123171e-05
9.1231356e-05
9.2957017e-05
9.618878e-05
0.0001000406
0.00010212152
9.6445495e-05
7.5112867e-05
3.789218e-05
6.4480067e-06
1.6761786e-08
1.2025878e-09
1.1967593e-06
9.8010474e-06
2.2366342e-05
3.056063e-05
3.321709e-05
3.287349e-05
3.1705292e-05
3.0656775e-05
3.0087646e-05
3.0087517e-05
3.0656453e-05
3.1704784e-05
3.2872986e-05
3.321671e-05
3.0560283e-05
2.2366208e-05
9.8010295e-06
1.1967555e-06
1.2026017e-09
8.1717834e-11
2.1297874e-07
2.4406242e-06
6.4176109e-06
9.3371224e-06
1.0429512e-05
1.0443283e-05
1.0117666e-05
9.7994997e-06
9.6234408e-06
9.6233966e-06
9.7993814e-06
1.0117484e-05
1.0443095e-05
1.0429363e-05
9.3369954e-06
6.4175571e-06
2.4406184e-06
2.12978e-07
8.1719083e-11
5.302749e-12
3.6685201e-08
5.8825198e-07
1.7801907e-06
2.7566498e-06
3.1657701e-06
3.2103768e-06
3.1274865e-06
3.0367525e-06
2.985346e-06
2.9853313e-06
3.0367113e-06
3.1274245e-06
3.2103101e-06
3.1657143e-06
2.7566062e-06
1.7801712e-06
5.8825005e-07
3.6685057e-08
5.3028489e-12
3.3113682e-13
6.1638457e-09
1.37793e-07
4.785959e-07
7.8783921e-07
9.3017864e-07
9.5578325e-07
9.3687086e-07
9.1249308e-07
8.9826487e-07
8.9826014e-07
9.1247933e-07
9.3685054e-07
9.5576062e-07
9.3015886e-07
7.8782497e-07
4.7858934e-07
1.3779236e-07
6.1638171e-09
3.3114414e-13
2.0063906e-14
1.0164656e-09
3.1458937e-08
1.2493519e-07
2.182651e-07
2.6483943e-07
2.7577252e-07
2.7209003e-07
2.6591741e-07
2.6217348e-07
2.62172e-07
2.65913e-07
2.7208362e-07
2.7576515e-07
2.6483276e-07
2.1826061e-07
1.2493313e-07
3.145873e-08
1.0164598e-09
2.0064402e-14
1.1910009e-15
1.652437e-10
7.0132614e-09
3.1708617e-08
5.8679281e-08
7.3130195e-08
7.7159336e-08
7.6640152e-08
7.5170353e-08
7.4232105e-08
7.4231654e-08
7.5168996e-08
7.6638186e-08
7.7157039e-08
7.3128048e-08
5.8677913e-08
3.1707996e-08
7.0131984e-09
1.6524246e-10
1.1910311e-15
7.0061493e-17
2.6550327e-11
1.5282764e-09
7.8311533e-09
1.5321287e-08
1.9597878e-08
2.0945866e-08
2.0944348e-08
2.0617119e-08
2.0393038e-08
2.0392904e-08
2.0616716e-08
2.0943764e-08
2.0945174e-08
1.9597219e-08
1.532088e-08
7.830975e-09
1.5282582e-09
2.6550061e-11
7.0063131e-17
4.1373717e-18
4.2200142e-12
3.2566559e-10
1.8831307e-09
3.887741e-09
5.1000528e-09
5.519386e-09
5.5552676e-09
5.4879686e-09
5.4369971e-09
5.4369583e-09
5.4878533e-09
5.5550994e-09
5.5191845e-09
5.0998583e-09
3.8876232e-09
1.8830814e-09
3.2566066e-10
4.2199591e-12
4.137444e-18
2.4839335e-19
6.6321307e-13
6.7863953e-11
4.4107327e-10
9.5923685e-10
1.2895048e-09
1.4124483e-09
1.4306881e-09
1.4182252e-09
1.4072061e-09
1.4071952e-09
1.4181932e-09
1.4306411e-09
1.4123916e-09
1.2894497e-09
9.5920366e-10
4.4106007e-10
6.7862675e-11
6.6320208e-13
2.483952e-19
1.5305239e-20
1.0291845e-13
1.3826695e-11
1.0065659e-10
2.3024498e-10
3.1693682e-10
3.5120081e-10
3.5791424e-10
3.5596303e-10
3.5370927e-10
3.537063e-10
3.559544e-10
3.5790148e-10
3.5118537e-10
3.1692175e-10
2.302359e-10
1.0065316e-10
1.3826379e-11
1.0291636e-13
1.5305154e-20
9.7128815e-22
1.574175e-14
2.7535316e-12
2.2386389e-11
5.3788441e-11
7.5760323e-11
8.48909e-11
8.7019924e-11
8.6814845e-11
8.6382372e-11
8.6381593e-11
8.6812586e-11
8.7016562e-11
8.4886833e-11
7.5756353e-11
5.3786028e-11
2.2385526e-11
2.7534569e-12
1.5741366e-14
9.7126864e-22
6.3279351e-23
2.3687937e-15
5.3584817e-13
4.853405e-12
1.2235445e-11
1.7621919e-11
1.9958246e-11
2.0572831e-11
2.0584459e-11
2.0507844e-11
2.0507645e-11
2.0583885e-11
2.0571971e-11
1.9957208e-11
1.7620907e-11
1.2234824e-11
4.8531938e-12
5.3583114e-13
2.3687253e-15
6.3277171e-23
4.1982657e-24
3.5010095e-16
1.0188076e-13
1.0260086e-12
2.7113415e-12
3.9905878e-12
4.5664938e-12
4.7320628e-12
4.7477447e-12
4.7356346e-12
4.7355851e-12
4.7476033e-12
4.7318494e-12
4.5662369e-12
3.9903384e-12
2.7111867e-12
1.0259585e-12
1.0187701e-13
3.5008917e-16
4.1980296e-24
1.4105019e-24
5.0753314e-17
1.8923548e-14
2.115605e-13
5.855854e-13
8.8029901e-13
1.0174081e-12
1.0596087e-12
1.0658552e-12
1.0642951e-12
1.0642832e-12
1.0658213e-12
1.0595574e-12
1.0173464e-12
8.8023938e-13
5.8554808e-13
2.115489e-13
1.8922747e-14
5.0751342e-17
1.3590254e-24
4.5718573e-25
7.2094762e-18
3.4338326e-15
4.2564816e-14
1.2332536e-13
1.8926774e-13
2.2086055e-13
2.3112391e-13
2.3304624e-13
2.3294009e-13
2.3293733e-13
2.3303839e-13
2.3111193e-13
2.208462e-13
1.8925392e-13
1.2331663e-13
4.2562205e-14
3.4336663e-15
7.2091537e-18
4.2388061e-25
9.7363715e-26
1.0028015e-18
6.0879359e-16
8.3592689e-15
2.533908e-14
3.9684749e-14
4.6742765e-14
4.9138184e-14
4.9658618e-14
4.9682451e-14
4.9681824e-14
4.9656852e-14
4.9135468e-14
4.673952e-14
3.9681637e-14
2.5337104e-14
8.3586965e-15
6.0875995e-16
1.0027499e-18
8.9631754e-26
1.2743662e-26
1.365282e-19
1.0547759e-16
1.6031296e-15
5.0819457e-15
8.1193451e-15
9.6504537e-15
1.0189206e-14
1.0318897e-14
1.0332813e-14
1.0332676e-14
1.031851e-14
1.0188607e-14
9.6497399e-15
8.1186631e-15
5.0815116e-15
1.6030077e-15
1.0547095e-16
1.3652011e-19
1.1355577e-26
9.6089141e-28
1.8190599e-20
1.7863404e-17
3.0036075e-16
9.953982e-16
1.621879e-15
1.9448269e-15
2.0619573e-15
2.0923511e-15
2.0968629e-15
2.096834e-15
2.0922686e-15
2.0618292e-15
1.944674e-15
1.6217334e-15
9.9530566e-16
3.0033542e-16
1.7862122e-17
1.8189353e-20
5.7433849e-28
2.760841e-29
2.3718382e-21
2.9581505e-18
5.5003488e-17
1.9051059e-16
3.1649292e-16
3.8280174e-16
4.0747887e-16
4.1425876e-16
4.1546375e-16
4.1545779e-16
4.142416e-16
4.0745223e-16
3.8276991e-16
3.1646264e-16
1.9049139e-16
5.4998363e-17
2.9579091e-18
2.3716496e-21
1.5822159e-29
5.8463174e-31
3.026835e-22
4.79164e-19
9.8494665e-18
3.5647076e-17
6.0367409e-17
7.3634655e-17
7.8682824e-17
8.0133275e-17
8.0422653e-17
8.0421449e-17
8.0129796e-17
7.8677422e-17
7.3628195e-17
6.0361271e-17
3.5643196e-17
9.8484541e-18
4.7911954e-19
3.0265552e-22
3.3416329e-31
1.1336039e-32
3.7813859e-23
7.5949379e-20
1.7255027e-18
6.5243368e-18
1.1260939e-17
1.3850206e-17
1.4854619e-17
1.5153746e-17
1.5218429e-17
1.5218192e-17
1.5153058e-17
1.4853551e-17
1.3848927e-17
1.1259724e-17
6.5235723e-18
1.7253074e-18
7.5941381e-20
3.7809788e-23
6.5900442e-33
2.767218e-34
4.6258698e-24
1.1784669e-20
2.9587253e-19
1.1686345e-18
2.0554915e-18
2.548824e-18
2.7434709e-18
2.8031595e-18
2.8168525e-18
2.8168067e-18
2.8030266e-18
2.7432645e-18
2.5485763e-18
2.0552563e-18
1.1684874e-18
2.9583576e-19
1.1783263e-20
4.6252906e-24
1.5541188e-34
1.2629387e-35
5.5431777e-25
1.790798e-21
4.9680366e-20
2.0496014e-19
3.6732908e-19
4.5916658e-19
4.9595187e-19
5.0750833e-19
5.1028158e-19
5.102729e-19
5.0748327e-19
4.959129e-19
4.5911965e-19
3.6728454e-19
2.0493248e-19
4.9673594e-20
1.7905566e-21
5.5423713e-25
5.485095e-36
)
;

boundaryField
{
    Wall
    {
        type            zeroGradient;
    }
    frontAndBack
    {
        type            empty;
    }
    atmosphere
    {
        type            zeroGradient;
    }
}


// ************************************************************************* //
