/*--------------------------------*- C++ -*----------------------------------*\
| =========                 |                                                 |
| \\      /  F ield         | OpenFOAM: The Open Source CFD Toolbox           |
|  \\    /   O peration     | Version:  3.0.1                                 |
|   \\  /    A nd           | Web:      www.OpenFOAM.org                      |
|    \\/     M anipulation  |                                                 |
\*---------------------------------------------------------------------------*/
FoamFile
{
    version     2.0;
    format      ascii;
    class       volScalarField;
    location    "16";
    object      mThree;
}
// * * * * * * * * * * * * * * * * * * * * * * * * * * * * * * * * * * * * * //

dimensions      [0 0 0 0 0 0 0];

internalField   nonuniform List<scalar> 
800
(
7.423792e-25
7.4241314e-25
7.4240349e-25
7.4239577e-25
7.4238997e-25
7.4238531e-25
7.423818e-25
7.4237927e-25
7.4237763e-25
7.423768e-25
7.4237682e-25
7.4237763e-25
7.4237927e-25
7.4238181e-25
7.4238533e-25
7.4238997e-25
7.4239579e-25
7.4240351e-25
7.4241315e-25
7.4237921e-25
5.8532443e-25
5.8939286e-25
5.8978952e-25
5.8985945e-25
5.8990633e-25
5.8995984e-25
5.9001005e-25
5.9004934e-25
5.9007528e-25
5.9008806e-25
5.9008807e-25
5.9007528e-25
5.9004934e-25
5.9001006e-25
5.8995986e-25
5.8990635e-25
5.8985948e-25
5.8978957e-25
5.893929e-25
5.8532443e-25
4.4719249e-25
4.5139146e-25
4.5406021e-25
4.5421133e-25
4.5429815e-25
4.5438539e-25
4.5446189e-25
4.5452034e-25
4.5455871e-25
4.5457766e-25
4.5457767e-25
4.5455871e-25
4.5452033e-25
4.5446189e-25
4.543854e-25
4.5429817e-25
4.5421137e-25
4.5406025e-25
4.5139149e-25
4.4719248e-25
2.9393969e-25
2.9844745e-25
3.006396e-25
3.0079269e-25
3.0089353e-25
3.0098334e-25
3.0105743e-25
3.0111201e-25
3.0114725e-25
3.0116446e-25
3.0116446e-25
3.0114724e-25
3.01112e-25
3.0105742e-25
3.0098334e-25
3.0089353e-25
3.007927e-25
3.0063962e-25
2.9844746e-25
2.9393967e-25
1.8945294e-25
1.9321252e-25
1.9452324e-25
1.946841e-25
1.9479438e-25
1.9488063e-25
1.9494458e-25
1.9498862e-25
1.9501594e-25
1.95029e-25
1.95029e-25
1.9501593e-25
1.9498861e-25
1.9494457e-25
1.9488063e-25
1.9479438e-25
1.946841e-25
1.9452324e-25
1.9321252e-25
1.8945291e-25
1.0458938e-25
1.0859938e-25
1.0931773e-25
1.0948187e-25
1.0958885e-25
1.0966285e-25
1.0971196e-25
1.0974275e-25
1.09761e-25
1.0976955e-25
1.0976955e-25
1.0976099e-25
1.0974273e-25
1.0971195e-25
1.0966284e-25
1.0958884e-25
1.0948186e-25
1.0931773e-25
1.0859938e-25
1.0458936e-25
3.683683e-26
4.0061631e-26
4.0961723e-26
4.1066925e-26
4.1129678e-26
4.116857e-26
4.1191862e-26
4.1205407e-26
4.1212987e-26
4.1216371e-26
4.121637e-26
4.1212983e-26
4.1205401e-26
4.1191856e-26
4.1168566e-26
4.1129677e-26
4.1066924e-26
4.0961725e-26
4.0061633e-26
3.6836825e-26
1.0443888e-26
1.1423891e-26
1.1656434e-26
1.1697611e-26
1.1719632e-26
1.1731159e-26
1.1736929e-26
1.1739858e-26
1.1741253e-26
1.1741773e-26
1.1741773e-26
1.1741252e-26
1.1739856e-26
1.1736928e-26
1.1731159e-26
1.1719634e-26
1.1697612e-26
1.1656436e-26
1.1423894e-26
1.0443888e-26
2.5703026e-27
2.978306e-27
3.0535191e-27
3.0597227e-27
3.0595239e-27
3.0584518e-27
3.0573172e-27
3.0564698e-27
3.055904e-27
3.0555721e-27
3.0555718e-27
3.0559035e-27
3.056469e-27
3.0573167e-27
3.0584519e-27
3.0595246e-27
3.0597235e-27
3.0535201e-27
2.9783074e-27
2.5703033e-27
4.7078077e-28
6.9733301e-28
7.4234549e-28
7.4358771e-28
7.3776577e-28
7.3233425e-28
7.2836524e-28
7.2577865e-28
7.2424908e-28
7.2350993e-28
7.235098e-28
7.2424881e-28
7.2577825e-28
7.2836493e-28
7.3233423e-28
7.3776596e-28
7.4358796e-28
7.4234578e-28
6.9733344e-28
4.7078109e-28
5.9185216e-29
1.4019388e-28
1.6505268e-28
1.6872113e-28
1.6662419e-28
1.636588e-28
1.61148e-28
1.5936979e-28
1.5827098e-28
1.5774102e-28
1.5774096e-28
1.5827084e-28
1.593696e-28
1.6114784e-28
1.6365874e-28
1.6662421e-28
1.6872118e-28
1.6505273e-28
1.4019396e-28
5.9185259e-29
5.2600071e-30
2.3796239e-29
3.2944863e-29
3.5377676e-29
3.5202525e-29
3.4311694e-29
3.3403859e-29
3.2705135e-29
3.2254249e-29
3.203367e-29
3.2033647e-29
3.2254197e-29
3.2705062e-29
3.3403795e-29
3.4311664e-29
3.5202516e-29
3.5377682e-29
3.2944868e-29
2.3796249e-29
5.2600092e-30
3.5268897e-31
3.4234065e-30
5.8637456e-30
6.7981431e-30
6.9177888e-30
6.7365728e-30
6.4975948e-30
6.2972884e-30
6.1628224e-30
6.0960414e-30
6.096035e-30
6.1628069e-30
6.2972664e-30
6.4975752e-30
6.7365609e-30
6.9177831e-30
6.7981425e-30
5.8637444e-30
3.4234067e-30
3.5268899e-31
1.9077867e-32
4.2344401e-31
9.3175872e-31
1.1926104e-30
1.2582735e-30
1.2337522e-30
1.1834966e-30
1.1371819e-30
1.104887e-30
1.0886166e-30
1.088615e-30
1.1048832e-30
1.1371763e-30
1.1834915e-30
1.2337488e-30
1.2582717e-30
1.1926099e-30
9.3175836e-31
4.2344392e-31
1.907786e-32
8.7785023e-34
4.5840631e-32
1.3289856e-31
1.9098482e-31
2.1126601e-31
2.1007209e-31
2.0127705e-31
1.9220031e-31
1.8562058e-31
1.8225867e-31
1.8225834e-31
1.8561977e-31
1.921991e-31
2.012759e-31
2.1007129e-31
2.1126556e-31
1.9098467e-31
1.3289852e-31
4.5840615e-32
8.7784945e-34
3.5608857e-35
4.4169453e-33
1.7136746e-32
2.7979865e-32
3.2725535e-32
3.3193742e-32
3.1892503e-32
3.0342392e-32
2.9171021e-32
2.8563819e-32
2.8563755e-32
2.9170867e-32
3.034216e-32
3.1892274e-32
3.3193577e-32
3.2725446e-32
2.7979838e-32
1.7136744e-32
4.4169449e-33
3.5608824e-35
1.3018831e-36
3.8404668e-34
2.0122544e-33
3.762759e-33
4.6813208e-33
4.8653299e-33
4.7031103e-33
4.4684662e-33
4.282825e-33
4.1851218e-33
4.1851112e-33
4.2827985e-33
4.4684263e-33
4.7030702e-33
4.8653012e-33
4.6813054e-33
3.7627557e-33
2.0122553e-33
3.8404692e-34
1.3018823e-36
4.3484685e-38
3.0450562e-35
2.1658602e-34
4.6625258e-34
6.1958419e-34
6.6196358e-34
6.4545802e-34
6.1361998e-34
5.8709364e-34
5.7290417e-34
5.7290252e-34
5.8708958e-34
6.1361375e-34
6.4545179e-34
6.6195911e-34
6.1958189e-34
4.6625231e-34
2.1658632e-34
3.0450619e-35
4.3484678e-38
1.3382391e-39
2.2190005e-36
2.1487956e-35
5.3432555e-35
7.6051611e-35
8.3719907e-35
8.2501311e-35
7.85992e-35
7.5149731e-35
7.3271933e-35
7.3271707e-35
7.5149156e-35
7.8598315e-35
8.2500428e-35
8.3719287e-35
7.6051309e-35
5.3432553e-35
2.1488018e-35
2.2190088e-36
1.3382409e-39
3.8160881e-41
1.4949497e-37
1.9742132e-36
5.6827383e-36
8.679248e-36
9.8599318e-36
9.8335278e-36
9.3993415e-36
8.9881827e-36
8.7600762e-36
8.7600474e-36
8.9881084e-36
9.3992263e-36
9.8334141e-36
9.8598538e-36
8.6792136e-36
5.6827429e-36
1.9742224e-36
1.4949587e-37
3.8161006e-41
1.0124145e-42
9.3534031e-39
1.6861647e-37
5.626283e-37
9.2319406e-37
1.0834741e-36
1.0946712e-36
1.0506849e-36
1.005509e-36
9.7992557e-37
9.7992211e-37
1.0055001e-36
1.0506712e-36
1.0946577e-36
1.0834651e-36
9.2319062e-37
5.6262941e-37
1.6861764e-37
9.3534862e-39
1.0124207e-42
2.5068418e-44
5.4543854e-40
1.3431054e-38
5.1998331e-38
9.173861e-38
1.1130605e-37
1.1400083e-37
1.0994148e-37
1.053451e-37
1.0268339e-37
1.0268301e-37
1.0534411e-37
1.0993998e-37
1.1399934e-37
1.113051e-37
9.1738296e-38
5.1998506e-38
1.3431179e-38
5.4544518e-40
2.5068674e-44
5.8084066e-46
2.9732244e-41
1.0004721e-39
4.4968857e-39
8.5347658e-39
1.0710283e-38
1.112535e-38
1.0784912e-38
1.0350265e-38
1.0092384e-38
1.0092346e-38
1.0350163e-38
1.0784758e-38
1.1125198e-38
1.0710189e-38
8.5347408e-39
4.4969076e-39
1.0004839e-39
2.9732712e-41
5.8084932e-46
1.2621805e-47
1.5187301e-42
6.9854571e-41
3.6468298e-40
7.4483484e-40
9.6703463e-40
1.0190862e-39
9.9332117e-40
9.5500714e-40
9.3166577e-40
9.3166217e-40
9.5499735e-40
9.9330631e-40
1.0190718e-39
9.6702595e-40
7.4483291e-40
3.6468528e-40
6.985557e-41
1.5187596e-42
1.2622063e-47
2.5773728e-49
7.284746e-44
4.580934e-42
2.7785591e-41
6.1083644e-41
8.2065692e-41
8.7755246e-41
8.6022614e-41
8.2866717e-41
8.0887781e-41
8.0887454e-41
8.2865834e-41
8.6021278e-41
8.7753947e-41
8.2064929e-41
6.1083504e-41
2.7785803e-41
4.5810112e-42
7.284915e-44
2.5774395e-49
4.9543723e-51
3.2871398e-45
2.8264873e-43
1.9922843e-42
4.7149707e-42
6.5557154e-42
7.1142418e-42
7.0143076e-42
6.7709397e-42
6.6134301e-42
6.6134019e-42
6.7708652e-42
7.0141947e-42
7.1141317e-42
6.5556511e-42
4.7149601e-42
1.9923016e-42
2.8265413e-43
3.2872282e-45
4.9545253e-51
8.9792758e-53
1.3976024e-46
1.6434152e-44
1.3463497e-43
3.4304115e-43
4.9365081e-43
5.4369886e-43
5.3922106e-43
5.2162445e-43
5.0983292e-43
5.0983064e-43
5.2161849e-43
5.3921204e-43
5.4369002e-43
4.9364565e-43
3.4304033e-43
1.3463623e-43
1.6434499e-44
1.3976451e-46
8.9795952e-53
1.5365652e-54
5.6068894e-48
9.0167844e-46
8.5865266e-45
2.355531e-44
3.5083967e-44
3.9218921e-44
3.9127138e-44
3.7932849e-44
3.7101249e-44
3.7101075e-44
3.7932395e-44
3.9126451e-44
3.9218251e-44
3.5083572e-44
2.3555244e-44
8.5866098e-45
9.0169912e-46
5.6070795e-48
1.5366255e-54
2.4858178e-56
2.1250829e-49
4.6740284e-47
5.1742519e-46
1.528316e-45
2.3560437e-45
2.6731739e-45
2.6828472e-45
2.606702e-45
2.551376e-45
2.5513633e-45
2.6066693e-45
2.6827978e-45
2.6731255e-45
2.3560149e-45
1.5283108e-45
5.1743022e-46
4.6741431e-47
2.1251614e-49
2.4859237e-56
3.8061754e-58
7.6177752e-51
2.2916062e-48
2.9492486e-47
9.3793966e-47
1.4965564e-46
1.7234388e-46
1.7400302e-46
1.6944038e-46
1.6596405e-46
1.6596319e-46
1.6943815e-46
1.7399964e-46
1.7234058e-46
1.4965365e-46
9.379358e-47
2.9492771e-47
2.2916657e-48
7.6180802e-51
3.8063487e-58
6.8012686e-60
2.585289e-52
1.0637032e-49
1.5915637e-48
5.4498401e-48
9.000017e-48
1.0519683e-47
1.0684579e-47
1.0427623e-47
1.0221122e-47
1.0221066e-47
1.0427479e-47
1.068436e-47
1.0519471e-47
8.9998865e-48
5.4498123e-48
1.5915786e-48
1.0637322e-49
2.5854e-52
6.7433635e-60
2.247566e-61
8.3138372e-54
4.6785352e-51
8.1387296e-50
3.0005929e-49
5.1285974e-49
6.0842821e-49
6.216653e-49
6.0806948e-49
5.964627e-49
5.9645924e-49
6.0806071e-49
6.2165194e-49
6.0841526e-49
5.1285166e-49
3.0005738e-49
8.1388004e-50
4.6786665e-51
8.3142133e-54
2.0837146e-61
9.3391279e-63
2.5353925e-55
1.9513884e-52
3.9467532e-51
1.566654e-50
2.7713123e-50
3.3368798e-50
3.4298671e-50
3.3623411e-50
3.3005672e-50
3.3005469e-50
3.3622906e-50
3.4297896e-50
3.3368051e-50
2.7712648e-50
1.5666417e-50
3.9467841e-51
1.951444e-52
2.5355116e-55
8.7248282e-63
2.7310999e-64
7.3373709e-57
7.7235877e-54
1.8162172e-52
7.7620023e-52
1.4210024e-51
1.7365455e-51
1.7955933e-51
1.7641622e-51
1.7330109e-51
1.7329999e-51
1.7641346e-51
1.7955506e-51
1.7365043e-51
1.4209758e-51
7.7619277e-52
1.8162293e-52
7.7238069e-54
7.3377243e-57
2.4562798e-64
4.7284963e-66
2.0162811e-58
2.9026694e-55
7.9359539e-54
3.6514636e-53
6.9180545e-53
8.5803063e-53
8.9249243e-53
8.7881744e-53
8.6392555e-53
8.6391989e-53
8.7880314e-53
8.9247026e-53
8.5800907e-53
6.9179128e-53
3.6514213e-53
7.9359933e-54
2.9027492e-55
2.0163782e-58
3.4176317e-66
4.800077e-68
5.2638834e-60
1.0363523e-56
3.2942784e-55
1.6318436e-54
3.1994738e-54
4.0273157e-54
4.213973e-54
4.1585946e-54
4.0910775e-54
4.09105e-54
4.158524e-54
4.2138638e-54
4.0272086e-54
3.1994022e-54
1.6318209e-54
3.2942879e-55
1.036379e-56
5.2641319e-60
2.9452711e-68
2.7683973e-70
1.3061798e-61
3.516781e-58
1.2997113e-56
6.9311249e-56
1.4062872e-55
1.7964707e-55
1.8908832e-55
1.8701524e-55
1.8411113e-55
1.8410985e-55
1.8701193e-55
1.8908321e-55
1.7964201e-55
1.4062528e-55
6.9310104e-56
1.2997115e-56
3.5168624e-58
1.3062389e-61
1.7128682e-70
8.3699195e-73
3.0818211e-63
1.1346922e-59
4.8755673e-58
2.7990387e-57
5.8767452e-57
7.6187336e-57
8.0665865e-57
7.9956932e-57
7.8771551e-57
7.8770989e-57
7.9955452e-57
8.0663588e-57
7.6185058e-57
5.8765884e-57
2.7989841e-57
4.8755507e-58
1.1347143e-59
3.0819496e-63
5.4451434e-73
1.9793232e-75
6.9160181e-65
3.4821217e-61
1.7395351e-59
1.0750597e-58
2.3356401e-58
3.072858e-58
3.2726968e-58
3.2510419e-58
3.2051202e-58
3.2050968e-58
3.2509791e-58
3.2726005e-58
3.07276e-58
2.3355714e-58
1.0750348e-58
1.739522e-59
3.4821722e-61
6.9162735e-65
1.6880022e-75
1.5495542e-77
1.4765868e-66
1.0166096e-62
5.9044883e-61
3.928132e-60
8.8306557e-60
1.1789927e-59
1.2630618e-59
1.2574425e-59
1.2405566e-59
1.2405472e-59
1.2574171e-59
1.263023e-59
1.1789525e-59
8.8303694e-60
3.9280256e-60
5.9044143e-61
1.0166182e-62
1.4766317e-66
1.5496169e-77
)
;

boundaryField
{
    Wall
    {
        type            zeroGradient;
    }
    frontAndBack
    {
        type            empty;
    }
    atmosphere
    {
        type            zeroGradient;
    }
}


// ************************************************************************* //
