/*--------------------------------*- C++ -*----------------------------------*\
| =========                 |                                                 |
| \\      /  F ield         | OpenFOAM: The Open Source CFD Toolbox           |
|  \\    /   O peration     | Version:  3.0.1                                 |
|   \\  /    A nd           | Web:      www.OpenFOAM.org                      |
|    \\/     M anipulation  |                                                 |
\*---------------------------------------------------------------------------*/
FoamFile
{
    version     2.0;
    format      ascii;
    class       volScalarField;
    location    "16";
    object      mTwo;
}
// * * * * * * * * * * * * * * * * * * * * * * * * * * * * * * * * * * * * * //

dimensions      [0 0 0 0 0 0 0];

internalField   nonuniform List<scalar> 
800
(
2.0550738e-12
2.0550832e-12
2.0550523e-12
2.0550325e-12
2.0550176e-12
2.0550057e-12
2.0549967e-12
2.0549902e-12
2.054986e-12
2.054984e-12
2.054984e-12
2.054986e-12
2.0549902e-12
2.0549967e-12
2.0550057e-12
2.0550176e-12
2.0550325e-12
2.0550524e-12
2.0550832e-12
2.0550738e-12
1.7210083e-12
1.7293698e-12
1.7301737e-12
1.7303398e-12
1.730457e-12
1.7305808e-12
1.7306929e-12
1.7307795e-12
1.7308363e-12
1.7308643e-12
1.7308643e-12
1.7308363e-12
1.7307795e-12
1.7306929e-12
1.7305808e-12
1.730457e-12
1.7303399e-12
1.7301738e-12
1.7293698e-12
1.7210083e-12
1.3875618e-12
1.3970077e-12
1.4019762e-12
1.4023295e-12
1.4025385e-12
1.4027408e-12
1.4029142e-12
1.4030454e-12
1.4031311e-12
1.4031733e-12
1.4031733e-12
1.4031311e-12
1.4030454e-12
1.4029142e-12
1.4027408e-12
1.4025385e-12
1.4023295e-12
1.4019763e-12
1.3970078e-12
1.3875618e-12
1.0127863e-12
1.023758e-12
1.0282555e-12
1.0286376e-12
1.0288921e-12
1.0291139e-12
1.0292938e-12
1.0294249e-12
1.0295091e-12
1.0295501e-12
1.0295501e-12
1.0295091e-12
1.0294249e-12
1.0292937e-12
1.0291139e-12
1.0288921e-12
1.0286377e-12
1.0282556e-12
1.023758e-12
1.0127862e-12
7.1670857e-13
7.2734174e-13
7.3040315e-13
7.3083298e-13
7.3112349e-13
7.3134731e-13
7.3151037e-13
7.3162133e-13
7.3168952e-13
7.3172197e-13
7.3172197e-13
7.3168949e-13
7.316213e-13
7.3151034e-13
7.3134729e-13
7.3112349e-13
7.3083299e-13
7.3040317e-13
7.2734175e-13
7.1670851e-13
4.4919121e-13
4.6196509e-13
4.6402187e-13
4.6453455e-13
4.6485232e-13
4.6506404e-13
4.6520043e-13
4.6528281e-13
4.653309e-13
4.6535317e-13
4.6535316e-13
4.6533088e-13
4.6528278e-13
4.6520041e-13
4.6506403e-13
4.6485232e-13
4.6453456e-13
4.6402189e-13
4.6196511e-13
4.4919118e-13
2.0864543e-13
2.2087722e-13
2.2401549e-13
2.2445603e-13
2.2469831e-13
2.2483785e-13
2.2491682e-13
2.2495906e-13
2.249819e-13
2.249913e-13
2.249913e-13
2.2498189e-13
2.2495904e-13
2.249168e-13
2.2483785e-13
2.2469831e-13
2.2445604e-13
2.2401551e-13
2.2087724e-13
2.0864542e-13
8.4843285e-14
9.0692161e-14
9.2010687e-14
9.2256861e-14
9.2360913e-14
9.2403848e-14
9.2419243e-14
9.2423716e-14
9.2424159e-14
9.2422669e-14
9.2422667e-14
9.2424152e-14
9.2423705e-14
9.2419239e-14
9.2403855e-14
9.2360929e-14
9.2256882e-14
9.2010711e-14
9.0692191e-14
8.48433e-14
3.0672078e-14
3.4966426e-14
3.5937764e-14
3.6031573e-14
3.5993255e-14
3.5943917e-14
3.59043e-14
3.5878489e-14
3.5862591e-14
3.5853756e-14
3.5853753e-14
3.5862586e-14
3.5878479e-14
3.5904296e-14
3.5943923e-14
3.5993268e-14
3.603159e-14
3.593778e-14
3.4966446e-14
3.0672094e-14
8.6068628e-15
1.2515315e-14
1.3522886e-14
1.3643008e-14
1.3552005e-14
1.3440813e-14
1.335288e-14
1.3295073e-14
1.3260366e-14
1.3243202e-14
1.3243199e-14
1.3260361e-14
1.3295064e-14
1.3352875e-14
1.3440815e-14
1.3552011e-14
1.3643018e-14
1.3522893e-14
1.2515325e-14
8.6068717e-15
1.73783e-15
4.0161037e-15
4.8380234e-15
5.0228454e-15
4.9896805e-15
4.9057008e-15
4.8270569e-15
4.7706242e-15
4.7352509e-15
4.7178821e-15
4.7178795e-15
4.7352463e-15
4.7706165e-15
4.8270522e-15
4.9057005e-15
4.9896825e-15
5.02285e-15
4.8380261e-15
4.0161071e-15
1.7378323e-15
2.5837212e-16
1.139974e-15
1.6181502e-15
1.7764184e-15
1.7874005e-15
1.7488661e-15
1.7034554e-15
1.6678601e-15
1.6445269e-15
1.6329348e-15
1.6329332e-15
1.6445239e-15
1.6678551e-15
1.703452e-15
1.7488652e-15
1.7874006e-15
1.7764203e-15
1.618151e-15
1.1399748e-15
2.5837246e-16
3.0047596e-17
2.8667009e-16
5.0281565e-16
5.9829097e-16
6.1827759e-16
6.0616363e-16
5.858807e-16
5.6846879e-16
5.5656263e-16
5.5056333e-16
5.5056249e-16
5.5656106e-16
5.6846611e-16
5.8587878e-16
6.0616282e-16
6.1827723e-16
5.982916e-16
5.0281576e-16
2.8667017e-16
3.0047637e-17
2.9144774e-18
6.4540696e-17
1.4531244e-16
1.9125612e-16
2.0548696e-16
2.0332004e-16
1.957527e-16
1.8856565e-16
1.8344421e-16
1.8082774e-16
1.8082736e-16
1.8344349e-16
1.8856438e-16
1.9575175e-16
2.0331957e-16
2.0548665e-16
1.912563e-16
1.4531246e-16
6.4540689e-17
2.914482e-18
2.481048e-19
1.3204179e-17
3.9256035e-17
5.8063438e-17
6.5488739e-17
6.5806586e-17
6.3368084e-17
6.0752697e-17
5.8808265e-17
5.7801465e-17
5.780131e-17
5.8807959e-17
6.0752166e-17
6.3367662e-17
6.5806353e-17
6.548856e-17
5.8063474e-17
3.9256045e-17
1.3204174e-17
2.4810533e-19
1.9183239e-20
2.4923458e-18
9.9817488e-18
1.6787464e-17
2.0019188e-17
2.0530379e-17
1.9845939e-17
1.8985749e-17
1.8316366e-17
1.7965079e-17
1.796502e-17
1.8316247e-17
1.8985544e-17
1.9845768e-17
2.0530278e-17
2.0019104e-17
1.6787468e-17
9.9817544e-18
2.4923452e-18
1.9183309e-20
1.3762389e-21
4.3978224e-19
2.4061988e-18
4.639859e-18
5.8792745e-18
6.1758596e-18
6.0114177e-18
5.7519094e-18
5.539385e-18
5.426283e-18
5.4262629e-18
5.5393416e-18
5.751836e-18
6.0113535e-18
6.1758204e-18
5.8792404e-18
4.639858e-18
2.4062016e-18
4.3978235e-19
1.3762471e-21
9.2822491e-23
7.3320371e-20
5.5361172e-19
1.2308483e-18
1.662578e-18
1.7933794e-18
1.7619937e-18
1.6895616e-18
1.6266263e-18
1.5926246e-18
1.5926181e-18
1.6266115e-18
1.6895368e-18
1.7619713e-18
1.7933651e-18
1.6625656e-18
1.2308472e-18
5.5361279e-19
7.3320458e-20
9.2823332e-23
5.9350761e-24
1.1649129e-20
1.2229844e-19
3.1459088e-19
4.5382542e-19
5.0350643e-19
5.0023926e-19
4.8146305e-19
4.6394549e-19
4.543209e-19
4.5431889e-19
4.6394066e-19
4.8145513e-19
5.0023185e-19
5.035015e-19
4.5382128e-19
3.1459027e-19
1.2229878e-19
1.1649158e-20
5.9351548e-24
3.6181103e-25
1.7764091e-21
2.6075074e-20
7.7736266e-20
1.1986033e-19
1.3690897e-19
1.3772363e-19
1.3320712e-19
1.2860011e-19
1.2601934e-19
1.2601876e-19
1.285986e-19
1.3320471e-19
1.377213e-19
1.3690734e-19
1.1985905e-19
7.7736017e-20
2.6075168e-20
1.776416e-21
3.6181754e-25
2.1118578e-26
2.6162348e-22
5.389444e-21
1.8626403e-20
3.0695325e-20
3.6112604e-20
3.6814069e-20
3.5813196e-20
3.4664555e-20
3.4006097e-20
3.4005929e-20
3.4664105e-20
3.5812494e-20
3.681336e-20
3.6112085e-20
3.0694946e-20
1.8626315e-20
5.3894667e-21
2.616249e-22
2.1119072e-26
1.184436e-27
3.742406e-23
1.0839351e-21
4.3385428e-21
7.6362354e-21
9.2537226e-21
9.5646488e-21
9.3641024e-21
9.0921395e-21
8.9317677e-21
8.9317214e-21
9.0920096e-21
9.3639054e-21
9.5644417e-21
9.2535633e-21
7.6361281e-21
4.3385148e-21
1.0839398e-21
3.7424319e-23
1.1844711e-27
6.404085e-29
5.2268714e-24
2.127889e-22
9.8434473e-22
1.8482531e-21
2.3064398e-21
2.4176052e-21
2.3829264e-21
2.3217712e-21
2.2844009e-21
2.2843884e-21
2.321735e-21
2.3828725e-21
2.4175469e-21
2.3063928e-21
1.8482238e-21
9.8433627e-22
2.1278972e-22
5.2269137e-24
6.404315e-29
3.3496027e-30
7.1621475e-25
4.0874735e-23
2.1788678e-22
4.3576944e-22
5.5973073e-22
5.9498634e-22
5.9053057e-22
5.7749418e-22
5.6915107e-22
5.6914777e-22
5.7748444e-22
5.9051624e-22
5.9497042e-22
5.5971735e-22
4.3576156e-22
2.1788439e-22
4.0874848e-23
7.1622095e-25
3.3497443e-30
1.7014659e-31
9.6696631e-26
7.6972489e-24
4.7111023e-23
1.0018291e-22
1.3236946e-22
1.4266544e-22
1.4258861e-22
1.3996615e-22
1.3818062e-22
1.3817976e-22
1.399636e-22
1.4258489e-22
1.4266121e-22
1.3236578e-22
1.0018084e-22
4.7110377e-23
7.6972578e-24
9.6697463e-26
1.7015473e-31
8.4338616e-33
1.2908642e-26
1.4228689e-24
9.9589217e-24
2.2475602e-23
3.0525393e-23
3.3347227e-23
3.3560611e-23
3.306726e-23
3.2701096e-23
3.2700877e-23
3.3066613e-23
3.355967e-23
3.3346136e-23
3.0524417e-23
2.2475069e-23
9.958754e-24
1.4228672e-24
1.2908742e-26
8.4342992e-33
4.1043038e-34
1.7083693e-27
2.5840842e-25
2.0595931e-24
4.9235819e-24
6.8682037e-24
7.6021681e-24
7.7028275e-24
7.6175782e-24
7.5457362e-24
7.5456816e-24
7.617418e-24
7.7025943e-24
7.6018938e-24
6.8679535e-24
4.9234471e-24
2.0595511e-24
2.5840735e-25
1.7083798e-27
4.1045262e-34
1.9761416e-35
2.2448856e-28
4.6126691e-26
4.1689827e-25
1.0537209e-24
1.5084941e-24
1.6909899e-24
1.7246866e-24
1.7116831e-24
1.6982406e-24
1.6982274e-24
1.7116444e-24
1.7246301e-24
1.6909229e-24
1.5084321e-24
1.0536875e-24
4.1688811e-25
4.6126339e-26
2.2448939e-28
1.9762476e-35
9.5035995e-37
2.9305731e-29
8.0940146e-27
8.262334e-26
2.2041169e-25
3.2355829e-25
3.6715632e-25
3.7685508e-25
3.752916e-25
3.7290689e-25
3.7290375e-25
3.7528247e-25
3.7684168e-25
3.6714039e-25
3.2354341e-25
2.2040362e-25
8.2620963e-26
8.0939195e-27
2.9305739e-29
9.5040739e-37
4.6145406e-38
3.7993623e-30
1.3961009e-27
1.6036477e-26
4.5079416e-26
6.7803123e-26
7.7847858e-26
8.0391929e-26
8.0318482e-26
7.9921632e-26
7.9920906e-26
8.0316389e-26
8.0388831e-26
7.7844173e-26
6.779966e-26
4.5077517e-26
1.6035939e-26
1.396078e-27
3.7993472e-30
4.6147247e-38
1.2524755e-38
4.8870389e-31
2.3666623e-28
3.0488777e-27
9.0181216e-27
1.3887096e-26
1.6125382e-26
1.6749515e-26
1.6785633e-26
1.672494e-26
1.6724777e-26
1.6785165e-26
1.6748817e-26
1.6124552e-26
1.3886314e-26
9.0176866e-27
3.0487588e-27
2.366611e-28
4.8869943e-31
1.2058851e-38
3.7581609e-39
6.2283728e-32
3.9421055e-29
5.6791095e-28
1.7652376e-27
2.7810874e-27
3.2645829e-27
3.4098102e-27
3.4270598e-27
3.4189108e-27
3.418875e-27
3.426958e-27
3.4096571e-27
3.264401e-27
2.780916e-27
1.7651407e-27
5.6788538e-28
3.9419966e-29
6.2282782e-32
3.4758014e-39
7.4008132e-40
7.8534115e-33
6.4506043e-30
1.0366094e-28
3.3821593e-28
5.4480213e-28
6.462364e-28
6.7856382e-28
6.8385401e-28
6.8301708e-28
6.8300944e-28
6.8383246e-28
6.7853109e-28
6.4619758e-28
5.4476559e-28
3.3819498e-28
1.0365558e-28
6.4503829e-30
7.8532365e-33
6.8132941e-40
8.9755867e-41
9.783199e-34
1.0367556e-30
1.8545377e-29
6.3451925e-29
1.0443988e-28
1.2514028e-28
1.3206399e-28
1.3343405e-28
1.3341411e-28
1.3341255e-28
1.3342959e-28
1.3205717e-28
1.251322e-28
1.0443229e-28
6.3447521e-29
1.8544284e-29
1.0367122e-30
9.7829007e-34
7.99794e-41
6.3231365e-42
1.2025332e-34
1.6364522e-31
3.2526728e-30
1.1660404e-29
1.960119e-29
2.3716128e-29
2.5148742e-29
2.5470675e-29
2.5492341e-29
2.5492027e-29
2.5469775e-29
2.5147358e-29
2.3714487e-29
1.9599652e-29
1.1659505e-29
3.2524554e-30
1.6363694e-31
1.2024849e-34
3.8264038e-42
1.7795257e-43
1.4569867e-35
2.5366146e-32
5.594175e-31
2.0997177e-30
3.6030772e-30
4.4008005e-30
4.688063e-30
4.7587882e-30
4.767267e-30
4.7672053e-30
4.7586108e-30
4.6877892e-30
4.4004756e-30
3.602773e-30
2.099539e-30
5.5937531e-31
2.5364617e-32
1.4569117e-35
1.029208e-43
3.674756e-45
1.7386144e-36
3.8612638e-33
9.4370703e-32
3.7063695e-31
6.4897324e-31
7.9994683e-31
8.5590085e-31
8.7065611e-31
8.7296257e-31
8.7295073e-31
8.7062191e-31
8.55848e-31
7.9988403e-31
6.4891452e-31
3.7060232e-31
9.43627e-32
3.8609886e-33
1.7385022e-36
2.1039792e-45
6.607045e-47
2.0421081e-37
5.772338e-34
1.5619421e-32
6.4156408e-32
1.1458518e-31
1.4250528e-31
1.5311315e-31
1.5606375e-31
1.5660344e-31
1.5660121e-31
1.5605731e-31
1.5310318e-31
1.4249342e-31
1.1457409e-31
6.414986e-32
1.5617937e-32
5.7718557e-34
2.0419452e-37
3.7902436e-47
1.2589445e-48
2.3599355e-38
8.4755144e-35
2.537149e-33
1.0894268e-32
1.9840978e-32
2.4890714e-32
2.685121e-32
2.7420192e-32
2.7535729e-32
2.753532e-32
2.7419005e-32
2.6849371e-32
2.4888519e-32
1.9838929e-32
1.0893058e-32
2.5368801e-33
8.4746896e-35
2.3597062e-38
7.0303842e-49
3.8867784e-50
2.6825854e-39
1.2224629e-35
4.0458671e-34
1.8154545e-33
3.3706415e-33
4.2645466e-33
4.6182459e-33
4.724499e-33
4.7477441e-33
4.7476699e-33
4.7242849e-33
4.6179138e-33
4.264149e-33
3.3702703e-33
1.8152361e-33
4.0453902e-34
1.2223254e-35
2.682271e-39
1.7194561e-50
)
;

boundaryField
{
    Wall
    {
        type            zeroGradient;
    }
    frontAndBack
    {
        type            empty;
    }
    atmosphere
    {
        type            zeroGradient;
    }
}


// ************************************************************************* //
