/*--------------------------------*- C++ -*----------------------------------*\
| =========                 |                                                 |
| \\      /  F ield         | OpenFOAM: The Open Source CFD Toolbox           |
|  \\    /   O peration     | Version:  3.0.1                                 |
|   \\  /    A nd           | Web:      www.OpenFOAM.org                      |
|    \\/     M anipulation  |                                                 |
\*---------------------------------------------------------------------------*/
FoamFile
{
    version     2.0;
    format      ascii;
    class       volScalarField;
    location    "16";
    object      mZero;
}
// * * * * * * * * * * * * * * * * * * * * * * * * * * * * * * * * * * * * * //

dimensions      [0 0 0 0 0 0 0];

internalField   nonuniform List<scalar> 
800
(
1e+13
1e+13
1e+13
1e+13
1e+13
1e+13
1e+13
1e+13
1e+13
1e+13
1e+13
1e+13
1e+13
1e+13
1e+13
1e+13
1e+13
1e+13
1e+13
1e+13
1e+13
1e+13
1e+13
1e+13
1e+13
1e+13
1e+13
1e+13
1e+13
1e+13
1e+13
1e+13
1e+13
1e+13
1e+13
1e+13
1e+13
1e+13
1e+13
1e+13
9.3969267e+12
9.4024457e+12
9.4032051e+12
9.4033502e+12
9.4033388e+12
9.4033509e+12
9.4033676e+12
9.4033816e+12
9.4033907e+12
9.4033953e+12
9.4033953e+12
9.4033907e+12
9.4033816e+12
9.4033676e+12
9.4033508e+12
9.4033387e+12
9.4033501e+12
9.403205e+12
9.4024456e+12
9.3969265e+12
8.4159712e+12
8.429802e+12
8.4314073e+12
8.4314587e+12
8.4313916e+12
8.4313521e+12
8.4313222e+12
8.4312958e+12
8.4312752e+12
8.4312642e+12
8.4312642e+12
8.4312752e+12
8.4312959e+12
8.4313222e+12
8.4313522e+12
8.4313917e+12
8.4314589e+12
8.4314074e+12
8.4298022e+12
8.4159712e+12
7.184237e+12
7.2139709e+12
7.2171881e+12
7.2173484e+12
7.2172191e+12
7.2170577e+12
7.2168862e+12
7.216736e+12
7.2166269e+12
7.2165702e+12
7.2165702e+12
7.216627e+12
7.2167363e+12
7.2168865e+12
7.2170581e+12
7.2172196e+12
7.217349e+12
7.2171887e+12
7.2139716e+12
7.1842376e+12
5.8143929e+12
5.8738589e+12
5.8827785e+12
5.8843231e+12
5.8843539e+12
5.8839833e+12
5.8835721e+12
5.8831685e+12
5.8828967e+12
5.8827556e+12
5.8827557e+12
5.8828969e+12
5.8831689e+12
5.8835726e+12
5.883984e+12
5.8843548e+12
5.884324e+12
5.8827795e+12
5.87386e+12
5.8143942e+12
4.3885368e+12
4.4967983e+12
4.5222445e+12
4.5281229e+12
4.5287707e+12
4.5280039e+12
4.5271487e+12
4.5263721e+12
4.52586e+12
4.5255639e+12
4.525564e+12
4.5258602e+12
4.5263725e+12
4.5271494e+12
4.5280048e+12
4.5287719e+12
4.5281243e+12
4.5222459e+12
4.4967999e+12
4.3885388e+12
2.8955899e+12
3.0785416e+12
3.1406309e+12
3.1557236e+12
3.1573243e+12
3.1555762e+12
3.1535497e+12
3.1521468e+12
3.1511906e+12
3.1506159e+12
3.1506159e+12
3.1511906e+12
3.1521467e+12
3.1535502e+12
3.155577e+12
3.1573255e+12
3.1557254e+12
3.1406322e+12
3.0785435e+12
2.8955924e+12
1.5647365e+12
1.8343742e+12
1.9429622e+12
1.9735424e+12
1.9766126e+12
1.972571e+12
1.9679551e+12
1.9649941e+12
1.9630675e+12
1.9620044e+12
1.962004e+12
1.9630672e+12
1.9649933e+12
1.967955e+12
1.9725714e+12
1.9766133e+12
1.9735439e+12
1.9429629e+12
1.8343756e+12
1.5647389e+12
6.1840722e+11
9.580287e+11
1.0962954e+12
1.1410521e+12
1.146473e+12
1.1397636e+12
1.1315666e+12
1.1258802e+12
1.1222416e+12
1.1203815e+12
1.1203809e+12
1.122241e+12
1.1258786e+12
1.1315658e+12
1.1397634e+12
1.1464729e+12
1.1410528e+12
1.0962954e+12
9.5802936e+11
6.184087e+11
1.6797161e+11
4.3524983e+11
5.6696251e+11
6.1731262e+11
6.269027e+11
6.2117606e+11
6.1226172e+11
6.0538038e+11
6.0083955e+11
5.9855719e+11
5.985566e+11
6.008387e+11
6.0537862e+11
6.1226053e+11
6.2117546e+11
6.2690209e+11
6.1731263e+11
5.6696206e+11
4.3524981e+11
1.6797213e+11
3.235676e+10
1.7180235e+11
2.6828566e+11
3.1248701e+11
3.2422389e+11
3.2155005e+11
3.1483101e+11
3.0904608e+11
3.0506856e+11
3.030598e+11
3.0305933e+11
3.0506777e+11
3.0904457e+11
3.1482984e+11
3.2154932e+11
3.2422305e+11
3.1248666e+11
2.6828511e+11
1.7180207e+11
3.2356871e+10
4.7397043e+09
5.9306802e+10
1.1647845e+11
1.4805672e+11
1.5861102e+11
1.5833528e+11
1.5441578e+11
1.5061467e+11
1.4788773e+11
1.4649654e+11
1.4649622e+11
1.4788712e+11
1.5061359e+11
1.5441486e+11
1.5833461e+11
1.5861025e+11
1.480563e+11
1.1647802e+11
5.9306561e+10
4.7397216e+09
5.6756989e+08
1.8175058e+10
4.6690839e+10
6.5807559e+10
7.3421322e+10
7.4173953e+10
7.2308495e+10
7.0218549e+10
6.8652042e+10
6.7843595e+10
6.784341e+10
6.8651639e+10
7.0217878e+10
7.2307879e+10
7.417347e+10
7.3420766e+10
6.5807215e+10
4.6690585e+10
1.8174931e+10
5.6757199e+08
58882122
5.045189e+09
1.7420419e+10
2.7535871e+10
3.2197256e+10
3.3063465e+10
3.2330659e+10
3.1331598e+10
3.0546314e+10
3.013592e+10
3.0135822e+10
3.0546077e+10
3.1331226e+10
3.2330291e+10
3.3063159e+10
3.2196916e+10
2.7535647e+10
1.7420291e+10
5.0451376e+09
58882334
5514919.2
1.2946261e+09
6.100511e+09
1.088971e+10
1.339911e+10
1.4032026e+10
1.3803386e+10
1.3379147e+10
1.3026938e+10
1.2840243e+10
1.2840195e+10
1.3026813e+10
1.3378957e+10
1.3803186e+10
1.4031852e+10
1.3398928e+10
1.0889588e+10
6.1004536e+09
1.2946087e+09
5514938.5
480043.1
3.1246066e+08
2.0204025e+09
4.0859324e+09
5.302164e+09
5.675062e+09
5.628653e+09
5.4668445e+09
5.3232474e+09
5.2458444e+09
5.2458224e+09
5.3231862e+09
5.4667548e+09
5.6285538e+09
5.6749722e+09
5.3020766e+09
4.0858731e+09
2.0203791e+09
3.1245556e+08
480044.47
39700.554
71870255
6.3670094e+08
1.4594507e+09
1.9990234e+09
2.1897606e+09
2.1931823e+09
2.137582e+09
2.0838113e+09
2.0542269e+09
2.0542174e+09
2.0837837e+09
2.1375422e+09
2.1931367e+09
2.1897176e+09
1.998985e+09
1.4594246e+09
6.3669218e+08
71868887
39700.587
3178.4999
15899086
1.9180258e+08
4.9766261e+08
7.1943645e+08
8.0712869e+08
8.171279e+08
8.0001674e+08
7.8140184e+08
7.7089272e+08
7.708888e+08
7.813902e+08
8e+08
8.1710826e+08
8.0710963e+08
7.1942075e+08
4.9765208e+08
1.9179949e+08
15898744
3178.4911
250.53448
3402112.3
55413340
1.6237773e+08
2.4759174e+08
2.8455801e+08
2.9135117e+08
2.8673255e+08
2.8075236e+08
2.7726275e+08
2.7726121e+08
2.8074773e+08
2.8672589e+08
2.9134322e+08
2.845501e+08
2.4758568e+08
1.6237378e+08
55412311
3402030.8
250.53224
19.723918
706365.88
15388685
50790423
81610771
96082747
99512575
98481971
96697159
95609587
95609008
96695414
98479450
99509527
96079662
81608542
50789033
15388360
706347.29
19.723574
1.5667811
142491.39
4114434.9
15254196
25803259
31112062
32594156
32442353
31948443
31629468
31629259
31947816
32441445
32593046
31110928
25802472
15253733
4114336.3
142487.31
1.5667381
0.12609914
27934.077
1060368
4405049.3
7836588.8
9673401.1
10249425
10260672
10134753
10046600
10046528
10134538
10260358
10249041
9673006.6
7836322.1
4404902.3
1060339.5
27933.206
0.12609432
0.010262372
5320.512
263669.89
1224655.3
2289211.2
2891680.5
3097959.5
3119042
3089898
3066945.2
3066921.5
3089827.8
3118938.3
3097832.6
2891550.2
2289124
1224610.6
263661.97
5320.3314
0.010261878
0.00083928224
984.17588
63313.597
328165.82
644035.06
832128.17
901153.8
912327.66
906406.28
900787.36
900779.8
906384.23
912294.85
901113.58
832087.09
644007.63
328152.75
63311.498
984.13966
0.00083923438
6.8437371e-05
176.74713
14693.539
84856.149
174718.12
230802.1
252582.74
257088.61
256126.5
254839.52
254837.22
256119.85
257078.63
252570.52
230789.69
174709.82
84852.459
14693.001
176.74009
6.8432964e-05
5.5237124e-06
30.812567
3298.443
21196.476
45760.861
61777.459
68300.23
69878.12
69800.116
69527.025
69526.352
69798.181
69875.201
68296.66
61773.864
45758.445
21195.468
3298.3106
30.811248
5.5233247e-06
4.3875745e-07
5.2145951
716.82017
5120.3829
11584.699
15976.447
17839.335
18342.048
18367.373
18314.755
18314.566
18366.83
18341.225
17838.333
15975.445
11584.022
5120.1166
716.78863
5.2143554
4.387246e-07
3.4160783e-08
0.85690123
150.93882
1197.4468
2837.9152
3996.6404
4505.9405
4654.9631
4672.4102
4663.6209
4663.5695
4672.2633
4654.7395
4505.6691
3996.3711
2837.7323
1197.3786
150.93155
0.85685885
3.4158071e-08
2.6003883e-09
0.13678029
30.821602
271.37468
673.45828
968.19596
1101.8935
1143.5291
1150.3781
1149.2745
1149.2611
1150.3397
1143.4705
1101.8226
968.12606
673.41073
271.35776
30.819973
0.136773
2.6001398e-09
6.8024492e-10
0.021218439
6.1086715
59.658567
154.97924
227.38183
261.16863
272.2235
274.43142
274.40503
274.40163
274.42174
272.20866
261.15074
227.36429
154.9673
59.654495
6.1083178
0.021217214
6.5802494e-10
2.1250514e-10
0.0032007374
1.1761053
12.734546
34.619818
51.823276
60.060731
62.86635
63.50254
63.547757
63.546925
63.50018
62.862719
60.056363
51.819019
34.616922
12.733594
1.1760304
0.0032005362
1.9757763e-10
4.6588559e-11
0.00046979256
0.2201496
2.6418185
7.5142095
11.473709
13.41498
14.098496
14.268024
14.28899
14.288793
14.267468
14.097635
13.413947
11.472707
7.51353
2.6416024
0.22013413
0.00046976016
4.2909994e-11
6.3396366e-12
6.7137944e-05
0.040097549
0.53311075
1.5861704
2.4700546
2.913004
3.073386
3.1159025
3.1226944
3.1226498
3.1157751
3.0731884
2.9127672
2.4698257
1.5860159
0.53306311
0.04009443
6.7132819e-05
5.6510422e-12
4.9608202e-13
9.3482106e-06
0.0071120039
0.10473629
0.32591732
0.51752093
0.6155255
0.65186749
0.66200766
0.66389253
0.66388268
0.66197937
0.65182352
0.61547278
0.51747008
0.32588328
0.10472608
0.0071113891
9.3474129e-06
2.9503966e-13
1.4461984e-14
1.2690571e-06
0.0012293486
0.02004919
0.06524118
0.10561948
0.12667413
0.1346443
0.13695994
0.13743592
0.13743381
0.13695383
0.1346348
0.12666273
0.1056085
0.065233887
0.020047061
0.0012292303
1.2689351e-06
8.2797846e-15
3.145195e-16
1.6808037e-07
0.0002072478
0.0037424465
0.012733326
0.02101421
0.025411553
0.027106459
0.027615218
0.027727553
0.02772711
0.027613934
0.027104463
0.025409155
0.021011902
0.012731805
0.0037420134
0.00020722554
1.6806204e-07
1.8155072e-16
6.6459495e-18
2.1733075e-08
3.409943e-05
0.00068170674
0.0024249365
0.0040792077
0.0049730468
0.0053231065
0.0054310319
0.0054561663
0.0054560758
0.005430769
0.0053226978
0.0049725552
0.0040787349
0.0024246275
0.00068162085
3.409534e-05
2.1730372e-08
3.9827248e-18
2.002475e-19
2.7451837e-09
5.479552e-06
0.00012126421
0.0004509359
0.00077313744
0.00095014873
0.0010204672
0.0010426344
0.0010480129
0.0010479948
0.0010425819
0.0010203856
0.00095005035
0.00077304288
0.00045087464
0.0001212476
5.4788175e-06
2.7447938e-09
1.1645242e-19
1.1077528e-20
3.3895215e-10
8.605396e-07
2.1079352e-05
8.1938508e-05
0.0001431741
0.00017735841
0.00019111371
0.00019553184
0.00019663907
0.00019663554
0.00019552162
0.00019109782
0.00017733918
0.00014315562
8.1926652e-05
2.1076213e-05
8.6041082e-07
3.3889705e-10
5.0523192e-21
)
;

boundaryField
{
    Wall
    {
        type            zeroGradient;
    }
    frontAndBack
    {
        type            empty;
    }
    atmosphere
    {
        type            zeroGradient;
    }
}


// ************************************************************************* //
