/*--------------------------------*- C++ -*----------------------------------*\
| =========                 |                                                 |
| \\      /  F ield         | OpenFOAM: The Open Source CFD Toolbox           |
|  \\    /   O peration     | Version:  3.0.1                                 |
|   \\  /    A nd           | Web:      www.OpenFOAM.org                      |
|    \\/     M anipulation  |                                                 |
\*---------------------------------------------------------------------------*/
FoamFile
{
    version     2.0;
    format      ascii;
    class       surfaceScalarField;
    location    "16";
    object      phi;
}
// * * * * * * * * * * * * * * * * * * * * * * * * * * * * * * * * * * * * * //

dimensions      [0 3 -1 0 0 0 0];

internalField   nonuniform List<scalar> 
1540
(
2.2502551e-10
2.3170999e-08
2.2082853e-10
2.3418467e-08
1.8835602e-10
2.3448603e-08
1.5614902e-10
2.3449068e-08
1.3103148e-10
2.3442752e-08
1.0756556e-10
2.3441654e-08
8.3107014e-11
2.3443038e-08
5.6803108e-11
2.344514e-08
2.8855533e-11
2.3446936e-08
-5.555577e-15
2.3447922e-08
-2.8865935e-11
2.3447922e-08
-5.6810397e-11
2.3446936e-08
-8.3110922e-11
2.3445139e-08
-1.0756727e-10
2.3443037e-08
-1.3103344e-10
2.3441652e-08
-1.5615479e-10
2.3442749e-08
-1.8836772e-10
2.3449066e-08
-2.2084806e-10
2.3448601e-08
-2.25048e-10
2.3418465e-08
2.3170996e-08
9.8762451e-11
4.7094291e-08
1.3153092e-10
4.7368716e-08
1.3743465e-10
4.745018e-08
1.2911549e-10
4.7463062e-08
1.1462309e-10
4.7461001e-08
9.6911447e-11
4.7461968e-08
7.6106849e-11
4.7465655e-08
5.2480208e-11
4.7470038e-08
2.678844e-11
4.7473564e-08
-7.3232746e-15
4.7475491e-08
-2.680215e-11
4.7475491e-08
-5.2491067e-11
4.7473563e-08
-7.6114383e-11
4.7470037e-08
-9.6916834e-11
4.7465652e-08
-1.146288e-10
4.7461964e-08
-1.291241e-10
4.7460997e-08
-1.3744798e-10
4.7463059e-08
-1.3154821e-10
4.7450178e-08
-9.8777765e-11
4.7368717e-08
4.7094294e-08
9.2954054e-11
7.3611914e-08
1.0843385e-10
7.3922354e-08
1.0851275e-10
7.3985532e-08
1.0800018e-10
7.3993851e-08
1.0315745e-10
7.3992776e-08
9.1046224e-11
7.3998351e-08
7.322045e-11
7.400589e-08
5.1070761e-11
7.4013312e-08
2.6188852e-11
7.4018774e-08
-7.352039e-15
7.4021632e-08
-2.6202663e-11
7.4021631e-08
-5.108202e-11
7.4018773e-08
-7.3228911e-11
7.401331e-08
-9.1052501e-11
7.4005887e-08
-1.0316337e-10
7.3998347e-08
-1.0800811e-10
7.3992773e-08
-1.0852363e-10
7.3993849e-08
-1.0844638e-10
7.3985532e-08
-9.296126e-11
7.3922357e-08
7.3611923e-08
-3.8796434e-11
1.0035151e-07
1.7634571e-11
1.0094846e-07
7.131716e-11
1.0103419e-07
9.7363329e-11
1.0106423e-07
1.0276474e-10
1.0107876e-07
9.5115635e-11
1.0109411e-07
7.7757664e-11
1.0110907e-07
5.4459982e-11
1.0112099e-07
2.794568e-11
1.0112884e-07
-6.2764465e-15
1.0113276e-07
-2.7957523e-11
1.0113276e-07
-5.446978e-11
1.0112884e-07
-7.7764916e-11
1.0112099e-07
-9.512098e-11
1.0110907e-07
-1.0276958e-10
1.0109411e-07
-9.7368381e-11
1.0107875e-07
-7.1322707e-11
1.0106423e-07
-1.7639696e-11
1.0103419e-07
3.8794151e-11
1.0094846e-07
1.0035152e-07
-7.9769065e-11
1.2342019e-07
-1.3436637e-11
1.2405e-07
7.2195826e-11
1.2417877e-07
1.1569574e-10
1.2425006e-07
1.2815696e-10
1.2429358e-07
1.1741782e-10
1.2432987e-07
9.4505025e-11
1.2435591e-07
6.5287092e-11
1.2437338e-07
3.3252861e-11
1.2438378e-07
-4.8674844e-15
1.2438882e-07
-3.3261826e-11
1.2438882e-07
-6.5294399e-11
1.2438378e-07
-9.4509863e-11
1.2437338e-07
-1.1742069e-10
1.2435591e-07
-1.2815842e-10
1.2432987e-07
-1.1569709e-10
1.2429358e-07
-7.2196674e-11
1.2425006e-07
1.3436997e-11
1.2417877e-07
7.9770843e-11
1.2405e-07
1.2342019e-07
-2.3166721e-11
1.4706218e-07
5.8606635e-11
1.4737349e-07
1.5821469e-10
1.4766865e-07
2.0487858e-10
1.4779068e-07
2.0095609e-10
1.478818e-07
1.7100883e-10
1.4794497e-07
1.3125754e-10
1.4798343e-07
8.7967386e-11
1.4800744e-07
4.4055791e-11
1.4802066e-07
-4.3816846e-15
1.4802693e-07
-4.4063544e-11
1.4802693e-07
-8.7973347e-11
1.4802066e-07
-1.3126097e-10
1.4800744e-07
-1.7100992e-10
1.4798343e-07
-2.0095601e-10
1.4794496e-07
-2.0487877e-10
1.4788179e-07
-1.5821365e-10
1.4779067e-07
-5.8605759e-11
1.4766864e-07
2.3166521e-11
1.4737349e-07
1.4706216e-07
4.1320495e-10
1.6131743e-07
4.1451748e-10
1.6382107e-07
4.1958529e-10
1.6442787e-07
4.1229242e-10
1.6462496e-07
3.4293283e-10
1.6476952e-07
2.6532273e-10
1.6481772e-07
1.9318333e-10
1.648294e-07
1.2527256e-10
1.6483075e-07
6.1780682e-11
1.648277e-07
-5.4309565e-15
1.6482559e-07
-6.1789764e-11
1.6482559e-07
-1.2528009e-10
1.648277e-07
-1.9318814e-10
1.6483076e-07
-2.6532428e-10
1.6482942e-07
-3.42934e-10
1.6481774e-07
-4.1229437e-10
1.6476955e-07
-4.1958342e-10
1.6462499e-07
-4.1451442e-10
1.644279e-07
-4.1320622e-10
1.6382111e-07
1.6131746e-07
3.9080505e-09
1.5420449e-07
2.9442379e-09
1.6165015e-07
1.9309838e-09
1.6234222e-07
1.3069601e-09
1.6214777e-07
9.0473779e-10
1.6206526e-07
6.3043577e-10
1.6198136e-07
4.279049e-10
1.6191849e-07
2.6695886e-10
1.6187653e-07
1.2821017e-10
1.618503e-07
-6.9004437e-15
1.6183715e-07
-1.282217e-10
1.6183715e-07
-2.6696614e-10
1.618503e-07
-4.279081e-10
1.6187653e-07
-6.3043294e-10
1.619185e-07
-9.0473398e-10
1.6198138e-07
-1.3069573e-09
1.6206529e-07
-1.9309777e-09
1.621478e-07
-2.9442298e-09
1.6234224e-07
-3.9080404e-09
1.6165018e-07
1.5420452e-07
2.1853338e-08
1.3190289e-07
1.93494e-08
1.6359759e-07
1.4297673e-08
1.6682356e-07
1.0057615e-08
1.6581652e-07
7.0078302e-09
1.6454366e-07
4.8336479e-09
1.6358492e-07
3.2344689e-09
1.6294789e-07
1.9902027e-09
1.6255186e-07
9.479486e-10
1.623242e-07
-1.6493152e-14
1.6221708e-07
-9.4797946e-10
1.6221707e-07
-1.9902306e-09
1.623242e-07
-3.2344751e-09
1.6255184e-07
-4.8336374e-09
1.6294786e-07
-7.0078097e-09
1.6358492e-07
-1.0057574e-08
1.6454367e-07
-1.429761e-08
1.6581653e-07
-1.9349334e-08
1.6682358e-07
-2.1853263e-08
1.6359761e-07
1.3190292e-07
2.9371852e-08
1.0252556e-07
3.6270531e-08
1.5668873e-07
3.2817087e-08
1.7026597e-07
2.6497171e-08
1.7212547e-07
2.0188649e-08
1.7084136e-07
1.473243e-08
1.6903046e-07
1.0200361e-08
1.6746935e-07
6.4022506e-09
1.6633946e-07
3.0846947e-09
1.6563128e-07
-5.4959404e-14
1.6529135e-07
-3.0847982e-09
1.6529134e-07
-6.4023386e-09
1.656312e-07
-1.0200428e-08
1.6633938e-07
-1.4732466e-08
1.6746928e-07
-2.0188643e-08
1.6903041e-07
-2.6497166e-08
1.7084136e-07
-3.281704e-08
1.7212547e-07
-3.6270515e-08
1.7026593e-07
-2.9371836e-08
1.566887e-07
1.025255e-07
2.1109976e-08
8.1415573e-08
3.2352734e-08
1.4544597e-07
3.378652e-08
1.688322e-07
3.0151841e-08
1.7576014e-07
2.4651227e-08
1.7634199e-07
1.889606e-08
1.7478563e-07
1.3526528e-08
1.7283886e-07
8.6720071e-09
1.7119396e-07
4.2275578e-09
1.7007573e-07
-7.8756934e-14
1.6951896e-07
-4.2276908e-09
1.6951893e-07
-8.6721396e-09
1.7007564e-07
-1.3526635e-08
1.7119386e-07
-1.8896119e-08
1.7283875e-07
-2.4651273e-08
1.7478556e-07
-3.0151871e-08
1.7634194e-07
-3.3786518e-08
1.7576011e-07
-3.2352737e-08
1.6883214e-07
-2.1109991e-08
1.4544591e-07
8.1415514e-08
1.3200238e-08
6.8215296e-08
2.3960845e-08
1.3468534e-07
2.8004348e-08
1.6478865e-07
2.7110679e-08
1.7665379e-07
2.3536931e-08
1.7991575e-07
1.8857134e-08
1.7946541e-07
1.3931992e-08
1.7776404e-07
9.1226389e-09
1.7600335e-07
4.5015392e-09
1.7469681e-07
-5.0674369e-14
1.7402053e-07
-4.5016472e-09
1.7402051e-07
-9.1226918e-09
1.7469668e-07
-1.3932058e-08
1.760032e-07
-1.8857198e-08
1.7776387e-07
-2.353695e-08
1.7946528e-07
-2.7110676e-08
1.7991565e-07
-2.8004353e-08
1.7665371e-07
-2.3960829e-08
1.6478859e-07
-1.3200258e-08
1.3468526e-07
6.8215232e-08
7.807387e-09
6.040786e-08
1.6313121e-08
1.2617955e-07
2.0935626e-08
1.601661e-07
2.1705953e-08
1.7588344e-07
1.9850888e-08
1.8177076e-07
1.6545706e-08
1.8277056e-07
1.2586506e-08
1.8172317e-07
8.4086967e-09
1.8018115e-07
4.1983016e-09
1.7890716e-07
1.1582052e-14
1.7821882e-07
-4.1983e-09
1.7821877e-07
-8.4087e-09
1.7890704e-07
-1.258652e-08
1.8018095e-07
-1.6545694e-08
1.81723e-07
-1.9850857e-08
1.8277041e-07
-2.1705944e-08
1.8177065e-07
-2.0935571e-08
1.7588334e-07
-1.6313117e-08
1.6016604e-07
-7.8073999e-09
1.2617952e-07
6.0407806e-08
4.5029432e-09
5.5904854e-08
1.0607935e-08
1.2007455e-07
1.4742344e-08
1.5603167e-07
1.6212314e-08
1.7441339e-07
1.5517903e-08
1.8246518e-07
1.3400307e-08
1.8488815e-07
1.0469239e-08
1.846542e-07
7.125591e-09
1.8352479e-07
3.5968746e-09
1.8243591e-07
7.3644136e-14
1.8181563e-07
-3.5967326e-09
1.8181558e-07
-7.1254853e-09
1.8243575e-07
-1.0469162e-08
1.8352459e-07
-1.3400195e-08
1.84654e-07
-1.5517802e-08
1.8488797e-07
-1.6212243e-08
1.8246502e-07
-1.474224e-08
1.7441331e-07
-1.0607879e-08
1.5603163e-07
-4.5029722e-09
1.2007452e-07
5.5904838e-08
2.5995155e-09
5.3305337e-08
6.7426924e-09
1.1593133e-07
1.0011464e-08
1.5276288e-07
1.1579143e-08
1.7284572e-07
1.1534864e-08
1.8250944e-07
1.0280974e-08
1.8614205e-07
8.2288209e-09
1.8670638e-07
5.6970083e-09
1.8605662e-07
2.9049054e-09
1.8522804e-07
1.095502e-13
1.8472043e-07
-2.9046703e-09
1.8472038e-07
-5.6968156e-09
1.8522789e-07
-8.2286339e-09
1.8605642e-07
-1.0280783e-08
1.8670617e-07
-1.15347e-08
1.8614186e-07
-1.1579004e-08
1.8250932e-07
-1.0011353e-08
1.7284567e-07
-6.7426273e-09
1.5276289e-07
-2.5994984e-09
1.1593135e-07
5.3305337e-08
1.5231644e-09
5.1782149e-08
4.2500159e-09
1.1320449e-07
6.6554501e-09
1.5035744e-07
8.0323507e-09
1.7146883e-07
8.2849152e-09
1.8225691e-07
7.5948114e-09
1.8683219e-07
6.2125214e-09
1.880887e-07
4.3681039e-09
1.8790109e-07
2.2478539e-09
1.8734834e-07
1.5010669e-13
1.8696819e-07
-2.2475745e-09
1.8696816e-07
-4.3678519e-09
1.873482e-07
-6.2122952e-09
1.8790091e-07
-7.5945762e-09
1.8808848e-07
-8.2847105e-09
1.8683202e-07
-8.0321908e-09
1.8225679e-07
-6.6553025e-09
1.7146881e-07
-4.2499235e-09
1.5035749e-07
-1.5231405e-09
1.1320455e-07
5.1782176e-08
9.0953293e-10
5.0872661e-08
2.6777189e-09
1.1143633e-07
4.3734905e-09
1.4866171e-07
5.4691247e-09
1.7037325e-07
5.8130465e-09
1.8191304e-07
5.4623774e-09
1.8718295e-07
4.5556188e-09
1.8899547e-07
3.2477991e-09
1.8920895e-07
1.6852351e-09
1.8891098e-07
1.5145252e-13
1.8865334e-07
-1.6849411e-09
1.8865331e-07
-3.2475353e-09
1.8891084e-07
-4.5553509e-09
1.8920878e-07
-5.4621216e-09
1.889953e-07
-5.8128174e-09
1.8718276e-07
-5.4689413e-09
1.8191294e-07
-4.3733249e-09
1.7037325e-07
-2.6776383e-09
1.4866178e-07
-9.0949388e-10
1.1143644e-07
5.0872694e-08
5.5289814e-10
5.0319781e-08
1.6931913e-09
1.1029611e-07
2.8585841e-09
1.4749633e-07
3.6814739e-09
1.6955039e-07
4.0148006e-09
1.8157974e-07
3.8548293e-09
1.873429e-07
3.2702535e-09
1.8958012e-07
2.3602359e-09
1.9011903e-07
1.2337109e-09
1.9003752e-07
1.4381103e-13
1.8988698e-07
-1.2334524e-09
1.8988695e-07
-2.3599581e-09
1.9003742e-07
-3.2699978e-09
1.9011887e-07
-3.8546056e-09
1.8957995e-07
-4.0145693e-09
1.8734278e-07
-3.6812974e-09
1.8157965e-07
-2.8584207e-09
1.695504e-07
-1.6930707e-09
1.4749645e-07
-5.5287795e-10
1.1029622e-07
5.0319797e-08
3.4104825e-10
4.9978721e-08
1.0760584e-09
1.095611e-07
1.8653247e-09
1.4670708e-07
2.4615625e-09
1.6895414e-07
2.7436765e-09
1.8129761e-07
2.6838887e-09
1.8740271e-07
2.3109593e-09
1.8995307e-07
1.6858718e-09
1.9074409e-07
8.869617e-10
1.9083647e-07
1.1810911e-13
1.9077384e-07
-8.8671619e-10
1.9077381e-07
-1.685655e-09
1.9083637e-07
-2.3107503e-09
1.9074395e-07
-2.6836739e-09
1.8995292e-07
-2.743496e-09
1.8740258e-07
-2.4613954e-09
1.8129757e-07
-1.8651892e-09
1.6895419e-07
-1.0759933e-09
1.4670723e-07
-3.4101519e-10
1.0956125e-07
4.9978746e-08
2.1252206e-10
4.9766188e-08
6.8716672e-10
1.0908642e-07
1.2173502e-09
1.4617683e-07
1.6395842e-09
1.6853188e-07
1.8616904e-09
1.8107549e-07
1.8504593e-09
1.8741391e-07
1.613903e-09
1.9018956e-07
1.1883944e-09
1.9116956e-07
6.2874263e-10
1.9139608e-07
7.9918793e-14
1.9140247e-07
-6.285626e-10
1.9140245e-07
-1.1882181e-09
1.9139599e-07
-1.6137462e-09
1.9116946e-07
-1.8502683e-09
1.9018944e-07
-1.8615433e-09
1.8741382e-07
-1.6394529e-09
1.8107547e-07
-1.2172419e-09
1.6853196e-07
-6.8711463e-10
1.4617702e-07
-2.1251307e-10
1.0908657e-07
4.9766205e-08
1.3320537e-10
4.9632928e-08
4.40404e-10
1.0877915e-07
7.9499254e-10
1.4582217e-07
1.0895506e-09
1.6823725e-07
1.2568871e-09
1.8090804e-07
1.2665402e-09
1.8740416e-07
1.1168972e-09
1.9033912e-07
8.2907504e-10
1.914573e-07
4.4078204e-10
1.9178429e-07
6.1820132e-14
1.9184311e-07
-4.4065368e-10
1.9184309e-07
-8.2893984e-10
1.9178421e-07
-1.116773e-09
1.9145723e-07
-1.2664196e-09
1.9033903e-07
-1.2567785e-09
1.8740412e-07
-1.0894274e-09
1.8090808e-07
-7.9491704e-10
1.6823738e-07
-4.4034487e-10
1.4582238e-07
-1.3319124e-10
1.0877934e-07
4.9632954e-08
8.3622715e-11
4.9549221e-08
2.8277855e-10
1.0857991e-07
5.1933202e-10
1.4558552e-07
7.2274852e-10
1.6803375e-07
8.4528567e-10
1.807854e-07
8.6192173e-10
1.8738745e-07
7.6735789e-10
1.9043358e-07
5.7356299e-10
1.91651e-07
3.0621815e-10
1.9205152e-07
4.2391846e-14
1.9214918e-07
-3.0614621e-10
1.9214917e-07
-5.7347983e-10
1.9205147e-07
-7.6726954e-10
1.9165093e-07
-8.6185554e-10
1.9043352e-07
-8.4522421e-10
1.8738741e-07
-7.2268631e-10
1.8078546e-07
-5.1928079e-10
1.6803391e-07
-2.8274744e-10
1.4558576e-07
-8.363447e-11
1.0858013e-07
4.9549281e-08
5.2401152e-11
4.9496714e-08
1.8159108e-10
1.0845066e-07
3.3909455e-10
1.4542791e-07
4.7860015e-10
1.6789416e-07
5.6659688e-10
1.8069728e-07
5.8374687e-10
1.8737017e-07
5.2404052e-10
1.9049321e-07
3.9404732e-10
1.9178087e-07
2.1113777e-10
1.9223432e-07
2.462494e-14
1.9236022e-07
-2.1110561e-10
1.9236021e-07
-3.9402833e-10
1.9223429e-07
-5.2398432e-10
1.9178081e-07
-5.8372506e-10
1.9049315e-07
-5.6656156e-10
1.8737018e-07
-4.7854275e-10
1.8069736e-07
-3.3906065e-10
1.6789433e-07
-1.815592e-10
1.4542813e-07
-5.2417861e-11
1.0845087e-07
4.9496817e-08
3.2643299e-11
4.9463976e-08
1.1637351e-10
1.0836687e-07
2.2109399e-10
1.4532309e-07
3.1623283e-10
1.6779893e-07
3.7858197e-10
1.8063483e-07
3.9365606e-10
1.8735496e-07
3.559908e-10
1.9053079e-07
2.6910351e-10
1.9186765e-07
1.4465877e-10
1.9235867e-07
1.3456255e-14
1.9250478e-07
-1.4464653e-10
1.9250476e-07
-2.6910131e-10
1.9235865e-07
-3.5597535e-10
1.9186761e-07
-3.936528e-10
1.9053075e-07
-3.7855977e-10
1.8735497e-07
-3.1620612e-10
1.8063491e-07
-2.2106002e-10
1.6779911e-07
-1.1635648e-10
1.4532334e-07
-3.2683473e-11
1.083671e-07
4.9464082e-08
2.0172966e-11
4.944374e-08
7.4298063e-11
1.0831267e-07
1.4375803e-10
1.4525353e-07
2.083775e-10
1.6773424e-07
2.5210079e-10
1.8059102e-07
2.6438735e-10
1.8734261e-07
2.4067284e-10
1.9055443e-07
1.8277657e-10
1.9192543e-07
9.8517678e-11
1.9244286e-07
-1.4755537e-14
1.9260324e-07
-9.8547563e-11
1.9260323e-07
-1.8281604e-10
1.9244282e-07
-2.4068264e-10
1.9192541e-07
-2.6440891e-10
1.9055439e-07
-2.5210963e-10
1.8734261e-07
-2.0836546e-10
1.8059108e-07
-1.4375351e-10
1.6773441e-07
-7.4264403e-11
1.452538e-07
-2.0186879e-11
1.0831293e-07
4.9443859e-08
1.2286529e-11
4.9431396e-08
4.714439e-11
1.0827776e-07
9.3114071e-11
1.4520751e-07
1.3685477e-10
1.676905e-07
1.6726647e-10
1.8056054e-07
1.7683835e-10
1.8733303e-07
1.6196132e-10
1.9056928e-07
1.2353357e-10
1.9196383e-07
6.6730714e-11
1.9249961e-07
-2.3005022e-14
1.9267e-07
-6.6799375e-11
1.9266996e-07
-1.2359693e-10
1.9249956e-07
-1.6200648e-10
1.9196376e-07
-1.7687389e-10
1.9056921e-07
-1.6729634e-10
1.8733297e-07
-1.368432e-10
1.8056058e-07
-9.3108948e-11
1.6769063e-07
-4.7140868e-11
1.4520776e-07
-1.2303784e-11
1.0827805e-07
4.9431545e-08
7.3485182e-12
4.9424017e-08
2.9671331e-11
1.0825541e-07
6.0012836e-11
1.4517716e-07
8.9485096e-11
1.67661e-07
1.1052973e-10
1.8053947e-07
1.1775786e-10
1.8732577e-07
1.0850572e-10
1.9057856e-07
8.3095924e-11
1.9198924e-07
4.4984095e-11
1.925377e-07
-4.9411468e-14
1.92715e-07
-4.5083934e-11
1.9271499e-07
-8.3155809e-11
1.9253765e-07
-1.0856866e-10
1.9198915e-07
-1.1784025e-10
1.9057847e-07
-1.1057027e-10
1.873257e-07
-8.9485899e-11
1.8053947e-07
-6.0005767e-11
1.6766109e-07
-2.9657344e-11
1.451774e-07
-7.3648366e-12
1.0825568e-07
4.9424157e-08
4.2844313e-12
4.9419745e-08
1.8484336e-11
1.0824123e-07
3.8410574e-11
1.4515722e-07
5.8213033e-11
1.6764119e-07
7.2708517e-11
1.8052498e-07
7.8100751e-11
1.8732039e-07
7.2351218e-11
1.9058432e-07
5.5634732e-11
1.9200601e-07
3.0172998e-11
1.9256316e-07
-6.3774595e-14
1.9274526e-07
-3.0285172e-11
1.9274523e-07
-5.5727795e-11
1.9256309e-07
-7.2456871e-11
1.9200588e-07
-7.8177508e-11
1.9058421e-07
-7.2773971e-11
1.8732029e-07
-5.8253689e-11
1.8052493e-07
-3.8437257e-11
1.6764124e-07
-1.8481728e-11
1.4515745e-07
-4.2875725e-12
1.0824148e-07
4.9419895e-08
2.3943448e-12
4.9417374e-08
1.1346537e-11
1.0823231e-07
2.4393117e-11
1.4514421e-07
3.7662973e-11
1.6762794e-07
4.7613648e-11
1.8051508e-07
5.1557404e-11
1.8731651e-07
4.8033172e-11
1.9058788e-07
3.7050367e-11
1.9201701e-07
2.0146436e-11
1.9258014e-07
-9.6545211e-14
1.9276552e-07
-2.0296193e-11
1.9276549e-07
-3.7205565e-11
1.9258004e-07
-4.816581e-11
1.9201687e-07
-5.1693649e-11
1.9058775e-07
-4.7702554e-11
1.8731637e-07
-3.7727228e-11
1.80515e-07
-2.4436214e-11
1.6762794e-07
-1.1368351e-11
1.4514437e-07
-2.3920665e-12
1.0823253e-07
4.9417484e-08
1.2707277e-12
4.9416127e-08
6.8389059e-12
1.0822677e-07
1.5375731e-11
1.4513576e-07
2.4232078e-11
1.6761913e-07
3.1017401e-11
1.8050832e-07
3.3876738e-11
1.873137e-07
3.1748665e-11
1.9059008e-07
2.45788e-11
1.9202425e-07
1.3360213e-11
1.925914e-07
-1.1337477e-13
1.9277903e-07
-1.3568473e-11
1.92779e-07
-2.4794725e-11
1.925913e-07
-3.19334e-11
1.9202409e-07
-3.4077946e-11
1.9058991e-07
-3.1163115e-11
1.8731352e-07
-2.4340401e-11
1.8050819e-07
-1.5430049e-11
1.6761909e-07
-6.9067559e-12
1.4513586e-07
-1.2934063e-12
1.0822695e-07
4.9416222e-08
6.1417768e-13
4.9415573e-08
4.0585534e-12
1.0822336e-07
9.6039789e-12
1.4513028e-07
1.5503503e-11
1.6761325e-07
2.0144846e-11
1.8050374e-07
2.2213085e-11
1.8731169e-07
2.0926649e-11
1.905914e-07
1.6234454e-11
1.9202896e-07
8.8069502e-12
1.9259889e-07
-1.2535989e-13
1.9278804e-07
-9.0875436e-12
1.9278801e-07
-1.6512512e-11
1.9259879e-07
-2.1194672e-11
1.9202882e-07
-2.2442486e-11
1.9059126e-07
-2.0357412e-11
1.8731151e-07
-1.5661309e-11
1.8050357e-07
-9.7184936e-12
1.6761316e-07
-4.1226985e-12
1.4513033e-07
-6.1368333e-13
1.0822351e-07
4.9415628e-08
2.4660312e-13
4.9415369e-08
2.3873656e-12
1.0822129e-07
5.9765089e-12
1.4512672e-07
9.9339897e-12
1.6760936e-07
1.3104274e-11
1.8050064e-07
1.455407e-11
1.8731027e-07
1.3786087e-11
1.9059221e-07
1.0699386e-11
1.9203207e-07
5.769194e-12
1.9260388e-07
-1.6538325e-13
1.9279408e-07
-6.1389779e-12
1.9279403e-07
-1.1052598e-11
1.9260379e-07
-1.4080654e-11
1.9203194e-07
-1.4843111e-11
1.9059205e-07
-1.3360444e-11
1.8731008e-07
-1.0163226e-11
1.8050043e-07
-6.1479647e-12
1.6760921e-07
-2.4686967e-12
1.4512672e-07
-2.6216739e-13
1.0822138e-07
4.9415418e-08
7.3248789e-14
4.941534e-08
1.4120512e-12
1.0822003e-07
3.7963083e-12
1.4512441e-07
6.4413646e-12
1.6760673e-07
8.6225852e-12
1.8049854e-07
9.6171836e-12
1.873093e-07
9.1322569e-12
1.9059276e-07
7.0821144e-12
1.9203417e-07
3.7856936e-12
1.9260722e-07
-1.9341932e-13
1.9279812e-07
-4.2014724e-12
1.9279809e-07
-7.4891346e-12
1.9260713e-07
-9.5251317e-12
1.9203401e-07
-9.9825959e-12
1.9059257e-07
-8.9559457e-12
1.8730907e-07
-6.739268e-12
1.8049829e-07
-4.0000202e-12
1.6760656e-07
-1.5186159e-12
1.4512431e-07
-9.783501e-14
1.0822002e-07
4.9415354e-08
3.3771924e-14
4.941533e-08
9.251449e-13
1.0821915e-07
2.5568945e-12
1.451228e-07
4.3995046e-12
1.6760495e-07
5.8515014e-12
1.804971e-07
6.545628e-12
1.8730867e-07
6.1906846e-12
1.9059316e-07
4.7836824e-12
1.9203561e-07
2.5145943e-12
1.9260953e-07
-2.257474e-13
1.9280094e-07
-2.9589894e-12
1.9280089e-07
-5.2169863e-12
1.9260945e-07
-6.6362495e-12
1.9203547e-07
-6.9465979e-12
1.9059296e-07
-6.2399788e-12
1.8730842e-07
-4.7175593e-12
1.8049683e-07
-2.8163638e-12
1.676047e-07
-1.0674112e-12
1.4512263e-07
-4.9011688e-14
1.0821906e-07
4.9415341e-08
8.7160436e-14
4.9415303e-08
8.0278156e-13
1.0821847e-07
2.0238371e-12
1.4512164e-07
3.3243965e-12
1.676037e-07
4.2987711e-12
1.8049616e-07
4.7227079e-12
1.8730832e-07
4.3991056e-12
1.9059354e-07
3.3436389e-12
1.9203673e-07
1.7228761e-12
1.9261123e-07
-2.6058635e-13
1.9280293e-07
-2.2102763e-12
1.928029e-07
-3.8465367e-12
1.9261112e-07
-4.8891441e-12
1.9203654e-07
-5.1891518e-12
1.9059332e-07
-4.7640079e-12
1.8730802e-07
-3.6951847e-12
1.8049584e-07
-2.311098e-12
1.6760338e-07
-9.6665286e-13
1.4512137e-07
-1.0889058e-13
1.0821829e-07
4.9415243e-08
2.284247e-13
4.9415102e-08
1.0147499e-12
1.0821772e-07
2.0441563e-12
1.4512064e-07
2.9836511e-12
1.6760275e-07
3.6299138e-12
1.8049555e-07
3.7914937e-12
1.8730817e-07
3.4137824e-12
1.9059394e-07
2.536216e-12
1.9203765e-07
1.2406004e-12
1.9261257e-07
-2.8461507e-13
1.9280449e-07
-1.796169e-12
1.9280446e-07
-3.0645546e-12
1.9261245e-07
-3.9493501e-12
1.9203749e-07
-4.3184911e-12
1.9059372e-07
-4.1138011e-12
1.8730785e-07
-3.4096787e-12
1.8049517e-07
-2.3315131e-12
1.6760237e-07
-1.1673992e-12
1.4512026e-07
-2.5341584e-13
1.0821744e-07
4.9414996e-08
4.5399475e-13
4.9414675e-08
1.4798534e-12
1.0821674e-07
2.500176e-12
1.4511963e-07
3.2435775e-12
1.6760204e-07
3.5784715e-12
1.8049521e-07
3.5078656e-12
1.8730828e-07
2.9956227e-12
1.9059445e-07
2.1147052e-12
1.9203855e-07
9.9464665e-13
1.9261372e-07
-2.9097179e-13
1.9280579e-07
-1.6009664e-12
1.9280576e-07
-2.7131361e-12
1.9261363e-07
-3.57382e-12
1.9203839e-07
-4.072446e-12
1.9059424e-07
-4.1031753e-12
1.8730795e-07
-3.6796445e-12
1.804948e-07
-2.8302025e-12
1.6760154e-07
-1.6723719e-12
1.4511913e-07
-5.0277109e-13
1.0821633e-07
4.9414527e-08
9.0976661e-13
4.941377e-08
2.3563863e-12
1.0821531e-07
3.4307004e-12
1.451186e-07
3.9579147e-12
1.6760151e-07
4.0164926e-12
1.8049519e-07
3.6587232e-12
1.8730866e-07
2.9483729e-12
1.9059518e-07
1.98561e-12
1.9203951e-07
8.6783299e-13
1.9261487e-07
-3.2186776e-13
1.9280702e-07
-1.5248786e-12
1.9280697e-07
-2.635729e-12
1.9261475e-07
-3.5813567e-12
1.9203934e-07
-4.2524391e-12
1.9059492e-07
-4.5481049e-12
1.8730828e-07
-4.4142006e-12
1.8049468e-07
-3.7610223e-12
1.6760092e-07
-2.5495315e-12
1.4511796e-07
-9.7292338e-13
1.0821476e-07
4.9413587e-08
1.9178583e-12
4.9411863e-08
3.5602329e-12
1.0821366e-07
4.5193059e-12
1.4511765e-07
4.8108185e-12
1.676012e-07
4.5833118e-12
1.8049539e-07
3.9768667e-12
1.873093e-07
3.0421612e-12
1.905961e-07
1.9881061e-12
1.920406e-07
8.4117318e-13
1.9261603e-07
-3.7131159e-13
1.9280821e-07
-1.5507126e-12
1.9280817e-07
-2.6931585e-12
1.9261591e-07
-3.7267955e-12
1.9204041e-07
-4.5985579e-12
1.9059579e-07
-5.1511249e-12
1.8730885e-07
-5.3026934e-12
1.8049482e-07
-4.8739313e-12
1.676005e-07
-3.7804402e-12
1.4511686e-07
-1.9747907e-12
1.08213e-07
4.941161e-08
2.3231981e-12
3.954987e-12
4.8018211e-12
5.0258005e-12
4.7341698e-12
4.0093528e-12
3.0226246e-12
1.9233782e-12
7.9095116e-13
-3.7478748e-13
-1.5250562e-12
-2.6558413e-12
-3.7443768e-12
-4.6649347e-12
-5.2881615e-12
-5.518723e-12
-5.1992677e-12
-4.1755986e-12
-2.4179654e-12
)
;

boundaryField
{
    Wall
    {
        type            calculated;
        value           uniform 0;
    }
    frontAndBack
    {
        type            empty;
        value           nonuniform 0();
    }
    atmosphere
    {
        type            calculated;
        value           nonuniform List<scalar> 
20
(
4.9409554e-08
1.0821206e-07
1.4511677e-07
1.67601e-07
1.8049568e-07
1.8731e-07
1.9059707e-07
1.9204172e-07
1.9261717e-07
1.9280937e-07
1.9280932e-07
1.9261704e-07
1.9204151e-07
1.9059669e-07
1.8730949e-07
1.8049505e-07
1.6760018e-07
1.4511587e-07
1.0821123e-07
4.9409218e-08
)
;
    }
}


// ************************************************************************* //
