/*--------------------------------*- C++ -*----------------------------------*\
| =========                 |                                                 |
| \\      /  F ield         | OpenFOAM: The Open Source CFD Toolbox           |
|  \\    /   O peration     | Version:  3.0.1                                 |
|   \\  /    A nd           | Web:      www.OpenFOAM.org                      |
|    \\/     M anipulation  |                                                 |
\*---------------------------------------------------------------------------*/
FoamFile
{
    version     2.0;
    format      ascii;
    class       volScalarField;
    location    "16";
    object      Psi2;
}
// * * * * * * * * * * * * * * * * * * * * * * * * * * * * * * * * * * * * * //

dimensions      [0 -2 2 0 0 0 0];

internalField   nonuniform List<scalar> 
800
(
0.0020098127
0.0020098096
0.0020098219
0.0020098299
0.0020098358
0.0020098405
0.0020098441
0.0020098467
0.0020098483
0.0020098492
0.0020098492
0.0020098483
0.0020098467
0.0020098441
0.0020098405
0.0020098358
0.0020098298
0.0020098219
0.0020098096
0.0020098127
0.0021675663
0.0021630867
0.0021626544
0.002162559
0.0021624907
0.0021624213
0.0021623596
0.0021623124
0.0021622815
0.0021622663
0.0021622663
0.0021622815
0.0021623124
0.0021623596
0.0021624213
0.0021624907
0.002162559
0.0021626544
0.0021630867
0.0021675663
0.0024279571
0.0024207308
0.0024171246
0.002416853
0.0024167
0.0024165529
0.0024164277
0.0024163335
0.0024162721
0.0024162419
0.0024162419
0.0024162721
0.0024163335
0.0024164277
0.0024165529
0.0024167
0.002416853
0.0024171246
0.0024207308
0.0024279571
0.0028641696
0.0028507671
0.002845858
0.0028454332
0.0028451618
0.0028449274
0.0028447396
0.0028446041
0.002844518
0.0028444763
0.0028444763
0.0028445181
0.0028446042
0.0028447396
0.0028449274
0.0028451618
0.0028454332
0.002845858
0.0028507671
0.0028641697
0.0034482322
0.0034245796
0.0034191377
0.0034183686
0.003417887
0.003417532
0.0034172865
0.0034171269
0.0034170321
0.003416988
0.003416988
0.0034170322
0.0034171269
0.0034172865
0.003417532
0.003417887
0.0034183685
0.0034191376
0.0034245795
0.0034482322
0.0043729332
0.0043184784
0.0043111131
0.0043092412
0.004308233
0.0043076432
0.004307307
0.0043071395
0.0043070506
0.0043070129
0.0043070129
0.0043070506
0.0043071395
0.004307307
0.004307643
0.0043082328
0.004309241
0.0043111128
0.0043184781
0.004372933
0.0059940779
0.0058789228
0.0058524252
0.0058484414
0.0058466621
0.0058458732
0.0058455374
0.005845449
0.0058454261
0.0058454384
0.0058454384
0.0058454261
0.005845449
0.0058455373
0.005845873
0.0058466618
0.005848441
0.0058524246
0.0058789222
0.0059940774
0.0078119996
0.0076805132
0.0076511835
0.007645775
0.0076445317
0.0076446019
0.0076450148
0.007645411
0.0076457068
0.0076459069
0.0076459069
0.0076457069
0.0076454111
0.0076450147
0.0076446014
0.0076445309
0.007645774
0.0076511826
0.007680512
0.0078119986
0.0093772999
0.009186741
0.0091379581
0.0091314235
0.0091335885
0.0091368339
0.0091395121
0.009141225
0.0091422868
0.009142869
0.0091428691
0.009142287
0.0091412253
0.009139512
0.0091368334
0.0091335877
0.0091314223
0.0091379571
0.0091867397
0.0093772986
0.01040515
0.010156254
0.010084852
0.010072104
0.010076214
0.010083237
0.010089258
0.010093256
0.0100957
0.010096926
0.010096926
0.010095701
0.010093256
0.010089258
0.010083237
0.010076214
0.010072103
0.010084851
0.010156253
0.010405149
0.010833544
0.010656004
0.010587016
0.010568322
0.010568928
0.010574965
0.010581185
0.010585711
0.010588591
0.010590019
0.010590019
0.010588591
0.010585711
0.010581186
0.010574965
0.010568928
0.010568322
0.010587016
0.010656004
0.010833543
0.010942728
0.010864149
0.010818511
0.010801628
0.010799256
0.01080229
0.01080638
0.010809644
0.010811815
0.010812901
0.010812901
0.010811815
0.010809645
0.01080638
0.01080229
0.010799256
0.010801628
0.010818511
0.010864149
0.010942728
0.010961538
0.010936042
0.010912972
0.010901917
0.010899104
0.010900061
0.0109021
0.010903895
0.01090514
0.010905771
0.010905771
0.01090514
0.010903895
0.010902101
0.010900061
0.010899104
0.010901917
0.010912972
0.010936042
0.010961538
0.010963977
0.010957215
0.010947639
0.010941812
0.010939812
0.01093991
0.010940746
0.010941569
0.010942165
0.01094247
0.01094247
0.010942165
0.010941569
0.010940747
0.010939911
0.010939812
0.010941812
0.010947639
0.010957215
0.010963977
0.010964235
0.010962671
0.010959247
0.010956623
0.010955515
0.010955405
0.010955696
0.010956026
0.010956276
0.010956405
0.010956405
0.010956276
0.010956026
0.010955696
0.010955405
0.010955515
0.010956623
0.010959247
0.010962671
0.010964235
0.010964259
0.01096393
0.010962839
0.010961792
0.01096127
0.010961167
0.010961254
0.010961373
0.010961467
0.010961517
0.010961517
0.010961467
0.010961373
0.010961254
0.010961167
0.01096127
0.010961792
0.010962839
0.01096393
0.010964259
0.010964261
0.010964197
0.010963878
0.010963498
0.01096328
0.010963221
0.010963242
0.010963281
0.010963314
0.010963332
0.010963332
0.010963314
0.010963281
0.010963242
0.010963221
0.01096328
0.010963498
0.010963878
0.010964197
0.010964261
0.010964261
0.010964249
0.010964162
0.010964035
0.010963951
0.010963924
0.010963928
0.010963939
0.01096395
0.010963956
0.010963956
0.01096395
0.010963939
0.010963928
0.010963924
0.010963951
0.010964035
0.010964162
0.010964249
0.010964261
0.010964261
0.010964259
0.010964237
0.010964196
0.010964167
0.010964156
0.010964156
0.010964159
0.010964162
0.010964164
0.010964164
0.010964162
0.010964159
0.010964156
0.010964156
0.010964167
0.010964196
0.010964237
0.010964259
0.010964261
0.010964261
0.010964261
0.010964255
0.010964243
0.010964233
0.010964229
0.010964229
0.01096423
0.01096423
0.010964231
0.010964231
0.01096423
0.01096423
0.010964229
0.010964229
0.010964233
0.010964243
0.010964255
0.010964261
0.010964261
0.010964261
0.010964261
0.01096426
0.010964256
0.010964253
0.010964252
0.010964251
0.010964252
0.010964252
0.010964252
0.010964252
0.010964252
0.010964252
0.010964251
0.010964252
0.010964253
0.010964256
0.01096426
0.010964261
0.010964261
0.010964261
0.010964261
0.010964261
0.01096426
0.010964259
0.010964258
0.010964258
0.010964258
0.010964258
0.010964258
0.010964258
0.010964258
0.010964258
0.010964258
0.010964258
0.010964259
0.01096426
0.010964261
0.010964261
0.010964261
0.010964261
0.010964261
0.010964261
0.010964261
0.01096426
0.01096426
0.01096426
0.01096426
0.01096426
0.01096426
0.01096426
0.01096426
0.01096426
0.01096426
0.01096426
0.01096426
0.010964261
0.010964261
0.010964261
0.010964261
0.010964261
0.010964261
0.010964261
0.010964261
0.010964261
0.010964261
0.010964261
0.010964261
0.010964261
0.010964261
0.010964261
0.010964261
0.010964261
0.010964261
0.010964261
0.010964261
0.010964261
0.010964261
0.010964261
0.010964261
0.010964261
0.010964261
0.010964261
0.010964261
0.010964261
0.010964261
0.010964261
0.010964261
0.010964261
0.010964261
0.010964261
0.010964261
0.010964261
0.010964261
0.010964261
0.010964261
0.010964261
0.010964261
0.010964261
0.010964261
0.010964261
0.010964261
0.010964261
0.010964261
0.010964261
0.010964261
0.010964261
0.010964261
0.010964261
0.010964261
0.010964261
0.010964261
0.010964261
0.010964261
0.010964261
0.010964261
0.010964261
0.010964261
0.010964261
0.010964261
0.010964261
0.010964261
0.010964261
0.010964261
0.010964261
0.010964261
0.010964261
0.010964261
0.010964261
0.010964261
0.010964261
0.010964261
0.010964261
0.010964261
0.010964261
0.010964261
0.010964261
0.010964261
0.010964261
0.010964261
0.010964261
0.010964261
0.010964261
0.010964261
0.010964261
0.010964261
0.010964261
0.010964261
0.010964261
0.010964261
0.010964261
0.010964261
0.010964261
0.010964261
0.010964261
0.010964261
0.010964261
0.010964261
0.010964261
0.010964261
0.010964261
0.010964261
0.010964261
0.010964261
0.010964261
0.010964261
0.010964261
0.010964261
0.010964261
0.010964261
0.010964261
0.010964261
0.010964261
0.010964261
0.010964261
0.010964261
0.010964261
0.010964261
0.010964261
0.010964261
0.010964261
0.010964261
0.010964261
0.010964261
0.010964261
0.010964261
0.010964261
0.010964261
0.010964261
0.010964261
0.010964261
0.010964261
0.010964261
0.010964261
0.010964261
0.010964261
0.010964261
0.010964261
0.010964261
0.010964261
0.010964261
0.010964261
0.010964261
0.010964261
0.010964261
0.010964261
0.010964261
0.010964261
0.010964261
0.010964261
0.010964261
0.010964261
0.010964261
0.010964261
0.010964261
0.010964261
0.010964261
0.010964261
0.010964261
0.010964261
0.010964261
0.010964261
0.010964261
0.010964261
0.010964261
0.010964261
0.010964261
0.010964261
0.010964261
0.010964261
0.010964261
0.010964261
0.010964261
0.010964261
0.010964261
0.010964261
0.010964261
0.010964261
0.010964261
0.010964261
0.010964261
0.010964261
0.010964261
0.010964261
0.010964261
0.010964261
0.010964261
0.010964261
0.010964261
0.010964261
0.010964261
0.010964261
0.010964261
0.010964261
0.010964261
0.010964261
0.010964261
0.010964261
0.010964261
0.010964261
0.010964261
0.010964261
0.010964261
0.010964261
0.010964261
0.010964261
0.010964261
0.010964261
0.010964261
0.010964261
0.010964261
0.010964261
0.010964261
0.010964261
0.010964261
0.010964261
0.010964261
0.010964261
0.010964261
0.010964261
0.010964261
0.010964261
0.010964261
0.010964261
0.010964261
0.010964261
0.010964261
0.010964261
0.010964261
0.010964261
0.010964261
0.010964261
0.010964261
0.010964261
0.010964261
0.010964261
0.010964261
0.010964261
0.010964261
0.010964261
0.010964261
0.010964261
0.010964261
0.010964261
0.010964261
0.010964261
0.010964261
0.010964261
0.010964261
0.010964261
0.010964261
0.010964261
0.010964261
0.010964261
0.010964261
0.010964261
0.010964261
0.010964261
0.010964261
0.010964261
0.010964261
0.010964261
0.010964261
0.010964261
0.010964261
0.010964261
0.010964261
0.010964261
0.010964261
0.010964261
0.010964261
0.010964261
0.010964261
0.010964261
0.010964261
0.010964261
0.010964261
0.010964261
0.010964261
0.010964261
0.010964261
0.010964261
0.010964261
0.010964261
0.010964261
0.010964261
0.010964261
0.010964261
0.010964261
0.010964261
0.010964261
0.010964261
0.010964261
0.010964261
0.010964261
0.010964261
0.010964261
0.010964261
0.010964261
0.010964261
0.010964261
0.010964261
0.010964261
0.010964261
0.010964261
0.010964261
0.010964261
0.010964261
0.010964261
0.010964261
0.010964261
0.010964261
0.010964261
0.010964261
0.010964261
0.010964261
0.010964261
0.010964261
0.010964261
0.010964261
0.010964261
0.010964261
0.010964261
0.010964261
0.010964261
0.010964261
0.010964261
0.010964261
0.010964261
0.010964261
0.010964261
0.010964261
0.010964261
0.010964261
0.010964261
0.010964261
0.010964261
0.010964261
0.010964261
0.010964261
)
;

boundaryField
{
    Wall
    {
        type            calculated;
        value           nonuniform List<scalar> 
100
(
9.9999997e-21
9.9999997e-21
9.9999997e-21
9.9999997e-21
9.9999998e-21
9.9999998e-21
9.9999998e-21
1e-20
1e-20
1e-20
1e-20
1e-20
1e-20
1e-20
1e-20
1e-20
1e-20
1e-20
1e-20
1e-20
1e-20
1e-20
1e-20
1e-20
1e-20
1e-20
1e-20
1e-20
1e-20
1e-20
1e-20
1e-20
1e-20
1e-20
1e-20
1e-20
1e-20
1e-20
1e-20
1e-20
9.9999997e-21
9.9999997e-21
9.9999997e-21
9.9999997e-21
9.9999998e-21
9.9999998e-21
9.9999998e-21
1e-20
1e-20
1e-20
1e-20
1e-20
1e-20
1e-20
1e-20
1e-20
1e-20
1e-20
1e-20
1e-20
1e-20
1e-20
1e-20
1e-20
1e-20
1e-20
1e-20
1e-20
1e-20
1e-20
1e-20
1e-20
1e-20
1e-20
1e-20
1e-20
1e-20
1e-20
1e-20
1e-20
9.9999997e-21
9.9999997e-21
9.9999997e-21
9.9999997e-21
9.9999997e-21
9.9999998e-21
9.9999998e-21
9.9999998e-21
9.9999998e-21
9.9999998e-21
9.9999998e-21
9.9999998e-21
9.9999998e-21
9.9999998e-21
9.9999998e-21
9.9999997e-21
9.9999997e-21
9.9999997e-21
9.9999997e-21
9.9999997e-21
)
;
    }
    frontAndBack
    {
        type            empty;
    }
    atmosphere
    {
        type            calculated;
        value           uniform 1e-20;
    }
}


// ************************************************************************* //
