/*--------------------------------*- C++ -*----------------------------------*\
| =========                 |                                                 |
| \\      /  F ield         | OpenFOAM: The Open Source CFD Toolbox           |
|  \\    /   O peration     | Version:  3.0.1                                 |
|   \\  /    A nd           | Web:      www.OpenFOAM.org                      |
|    \\/     M anipulation  |                                                 |
\*---------------------------------------------------------------------------*/
FoamFile
{
    version     2.0;
    format      ascii;
    class       volScalarField;
    location    "16";
    object      rho;
}
// * * * * * * * * * * * * * * * * * * * * * * * * * * * * * * * * * * * * * //

dimensions      [1 -3 0 0 0 0 0];

internalField   nonuniform List<scalar> 
800
(
200.98127
200.98097
200.9822
200.98299
200.98358
200.98406
200.98441
200.98467
200.98484
200.98492
200.98492
200.98484
200.98467
200.98441
200.98405
200.98358
200.98299
200.9822
200.98097
200.98127
216.75663
216.30868
216.26545
216.25591
216.24908
216.24214
216.23597
216.23125
216.22815
216.22663
216.22663
216.22815
216.23125
216.23597
216.24214
216.24908
216.2559
216.26544
216.30868
216.75663
242.77294
242.05138
241.69086
241.66368
241.64836
241.63365
241.62112
241.61169
241.60555
241.60253
241.60253
241.60555
241.6117
241.62112
241.63365
241.64836
241.66368
241.69086
242.05138
242.77294
286.2452
284.91683
284.4272
284.38467
284.35741
284.33388
284.31501
284.3014
284.29275
284.28855
284.28855
284.29275
284.30141
284.31501
284.33388
284.35741
284.38467
284.4272
284.91683
286.2452
343.69529
341.44998
340.92106
340.84602
340.79739
340.76084
340.73528
340.7184
340.70832
340.70359
340.70359
340.70832
340.7184
340.73528
340.76084
340.79739
340.84601
340.92105
341.44998
343.69529
421.52665
418.97598
418.62855
418.50918
418.40209
418.31448
418.2533
418.21137
418.18621
418.1735
418.1735
418.18623
418.21139
418.25333
418.31451
418.40212
418.50921
418.62858
418.97601
421.52673
328.2166
348.15791
350.80946
351.15799
350.90549
350.49728
350.14761
349.85689
349.67244
349.57255
349.57259
349.67255
349.85708
350.1479
350.49767
350.90596
351.15855
350.81003
348.15853
328.21732
58.819242
70.535377
72.587005
72.754508
72.621555
72.411035
72.231913
72.08369
71.9899
71.939043
71.939062
71.98995
72.08378
72.232055
72.411229
72.621793
72.75479
72.587294
70.535683
58.819535
2.8143078
3.6270386
3.8140935
3.8137157
3.7946663
3.7737543
3.7577505
3.7456959
3.7382674
3.7343393
3.7343404
3.7382702
3.745701
3.7577588
3.7737662
3.7946812
3.8137334
3.8141115
3.6270571
2.8143217
1.2042567
1.2109171
1.2131889
1.2131178
1.2128002
1.2124923
1.2122718
1.2121206
1.21203
1.2119843
1.2119843
1.21203
1.2121206
1.2122719
1.2124924
1.2128003
1.2131179
1.213189
1.2109172
1.2042567
1.2000012
1.2000047
1.2000068
1.2000069
1.2000066
1.2000063
1.200006
1.2000059
1.2000058
1.2000057
1.2000057
1.2000058
1.2000059
1.200006
1.2000063
1.2000066
1.2000069
1.2000068
1.2000047
1.2000012
1.2000003
1.200001
1.2000013
1.2000014
1.2000014
1.2000014
1.2000014
1.2000014
1.2000013
1.2000013
1.2000013
1.2000013
1.2000014
1.2000014
1.2000014
1.2000014
1.2000014
1.2000013
1.200001
1.2000003
1.2000001
1.2000004
1.2000007
1.2000007
1.2000008
1.2000008
1.2000008
1.2000008
1.2000008
1.2000008
1.2000008
1.2000008
1.2000008
1.2000008
1.2000008
1.2000008
1.2000007
1.2000007
1.2000004
1.2000001
1.2
1.2000002
1.2000004
1.2000005
1.2000005
1.2000005
1.2000005
1.2000005
1.2000005
1.2000005
1.2000005
1.2000005
1.2000005
1.2000005
1.2000005
1.2000005
1.2000005
1.2000004
1.2000002
1.2
1.2
1.2000001
1.2000002
1.2000002
1.2000003
1.2000003
1.2000003
1.2000003
1.2000003
1.2000003
1.2000003
1.2000003
1.2000003
1.2000003
1.2000003
1.2000003
1.2000002
1.2000002
1.2000001
1.2
1.2
1.2
1.2000001
1.2000001
1.2000001
1.2000001
1.2000001
1.2000001
1.2000001
1.2000001
1.2000001
1.2000001
1.2000001
1.2000001
1.2000001
1.2000001
1.2000001
1.2000001
1.2
1.2
1.2
1.2
1.2
1.2000001
1.2000001
1.2000001
1.2000001
1.2000001
1.2000001
1.2000001
1.2000001
1.2000001
1.2000001
1.2000001
1.2000001
1.2000001
1.2000001
1.2
1.2
1.2
1.2
1.2
1.2
1.2
1.2
1.2
1.2
1.2
1.2
1.2
1.2
1.2
1.2
1.2
1.2
1.2
1.2
1.2
1.2
1.2
1.2
1.2
1.2
1.2
1.2
1.2
1.2
1.2
1.2
1.2
1.2
1.2
1.2
1.2
1.2
1.2
1.2
1.2
1.2
1.2
1.2
1.2
1.2
1.2
1.2
1.2
1.2
1.2
1.2
1.2
1.2
1.2
1.2
1.2
1.2
1.2
1.2
1.2
1.2
1.2
1.2
1.2
1.2
1.2
1.2
1.2
1.2
1.2
1.2
1.2
1.2
1.2
1.2
1.2
1.2
1.2
1.2
1.2
1.2
1.2
1.2
1.2
1.2
1.2
1.2
1.2
1.2
1.2
1.2
1.2
1.2
1.2
1.2
1.2
1.2
1.2
1.2
1.2
1.2
1.2
1.2
1.2
1.2
1.2
1.2
1.2
1.2
1.2
1.2
1.2
1.2
1.2
1.2
1.2
1.2
1.2
1.2
1.2
1.2
1.2
1.2
1.2
1.2
1.2
1.2
1.2
1.2
1.2
1.2
1.2
1.2
1.2
1.2
1.2
1.2
1.2
1.2
1.2
1.2
1.2
1.2
1.2
1.2
1.2
1.2
1.2
1.2
1.2
1.2
1.2
1.2
1.2
1.2
1.2
1.2
1.2
1.2
1.2
1.2
1.2
1.2
1.2
1.2
1.2
1.2
1.2
1.2
1.2
1.2
1.2
1.2
1.2
1.2
1.2
1.2
1.2
1.2
1.2
1.2
1.2
1.2
1.2
1.2
1.2
1.2
1.2
1.2
1.2
1.2
1.2
1.2
1.2
1.2
1.2
1.2
1.2
1.2
1.2
1.2
1.2
1.2
1.2
1.2
1.2
1.2
1.2
1.2
1.2
1.2
1.2
1.2
1.2
1.2
1.2
1.2
1.2
1.2
1.2
1.2
1.2
1.2
1.2
1.2
1.2
1.2
1.2
1.2
1.2
1.2
1.2
1.2
1.2
1.2
1.2
1.2
1.2
1.2
1.2
1.2
1.2
1.2
1.2
1.2
1.2
1.2
1.2
1.2
1.2
1.2
1.2
1.2
1.2
1.2
1.2
1.2
1.2
1.2
1.2
1.2
1.2
1.2
1.2
1.2
1.2
1.2
1.2
1.2
1.2
1.2
1.2
1.2
1.2
1.2
1.2
1.2
1.2
1.2
1.2
1.2
1.2
1.2
1.2
1.2
1.2
1.2
1.2
1.2
1.2
1.2
1.2
1.2
1.2
1.2
1.2
1.2
1.2
1.2
1.2
1.2
1.2
1.2
1.2
1.2
1.2
1.2
1.2
1.2
1.2
1.2
1.2
1.2
1.2
1.2
1.2
1.2
1.2
1.2
1.2
1.2
1.2
1.2
1.2
1.2
1.2
1.2
1.2
1.2
1.2
1.2
1.2
1.2
1.2
1.2
1.2
1.2
1.2
1.2
1.2
1.2
1.2
1.2
1.2
1.2
1.2
1.2
1.2
1.2
1.2
1.2
1.2
1.2
1.2
1.2
1.2
1.2
1.2
1.2
1.2
1.2
1.2
1.2
1.2
1.2
1.2
1.2
1.2
1.2
1.2
1.2
1.2
1.2
1.2
1.2
1.2
1.2
1.2
1.2
1.2
1.2
1.2
1.2
1.2
1.2
1.2
1.2
1.2
1.2
1.2
1.2
1.2
1.2
1.2
1.2
1.2
1.2
1.2
1.2
1.2
1.2
1.2
1.2
1.2
1.2
1.2
1.2
1.2
1.2
1.2
1.2
1.2
1.2
1.2
1.2
1.2
1.2
1.2
1.2
1.2
1.2
1.2
1.2
1.2
1.2
1.2
1.2
1.2
1.2
1.2
1.2
1.2
1.2
1.2
1.2
1.2
1.2
1.2
1.2
1.2
1.2
1.2
1.2
1.2
1.2
1.2
1.2
1.2
1.2
1.2
1.2
1.2
1.2
1.2
1.2
1.2
1.2
1.2
1.2
1.2
1.2
1.2
)
;

boundaryField
{
    Wall
    {
        type            calculated;
        value           nonuniform List<scalar> 
100
(
1e-15
5.5089841e-12
0.00011312832
0.00072269118
0.0039389926
0.043385215
0.54400733
1.111355
1.1979315
1.1999951
1.2
1.2
1.2
1.2
1.2
1.2
1.2
1.2
1.2
1.2
1.2
1.2
1.2
1.2
1.2
1.2
1.2
1.2
1.2
1.2
1.2
1.2
1.2
1.2
1.2
1.2
1.2
1.2
1.2
1.2
1e-15
2.5006631e-14
0.00011312821
0.00072268977
0.0039389793
0.043384967
0.54400584
1.1113545
1.1979315
1.1999951
1.2
1.2
1.2
1.2
1.2
1.2
1.2
1.2
1.2
1.2
1.2
1.2
1.2
1.2
1.2
1.2
1.2
1.2
1.2
1.2
1.2
1.2
1.2
1.2
1.2
1.2
1.2
1.2
1.2
1.2
1e-15
1e-15
1.0000005e-15
1.000001e-15
1e-15
1.0000013e-15
1.0000011e-15
1.0000001e-15
1e-15
1e-15
1e-15
1e-15
1e-15
1.0000001e-15
1.0000001e-15
1e-15
1e-15
1e-15
1e-15
1e-15
)
;
    }
    frontAndBack
    {
        type            empty;
    }
    atmosphere
    {
        type            calculated;
        value           nonuniform List<scalar> 
20
(
1.2
1.2
1.2
1.2
1.2
1.2
1.2
1.2
1.2
1.2
1.2
1.2
1.2
1.2
1.2
1.2
1.2
1.2
1.2
1.2
)
;
    }
}


// ************************************************************************* //
