/*--------------------------------*- C++ -*----------------------------------*\
| =========                 |                                                 |
| \\      /  F ield         | OpenFOAM: The Open Source CFD Toolbox           |
|  \\    /   O peration     | Version:  3.0.1                                 |
|   \\  /    A nd           | Web:      www.OpenFOAM.org                      |
|    \\/     M anipulation  |                                                 |
\*---------------------------------------------------------------------------*/
FoamFile
{
    version     2.0;
    format      ascii;
    class       volScalarField;
    location    "16";
    object      rho_foam;
}
// * * * * * * * * * * * * * * * * * * * * * * * * * * * * * * * * * * * * * //

dimensions      [1 -3 0 0 0 0 0];

internalField   nonuniform List<scalar> 
800
(
200.98127
200.98097
200.9822
200.98299
200.98358
200.98406
200.98441
200.98467
200.98484
200.98492
200.98492
200.98484
200.98467
200.98441
200.98405
200.98358
200.98299
200.9822
200.98097
200.98127
216.75663
216.30868
216.26545
216.25591
216.24908
216.24214
216.23597
216.23125
216.22815
216.22663
216.22663
216.22815
216.23125
216.23597
216.24214
216.24908
216.2559
216.26544
216.30868
216.75663
242.79571
242.07308
241.71247
241.68531
241.67
241.6553
241.64278
241.63336
241.62722
241.62419
241.62419
241.62722
241.63336
241.64278
241.6553
241.67
241.6853
241.71247
242.07308
242.79572
286.41697
285.07672
284.58581
284.54333
284.51618
284.49275
284.47396
284.46042
284.45181
284.44763
284.44763
284.45181
284.46042
284.47397
284.49275
284.51618
284.54333
284.58581
285.07672
286.41697
344.82323
342.45797
341.91378
341.83687
341.78871
341.75321
341.72866
341.71269
341.70322
341.69881
341.69881
341.70322
341.7127
341.72866
341.7532
341.7887
341.83686
341.91377
342.45796
344.82323
437.29332
431.84785
431.11131
430.92412
430.82331
430.76432
430.7307
430.71395
430.70507
430.70129
430.70129
430.70507
430.71395
430.7307
430.76431
430.82329
430.9241
431.11129
431.84782
437.29331
599.40779
587.89228
585.24252
584.84415
584.66622
584.58732
584.55375
584.5449
584.54261
584.54385
584.54384
584.54261
584.54491
584.55374
584.5873
584.66618
584.8441
585.24247
587.89222
599.40775
781.19996
768.05132
765.11835
764.5775
764.45317
764.46019
764.50148
764.5411
764.57068
764.59069
764.59069
764.57069
764.54111
764.50147
764.46015
764.45309
764.5774
765.11826
768.0512
781.19986
937.72999
918.6741
913.79581
913.14235
913.35885
913.68339
913.95121
914.1225
914.22868
914.2869
914.28691
914.2287
914.12253
913.95121
913.68334
913.35877
913.14223
913.79571
918.67397
937.72986
1040.515
1015.6254
1008.4852
1007.2104
1007.6214
1008.3237
1008.9258
1009.3256
1009.57
1009.6926
1009.6926
1009.5701
1009.3256
1008.9258
1008.3237
1007.6214
1007.2103
1008.4851
1015.6253
1040.5149
1083.3544
1065.6004
1058.7016
1056.8322
1056.8928
1057.4965
1058.1185
1058.5711
1058.8591
1059.0019
1059.0019
1058.8591
1058.5711
1058.1186
1057.4965
1056.8928
1056.8322
1058.7016
1065.6004
1083.3543
1094.2728
1086.4149
1081.8511
1080.1628
1079.9256
1080.229
1080.638
1080.9644
1081.1815
1081.2901
1081.2901
1081.1815
1080.9645
1080.638
1080.229
1079.9256
1080.1628
1081.8511
1086.4149
1094.2728
1096.1538
1093.6043
1091.2972
1090.1917
1089.9104
1090.0061
1090.21
1090.3895
1090.514
1090.5771
1090.5771
1090.514
1090.3895
1090.2101
1090.0061
1089.9104
1090.1917
1091.2972
1093.6042
1096.1538
1096.3977
1095.7215
1094.7639
1094.1812
1093.9812
1093.991
1094.0746
1094.1569
1094.2165
1094.247
1094.247
1094.2165
1094.1569
1094.0747
1093.9911
1093.9812
1094.1812
1094.7639
1095.7215
1096.3977
1096.4235
1096.2671
1095.9247
1095.6623
1095.5515
1095.5405
1095.5696
1095.6026
1095.6276
1095.6405
1095.6405
1095.6276
1095.6026
1095.5696
1095.5405
1095.5515
1095.6623
1095.9247
1096.2671
1096.4235
1096.4259
1096.393
1096.2839
1096.1792
1096.127
1096.1167
1096.1254
1096.1373
1096.1467
1096.1517
1096.1517
1096.1467
1096.1373
1096.1254
1096.1167
1096.127
1096.1792
1096.2839
1096.393
1096.4259
1096.4261
1096.4197
1096.3878
1096.3498
1096.328
1096.3221
1096.3242
1096.3281
1096.3314
1096.3332
1096.3332
1096.3314
1096.3281
1096.3242
1096.3221
1096.328
1096.3498
1096.3878
1096.4197
1096.4261
1096.4261
1096.4249
1096.4162
1096.4035
1096.3951
1096.3924
1096.3928
1096.3939
1096.395
1096.3956
1096.3956
1096.395
1096.3939
1096.3928
1096.3924
1096.3951
1096.4035
1096.4162
1096.4249
1096.4261
1096.4261
1096.4259
1096.4237
1096.4196
1096.4167
1096.4156
1096.4156
1096.4159
1096.4162
1096.4164
1096.4164
1096.4162
1096.4159
1096.4156
1096.4156
1096.4167
1096.4196
1096.4237
1096.4259
1096.4261
1096.4261
1096.4261
1096.4255
1096.4243
1096.4233
1096.4229
1096.4229
1096.423
1096.423
1096.4231
1096.4231
1096.423
1096.423
1096.4229
1096.4229
1096.4233
1096.4243
1096.4255
1096.4261
1096.4261
1096.4261
1096.4261
1096.426
1096.4256
1096.4253
1096.4252
1096.4251
1096.4252
1096.4252
1096.4252
1096.4252
1096.4252
1096.4252
1096.4251
1096.4252
1096.4253
1096.4256
1096.426
1096.4261
1096.4261
1096.4261
1096.4261
1096.4261
1096.426
1096.4259
1096.4258
1096.4258
1096.4258
1096.4258
1096.4258
1096.4258
1096.4258
1096.4258
1096.4258
1096.4258
1096.4259
1096.426
1096.4261
1096.4261
1096.4261
1096.4261
1096.4261
1096.4261
1096.4261
1096.426
1096.426
1096.426
1096.426
1096.426
1096.426
1096.426
1096.426
1096.426
1096.426
1096.426
1096.426
1096.4261
1096.4261
1096.4261
1096.4261
1096.4261
1096.4261
1096.4261
1096.4261
1096.4261
1096.4261
1096.4261
1096.4261
1096.4261
1096.4261
1096.4261
1096.4261
1096.4261
1096.4261
1096.4261
1096.4261
1096.4261
1096.4261
1096.4261
1096.4261
1096.4261
1096.4261
1096.4261
1096.4261
1096.4261
1096.4261
1096.4261
1096.4261
1096.4261
1096.4261
1096.4261
1096.4261
1096.4261
1096.4261
1096.4261
1096.4261
1096.4261
1096.4261
1096.4261
1096.4261
1096.4261
1096.4261
1096.4261
1096.4261
1096.4261
1096.4261
1096.4261
1096.4261
1096.4261
1096.4261
1096.4261
1096.4261
1096.4261
1096.4261
1096.4261
1096.4261
1096.4261
1096.4261
1096.4261
1096.4261
1096.4261
1096.4261
1096.4261
1096.4261
1096.4261
1096.4261
1096.4261
1096.4261
1096.4261
1096.4261
1096.4261
1096.4261
1096.4261
1096.4261
1096.4261
1096.4261
1096.4261
1096.4261
1096.4261
1096.4261
1096.4261
1096.4261
1096.4261
1096.4261
1096.4261
1096.4261
1096.4261
1096.4261
1096.4261
1096.4261
1096.4261
1096.4261
1096.4261
1096.4261
1096.4261
1096.4261
1096.4261
1096.4261
1096.4261
1096.4261
1096.4261
1096.4261
1096.4261
1096.4261
1096.4261
1096.4261
1096.4261
1096.4261
1096.4261
1096.4261
1096.4261
1096.4261
1096.4261
1096.4261
1096.4261
1096.4261
1096.4261
1096.4261
1096.4261
1096.4261
1096.4261
1096.4261
1096.4261
1096.4261
1096.4261
1096.4261
1096.4261
1096.4261
1096.4261
1096.4261
1096.4261
1096.4261
1096.4261
1096.4261
1096.4261
1096.4261
1096.4261
1096.4261
1096.4261
1096.4261
1096.4261
1096.4261
1096.4261
1096.4261
1096.4261
1096.4261
1096.4261
1096.4261
1096.4261
1096.4261
1096.4261
1096.4261
1096.4261
1096.4261
1096.4261
1096.4261
1096.4261
1096.4261
1096.4261
1096.4261
1096.4261
1096.4261
1096.4261
1096.4261
1096.4261
1096.4261
1096.4261
1096.4261
1096.4261
1096.4261
1096.4261
1096.4261
1096.4261
1096.4261
1096.4261
1096.4261
1096.4261
1096.4261
1096.4261
1096.4261
1096.4261
1096.4261
1096.4261
1096.4261
1096.4261
1096.4261
1096.4261
1096.4261
1096.4261
1096.4261
1096.4261
1096.4261
1096.4261
1096.4261
1096.4261
1096.4261
1096.4261
1096.4261
1096.4261
1096.4261
1096.4261
1096.4261
1096.4261
1096.4261
1096.4261
1096.4261
1096.4261
1096.4261
1096.4261
1096.4261
1096.4261
1096.4261
1096.4261
1096.4261
1096.4261
1096.4261
1096.4261
1096.4261
1096.4261
1096.4261
1096.4261
1096.4261
1096.4261
1096.4261
1096.4261
1096.4261
1096.4261
1096.4261
1096.4261
1096.4261
1096.4261
1096.4261
1096.4261
1096.4261
1096.4261
1096.4261
1096.4261
1096.4261
1096.4261
1096.4261
1096.4261
1096.4261
1096.4261
1096.4261
1096.4261
1096.4261
1096.4261
1096.4261
1096.4261
1096.4261
1096.4261
1096.4261
1096.4261
1096.4261
1096.4261
1096.4261
1096.4261
1096.4261
1096.4261
1096.4261
1096.4261
1096.4261
1096.4261
1096.4261
1096.4261
1096.4261
1096.4261
1096.4261
1096.4261
1096.4261
1096.4261
1096.4261
1096.4261
1096.4261
1096.4261
1096.4261
1096.4261
1096.4261
1096.4261
1096.4261
1096.4261
1096.4261
1096.4261
1096.4261
1096.4261
1096.4261
1096.4261
1096.4261
1096.4261
1096.4261
1096.4261
1096.4261
1096.4261
1096.4261
1096.4261
1096.4261
1096.4261
1096.4261
1096.4261
1096.4261
1096.4261
1096.4261
1096.4261
1096.4261
1096.4261
1096.4261
1096.4261
1096.4261
1096.4261
1096.4261
1096.4261
1096.4261
1096.4261
1096.4261
1096.4261
1096.4261
1096.4261
1096.4261
1096.4261
1096.4261
1096.4261
1096.4261
1096.4261
1096.4261
1096.4261
1096.4261
1096.4261
1096.4261
1096.4261
1096.4261
1096.4261
1096.4261
1096.4261
1096.4261
1096.4261
1096.4261
1096.4261
1096.4261
1096.4261
1096.4261
)
;

boundaryField
{
    Wall
    {
        type            zeroGradient;
    }
    frontAndBack
    {
        type            empty;
    }
    atmosphere
    {
        type            zeroGradient;
    }
}


// ************************************************************************* //
