/*--------------------------------*- C++ -*----------------------------------*\
| =========                 |                                                 |
| \\      /  F ield         | OpenFOAM: The Open Source CFD Toolbox           |
|  \\    /   O peration     | Version:  3.0.1                                 |
|   \\  /    A nd           | Web:      www.OpenFOAM.org                      |
|    \\/     M anipulation  |                                                 |
\*---------------------------------------------------------------------------*/
FoamFile
{
    version     2.0;
    format      ascii;
    class       volScalarField;
    location    "16";
    object      thermalDiff_gas;
}
// * * * * * * * * * * * * * * * * * * * * * * * * * * * * * * * * * * * * * //

dimensions      [0 2 -1 0 0 0 0];

internalField   nonuniform List<scalar> 
800
(
0.00026365928
0.00026366195
0.00026366222
0.00026366225
0.00026366227
0.00026366229
0.0002636623
0.00026366231
0.00026366231
0.00026366232
0.00026366232
0.00026366231
0.00026366231
0.0002636623
0.00026366229
0.00026366227
0.00026366225
0.00026366222
0.00026366195
0.00026365928
0.00025767753
0.00025778843
0.00025780223
0.00025780471
0.0002578061
0.00025780762
0.00025780906
0.00025781019
0.00025781095
0.00025781132
0.00025781132
0.00025781095
0.00025781019
0.00025780906
0.00025780762
0.0002578061
0.00025780471
0.00025780223
0.00025778844
0.00025767754
0.00025317303
0.00025333881
0.00025336894
0.0002533745
0.00025337619
0.00025337774
0.00025337919
0.00025338037
0.00025338118
0.00025338159
0.00025338159
0.00025338118
0.00025338037
0.0002533792
0.00025337774
0.0002533762
0.0002533745
0.00025336894
0.00025333882
0.00025317303
0.00024928071
0.00024952009
0.00024957566
0.00024958657
0.00024958894
0.00024958972
0.00024959041
0.00024959083
0.00024959119
0.00024959136
0.00024959136
0.00024959119
0.00024959083
0.00024959042
0.00024958972
0.00024958894
0.00024958658
0.00024957566
0.0002495201
0.00024928072
0.00024444474
0.00024475415
0.00024484234
0.00024486237
0.00024486769
0.00024486899
0.00024486965
0.00024486972
0.00024486986
0.00024486985
0.00024486985
0.00024486986
0.00024486972
0.00024486965
0.00024486899
0.00024486769
0.00024486238
0.00024484235
0.00024475416
0.00024444475
0.00023911479
0.00023942061
0.0002395814
0.00023961262
0.00023962371
0.00023963047
0.00023963558
0.00023963935
0.0002396419
0.00023964316
0.00023964316
0.0002396419
0.00023963935
0.00023963558
0.00023963047
0.00023962371
0.00023961262
0.0002395814
0.00023942061
0.00023911479
0.00023748301
0.00023760586
0.00023769668
0.00023773956
0.00023775888
0.00023776948
0.00023777655
0.00023778154
0.00023778482
0.00023778645
0.00023778645
0.00023778482
0.00023778154
0.00023777654
0.00023776948
0.00023775887
0.00023773956
0.00023769667
0.00023760586
0.000237483
0.00023615118
0.00023618139
0.00023621865
0.00023624493
0.00023626121
0.00023627174
0.00023627906
0.00023628423
0.0002362876
0.00023628928
0.00023628928
0.0002362876
0.00023628423
0.00023627906
0.00023627174
0.00023626121
0.00023624492
0.00023621864
0.00023618138
0.00023615118
0.00023525968
0.00023527525
0.00023529585
0.00023531351
0.00023532668
0.00023533629
0.00023534334
0.0002353484
0.0002353517
0.00023535334
0.00023535334
0.0002353517
0.0002353484
0.00023534334
0.00023533629
0.00023532668
0.00023531351
0.00023529585
0.00023527524
0.00023525968
0.000234445
0.00023445951
0.00023447624
0.0002344912
0.0002345033
0.00023451268
0.00023451975
0.00023452485
0.00023452817
0.00023452981
0.00023452981
0.00023452817
0.00023452485
0.00023451975
0.00023451268
0.0002345033
0.0002344912
0.00023447623
0.0002344595
0.000234445
0.00023369716
0.00023371425
0.00023373291
0.00023374916
0.00023376223
0.00023377232
0.00023377986
0.00023378521
0.00023378864
0.00023379033
0.00023379033
0.00023378864
0.00023378521
0.00023377985
0.00023377232
0.00023376223
0.00023374915
0.0002337329
0.00023371425
0.00023369716
0.00023301345
0.00023303261
0.00023305426
0.0002330732
0.00023308833
0.00023309983
0.00023310825
0.00023311411
0.0002331178
0.00023311959
0.00023311959
0.0002331178
0.0002331141
0.00023310825
0.00023309983
0.00023308833
0.0002330732
0.00023305425
0.00023303261
0.00023301345
0.00023239176
0.00023241172
0.00023243551
0.00023245694
0.00023247423
0.00023248736
0.00023249688
0.00023250343
0.00023250751
0.00023250946
0.00023250946
0.00023250751
0.00023250343
0.00023249688
0.00023248736
0.00023247423
0.00023245694
0.00023243551
0.00023241172
0.00023239176
0.00023182928
0.00023184902
0.00023187374
0.00023189678
0.00023191575
0.00023193032
0.00023194092
0.0002319482
0.00023195272
0.00023195488
0.00023195488
0.00023195272
0.0002319482
0.00023194092
0.00023193032
0.00023191575
0.00023189677
0.00023187374
0.00023184902
0.00023182927
0.00023132244
0.00023134136
0.00023136597
0.00023138963
0.00023140959
0.00023142517
0.00023143663
0.00023144455
0.00023144948
0.00023145184
0.00023145184
0.00023144948
0.00023144455
0.00023143663
0.00023142517
0.00023140959
0.00023138963
0.00023136597
0.00023134135
0.00023132244
0.00023086719
0.00023088495
0.00023090873
0.0002309322
0.00023095245
0.00023096854
0.00023098054
0.00023098891
0.00023099417
0.0002309967
0.0002309967
0.00023099417
0.00023098891
0.00023098054
0.00023096854
0.00023095245
0.0002309322
0.00023090873
0.00023088495
0.00023086719
0.00023045926
0.00023047571
0.00023049821
0.0002305209
0.00023054085
0.00023055697
0.00023056917
0.00023057779
0.00023058324
0.00023058587
0.00023058587
0.00023058324
0.00023057779
0.00023056917
0.00023055697
0.00023054085
0.0002305209
0.00023049821
0.00023047571
0.00023045926
0.00023009439
0.00023010949
0.00023013048
0.00023015199
0.0002301712
0.00023018697
0.00023019907
0.0002302077
0.0002302132
0.00023021588
0.00023021588
0.0002302132
0.0002302077
0.00023019907
0.00023018697
0.0002301712
0.00023015199
0.00023013048
0.00023010949
0.00023009439
0.00022976853
0.0002297823
0.00022980167
0.00022982176
0.00022983996
0.00022985508
0.00022986681
0.00022987526
0.0002298807
0.00022988335
0.00022988335
0.0002298807
0.00022987526
0.00022986681
0.00022985508
0.00022983996
0.00022982176
0.00022980167
0.0002297823
0.00022976853
0.00022947789
0.00022949039
0.00022950811
0.00022952668
0.00022954367
0.00022955794
0.00022956912
0.00022957725
0.00022958251
0.00022958509
0.00022958509
0.00022958251
0.00022957725
0.00022956912
0.00022955794
0.00022954367
0.00022952668
0.00022950811
0.00022949039
0.00022947789
0.000229219
0.00022923029
0.0002292464
0.00022926342
0.00022927912
0.00022929241
0.00022930291
0.0002293106
0.00022931561
0.00022931807
0.00022931807
0.00022931561
0.0002293106
0.00022930291
0.00022929241
0.00022927911
0.00022926342
0.0002292464
0.00022923029
0.000229219
0.00022898871
0.00022899887
0.00022901344
0.00022902892
0.00022904329
0.00022905555
0.00022906529
0.00022907248
0.00022907718
0.00022907949
0.00022907949
0.00022907718
0.00022907248
0.00022906529
0.00022905555
0.00022904329
0.00022902892
0.00022901344
0.00022899887
0.00022898871
0.00022878415
0.00022879326
0.00022880638
0.00022882038
0.00022883345
0.00022884465
0.00022885361
0.00022886024
0.0002288646
0.00022886675
0.00022886675
0.0002288646
0.00022886024
0.00022885361
0.00022884465
0.00022883345
0.00022882038
0.00022880638
0.00022879326
0.00022878415
0.00022860277
0.00022861091
0.00022862267
0.00022863526
0.00022864707
0.00022865724
0.0002286654
0.00022867147
0.00022867547
0.00022867745
0.00022867745
0.00022867547
0.00022867147
0.0002286654
0.00022865724
0.00022864707
0.00022863526
0.00022862267
0.00022861091
0.00022860277
0.00022844222
0.00022844947
0.00022845998
0.00022847126
0.00022848187
0.00022849104
0.00022849843
0.00022850394
0.00022850757
0.00022850938
0.00022850938
0.00022850757
0.00022850394
0.00022849843
0.00022849104
0.00022848187
0.00022847126
0.00022845998
0.00022844947
0.00022844222
0.00022830042
0.00022830686
0.00022831621
0.00022832627
0.00022833576
0.00022834398
0.00022835062
0.00022835559
0.00022835888
0.00022836051
0.00022836051
0.00022835888
0.00022835559
0.00022835062
0.00022834398
0.00022833576
0.00022832627
0.00022831621
0.00022830686
0.00022830042
0.00022817548
0.00022818118
0.00022818947
0.0002281984
0.00022820685
0.00022821418
0.00022822013
0.00022822458
0.00022822753
0.000228229
0.000228229
0.00022822753
0.00022822458
0.00022822013
0.00022821418
0.00022820685
0.0002281984
0.00022818947
0.00022818118
0.00022817548
0.00022806568
0.00022807071
0.00022807803
0.00022808594
0.00022809343
0.00022809994
0.00022810523
0.00022810919
0.00022811183
0.00022811314
0.00022811314
0.00022811183
0.00022810919
0.00022810523
0.00022809994
0.00022809343
0.00022808594
0.00022807803
0.00022807071
0.00022806568
0.0002279695
0.00022797392
0.00022798037
0.00022798733
0.00022799394
0.0002279997
0.00022800438
0.0002280079
0.00022801024
0.0002280114
0.0002280114
0.00022801024
0.0002280079
0.00022800438
0.0002279997
0.00022799394
0.00022798733
0.00022798037
0.00022797392
0.0002279695
0.00022788556
0.00022788944
0.00022789508
0.0002279012
0.000227907
0.00022791207
0.0002279162
0.0002279193
0.00022792137
0.00022792239
0.00022792239
0.00022792137
0.0002279193
0.0002279162
0.00022791207
0.000227907
0.0002279012
0.00022789508
0.00022788944
0.00022788556
0.00022781265
0.00022781602
0.00022782095
0.00022782629
0.00022783137
0.00022783581
0.00022783943
0.00022784215
0.00022784397
0.00022784487
0.00022784487
0.00022784397
0.00022784215
0.00022783943
0.00022783581
0.00022783137
0.00022782629
0.00022782095
0.00022781602
0.00022781265
0.00022774968
0.00022775261
0.00022775688
0.00022776153
0.00022776595
0.00022776981
0.00022777297
0.00022777535
0.00022777694
0.00022777773
0.00022777773
0.00022777694
0.00022777535
0.00022777297
0.00022776981
0.00022776595
0.00022776153
0.00022775688
0.00022775261
0.00022774968
0.00022769572
0.00022769824
0.00022770193
0.00022770594
0.00022770976
0.00022771312
0.00022771586
0.00022771793
0.00022771932
0.00022772001
0.00022772001
0.00022771932
0.00022771793
0.00022771586
0.00022771312
0.00022770976
0.00022770594
0.00022770193
0.00022769824
0.00022769572
0.00022764996
0.00022765211
0.00022765527
0.00022765871
0.000227662
0.0002276649
0.00022766727
0.00022766906
0.00022767026
0.00022767086
0.00022767086
0.00022767026
0.00022766906
0.00022766727
0.0002276649
0.000227662
0.00022765871
0.00022765527
0.00022765211
0.00022764996
0.00022761172
0.00022761354
0.00022761622
0.00022761916
0.00022762197
0.00022762445
0.0002276265
0.00022762804
0.00022762908
0.0002276296
0.0002276296
0.00022762908
0.00022762804
0.0002276265
0.00022762445
0.00022762197
0.00022761916
0.00022761622
0.00022761354
0.00022761172
0.00022758047
0.000227582
0.00022758425
0.00022758673
0.00022758912
0.00022759124
0.00022759299
0.00022759433
0.00022759522
0.00022759567
0.00022759567
0.00022759522
0.00022759433
0.00022759299
0.00022759124
0.00022758912
0.00022758673
0.00022758425
0.000227582
0.00022758047
0.0002275558
0.00022755705
0.00022755892
0.000227561
0.00022756303
0.00022756484
0.00022756635
0.0002275675
0.00022756828
0.00022756867
0.00022756867
0.00022756828
0.0002275675
0.00022756635
0.00022756484
0.00022756303
0.000227561
0.00022755892
0.00022755705
0.0002275558
0.0002275374
0.00022753842
0.00022753997
0.00022754171
0.00022754344
0.00022754499
0.0002275463
0.00022754731
0.00022754799
0.00022754834
0.00022754834
0.00022754799
0.00022754731
0.0002275463
0.00022754499
0.00022754344
0.00022754171
0.00022753997
0.00022753842
0.0002275374
0.00022752514
0.00022752596
0.00022752725
0.00022752874
0.00022753023
0.00022753161
0.00022753277
0.00022753367
0.00022753429
0.0002275346
0.0002275346
0.00022753429
0.00022753367
0.00022753277
0.00022753161
0.00022753023
0.00022752874
0.00022752725
0.00022752596
0.00022752514
0.00022751897
0.00022751967
0.0002275208
0.00022752213
0.0002275235
0.00022752476
0.00022752585
0.00022752669
0.00022752727
0.00022752757
0.00022752757
0.00022752727
0.00022752669
0.00022752584
0.00022752476
0.0002275235
0.00022752213
0.0002275208
0.00022751967
0.00022751897
)
;

boundaryField
{
    Wall
    {
        type            calculated;
        value           uniform 0.1;
    }
    frontAndBack
    {
        type            empty;
    }
    atmosphere
    {
        type            calculated;
        value           uniform 0.1;
    }
}


// ************************************************************************* //
