/*--------------------------------*- C++ -*----------------------------------*\
| =========                 |                                                 |
| \\      /  F ield         | OpenFOAM: The Open Source CFD Toolbox           |
|  \\    /   O peration     | Version:  3.0.1                                 |
|   \\  /    A nd           | Web:      www.OpenFOAM.org                      |
|    \\/     M anipulation  |                                                 |
\*---------------------------------------------------------------------------*/
FoamFile
{
    version     2.0;
    format      ascii;
    class       volScalarField;
    location    "16";
    object      TS;
}
// * * * * * * * * * * * * * * * * * * * * * * * * * * * * * * * * * * * * * //

dimensions      [0 0 0 1 0 0 0];

internalField   nonuniform List<scalar> 
800
(
321.90842
321.91017
321.91034
321.91036
321.91038
321.91039
321.9104
321.9104
321.91041
321.91041
321.91041
321.91041
321.9104
321.9104
321.91039
321.91038
321.91036
321.91034
321.91017
321.90842
318.04266
318.11475
318.12373
318.12534
318.12623
318.12721
318.12814
318.12888
318.12937
318.12961
318.12961
318.12937
318.12888
318.12814
318.12721
318.12623
318.12534
318.12373
318.11475
318.04266
315.12082
315.22886
315.24852
315.25214
315.25324
315.25425
315.2552
315.25597
315.25651
315.25677
315.25677
315.25651
315.25598
315.25521
315.25425
315.25325
315.25214
315.24852
315.22886
315.12082
312.59766
312.75372
312.78998
312.7971
312.79864
312.79916
312.79962
312.7999
312.80015
312.80026
312.80026
312.80015
312.7999
312.79962
312.79916
312.79864
312.79711
312.78999
312.75373
312.59767
309.45503
309.66065
309.71939
309.73267
309.73615
309.73698
309.73739
309.73742
309.73751
309.7375
309.7375
309.73751
309.73743
309.7374
309.73698
309.73616
309.73268
309.71939
309.66065
309.45504
305.96087
306.15089
306.25273
306.27471
306.28253
306.28708
306.29041
306.29283
306.29446
306.29526
306.29526
306.29446
306.29283
306.29041
306.28708
306.28253
306.27471
306.25273
306.15089
305.96087
304.84959
304.90981
304.95954
304.98636
304.99956
305.007
305.01188
305.01527
305.01747
305.01856
305.01856
305.01747
305.01527
305.01188
305.007
304.99956
304.98636
304.95954
304.90981
304.84959
303.91219
303.92972
303.95298
303.9707
303.9822
303.98972
303.99486
303.99842
304.00071
304.00184
304.00184
304.00071
303.99842
303.99485
303.98972
303.9822
303.97069
303.95298
303.92972
303.91219
303.30393
303.31475
303.32914
303.34174
303.35122
303.35807
303.363
303.36648
303.36872
303.36983
303.36983
303.36872
303.36648
303.363
303.35807
303.35122
303.34174
303.32914
303.31475
303.30393
302.75594
302.76607
302.77786
302.78847
302.797
302.80355
302.80842
302.81189
302.81413
302.81523
302.81523
302.81413
302.81189
302.80842
302.80355
302.797
302.78846
302.77786
302.76607
302.75594
302.2564
302.26801
302.28075
302.29188
302.30082
302.30769
302.31279
302.31639
302.31869
302.31981
302.31981
302.31869
302.31639
302.31278
302.30769
302.30082
302.29188
302.28075
302.26801
302.2564
301.80102
301.81387
301.82839
301.84112
301.85127
301.85899
301.86462
301.86853
301.87099
301.87219
301.87219
301.87099
301.86853
301.86462
301.85898
301.85127
301.84112
301.82839
301.81386
301.80102
301.38723
301.40057
301.41645
301.43075
301.44228
301.45103
301.45738
301.46173
301.46445
301.46575
301.46575
301.46445
301.46173
301.45738
301.45103
301.44228
301.43074
301.41645
301.40056
301.38723
301.01273
301.02592
301.04241
301.05776
301.0704
301.08011
301.08717
301.09201
301.09501
301.09645
301.09645
301.09501
301.09201
301.08716
301.08011
301.0704
301.05776
301.04241
301.02592
301.01273
300.67504
300.68768
300.7041
300.71989
300.7332
300.74358
300.75122
300.75649
300.75978
300.76135
300.76135
300.75978
300.75649
300.75122
300.74358
300.7332
300.71989
300.7041
300.68767
300.67504
300.37146
300.38334
300.39923
300.4149
300.42842
300.43916
300.44717
300.45275
300.45626
300.45794
300.45794
300.45626
300.45275
300.44717
300.43916
300.42842
300.4149
300.39923
300.38334
300.37146
300.09923
300.11024
300.1253
300.14046
300.1538
300.16458
300.17273
300.17848
300.18212
300.18388
300.18388
300.18212
300.17848
300.17273
300.16457
300.1538
300.14046
300.1253
300.11024
300.09923
299.85558
299.8657
299.87975
299.89414
299.907
299.91755
299.92564
299.93142
299.9351
299.93689
299.93689
299.9351
299.93142
299.92564
299.91755
299.907
299.89414
299.87975
299.8657
299.85558
299.63786
299.64709
299.66007
299.67353
299.68572
299.69584
299.7037
299.70936
299.713
299.71477
299.71477
299.713
299.70936
299.7037
299.69584
299.68572
299.67353
299.66007
299.64709
299.63786
299.44359
299.45197
299.46385
299.4763
299.48769
299.49725
299.50474
299.51019
299.51372
299.51544
299.51544
299.51372
299.51019
299.50474
299.49725
299.48769
299.4763
299.46385
299.45197
299.44359
299.27047
299.27805
299.28885
299.30026
299.31079
299.31971
299.32675
299.33191
299.33527
299.33692
299.33692
299.33527
299.33191
299.32675
299.31971
299.31079
299.30026
299.28885
299.27805
299.27047
299.11642
299.12324
299.13302
299.14341
299.15305
299.16128
299.16782
299.17264
299.17579
299.17735
299.17735
299.17579
299.17264
299.16782
299.16128
299.15305
299.14341
299.13302
299.12324
299.11642
298.97955
298.98566
298.99447
299.00387
299.01264
299.02016
299.02618
299.03063
299.03356
299.03501
299.03501
299.03356
299.03063
299.02618
299.02016
299.01264
299.00387
298.99447
298.98566
298.97955
298.85813
298.8636
298.8715
298.87996
298.88789
298.89472
298.90021
298.90428
298.90697
298.9083
298.9083
298.90697
298.90428
298.90021
298.89472
298.88789
298.87996
298.8715
298.8636
298.85813
298.75064
298.75551
298.76257
298.77015
298.77728
298.78344
298.78841
298.79211
298.79456
298.79577
298.79577
298.79456
298.79211
298.78841
298.78344
298.77728
298.77015
298.76257
298.75551
298.75064
298.65567
298.66
298.66628
298.67304
298.67942
298.68495
298.68942
298.69276
298.69497
298.69607
298.69607
298.69497
298.69276
298.68942
298.68495
298.67942
298.67304
298.66628
298.66
298.65567
298.57196
298.57579
298.58136
298.58737
298.59305
298.59799
298.60198
298.60498
298.60696
298.60795
298.60795
298.60696
298.60498
298.60198
298.59799
298.59305
298.58737
298.58136
298.57579
298.57196
298.49837
298.50176
298.50668
298.512
298.51703
298.52142
298.52498
298.52765
298.52942
298.5303
298.5303
298.52942
298.52765
298.52498
298.52142
298.51703
298.512
298.50668
298.50176
298.49837
298.43389
298.43687
298.4412
298.44589
298.45034
298.45421
298.45737
298.45973
298.46131
298.46209
298.46209
298.46131
298.45973
298.45737
298.45421
298.45034
298.44589
298.4412
298.43687
298.43389
298.3776
298.38021
298.38401
298.38813
298.39203
298.39545
298.39823
298.40032
298.40171
298.4024
298.4024
298.40171
298.40032
298.39823
298.39545
298.39203
298.38813
298.38401
298.38021
298.3776
298.32869
298.33096
298.33428
298.33788
298.3413
298.34429
298.34672
298.34856
298.34978
298.35039
298.35039
298.34978
298.34856
298.34672
298.34429
298.3413
298.33788
298.33428
298.33096
298.32869
298.28644
298.28841
298.29129
298.29441
298.29739
298.3
298.30213
298.30373
298.3048
298.30534
298.30534
298.3048
298.30373
298.30213
298.3
298.29739
298.29441
298.29129
298.28841
298.28644
298.25022
298.25192
298.2544
298.2571
298.25968
298.26194
298.26379
298.26519
298.26612
298.26659
298.26659
298.26612
298.26519
298.26379
298.26194
298.25968
298.2571
298.2544
298.25192
298.25022
298.21949
298.22094
298.22307
298.22539
298.22761
298.22956
298.23116
298.23237
298.23318
298.23358
298.23358
298.23318
298.23237
298.23116
298.22956
298.22761
298.22539
298.22307
298.22094
298.21949
298.19382
298.19504
298.19685
298.19883
298.20073
298.2024
298.20378
298.20482
298.20552
298.20587
298.20587
298.20552
298.20482
298.20378
298.2024
298.20073
298.19883
298.19685
298.19504
298.19382
298.17283
298.17385
298.17537
298.17704
298.17865
298.18008
298.18127
298.18217
298.18277
298.18307
298.18307
298.18277
298.18217
298.18127
298.18008
298.17865
298.17704
298.17537
298.17385
298.17283
298.15624
298.15709
298.15835
298.15976
298.16112
298.16234
298.16336
298.16414
298.16466
298.16493
298.16493
298.16466
298.16414
298.16336
298.16234
298.16112
298.15975
298.15835
298.15709
298.15624
298.14388
298.14457
298.14561
298.14679
298.14795
298.149
298.14989
298.15057
298.15103
298.15126
298.15126
298.15103
298.15057
298.14989
298.149
298.14795
298.14679
298.14561
298.14457
298.14388
298.13564
298.13619
298.13706
298.13807
298.13908
298.14
298.14079
298.1414
298.14181
298.14202
298.14202
298.14181
298.1414
298.14079
298.14
298.13908
298.13807
298.13706
298.13619
298.13564
298.13149
298.13196
298.13272
298.13363
298.13455
298.1354
298.13613
298.1367
298.1371
298.13729
298.13729
298.1371
298.1367
298.13613
298.1354
298.13455
298.13363
298.13272
298.13196
298.13149
)
;

boundaryField
{
    Wall
    {
        type            zeroGradient;
    }
    frontAndBack
    {
        type            empty;
    }
    atmosphere
    {
        type            zeroGradient;
    }
}


// ************************************************************************* //
