/*--------------------------------*- C++ -*----------------------------------*\
| =========                 |                                                 |
| \\      /  F ield         | OpenFOAM: The Open Source CFD Toolbox           |
|  \\    /   O peration     | Version:  3.0.1                                 |
|   \\  /    A nd           | Web:      www.OpenFOAM.org                      |
|    \\/     M anipulation  |                                                 |
\*---------------------------------------------------------------------------*/
FoamFile
{
    version     2.0;
    format      ascii;
    class       volVectorField;
    location    "16";
    object      U;
}
// * * * * * * * * * * * * * * * * * * * * * * * * * * * * * * * * * * * * * //

dimensions      [0 1 -1 0 0 0 0];

internalField   nonuniform List<vector> 
800
(
(4.0702234e-06 0.00034996352 0)
(4.6656018e-06 0.00035266166 0)
(4.1020677e-06 0.0003531179 0)
(3.4337497e-06 0.00035311445 0)
(2.853998e-06 0.00035300751 0)
(2.3883153e-06 0.00035298962 0)
(1.9169204e-06 0.00035301881 0)
(1.4091487e-06 0.00035306024 0)
(8.6344247e-07 0.000353095 0)
(2.9091457e-07 0.00035311433 0)
(-2.9112899e-07 0.00035311433 0)
(-8.6362076e-07 0.000353095 0)
(-1.4092618e-06 0.00035306023 0)
(-1.9169761e-06 0.00035301879 0)
(-2.3883473e-06 0.0003529896 0)
(-2.8540665e-06 0.00035300748 0)
(-3.4339137e-06 0.00035311444 0)
(-4.1023721e-06 0.00035311789 0)
(-4.6660406e-06 0.00035266166 0)
(-4.0705084e-06 0.00034996349 0)
(1.9887472e-06 0.00064328553 0)
(2.2403477e-06 0.00064820563 0)
(2.6352285e-06 0.00064927875 0)
(2.6731108e-06 0.00064939218 0)
(2.4136194e-06 0.00064927682 0)
(2.1306487e-06 0.00064924945 0)
(1.7478968e-06 0.00064928173 0)
(1.2989752e-06 0.00064933411 0)
(8.0075675e-07 0.00064937984 0)
(2.7054333e-07 0.00064940548 0)
(-2.7082733e-07 0.00064940548 0)
(-8.0100413e-07 0.00064937983 0)
(-1.2991605e-06 0.00064933408 0)
(-1.7480269e-06 0.00064928168 0)
(-2.1307565e-06 0.00064924938 0)
(-2.4137556e-06 0.00064927675 0)
(-2.673328e-06 0.00064939211 0)
(-2.6355348e-06 0.0006492787 0)
(-2.2407262e-06 0.00064820562 0)
(-1.9889786e-06 0.00064328552 0)
(1.7169989e-06 0.0012024474 0)
(1.8357054e-06 0.0012093479 0)
(2.0325728e-06 0.0012107795 0)
(2.2517604e-06 0.0012109781 0)
(2.1298353e-06 0.0012109196 0)
(1.9771432e-06 0.0012109675 0)
(1.6691142e-06 0.0012110705 0)
(1.2594199e-06 0.0012111846 0)
(7.8177774e-07 0.0012112729 0)
(2.6478996e-07 0.00121132 0)
(-2.6507596e-07 0.00121132 0)
(-7.8202995e-07 0.0012112729 0)
(-1.2596182e-06 0.0012111845 0)
(-1.6692617e-06 0.0012110705 0)
(-1.9772645e-06 0.0012109674 0)
(-2.1299724e-06 0.0012109195 0)
(-2.2519515e-06 0.001210978 0)
(-2.0327993e-06 0.0012107795 0)
(-1.8359369e-06 0.0012093479 0)
(-1.7171305e-06 0.0012024475 0)
(-4.301715e-07 0.0017561669 0)
(-6.2614049e-07 0.0017653596 0)
(1.024346e-06 0.0017667676 0)
(1.9502812e-06 0.0017671071 0)
(2.0712808e-06 0.0017672046 0)
(2.0460572e-06 0.0017674026 0)
(1.7617989e-06 0.0017676288 0)
(1.3402029e-06 0.0017678276 0)
(8.33066e-07 0.0017679659 0)
(2.8216365e-07 0.0017680365 0)
(-2.8240904e-07 0.0017680365 0)
(-8.3328404e-07 0.0017679658 0)
(-1.3403751e-06 0.0017678276 0)
(-1.7619254e-06 0.0017676288 0)
(-2.0461471e-06 0.0017674025 0)
(-2.0713687e-06 0.0017672046 0)
(-1.9503977e-06 0.0017671071 0)
(-1.0244662e-06 0.0017667676 0)
(6.2606702e-07 0.0017653597 0)
(4.3014542e-07 0.001756167 0)
(-1.2264617e-06 0.0022532031 0)
(-1.5446196e-06 0.0022658825 0)
(7.3992521e-07 0.0022679331 0)
(2.3890406e-06 0.0022688859 0)
(2.5798138e-06 0.0022694434 0)
(2.5266563e-06 0.0022699623 0)
(2.1500249e-06 0.0022703795 0)
(1.6126077e-06 0.0022706793 0)
(9.9195395e-07 0.0022708658 0)
(3.3444147e-07 0.0022709571 0)
(-3.346316e-07 0.0022709571 0)
(-9.9211947e-07 0.0022708658 0)
(-1.6127315e-06 0.0022706792 0)
(-2.1501002e-06 0.0022703795 0)
(-2.5266917e-06 0.0022699622 0)
(-2.5798457e-06 0.0022694434 0)
(-2.3890765e-06 0.0022688859 0)
(-7.3994315e-07 0.0022679331 0)
(1.5446385e-06 0.0022658826 0)
(1.2264772e-06 0.0022532032 0)
(-9.2243996e-07 0.0026767511 0)
(-5.9689988e-07 0.0026922034 0)
(2.4355824e-06 0.0026973308 0)
(4.3267316e-06 0.0026993972 0)
(4.1754818e-06 0.0027007101 0)
(3.7651345e-06 0.0027016188 0)
(3.0260559e-06 0.0027021846 0)
(2.1880698e-06 0.0027025268 0)
(1.3198538e-06 0.0027027138 0)
(4.4163723e-07 0.0027027975 0)
(-4.4180862e-07 0.0027027975 0)
(-1.3199951e-06 0.0027027138 0)
(-2.1881662e-06 0.0027025267 0)
(-3.026096e-06 0.0027021846 0)
(-3.7651281e-06 0.0027016188 0)
(-4.1755009e-06 0.0027007101 0)
(-4.3267368e-06 0.0026993972 0)
(-2.4355455e-06 0.0026973308 0)
(5.9690566e-07 0.0026922035 0)
(9.2242101e-07 0.0026767511 0)
(2.9011244e-06 0.0030060551 0)
(7.9497176e-06 0.0030258563 0)
(1.0368735e-05 0.0030321354 0)
(9.4493093e-06 0.003035032 0)
(7.6618008e-06 0.0030369899 0)
(6.161731e-06 0.0030380895 0)
(4.614875e-06 0.0030386593 0)
(3.1989912e-06 0.0030389717 0)
(1.8832377e-06 0.0030391186 0)
(6.2250345e-07 0.0030391773 0)
(-6.22719e-07 0.0030391773 0)
(-1.8834147e-06 0.0030391186 0)
(-3.1991151e-06 0.0030389716 0)
(-4.6149365e-06 0.0030386593 0)
(-6.1617252e-06 0.0030380895 0)
(-7.6618474e-06 0.00303699 0)
(-9.4493299e-06 0.0030350321 0)
(-1.0368684e-05 0.0030321355 0)
(-7.949728e-06 0.0030258565 0)
(-2.9011478e-06 0.0030060551 0)
(5.6733567e-05 0.0032964062 0)
(7.8303285e-05 0.0033544984 0)
(4.9031259e-05 0.0033596976 0)
(3.3036102e-05 0.0033616543 0)
(2.2370201e-05 0.0033638747 0)
(1.5599e-05 0.0033647899 0)
(1.0742087e-05 0.0033651429 0)
(7.055434e-06 0.0033653196 0)
(4.0156129e-06 0.0033653778 0)
(1.3037085e-06 0.003365409 0)
(-1.3039791e-06 0.003365409 0)
(-4.015817e-06 0.0033653778 0)
(-7.0555391e-06 0.0033653197 0)
(-1.0742089e-05 0.003365143 0)
(-1.5598891e-05 0.0033647901 0)
(-2.2370147e-05 0.0033638751 0)
(-3.3036037e-05 0.0033616547 0)
(-4.9031077e-05 0.0033596981 0)
(-7.8303099e-05 0.003354499 0)
(-5.6733435e-05 0.0032964066 0)
(0.00029359059 0.003032476 0)
(0.00045152607 0.0033901639 0)
(0.00034669463 0.0034057045 0)
(0.0002452386 0.0033893536 0)
(0.0001701562 0.0033792948 0)
(0.00011760171 0.003373143 0)
(7.9948426e-05 0.0033696865 0)
(5.1727724e-05 0.0033678389 0)
(2.9087414e-05 0.0033669136 0)
(9.4131111e-06 0.0033665671 0)
(-9.4138081e-06 0.003366567 0)
(-2.9088038e-05 0.0033669136 0)
(-5.1728069e-05 0.0033678389 0)
(-7.9948383e-05 0.0033696866 0)
(-0.00011760136 0.0033731434 0)
(-0.0001701556 0.0033792954 0)
(-0.00024523757 0.0033893541 0)
(-0.0003466933 0.003405705 0)
(-0.00045152455 0.0033901645 0)
(-0.00029358965 0.003032477 0)
(0.00036399148 0.0023226275 0)
(0.00072189929 0.0032329255 0)
(0.00071625901 0.0033941065 0)
(0.00060014976 0.0033872143 0)
(0.00046627794 0.0033522619 0)
(0.0003462425 0.0033203982 0)
(0.00024627148 0.0032971885 0)
(0.00016371184 0.0032819506 0)
(9.3488748e-05 0.0032729556 0)
(3.0515271e-05 0.0032687623 0)
(-3.0517422e-05 0.0032687621 0)
(-9.3490732e-05 0.0032729548 0)
(-0.00016371341 0.0032819497 0)
(-0.00024627249 0.0032971876 0)
(-0.00034624275 0.0033203979 0)
(-0.00046627779 0.003352262 0)
(-0.00060014922 0.0033872145 0)
(-0.00071625835 0.0033941064 0)
(-0.00072189893 0.0032329256 0)
(-0.00036399139 0.0023226271 0)
(0.00024204382 0.0018114763 0)
(0.00058516861 0.0030188359 0)
(0.00069243943 0.003394878 0)
(0.00065409485 0.0034795516 0)
(0.00055245554 0.003467246 0)
(0.00043498153 0.0034293473 0)
(0.00032213006 0.0033916214 0)
(0.00021990134 0.0033624265 0)
(0.0001276017 0.0033434482 0)
(4.2003863e-05 0.003334171 0)
(-4.2006878e-05 0.0033341706 0)
(-0.00012760444 0.0033434464 0)
(-0.00021990374 0.0033624248 0)
(-0.0003221317 0.0033916195 0)
(-0.00043498257 0.0034293462 0)
(-0.00055245625 0.0034672454 0)
(-0.0006540951 0.0034795512 0)
(-0.00069243937 0.0033948769 0)
(-0.00058516878 0.003018835 0)
(-0.00024204403 0.0018114752 0)
(0.0001367147 0.0014759037 0)
(0.00039888043 0.0027964897 0)
(0.00054702035 0.0033425363 0)
(0.00056877358 0.0035334744 0)
(0.00051469768 0.0035706979 0)
(0.00042651075 0.0035482027 0)
(0.00032782905 0.0035094575 0)
(0.00022964196 0.0034737428 0)
(0.00013543314 0.0034484679 0)
(4.4947801e-05 0.0034356469 0)
(-4.494984e-05 0.0034356464 0)
(-0.00013543482 0.0034484656 0)
(-0.00022964318 0.0034737402 0)
(-0.00032783034 0.0035094545 0)
(-0.00042651157 0.0035482006 0)
(-0.00051469783 0.0035706964 0)
(-0.00056877356 0.0035334732 0)
(-0.00054702018 0.003342535 0)
(-0.00039888046 0.0027964883 0)
(-0.00013671489 0.0014759023 0)
(7.2235253e-05 0.0012723268 0)
(0.00025092344 0.0026000879 0)
(0.00039233823 0.0032505543 0)
(0.00044253495 0.0035313868 0)
(0.00042493712 0.0036241797 0)
(0.00036841394 0.0036290869 0)
(0.00029295855 0.0036003727 0)
(0.00021026563 0.0035661575 0)
(0.00012596283 0.0035394962 0)
(4.2119683e-05 0.0035254149 0)
(-4.2119454e-05 0.0035254142 0)
(-0.00012596288 0.0035394937 0)
(-0.0002102658 0.0035661539 0)
(-0.00029295858 0.0036003692 0)
(-0.00036841352 0.0036290839 0)
(-0.00042493667 0.0036241775 0)
(-0.00044253426 0.003531385 0)
(-0.00039233757 0.003250553 0)
(-0.00025092354 0.0026000867 0)
(-7.223542e-05 0.0012723256 0)
(3.730812e-05 0.0011546609 0)
(0.00015167021 0.0024536846 0)
(0.00026616508 0.0031590857 0)
(0.00032221093 0.0035047576 0)
(0.00032593331 0.0036464543 0)
(0.00029419743 0.0036812793 0)
(0.00024127493 0.0036681726 0)
(0.00017710952 0.0036408747 0)
(0.000107667 0.0036167244 0)
(3.624424e-05 0.0036033471 0)
(-3.6241412e-05 0.0036033461 0)
(-0.00010766456 0.0036167215 0)
(-0.00017710772 0.0036408707 0)
(-0.00024127302 0.0036681689 0)
(-0.00029419531 0.003681276 0)
(-0.00032593159 0.0036464515 0)
(-0.00032220909 0.0035047557 0)
(-0.0002661634 0.0031590846 0)
(-0.00015167001 0.0024536839 0)
(-3.7308481e-05 0.0011546601 0)
(1.9522746e-05 0.0010871839 0)
(9.0558484e-05 0.0023531834 0)
(0.00017487342 0.0030842122 0)
(0.0002249318 0.0034723858 0)
(0.00023817658 0.003651872 0)
(0.00022285382 0.003713532 0)
(0.00018794322 0.0037171251 0)
(0.00014083299 0.0036992256 0)
(8.6780257e-05 0.003679843 0)
(2.9389089e-05 0.0036684249 0)
(-2.9384588e-05 0.0036684239 0)
(-8.6775965e-05 0.0036798399 0)
(-0.00014082919 0.0036992216 0)
(-0.00018793943 0.003717121 0)
(-0.00022285025 0.0037135283 0)
(-0.00023817351 0.0036518693 0)
(-0.0002249292 0.0034723843 0)
(-0.00017487157 0.0030842118 0)
(-9.0557746e-05 0.0023531833 0)
(-1.9522668e-05 0.0010871838 0)
(1.055981e-05 0.0010480149 0)
(5.4292914e-05 0.0022865565 0)
(0.00011298363 0.0030278642 0)
(0.00015290278 0.0034421755 0)
(0.00016847403 0.0036486182 0)
(0.00016274464 0.0037318679 0)
(0.00014074329 0.0037506318 0)
(0.00010745514 0.00374244 0)
(6.7036227e-05 0.0037286401 0)
(2.2826016e-05 0.0037197395 0)
(-2.2820186e-05 0.0037197387 0)
(-6.7030869e-05 0.0037286371 0)
(-0.00010745037 0.0037424361 0)
(-0.00014073867 0.0037506275 0)
(-0.00016274021 0.0037318642 0)
(-0.00016847035 0.0036486158 0)
(-0.00015289963 0.0034421748 0)
(-0.00011298115 0.0030278647 0)
(-5.4291838e-05 0.0022865572 0)
(-1.0559684e-05 0.0010480152 0)
(5.9273828e-06 0.0010248593 0)
(3.2917759e-05 0.0022431884 0)
(7.2483051e-05 0.0029875546 0)
(0.00010227932 0.0034172574 0)
(0.0001166113 0.0036419575 0)
(0.00011585021 0.0037414305 0)
(0.00010245793 0.0037727332 0)
(7.954923e-05 0.0037733068 0)
(5.0183199e-05 0.0037649372 0)
(1.7171272e-05 0.0037586071 0)
(-1.7165262e-05 0.0037586064 0)
(-5.017761e-05 0.0037649344 0)
(-7.9543899e-05 0.0037733033 0)
(-0.00010245268 0.0037727293 0)
(-0.00011584534 0.0037414269 0)
(-0.00011660714 0.0036419553 0)
(-0.00010227577 0.0034172573 0)
(-7.248052e-05 0.0029875558 0)
(-3.2916624e-05 0.00224319 0)
(-5.9270675e-06 0.0010248599 0)
(3.4352212e-06 0.0010109097 0)
(2.0216405e-05 0.0022152115 0)
(4.644325e-05 0.0029596402 0)
(6.7801779e-05 0.0033981677 0)
(7.9579666e-05 0.0036348397 0)
(8.1013691e-05 0.0037459732 0)
(7.3076582e-05 0.003787028 0)
(5.7588824e-05 0.0037948957 0)
(3.6691979e-05 0.0037912886 0)
(1.2610013e-05 0.003787288 0)
(-1.2604511e-05 0.0037872873 0)
(-3.6686582e-05 0.0037912863 0)
(-5.7583485e-05 0.0037948924 0)
(-7.3071773e-05 0.0037870246 0)
(-8.1009113e-05 0.0037459702 0)
(-7.957555e-05 0.0036348379 0)
(-6.7798333e-05 0.0033981679 0)
(-4.6440345e-05 0.0029596421 0)
(-2.0215093e-05 0.0022152137 0)
(-3.4351205e-06 0.0010109102 0)
(2.0381108e-06 0.0010023643 0)
(1.2560621e-05 0.0021971996 0)
(2.981215e-05 0.0029406668 0)
(4.474496e-05 0.0033841789 0)
(5.3820573e-05 0.0036285571 0)
(5.5955766e-05 0.003747833 0)
(5.1349657e-05 0.0037961676 0)
(4.0998201e-05 0.0038097829 0)
(2.635081e-05 0.0038100831 0)
(9.0916124e-06 0.0038080407 0)
(-9.0867724e-06 0.0038080401 0)
(-2.6346157e-05 0.0038100811 0)
(-4.0993921e-05 0.0038097799 0)
(-5.1345405e-05 0.0037961644 0)
(-5.595178e-05 0.0037478305 0)
(-5.3817071e-05 0.0036285559 0)
(-4.4741895e-05 0.0033841796 0)
(-2.9810093e-05 0.0029406696 0)
(-1.2559725e-05 0.0021972023 0)
(-2.0378768e-06 0.0010023647 0)
(1.2257238e-06 0.00099706289 0)
(7.8730666e-06 0.0021855851 0)
(1.9190841e-05 0.002927898 0)
(2.947204e-05 0.0033742029 0)
(3.6192158e-05 0.0036234951 0)
(3.8313187e-05 0.0037483524 0)
(3.56861e-05 0.0038019679 0)
(2.8817254e-05 0.0038199428 0)
(1.8663298e-05 0.003823303 0)
(6.461254e-06 0.0038228238 0)
(-6.4577952e-06 0.0038228233 0)
(-1.8659706e-05 0.0038233011 0)
(-2.8813888e-05 0.0038199404 0)
(-3.5682608e-05 0.0038019653 0)
(-3.8309793e-05 0.0037483502 0)
(-3.6189333e-05 0.0036234945 0)
(-2.9469637e-05 0.0033742043 0)
(-1.9189211e-05 0.0029279014 0)
(-7.8725175e-06 0.0021855881 0)
(-1.2256997e-06 0.00099706334 0)
(7.4047148e-07 0.00099374752 0)
(4.9621841e-06 0.002178077 0)
(1.2385406e-05 0.0029193498 0)
(1.9397544e-05 0.0033672112 0)
(2.4245617e-05 0.0036196253 0)
(2.60669e-05 0.0037482641 0)
(2.4592622e-05 0.0038056348 0)
(2.005478e-05 0.0038268258 0)
(1.3074467e-05 0.0038325026 0)
(4.5401218e-06 0.0038332256 0)
(-4.5375985e-06 0.0038332253 0)
(-1.3071782e-05 0.003832501 0)
(-2.005217e-05 0.0038268242 0)
(-2.4590158e-05 0.0038056328 0)
(-2.6064586e-05 0.0037482627 0)
(-2.4243312e-05 0.0036196255 0)
(-1.9395542e-05 0.0033672133 0)
(-1.2383996e-05 0.0029193539 0)
(-4.9615867e-06 0.0021780803 0)
(-7.4047774e-07 0.00099374797 0)
(4.4552624e-07 0.0009916662 0)
(3.1342509e-06 0.0021732129 0)
(8.0053886e-06 0.0029136442 0)
(1.2759395e-05 0.0033623673 0)
(1.6196175e-05 0.0036167643 0)
(1.76478e-05 0.0037479469 0)
(1.6835107e-05 0.0038079498 0)
(1.3845371e-05 0.0038314647 0)
(9.0778367e-06 0.0038388514 0)
(3.1605914e-06 0.0038404731 0)
(-3.159026e-06 0.0038404729 0)
(-9.0762347e-06 0.0038388501 0)
(-1.3843635e-05 0.0038314634 0)
(-1.6833577e-05 0.0038079483 0)
(-1.7646528e-05 0.003747946 0)
(-1.6194926e-05 0.0036167653 0)
(-1.2758275e-05 0.0033623701 0)
(-8.0045297e-06 0.0029136486 0)
(-3.1341164e-06 0.0021732169 0)
(-4.457102e-07 0.00099166708 0)
(2.6500306e-07 0.00099035971 0)
(1.9781307e-06 0.0021700583 0)
(5.1752914e-06 0.0029098426 0)
(8.3853029e-06 0.0033590381 0)
(1.0792111e-05 0.0036146962 0)
(1.1898605e-05 0.003747582 0)
(1.1460886e-05 0.0038094105 0)
(9.4952626e-06 0.0038345788 0)
(6.2563795e-06 0.0038432032 0)
(2.1831789e-06 0.0038454827 0)
(-2.1824658e-06 0.0038454826 0)
(-6.2558431e-06 0.0038432024 0)
(-9.4944876e-06 0.0038345775 0)
(-1.1460114e-05 0.0038094094 0)
(-1.1898053e-05 0.0037475817 0)
(-1.0791204e-05 0.0036146976 0)
(-8.3843809e-06 0.0033590414 0)
(-5.174568e-06 0.0029098472 0)
(-1.9780323e-06 0.0021700626 0)
(-2.6521982e-07 0.00099036135 0)
(1.5419852e-07 0.00098954274 0)
(1.2432633e-06 0.0021680128 0)
(3.3410311e-06 0.0029073136 0)
(5.5018014e-06 0.0033567631 0)
(7.1723589e-06 0.003613224 0)
(7.992143e-06 0.0037472465 0)
(7.7643485e-06 0.0038103314 0)
(6.4745967e-06 0.0038366617 0)
(4.2847541e-06 0.0038461691 0)
(1.498229e-06 0.0038489221 0)
(-1.4979712e-06 0.0038489219 0)
(-4.2845911e-06 0.0038461686 0)
(-6.474437e-06 0.0038366607 0)
(-7.7641634e-06 0.0038103304 0)
(-7.991911e-06 0.0037472467 0)
(-7.1718838e-06 0.0036132257 0)
(-5.5011729e-06 0.0033567667 0)
(-3.3404411e-06 0.0029073184 0)
(-1.2435776e-06 0.0021680171 0)
(-1.5472177e-07 0.00098954483 0)
(8.6995514e-08 0.0009890358 0)
(7.7622637e-07 0.0021666885 0)
(2.1503333e-06 0.0029056341 0)
(3.6007066e-06 0.0033552156 0)
(4.752525e-06 0.003612188 0)
(5.3482709e-06 0.0037469674 0)
(5.2365095e-06 0.0038109109 0)
(4.3919594e-06 0.0038380502 0)
(2.9175088e-06 0.0038481802 0)
(1.0217446e-06 0.0038512692 0)
(-1.0223542e-06 0.0038512689 0)
(-2.9181755e-06 0.0038481796 0)
(-4.3924761e-06 0.0038380495 0)
(-5.2368579e-06 0.00381091 0)
(-5.3485823e-06 0.0037469674 0)
(-4.7525024e-06 0.0036121894 0)
(-3.6004995e-06 0.0033552192 0)
(-2.1498487e-06 0.0029056394 0)
(-7.7611835e-07 0.0021666933 0)
(-8.7251466e-08 0.00098903805 0)
(4.6328303e-08 0.00098872473 0)
(4.7933248e-07 0.0021658339 0)
(1.3774476e-06 0.0029045217 0)
(2.3485707e-06 0.0033541675 0)
(3.1385087e-06 0.0036114651 0)
(3.5652562e-06 0.0037467478 0)
(3.5162222e-06 0.0038112748 0)
(2.9649061e-06 0.0038389731 0)
(1.9762098e-06 0.0038495377 0)
(6.9302637e-07 0.0038528629 0)
(-6.9407779e-07 0.0038528624 0)
(-1.9775483e-06 0.0038495369 0)
(-2.965993e-06 0.0038389723 0)
(-3.5170461e-06 0.0038112737 0)
(-3.5659496e-06 0.0037467471 0)
(-3.1386984e-06 0.003611466 0)
(-2.3483596e-06 0.0033541705 0)
(-1.3772382e-06 0.0029045269 0)
(-4.7954719e-07 0.0021658394 0)
(-4.662525e-08 0.00098872741 0)
(2.2461387e-08 0.00098853702 0)
(2.9176188e-07 0.0021652854 0)
(8.7680405e-07 0.0029037873 0)
(1.5249472e-06 0.0033534602 0)
(2.0641297e-06 0.0036109644 0)
(2.366755e-06 0.0037465804 0)
(2.3506023e-06 0.0038115026 0)
(1.9922595e-06 0.0038395848 0)
(1.332153e-06 0.0038504503 0)
(4.674909e-07 0.0038539396 0)
(-4.6940704e-07 0.0038539392 0)
(-1.3337846e-06 0.0038504493 0)
(-1.9935167e-06 0.0038395833 0)
(-2.3520714e-06 0.003811501 0)
(-2.3680025e-06 0.0037465791 0)
(-2.0645632e-06 0.0036109647 0)
(-1.5248417e-06 0.0033534625 0)
(-8.7647083e-07 0.0029037921 0)
(-2.9182711e-07 0.002165291 0)
(-2.2692596e-08 0.00098853995 0)
(8.8795063e-09 0.00098842671 0)
(1.7422393e-07 0.0021649359 0)
(5.5337196e-07 0.0029033041 0)
(9.8444981e-07 0.0033529845 0)
(1.3512148e-06 0.0036106194 0)
(1.5645446e-06 0.0037464554 0)
(1.5646047e-06 0.0038116443 0)
(1.3324322e-06 0.0038399888 0)
(8.9368207e-07 0.003851061 0)
(3.1370205e-07 0.0038546638 0)
(-3.1606913e-07 0.0038546635 0)
(-8.9577902e-07 0.0038510599 0)
(-1.3344225e-06 0.0038399867 0)
(-1.5664472e-06 0.0038116423 0)
(-1.5660241e-06 0.0037464536 0)
(-1.3522912e-06 0.0036106189 0)
(-9.8507458e-07 0.003352986 0)
(-5.5352586e-07 0.0029033086 0)
(-1.7418503e-07 0.0021649413 0)
(-8.8778621e-09 0.00098842964 0)
(1.2774961e-09 0.00098836429 0)
(1.0090579e-07 0.0021647155 0)
(3.4550425e-07 0.0029029878 0)
(6.3148661e-07 0.0033526658 0)
(8.8026005e-07 0.0036103831 0)
(1.0296272e-06 0.0037463641 0)
(1.0367773e-06 0.0038117318 0)
(8.8690035e-07 0.0038402544 0)
(5.9654174e-07 0.0038514685 0)
(2.0919996e-07 0.0038551494 0)
(-2.1263365e-07 0.0038551489 0)
(-5.9961441e-07 0.0038514668 0)
(-8.8980026e-07 0.0038402518 0)
(-1.0394984e-06 0.0038117295 0)
(-1.0319089e-06 0.0037463616 0)
(-8.8182863e-07 0.0036103818 0)
(-6.3254795e-07 0.0033526665 0)
(-3.4609107e-07 0.0029029916 0)
(-1.0097474e-07 0.0021647203 0)
(-1.1385007e-09 0.00098836693 0)
(-2.6320211e-09 0.0009883307 0)
(5.5956969e-08 0.0021645779 0)
(2.1317802e-07 0.002902782 0)
(4.0252284e-07 0.0033524534 0)
(5.7046699e-07 0.0036102219 0)
(6.7433131e-07 0.0037462983 0)
(6.8397829e-07 0.0038117859 0)
(5.8792036e-07 0.0038404287 0)
(3.9626144e-07 0.0038517393 0)
(1.3846066e-07 0.0038554736 0)
(-1.4282856e-07 0.003855473 0)
(-4.0053979e-07 0.0038517374 0)
(-5.9195223e-07 0.0038404258 0)
(-6.8786747e-07 0.0038117829 0)
(-6.7785136e-07 0.0037462952 0)
(-5.7304646e-07 0.0036102198 0)
(-4.0415022e-07 0.0033524531 0)
(-2.1437207e-07 0.0029027847 0)
(-5.6432451e-08 0.002164582 0)
(2.8424608e-09 0.00098833279 0)
(-3.9290842e-09 0.00098831437 0)
(2.9699456e-08 0.002164493 0)
(1.2994139e-07 0.0029026487 0)
(2.5480242e-07 0.0033523121 0)
(3.6819864e-07 0.0036101122 0)
(4.4056938e-07 0.0037462511 0)
(4.5016811e-07 0.0038118187 0)
(3.884101e-07 0.0038405427 0)
(2.6197353e-07 0.0038519189 0)
(9.0940418e-08 0.0038556896 0)
(-9.6250561e-08 0.003855689 0)
(-2.675895e-07 0.0038519169 0)
(-3.9389655e-07 0.0038405398 0)
(-4.5516962e-07 0.0038118156 0)
(-4.4504725e-07 0.0037462475 0)
(-3.7197541e-07 0.0036101093 0)
(-2.5756068e-07 0.0033523109 0)
(-1.3171773e-07 0.0029026504 0)
(-3.0177908e-08 0.0021644964 0)
(4.0945288e-09 0.00098831592 0)
(-4.2274353e-09 0.00098830788 0)
(1.4724e-08 0.0021644413 0)
(7.8690301e-08 0.0029025624 0)
(1.6122936e-07 0.0033522184 0)
(2.3805473e-07 0.003610038 0)
(2.8795995e-07 0.0037462175 0)
(2.961291e-07 0.0038118385 0)
(2.5629864e-07 0.0038406173 0)
(1.7257373e-07 0.0038520382 0)
(5.8852592e-08 0.0038558338 0)
(-6.5862698e-08 0.003855833 0)
(-1.7983857e-07 0.0038520363 0)
(-2.6281089e-07 0.0038406145 0)
(-3.019863e-07 0.0038118355 0)
(-2.9348623e-07 0.0037462138 0)
(-2.4299609e-07 0.0036100344 0)
(-1.6530804e-07 0.003352216 0)
(-8.1254805e-08 0.002902563 0)
(-1.5337206e-08 0.0021644438 0)
(4.441581e-09 0.00098830897 0)
(-3.6551005e-09 0.0009883063 0)
(6.9672714e-09 0.00216441 0)
(4.8492813e-08 0.0029025065 0)
(1.0360894e-07 0.0033521558 0)
(1.5573958e-07 0.0036099878 0)
(1.9010104e-07 0.0037461941 0)
(1.9612899e-07 0.0038118511 0)
(1.699494e-07 0.0038406669 0)
(1.1407768e-07 0.0038521179 0)
(3.7836943e-08 0.0038559302 0)
(-4.5866055e-08 0.0038559295 0)
(-1.2231442e-07 0.0038521161 0)
(-1.7798604e-07 0.0038406639 0)
(-2.0375565e-07 0.0038118476 0)
(-1.9714377e-07 0.0037461899 0)
(-1.6215516e-07 0.0036099833 0)
(-1.0875659e-07 0.0033521526 0)
(-5.1676922e-08 0.0029025056 0)
(-7.9098485e-09 0.002164411 0)
(3.810675e-09 0.00098830697 0)
(-2.6874728e-09 0.00098830642 0)
(4.1120026e-09 0.00216439 0)
(3.2304871e-08 0.0029024692 0)
(7.0393411e-08 0.0033521135 0)
(1.0604333e-07 0.0036099536 0)
(1.2927224e-07 0.0037461784 0)
(1.3329554e-07 0.0038118598 0)
(1.1508674e-07 0.0038407006 0)
(7.6666129e-08 0.0038521719 0)
(2.4218497e-08 0.0038559959 0)
(-3.3176814e-08 0.0038559952 0)
(-8.5482245e-08 0.0038521702 0)
(-1.2389877e-07 0.0038406975 0)
(-1.4181616e-07 0.003811856 0)
(-1.3724219e-07 0.0037461736 0)
(-1.1320752e-07 0.0036099485 0)
(-7.6351419e-08 0.0033521093 0)
(-3.6444639e-08 0.0029024665 0)
(-5.3003873e-09 0.0021643891 0)
(2.9454445e-09 0.0009883067 0)
(-1.4013757e-09 0.00098830629 0)
(4.9406733e-09 0.0021643753 0)
(2.6709372e-08 0.0029024426 0)
(5.429687e-08 0.0033520843 0)
(7.8866715e-08 0.0036099305 0)
(9.4001747e-08 0.0037461686 0)
(9.5357928e-08 0.0038118669 0)
(8.1117821e-08 0.0038407248 0)
(5.3198976e-08 0.0038522101 0)
(1.5531394e-08 0.0038560417 0)
(-2.5628698e-08 0.003856041 0)
(-6.3112358e-08 0.0038522082 0)
(-9.1064039e-08 0.0038407215 0)
(-1.0499847e-07 0.0038118628 0)
(-1.0339974e-07 0.003746163 0)
(-8.7354555e-08 0.0036099246 0)
(-6.1069195e-08 0.0033520785 0)
(-3.1341519e-08 0.0029024382 0)
(-6.3293754e-09 0.0021643727 0)
(1.6708774e-09 0.00098830581 0)
(2.0910498e-10 0.00098830483 0)
(9.3182763e-09 0.0021643623 0)
(2.9987267e-08 0.0029024222 0)
(5.1366622e-08 0.0033520633 0)
(6.835932e-08 0.0036099157 0)
(7.7071963e-08 0.0037461639 0)
(7.5026491e-08 0.0038118746 0)
(6.2071018e-08 0.0038407446 0)
(3.9502963e-08 0.0038522395 0)
(1.0155015e-08 0.0038560761 0)
(-2.143387e-08 0.0038560756 0)
(-5.0350252e-08 0.0038522372 0)
(-7.2728012e-08 0.0038407411 0)
(-8.5704841e-08 0.0038118702 0)
(-8.728995e-08 0.0037461578 0)
(-7.7612472e-08 0.0036099087 0)
(-5.8700871e-08 0.0033520563 0)
(-3.4497117e-08 0.0029024158 0)
(-1.0855854e-08 0.0021643578 0)
(-2.3242794e-10 0.0009883032 0)
(2.7352109e-09 0.00098830484 0)
(1.7036112e-08 0.0021643533 0)
(4.028521e-08 0.0029024101 0)
(5.9048556e-08 0.0033520541 0)
(7.0363344e-08 0.0036099132 0)
(7.3186342e-08 0.0037461703 0)
(6.7225302e-08 0.0038118902 0)
(5.2893121e-08 0.003840769 0)
(3.2244492e-08 0.0038522705 0)
(7.4140894e-09 0.0038561107 0)
(-1.9344872e-08 0.0038561101 0)
(-4.4302737e-08 0.0038522684 0)
(-6.4670613e-08 0.0038407658 0)
(-7.8719355e-08 0.0038118859 0)
(-8.4189271e-08 0.0037461639 0)
(-8.0145185e-08 0.0036099053 0)
(-6.6921607e-08 0.0033520453 0)
(-4.5597273e-08 0.0029024013 0)
(-1.916936e-08 0.0021643464 0)
(-2.9370221e-09 0.00098830231 0)
(7.7304629e-09 0.00098828225 0)
(3.1274535e-08 0.0021643213 0)
(5.960986e-08 0.0029023819 0)
(7.6160303e-08 0.0033520336 0)
(8.1987403e-08 0.0036099011 0)
(7.8784913e-08 0.0037461663 0)
(6.7706798e-08 0.0038118933 0)
(5.050758e-08 0.003840778 0)
(2.9236217e-08 0.0038522836 0)
(5.6735815e-09 0.0038561261 0)
(-1.8722042e-08 0.0038561253 0)
(-4.2325143e-08 0.0038522816 0)
(-6.3390837e-08 0.0038407747 0)
(-8.0050697e-08 0.0038118886 0)
(-9.0132241e-08 0.0037461592 0)
(-9.2036302e-08 0.0036098921 0)
(-8.423042e-08 0.0033520228 0)
(-6.494018e-08 0.0029023705 0)
(-3.3543885e-08 0.0021643118 0)
(-8.0597638e-09 0.00098827898 0)
(1.9228937e-08 0.00098825062 0)
(5.5046765e-08 0.0021642583 0)
(8.3773557e-08 0.0029023287 0)
(9.6097268e-08 0.0033519923 0)
(9.6310077e-08 0.0036098697 0)
(8.7431139e-08 0.0037461424 0)
(7.1423755e-08 0.0038118747 0)
(5.1023814e-08 0.0038407625 0)
(2.8634616e-08 0.0038522702 0)
(4.7854455e-09 0.0038561135 0)
(-1.9345668e-08 0.0038561126 0)
(-4.2822144e-08 0.0038522678 0)
(-6.5005638e-08 0.0038407589 0)
(-8.4586808e-08 0.0038118689 0)
(-9.9412171e-08 0.0037461339 0)
(-1.0703946e-07 0.0036098589 0)
(-1.0478648e-07 0.0033519793 0)
(-8.9615721e-08 0.0029023143 0)
(-5.75448e-08 0.002164246 0)
(-1.9561349e-08 0.00098824616 0)
(2.4321946e-08 0.00098816362 0)
(6.476766e-08 0.0021642149 0)
(9.1134153e-08 0.0029023113 0)
(1.0135648e-07 0.0033519962 0)
(1.0002658e-07 0.0036098908 0)
(8.9169559e-08 0.0037461776 0)
(7.1326225e-08 0.0038119192 0)
(4.9898855e-08 0.0038408122 0)
(2.7276801e-08 0.0038523214 0)
(4.178925e-09 0.0038561654 0)
(-1.9035982e-08 0.0038561646 0)
(-4.1993694e-08 0.0038523189 0)
(-6.4549806e-08 0.003840808 0)
(-8.5211116e-08 0.0038119115 0)
(-1.0135141e-07 0.0037461674 0)
(-1.1063352e-07 0.0036098782 0)
(-1.1045004e-07 0.0033519801 0)
(-9.7407582e-08 0.0029022929 0)
(-6.7684252e-08 0.0021641986 0)
(-2.5040021e-08 0.00098815705 0)
)
;

boundaryField
{
    Wall
    {
        type            fixedValue;
        value           uniform (0 0 0);
    }
    frontAndBack
    {
        type            empty;
    }
    atmosphere
    {
        type            pressureInletOutletVelocity;
        value           nonuniform List<vector> 
20
(
(2.4321946e-08 0.00098816362 0)
(6.476766e-08 0.0021642149 0)
(9.1134153e-08 0.0029023113 0)
(1.0135648e-07 0.0033519962 0)
(1.0002658e-07 0.0036098908 0)
(8.9169559e-08 0.0037461776 0)
(7.1326225e-08 0.0038119192 0)
(4.9898855e-08 0.0038408122 0)
(2.7276801e-08 0.0038523214 0)
(4.178925e-09 0.0038561654 0)
(-1.9035982e-08 0.0038561646 0)
(-4.1993694e-08 0.0038523189 0)
(-6.4549806e-08 0.003840808 0)
(-8.5211116e-08 0.0038119115 0)
(-1.0135141e-07 0.0037461674 0)
(-1.1063352e-07 0.0036098782 0)
(-1.1045004e-07 0.0033519801 0)
(-9.7407582e-08 0.0029022929 0)
(-6.7684252e-08 0.0021641986 0)
(-2.5040021e-08 0.00098815705 0)
)
;
    }
}


// ************************************************************************* //
