/*--------------------------------*- C++ -*----------------------------------*\
| =========                 |                                                 |
| \\      /  F ield         | OpenFOAM: The Open Source CFD Toolbox           |
|  \\    /   O peration     | Version:  3.0.1                                 |
|   \\  /    A nd           | Web:      www.OpenFOAM.org                      |
|    \\/     M anipulation  |                                                 |
\*---------------------------------------------------------------------------*/
FoamFile
{
    version     2.0;
    format      ascii;
    class       volScalarField;
    location    "16";
    object      wBA_g;
}
// * * * * * * * * * * * * * * * * * * * * * * * * * * * * * * * * * * * * * //

dimensions      [0 0 0 0 0 0 0];

internalField   nonuniform List<scalar> 
800
(
0.027558689
0.027562091
0.027562541
0.027562663
0.027562749
0.027562815
0.027562866
0.027562903
0.027562926
0.027562937
0.027562938
0.027562926
0.027562903
0.027562866
0.027562815
0.027562749
0.027562663
0.027562541
0.027562091
0.027558689
0.026659985
0.026775468
0.026783301
0.026784031
0.02678415
0.02678482
0.026785649
0.026786361
0.026786848
0.026787091
0.026787091
0.026786847
0.02678636
0.026785648
0.02678482
0.02678415
0.026784031
0.026783301
0.026775467
0.026659983
0.020427515
0.020571923
0.020700178
0.020703581
0.020704964
0.02070704
0.020709108
0.02071078
0.020711901
0.020712461
0.020712461
0.020711901
0.020710779
0.020709107
0.020707039
0.020704963
0.020703581
0.020700178
0.020571922
0.020427512
0.010062058
0.010393159
0.010481227
0.010484037
0.010485862
0.010488047
0.010490053
0.010491635
0.010492676
0.010493193
0.010493193
0.010492676
0.010491634
0.010490052
0.010488046
0.010485862
0.010484036
0.010481227
0.010393159
0.010062056
0.0040636635
0.0041630236
0.0042047606
0.0042072826
0.0042092014
0.0042109036
0.0042122569
0.0042132314
0.0042138433
0.0042141394
0.0042141393
0.004213843
0.0042132309
0.0042122564
0.0042109031
0.0042092009
0.0042072821
0.0042047602
0.0041630231
0.0040636624
0.0019815121
0.0020275072
0.0020450636
0.0020473172
0.0020489253
0.0020501329
0.0020509814
0.0020515395
0.0020518748
0.0020520338
0.0020520337
0.0020518746
0.0020515392
0.0020509811
0.0020501326
0.002048925
0.0020473169
0.0020450634
0.0020275069
0.0019815116
0.001025955
0.0010545533
0.001063054
0.001065055
0.001066227
0.0010669525
0.0010673992
0.0010676603
0.001067809
0.0010678729
0.0010678728
0.0010678089
0.0010676601
0.0010673991
0.0010669524
0.0010662269
0.001065055
0.001063054
0.0010545533
0.0010259549
0.00050114245
0.00052672926
0.00053371554
0.00053528419
0.00053585737
0.00053605845
0.00053611894
0.00053613411
0.00053613112
0.00053611694
0.00053611692
0.00053613107
0.00053613402
0.00053611889
0.00053605846
0.00053585743
0.00053528431
0.00053371566
0.00052672942
0.00050114253
0.00020928769
0.00023713687
0.00024503278
0.00024626464
0.00024608977
0.0002456929
0.00024534863
0.0002451294
0.00024499235
0.0002449149
0.00024491488
0.00024499231
0.00024512931
0.0002453486
0.00024569294
0.00024608985
0.00024626478
0.00024503289
0.00023713702
0.00020928784
6.5733494e-05
9.6247827e-05
0.00010541092
0.00010710043
0.00010662011
0.00010575779
0.0001050164
0.00010452689
0.00010422797
0.0001040776
0.00010407757
0.00010422792
0.0001045268
0.00010501635
0.00010575781
0.00010662015
0.00010710053
0.00010541099
9.6247917e-05
6.5733593e-05
1.4289827e-05
3.4226656e-05
4.2169073e-05
4.4337421e-05
4.426703e-05
4.3568537e-05
4.2851379e-05
4.2332561e-05
4.2003028e-05
4.1839538e-05
4.1839508e-05
4.2002982e-05
4.2332473e-05
4.2851327e-05
4.3568531e-05
4.4267042e-05
4.433747e-05
4.2169095e-05
3.4226689e-05
1.4289857e-05
2.2021786e-06
1.053011e-05
1.5468555e-05
1.7307054e-05
1.7561242e-05
1.7225581e-05
1.6776599e-05
1.642037e-05
1.6183898e-05
1.6065619e-05
1.6065599e-05
1.6183864e-05
1.6420308e-05
1.6776558e-05
1.7225567e-05
1.7561236e-05
1.7307073e-05
1.5468558e-05
1.0530117e-05
2.2021842e-06
2.5687915e-07
2.8074742e-06
5.1821149e-06
6.3311876e-06
6.6224217e-06
6.5201972e-06
6.3056748e-06
6.1181746e-06
5.9882464e-06
5.9224879e-06
5.9224767e-06
5.9882266e-06
6.1181383e-06
6.3056485e-06
6.5201844e-06
6.6224114e-06
6.3311923e-06
5.1821132e-06
2.8074739e-06
2.5687993e-07
2.4316158e-08
6.5652632e-07
1.5905283e-06
2.1681631e-06
2.3670251e-06
2.3564551e-06
2.2724044e-06
2.1902966e-06
2.1309131e-06
2.1004958e-06
2.1004904e-06
2.1309031e-06
2.1902783e-06
2.2723901e-06
2.3564469e-06
2.3670173e-06
2.168163e-06
1.5905269e-06
6.5652561e-07
2.4316251e-08
1.9743837e-09
1.3709216e-07
4.5050089e-07
6.9676358e-07
8.0161236e-07
8.1200962e-07
7.8423523e-07
7.5299963e-07
7.2937282e-07
7.1712438e-07
7.171221e-07
7.293682e-07
7.5299151e-07
7.8422841e-07
8.120053e-07
8.016079e-07
6.967626e-07
4.5050023e-07
1.3709186e-07
1.9743937e-09
1.4277883e-10
2.6052998e-08
1.188333e-07
2.1101841e-07
2.5759168e-07
2.6678494e-07
2.5906637e-07
2.4848997e-07
2.4008421e-07
2.3567123e-07
2.3567035e-07
2.4008227e-07
2.4848671e-07
2.5906342e-07
2.6678293e-07
2.5758958e-07
2.1101775e-07
1.1883306e-07
2.6052913e-08
1.4277986e-10
9.4186533e-12
4.5849014e-09
2.9468985e-08
6.0527271e-08
7.8732711e-08
8.3653273e-08
8.1937774e-08
7.870658e-08
7.5987117e-08
7.4539294e-08
7.4538983e-08
7.5986369e-08
7.8705369e-08
8.1936607e-08
8.3652432e-08
7.8731854e-08
6.0526948e-08
2.9468909e-08
4.5848822e-09
9.4187494e-12
5.7567681e-13
7.5849314e-10
6.9304366e-09
1.6523161e-08
2.2952295e-08
2.5071395e-08
2.482963e-08
2.3933277e-08
2.3124417e-08
2.26867e-08
2.2686596e-08
2.3124149e-08
2.3932858e-08
2.4829206e-08
2.5071068e-08
2.2951983e-08
1.6523028e-08
6.9304138e-09
7.5848939e-10
5.7568465e-13
3.2970271e-14
1.194894e-10
1.5573019e-09
4.311486e-09
6.3987567e-09
7.1939815e-09
7.2154294e-09
6.9897172e-09
6.7669516e-09
6.6439844e-09
6.643952e-09
6.7668615e-09
6.9895808e-09
7.2152844e-09
7.193864e-09
6.3986531e-09
4.3114383e-09
1.5572953e-09
1.1948871e-10
3.2970849e-14
1.786529e-15
1.8125263e-11
3.363761e-10
1.0792108e-09
1.7099148e-09
1.979435e-09
2.0126135e-09
1.9614846e-09
1.9044286e-09
1.8721369e-09
1.8721272e-09
1.9044001e-09
1.9614424e-09
2.0125669e-09
1.9793951e-09
1.7098829e-09
1.0791954e-09
3.363742e-10
1.8125142e-11
1.786567e-15
9.2510339e-17
2.6721026e-12
7.0161826e-11
2.5985825e-10
4.3882878e-10
5.2298733e-10
5.3929946e-10
5.2914335e-10
5.1552621e-10
5.0756584e-10
5.0756302e-10
5.1551765e-10
5.2913094e-10
5.3928525e-10
5.2297458e-10
4.3881951e-10
2.5985368e-10
7.0161294e-11
2.6720812e-12
9.2512561e-17
4.6330316e-18
3.8562719e-13
1.41768e-11
6.0311439e-11
1.0832136e-10
1.3283501e-10
1.389275e-10
1.3727924e-10
1.342526e-10
1.324053e-10
1.3240451e-10
1.3425015e-10
1.3727574e-10
1.3892338e-10
1.3283117e-10
1.0831878e-10
6.0310178e-11
1.4176656e-11
3.8562345e-13
4.6331486e-18
2.2782198e-19
5.4741138e-14
2.7803913e-12
1.3511596e-11
2.5747679e-11
3.2464245e-11
3.4427898e-11
3.4264872e-11
3.3640752e-11
3.3236587e-11
3.3236372e-11
3.3640086e-11
3.4263919e-11
3.4426758e-11
3.2463148e-11
2.574699e-11
1.3511267e-11
2.7803542e-12
5.4740478e-14
2.278273e-19
1.1202163e-20
7.6611209e-15
5.2979793e-13
2.9245632e-12
5.8987351e-12
7.640074e-12
8.2119235e-12
8.2314506e-12
8.1131285e-12
8.029751e-12
8.0296944e-12
8.1129554e-12
8.231201e-12
8.211622e-12
7.6397785e-12
5.8985562e-12
2.9244813e-12
5.297889e-13
7.6610046e-15
1.1202357e-20
5.6134663e-22
1.057178e-15
9.8110665e-14
6.1196062e-13
1.3034332e-12
1.7324894e-12
1.8863733e-12
1.9040076e-12
1.8837815e-12
1.8675885e-12
1.867574e-12
1.8837383e-12
1.9039447e-12
1.8862968e-12
1.7324136e-12
1.3033881e-12
6.1194115e-13
9.8108605e-14
1.0571581e-15
5.613502e-22
2.9088577e-23
1.4362906e-16
1.7654863e-14
1.2384196e-13
2.7796529e-13
3.7877415e-13
4.1753757e-13
4.2425564e-13
4.212764e-13
4.1832734e-13
4.1832381e-13
4.21266e-13
4.2424037e-13
4.1751893e-13
3.7875562e-13
2.7795427e-13
1.2383751e-13
1.7654415e-14
1.4362576e-16
2.9088338e-23
1.5662893e-24
1.9167803e-17
3.0860835e-15
2.4245132e-14
5.7240144e-14
7.9886585e-14
8.9103365e-14
9.1112551e-14
9.0783723e-14
9.0284032e-14
9.0283202e-14
9.0781316e-14
9.1108975e-14
8.9099002e-14
7.9882255e-14
5.7237547e-14
2.4244148e-14
3.0859906e-15
1.9167279e-17
1.5662524e-24
8.7096927e-26
2.5063839e-18
5.238197e-16
4.593156e-15
1.1387937e-14
1.6262959e-14
1.8343451e-14
1.8869861e-14
1.8862294e-14
1.8784713e-14
1.8784527e-14
1.8861756e-14
1.8869055e-14
1.834247e-14
1.6261991e-14
1.1387347e-14
4.5929462e-15
5.2380131e-16
2.5063038e-18
8.7093648e-26
4.9367001e-27
3.2038482e-19
8.6307562e-17
8.422693e-16
2.1900216e-15
3.1975158e-15
3.6452465e-15
3.7711004e-15
3.7808916e-15
3.7702071e-15
3.7701668e-15
3.780776e-15
3.7709255e-15
3.6450347e-15
3.1973081e-15
2.1898928e-15
8.4222611e-16
8.6304073e-17
3.20373e-19
4.9364592e-27
2.8117728e-28
3.9960694e-20
1.3801273e-17
1.4954859e-16
4.0732348e-16
6.075426e-16
6.9970226e-16
7.2771561e-16
7.3163549e-16
7.3043637e-16
7.3042797e-16
7.316115e-16
7.2767911e-16
6.9965825e-16
6.0749973e-16
4.0729651e-16
1.4954e-16
1.3800635e-17
3.995901e-20
2.811605e-28
9.5033713e-29
4.8565105e-21
2.141698e-18
2.5719476e-17
7.3308215e-17
1.1162525e-16
1.2981647e-16
1.3568955e-16
1.3677205e-16
1.3669733e-16
1.3669564e-16
1.3676726e-16
1.3568222e-16
1.2980766e-16
1.1161673e-16
7.3302792e-17
2.5717824e-17
2.1415858e-18
4.856278e-21
9.1428455e-29
2.6858409e-29
5.7455117e-22
3.2254072e-19
4.2861258e-18
1.2774026e-17
1.9844752e-17
2.3295422e-17
2.4463899e-17
2.4717882e-17
2.472921e-17
2.4728885e-17
2.4716962e-17
2.4462484e-17
2.3293728e-17
1.9843123e-17
1.2772978e-17
4.2858183e-18
3.2252161e-19
5.7452002e-22
2.4876158e-29
4.7746707e-30
6.6128161e-23
4.7147888e-20
6.9243688e-19
2.1562974e-18
3.4158945e-18
4.0460485e-18
4.2678127e-18
4.3216389e-18
4.3276097e-18
4.3275493e-18
4.3214686e-18
4.2675495e-18
4.045734e-18
3.4155937e-18
2.156103e-18
6.9238154e-19
4.7144736e-20
6.6124098e-23
4.3989665e-30
5.1650549e-31
7.4021931e-24
6.6910234e-21
1.0849474e-19
3.5281019e-19
5.6966066e-19
6.8062027e-19
7.2092439e-19
7.3150918e-19
7.331405e-19
7.3312979e-19
7.3147873e-19
7.2087713e-19
6.8056391e-19
5.69607e-19
3.5277547e-19
1.0848512e-19
6.6905181e-21
7.4016757e-24
4.6056266e-31
3.2124868e-32
8.0575885e-25
9.2215736e-22
1.6495246e-20
5.5984937e-20
9.2099098e-20
1.1096376e-19
1.1799905e-19
1.199586e-19
1.2031969e-19
1.2031785e-19
1.1995334e-19
1.1799088e-19
1.1095401e-19
9.2089832e-20
5.5978963e-20
1.6493629e-20
9.2207873e-22
8.0569448e-25
1.9755913e-32
7.9084984e-34
8.5298519e-26
1.2346675e-22
2.4346872e-21
8.6207138e-21
1.4444119e-20
1.7544574e-20
1.8726852e-20
1.9071398e-20
1.9142489e-20
1.9142185e-20
1.907052e-20
1.8725485e-20
1.7542942e-20
1.4442571e-20
8.619721e-21
2.4344241e-21
1.2345486e-22
8.5290696e-26
4.2969221e-34
9.6890259e-36
8.7828955e-27
1.6065419e-23
3.4904069e-22
1.2888377e-21
2.1988004e-21
2.6919366e-21
2.8835866e-21
2.9414646e-21
2.9543731e-21
2.9543242e-21
2.9413227e-21
2.8833659e-21
2.6916725e-21
2.19855e-21
1.2886781e-21
3.4899922e-22
1.6063673e-23
8.7819673e-27
5.1152423e-36
7.7338852e-38
8.798214e-28
2.0323796e-24
4.8626279e-23
1.8718573e-22
3.2508316e-22
4.0106372e-22
4.3108037e-22
4.4040795e-22
4.4260912e-22
4.4260149e-22
4.4038575e-22
4.3104582e-22
4.0102233e-22
3.2504389e-22
1.8716087e-22
4.8619934e-23
2.0321303e-24
8.7971395e-28
4.2896406e-38
1.2693184e-39
8.5769861e-29
2.5007341e-25
6.5862686e-24
2.6423952e-23
4.6705012e-23
5.8055753e-23
6.2604455e-23
6.4051153e-23
6.4407362e-23
6.4406204e-23
6.4047781e-23
6.2599211e-23
5.8049452e-23
4.6699031e-23
2.6420194e-23
6.5853276e-24
2.5003882e-25
8.5757754e-29
8.0540229e-40
6.6564552e-41
8.1394925e-30
2.994073e-26
8.677398e-25
3.6274226e-24
6.5242491e-24
8.1697226e-24
8.8374734e-24
9.0539428e-24
9.1090192e-24
9.108848e-24
9.0534461e-24
8.8367004e-24
8.1687906e-24
6.5233636e-24
3.626871e-24
8.6760423e-25
2.9936069e-26
8.1381657e-30
3.389919e-41
)
;

boundaryField
{
    Wall
    {
        type            zeroGradient;
    }
    frontAndBack
    {
        type            empty;
    }
    atmosphere
    {
        type            zeroGradient;
    }
}


// ************************************************************************* //
