/*--------------------------------*- C++ -*----------------------------------*\
| =========                 |                                                 |
| \\      /  F ield         | OpenFOAM: The Open Source CFD Toolbox           |
|  \\    /   O peration     | Version:  3.0.1                                 |
|   \\  /    A nd           | Web:      www.OpenFOAM.org                      |
|    \\/     M anipulation  |                                                 |
\*---------------------------------------------------------------------------*/
FoamFile
{
    version     2.0;
    format      ascii;
    class       volScalarField;
    location    "16";
    object      wBA_l;
}
// * * * * * * * * * * * * * * * * * * * * * * * * * * * * * * * * * * * * * //

dimensions      [0 0 0 0 0 0 0];

internalField   nonuniform List<scalar> 
800
(
0.055859294
0.055859095
0.055859099
0.055859104
0.055859105
0.055859107
0.055859109
0.055859111
0.055859112
0.055859113
0.055859113
0.055859112
0.055859111
0.055859109
0.055859107
0.055859105
0.055859104
0.055859099
0.055859095
0.055859294
0.056110676
0.056105528
0.056104036
0.056103452
0.056103058
0.056102748
0.056102509
0.056102337
0.056102225
0.056102171
0.056102171
0.056102225
0.056102337
0.056102509
0.056102748
0.056103058
0.056103453
0.056104036
0.056105528
0.056110676
0.052944829
0.052972352
0.052975732
0.052975845
0.052975345
0.052975099
0.052974962
0.052974877
0.052974823
0.052974797
0.052974797
0.052974822
0.052974876
0.052974961
0.052975099
0.052975345
0.052975844
0.052975731
0.052972352
0.052944828
0.047528296
0.04760735
0.047616062
0.047615853
0.047615116
0.047614645
0.047614299
0.04761403
0.047613836
0.047613736
0.047613737
0.047613836
0.04761403
0.0476143
0.047614646
0.047615117
0.047615854
0.047616063
0.047607351
0.047528296
0.040611123
0.040788893
0.040808788
0.040809899
0.04080904
0.040807978
0.040806896
0.040805957
0.040805281
0.040804932
0.040804932
0.040805282
0.040805959
0.040806898
0.040807981
0.040809043
0.040809902
0.040808792
0.040788896
0.040611127
0.032797392
0.033144999
0.033198225
0.033208143
0.033208632
0.033206573
0.033204185
0.033201855
0.033200272
0.033199447
0.033199447
0.033200274
0.033201857
0.033204188
0.033206577
0.033208636
0.033208148
0.033198231
0.033145005
0.0327974
0.024628838
0.025227513
0.025370078
0.025403912
0.025408248
0.025404385
0.025399766
0.025395535
0.025392711
0.025391085
0.025391085
0.025392712
0.025395537
0.02539977
0.02540439
0.025408254
0.02540392
0.025370085
0.025227521
0.024628849
0.016232804
0.017227936
0.017563862
0.017646542
0.01765601
0.017646843
0.017635971
0.017628306
0.017623058
0.017619921
0.017619921
0.017623058
0.017628306
0.017635974
0.017646847
0.017656017
0.017646552
0.01756387
0.017227946
0.016232818
0.0086869528
0.01014204
0.010725904
0.010888394
0.010904182
0.010882161
0.010857307
0.010841305
0.01083089
0.010825145
0.010825143
0.010830888
0.0108413
0.010857307
0.010882163
0.010904186
0.010888402
0.010725908
0.010142048
0.0086869665
0.0033600194
0.0051873346
0.0059239571
0.0061581765
0.0061838465
0.0061462219
0.0061016109
0.006070839
0.0060512102
0.0060411806
0.0060411776
0.0060512067
0.0060708306
0.0061016063
0.0061462209
0.0061838464
0.0061581803
0.0059239574
0.0051873386
0.0033600277
0.00087440758
0.0022853999
0.0029761024
0.0032364401
0.0032831191
0.0032505294
0.00320218
0.0031652074
0.0031408972
0.0031286935
0.0031286903
0.0031408925
0.003165198
0.0032021736
0.0032505261
0.003283116
0.0032364403
0.0029761001
0.0022854001
0.00087441038
0.00015779257
0.00086396351
0.0013558164
0.0015797283
0.0016373888
0.0016218063
0.0015860938
0.0015557296
0.0015349274
0.0015244394
0.0015244369
0.0015349232
0.0015557217
0.0015860877
0.0016218024
0.0016373845
0.0015797267
0.0013558136
0.00086396225
0.00015779315
2.1214864e-05
0.00028165275
0.00056112943
0.00071596008
0.00076695627
0.00076455951
0.00074438643
0.00072513136
0.00071136921
0.00070436331
0.00070436171
0.00071136614
0.00072512591
0.00074438181
0.00076455619
0.00076695245
0.00071595806
0.00056112733
0.00028165164
2.121495e-05
2.2909102e-06
8.0379753e-05
0.00021226075
0.00030189016
0.00033743631
0.00034054606
0.00033133586
0.00032121948
0.00031366713
0.00030977988
0.00030977898
0.00031366521
0.00032121623
0.00033133289
0.00034054376
0.00033743364
0.00030188856
0.00021225956
8.0379195e-05
2.2909203e-06
2.1108511e-07
2.0513631e-05
7.4005303e-05
0.00011884615
0.00013959278
0.00014331753
0.00013987393
0.00013529411
0.00013170997
0.00012984278
0.00012984233
0.0001317089
0.0001352924
0.00013987225
0.00014331615
0.00013959122
0.00011884515
7.4004735e-05
2.0513419e-05
2.1108611e-07
1.7322188e-08
4.7859353e-06
2.3997304e-05
4.3861756e-05
5.4389218e-05
5.7012571e-05
5.5995477e-05
5.4169509e-05
5.266076e-05
5.1863853e-05
5.1863648e-05
5.2660222e-05
5.4168694e-05
5.599462e-05
5.7011834e-05
5.4388429e-05
4.3861235e-05
2.3997067e-05
4.7858693e-06
1.7322277e-08
1.3046631e-09
1.0403543e-06
7.2973452e-06
1.5237263e-05
1.9998219e-05
2.1455416e-05
2.1258785e-05
2.0610521e-05
2.0038094e-05
1.9730717e-05
1.9730631e-05
2.0037849e-05
2.0610163e-05
2.1258387e-05
2.145506e-05
1.9997865e-05
1.5237027e-05
7.2972561e-06
1.0403366e-06
1.3046698e-09
9.2279887e-11
2.1381637e-07
2.0950531e-06
5.0002596e-06
6.9526935e-06
7.6461134e-06
7.6561332e-06
7.4506525e-06
7.2528889e-06
7.1445039e-06
7.1444692e-06
7.2527869e-06
7.4505057e-06
7.6559645e-06
7.6459555e-06
6.9525499e-06
5.0001634e-06
2.0950224e-06
2.1381211e-07
9.2280236e-11
6.2516888e-12
4.1973164e-08
5.7071728e-07
1.5545752e-06
2.2897928e-06
2.5832588e-06
2.6167938e-06
2.5590352e-06
2.4964211e-06
2.4612014e-06
2.4611883e-06
2.4963815e-06
2.5589787e-06
2.6167272e-06
2.5831944e-06
2.2897392e-06
1.5545396e-06
5.7070742e-07
4.1972216e-08
6.2516931e-12
4.1310158e-13
7.9197278e-09
1.4802698e-07
4.5895528e-07
7.1555483e-07
8.2835725e-07
8.4936727e-07
8.3529711e-07
8.1706738e-07
8.0646096e-07
8.0645627e-07
8.1705307e-07
8.3527667e-07
8.4934269e-07
8.2833277e-07
7.1553613e-07
4.5894317e-07
1.4802401e-07
7.9195291e-09
4.130995e-13
2.7053572e-14
1.4410091e-09
3.6638951e-08
1.2890286e-07
2.1249324e-07
2.5240013e-07
2.6201489e-07
2.5923313e-07
2.5434967e-07
2.5137799e-07
2.513764e-07
2.543448e-07
2.5922614e-07
2.6200638e-07
2.5239148e-07
2.1248707e-07
1.2889903e-07
3.6638109e-08
1.4409694e-09
2.7053212e-14
1.776251e-15
2.5312215e-10
8.6670902e-09
3.4493066e-08
6.0048135e-08
7.3161284e-08
7.688649e-08
7.6544017e-08
7.5343709e-08
7.4567267e-08
7.4566752e-08
7.5342143e-08
7.6541761e-08
7.6883716e-08
7.3158429e-08
6.0046198e-08
3.4491931e-08
8.6668636e-09
2.5311458e-10
1.7762098e-15
1.1748397e-16
4.2918744e-11
1.9614335e-09
8.804917e-09
1.6168297e-08
2.0197168e-08
2.1483139e-08
2.1520874e-08
2.1252346e-08
2.1062987e-08
2.1062829e-08
2.125187e-08
2.152018e-08
2.1482286e-08
2.0196284e-08
1.6167716e-08
8.8045986e-09
1.961376e-09
4.2917355e-11
1.1748001e-16
7.8105183e-18
7.0197224e-12
4.2499302e-10
2.1465168e-09
4.1530956e-09
5.3163836e-09
5.7217723e-09
5.7669752e-09
5.7132764e-09
5.6702044e-09
5.6701582e-09
5.7131392e-09
5.7667728e-09
5.7215234e-09
5.3161263e-09
4.1529285e-09
2.1464321e-09
4.2497909e-10
7.0194763e-12
7.8101811e-18
5.1823614e-19
1.1066419e-12
8.8225772e-11
5.0028923e-10
1.018915e-09
1.335858e-09
1.4542268e-09
1.4744423e-09
1.4652454e-09
1.4561354e-09
1.4561225e-09
1.4652078e-09
1.4743862e-09
1.4541578e-09
1.3357871e-09
1.0188691e-09
5.0026772e-10
8.8222576e-11
1.1066e-12
5.1820962e-19
3.4017499e-20
1.6804748e-13
1.7559313e-11
1.1159229e-10
2.3903715e-10
3.2079292e-10
3.5310166e-10
3.6006252e-10
3.5887838e-10
3.5709844e-10
3.5709502e-10
3.5886851e-10
3.600477e-10
3.5308348e-10
3.2077441e-10
2.3902506e-10
1.1158706e-10
1.7558613e-11
1.6804064e-13
3.4015548e-20
2.1913199e-21
2.457129e-14
3.3529161e-12
2.384598e-11
5.3684197e-11
7.3707284e-11
8.2004296e-11
8.4080013e-11
8.4039436e-11
8.372239e-11
8.3721527e-11
8.4036969e-11
8.4076276e-11
8.1999727e-11
7.3702678e-11
5.3681164e-11
2.3844759e-11
3.3527693e-12
2.457022e-14
2.1911848e-21
1.3767108e-22
3.4589468e-15
6.1469881e-13
4.8865385e-12
1.1554804e-11
1.6222313e-11
1.8236651e-11
1.8796297e-11
1.8837156e-11
1.8787084e-11
1.8786878e-11
1.8836565e-11
1.8795398e-11
1.8235556e-11
1.6221221e-11
1.1554078e-11
4.886265e-12
6.1466938e-13
3.4587857e-15
1.3766217e-22
8.3997593e-24
4.6884612e-16
1.0828375e-13
9.6122476e-13
2.386071e-12
3.4238851e-12
3.8879561e-12
4.0273052e-12
4.0461528e-12
4.039617e-12
4.0395696e-12
4.0460176e-12
4.0270984e-12
3.8877055e-12
3.4236376e-12
2.385905e-12
9.6116588e-13
1.0827809e-13
4.6882273e-16
8.3992e-24
4.9639585e-25
6.1209473e-17
1.834312e-14
1.816818e-13
4.7322246e-13
6.93754e-13
7.9551982e-13
8.2796033e-13
8.3378954e-13
8.3325449e-13
8.3324408e-13
8.337599e-13
8.2791488e-13
7.9546499e-13
6.9370027e-13
4.731863e-13
1.8166962e-13
1.8342072e-14
6.1206198e-17
4.9636169e-25
1.5692938e-25
7.7001693e-18
2.9905144e-15
3.3027609e-14
9.0229964e-14
1.3509322e-13
1.5638887e-13
1.6350654e-13
1.6502095e-13
1.6506488e-13
1.6506269e-13
1.6501473e-13
1.6349699e-13
1.5637737e-13
1.3508204e-13
9.022243e-14
3.3025184e-14
2.9903277e-15
7.6997257e-18
1.510711e-25
4.4476797e-26
9.339174e-19
4.6960894e-16
5.7799923e-15
1.6556426e-14
2.5307501e-14
2.9569322e-14
3.1049444e-14
3.1401963e-14
3.1436892e-14
3.1436452e-14
3.1400715e-14
3.1047519e-14
2.9567014e-14
2.5305272e-14
1.6554924e-14
5.7795274e-15
4.6957684e-16
9.3385922e-19
4.1207205e-26
7.9816691e-27
1.0927074e-19
7.1088068e-17
9.7466257e-16
2.9263319e-15
4.5654252e-15
5.3826427e-15
5.6755861e-15
5.7512079e-15
5.7621399e-15
5.7620548e-15
5.7509675e-15
5.6752143e-15
5.3821979e-15
4.5649977e-15
2.926045e-15
9.7457673e-16
7.1082735e-17
1.0926333e-19
7.3538112e-27
8.6800614e-28
1.234137e-20
1.0381811e-17
1.5850269e-16
4.9867327e-16
7.9385278e-16
9.442517e-16
9.9961401e-16
1.0147915e-15
1.0174664e-15
1.0174508e-15
1.014747e-15
9.9954497e-16
9.4416925e-16
7.9377389e-16
4.9862068e-16
1.5848745e-16
1.0380952e-17
1.2340449e-20
7.7399923e-28
5.4020007e-29
1.346392e-21
1.4638722e-18
2.4879299e-17
8.2001494e-17
1.3317343e-16
1.5977855e-16
1.6979543e-16
1.7267194e-16
1.7324553e-16
1.7324277e-16
1.7266402e-16
1.6978313e-16
1.5976385e-16
1.331594e-16
8.1992235e-17
2.487669e-17
1.4637382e-18
1.3462804e-21
3.327485e-29
1.3351275e-30
1.41976e-22
1.9944095e-19
3.7723109e-18
1.3022722e-17
2.1571869e-17
2.6101728e-17
2.7840683e-17
2.8358695e-17
2.8471074e-17
2.8470604e-17
2.8357337e-17
2.7838571e-17
2.6099204e-17
2.1569464e-17
1.3021152e-17
3.7718804e-18
1.9942071e-19
1.4196282e-22
7.2613468e-31
1.6349209e-32
1.4480306e-23
2.6273802e-20
5.5294052e-19
1.9989453e-18
3.3768072e-18
4.1200565e-18
4.4102495e-18
4.4992839e-18
4.519812e-18
4.5197348e-18
4.4990593e-18
4.4099006e-18
4.1196388e-18
3.3764096e-18
1.9986884e-18
5.5287192e-19
2.6270838e-20
1.4478787e-23
8.6275978e-33
1.2283228e-34
1.4293501e-24
3.34914e-21
7.8409727e-20
2.9678925e-19
5.1122423e-19
6.2887656e-19
6.7550198e-19
6.9015655e-19
6.9369361e-19
6.936813e-19
6.9012074e-19
6.7544632e-19
6.2880984e-19
5.1116074e-19
2.9674866e-19
7.8399151e-20
3.3487193e-21
1.4291798e-24
6.800204e-35
1.4488228e-36
1.3663715e-25
4.1336909e-22
1.0764324e-20
4.2653761e-20
7.4907442e-20
9.2893199e-20
1.0011596e-19
1.0243193e-19
1.0301104e-19
1.0300914e-19
1.024264e-19
1.0010738e-19
9.2882885e-20
7.489763e-20
4.2647557e-20
1.0762749e-20
4.1331121e-22
1.366186e-25
1.0576255e-36
5.7775246e-38
1.2657053e-26
4.9433154e-23
1.4315954e-21
5.9378269e-21
1.0630475e-20
1.328832e-20
1.4368429e-20
1.4720606e-20
1.4811161e-20
1.4810877e-20
1.4719782e-20
1.4367148e-20
1.3286776e-20
1.0629006e-20
5.9369088e-21
1.4313681e-21
4.9425443e-23
1.2655091e-26
4.047916e-38
)
;

boundaryField
{
    Wall
    {
        type            zeroGradient;
    }
    frontAndBack
    {
        type            empty;
    }
    atmosphere
    {
        type            zeroGradient;
    }
}


// ************************************************************************* //
