/*--------------------------------*- C++ -*----------------------------------*\
| =========                 |                                                 |
| \\      /  F ield         | OpenFOAM: The Open Source CFD Toolbox           |
|  \\    /   O peration     | Version:  3.0.1                                 |
|   \\  /    A nd           | Web:      www.OpenFOAM.org                      |
|    \\/     M anipulation  |                                                 |
\*---------------------------------------------------------------------------*/
FoamFile
{
    version     2.0;
    format      ascii;
    class       volScalarField;
    location    "16";
    object      wBA_l_0;
}
// * * * * * * * * * * * * * * * * * * * * * * * * * * * * * * * * * * * * * //

dimensions      [0 0 0 0 0 0 0];

internalField   nonuniform List<scalar> 
800
(
0.055869768
0.055869568
0.055869569
0.055869573
0.055869574
0.055869576
0.055869578
0.055869579
0.055869581
0.055869581
0.055869581
0.055869581
0.055869579
0.055869578
0.055869576
0.055869574
0.055869573
0.055869569
0.055869568
0.055869768
0.056118009
0.056112917
0.056111421
0.056110837
0.056110443
0.056110132
0.056109893
0.05610972
0.056109608
0.056109554
0.056109554
0.056109608
0.05610972
0.056109893
0.056110132
0.056110443
0.056110837
0.056111421
0.056112917
0.056118009
0.052918367
0.052946112
0.052949479
0.0529496
0.052949106
0.052948861
0.052948721
0.052948633
0.052948576
0.052948549
0.052948549
0.052948576
0.052948633
0.052948721
0.052948861
0.052949106
0.0529496
0.052949479
0.052946111
0.052918367
0.047455238
0.047534411
0.047543105
0.047542901
0.047542163
0.047541679
0.047541317
0.047541033
0.047540828
0.047540723
0.047540723
0.047540828
0.047541033
0.047541317
0.047541679
0.047542164
0.047542902
0.047543106
0.047534412
0.047455239
0.040478537
0.040657414
0.040677407
0.040678524
0.040677635
0.040676533
0.040675411
0.040674439
0.040673741
0.04067338
0.040673381
0.040673742
0.040674441
0.040675412
0.040676536
0.040677638
0.040678527
0.04067741
0.040657418
0.040478541
0.032612166
0.03296261
0.033016559
0.033026581
0.033027024
0.033024881
0.033022421
0.033020032
0.033018412
0.033017569
0.033017569
0.033018413
0.033020034
0.033022424
0.033024885
0.033027029
0.033026586
0.033016565
0.032962616
0.032612173
0.024402787
0.025008138
0.025152877
0.025187149
0.025191454
0.025187449
0.025182714
0.025178398
0.025175521
0.025173864
0.025173864
0.025175522
0.025178399
0.025182718
0.025187454
0.02519146
0.025187157
0.025152885
0.025008147
0.024402798
0.015973523
0.016978062
0.01731861
0.017402396
0.017411784
0.017402372
0.017391283
0.017383508
0.017378187
0.017375005
0.017375005
0.017378187
0.017383507
0.017391285
0.017402376
0.017411791
0.017402406
0.017318617
0.016978072
0.015973537
0.0084663899
0.0099310676
0.010517667
0.010681152
0.010696824
0.010674451
0.01064925
0.010633055
0.010622519
0.010616713
0.010616711
0.010622518
0.01063305
0.010649249
0.010674453
0.010696828
0.01068116
0.010517672
0.0099310757
0.0084664035
0.0032284245
0.0050452553
0.0057784339
0.0060121773
0.0060379654
0.0060004452
0.0059558174
0.0059250128
0.0059053414
0.0058952952
0.0058952922
0.0059053378
0.0059250042
0.0059558128
0.0060004441
0.0060379652
0.0060121809
0.005778434
0.0050452591
0.0032284327
0.00082752337
0.0022062148
0.0028865091
0.0031440688
0.0031907393
0.003158897
0.0031112751
0.0030748129
0.0030508045
0.0030387525
0.0030387493
0.0030508
0.0030748035
0.0031112687
0.0031588937
0.0031907361
0.0031440689
0.0028865067
0.0022062148
0.00082752611
0.00014724348
0.00082747909
0.0013072207
0.0015267574
0.0015837069
0.0015688038
0.0015340464
0.0015044464
0.0014841419
0.0014739051
0.0014739027
0.0014841378
0.0015044386
0.0015340404
0.0015688
0.0015837026
0.0015267556
0.0013072179
0.00082747781
0.00014724403
1.9555848e-05
0.0002676606
0.0005378198
0.00068835069
0.00073818804
0.00073608744
0.00071664958
0.00069805422
0.0006847489
0.0006779767
0.00067797513
0.00068474589
0.00069804887
0.00071664504
0.00073608417
0.00073818424
0.00068834868
0.00053781772
0.0002676595
1.955593e-05
2.0899527e-06
7.5832792e-05
0.00020228014
0.0002887462
0.00032317428
0.00032628947
0.00031749787
0.00030780744
0.00030056591
0.0002968397
0.00029683883
0.00030056404
0.00030780428
0.00031749497
0.00032628722
0.00032317166
0.00028874462
0.00020227897
7.5832247e-05
2.0899621e-06
1.9086354e-07
1.9228503e-05
7.0143743e-05
0.00011309284
0.0001330285
0.0001366472
0.00013339247
0.00012903834
0.0001256275
0.00012385122
0.00012385079
0.00012562646
0.00012903669
0.00013339084
0.00013664586
0.00013302697
0.00011309186
7.0143193e-05
1.9228298e-05
1.9086445e-07
1.5542165e-08
4.4611454e-06
2.2629522e-05
4.1529756e-05
5.1573024e-05
5.4089548e-05
5.3140219e-05
5.1416741e-05
4.9991133e-05
4.9238416e-05
4.9238219e-05
4.9990617e-05
5.141596e-05
5.3139394e-05
5.4088835e-05
5.1572263e-05
4.152925e-05
2.2629294e-05
4.4610825e-06
1.5542246e-08
1.1628428e-09
9.6514137e-07
6.8484037e-06
1.4356046e-05
1.8867583e-05
2.0252858e-05
2.0074011e-05
1.9466529e-05
1.8929363e-05
1.8641012e-05
1.8640929e-05
1.8929129e-05
1.9466187e-05
2.0073631e-05
2.0252517e-05
1.8867244e-05
1.4355818e-05
6.8483185e-06
9.6512462e-07
1.1628487e-09
8.1805097e-11
1.9754496e-07
1.9571232e-06
4.688014e-06
6.5263788e-06
7.1805573e-06
7.1924386e-06
7.001311e-06
6.8169866e-06
6.7159871e-06
6.7159543e-06
6.8168899e-06
7.0011718e-06
7.1922782e-06
7.1804067e-06
6.5262424e-06
4.6879221e-06
1.9570939e-06
1.9754096e-07
8.1805384e-11
5.5205576e-12
3.8637377e-08
5.3074666e-07
1.4503454e-06
2.1383558e-06
2.4132939e-06
2.4454005e-06
2.3921059e-06
2.3341419e-06
2.3015375e-06
2.3015252e-06
2.3341046e-06
2.3920526e-06
2.4453375e-06
2.4132327e-06
2.1383051e-06
1.4503116e-06
5.3073732e-07
3.8636491e-08
5.520559e-12
3.6401488e-13
7.2653572e-09
1.3704274e-07
4.260606e-07
6.6474373e-07
7.6972898e-07
7.8946271e-07
7.766011e-07
7.5984079e-07
7.5008602e-07
7.5008164e-07
7.5982738e-07
7.7658194e-07
7.8943962e-07
7.697059e-07
6.6472617e-07
4.2604918e-07
1.3703994e-07
7.2651722e-09
3.6401275e-13
2.3829011e-14
1.3174608e-09
3.3766261e-08
1.1906116e-07
1.9635505e-07
2.3325903e-07
2.4219225e-07
2.3968258e-07
2.3522424e-07
2.3250904e-07
2.3250756e-07
2.3521971e-07
2.3967607e-07
2.421843e-07
2.3325092e-07
1.963493e-07
1.1905758e-07
3.3765471e-08
1.317424e-09
2.3828666e-14
1.5657869e-15
2.3060747e-10
7.9504903e-09
3.1695913e-08
5.5187141e-08
6.7237186e-08
7.0668753e-08
7.0369758e-08
6.9281951e-08
6.8577188e-08
6.857671e-08
6.92805e-08
7.0367665e-08
7.0666176e-08
6.7234526e-08
5.5185339e-08
3.1694856e-08
7.9502787e-09
2.3060048e-10
1.5657485e-15
1.0368539e-16
3.8955599e-11
1.7906874e-09
8.0484876e-09
1.4777456e-08
1.8456527e-08
1.9632103e-08
1.967018e-08
1.9428721e-08
1.9257991e-08
1.9257845e-08
1.9428283e-08
1.9669541e-08
1.9631315e-08
1.8455709e-08
1.4776918e-08
8.0481928e-09
1.7906339e-09
3.895432e-11
1.0368175e-16
6.898056e-18
6.3461723e-12
3.8609532e-10
1.951615e-09
3.7745185e-09
4.830164e-09
5.1980952e-09
5.2398683e-09
5.1920063e-09
5.1534365e-09
5.153394e-09
5.1918807e-09
5.2396827e-09
5.1978668e-09
4.8299274e-09
3.7743644e-09
1.951537e-09
3.8608244e-10
6.3459467e-12
6.8977484e-18
4.5755854e-19
9.96221e-13
7.9747399e-11
4.5238373e-10
9.2074971e-10
1.2065637e-09
1.3132518e-09
1.3316182e-09
1.3235112e-09
1.3154109e-09
1.3153991e-09
1.3234769e-09
1.331567e-09
1.3131889e-09
1.2064989e-09
9.2070755e-10
4.5236403e-10
7.9744464e-11
9.9618278e-13
4.5753455e-19
2.9990921e-20
1.5060272e-13
1.5790007e-11
1.0034697e-10
2.1475632e-10
2.8801919e-10
3.1694222e-10
3.2319948e-10
3.2217535e-10
3.2060436e-10
3.2060126e-10
3.2216642e-10
3.2318604e-10
3.1692574e-10
2.8800239e-10
2.1474529e-10
1.0034221e-10
1.5789366e-11
1.505965e-13
2.9989169e-20
1.9270975e-21
2.1917398e-14
2.9991736e-12
2.1322174e-11
4.794797e-11
6.5777916e-11
7.3155698e-11
7.500538e-11
7.4975906e-11
7.4698298e-11
7.4697523e-11
7.4973687e-11
7.5002016e-11
7.3151581e-11
6.5773765e-11
4.7945221e-11
2.1321069e-11
2.9990402e-12
2.1916429e-14
1.9269769e-21
1.2066597e-22
3.07034e-15
5.4689151e-13
4.3443995e-12
1.025886e-11
1.4388839e-11
1.6168087e-11
1.6662856e-11
1.6700058e-11
1.6656613e-11
1.6656429e-11
1.669953e-11
1.6662051e-11
1.6167107e-11
1.4387861e-11
1.0258206e-11
4.3441532e-12
5.4686492e-13
3.0701949e-15
1.2065807e-22
7.3329743e-24
4.1408388e-16
9.5812675e-14
8.4964012e-13
2.1057426e-12
3.0182077e-12
3.4253999e-12
3.5476731e-12
3.5643762e-12
3.5587738e-12
3.5587317e-12
3.5642561e-12
3.5474894e-12
3.4251771e-12
3.0179875e-12
2.1055942e-12
8.4958738e-13
9.5807587e-14
4.1406292e-16
7.3324815e-24
4.3143591e-25
5.3781972e-17
1.6140591e-14
1.5965257e-13
4.1509549e-13
6.0775591e-13
6.9645782e-13
7.2471672e-13
7.2981742e-13
7.2937159e-13
7.2936239e-13
7.2979128e-13
7.2467659e-13
6.9640938e-13
6.0770842e-13
4.1506336e-13
1.5964172e-13
1.6139654e-14
5.3779053e-17
4.3140596e-25
1.5432113e-25
6.7302629e-18
2.6166666e-15
2.8851718e-14
7.8663268e-14
1.1760625e-13
1.3604533e-13
1.4220148e-13
1.4351397e-13
1.4355482e-13
1.435529e-13
1.4350853e-13
1.421931e-13
1.3603524e-13
1.1759644e-13
7.865662e-14
2.8849571e-14
2.6165009e-15
6.7298699e-18
1.4840747e-25
4.3433115e-26
8.1192275e-19
4.0857176e-16
5.0191473e-15
1.4345186e-14
2.1892777e-14
2.5558507e-14
2.6829701e-14
2.713266e-14
2.716301e-14
2.7162627e-14
2.7131574e-14
2.6828025e-14
2.5556495e-14
2.1890832e-14
1.434387e-14
5.0187383e-15
4.0854344e-16
8.1187143e-19
4.0188644e-26
7.6448297e-27
9.4482437e-20
6.1494213e-17
8.4128887e-16
2.5197833e-15
3.9243789e-15
4.6226396e-15
4.8724838e-15
4.9369654e-15
4.9463224e-15
4.9462489e-15
4.9367577e-15
4.8721621e-15
4.6222545e-15
3.9240083e-15
2.5195336e-15
8.4121385e-16
6.1489534e-17
9.4475927e-20
7.0418331e-27
8.0361666e-28
1.0612615e-20
8.9288301e-18
1.35987e-16
4.2671587e-16
6.7803567e-16
8.0569029e-16
8.5258131e-16
8.6542567e-16
8.6769212e-16
8.6767875e-16
8.6538746e-16
8.5252201e-16
8.0561938e-16
6.7796772e-16
4.2667042e-16
1.3597376e-16
8.9280812e-18
1.0611812e-20
7.1444586e-28
4.6897772e-29
1.1513752e-21
1.251667e-18
2.1215427e-17
6.9728749e-17
1.1301573e-16
1.3544761e-16
1.4387341e-16
1.4628988e-16
1.4677172e-16
1.4676937e-16
1.4628313e-16
1.4386291e-16
1.3543505e-16
1.1300373e-16
6.9720802e-17
2.1213176e-17
1.2515508e-18
1.1512783e-21
2.6802754e-29
9.0221778e-31
1.2073234e-22
1.6952973e-19
3.1971135e-18
1.1003847e-17
1.8188821e-17
2.1982752e-17
2.3435463e-17
2.3867495e-17
2.3961148e-17
2.3960751e-17
2.3866345e-17
2.3433675e-17
2.1980611e-17
1.8186778e-17
1.1002509e-17
3.1967445e-18
1.6951229e-19
1.2072095e-22
4.7837012e-31
7.9322362e-33
1.2244157e-23
2.2201553e-20
4.6574786e-19
1.6783497e-18
2.8288239e-18
3.4471809e-18
3.6879475e-18
3.7616745e-18
3.7786519e-18
3.7785869e-18
3.7614856e-18
3.6876539e-18
3.446829e-18
2.8284883e-18
1.6781321e-18
4.6568939e-19
2.2199012e-20
1.2242853e-23
4.1644057e-33
4.8632816e-35
1.2017471e-24
2.8132382e-21
6.5637162e-20
2.4760258e-19
4.2548259e-19
5.2271265e-19
5.6113239e-19
5.7318166e-19
5.7608523e-19
5.7607495e-19
5.7315173e-19
5.6108586e-19
5.2265681e-19
4.2542935e-19
2.4756843e-19
6.5628209e-20
2.8128797e-21
1.2016016e-24
2.9081014e-35
1.000522e-36
1.1422171e-25
3.4515059e-22
8.9548873e-21
3.5357126e-20
6.1937583e-20
7.6702083e-20
8.261306e-20
8.4503909e-20
8.4975832e-20
8.4974259e-20
8.4499323e-20
8.2605936e-20
7.6693508e-20
6.1929407e-20
3.535194e-20
8.9535622e-21
3.4510158e-22
1.1420595e-25
7.9137296e-37
4.8818445e-38
1.0519639e-26
4.102717e-23
1.1835147e-21
4.8904331e-21
8.7323128e-21
1.0899539e-20
1.1777446e-20
1.2062964e-20
1.2136227e-20
1.2135992e-20
1.2062285e-20
1.1776389e-20
1.0898264e-20
8.7310976e-21
4.8896708e-21
1.1833247e-21
4.1020682e-23
1.0517981e-26
3.3345143e-38
)
;

boundaryField
{
    Wall
    {
        type            zeroGradient;
    }
    frontAndBack
    {
        type            empty;
    }
    atmosphere
    {
        type            zeroGradient;
    }
}


// ************************************************************************* //
