/*--------------------------------*- C++ -*----------------------------------*\
| =========                 |                                                 |
| \\      /  F ield         | OpenFOAM: The Open Source CFD Toolbox           |
|  \\    /   O peration     | Version:  3.0.1                                 |
|   \\  /    A nd           | Web:      www.OpenFOAM.org                      |
|    \\/     M anipulation  |                                                 |
\*---------------------------------------------------------------------------*/
FoamFile
{
    version     2.0;
    format      ascii;
    class       volScalarField;
    location    "16";
    object      wCO2_g;
}
// * * * * * * * * * * * * * * * * * * * * * * * * * * * * * * * * * * * * * //

dimensions      [0 0 0 0 0 0 0];

internalField   nonuniform List<scalar> 
800
(
0.0064226371
0.006422902
0.0064229449
0.0064229641
0.0064229779
0.0064229884
0.0064229963
0.0064230018
0.0064230054
0.0064230071
0.0064230071
0.0064230054
0.0064230018
0.0064229963
0.0064229884
0.006422978
0.0064229641
0.0064229449
0.006422902
0.0064226371
0.0060769919
0.0060899074
0.0060910418
0.0060912923
0.0060914788
0.0060916693
0.0060918383
0.0060919673
0.0060920516
0.006092093
0.006092093
0.0060920516
0.0060919673
0.0060918382
0.0060916693
0.0060914788
0.0060912924
0.0060910418
0.0060899075
0.0060769918
0.0054219445
0.0054394631
0.0054496236
0.0054502744
0.0054506536
0.0054510241
0.0054513397
0.005451577
0.0054517312
0.0054518071
0.0054518071
0.0054517312
0.0054515769
0.0054513397
0.0054510241
0.0054506536
0.0054502744
0.0054496237
0.0054394631
0.0054219443
0.0044367464
0.0044633249
0.0044735112
0.0044742981
0.0044748144
0.0044752699
0.0044756362
0.004475901
0.0044760689
0.0044761504
0.0044761504
0.0044760689
0.0044759009
0.0044756361
0.0044752698
0.0044748144
0.0044742981
0.0044735112
0.004463325
0.0044367462
0.0034463214
0.0034802515
0.0034881461
0.0034891997
0.0034898608
0.0034903519
0.0034906911
0.003490911
0.0034910406
0.0034911008
0.0034911008
0.0034910405
0.003490911
0.0034906911
0.0034903519
0.0034898609
0.0034891998
0.0034881463
0.0034802517
0.0034463214
0.0023897473
0.0024403729
0.002447168
0.0024488799
0.0024497884
0.0024503131
0.0024506058
0.0024507465
0.0024508187
0.0024508484
0.0024508484
0.0024508186
0.0024507465
0.0024506059
0.0024503132
0.0024497886
0.0024488801
0.0024471683
0.0024403732
0.0023897475
0.0013013457
0.0013589646
0.0013725025
0.0013745026
0.0013754094
0.0013758173
0.00137599
0.0013760364
0.0013760477
0.0013760419
0.0013760419
0.0013760477
0.0013760364
0.00137599
0.0013758174
0.0013754095
0.0013745029
0.0013725027
0.0013589649
0.0013013459
0.00062050097
0.0006572647
0.00066540395
0.00066696284
0.00066737764
0.0006673936
0.00066729561
0.00066719059
0.00066711007
0.00066705576
0.00066705576
0.00066711006
0.00066719057
0.00066729567
0.00066739374
0.00066737786
0.00066696313
0.00066540423
0.00065726504
0.00062050126
0.00025437856
0.00028949577
0.00029854197
0.00029973658
0.00029935936
0.00029877656
0.00029829294
0.00029797984
0.00029778499
0.00029767777
0.00029767775
0.00029778496
0.00029797978
0.00029829295
0.00029877666
0.00029935953
0.00029973682
0.00029854217
0.00028949602
0.00025437881
7.8503154e-05
0.00011520859
0.00012582732
0.00012761745
0.00012693153
0.00012585132
0.00012494324
0.00012434394
0.00012397896
0.00012379604
0.000123796
0.00012397892
0.00012434384
0.00012494321
0.00012585137
0.00012693161
0.00012761759
0.00012582742
0.00011520872
7.8503289e-05
1.680757e-05
4.0254737e-05
4.9423281e-05
5.1835478e-05
5.1683731e-05
5.083635e-05
4.9986376e-05
4.9373526e-05
4.8985427e-05
4.8793236e-05
4.8793203e-05
4.8985378e-05
4.9373433e-05
4.9986326e-05
5.0836354e-05
5.1683759e-05
5.1835547e-05
4.9423319e-05
4.0254786e-05
1.6807609e-05
2.5567714e-06
1.2192053e-05
1.7835447e-05
1.9895115e-05
2.0152745e-05
1.975101e-05
1.9229333e-05
1.8817189e-05
1.8544385e-05
1.8408113e-05
1.840809e-05
1.8544349e-05
1.8817122e-05
1.922929e-05
1.9750998e-05
2.0152744e-05
1.9895141e-05
1.7835456e-05
1.2192065e-05
2.5567781e-06
2.9488825e-07
3.2055709e-06
5.8880954e-06
7.1695724e-06
7.4849081e-06
7.3621509e-06
7.1167801e-06
6.9033819e-06
6.7559181e-06
6.6813582e-06
6.6813459e-06
6.7558966e-06
6.9033428e-06
7.1167521e-06
7.3621382e-06
7.484899e-06
7.1695796e-06
5.8880953e-06
3.2055715e-06
2.9488916e-07
2.7635419e-08
7.4056761e-07
1.7841128e-06
2.4234557e-06
2.6404809e-06
2.6260041e-06
2.5311149e-06
2.4389552e-06
2.3724791e-06
2.3384543e-06
2.3384484e-06
2.3724683e-06
2.4389355e-06
2.5310997e-06
2.6259957e-06
2.6404732e-06
2.4234562e-06
1.7841117e-06
7.4056704e-07
2.7635523e-08
2.224012e-09
1.5309452e-07
4.9998982e-07
7.7052451e-07
8.8476863e-07
8.9537671e-07
8.6435075e-07
8.2969688e-07
8.035498e-07
7.9000223e-07
7.8999975e-07
8.0354481e-07
8.2968813e-07
8.6434344e-07
8.9537216e-07
8.8476402e-07
7.7052366e-07
4.9998922e-07
1.5309422e-07
2.224023e-09
1.5959485e-10
2.8879411e-08
1.3086935e-07
2.3154812e-07
2.8213849e-07
2.9195869e-07
2.8340478e-07
2.7177976e-07
2.6256113e-07
2.5772318e-07
2.5772223e-07
2.6255904e-07
2.7177624e-07
2.834016e-07
2.9195654e-07
2.8213628e-07
2.3154745e-07
1.3086911e-07
2.8879323e-08
1.5959596e-10
1.0461814e-11
5.0621077e-09
3.2318695e-08
6.6128854e-08
8.5866325e-08
9.1166619e-08
8.9275507e-08
8.5748489e-08
8.278529e-08
8.1207982e-08
8.1207644e-08
8.278448e-08
8.5747182e-08
8.9274248e-08
9.116571e-08
8.586541e-08
6.6128509e-08
3.2318611e-08
5.0620867e-09
1.0461917e-11
6.3661482e-13
8.3779605e-10
7.6010392e-09
1.8044138e-08
2.501716e-08
2.7309433e-08
2.7043945e-08
2.6070098e-08
2.5192125e-08
2.4716967e-08
2.4716855e-08
2.5191834e-08
2.6069644e-08
2.7043484e-08
2.7309076e-08
2.5016822e-08
1.8043993e-08
7.6010123e-09
8.3779167e-10
6.3662306e-13
3.639951e-14
1.3276659e-10
1.7161246e-09
4.725602e-09
6.9970266e-09
7.8615138e-09
7.8855462e-09
7.6410392e-09
7.3995529e-09
7.2661847e-09
7.2661491e-09
7.3994542e-09
7.6408898e-09
7.8853869e-09
7.8613834e-09
6.9969127e-09
4.7255483e-09
1.7161163e-09
1.3276573e-10
3.6400108e-14
1.9775461e-15
2.0390413e-11
3.7427267e-10
1.1920817e-09
1.8829055e-09
2.1779824e-09
2.214908e-09
2.159655e-09
2.0977423e-09
2.0626589e-09
2.062648e-09
2.0977107e-09
2.1596082e-09
2.2148561e-09
2.1779374e-09
1.8828698e-09
1.192064e-09
3.7427015e-10
2.0390249e-11
1.9775844e-15
1.0338228e-16
3.0648953e-12
7.9196811e-11
2.9039297e-10
4.8832132e-10
5.813481e-10
5.9962202e-10
5.8870085e-10
5.7388225e-10
5.6519808e-10
5.6519488e-10
5.7387263e-10
5.8868686e-10
5.9960593e-10
5.8133348e-10
4.8831072e-10
2.9038759e-10
7.9196086e-11
3.0648641e-12
1.0338443e-16
5.283943e-18
4.5403724e-13
1.6303152e-11
6.8421742e-11
1.221891e-10
1.4961543e-10
1.5650905e-10
1.547678e-10
1.5146075e-10
1.4943302e-10
1.4943211e-10
1.5145796e-10
1.5476378e-10
1.565043e-10
1.4961094e-10
1.2218609e-10
6.8420224e-11
1.6302951e-11
4.5403144e-13
5.284047e-18
2.6936546e-19
6.6537883e-14
3.2688969e-12
1.5606321e-11
2.9519587e-11
3.7142995e-11
3.9392943e-11
3.9238226e-11
3.8553436e-11
3.8106329e-11
3.8106076e-11
3.855266e-11
3.923711e-11
3.9391604e-11
3.7141692e-11
2.9518759e-11
1.5605914e-11
3.2688445e-12
6.6536815e-14
2.6936931e-19
1.40035e-20
9.6515206e-15
6.3846533e-13
3.4470268e-12
6.8883022e-12
8.897338e-12
9.562262e-12
9.5928637e-12
9.4627264e-12
9.3696715e-12
9.3696036e-12
9.4625204e-12
9.5925649e-12
9.5619003e-12
8.8969802e-12
6.8880813e-12
3.4469235e-12
6.3845243e-13
9.6513271e-15
1.4003556e-20
7.5634608e-22
1.3831462e-15
1.2139971e-13
7.3727009e-13
1.5528748e-12
2.056879e-12
2.2387777e-12
2.2614637e-12
2.2392916e-12
2.2210534e-12
2.2210357e-12
2.239239e-12
2.2613867e-12
2.2386839e-12
2.0567854e-12
1.5528177e-12
7.3724494e-13
1.2139672e-13
1.3831125e-15
7.5633795e-22
4.2766316e-23
1.9520468e-16
2.245105e-14
1.5268014e-13
3.382588e-13
4.5898476e-13
5.0563115e-13
5.141218e-13
5.1092151e-13
5.075722e-13
5.0756778e-13
5.1090858e-13
5.1410269e-13
5.0560782e-13
4.5896144e-13
3.3824451e-13
1.5267425e-13
2.2450392e-14
1.9519902e-16
4.2765152e-23
2.5159282e-24
2.7033617e-17
4.0342757e-15
3.0608288e-14
7.1205571e-14
9.8882164e-14
1.1018561e-13
1.1273453e-13
1.1241233e-13
1.1184155e-13
1.1184049e-13
1.1240927e-13
1.1272996e-13
1.1018003e-13
9.8876605e-14
7.1202131e-14
3.0606957e-14
4.0341373e-15
2.7032707e-17
2.5158221e-24
1.5165265e-25
3.6617087e-18
7.0376498e-16
5.9394559e-15
1.4488076e-14
2.0572292e-14
2.3174759e-14
2.3850011e-14
2.3856792e-14
2.3768207e-14
2.3767964e-14
2.3856093e-14
2.3848958e-14
2.3173478e-14
2.0571024e-14
1.4487279e-14
5.9391658e-15
7.0373719e-16
3.6615679e-18
1.5164442e-25
9.2082277e-27
4.8381326e-19
1.1910657e-16
1.1155708e-15
2.8499939e-15
4.134634e-15
4.7061993e-15
4.8700002e-15
4.8855985e-15
4.8735854e-15
4.8735317e-15
4.8854448e-15
4.8697669e-15
4.7059167e-15
4.1343561e-15
2.8498164e-15
1.1155098e-15
1.1910121e-16
4.8379226e-19
9.2076469e-27
5.5549496e-28
6.223587e-20
1.954801e-17
2.0282833e-16
5.4218289e-16
8.0307242e-16
9.2317882e-16
9.6024322e-16
9.6591479e-16
9.6465102e-16
9.646396e-16
9.6588223e-16
9.6019355e-16
9.2311889e-16
8.030139e-16
5.4214505e-16
2.0281594e-16
1.9547017e-17
6.2232841e-20
5.5545475e-28
1.6246673e-28
7.7840212e-21
3.1105368e-18
3.5704574e-17
9.9787222e-17
1.5081146e-16
1.7501774e-16
1.8292622e-16
1.8446416e-16
1.8441728e-16
1.8441494e-16
1.8445752e-16
1.8291605e-16
1.7500551e-16
1.507996e-16
9.9779477e-17
3.5702143e-17
3.1103591e-18
7.7835982e-21
1.5656534e-28
4.5354766e-29
9.4585074e-22
4.7986857e-19
6.0870138e-18
1.7775131e-17
2.7396487e-17
3.2084699e-17
3.3687098e-17
3.4048269e-17
3.4072496e-17
3.4072037e-17
3.4046968e-17
3.3685095e-17
3.2082298e-17
2.7394172e-17
1.7773609e-17
6.0865527e-18
4.7983784e-19
9.4579342e-22
4.2051609e-29
8.1876862e-30
1.1161471e-22
7.1782244e-20
1.0053632e-18
3.0659107e-18
4.8169276e-18
5.6909595e-18
6.0007858e-18
6.0779804e-18
6.0876837e-18
6.0875967e-18
6.0777349e-18
6.0004061e-18
5.6905052e-18
4.8164916e-18
3.0656234e-18
1.0052787e-18
7.1777098e-20
1.1160715e-22
7.5446449e-30
9.0293432e-31
1.2789351e-23
1.0414141e-20
1.6093749e-19
5.1230562e-19
8.2016983e-19
9.7724788e-19
1.0346212e-18
1.0499868e-18
1.0525151e-18
1.0524994e-18
1.0499421e-18
1.0345517e-18
9.7716492e-19
8.2009053e-19
5.1225344e-19
1.6092255e-19
1.0413303e-20
1.2788376e-23
8.0521698e-31
5.7216755e-32
1.4231093e-24
1.465826e-21
2.4980548e-20
8.2974689e-20
1.3531481e-19
1.6256225e-19
1.7276607e-19
1.7565108e-19
1.7620489e-19
1.7620215e-19
1.7564321e-19
1.7275383e-19
1.6254763e-19
1.3530086e-19
8.2965561e-20
2.4977994e-20
1.4656938e-21
1.4229866e-24
3.5096801e-32
1.422567e-33
1.5381001e-25
2.0024478e-22
3.7615268e-21
1.3032845e-20
2.1644437e-20
2.6211689e-20
2.7958529e-20
2.8473557e-20
2.8582834e-20
2.858237e-20
2.8472219e-20
2.7956446e-20
2.6209198e-20
2.1642063e-20
1.3031302e-20
3.7611044e-21
2.002245e-22
1.5379491e-25
7.7316508e-34
1.7733423e-35
1.6151801e-26
2.6561016e-23
5.4974111e-22
1.9862915e-21
3.358595e-21
4.0991445e-21
4.3875394e-21
4.4754284e-21
4.4954281e-21
4.4953524e-21
4.4752083e-21
4.387197e-21
4.0987343e-21
3.3582042e-21
1.9860393e-21
5.4967347e-22
2.6557993e-23
1.6149989e-26
9.4480453e-36
1.5522271e-37
1.6485663e-27
3.4223847e-24
7.8019362e-23
2.9389391e-22
5.0585693e-22
6.2211845e-22
6.6810665e-22
6.8249924e-22
6.8594677e-22
6.8593474e-22
6.8246422e-22
6.6805214e-22
6.2205304e-22
5.0579457e-22
2.9385399e-22
7.8008853e-23
3.4219471e-24
1.6483539e-27
9.0622713e-38
3.1808548e-39
1.6361218e-28
4.2856446e-25
1.0757617e-23
4.2239058e-23
7.3994701e-23
9.1682804e-23
9.8775561e-23
1.0104395e-22
1.0160884e-22
1.0160698e-22
1.0103854e-22
9.8767148e-23
9.1672677e-23
7.3985042e-23
4.2232924e-23
1.0756035e-23
4.2850291e-25
1.6358796e-28
2.1306827e-39
1.7396203e-40
1.5795519e-29
5.2181021e-26
1.4418435e-24
5.8998779e-24
1.0517563e-23
1.3127573e-23
1.4186842e-23
1.4531718e-23
1.4620232e-23
1.4619953e-23
1.4530908e-23
1.4185582e-23
1.312605e-23
1.051611e-23
5.8989629e-24
1.4416121e-24
5.2172617e-26
1.5792832e-29
9.4673982e-41
)
;

boundaryField
{
    Wall
    {
        type            zeroGradient;
    }
    frontAndBack
    {
        type            empty;
    }
    atmosphere
    {
        type            zeroGradient;
    }
}


// ************************************************************************* //
