/*--------------------------------*- C++ -*----------------------------------*\
| =========                 |                                                 |
| \\      /  F ield         | OpenFOAM: The Open Source CFD Toolbox           |
|  \\    /   O peration     | Version:  3.0.1                                 |
|   \\  /    A nd           | Web:      www.OpenFOAM.org                      |
|    \\/     M anipulation  |                                                 |
\*---------------------------------------------------------------------------*/
FoamFile
{
    version     2.0;
    format      ascii;
    class       volScalarField;
    location    "16";
    object      wCO2_l;
}
// * * * * * * * * * * * * * * * * * * * * * * * * * * * * * * * * * * * * * //

dimensions      [0 0 0 0 0 0 0];

internalField   nonuniform List<scalar> 
800
(
0.0030563063
0.0030562561
0.003056255
0.0030562567
0.003056258
0.003056259
0.0030562598
0.0030562604
0.0030562608
0.003056261
0.003056261
0.0030562608
0.0030562604
0.0030562598
0.003056259
0.003056258
0.0030562567
0.003056255
0.0030562561
0.0030563063
0.0031842182
0.0031786336
0.003178317
0.0031782353
0.003178149
0.0031780795
0.0031780271
0.0031779908
0.0031779686
0.003177958
0.003177958
0.0031779686
0.0031779909
0.0031780271
0.0031780795
0.003178149
0.0031782353
0.003178317
0.0031786336
0.0031842183
0.0040899341
0.004073475
0.0040649888
0.0040647333
0.0040645948
0.0040644469
0.0040643234
0.0040642332
0.0040641763
0.0040641486
0.0040641486
0.0040641764
0.0040642333
0.0040643236
0.004064447
0.004064595
0.0040647335
0.004064989
0.0040734752
0.0040899345
0.0056506187
0.0056222266
0.0056143938
0.0056140601
0.0056137283
0.0056134213
0.005613187
0.0056130223
0.005612922
0.0056128739
0.005612874
0.0056129222
0.0056130225
0.0056131873
0.0056134216
0.0056137286
0.0056140605
0.0056143942
0.005622227
0.0056506193
0.0071988293
0.0071699738
0.007166802
0.0071667496
0.0071664641
0.007166182
0.007165975
0.0071658281
0.0071657422
0.0071657004
0.0071657005
0.0071657423
0.0071658284
0.0071659753
0.0071661824
0.0071664645
0.0071667501
0.0071668025
0.0071699743
0.0071988299
0.0078668845
0.0079138871
0.0079185885
0.0079206227
0.0079214957
0.0079218955
0.0079220912
0.0079221508
0.007922181
0.0079221898
0.0079221898
0.0079221811
0.0079221509
0.0079220914
0.0079218958
0.007921496
0.0079206231
0.007918589
0.0079138876
0.007866885
0.0055565489
0.0058866288
0.0059852823
0.0059916845
0.0059941851
0.0059951119
0.0059954404
0.0059954725
0.005995452
0.0059954026
0.0059954026
0.005995452
0.0059954725
0.0059954405
0.0059951122
0.0059941856
0.0059916852
0.005985283
0.0058866297
0.0055565498
0.0029702968
0.003175704
0.003230612
0.0032392806
0.003240743
0.0032401259
0.003239162
0.0032384089
0.0032378758
0.0032375357
0.0032375357
0.0032378757
0.0032384088
0.0032391623
0.0032401265
0.0032407439
0.003239282
0.0032306132
0.0031757055
0.0029702985
0.0013744934
0.0015854185
0.0016499004
0.0016622548
0.0016614269
0.00165803
0.001654924
0.0016529398
0.0016516869
0.0016509973
0.0016509971
0.0016516867
0.0016529393
0.001654924
0.0016580304
0.0016614277
0.001662256
0.0016499013
0.0015854198
0.001374495
0.0004775862
0.00071329784
0.00079192832
0.00081065979
0.00080925702
0.00080315109
0.0007973722
0.0007934967
0.00079109239
0.00078987694
0.00078987665
0.00079109206
0.00079349594
0.00079737187
0.00080315123
0.00080925739
0.00081066057
0.00079192877
0.00071329857
0.00047758716
0.00011548932
0.0002825253
0.00035442217
0.00037720977
0.00037890987
0.0003738343
0.00036796377
0.00036362572
0.00036083386
0.00035944168
0.00035944139
0.00036083345
0.0003636249
0.00036796328
0.00037383419
0.00037890987
0.00037721011
0.00035442226
0.00028252553
0.00011548962
1.9918206e-05
9.7684786e-05
0.00014641303
0.00016630125
0.00017023491
0.00016772771
0.00016371286
0.00016043378
0.0001582285
0.00015712078
0.00015712056
0.00015822815
0.00016043312
0.0001637124
0.0001677275
0.00017023474
0.00016630132
0.00014641296
9.7684791e-05
1.9918267e-05
2.6148488e-06
2.9566463e-05
5.5720385e-05
6.9155159e-05
7.3074603e-05
7.2383416e-05
7.0262473e-05
6.8334058e-05
6.6979095e-05
6.6290663e-05
6.6290531e-05
6.6978855e-05
6.8333624e-05
7.0262136e-05
7.2383214e-05
7.3074399e-05
6.9155116e-05
5.5720299e-05
2.9566421e-05
2.6148581e-06
2.8009203e-07
7.9328298e-06
1.9615215e-05
2.7115401e-05
2.9895862e-05
2.9967145e-05
2.9045657e-05
2.8094788e-05
2.7396546e-05
2.7037495e-05
2.7037424e-05
2.7396404e-05
2.809454e-05
2.9045449e-05
2.9967003e-05
2.9895709e-05
2.7115339e-05
1.961516e-05
7.932803e-06
2.8009318e-07
2.5887724e-08
1.9222018e-06
6.4346596e-06
1.004837e-05
1.1651805e-05
1.1883061e-05
1.1546976e-05
1.1137684e-05
1.0822748e-05
1.0658782e-05
1.0658747e-05
1.0822673e-05
1.1137558e-05
1.1546861e-05
1.1882976e-05
1.1651712e-05
1.0048324e-05
6.4346326e-06
1.9221909e-06
2.5887854e-08
2.1462373e-09
4.2907412e-07
1.9839849e-06
3.5319239e-06
4.3298623e-06
4.5105496e-06
4.4094213e-06
4.2521564e-06
4.1246309e-06
4.0573391e-06
4.0573239e-06
4.1245942e-06
4.2520982e-06
4.4093641e-06
4.5105045e-06
4.3298148e-06
3.5318979e-06
1.9839734e-06
4.2907064e-07
2.1462511e-09
1.6379858e-10
8.9817793e-08
5.7965868e-07
1.1818748e-06
1.5362023e-06
1.6389674e-06
1.6162323e-06
1.561658e-06
1.5145636e-06
1.4893281e-06
1.4893219e-06
1.5145473e-06
1.5616331e-06
1.6162063e-06
1.6389458e-06
1.5361808e-06
1.1818624e-06
5.7965435e-07
8.9816849e-08
1.6379992e-10
1.1721365e-11
1.788897e-08
1.6157091e-07
3.7773163e-07
5.2112489e-07
5.7031088e-07
5.6839717e-07
5.5122543e-07
5.3520507e-07
5.2646078e-07
5.2645835e-07
5.3519831e-07
5.5121538e-07
5.6838622e-07
5.7030129e-07
5.2111605e-07
3.777264e-07
1.6156939e-07
1.788874e-08
1.1721476e-11
7.982808e-13
3.4273408e-09
4.3180656e-08
1.1559788e-07
1.6924344e-07
1.9013599e-07
1.9174977e-07
1.8686922e-07
1.8181795e-07
1.7899692e-07
1.7899602e-07
1.8181533e-07
1.868654e-07
1.9174545e-07
1.9013205e-07
1.692401e-07
1.1559586e-07
4.3180157e-08
3.4272887e-09
7.9828886e-13
5.2468451e-14
6.3643092e-10
1.1102087e-08
3.3936709e-08
5.2676842e-08
6.0764135e-08
6.2048298e-08
6.0814364e-08
5.9333073e-08
5.8481237e-08
5.8480917e-08
5.933212e-08
6.0812984e-08
6.2046694e-08
6.0762619e-08
5.2675661e-08
3.3936001e-08
1.1101931e-08
6.3641976e-10
5.2468925e-14
3.3754455e-15
1.1505281e-10
2.7515121e-09
9.5695752e-09
1.5726824e-08
1.8624161e-08
1.9260799e-08
1.8994388e-08
1.8589988e-08
1.8348367e-08
1.8348258e-08
1.8589659e-08
1.8993914e-08
1.9260236e-08
1.8623613e-08
1.5726428e-08
9.5693432e-09
2.7514661e-09
1.150505e-10
3.3754645e-15
2.1552563e-16
2.0286684e-11
6.5800247e-10
2.5941378e-09
4.5070481e-09
5.477351e-09
5.736721e-09
5.6935119e-09
5.5909078e-09
5.5263846e-09
5.5263491e-09
5.5907998e-09
5.6933566e-09
5.7365335e-09
5.4771648e-09
4.5069211e-09
2.5940664e-09
6.5798947e-10
2.0286227e-11
2.1552555e-16
1.3822193e-17
3.4889876e-12
1.5189596e-10
6.7645647e-10
1.2406762e-09
1.5465319e-09
1.6400266e-09
1.6381163e-09
1.6140544e-09
1.5978164e-09
1.5978052e-09
1.6140207e-09
1.6380675e-09
1.6399674e-09
1.5464721e-09
1.2406371e-09
6.7643561e-10
1.5189247e-10
3.4888999e-12
1.3822069e-17
8.9692828e-19
5.8463485e-13
3.385055e-11
1.6976638e-10
3.2825854e-10
4.1946121e-10
4.5023855e-10
4.5255577e-10
4.4740197e-10
4.4355208e-10
4.4354872e-10
4.4739193e-10
4.5254109e-10
4.5022066e-10
4.1944309e-10
3.2824693e-10
1.6976058e-10
3.3849658e-11
5.8461846e-13
8.9691099e-19
5.8953919e-20
9.5298625e-14
7.2824967e-12
4.1023673e-11
8.3530744e-11
1.0935645e-10
1.1876655e-10
1.2011119e-10
1.1912858e-10
1.1827038e-10
1.1826941e-10
1.1912572e-10
1.2010696e-10
1.1876138e-10
1.0935122e-10
8.3527424e-11
4.1022129e-11
7.2822798e-12
9.5295674e-14
5.8952144e-20
3.9066946e-21
1.5087672e-14
1.5125035e-12
9.5500154e-12
2.0457074e-11
2.7423132e-11
3.0123181e-11
3.0644657e-11
3.0488283e-11
3.0309207e-11
3.0308937e-11
3.0487499e-11
3.0643491e-11
3.0121754e-11
2.7421693e-11
2.045616e-11
9.5496203e-12
1.512453e-12
1.508716e-14
3.9065382e-21
2.5891464e-22
2.3169644e-15
3.0329227e-13
2.1428709e-12
4.8252126e-12
6.6196144e-12
7.3517412e-12
7.5214924e-12
7.505148e-12
7.4704659e-12
7.4703941e-12
7.5049415e-12
7.521183e-12
7.3513635e-12
6.6192357e-12
4.824971e-12
2.1427734e-12
3.0328099e-13
2.3168791e-15
2.5890221e-22
1.7013592e-23
3.4479639e-16
5.8731824e-14
4.6373398e-13
1.0969523e-12
1.5393328e-12
1.7278773e-12
1.777376e-12
1.7784453e-12
1.7723133e-12
1.7722952e-12
1.7783931e-12
1.7772972e-12
1.7277814e-12
1.5392374e-12
1.0968909e-12
4.6371081e-13
5.8729404e-14
3.4478266e-16
1.7012671e-23
1.1002574e-24
4.9693186e-17
1.0987051e-14
9.685061e-14
2.4054184e-13
3.4512044e-13
3.9141257e-13
4.0471433e-13
4.060182e-13
4.0506324e-13
4.0505878e-13
4.0600548e-13
4.0469504e-13
3.913892e-13
3.4509738e-13
2.4052687e-13
9.6845294e-14
1.0986552e-14
4.9691047e-17
1.1001932e-24
6.9636369e-26
6.9343696e-18
1.9864427e-15
1.9534067e-14
5.0917306e-14
7.4663627e-14
8.5532298e-14
8.887731e-14
8.9383265e-14
8.9264426e-14
8.926338e-14
8.9380286e-14
8.8872771e-14
8.5526823e-14
7.4658264e-14
5.0913805e-14
1.953289e-14
1.9863433e-15
6.9340471e-18
6.9632028e-26
2.1427117e-26
9.3689784e-19
3.4728366e-16
3.8075723e-15
1.0412518e-14
1.5599564e-14
1.8045795e-14
1.8840382e-14
1.8991534e-14
1.8984398e-14
1.8984162e-14
1.8990863e-14
1.8839355e-14
1.804456e-14
1.5598364e-14
1.0411731e-14
3.8073203e-15
3.4726454e-16
9.3685068e-19
2.0646624e-26
6.525377e-27
1.2258531e-19
5.8743227e-17
7.1776794e-16
2.0587577e-15
3.1502454e-15
3.6791495e-15
3.8585779e-15
3.8980187e-15
3.9000236e-15
3.8999723e-15
3.8978733e-15
3.8583544e-15
3.6788818e-15
3.1499868e-15
2.0585877e-15
7.1771577e-16
5.8739667e-17
1.2257861e-19
6.0472108e-27
1.2888672e-27
1.5537983e-20
9.6197892e-18
1.3095389e-16
3.9387145e-16
6.1540909e-16
7.2546112e-16
7.6415378e-16
7.7355238e-16
7.7459345e-16
7.7458269e-16
7.7352201e-16
7.6410693e-16
7.2540512e-16
6.1535531e-16
3.9383612e-16
1.3094345e-16
9.6191465e-18
1.5537053e-20
1.187153e-27
1.5643978e-28
1.9087715e-21
1.5261157e-18
2.3140266e-17
7.2969086e-17
1.1639196e-16
1.3846432e-16
1.4646008e-16
1.485495e-16
1.4886497e-16
1.4886281e-16
1.4854338e-16
1.464506e-16
1.38453e-16
1.1638115e-16
7.2962009e-17
2.3138247e-17
1.5260028e-18
1.9086453e-21
1.3974489e-28
1.1141562e-29
2.2737279e-22
2.3469745e-19
3.9632128e-18
1.3100465e-17
2.1328712e-17
2.5601797e-17
2.7189528e-17
2.7628148e-17
2.7706956e-17
2.7706539e-17
2.7626956e-17
2.7187677e-17
2.559959e-17
2.132661e-17
1.3099099e-17
3.9628348e-18
2.3467819e-19
2.2735604e-22
7.1341955e-30
3.5592936e-31
2.6277775e-23
3.5011773e-20
6.5835958e-19
2.2809607e-18
3.7898456e-18
4.5893656e-18
4.8930006e-18
4.9806164e-18
4.9982306e-18
4.9981527e-18
4.9803918e-18
4.8926515e-18
4.5889493e-18
3.7894501e-18
2.2807057e-18
6.5829107e-19
3.5008579e-20
2.6275598e-23
2.0939385e-31
7.6213811e-33
2.9481816e-24
5.0697687e-21
1.0614902e-19
3.854275e-19
6.534543e-19
7.9820299e-19
8.5423052e-19
8.7097184e-19
8.7461254e-19
8.745984e-19
8.7093084e-19
8.5416687e-19
7.98127e-19
6.5338226e-19
3.8538143e-19
1.0613698e-19
5.0692532e-21
2.947905e-24
4.317746e-33
1.2025417e-34
3.212841e-25
7.1303228e-22
1.6622553e-20
6.3250203e-20
1.094097e-19
1.3479358e-19
1.4478493e-19
1.4785658e-19
1.4856433e-19
1.4856184e-19
1.4784934e-19
1.4477368e-19
1.3478014e-19
1.0939697e-19
6.3242141e-20
1.6620499e-20
7.1295137e-22
3.2124975e-25
6.8260353e-35
1.6686302e-36
3.4028819e-26
9.7465275e-23
2.52983e-21
1.008709e-20
1.7800888e-20
2.2116913e-20
2.3841271e-20
2.4384028e-20
2.4514723e-20
2.4514296e-20
2.4382786e-20
2.3839343e-20
2.2114605e-20
1.7798703e-20
1.008572e-20
2.5294901e-21
9.7452924e-23
3.4024659e-26
1.0090401e-36
3.1596271e-38
3.5049257e-27
1.2956164e-23
3.7443014e-22
1.5643525e-21
2.8161737e-21
3.5283465e-21
3.8167146e-21
3.90929e-21
3.9323654e-21
3.9322941e-21
3.9090834e-21
3.8163938e-21
3.527961e-21
2.8158092e-21
1.5641265e-21
3.7437548e-22
1.2954331e-23
3.5044352e-27
2.1038136e-38
)
;

boundaryField
{
    Wall
    {
        type            zeroGradient;
    }
    frontAndBack
    {
        type            empty;
    }
    atmosphere
    {
        type            zeroGradient;
    }
}


// ************************************************************************* //
