/*--------------------------------*- C++ -*----------------------------------*\
| =========                 |                                                 |
| \\      /  F ield         | OpenFOAM: The Open Source CFD Toolbox           |
|  \\    /   O peration     | Version:  3.0.1                                 |
|   \\  /    A nd           | Web:      www.OpenFOAM.org                      |
|    \\/     M anipulation  |                                                 |
\*---------------------------------------------------------------------------*/
FoamFile
{
    version     2.0;
    format      ascii;
    class       volScalarField;
    location    "35";
    object      alpha.gas;
}
// * * * * * * * * * * * * * * * * * * * * * * * * * * * * * * * * * * * * * //

dimensions      [0 0 0 0 0 0 0];

internalField   nonuniform List<scalar> 
800
(
2.0209255e-28
2.2319911e-25
4.2713088e-22
8.4523767e-22
2.7282543e-23
1.0371943e-21
9.2501824e-22
6.6654341e-23
6.4075612e-25
2.6572765e-27
3.0209604e-23
2.9188948e-23
1.1052374e-24
6.8431608e-23
6.5989253e-23
1.5144778e-27
5.6853973e-32
2.4587268e-35
4.8409097e-39
9.0437861e-43
1.1540172e-12
2.7095751e-13
1.812049e-11
6.9142106e-12
4.214213e-13
8.5458078e-12
6.8909898e-12
8.2411441e-12
1.6716899e-11
4.2051174e-11
2.1181551e-11
2.1007814e-11
1.1349704e-11
6.7550225e-12
6.2801423e-12
1.215458e-12
1.83831e-15
1.0841125e-13
3.5485387e-12
5.029825e-15
1.0489167e-08
9.9055245e-09
9.5670784e-09
9.517233e-09
9.4555583e-09
9.4526197e-09
9.4555365e-09
9.4646735e-09
9.4791033e-09
9.506622e-09
9.4867293e-09
9.4832122e-09
9.4676676e-09
9.455449e-09
9.4505198e-09
9.4563879e-09
9.5107449e-09
9.550145e-09
9.9087701e-09
1.0488321e-08
1.913913e-08
1.8086723e-08
1.7674961e-08
1.7522157e-08
1.7557919e-08
1.7522349e-08
1.7517351e-08
1.7526038e-08
1.7362456e-08
1.7383078e-08
1.7370026e-08
1.7365177e-08
1.7528053e-08
1.751735e-08
1.7521044e-08
1.7558565e-08
1.7518001e-08
1.7664034e-08
1.808911e-08
1.9138835e-08
5.0336099e-08
4.2932387e-08
3.984752e-08
3.8780059e-08
3.8299644e-08
3.8185116e-08
3.8158044e-08
3.8165711e-08
3.8310537e-08
3.8331481e-08
3.8321395e-08
3.8312698e-08
3.8167362e-08
3.815817e-08
3.8184287e-08
3.8300384e-08
3.8777066e-08
3.9839247e-08
4.2934984e-08
5.033649e-08
1.0666174e-07
9.3110369e-08
8.6779834e-08
8.4684699e-08
8.3889743e-08
8.3649546e-08
8.3598683e-08
8.3617898e-08
8.3704444e-08
8.3736613e-08
8.3725994e-08
8.3706816e-08
8.3619811e-08
8.3599028e-08
8.3648957e-08
8.3890918e-08
8.4681924e-08
8.6771609e-08
9.3114094e-08
1.0666307e-07
1.9176124e-07
1.6824926e-07
1.5618187e-07
1.5243361e-07
1.5113752e-07
1.5072827e-07
1.5065019e-07
1.506893e-07
1.5075159e-07
1.5080023e-07
1.5078905e-07
1.5075422e-07
1.5069155e-07
1.5065085e-07
1.5072804e-07
1.5113926e-07
1.524312e-07
1.5617397e-07
1.6825445e-07
1.9176383e-07
3.1097309e-07
2.7398062e-07
2.5285966e-07
2.4641847e-07
2.4436475e-07
2.4373501e-07
2.4362547e-07
2.4369381e-07
2.4379044e-07
2.4386127e-07
2.4384987e-07
2.4379329e-07
2.4369642e-07
2.4362655e-07
2.4373531e-07
2.443672e-07
2.4641671e-07
2.5285268e-07
2.7398753e-07
3.1097725e-07
4.7008265e-07
4.1668565e-07
3.82174e-07
3.711701e-07
3.6809752e-07
3.6719784e-07
3.6705288e-07
3.6716144e-07
3.6731094e-07
3.6741168e-07
3.6740029e-07
3.6731403e-07
3.6716446e-07
3.670545e-07
3.6719882e-07
3.6810083e-07
3.7116924e-07
3.8216848e-07
4.1669461e-07
4.7008862e-07
6.7610419e-07
6.0515542e-07
5.4906714e-07
5.3107901e-07
5.26832e-07
5.2558457e-07
5.2538382e-07
5.2556578e-07
5.2579698e-07
5.2592639e-07
5.2591511e-07
5.2580027e-07
5.2556919e-07
5.2538617e-07
5.2558646e-07
5.2683635e-07
5.3107929e-07
5.4906339e-07
6.0516697e-07
6.7611223e-07
9.3568674e-07
8.3895817e-07
7.5292659e-07
7.2998569e-07
7.2428555e-07
7.2253967e-07
7.2255983e-07
7.2297009e-07
7.2314723e-07
7.2319976e-07
7.231887e-07
7.2315115e-07
7.2297287e-07
7.225614e-07
7.2254214e-07
7.2429094e-07
7.2998713e-07
7.5292447e-07
8.3897178e-07
9.3569688e-07
1.2441907e-06
1.0970206e-06
1.0053631e-06
9.7795128e-07
9.6307e-07
9.6224477e-07
9.6308973e-07
9.6161368e-07
9.6011975e-07
9.6148863e-07
9.614774e-07
9.6013406e-07
9.616301e-07
9.6309182e-07
9.6224737e-07
9.6307692e-07
9.7795221e-07
1.0053626e-06
1.0970346e-06
1.2442026e-06
1.5920269e-06
1.4289366e-06
1.3860385e-06
1.2690694e-06
1.2370334e-06
1.2383947e-06
1.2268578e-06
1.2242002e-06
1.2315199e-06
1.2479081e-06
1.2478666e-06
1.231476e-06
1.2242755e-06
1.2269607e-06
1.2384532e-06
1.2370532e-06
1.2690858e-06
1.3860406e-06
1.4289527e-06
1.5920409e-06
2.0165749e-06
2.0371931e-06
1.8652656e-06
1.5730945e-06
1.6230838e-06
1.6007954e-06
1.5358074e-06
1.6192235e-06
1.787538e-06
1.623112e-06
1.6233681e-06
1.7863341e-06
1.6181505e-06
1.5355361e-06
1.6000885e-06
1.6229337e-06
1.5731047e-06
1.8652921e-06
2.0372207e-06
2.0165906e-06
2.5612972e-06
2.5656027e-06
2.0595657e-06
1.9745173e-06
2.1064471e-06
2.298039e-06
4.3322658e-06
3.2358635e-06
2.7759172e-06
1.9457169e-06
1.9460608e-06
2.7779837e-06
3.2304872e-06
4.3103083e-06
2.297016e-06
2.1064693e-06
1.9745112e-06
2.0595706e-06
2.565622e-06
2.5613134e-06
3.1355401e-06
2.633842e-06
2.3391111e-06
2.4288367e-06
2.4657935e-06
3.4953502e-06
6.0568073e-06
5.0495514e-06
2.6363091e-06
2.3342741e-06
2.3337141e-06
2.6401165e-06
5.0558743e-06
6.0732358e-06
3.4971092e-06
2.4660412e-06
2.4289065e-06
2.3391205e-06
2.6338564e-06
3.1355627e-06
4.0594455e-06
3.4036602e-06
2.871148e-06
2.8931747e-06
3.7769182e-06
6.5552396e-06
6.0847526e-06
4.1401708e-06
2.6107962e-06
2.844534e-06
2.8443332e-06
2.6141046e-06
4.147147e-06
6.103305e-06
6.5646574e-06
3.7783801e-06
2.8931491e-06
2.8711874e-06
3.4037058e-06
4.0595056e-06
5.2286827e-06
1.4628377e-05
5.8740088e-06
6.2364625e-06
1.1151878e-05
9.4545127e-06
3.7571889e-06
3.5039005e-06
2.7503317e-06
3.3234067e-06
3.3235862e-06
2.749724e-06
3.5057657e-06
3.7712477e-06
9.4577146e-06
1.1157229e-05
6.2351008e-06
5.8739393e-06
1.4629009e-05
5.228743e-06
1.860484e-05
3.3079739e-05
2.8237987e-05
2.9380829e-05
2.8265985e-05
1.4540534e-05
4.6477932e-06
3.5373411e-06
3.737172e-06
3.860003e-06
3.8601645e-06
3.7383807e-06
3.5388623e-06
4.6576968e-06
1.4508642e-05
2.8257094e-05
2.9377943e-05
2.8237727e-05
3.3079913e-05
1.8604906e-05
3.3079702e-05
3.30796e-05
3.3079614e-05
3.3079459e-05
1.8150011e-05
1.3320118e-05
7.2390002e-06
3.5724697e-06
4.2990517e-06
4.3660982e-06
4.3657848e-06
4.299695e-06
3.5736118e-06
7.1848476e-06
1.3340477e-05
1.8148456e-05
3.3079634e-05
3.3079789e-05
3.3079775e-05
3.3079876e-05
3.30796e-05
3.3079802e-05
3.3079497e-05
2.6361188e-05
6.6190018e-06
6.0978819e-06
4.4145856e-06
4.1582767e-06
1.0431382e-05
8.2849141e-06
8.2605558e-06
1.042213e-05
4.1171947e-06
4.3654252e-06
6.1140872e-06
6.6184595e-06
2.6360979e-05
3.3079672e-05
3.3079977e-05
3.3079775e-05
3.307978e-05
3.3079612e-05
3.3079737e-05
8.8370968e-06
5.2849208e-06
5.1839614e-06
5.0706181e-06
4.7464985e-06
1.3475226e-05
1.3476939e-05
1.3475267e-05
1.3476903e-05
4.718151e-06
5.0349143e-06
5.1500005e-06
5.2537041e-06
8.8367892e-06
3.3079911e-05
3.3079786e-05
3.3079954e-05
3.307974e-05
3.3079867e-05
2.558677e-05
5.4340955e-06
5.3700459e-06
5.596988e-06
1.0691844e-05
1.3368662e-05
1.1784845e-05
1.3475848e-05
1.3476849e-05
1.1801206e-05
1.343562e-05
1.0781895e-05
5.5913052e-06
5.3427271e-06
5.4265279e-06
2.5589801e-05
3.3080042e-05
3.3079915e-05
3.3079726e-05
3.3079566e-05
1.1661696e-05
6.668174e-06
1.6120855e-05
1.7574154e-05
1.8734941e-05
1.8733428e-05
1.0758733e-05
1.1136455e-05
1.1134612e-05
1.0761387e-05
1.8741191e-05
1.8742705e-05
1.7578702e-05
1.6176733e-05
6.6765378e-06
1.1661769e-05
3.3079741e-05
3.3079901e-05
3.3079407e-05
3.3079701e-05
1.4748649e-05
1.8698859e-05
1.8733481e-05
1.8734843e-05
1.8733556e-05
1.8734836e-05
1.1901815e-05
1.0587294e-05
1.0587718e-05
1.1862295e-05
1.8742601e-05
1.8741321e-05
1.8742609e-05
1.8741245e-05
1.8706024e-05
1.4746013e-05
3.3079875e-05
3.3079582e-05
2.4394218e-05
1.7488586e-05
1.9096003e-05
1.1266121e-05
1.8734782e-05
1.8733456e-05
1.8734899e-05
1.8733451e-05
1.8734744e-05
1.0587713e-05
1.0587289e-05
1.8742513e-05
1.8741215e-05
1.8742653e-05
1.8741219e-05
1.874255e-05
1.126643e-05
1.9093406e-05
1.7485969e-05
2.439657e-05
1.1265556e-05
1.1265202e-05
1.9100581e-05
1.1262803e-05
1.8733311e-05
1.8734782e-05
1.8733452e-05
1.8734782e-05
1.8733324e-05
1.1920817e-05
1.1962374e-05
1.874104e-05
1.874255e-05
1.8741215e-05
1.874255e-05
1.8741061e-05
1.1263107e-05
1.909798e-05
1.1265505e-05
1.1265859e-05
1.1264558e-05
1.1263683e-05
1.7854909e-05
1.1261901e-05
1.5541405e-05
1.8320358e-05
1.8734782e-05
1.592312e-05
1.1673378e-05
1.5215676e-05
1.52171e-05
1.1691311e-05
1.5887963e-05
1.8742551e-05
1.8330151e-05
1.5517551e-05
1.1262204e-05
1.7857929e-05
1.1263986e-05
1.1264861e-05
1.1263652e-05
1.126278e-05
1.1261908e-05
1.1260915e-05
1.1261633e-05
1.1262552e-05
1.292836e-05
1.1264332e-05
1.1265174e-05
1.5217059e-05
1.5215634e-05
1.1265476e-05
1.1264634e-05
1.2909923e-05
1.1262855e-05
1.1261935e-05
1.1261218e-05
1.1262211e-05
1.1263083e-05
1.1263955e-05
1.1262731e-05
1.1261816e-05
1.1260907e-05
1.126e-05
1.1260665e-05
1.1261541e-05
1.1262461e-05
1.1263359e-05
1.1264262e-05
1.2174105e-05
1.2170002e-05
1.1264565e-05
1.1263661e-05
1.1262764e-05
1.1261844e-05
1.1260967e-05
1.1260303e-05
1.126121e-05
1.1262119e-05
1.1263034e-05
1.1262455e-05
1.1261453e-05
1.1260458e-05
1.1259472e-05
1.1259967e-05
1.1260786e-05
1.1261737e-05
1.1262687e-05
1.1263665e-05
1.1264658e-05
1.1264961e-05
1.1263968e-05
1.126299e-05
1.1262039e-05
1.1261088e-05
1.126027e-05
1.1259775e-05
1.1260761e-05
1.1261756e-05
1.1262758e-05
1.1262946e-05
1.1261857e-05
1.1260772e-05
1.1259694e-05
1.1260004e-05
1.1260749e-05
1.1261706e-05
1.1262676e-05
1.1263693e-05
1.126471e-05
1.1265013e-05
1.1263996e-05
1.1262979e-05
1.1262009e-05
1.1261052e-05
1.1260306e-05
1.1259997e-05
1.1261075e-05
1.126216e-05
1.1263249e-05
2.7968756e-05
1.1262957e-05
1.1261736e-05
1.12606e-05
1.1260784e-05
1.1261468e-05
1.1262406e-05
1.1263377e-05
1.1264409e-05
1.1265437e-05
1.126574e-05
1.1264712e-05
1.126368e-05
1.1262709e-05
1.1261771e-05
1.1261087e-05
1.1260903e-05
1.1262039e-05
1.126326e-05
2.7964679e-05
0.00039365323
7.0778846e-05
1.6839437e-05
1.1729679e-05
1.126199e-05
1.126262e-05
1.1263558e-05
1.1264528e-05
1.1265559e-05
1.1266587e-05
1.126689e-05
1.1265862e-05
1.1264831e-05
1.1263861e-05
1.1262923e-05
1.1262293e-05
1.1729559e-05
1.6838589e-05
7.0766264e-05
0.00039356683
0.011353928
0.0012037007
0.00020650565
9.871798e-05
6.9775181e-05
5.9199352e-05
5.5018923e-05
5.3266458e-05
5.209483e-05
5.1631934e-05
5.1631539e-05
5.209415e-05
5.3265368e-05
5.5017527e-05
5.9197193e-05
6.9771925e-05
9.8711739e-05
0.00020648498
0.0012034877
0.011350694
0.32411993
0.035343296
0.0053877767
0.0021930427
0.0014348784
0.001168971
0.0010705273
0.001027009
0.00099805131
0.00098445241
0.00098444711
0.00099803691
0.0010269833
0.0010704934
0.0011689205
0.001434792
0.0021928542
0.005387137
0.035336961
0.32407343
0.88737753
0.50437618
0.21941414
0.11386668
0.075140485
0.060547126
0.054484294
0.05149406
0.04977538
0.049010889
0.049010634
0.049774599
0.051492449
0.054482186
0.060544068
0.075135981
0.11385833
0.21939805
0.50434549
0.8873564
0.99731548
0.94859038
0.83347423
0.74630661
0.68294196
0.64696511
0.62986433
0.62090902
0.61508872
0.61226029
0.61225936
0.61508588
0.62090412
0.62985817
0.64695682
0.68293181
0.74629541
0.83346384
0.94858326
0.99731454
0.9999953
0.9993116
0.99448122
0.98749586
0.98118707
0.97697889
0.97478456
0.97359144
0.97277577
0.97236936
0.97236923
0.97277536
0.97359078
0.97478375
0.97697786
0.98118597
0.98749488
0.99448055
0.99931145
0.9999953
1
0.99999933
0.99998466
0.99994109
0.99988263
0.99983832
0.99981323
0.99979945
0.99979017
0.99978568
0.99978568
0.99979016
0.99979945
0.99981322
0.9998383
0.99988261
0.99994108
0.99998466
0.99999933
1
)
;

boundaryField
{
    Wall
    {
        type            zeroGradient;
    }
    frontAndBack
    {
        type            empty;
    }
    atmosphere
    {
        type            zeroGradient;
    }
}


// ************************************************************************* //
