/*--------------------------------*- C++ -*----------------------------------*\
| =========                 |                                                 |
| \\      /  F ield         | OpenFOAM: The Open Source CFD Toolbox           |
|  \\    /   O peration     | Version:  3.0.1                                 |
|   \\  /    A nd           | Web:      www.OpenFOAM.org                      |
|    \\/     M anipulation  |                                                 |
\*---------------------------------------------------------------------------*/
FoamFile
{
    version     2.0;
    format      ascii;
    class       volScalarField;
    location    "35";
    object      g1_BA;
}
// * * * * * * * * * * * * * * * * * * * * * * * * * * * * * * * * * * * * * //

dimensions      [0 0 0 0 0 0 0];

internalField   nonuniform List<scalar> 
800
(
0.50722675
0.50721494
0.50718421
0.50716768
0.50715897
0.50715444
0.50715203
0.50715073
0.50715005
0.50714977
0.50714977
0.50715006
0.50715073
0.50715203
0.50715444
0.50715897
0.50716769
0.50718421
0.50721495
0.50722675
0.5149159
0.51464698
0.51455639
0.51452626
0.51451684
0.51451425
0.51451363
0.51451345
0.51451335
0.5145133
0.5145133
0.51451335
0.51451346
0.51451363
0.51451425
0.51451684
0.51452627
0.51455641
0.51464699
0.51491593
0.51712983
0.51681361
0.51671654
0.51669089
0.51668473
0.51668338
0.51668273
0.51668205
0.51668143
0.51668108
0.51668107
0.51668143
0.51668205
0.51668273
0.51668338
0.51668473
0.5166909
0.51671655
0.51681362
0.51712984
0.51508176
0.51487713
0.51483242
0.51483361
0.51483918
0.51484188
0.51484188
0.51484065
0.51483931
0.51483853
0.51483853
0.51483931
0.51484064
0.51484187
0.51484187
0.51483917
0.5148336
0.51483241
0.51487711
0.51508174
0.50950857
0.50956023
0.50961317
0.5096583
0.50968263
0.509692
0.50969344
0.50969176
0.50968959
0.50968827
0.50968827
0.50968958
0.50969174
0.50969342
0.50969198
0.5096826
0.50965826
0.50961312
0.50956019
0.5095085
0.50088916
0.50131337
0.5014987
0.50160066
0.50164902
0.50166712
0.50167074
0.50166884
0.50166587
0.50166401
0.501664
0.50166585
0.50166881
0.5016707
0.50166707
0.50164897
0.5016006
0.50149862
0.50131329
0.50088905
0.48964755
0.49053437
0.49087744
0.49104482
0.49112022
0.49114816
0.49115438
0.4911524
0.49114866
0.49114626
0.49114625
0.49114863
0.49115237
0.49115433
0.49114809
0.49112014
0.49104472
0.49087733
0.49053425
0.48964739
0.47622437
0.47763714
0.4781548
0.47839246
0.47849588
0.47853377
0.47854256
0.47854045
0.47853589
0.47853294
0.47853293
0.47853586
0.4785404
0.4785425
0.47853369
0.47849578
0.47839234
0.47815465
0.47763698
0.47622418
0.46098367
0.46300476
0.46371706
0.4640288
0.46416118
0.4642091
0.46422038
0.46421804
0.46421262
0.46420908
0.46420907
0.46421258
0.46421799
0.4642203
0.46420899
0.46416105
0.46402865
0.46371689
0.46300457
0.46098343
0.44404612
0.44672772
0.44765013
0.44803718
0.44819786
0.44825549
0.44826919
0.44826669
0.44826044
0.44825635
0.44825634
0.44826039
0.44826662
0.4482691
0.44825537
0.44819771
0.44803701
0.44764994
0.4467275
0.44404587
0.42555617
0.42897491
0.43013868
0.43060232
0.43078923
0.43085571
0.43087191
0.43086928
0.43086214
0.43085747
0.43085746
0.43086209
0.4308692
0.43087181
0.43085557
0.43078907
0.43060214
0.43013847
0.42897468
0.4255559
0.40777491
0.40983176
0.4112657
0.41180548
0.4120108
0.41208252
0.41210172
0.41209943
0.4120916
0.41208648
0.41208646
0.41209155
0.41209935
0.4121016
0.41208237
0.41201063
0.41180528
0.41126548
0.40983152
0.40777465
0.38869129
0.39326327
0.39479286
0.39538727
0.39561522
0.39569199
0.39570798
0.39570296
0.39569321
0.39568703
0.39568701
0.39569316
0.39570287
0.39570786
0.39569185
0.39561504
0.39538708
0.39479264
0.39326303
0.38869104
0.36939289
0.37457119
0.37631858
0.37697863
0.37722367
0.37730356
0.37731962
0.37731332
0.37730215
0.3772951
0.37729509
0.3773021
0.37731323
0.3773195
0.37730342
0.3772235
0.37697844
0.37631837
0.37457097
0.36939264
0.35010081
0.35588121
0.35784812
0.35857357
0.35883423
0.35891621
0.35893208
0.3589244
0.35891182
0.35890389
0.35890387
0.35891176
0.35892431
0.35893196
0.35891606
0.35883406
0.35857338
0.35784791
0.35588099
0.35010057
0.33100358
0.33737739
0.33956797
0.34036003
0.34063604
0.34071945
0.34073411
0.34072472
0.34071065
0.34070181
0.34070179
0.34071059
0.34072463
0.340734
0.34071931
0.34063588
0.34035985
0.33956777
0.33737719
0.33100336
0.3122207
0.31917687
0.32159825
0.32246147
0.32275434
0.322839
0.32285112
0.32283971
0.32282414
0.3228144
0.32281438
0.32282409
0.32283962
0.32285101
0.32283887
0.32275418
0.3224613
0.32159806
0.31917668
0.3122205
0.29386354
0.30138769
0.30405112
0.30499199
0.30530428
0.30538971
0.30539779
0.30538382
0.30536673
0.30535601
0.305356
0.30536668
0.30538374
0.30539768
0.30538958
0.30530413
0.30499183
0.30405095
0.30138752
0.29386336
0.27600335
0.28408616
0.28700599
0.28803375
0.28836883
0.28845423
0.2884566
0.28843905
0.28842015
0.28840823
0.28840822
0.2884201
0.28843897
0.2884565
0.28845412
0.2883687
0.28803361
0.28700583
0.28408601
0.27600319
0.25868901
0.26732221
0.27052054
0.27164902
0.27201201
0.27209736
0.27209269
0.27207036
0.27204944
0.27203604
0.27203602
0.2720494
0.27207029
0.2720926
0.27209725
0.27201189
0.2716489
0.27052041
0.26732207
0.25868888
0.24192084
0.25110221
0.25460633
0.25585375
0.25625171
0.25633775
0.25632489
0.25629632
0.25627305
0.25625783
0.25625782
0.25627301
0.25629625
0.25632481
0.25633766
0.2562516
0.25585364
0.25460621
0.2511021
0.24192073
0.2257363
0.23546044
0.23930411
0.24069328
0.24113543
0.24122349
0.24120094
0.2411641
0.24113776
0.24112021
0.2411202
0.24113773
0.24116404
0.24120087
0.24122341
0.24113534
0.24069318
0.23930401
0.23546035
0.22573622
0.21002115
0.2202977
0.224522
0.22608132
0.22658166
0.22667533
0.22664225
0.2265951
0.22656485
0.22654441
0.2265444
0.22656481
0.22659505
0.22664219
0.22667526
0.22658158
0.22608124
0.22452192
0.22029763
0.21002109
0.19486532
0.20569717
0.21036201
0.21213537
0.21270797
0.2128095
0.21276302
0.21270158
0.21266476
0.21264018
0.21264017
0.21266473
0.21270153
0.21276297
0.21280944
0.21270791
0.21213532
0.21036195
0.20569713
0.19486531
0.17999042
0.19139825
0.19654377
0.19856386
0.19923939
0.19936225
0.19930713
0.1992326
0.19919
0.19916178
0.19916177
0.19918998
0.19923256
0.19930709
0.19936221
0.19923935
0.19856383
0.19654374
0.19139823
0.17999044
0.16554632
0.17755105
0.18324638
0.18557102
0.18637258
0.18652198
0.18645429
0.18636021
0.18630647
0.18627194
0.18627193
0.18630645
0.18636017
0.18645426
0.18652195
0.18637255
0.18557101
0.18324637
0.17755107
0.16554637
0.15136195
0.16398753
0.17030492
0.17299647
0.17396312
0.17415569
0.17407879
0.17396323
0.17389587
0.17385369
0.17385368
0.17389585
0.1739632
0.17407876
0.17415567
0.1739631
0.17299647
0.17030494
0.16398758
0.15136204
0.13734431
0.15061666
0.15763762
0.16077013
0.16194954
0.1622063
0.16212448
0.16198465
0.16189985
0.16184781
0.1618478
0.16189984
0.16198462
0.16212446
0.16220629
0.16194954
0.16077016
0.15763766
0.15061675
0.13734445
0.12339161
0.13733402
0.14514759
0.14880821
0.15025983
0.15060955
0.15053019
0.15036347
0.1502566
0.15019175
0.15019174
0.15025658
0.15036344
0.15053018
0.15060955
0.15025984
0.14880825
0.14514767
0.13733416
0.1233918
0.10939869
0.12402342
0.13272476
0.13701607
0.13881401
0.13929671
0.13923285
0.13903757
0.13890326
0.13882188
0.13882188
0.13890325
0.13903755
0.13923285
0.13929672
0.13881404
0.13701613
0.13272487
0.12402362
0.10939896
0.095264761
0.1105574
0.12024158
0.12528282
0.12752087
0.12819151
0.12816404
0.12794153
0.12777373
0.12767114
0.12767113
0.12777372
0.12794151
0.12816404
0.12819153
0.12752091
0.1252829
0.12024173
0.11055767
0.095265109
0.080912902
0.096802597
0.1075524
0.11347731
0.11627723
0.11721206
0.11725197
0.11700833
0.11680039
0.11667072
0.11667072
0.11680038
0.11700832
0.11725198
0.11721209
0.11627729
0.11347741
0.1075526
0.096802948
0.080913352
0.066317339
0.082637458
0.09449003
0.10145302
0.10496755
0.10627271
0.10643135
0.10617287
0.10591785
0.10575368
0.10575367
0.10591784
0.10617287
0.10643137
0.10627275
0.10496762
0.10145315
0.09449027
0.082637905
0.066317917
0.051558503
0.067962578
0.080890365
0.089045932
0.093463027
0.095291347
0.095638216
0.095379678
0.095070686
0.09486242
0.094862415
0.095070684
0.095379679
0.095638239
0.095291392
0.093463111
0.089046095
0.080890666
0.067963095
0.051559201
0.036732983
0.052765586
0.066609677
0.076080629
0.081625815
0.084168924
0.084816484
0.084594024
0.084224742
0.083959827
0.083959824
0.084224744
0.084594033
0.084816517
0.084168981
0.081625919
0.076080822
0.06661002
0.052766162
0.036733789
0.022506167
0.037000729
0.051441956
0.062291452
0.069247279
0.072769043
0.073894039
0.07376634
0.073336833
0.072999981
0.072999979
0.073336841
0.073766361
0.073894081
0.072769116
0.069247408
0.062291685
0.051442353
0.037001368
0.022506967
0
0
0.035497577
0.047362766
0.055818342
0.060576278
0.062404698
0.062507575
0.062029012
0.061603522
0.061603523
0.062029026
0.062507604
0.062404747
0.060576364
0.05581849
0.047363021
0.035497985
0
0
0
0
0
0
0
0
0
0
0
0
0
0
0
0
0
0
0
0
0
0
0
0
0
0
0
0
0
0
0
0
0
0
0
0
0
0
0
0
0
0
0
0
0
0
0
0
0
0
0
0
0
0
0
0
0
0
0
0
0
0
)
;

boundaryField
{
    Wall
    {
        type            zeroGradient;
    }
    frontAndBack
    {
        type            empty;
    }
    atmosphere
    {
        type            zeroGradient;
    }
}


// ************************************************************************* //
