/*--------------------------------*- C++ -*----------------------------------*\
| =========                 |                                                 |
| \\      /  F ield         | OpenFOAM: The Open Source CFD Toolbox           |
|  \\    /   O peration     | Version:  3.0.1                                 |
|   \\  /    A nd           | Web:      www.OpenFOAM.org                      |
|    \\/     M anipulation  |                                                 |
\*---------------------------------------------------------------------------*/
FoamFile
{
    version     2.0;
    format      ascii;
    class       volScalarField;
    location    "35";
    object      g1_CO2;
}
// * * * * * * * * * * * * * * * * * * * * * * * * * * * * * * * * * * * * * //

dimensions      [0 0 0 0 0 0 0];

internalField   nonuniform List<scalar> 
800
(
0.45357192
0.45362349
0.45361626
0.45360573
0.45359868
0.4535948
0.45359279
0.4535918
0.45359134
0.45359116
0.45359116
0.45359134
0.4535918
0.4535928
0.4535948
0.45359868
0.45360573
0.45361627
0.45362349
0.45357192
0.47067305
0.47031993
0.47026729
0.47026355
0.47026834
0.4702722
0.47027387
0.47027407
0.47027372
0.47027341
0.47027341
0.47027372
0.47027407
0.47027387
0.4702722
0.47026834
0.47026356
0.47026729
0.47031993
0.47067306
0.48510454
0.48454228
0.484437
0.48443016
0.48443764
0.48444321
0.48444509
0.48444472
0.48444369
0.48444293
0.48444294
0.48444369
0.48444472
0.48444509
0.48444321
0.48443764
0.48443015
0.484437
0.48454227
0.48510453
0.49889552
0.49807985
0.49792626
0.49791562
0.49792397
0.49793029
0.49793204
0.49793121
0.49792968
0.49792864
0.49792864
0.49792968
0.4979312
0.49793204
0.49793029
0.49792397
0.49791562
0.49792625
0.49807984
0.4988955
0.51255592
0.5114472
0.51123745
0.51121988
0.51122837
0.51123556
0.51123743
0.51123647
0.51123469
0.51123349
0.51123349
0.51123469
0.51123647
0.51123743
0.51123556
0.51122837
0.51121988
0.51123744
0.51144718
0.51255589
0.52632742
0.52487491
0.52458906
0.52455571
0.52456208
0.5245697
0.52457179
0.524571
0.52456922
0.52456802
0.52456802
0.52456922
0.524571
0.5245718
0.5245697
0.52456208
0.52455571
0.52458905
0.52487489
0.52632737
0.54053133
0.5386509
0.53825906
0.5381952
0.53819465
0.53820112
0.53820298
0.53820238
0.53820071
0.5381996
0.5381996
0.53820072
0.53820239
0.53820298
0.53820113
0.53819465
0.53819519
0.53825905
0.53865088
0.54053128
0.5556286
0.55318639
0.55264686
0.55253311
0.55251879
0.5525212
0.55252159
0.55252077
0.55251908
0.55251805
0.55251805
0.55251909
0.55252078
0.55252161
0.55252121
0.5525188
0.55253312
0.55264685
0.55318637
0.55562854
0.5721523
0.5690026
0.56826643
0.56808069
0.5680444
0.56803922
0.56803637
0.56803449
0.56803242
0.56803134
0.56803134
0.56803243
0.5680345
0.56803639
0.56803923
0.56804442
0.5680807
0.56826643
0.56900258
0.57215225
0.59042635
0.58637838
0.58538053
0.58509716
0.58502741
0.58500978
0.58500125
0.5849971
0.58499417
0.58499286
0.58499286
0.58499419
0.58499713
0.58500128
0.5850098
0.58502744
0.58509718
0.58538054
0.58637837
0.5904263
0.61084175
0.6057285
0.60440748
0.60399867
0.60387941
0.6038415
0.60382351
0.6038149
0.60380999
0.60380793
0.60380794
0.60381001
0.60381493
0.60382356
0.60384155
0.60387945
0.60399871
0.60440751
0.60572851
0.61084172
0.63635722
0.62724455
0.62553718
0.62497699
0.62478505
0.62471544
0.62468509
0.62467067
0.62466352
0.62466059
0.6246606
0.62466355
0.62467071
0.62468515
0.6247155
0.62478511
0.62497704
0.62553723
0.62724458
0.63635724
0.66429451
0.65602898
0.65357335
0.65279487
0.65250329
0.65238538
0.65232925
0.65230205
0.65228986
0.6522848
0.65228482
0.6522899
0.65230211
0.65232934
0.65238546
0.65250339
0.65279496
0.65357344
0.65602905
0.66429456
0.69646539
0.6860124
0.68286541
0.68185172
0.68141812
0.68122927
0.68114707
0.68110409
0.68108379
0.68107594
0.68107596
0.68108384
0.68110417
0.68114717
0.68122938
0.68141824
0.68185184
0.68286553
0.68601251
0.69646549
0.73357198
0.72073585
0.71673785
0.71544323
0.71482433
0.71454399
0.71442651
0.71436056
0.71432418
0.71431222
0.71431224
0.71432424
0.71436065
0.71442663
0.71454413
0.71482448
0.71544338
0.71673801
0.720736
0.73357214
0.77621959
0.76076822
0.75576233
0.75413528
0.75328961
0.75289928
0.75272911
0.75263084
0.75256405
0.7525456
0.75254562
0.75256412
0.75263095
0.75272925
0.75289945
0.75328979
0.75413547
0.75576253
0.76076842
0.77621982
0.82455937
0.80632755
0.80017863
0.7981731
0.7970718
0.79655604
0.79631114
0.7961714
0.79605397
0.79602575
0.79602578
0.79605405
0.79617152
0.79631129
0.79655622
0.797072
0.79817332
0.80017887
0.80632779
0.82455966
0.87876184
0.8576344
0.85023159
0.84780126
0.84642289
0.84576394
0.84541711
0.84522564
0.84503051
0.84498833
0.84498836
0.84503058
0.84522577
0.84541727
0.84576414
0.84642311
0.84780151
0.85023185
0.85763468
0.87876217
0.93911786
0.91503718
0.90628094
0.90337744
0.90169951
0.90086912
0.90038378
0.9001261
0.89981654
0.89975543
0.89975546
0.89981662
0.90012623
0.90038395
0.90086933
0.90169975
0.90337772
0.90628123
0.91503749
0.93911822
1.0060628
0.97901028
0.96882893
0.96542067
0.96342283
0.96238359
0.96171785
0.96137899
0.9609111
0.96082794
0.96082797
0.96091118
0.96137912
0.96171801
0.9623838
0.96342307
0.96542096
0.96882923
0.97901061
1.0060632
1.079907
1.049969
1.0383139
1.0343844
1.0320325
1.0307306
1.0298319
1.0293919
1.0287121
1.0286066
1.0286066
1.0287121
1.029392
1.0298321
1.0307308
1.0320327
1.0343846
1.0383142
1.0499693
1.0799072
1.1612511
1.1285787
1.1154416
1.1110033
1.1082557
1.1066277
1.1054398
1.1048779
1.1039281
1.103805
1.103805
1.1039282
1.104878
1.10544
1.1066278
1.1082559
1.1110035
1.1154419
1.128579
1.1612513
1.2504501
1.2153646
1.200794
1.195868
1.1926841
1.1906457
1.1890973
1.1883872
1.1871106
1.1869768
1.1869769
1.1871106
1.1883873
1.1890974
1.1906458
1.1926842
1.1958682
1.2007941
1.2153647
1.2504501
1.3486834
1.3115758
1.2957588
1.290417
1.2867601
1.2841867
1.2821744
1.2812786
1.2796246
1.2794866
1.2794866
1.2796245
1.2812786
1.2821745
1.2841868
1.2867602
1.2904171
1.2957588
1.3115758
1.3486833
1.4556368
1.4172491
1.400398
1.3946749
1.3905994
1.3873774
1.3848051
1.3837082
1.3816634
1.3815382
1.3815382
1.3816634
1.3837081
1.3848051
1.3873774
1.3905993
1.3946748
1.4003979
1.4172489
1.4556365
1.5730561
1.5344322
1.5169675
1.5110568
1.5065685
1.5025125
1.4992196
1.4978675
1.4954153
1.4953084
1.4953084
1.4954153
1.4978674
1.4992195
1.5025124
1.5065684
1.5110566
1.5169672
1.5344318
1.5730555
1.7008583
1.6638195
1.6464007
1.6406942
1.6358569
1.630811
1.6266703
1.6250257
1.6221922
1.6221151
1.6221151
1.6221921
1.6250255
1.6266701
1.6308108
1.6358566
1.6406938
1.6464002
1.6638188
1.7008574
1.8381675
1.8058864
1.7897032
1.7850036
1.7799316
1.7737953
1.7687327
1.7667601
1.7636003
1.7635604
1.7635604
1.7636001
1.7667598
1.7687324
1.7737949
1.7799312
1.7850031
1.7897025
1.8058854
1.8381665
1.9816562
1.9596273
1.9470238
1.9447749
1.9397017
1.9325707
1.9266184
1.9242874
1.9208778
1.9208817
1.9208816
1.9208776
1.9242871
1.9266179
1.9325702
1.9397011
1.9447743
1.9470229
1.9596262
1.9816554
2.1228977
2.1203955
2.1161961
2.1188224
2.1146002
2.1067846
2.1001061
2.0973985
2.0938312
2.093888
2.0938879
2.093831
2.0973981
2.1001056
2.1067841
2.1145995
2.1188216
2.1161953
2.1203946
2.1228978
2.2435179
2.27635
2.2895723
2.3012826
2.3004278
2.2928837
2.285299
2.282179
2.2785515
2.2786703
2.2786702
2.2785513
2.2821786
2.2852986
2.2928832
2.3004273
2.301282
2.2895719
2.2763504
2.2435205
2.3078449
2.4010589
2.449443
2.4778277
2.4846204
2.4799909
2.4715675
2.4668467
2.4632776
2.4634692
2.4634692
2.4632775
2.4668465
2.4715673
2.4799907
2.4846203
2.4778279
2.4494439
2.4010623
2.3078528
2.2522855
2.4470158
2.5582544
2.617052
2.6378998
2.6415759
2.6342126
2.6248392
2.6215611
2.6218479
2.6218479
2.6215612
2.6248394
2.6342131
2.6415765
2.6379008
2.6170539
2.5582582
2.4470253
2.2523027
2.0142392
2.340135
2.5486327
2.658787
2.7043184
2.7249474
2.7184372
2.7062973
2.7037186
2.7041033
2.7041034
2.7037191
2.7062983
2.7184387
2.7249496
2.7043215
2.658792
2.5486415
2.3401528
2.0142662
1.6033904
2.0206373
2.3383713
2.5195739
2.6033576
2.6425123
2.6455059
2.6381646
2.6365863
2.6368562
2.6368565
2.6365874
2.6381668
2.6455089
2.6425165
2.6033635
2.5195828
2.3383855
2.0206612
1.6034177
1.0764456
1.5440512
1.9120615
2.1422138
2.2813814
2.3397316
2.3599968
2.3651476
2.3643304
2.3637778
2.3637784
2.364332
2.3651506
2.3600008
2.339737
2.2813888
2.1422244
1.9120763
1.5440709
1.0764703
0
0
1.3735776
1.6459366
1.8096471
1.897312
1.9294908
1.9370186
1.9342826
1.9315488
1.9315492
1.9342839
1.9370208
1.9294937
1.897316
1.8096528
1.6459449
1.3735896
0
0
0
0
0
0
0
0
0
0
0
0
0
0
0
0
0
0
0
0
0
0
0
0
0
0
0
0
0
0
0
0
0
0
0
0
0
0
0
0
0
0
0
0
0
0
0
0
0
0
0
0
0
0
0
0
0
0
0
0
0
0
)
;

boundaryField
{
    Wall
    {
        type            zeroGradient;
    }
    frontAndBack
    {
        type            empty;
    }
    atmosphere
    {
        type            zeroGradient;
    }
}


// ************************************************************************* //
