/*--------------------------------*- C++ -*----------------------------------*\
| =========                 |                                                 |
| \\      /  F ield         | OpenFOAM: The Open Source CFD Toolbox           |
|  \\    /   O peration     | Version:  3.0.1                                 |
|   \\  /    A nd           | Web:      www.OpenFOAM.org                      |
|    \\/     M anipulation  |                                                 |
\*---------------------------------------------------------------------------*/
FoamFile
{
    version     2.0;
    format      ascii;
    class       volScalarField;
    location    "35";
    object      M0;
}
// * * * * * * * * * * * * * * * * * * * * * * * * * * * * * * * * * * * * * //

dimensions      [0 0 0 0 0 0 0];

internalField   nonuniform List<scalar> 
800
(
4.5475407e+11
4.5471793e+11
4.547143e+11
4.547151e+11
4.5471589e+11
4.5471636e+11
4.5471657e+11
4.5471665e+11
4.5471668e+11
4.5471668e+11
4.5471668e+11
4.5471668e+11
4.5471665e+11
4.5471657e+11
4.5471635e+11
4.5471589e+11
4.5471509e+11
4.547143e+11
4.5471793e+11
4.5475407e+11
4.5574144e+11
4.5553546e+11
4.5548109e+11
4.5546665e+11
4.5546418e+11
4.5546495e+11
4.5546623e+11
4.5546725e+11
4.554679e+11
4.554682e+11
4.554682e+11
4.554679e+11
4.5546725e+11
4.5546623e+11
4.5546495e+11
4.5546418e+11
4.5546665e+11
4.5548109e+11
4.5553547e+11
4.5574146e+11
4.5594106e+11
4.556459e+11
4.5555185e+11
4.5552867e+11
4.555254e+11
4.5552713e+11
4.5552939e+11
4.5553106e+11
4.5553205e+11
4.5553251e+11
4.5553251e+11
4.5553206e+11
4.5553106e+11
4.555294e+11
4.5552714e+11
4.5552541e+11
4.5552867e+11
4.5555186e+11
4.5564592e+11
4.5594109e+11
4.548661e+11
4.5455902e+11
4.5444579e+11
4.5442196e+11
4.5442096e+11
4.5442448e+11
4.5442773e+11
4.5442983e+11
4.5443097e+11
4.5443146e+11
4.5443145e+11
4.5443097e+11
4.5442983e+11
4.5442774e+11
4.5442448e+11
4.5442097e+11
4.5442197e+11
4.544458e+11
4.5455903e+11
4.5486613e+11
4.5246064e+11
4.5221817e+11
4.5210809e+11
4.5209119e+11
4.5209578e+11
4.5210219e+11
4.5210668e+11
4.5210911e+11
4.5211027e+11
4.5211071e+11
4.521107e+11
4.5211027e+11
4.5210911e+11
4.5210668e+11
4.5210219e+11
4.5209579e+11
4.5209119e+11
4.521081e+11
4.5221818e+11
4.5246066e+11
4.4869617e+11
4.4859398e+11
4.4851074e+11
4.4850834e+11
4.4852215e+11
4.4853282e+11
4.4853897e+11
4.4854184e+11
4.4854297e+11
4.4854332e+11
4.4854332e+11
4.4854297e+11
4.4854183e+11
4.4853897e+11
4.4853281e+11
4.4852214e+11
4.4850833e+11
4.4851074e+11
4.4859398e+11
4.4869618e+11
4.4355993e+11
4.4367111e+11
4.4363939e+11
4.4365905e+11
4.436857e+11
4.4370209e+11
4.4371046e+11
4.4371391e+11
4.4371507e+11
4.4371533e+11
4.4371532e+11
4.4371506e+11
4.437139e+11
4.4371044e+11
4.4370207e+11
4.4368568e+11
4.4365903e+11
4.4363937e+11
4.436711e+11
4.4355992e+11
4.3707178e+11
4.3746282e+11
4.3750786e+11
4.3755682e+11
4.3759953e+11
4.3762301e+11
4.3763416e+11
4.3763843e+11
4.3763969e+11
4.3763988e+11
4.3763988e+11
4.3763968e+11
4.3763842e+11
4.3763414e+11
4.3762299e+11
4.3759951e+11
4.3755678e+11
4.3750783e+11
4.3746279e+11
4.3707175e+11
4.2930633e+11
4.3002934e+11
4.3017562e+11
4.3026038e+11
4.3032148e+11
4.3035311e+11
4.3036754e+11
4.3037289e+11
4.3037436e+11
4.3037453e+11
4.3037453e+11
4.3037435e+11
4.3037287e+11
4.3036751e+11
4.3035307e+11
4.3032144e+11
4.3026033e+11
4.3017557e+11
4.3002928e+11
4.2930628e+11
4.2038029e+11
4.2147285e+11
4.2174384e+11
4.2187014e+11
4.2195095e+11
4.2199139e+11
4.2200958e+11
4.2201627e+11
4.2201809e+11
4.220183e+11
4.2201829e+11
4.2201807e+11
4.2201625e+11
4.2200954e+11
4.2199134e+11
4.219509e+11
4.2187008e+11
4.2174377e+11
4.2147278e+11
4.2038022e+11
4.1044272e+11
4.1192547e+11
4.1234141e+11
4.1251405e+11
4.1261485e+11
4.1266426e+11
4.1268665e+11
4.1269498e+11
4.1269727e+11
4.1269759e+11
4.1269758e+11
4.1269725e+11
4.1269495e+11
4.126866e+11
4.1266421e+11
4.1261479e+11
4.1251398e+11
4.1234133e+11
4.1192539e+11
4.1044264e+11
3.9954577e+11
4.0155071e+11
4.0212745e+11
4.0234951e+11
4.0246929e+11
4.0252697e+11
4.0255363e+11
4.0256365e+11
4.0256637e+11
4.0256679e+11
4.0256679e+11
4.0256635e+11
4.0256361e+11
4.0255358e+11
4.0252691e+11
4.0246922e+11
4.0234943e+11
4.0212736e+11
4.0155062e+11
3.9954567e+11
3.878772e+11
3.9021854e+11
3.9098379e+11
3.9126041e+11
3.9139527e+11
3.9145922e+11
3.9149111e+11
3.9150342e+11
3.9150671e+11
3.9150735e+11
3.9150734e+11
3.9150669e+11
3.9150338e+11
3.9149105e+11
3.9145915e+11
3.9139519e+11
3.9126032e+11
3.9098369e+11
3.9021844e+11
3.878771e+11
3.7561753e+11
3.7830279e+11
3.7926047e+11
3.7959361e+11
3.7973873e+11
3.7980578e+11
3.7984374e+11
3.7985873e+11
3.7986257e+11
3.7986351e+11
3.798635e+11
3.7986254e+11
3.7985869e+11
3.7984369e+11
3.7980571e+11
3.7973865e+11
3.7959352e+11
3.7926036e+11
3.7830268e+11
3.7561742e+11
3.6296774e+11
3.6597623e+11
3.6712001e+11
3.6751175e+11
3.6766263e+11
3.6773031e+11
3.6777522e+11
3.6779341e+11
3.6779791e+11
3.6779915e+11
3.6779914e+11
3.6779788e+11
3.6779337e+11
3.6777516e+11
3.6773024e+11
3.6766254e+11
3.6751166e+11
3.6711991e+11
3.6597612e+11
3.6296763e+11
3.5008215e+11
3.5337803e+11
3.5469333e+11
3.551456e+11
3.5529873e+11
3.5536586e+11
3.5541846e+11
3.5544061e+11
3.5544623e+11
3.5544746e+11
3.5544745e+11
3.554462e+11
3.5544057e+11
3.554184e+11
3.5536578e+11
3.5529864e+11
3.551455e+11
3.5469323e+11
3.5337792e+11
3.5008203e+11
3.3711937e+11
3.4065672e+11
3.4212229e+11
3.4263467e+11
3.4278713e+11
3.4285327e+11
3.4291447e+11
3.4294123e+11
3.4294868e+11
3.4294882e+11
3.4294881e+11
3.4294865e+11
3.4294119e+11
3.4291441e+11
3.428532e+11
3.4278705e+11
3.4263458e+11
3.4212219e+11
3.4065662e+11
3.3711927e+11
3.2422113e+11
3.2794842e+11
3.2953944e+11
3.3010877e+11
3.3025797e+11
3.3032399e+11
3.3039575e+11
3.3042765e+11
3.3043805e+11
3.3043504e+11
3.3043503e+11
3.3043803e+11
3.3042761e+11
3.3039569e+11
3.3032393e+11
3.3025789e+11
3.3010868e+11
3.2953935e+11
3.2794832e+11
3.2422103e+11
3.1151131e+11
3.1537189e+11
3.1706314e+11
3.1768374e+11
3.1782719e+11
3.1789603e+11
3.1798178e+11
3.1801934e+11
3.1803459e+11
3.1802547e+11
3.1802546e+11
3.1803457e+11
3.180193e+11
3.1798173e+11
3.1789597e+11
3.1782712e+11
3.1768366e+11
3.1706306e+11
3.153718e+11
3.1151122e+11
2.9910165e+11
3.0303669e+11
3.0480388e+11
3.054671e+11
3.0560178e+11
3.0567777e+11
3.0578116e+11
3.0582438e+11
3.0584697e+11
3.0582813e+11
3.0582812e+11
3.0584695e+11
3.0582435e+11
3.0578112e+11
3.0567771e+11
3.0560171e+11
3.0546704e+11
3.048038e+11
3.0303662e+11
2.9910158e+11
2.8710172e+11
2.9105008e+11
2.9287217e+11
2.9356909e+11
2.9369325e+11
2.9378186e+11
2.9390603e+11
2.9395465e+11
2.939875e+11
2.939554e+11
2.9395539e+11
2.9398748e+11
2.9395462e+11
2.9390599e+11
2.9378182e+11
2.9369319e+11
2.9356903e+11
2.9287211e+11
2.9105002e+11
2.8710166e+11
2.755992e+11
2.7950162e+11
2.8136052e+11
2.8208294e+11
2.8219608e+11
2.8230207e+11
2.8244795e+11
2.8250091e+11
2.8254594e+11
2.824975e+11
2.8249749e+11
2.8254593e+11
2.8250089e+11
2.8244792e+11
2.8230204e+11
2.8219604e+11
2.820829e+11
2.8136047e+11
2.7950157e+11
2.7559916e+11
2.6465345e+11
2.6845371e+11
2.7033486e+11
2.7107873e+11
2.7118245e+11
2.7131027e+11
2.7147737e+11
2.7153342e+11
2.7159068e+11
2.7152392e+11
2.7152391e+11
2.7159067e+11
2.7153341e+11
2.7147735e+11
2.7131024e+11
2.7118242e+11
2.710787e+11
2.7033483e+11
2.6845368e+11
2.6465343e+11
2.5432748e+11
2.579729e+11
2.5986277e+11
2.6062855e+11
2.6072462e+11
2.6087796e+11
2.6106476e+11
2.611222e+11
2.6118855e+11
2.6110265e+11
2.6110265e+11
2.6118854e+11
2.6112219e+11
2.6106475e+11
2.6087794e+11
2.607246e+11
2.6062853e+11
2.5986275e+11
2.5797289e+11
2.5432748e+11
2.4466645e+11
2.4810612e+11
2.4999211e+11
2.5078517e+11
2.5087568e+11
2.5105802e+11
2.512631e+11
2.5131994e+11
2.5138896e+11
2.5128415e+11
2.5128415e+11
2.5138895e+11
2.5131993e+11
2.5126309e+11
2.5105801e+11
2.5087567e+11
2.5078516e+11
2.499921e+11
2.4810613e+11
2.4466647e+11
2.3572695e+11
2.3890672e+11
2.4077674e+11
2.4160475e+11
2.4169387e+11
2.4190746e+11
2.4212931e+11
2.4218327e+11
2.4224591e+11
2.4212315e+11
2.4212315e+11
2.4224591e+11
2.4218327e+11
2.4212931e+11
2.4190746e+11
2.4169387e+11
2.4160476e+11
2.4077674e+11
2.3890673e+11
2.3572698e+11
2.2757783e+11
2.3043113e+11
2.3227265e+11
2.331423e+11
2.332386e+11
2.3348396e+11
2.3372036e+11
2.3376913e+11
2.3381508e+11
2.3367568e+11
2.3367568e+11
2.3381508e+11
2.3376913e+11
2.3372036e+11
2.3348396e+11
2.3323861e+11
2.3314231e+11
2.3227266e+11
2.3043115e+11
2.2757786e+11
2.2032522e+11
2.2276239e+11
2.2455825e+11
2.2547294e+11
2.2559017e+11
2.2586514e+11
2.2611201e+11
2.2615308e+11
2.2617188e+11
2.26017e+11
2.26017e+11
2.2617188e+11
2.2615308e+11
2.2611202e+11
2.2586515e+11
2.2559018e+11
2.2547296e+11
2.2455827e+11
2.2276242e+11
2.2032525e+11
2.1413237e+11
2.1602879e+11
2.1774827e+11
2.187095e+11
2.1886676e+11
2.1916578e+11
2.194176e+11
2.1944843e+11
2.1943062e+11
2.1926078e+11
2.1926077e+11
2.1943062e+11
2.1944843e+11
2.1941761e+11
2.1916579e+11
2.1886677e+11
2.1870952e+11
2.177483e+11
2.1602882e+11
2.1413239e+11
2.0924997e+11
2.1043284e+11
2.120179e+11
2.130291e+11
2.1324534e+11
2.1356356e+11
2.1381504e+11
2.1383334e+11
2.137708e+11
2.1358538e+11
2.1358537e+11
2.137708e+11
2.1383334e+11
2.1381504e+11
2.1356357e+11
2.1324535e+11
2.1302912e+11
2.1201792e+11
2.1043286e+11
2.0924996e+11
2.0605858e+11
2.0628223e+11
2.076403e+11
2.0870848e+11
2.0899543e+11
2.0933037e+11
2.095852e+11
2.095889e+11
2.0947448e+11
2.0927114e+11
2.0927114e+11
2.0947448e+11
2.0958889e+11
2.095852e+11
2.0933037e+11
2.0899544e+11
2.0870849e+11
2.0764031e+11
2.0628222e+11
2.0605853e+11
2.0511832e+11
2.0403809e+11
2.0502418e+11
2.061585e+11
2.0653352e+11
2.0688642e+11
2.0715381e+11
2.071485e+11
2.0697465e+11
2.0674841e+11
2.0674841e+11
2.0697464e+11
2.0714849e+11
2.071538e+11
2.068864e+11
2.0653351e+11
2.0615849e+11
2.0502416e+11
2.0403803e+11
2.051182e+11
2.0721687e+11
2.043461e+11
2.0477957e+11
2.0599682e+11
2.0649885e+11
2.0688802e+11
2.0717471e+11
2.0716664e+11
2.0692332e+11
2.0666522e+11
2.0666521e+11
2.069233e+11
2.0716661e+11
2.0717468e+11
2.0688799e+11
2.0649881e+11
2.0599677e+11
2.0477951e+11
2.0434598e+11
2.0721665e+11
2.1326538e+11
2.0807023e+11
2.0778586e+11
2.0914683e+11
2.0984715e+11
2.1034092e+11
2.1067063e+11
2.1062363e+11
2.1029668e+11
2.0999178e+11
2.0999177e+11
2.1029665e+11
2.1062359e+11
2.1067058e+11
2.1034087e+11
2.0984708e+11
2.0914674e+11
2.0778575e+11
2.0807002e+11
2.1326507e+11
2.2431352e+11
2.1617377e+11
2.151873e+11
2.1691062e+11
2.1796407e+11
2.1872486e+11
2.1913352e+11
2.1899446e+11
2.1856536e+11
2.1818941e+11
2.1818939e+11
2.1856532e+11
2.1899439e+11
2.1913345e+11
2.1872478e+11
2.1796397e+11
2.1691048e+11
2.1518713e+11
2.1617351e+11
2.2431322e+11
2.4169076e+11
2.2963823e+11
2.2835406e+11
2.3088796e+11
2.3285281e+11
2.3410759e+11
2.3478912e+11
2.345687e+11
2.3401456e+11
2.3352606e+11
2.3352604e+11
2.3401451e+11
2.3456861e+11
2.3478902e+11
2.3410747e+11
2.3285267e+11
2.308878e+11
2.2835388e+11
2.2963799e+11
2.4169058e+11
2.5854634e+11
2.5181447e+11
2.4958718e+11
2.5351378e+11
2.5733061e+11
2.6009627e+11
2.6166256e+11
2.6093765e+11
2.6023354e+11
2.5955346e+11
2.5955343e+11
2.6023346e+11
2.6093753e+11
2.6166243e+11
2.6009611e+11
2.5733045e+11
2.5351361e+11
2.4958703e+11
2.5181435e+11
2.5854652e+11
2.610447e+11
2.6849572e+11
2.7617759e+11
2.8672172e+11
2.9606895e+11
3.0278882e+11
3.0665098e+11
3.0644707e+11
3.0555491e+11
3.0449786e+11
3.0449782e+11
3.055548e+11
3.0644689e+11
3.0665078e+11
3.0278858e+11
2.9606872e+11
2.8672154e+11
2.7617751e+11
2.6849589e+11
2.6104582e+11
2.3771043e+11
2.751451e+11
2.9607977e+11
3.163832e+11
3.3434285e+11
3.4805667e+11
3.5637982e+11
3.5831607e+11
3.5752694e+11
3.5598478e+11
3.5598472e+11
3.5752679e+11
3.5831584e+11
3.5637959e+11
3.4805641e+11
3.3434267e+11
3.163831e+11
2.9607989e+11
2.7514574e+11
2.3771362e+11
1.7418899e+11
2.6921817e+11
3.0886701e+11
3.4077099e+11
3.6855826e+11
3.9084834e+11
4.0546581e+11
4.110445e+11
4.1097486e+11
4.0898017e+11
4.0898009e+11
4.1097465e+11
4.1104419e+11
4.054655e+11
3.9084802e+11
3.6855804e+11
3.4077097e+11
3.0886738e+11
2.6921946e+11
1.7419527e+11
)
;

boundaryField
{
    Wall
    {
        type            zeroGradient;
    }
    frontAndBack
    {
        type            empty;
    }
    atmosphere
    {
        type            zeroGradient;
    }
}


// ************************************************************************* //
