/*--------------------------------*- C++ -*----------------------------------*\
| =========                 |                                                 |
| \\      /  F ield         | OpenFOAM: The Open Source CFD Toolbox           |
|  \\    /   O peration     | Version:  3.0.1                                 |
|   \\  /    A nd           | Web:      www.OpenFOAM.org                      |
|    \\/     M anipulation  |                                                 |
\*---------------------------------------------------------------------------*/
FoamFile
{
    version     2.0;
    format      ascii;
    class       volScalarField;
    location    "35";
    object      mOne;
}
// * * * * * * * * * * * * * * * * * * * * * * * * * * * * * * * * * * * * * //

dimensions      [0 0 0 0 0 0 0];

internalField   nonuniform List<scalar> 
800
(
20.989908
20.991655
20.991831
20.991792
20.991754
20.991732
20.991721
20.991717
20.991716
20.991716
20.991716
20.991716
20.991717
20.991721
20.991732
20.991754
20.991793
20.991831
20.991655
20.989908
20.942266
20.952188
20.954808
20.955504
20.955623
20.955586
20.955525
20.955475
20.955444
20.955429
20.955429
20.955444
20.955475
20.955524
20.955586
20.955623
20.955504
20.954808
20.952187
20.942265
20.839989
20.857385
20.863523
20.865313
20.865737
20.865749
20.865663
20.865582
20.865526
20.8655
20.8655
20.865526
20.865581
20.865663
20.865748
20.865736
20.865312
20.863522
20.857383
20.839987
20.71601
20.740071
20.749792
20.752714
20.753478
20.753564
20.753471
20.753367
20.753292
20.753255
20.753255
20.753292
20.753366
20.753471
20.753563
20.753477
20.752712
20.74979
20.740069
20.716007
20.586396
20.615927
20.628901
20.63288
20.633946
20.634099
20.634003
20.633881
20.633791
20.633746
20.633746
20.633791
20.63388
20.634002
20.634098
20.633944
20.632878
20.628899
20.615925
20.586392
20.462423
20.495834
20.511526
20.51641
20.517682
20.517862
20.517748
20.517605
20.5175
20.517448
20.517448
20.5175
20.517605
20.517747
20.517861
20.51768
20.516408
20.511524
20.495831
20.462418
20.35326
20.388738
20.406452
20.412037
20.413382
20.413526
20.413366
20.413191
20.413065
20.413004
20.413004
20.413064
20.41319
20.413365
20.413525
20.41338
20.412035
20.40645
20.388735
20.353256
20.265858
20.301629
20.320533
20.326579
20.327853
20.327887
20.327646
20.327419
20.327264
20.32719
20.32719
20.327263
20.327418
20.327645
20.327886
20.327851
20.326577
20.320531
20.301626
20.265854
20.204233
20.238932
20.258136
20.264399
20.265472
20.265325
20.264963
20.264665
20.264471
20.26438
20.26438
20.26447
20.264664
20.264962
20.265323
20.26547
20.264397
20.258133
20.238929
20.204229
20.170069
20.202748
20.22132
20.227558
20.22833
20.227938
20.227417
20.227025
20.226781
20.226669
20.226669
20.226781
20.227025
20.227416
20.227937
20.228329
20.227556
20.221317
20.202745
20.170065
20.162769
20.193146
20.21025
20.216254
20.216674
20.216002
20.215286
20.214781
20.214476
20.214338
20.214338
20.214476
20.214781
20.215285
20.216
20.216673
20.216253
20.210248
20.193144
20.162766
20.187327
20.208976
20.223877
20.229458
20.229501
20.228528
20.227582
20.226941
20.226565
20.226395
20.226395
20.226565
20.226941
20.227581
20.228527
20.2295
20.229457
20.223875
20.208975
20.187324
20.241687
20.264629
20.27588
20.280742
20.280556
20.279348
20.278093
20.277271
20.276806
20.276592
20.276592
20.276805
20.27727
20.278092
20.279348
20.280555
20.280741
20.275879
20.264628
20.241685
20.323114
20.347387
20.354767
20.358783
20.358601
20.357306
20.355662
20.354622
20.354058
20.353791
20.353791
20.354058
20.354622
20.355662
20.357306
20.3586
20.358782
20.354766
20.347386
20.323112
20.426642
20.453844
20.457784
20.46085
20.460942
20.459693
20.45757
20.456265
20.455583
20.455254
20.455254
20.455582
20.456264
20.45757
20.459692
20.460941
20.46085
20.457783
20.453843
20.426641
20.547934
20.580928
20.582519
20.584605
20.585251
20.58413
20.581436
20.579799
20.578964
20.578584
20.578584
20.578964
20.579799
20.581436
20.584129
20.58525
20.584605
20.582519
20.580928
20.547933
20.683023
20.725531
20.726522
20.727777
20.729261
20.728291
20.72489
20.722836
20.721787
20.721412
20.721412
20.721787
20.722835
20.72489
20.728291
20.729261
20.727777
20.726522
20.725531
20.683023
20.82734
20.884006
20.886784
20.887667
20.890323
20.889438
20.885082
20.882504
20.881144
20.880901
20.880901
20.881143
20.882504
20.885082
20.889438
20.890323
20.887667
20.886784
20.884006
20.82734
20.975025
21.051618
21.059207
21.060614
21.064905
21.063911
21.058225
21.055004
21.053172
21.053276
21.053276
21.053171
21.055003
21.058224
21.063911
21.064905
21.060614
21.059207
21.051619
20.975025
21.118804
21.222363
21.238409
21.241749
21.248301
21.246866
21.239383
21.235394
21.232851
21.23359
21.23359
21.232851
21.235393
21.239383
21.246866
21.2483
21.241749
21.238409
21.222363
21.118804
21.250237
21.389068
21.417855
21.425052
21.43462
21.432335
21.422585
21.417708
21.414149
21.415847
21.415847
21.414148
21.417707
21.422584
21.432335
21.43462
21.425052
21.417854
21.389068
21.250236
21.360143
21.543833
21.590354
21.603795
21.617247
21.613714
21.601316
21.595442
21.590565
21.593537
21.593537
21.590565
21.595441
21.601315
21.613713
21.617247
21.603794
21.590353
21.543833
21.360142
21.438124
21.677643
21.747808
21.770294
21.788683
21.783592
21.768292
21.76132
21.754942
21.759441
21.759441
21.754941
21.761318
21.768291
21.783591
21.788682
21.770293
21.747807
21.677643
21.438123
21.472618
21.780316
21.881183
21.915894
21.94062
21.933795
21.915426
21.907261
21.899437
21.905616
21.905616
21.899436
21.90726
21.915425
21.933793
21.940619
21.915893
21.881182
21.780315
21.472617
21.449889
21.83985
21.979948
22.030581
22.063547
22.054998
22.033442
22.023993
22.015069
22.022963
22.022963
22.015068
22.023991
22.03344
22.054997
22.063546
22.030579
21.979947
21.83985
21.449888
21.353292
21.841883
22.031465
22.102672
22.14624
22.13636
22.111578
22.100752
22.09134
22.100859
22.100858
22.091338
22.10075
22.111576
22.136358
22.146239
22.102671
22.031464
21.841882
21.353293
21.161476
21.768403
22.019846
22.117836
22.174805
22.164622
22.136824
22.12453
22.115402
22.126342
22.126342
22.115401
22.124528
22.136822
22.164621
22.174803
22.117835
22.019845
21.768404
21.161478
20.846689
21.595977
21.924513
22.057659
22.131369
22.122856
22.092684
22.078835
22.070777
22.082833
22.082833
22.070775
22.078833
22.092682
22.122855
22.131368
22.057659
21.924513
21.59598
20.846696
20.372745
21.293361
21.718331
21.897494
21.992145
21.988628
21.957287
21.941809
21.935454
21.948243
21.948243
21.935453
21.941807
21.957285
21.988627
21.992145
21.897495
21.718333
21.293368
20.372758
19.693112
20.818587
21.364933
21.603527
21.725247
21.731375
21.70065
21.6835
21.679203
21.692273
21.692272
21.679203
21.683499
21.70065
21.731375
21.725247
21.60353
21.364939
20.818602
19.693134
18.75041
20.11726
20.815608
21.129858
21.288067
21.31014
21.281782
21.263023
21.260786
21.273626
21.273626
21.260786
21.263022
21.281782
21.310141
21.28807
21.129864
20.815619
20.117284
18.750445
17.480503
19.122753
20.008617
20.417801
20.624691
20.671123
20.647704
20.626916
20.626423
20.638482
20.638482
20.626424
20.626917
20.647705
20.671126
20.624697
20.417811
20.008636
19.12279
17.480556
15.826758
17.764737
18.87024
19.396589
19.666222
19.746756
19.733137
19.710688
19.711375
19.722059
19.722059
19.711377
19.71069
19.733141
19.746762
19.666231
19.396604
18.870267
17.764791
15.826833
13.774646
15.985299
17.327372
17.990708
18.33896
18.462476
18.464985
18.446383
18.447365
18.455983
18.455984
18.447368
18.446387
18.464991
18.462484
18.338973
17.99073
17.327409
15.985367
13.774743
11.371116
13.77814
15.337061
16.143805
16.585407
16.759211
16.787014
16.779206
16.779154
16.784848
16.784849
16.779157
16.779212
16.787023
16.759223
16.585424
16.143833
15.337106
13.778219
11.371226
8.7191734
11.210363
12.921961
13.866714
14.394471
14.631276
14.687081
14.691864
14.689157
14.690987
14.690988
14.689161
14.691871
14.687091
14.631289
14.394491
13.866745
12.92201
11.210448
8.7192938
6.1143926
8.3004605
10.157301
11.234386
11.841256
12.121438
12.197006
12.241036
12.234505
12.232003
12.232004
12.234509
12.241043
12.197017
12.121452
11.841277
11.234419
10.157353
8.300551
6.1145226
3.8761965
5.7374112
7.3591978
8.4297156
9.0494356
9.3444702
9.4324608
9.4739443
9.4645703
9.4588202
9.4588219
9.4645758
9.4739534
9.4324722
9.344487
9.04946
8.4297523
7.3592528
5.7374958
3.8763188
2.0657168
3.7679716
5.1307787
6.122461
6.7573262
7.0742242
7.178372
7.203438
7.1866122
7.1742159
7.1742177
7.1866176
7.2034466
7.1783821
7.0742394
6.7573494
6.122498
5.1308295
3.7680402
2.065814
0.86888287
2.3545487
3.5292108
4.4120551
5.0208332
5.3560023
5.4773854
5.4915131
5.4640381
5.4422633
5.4422653
5.4640437
5.4915215
5.4773951
5.3560167
5.0208555
4.412088
3.5292545
2.3546013
0.86894373
)
;

boundaryField
{
    Wall
    {
        type            zeroGradient;
    }
    frontAndBack
    {
        type            empty;
    }
    atmosphere
    {
        type            zeroGradient;
    }
}


// ************************************************************************* //
