/*--------------------------------*- C++ -*----------------------------------*\
| =========                 |                                                 |
| \\      /  F ield         | OpenFOAM: The Open Source CFD Toolbox           |
|  \\    /   O peration     | Version:  3.0.1                                 |
|   \\  /    A nd           | Web:      www.OpenFOAM.org                      |
|    \\/     M anipulation  |                                                 |
\*---------------------------------------------------------------------------*/
FoamFile
{
    version     2.0;
    format      ascii;
    class       volScalarField;
    location    "35";
    object      mThree;
}
// * * * * * * * * * * * * * * * * * * * * * * * * * * * * * * * * * * * * * //

dimensions      [0 0 0 0 0 0 0];

internalField   nonuniform List<scalar> 
800
(
9.216083e-23
9.2183942e-23
9.2186277e-23
9.2185777e-23
9.2185274e-23
9.2184983e-23
9.2184848e-23
9.2184798e-23
9.2184784e-23
9.2184781e-23
9.2184782e-23
9.2184784e-23
9.2184798e-23
9.2184849e-23
9.2184984e-23
9.2185275e-23
9.2185779e-23
9.218628e-23
9.2183944e-23
9.2160831e-23
9.1538856e-23
9.1669102e-23
9.1703506e-23
9.1712646e-23
9.1714218e-23
9.171374e-23
9.1712935e-23
9.1712293e-23
9.1711889e-23
9.1711695e-23
9.1711696e-23
9.1711888e-23
9.1712291e-23
9.1712933e-23
9.1713738e-23
9.1714214e-23
9.1712643e-23
9.1703502e-23
9.1669096e-23
9.1538842e-23
9.097378e-23
9.1175025e-23
9.1242071e-23
9.1259913e-23
9.1263254e-23
9.1262624e-23
9.1261318e-23
9.1260265e-23
9.1259607e-23
9.1259297e-23
9.1259297e-23
9.1259605e-23
9.1260262e-23
9.1261315e-23
9.126262e-23
9.1263248e-23
9.1259906e-23
9.1242061e-23
9.1175012e-23
9.0973755e-23
9.0813838e-23
9.1052456e-23
9.1144687e-23
9.1168284e-23
9.1172354e-23
9.1171359e-23
9.1169614e-23
9.1168277e-23
9.1167465e-23
9.1167093e-23
9.1167093e-23
9.1167463e-23
9.1168273e-23
9.116961e-23
9.1171354e-23
9.1172346e-23
9.1168275e-23
9.1144675e-23
9.105244e-23
9.0813808e-23
9.1161974e-23
9.1403204e-23
9.1510911e-23
9.1537059e-23
9.1540356e-23
9.1538501e-23
9.1536222e-23
9.1534649e-23
9.1533752e-23
9.153336e-23
9.153336e-23
9.153375e-23
9.1534646e-23
9.1536218e-23
9.1538496e-23
9.1540349e-23
9.153705e-23
9.1510899e-23
9.1403187e-23
9.1161945e-23
9.2103035e-23
9.2309134e-23
9.2420961e-23
9.2446008e-23
9.2446536e-23
9.2443013e-23
9.2439917e-23
9.2438042e-23
9.2437063e-23
9.2436667e-23
9.2436668e-23
9.2437062e-23
9.243804e-23
9.2439914e-23
9.2443009e-23
9.244653e-23
9.2446002e-23
9.2420952e-23
9.2309121e-23
9.210301e-23
9.3726421e-23
9.3855856e-23
9.3958419e-23
9.3978156e-23
9.3973536e-23
9.3967289e-23
9.3962938e-23
9.39606e-23
9.3959488e-23
9.3959078e-23
9.3959079e-23
9.3959488e-23
9.39606e-23
9.3962938e-23
9.3967288e-23
9.3973533e-23
9.3978154e-23
9.3958415e-23
9.3855848e-23
9.3726402e-23
9.6127179e-23
9.6133741e-23
9.6210711e-23
9.6220273e-23
9.6207834e-23
9.6197601e-23
9.6191433e-23
9.6188392e-23
9.6187052e-23
9.6186597e-23
9.6186599e-23
9.6187054e-23
9.6188394e-23
9.6191437e-23
9.6197604e-23
9.6207837e-23
9.6220277e-23
9.6210713e-23
9.613374e-23
9.612717e-23
9.9424282e-23
9.9253537e-23
9.928348e-23
9.9276997e-23
9.9253763e-23
9.9238023e-23
9.9229305e-23
9.9225219e-23
9.9223509e-23
9.9222957e-23
9.9222959e-23
9.9223513e-23
9.9225224e-23
9.9229313e-23
9.9238031e-23
9.9253772e-23
9.9277008e-23
9.9283491e-23
9.9253547e-23
9.9424285e-23
1.0374957e-22
1.0334631e-22
1.0330287e-22
1.0327351e-22
1.0323671e-22
1.032139e-22
1.0320169e-22
1.0319609e-22
1.0319381e-22
1.0319307e-22
1.0319307e-22
1.0319381e-22
1.031961e-22
1.0320171e-22
1.0321391e-22
1.0323673e-22
1.0327353e-22
1.0330289e-22
1.0334634e-22
1.0374959e-22
1.0921673e-22
1.0852734e-22
1.0837937e-22
1.083193e-22
1.0826694e-22
1.082358e-22
1.0821894e-22
1.082112e-22
1.0820807e-22
1.0820703e-22
1.0820703e-22
1.0820808e-22
1.0821122e-22
1.0821896e-22
1.0823583e-22
1.0826696e-22
1.0831933e-22
1.0837941e-22
1.0852738e-22
1.0921676e-22
1.159151e-22
1.1489924e-22
1.1461171e-22
1.145123e-22
1.144437e-22
1.1440386e-22
1.1438102e-22
1.1437045e-22
1.1436621e-22
1.1436476e-22
1.1436476e-22
1.1436622e-22
1.1437047e-22
1.1438105e-22
1.144039e-22
1.1444373e-22
1.1451234e-22
1.1461176e-22
1.1489929e-22
1.1591514e-22
1.2392913e-22
1.2252635e-22
1.2206356e-22
1.2191467e-22
1.2182935e-22
1.2178075e-22
1.2175018e-22
1.217358e-22
1.217302e-22
1.2172813e-22
1.2172814e-22
1.2173021e-22
1.2173582e-22
1.2175021e-22
1.2178079e-22
1.2182939e-22
1.2191473e-22
1.2206362e-22
1.2252641e-22
1.2392919e-22
1.333751e-22
1.3153876e-22
1.3086357e-22
1.3065247e-22
1.305509e-22
1.3049392e-22
1.3045364e-22
1.3043401e-22
1.304268e-22
1.3042383e-22
1.3042384e-22
1.3042682e-22
1.3043403e-22
1.3045368e-22
1.3049397e-22
1.3055096e-22
1.3065253e-22
1.3086363e-22
1.3153883e-22
1.3337517e-22
1.4438303e-22
1.4207189e-22
1.4114948e-22
1.4086045e-22
1.4074401e-22
1.4067979e-22
1.4062693e-22
1.4060004e-22
1.4059078e-22
1.4058665e-22
1.4058666e-22
1.405908e-22
1.4060007e-22
1.4062698e-22
1.4067985e-22
1.4074407e-22
1.4086052e-22
1.4114956e-22
1.4207198e-22
1.4438312e-22
1.5706304e-22
1.5424582e-22
1.5304899e-22
1.5266419e-22
1.5253592e-22
1.5246607e-22
1.5239593e-22
1.523592e-22
1.5234685e-22
1.5234184e-22
1.5234185e-22
1.5234687e-22
1.5235924e-22
1.5239598e-22
1.5246613e-22
1.52536e-22
1.5266428e-22
1.5304908e-22
1.5424592e-22
1.5706314e-22
1.7144548e-22
1.6811656e-22
1.6663061e-22
1.6613348e-22
1.6599977e-22
1.6592556e-22
1.65831e-22
1.657816e-22
1.6576435e-22
1.6576034e-22
1.6576035e-22
1.6576437e-22
1.6578163e-22
1.6583105e-22
1.6592563e-22
1.6599985e-22
1.6613358e-22
1.6663071e-22
1.6811667e-22
1.714456e-22
1.8752445e-22
1.8370856e-22
1.8193181e-22
1.8130948e-22
1.8118006e-22
1.8109989e-22
1.8096996e-22
1.8090465e-22
1.8087925e-22
1.8088087e-22
1.8088088e-22
1.8087928e-22
1.8090469e-22
1.8097002e-22
1.8109996e-22
1.8118015e-22
1.8130958e-22
1.8193192e-22
1.8370867e-22
1.8752457e-22
2.052808e-22
2.0103758e-22
1.9898035e-22
1.9822613e-22
1.981137e-22
1.9802005e-22
1.9783866e-22
1.9775337e-22
1.9771378e-22
1.9772921e-22
1.9772922e-22
1.977138e-22
1.9775341e-22
1.9783872e-22
1.9802012e-22
1.9811379e-22
1.9822624e-22
1.9898046e-22
2.010377e-22
2.0528093e-22
2.2467315e-22
2.2010327e-22
2.1778914e-22
2.169067e-22
2.1682758e-22
2.1670614e-22
2.1645281e-22
2.1634299e-22
2.1627939e-22
2.1632083e-22
2.1632084e-22
2.1627941e-22
2.1634303e-22
2.1645287e-22
2.1670622e-22
2.1682766e-22
2.169068e-22
2.1778925e-22
2.2010339e-22
2.2467326e-22
2.4560028e-22
2.4086168e-22
2.3832921e-22
2.3733268e-22
2.3730436e-22
2.3713397e-22
2.3678511e-22
2.3664545e-22
2.3654374e-22
2.3662674e-22
2.3662674e-22
2.3654376e-22
2.3664549e-22
2.3678516e-22
2.3713404e-22
2.3730444e-22
2.3733277e-22
2.3832931e-22
2.4086178e-22
2.4560037e-22
2.6790515e-22
2.632263e-22
2.6053616e-22
2.5945147e-22
2.59493e-22
2.5924899e-22
2.5878193e-22
2.5860751e-22
2.5845224e-22
2.5859475e-22
2.5859476e-22
2.5845225e-22
2.5860754e-22
2.5878197e-22
2.5924904e-22
2.5949306e-22
2.5945155e-22
2.6053625e-22
2.6322638e-22
2.6790521e-22
2.9136105e-22
2.8706001e-22
2.8430435e-22
2.8316525e-22
2.8329762e-22
2.8295216e-22
2.8234548e-22
2.8213121e-22
2.8190997e-22
2.8213045e-22
2.8213045e-22
2.8190998e-22
2.8213123e-22
2.823455e-22
2.829522e-22
2.8329767e-22
2.831653e-22
2.8430441e-22
2.8706007e-22
2.9136107e-22
3.1559127e-22
3.120954e-22
3.0941661e-22
3.0826442e-22
3.0851851e-22
3.0804204e-22
3.072752e-22
3.0701696e-22
3.067275e-22
3.0704327e-22
3.0704328e-22
3.067275e-22
3.0701696e-22
3.0727521e-22
3.0804205e-22
3.0851854e-22
3.0826445e-22
3.0941664e-22
3.1209542e-22
3.1559125e-22
3.400665e-22
3.379419e-22
3.3555125e-22
3.3443736e-22
3.3485893e-22
3.3422068e-22
3.3327189e-22
3.3296687e-22
3.3262256e-22
3.3304849e-22
3.330485e-22
3.3262256e-22
3.3296686e-22
3.3327188e-22
3.3422067e-22
3.3485893e-22
3.3443736e-22
3.3555125e-22
3.3794188e-22
3.4006645e-22
3.6399498e-22
3.6399182e-22
3.6219006e-22
3.6119462e-22
3.6184062e-22
3.6101747e-22
3.5986625e-22
3.5951357e-22
3.5914603e-22
3.5969336e-22
3.5969336e-22
3.5914601e-22
3.5951354e-22
3.5986623e-22
3.6101744e-22
3.6184059e-22
3.6119459e-22
3.6219002e-22
3.6399177e-22
3.639949e-22
3.8623799e-22
3.893622e-22
3.8856643e-22
3.8782904e-22
3.8876096e-22
3.8774928e-22
3.863848e-22
3.8598564e-22
3.8564291e-22
3.8631845e-22
3.8631844e-22
3.8564289e-22
3.8598561e-22
3.8638476e-22
3.8774923e-22
3.8876091e-22
3.8782899e-22
3.8856637e-22
3.8936213e-22
3.8623794e-22
4.0515637e-22
4.1274279e-22
4.1353482e-22
4.1329205e-22
4.1457516e-22
4.1340915e-22
4.1184356e-22
4.1140231e-22
4.1114384e-22
4.1194958e-22
4.1194958e-22
4.1114382e-22
4.1140228e-22
4.118435e-22
4.1340909e-22
4.145751e-22
4.1329199e-22
4.1353475e-22
4.1274275e-22
4.051564e-22
4.1847287e-22
4.3222775e-22
4.3543474e-22
4.3604414e-22
4.3775449e-22
4.3653241e-22
4.3481073e-22
4.34335e-22
4.3422278e-22
4.3515528e-22
4.3515528e-22
4.3422276e-22
4.3433497e-22
4.3481068e-22
4.3653235e-22
4.3775443e-22
4.3604409e-22
4.354347e-22
4.322278e-22
4.1847308e-22
4.2318164e-22
4.4512364e-22
4.5191786e-22
4.5386287e-22
4.5614255e-22
4.5502479e-22
4.5322797e-22
4.5272853e-22
4.5281669e-22
4.5386592e-22
4.5386592e-22
4.5281669e-22
4.5272851e-22
4.5322794e-22
4.5502475e-22
4.5614252e-22
4.5386287e-22
4.5191792e-22
4.451239e-22
4.2318218e-22
4.1565022e-22
4.4790048e-22
4.5978728e-22
4.6368327e-22
4.6682586e-22
4.6604947e-22
4.6424583e-22
4.6373861e-22
4.6406282e-22
4.652102e-22
4.6521021e-22
4.6406283e-22
4.6373862e-22
4.6424585e-22
4.6604949e-22
4.6682591e-22
4.6368339e-22
4.5978752e-22
4.4790109e-22
4.1565127e-22
3.9220456e-22
4.3640966e-22
4.5512064e-22
4.6170998e-22
4.6610957e-22
4.6600986e-22
4.6429424e-22
4.637444e-22
4.6431354e-22
4.6552947e-22
4.6552948e-22
4.6431359e-22
4.6374447e-22
4.6429432e-22
4.6600997e-22
4.6610974e-22
4.6171027e-22
4.5512115e-22
4.3641078e-22
3.9220629e-22
3.5047817e-22
4.0690575e-22
4.3375408e-22
4.438252e-22
4.4987841e-22
4.5082656e-22
4.4940934e-22
4.4877215e-22
4.495611e-22
4.5080149e-22
4.5080152e-22
4.4956119e-22
4.4877228e-22
4.4940952e-22
4.5082679e-22
4.4987875e-22
4.4382574e-22
4.3375497e-22
4.0690751e-22
3.5048064e-22
2.9195745e-22
3.5775311e-22
3.9267326e-22
4.06693e-22
4.1474354e-22
4.1698612e-22
4.1607138e-22
4.1558539e-22
4.1652403e-22
4.1772597e-22
4.1772601e-22
4.1652416e-22
4.155856e-22
4.1607166e-22
4.1698648e-22
4.1474406e-22
4.0669379e-22
3.9267453e-22
3.5775538e-22
2.9196043e-22
2.2264121e-22
2.9196644e-22
3.3244537e-22
3.4994228e-22
3.6008029e-22
3.6357208e-22
3.6348236e-22
3.6346836e-22
3.6443507e-22
3.6551613e-22
3.6551618e-22
3.6443523e-22
3.6346863e-22
3.6348271e-22
3.6357254e-22
3.6008094e-22
3.4994325e-22
3.3244685e-22
2.9196888e-22
2.2264414e-22
1.507562e-22
2.1730193e-22
2.5887572e-22
2.7856244e-22
2.898964e-22
2.9470697e-22
2.9542008e-22
2.9590026e-22
2.9674905e-22
2.9762403e-22
2.9762409e-22
2.9674922e-22
2.9590055e-22
2.9542044e-22
2.9470744e-22
2.8989706e-22
2.7856341e-22
2.5887715e-22
2.1730415e-22
1.5075881e-22
9.1274153e-23
1.389304e-22
1.8017593e-22
2.0109339e-22
2.127827e-22
2.1790272e-22
2.1896546e-22
2.2069425e-22
2.213193e-22
2.2194121e-22
2.2194126e-22
2.2131944e-22
2.206945e-22
2.1896577e-22
2.1790314e-22
2.1278328e-22
2.0109423e-22
1.8017715e-22
1.3893228e-22
9.1276427e-23
5.1193445e-23
8.3444092e-23
1.1144022e-22
1.2811875e-22
1.3754109e-22
1.4185255e-22
1.4292932e-22
1.443625e-22
1.4476796e-22
1.4515952e-22
1.4515956e-22
1.4476809e-22
1.4436272e-22
1.4292959e-22
1.4185293e-22
1.3754161e-22
1.2811948e-22
1.1144123e-22
8.3445529e-23
5.119524e-23
2.461039e-23
4.8258601e-23
6.713281e-23
7.9449087e-23
8.6902608e-23
9.0360578e-23
9.1314067e-23
9.2073723e-23
9.2253964e-23
9.244671e-23
9.2446743e-23
9.2254062e-23
9.2073884e-23
9.1314256e-23
9.0360853e-23
8.6902994e-23
7.944967e-23
6.7133574e-23
4.825958e-23
2.4611625e-23
9.4768781e-24
2.6762662e-23
4.0330999e-23
4.9392445e-23
5.5126191e-23
5.7969029e-23
5.8792764e-23
5.9073421e-23
5.9032702e-23
5.905071e-23
5.9050738e-23
5.9032783e-23
5.9073547e-23
5.8792911e-23
5.7969245e-23
5.5126505e-23
4.9392883e-23
4.0331561e-23
2.6763316e-23
9.4775662e-24
)
;

boundaryField
{
    Wall
    {
        type            zeroGradient;
    }
    frontAndBack
    {
        type            empty;
    }
    atmosphere
    {
        type            zeroGradient;
    }
}


// ************************************************************************* //
