/*--------------------------------*- C++ -*----------------------------------*\
| =========                 |                                                 |
| \\      /  F ield         | OpenFOAM: The Open Source CFD Toolbox           |
|  \\    /   O peration     | Version:  3.0.1                                 |
|   \\  /    A nd           | Web:      www.OpenFOAM.org                      |
|    \\/     M anipulation  |                                                 |
\*---------------------------------------------------------------------------*/
FoamFile
{
    version     2.0;
    format      ascii;
    class       volScalarField;
    location    "35";
    object      mTwo;
}
// * * * * * * * * * * * * * * * * * * * * * * * * * * * * * * * * * * * * * //

dimensions      [0 0 0 0 0 0 0];

internalField   nonuniform List<scalar> 
800
(
4.4025167e-11
4.4032498e-11
4.4033235e-11
4.4033074e-11
4.4032913e-11
4.4032819e-11
4.4032775e-11
4.4032759e-11
4.4032754e-11
4.4032752e-11
4.4032753e-11
4.4032754e-11
4.4032758e-11
4.4032775e-11
4.403282e-11
4.4032913e-11
4.4033075e-11
4.4033236e-11
4.4032499e-11
4.4025168e-11
4.3826756e-11
4.3868141e-11
4.3879084e-11
4.3881992e-11
4.3882489e-11
4.3882334e-11
4.3882075e-11
4.3881869e-11
4.3881739e-11
4.3881676e-11
4.3881676e-11
4.3881738e-11
4.3881868e-11
4.3882075e-11
4.3882334e-11
4.3882488e-11
4.3881991e-11
4.3879083e-11
4.3868139e-11
4.3826752e-11
4.3583993e-11
4.3650142e-11
4.3672548e-11
4.367868e-11
4.367992e-11
4.3679779e-11
4.3679375e-11
4.3679036e-11
4.3678819e-11
4.3678716e-11
4.3678717e-11
4.3678819e-11
4.3679035e-11
4.3679374e-11
4.3679778e-11
4.3679918e-11
4.3678678e-11
4.3672544e-11
4.3650137e-11
4.3583985e-11
4.3414951e-11
4.3496938e-11
4.3529067e-11
4.3537754e-11
4.3539525e-11
4.3539376e-11
4.353886e-11
4.3538428e-11
4.3538154e-11
4.3538026e-11
4.3538026e-11
4.3538154e-11
4.3538427e-11
4.3538858e-11
4.3539373e-11
4.3539522e-11
4.3537751e-11
4.3529062e-11
4.3496932e-11
4.341494e-11
4.3360554e-11
4.3448769e-11
4.3487923e-11
4.3498316e-11
4.350022e-11
4.3499938e-11
4.3499293e-11
4.3498789e-11
4.3498479e-11
4.3498338e-11
4.3498338e-11
4.3498479e-11
4.3498787e-11
4.3499292e-11
4.3499936e-11
4.3500217e-11
4.3498312e-11
4.3487918e-11
4.3448762e-11
4.3360543e-11
4.3451105e-11
4.3534936e-11
4.3577836e-11
4.3588911e-11
4.3590381e-11
4.3589739e-11
4.3588886e-11
4.358829e-11
4.3587945e-11
4.3587796e-11
4.3587796e-11
4.3587945e-11
4.3588288e-11
4.3588884e-11
4.3589737e-11
4.3590378e-11
4.3588907e-11
4.3577832e-11
4.3534929e-11
4.3451094e-11
4.3714281e-11
4.3782266e-11
4.3825052e-11
4.3835624e-11
4.3835981e-11
4.3834673e-11
4.3833483e-11
4.3832746e-11
4.3832349e-11
4.3832186e-11
4.3832186e-11
4.3832348e-11
4.3832745e-11
4.3833482e-11
4.3834672e-11
4.3835978e-11
4.3835621e-11
4.3825049e-11
4.3782261e-11
4.3714271e-11
4.4174821e-11
4.4214966e-11
4.425308e-11
4.426182e-11
4.4260327e-11
4.4258e-11
4.4256311e-11
4.4255359e-11
4.4254879e-11
4.4254693e-11
4.4254693e-11
4.4254879e-11
4.4255359e-11
4.425631e-11
4.4257999e-11
4.4260326e-11
4.4261819e-11
4.4253078e-11
4.4214963e-11
4.4174814e-11
4.4855497e-11
4.4855576e-11
4.4883574e-11
4.4889008e-11
4.4884931e-11
4.4881198e-11
4.4878818e-11
4.4877557e-11
4.4876952e-11
4.4876725e-11
4.4876725e-11
4.4876952e-11
4.4877558e-11
4.4878819e-11
4.4881199e-11
4.4884931e-11
4.4889008e-11
4.4883573e-11
4.4855574e-11
4.4855493e-11
4.5775485e-11
4.5724436e-11
4.5736095e-11
4.5736637e-11
4.5729358e-11
4.5723856e-11
4.5720558e-11
4.5718869e-11
4.5718081e-11
4.5717789e-11
4.5717789e-11
4.5718082e-11
4.571887e-11
4.572056e-11
4.5723858e-11
4.572936e-11
4.573664e-11
4.5736098e-11
4.5724437e-11
4.5775484e-11
4.6945246e-11
4.6834177e-11
4.6822869e-11
4.6816884e-11
4.6806028e-11
4.6798507e-11
4.6794036e-11
4.6791775e-11
4.6790739e-11
4.6790352e-11
4.6790353e-11
4.6790741e-11
4.6791777e-11
4.6794039e-11
4.679851e-11
4.6806032e-11
4.6816889e-11
4.6822874e-11
4.6834181e-11
4.6945248e-11
4.8367129e-11
4.8190927e-11
4.814992e-11
4.8135784e-11
4.8121283e-11
4.8111687e-11
4.8105775e-11
4.8102796e-11
4.8101456e-11
4.8100945e-11
4.8100946e-11
4.8101458e-11
4.81028e-11
4.810578e-11
4.8111692e-11
4.8121289e-11
4.8135791e-11
4.8149928e-11
4.8190934e-11
4.8367134e-11
5.0048911e-11
4.9800016e-11
4.9722172e-11
4.9698072e-11
4.9680157e-11
4.9668632e-11
4.9660922e-11
4.9657015e-11
4.9655309e-11
4.9654631e-11
4.9654632e-11
4.9655312e-11
4.9657019e-11
4.9660928e-11
4.9668639e-11
4.9680166e-11
4.9698082e-11
4.9722182e-11
4.9800027e-11
5.004892e-11
5.199283e-11
5.1669567e-11
5.1549328e-11
5.1513232e-11
5.1492375e-11
5.1479209e-11
5.1469306e-11
5.1464184e-11
5.1462054e-11
5.1461144e-11
5.1461145e-11
5.1462057e-11
5.1464189e-11
5.1469313e-11
5.1479218e-11
5.1492385e-11
5.1513244e-11
5.154934e-11
5.166958e-11
5.1992842e-11
5.4199102e-11
5.3803137e-11
5.3636912e-11
5.3586532e-11
5.3563476e-11
5.3549127e-11
5.3536497e-11
5.3529784e-11
5.3527124e-11
5.3525929e-11
5.352593e-11
5.3527127e-11
5.352979e-11
5.3536505e-11
5.3549138e-11
5.3563488e-11
5.3586546e-11
5.3636927e-11
5.3803153e-11
5.4199117e-11
5.6661729e-11
5.6198745e-11
5.5985893e-11
5.5918947e-11
5.5894825e-11
5.5879815e-11
5.5863634e-11
5.5854854e-11
5.5851437e-11
5.5850019e-11
5.5850021e-11
5.5851441e-11
5.585486e-11
5.5863643e-11
5.5879826e-11
5.5894838e-11
5.5918963e-11
5.598591e-11
5.6198763e-11
5.6661748e-11
5.9359379e-11
5.8841392e-11
5.8584975e-11
5.8499942e-11
5.847651e-11
5.8461249e-11
5.8440278e-11
5.8428913e-11
5.8424364e-11
5.8423106e-11
5.8423108e-11
5.8424368e-11
5.842892e-11
5.8440288e-11
5.8461261e-11
5.8476523e-11
5.8499958e-11
5.8584993e-11
5.8841411e-11
5.9359399e-11
6.2264625e-11
6.1710367e-11
6.1417006e-11
6.1313668e-11
6.129327e-11
6.1277565e-11
6.1249885e-11
6.1235345e-11
6.1229028e-11
6.1228831e-11
6.1228832e-11
6.1229032e-11
6.1235352e-11
6.1249895e-11
6.1277577e-11
6.1293284e-11
6.1313685e-11
6.1417024e-11
6.1710387e-11
6.2264645e-11
6.5347797e-11
6.4783149e-11
6.4462658e-11
6.4342655e-11
6.432818e-11
6.4310724e-11
6.4273541e-11
6.4255106e-11
6.4245904e-11
6.4248298e-11
6.42483e-11
6.4245908e-11
6.4255112e-11
6.427355e-11
6.4310735e-11
6.4328194e-11
6.4342672e-11
6.4462677e-11
6.4783169e-11
6.5347816e-11
6.857505e-11
6.8033683e-11
6.7699137e-11
6.7566687e-11
6.7561673e-11
6.7539984e-11
6.7489863e-11
6.7466769e-11
6.7452945e-11
6.7460102e-11
6.7460104e-11
6.7452948e-11
6.7466774e-11
6.7489871e-11
6.7539995e-11
6.7561686e-11
6.7566703e-11
6.7699155e-11
6.8033701e-11
6.8575067e-11
7.1902819e-11
7.1428125e-11
7.1095994e-11
7.0957833e-11
7.0966049e-11
7.0936625e-11
7.0869854e-11
7.0841267e-11
7.0820457e-11
7.0834989e-11
7.083499e-11
7.082046e-11
7.0841271e-11
7.086986e-11
7.0936634e-11
7.0966061e-11
7.0957847e-11
7.1096009e-11
7.1428141e-11
7.1902831e-11
7.5279669e-11
7.4926037e-11
7.46172e-11
7.4482627e-11
7.4508147e-11
7.4467199e-11
7.4380544e-11
7.4345751e-11
7.4315531e-11
7.434024e-11
7.4340241e-11
7.4315532e-11
7.4345753e-11
7.4380548e-11
7.4467206e-11
7.4508155e-11
7.4482638e-11
7.4617212e-11
7.4926049e-11
7.5279676e-11
7.8644148e-11
7.8479036e-11
7.8220229e-11
7.8100383e-11
7.8147787e-11
7.8091476e-11
7.7982266e-11
7.7940577e-11
7.7899255e-11
7.793675e-11
7.7936751e-11
7.7899255e-11
7.7940577e-11
7.7982267e-11
7.8091479e-11
7.8147792e-11
7.810039e-11
7.8220236e-11
7.8479042e-11
7.8644148e-11
8.1914911e-11
8.2020459e-11
8.1846852e-11
8.17546e-11
8.1830339e-11
8.1755098e-11
8.1621128e-11
8.1572021e-11
8.1519747e-11
8.157216e-11
8.157216e-11
8.1519746e-11
8.1572019e-11
8.1621126e-11
8.1755097e-11
8.1830339e-11
8.1754602e-11
8.1846854e-11
8.202046e-11
8.1914906e-11
8.4990831e-11
8.5467175e-11
8.5424871e-11
8.5375336e-11
8.5488602e-11
8.5391355e-11
8.52305e-11
8.5173644e-11
8.5113101e-11
8.5181882e-11
8.5181882e-11
8.5113098e-11
8.517364e-11
8.5230495e-11
8.5391351e-11
8.5488599e-11
8.5375333e-11
8.5424868e-11
8.5467171e-11
8.4990823e-11
8.7737489e-11
8.8708054e-11
8.8856529e-11
8.8870153e-11
8.9032289e-11
8.8911897e-11
8.872249e-11
8.8657773e-11
8.8594293e-11
8.8680099e-11
8.8680098e-11
8.8594289e-11
8.8657767e-11
8.8722483e-11
8.891189e-11
8.9032282e-11
8.8870146e-11
8.8856522e-11
8.8708047e-11
8.7737481e-11
8.9976266e-11
9.1596932e-11
9.2012329e-11
9.2119502e-11
9.2343144e-11
9.220225e-11
9.1984323e-11
9.1911846e-11
9.1852827e-11
9.1955484e-11
9.1955483e-11
9.1852823e-11
9.1911838e-11
9.1984314e-11
9.220224e-11
9.2343135e-11
9.2119493e-11
9.201232e-11
9.1596927e-11
8.9976265e-11
9.1465631e-11
9.3933568e-11
9.4714947e-11
9.4961136e-11
9.5260357e-11
9.5107954e-11
9.4865034e-11
9.4785218e-11
9.4739102e-11
9.4857665e-11
9.4857664e-11
9.4739097e-11
9.478521e-11
9.4865024e-11
9.5107944e-11
9.5260347e-11
9.4961128e-11
9.4714941e-11
9.3933571e-11
9.1465648e-11
9.1884116e-11
9.5442648e-11
9.6722654e-11
9.7171094e-11
9.7562878e-11
9.7417795e-11
9.7158054e-11
9.7071625e-11
9.7046489e-11
9.7179289e-11
9.7179288e-11
9.7046485e-11
9.7071618e-11
9.7158045e-11
9.7417786e-11
9.7562871e-11
9.717109e-11
9.6722656e-11
9.5442671e-11
9.1884168e-11
9.0817757e-11
9.5749115e-11
9.7707011e-11
9.8438624e-11
9.8951155e-11
9.8841342e-11
9.8577674e-11
9.8485674e-11
9.848785e-11
9.8632498e-11
9.8632497e-11
9.8487848e-11
9.848567e-11
9.857767e-11
9.8841338e-11
9.8951155e-11
9.8438631e-11
9.7707031e-11
9.5749175e-11
9.0817866e-11
8.7768414e-11
9.4370246e-11
9.7230147e-11
9.8344163e-11
9.9028572e-11
9.8992957e-11
9.8736225e-11
9.8640382e-11
9.8673326e-11
9.882666e-11
9.882666e-11
9.8673327e-11
9.8640383e-11
9.8736228e-11
9.8992962e-11
9.9028584e-11
9.834419e-11
9.7230198e-11
9.4370366e-11
8.7768608e-11
8.22185e-11
9.0736284e-11
9.4754838e-11
9.6368583e-11
9.7291744e-11
9.7383142e-11
9.7148314e-11
9.7043966e-11
9.7107733e-11
9.7265724e-11
9.7265726e-11
9.7107739e-11
9.7043975e-11
9.7148328e-11
9.7383161e-11
9.7291776e-11
9.6368639e-11
9.4754936e-11
9.0736489e-11
8.221881e-11
7.3795538e-11
8.4308186e-11
8.9690939e-11
9.1931503e-11
9.3163646e-11
9.3440048e-11
9.3258808e-11
9.3142661e-11
9.3233608e-11
9.3391121e-11
9.3391125e-11
9.323362e-11
9.3142681e-11
9.3258836e-11
9.3440086e-11
9.3163705e-11
9.1931598e-11
8.9691096e-11
8.4308498e-11
7.3795977e-11
6.2615436e-11
7.4781944e-11
8.1558873e-11
8.4513176e-11
8.6122452e-11
8.6625209e-11
8.6531689e-11
8.6442499e-11
8.6552088e-11
8.6702267e-11
8.6702273e-11
8.6552106e-11
8.6442531e-11
8.6531734e-11
8.6625268e-11
8.612254e-11
8.4513312e-11
8.1559094e-11
7.4782344e-11
6.2615979e-11
4.9415745e-11
6.2449405e-11
7.0307938e-11
7.3932387e-11
7.5956983e-11
7.6693172e-11
7.6740035e-11
7.6728038e-11
7.6841555e-11
7.6975261e-11
7.6975269e-11
7.6841579e-11
7.6728082e-11
7.6740093e-11
7.6693249e-11
7.5957094e-11
7.3932555e-11
7.0308202e-11
6.2449849e-11
4.9416313e-11
3.5345137e-11
4.8292292e-11
5.6596129e-11
6.0732951e-11
6.3050563e-11
6.4053107e-11
6.4240364e-11
6.4311169e-11
6.4410156e-11
6.4517265e-11
6.4517273e-11
6.4410183e-11
6.4311217e-11
6.4240425e-11
6.4053191e-11
6.305068e-11
6.0733127e-11
5.6596396e-11
4.8292726e-11
3.534569e-11
2.2866005e-11
3.2940225e-11
4.1503194e-11
4.6026971e-11
4.8522205e-11
4.9628759e-11
4.9885018e-11
5.0183548e-11
5.0253753e-11
5.0328179e-11
5.0328188e-11
5.0253779e-11
5.0183594e-11
4.9885076e-11
4.9628839e-11
4.8522318e-11
4.6027136e-11
4.1503442e-11
3.2940629e-11
2.2866535e-11
1.3564469e-11
2.1065188e-11
2.7522717e-11
3.1482863e-11
3.3701115e-11
3.4720001e-11
3.4992089e-11
3.5250258e-11
3.5293606e-11
3.5339255e-11
3.5339263e-11
3.5293633e-11
3.5250303e-11
3.4992145e-11
3.4720081e-11
3.3701227e-11
3.1483022e-11
2.7522946e-11
2.1065526e-11
1.3564922e-11
6.8392494e-12
1.2900845e-11
1.769539e-11
2.0930209e-11
2.2896744e-11
2.3819363e-11
2.4088012e-11
2.4225858e-11
2.4229382e-11
2.4241663e-11
2.424167e-11
2.4229404e-11
2.4225895e-11
2.4088055e-11
2.3819427e-11
2.2896836e-11
2.093035e-11
1.7695579e-11
1.2901094e-11
6.8395822e-12
2.7443863e-12
7.5489224e-12
1.1292062e-11
1.389208e-11
1.5568369e-11
1.6419489e-11
1.6683346e-11
1.6731868e-11
1.6687742e-11
1.6663331e-11
1.6663338e-11
1.6687763e-11
1.67319e-11
1.6683383e-11
1.6419543e-11
1.556845e-11
1.3892195e-11
1.1292212e-11
7.5490994e-12
2.7445821e-12
)
;

boundaryField
{
    Wall
    {
        type            zeroGradient;
    }
    frontAndBack
    {
        type            empty;
    }
    atmosphere
    {
        type            zeroGradient;
    }
}


// ************************************************************************* //
