/*--------------------------------*- C++ -*----------------------------------*\
| =========                 |                                                 |
| \\      /  F ield         | OpenFOAM: The Open Source CFD Toolbox           |
|  \\    /   O peration     | Version:  3.0.1                                 |
|   \\  /    A nd           | Web:      www.OpenFOAM.org                      |
|    \\/     M anipulation  |                                                 |
\*---------------------------------------------------------------------------*/
FoamFile
{
    version     2.0;
    format      ascii;
    class       volScalarField;
    location    "35";
    object      muMixture;
}
// * * * * * * * * * * * * * * * * * * * * * * * * * * * * * * * * * * * * * //

dimensions      [1 -1 -1 0 0 0 0];

internalField   nonuniform List<scalar> 
800
(
0.001
0.001
0.001
0.001
0.001
0.001
0.001
0.001
0.001
0.001
0.001
0.001
0.001
0.001
0.001
0.001
0.001
0.001
0.001
0.001
0.001
0.001
0.001
0.001
0.001
0.001
0.001
0.001
0.001
0.001
0.001
0.001
0.001
0.001
0.001
0.001
0.001
0.001
0.001
0.001
0.00099999999
0.00099999999
0.00099999999
0.00099999999
0.00099999999
0.00099999999
0.00099999999
0.00099999999
0.00099999999
0.00099999999
0.00099999999
0.00099999999
0.00099999999
0.00099999999
0.00099999999
0.00099999999
0.00099999999
0.00099999999
0.00099999999
0.00099999999
0.00099999998
0.00099999998
0.00099999998
0.00099999998
0.00099999998
0.00099999998
0.00099999998
0.00099999998
0.00099999998
0.00099999998
0.00099999998
0.00099999998
0.00099999998
0.00099999998
0.00099999998
0.00099999998
0.00099999998
0.00099999998
0.00099999998
0.00099999998
0.00099999995
0.00099999996
0.00099999996
0.00099999996
0.00099999996
0.00099999996
0.00099999996
0.00099999996
0.00099999996
0.00099999996
0.00099999996
0.00099999996
0.00099999996
0.00099999996
0.00099999996
0.00099999996
0.00099999996
0.00099999996
0.00099999996
0.00099999995
0.00099999989
0.00099999991
0.00099999991
0.00099999992
0.00099999992
0.00099999992
0.00099999992
0.00099999992
0.00099999992
0.00099999992
0.00099999992
0.00099999992
0.00099999992
0.00099999992
0.00099999992
0.00099999992
0.00099999992
0.00099999991
0.00099999991
0.00099999989
0.00099999981
0.00099999983
0.00099999985
0.00099999985
0.00099999985
0.00099999985
0.00099999985
0.00099999985
0.00099999985
0.00099999985
0.00099999985
0.00099999985
0.00099999985
0.00099999985
0.00099999985
0.00099999985
0.00099999985
0.00099999985
0.00099999983
0.00099999981
0.00099999969
0.00099999973
0.00099999975
0.00099999976
0.00099999976
0.00099999976
0.00099999976
0.00099999976
0.00099999976
0.00099999976
0.00099999976
0.00099999976
0.00099999976
0.00099999976
0.00099999976
0.00099999976
0.00099999976
0.00099999975
0.00099999973
0.00099999969
0.00099999953
0.00099999959
0.00099999962
0.00099999963
0.00099999964
0.00099999964
0.00099999964
0.00099999964
0.00099999964
0.00099999964
0.00099999964
0.00099999964
0.00099999964
0.00099999964
0.00099999964
0.00099999964
0.00099999963
0.00099999962
0.00099999959
0.00099999953
0.00099999933
0.0009999994
0.00099999946
0.00099999947
0.00099999948
0.00099999948
0.00099999948
0.00099999948
0.00099999948
0.00099999948
0.00099999948
0.00099999948
0.00099999948
0.00099999948
0.00099999948
0.00099999948
0.00099999947
0.00099999946
0.0009999994
0.00099999933
0.00099999907
0.00099999917
0.00099999925
0.00099999928
0.00099999928
0.00099999928
0.00099999928
0.00099999928
0.00099999928
0.00099999928
0.00099999928
0.00099999928
0.00099999928
0.00099999928
0.00099999928
0.00099999928
0.00099999928
0.00099999925
0.00099999917
0.00099999907
0.00099999877
0.00099999891
0.000999999
0.00099999903
0.00099999905
0.00099999905
0.00099999905
0.00099999905
0.00099999905
0.00099999905
0.00099999905
0.00099999905
0.00099999905
0.00099999905
0.00099999905
0.00099999905
0.00099999903
0.000999999
0.00099999891
0.00099999877
0.00099999842
0.00099999859
0.00099999863
0.00099999874
0.00099999878
0.00099999877
0.00099999879
0.00099999879
0.00099999878
0.00099999876
0.00099999876
0.00099999878
0.00099999879
0.00099999879
0.00099999877
0.00099999878
0.00099999874
0.00099999863
0.00099999859
0.00099999842
0.000999998
0.00099999798
0.00099999815
0.00099999844
0.00099999839
0.00099999842
0.00099999848
0.0009999984
0.00099999823
0.00099999839
0.00099999839
0.00099999823
0.0009999984
0.00099999848
0.00099999842
0.00099999839
0.00099999844
0.00099999815
0.00099999798
0.000999998
0.00099999746
0.00099999746
0.00099999796
0.00099999805
0.00099999791
0.00099999772
0.00099999571
0.0009999968
0.00099999725
0.00099999807
0.00099999807
0.00099999725
0.0009999968
0.00099999573
0.00099999773
0.00099999791
0.00099999805
0.00099999796
0.00099999746
0.00099999746
0.0009999969
0.00099999739
0.00099999768
0.0009999976
0.00099999756
0.00099999654
0.000999994
0.000999995
0.00099999739
0.00099999769
0.00099999769
0.00099999739
0.00099999499
0.00099999399
0.00099999654
0.00099999756
0.0009999976
0.00099999768
0.00099999739
0.0009999969
0.00099999598
0.00099999663
0.00099999716
0.00099999714
0.00099999626
0.00099999351
0.00099999398
0.0009999959
0.00099999742
0.00099999718
0.00099999718
0.00099999741
0.00099999589
0.00099999396
0.0009999935
0.00099999626
0.00099999714
0.00099999716
0.00099999663
0.00099999598
0.00099999482
0.00099998552
0.00099999418
0.00099999383
0.00099998896
0.00099999064
0.00099999628
0.00099999653
0.00099999728
0.00099999671
0.00099999671
0.00099999728
0.00099999653
0.00099999627
0.00099999064
0.00099998895
0.00099999383
0.00099999418
0.00099998552
0.00099999482
0.00099998158
0.00099996725
0.00099997204
0.00099997091
0.00099997202
0.0009999856
0.0009999954
0.0009999965
0.0009999963
0.00099999618
0.00099999618
0.0009999963
0.0009999965
0.00099999539
0.00099998564
0.00099997203
0.00099997092
0.00099997204
0.00099996725
0.00099998158
0.00099996725
0.00099996725
0.00099996725
0.00099996725
0.00099998203
0.00099998681
0.00099999283
0.00099999646
0.00099999574
0.00099999568
0.00099999568
0.00099999574
0.00099999646
0.00099999289
0.00099998679
0.00099998203
0.00099996725
0.00099996725
0.00099996725
0.00099996725
0.00099996725
0.00099996725
0.00099996725
0.0009999739
0.00099999345
0.00099999396
0.00099999563
0.00099999588
0.00099998967
0.0009999918
0.00099999182
0.00099998968
0.00099999592
0.00099999568
0.00099999395
0.00099999345
0.0009999739
0.00099996725
0.00099996725
0.00099996725
0.00099996725
0.00099996725
0.00099996725
0.00099999125
0.00099999477
0.00099999487
0.00099999498
0.0009999953
0.00099998666
0.00099998666
0.00099998666
0.00099998666
0.00099999533
0.00099999502
0.0009999949
0.0009999948
0.00099999125
0.00099996725
0.00099996725
0.00099996725
0.00099996725
0.00099996725
0.00099997467
0.00099999462
0.00099999468
0.00099999446
0.00099998942
0.00099998677
0.00099998833
0.00099998666
0.00099998666
0.00099998832
0.0009999867
0.00099998933
0.00099999446
0.00099999471
0.00099999463
0.00099997467
0.00099996725
0.00099996725
0.00099996725
0.00099996725
0.00099998845
0.0009999934
0.00099998404
0.0009999826
0.00099998145
0.00099998145
0.00099998935
0.00099998897
0.00099998898
0.00099998935
0.00099998145
0.00099998144
0.0009999826
0.00099998399
0.00099999339
0.00099998845
0.00099996725
0.00099996725
0.00099996725
0.00099996725
0.0009999854
0.00099998149
0.00099998145
0.00099998145
0.00099998145
0.00099998145
0.00099998822
0.00099998952
0.00099998952
0.00099998826
0.00099998144
0.00099998145
0.00099998144
0.00099998145
0.00099998148
0.0009999854
0.00099996725
0.00099996725
0.00099997585
0.00099998269
0.00099998109
0.00099998885
0.00099998145
0.00099998145
0.00099998145
0.00099998145
0.00099998145
0.00099998952
0.00099998952
0.00099998144
0.00099998145
0.00099998144
0.00099998145
0.00099998144
0.00099998885
0.0009999811
0.00099998269
0.00099997585
0.00099998885
0.00099998885
0.00099998109
0.00099998885
0.00099998145
0.00099998145
0.00099998145
0.00099998145
0.00099998145
0.0009999882
0.00099998816
0.00099998145
0.00099998144
0.00099998145
0.00099998144
0.00099998145
0.00099998885
0.00099998109
0.00099998885
0.00099998885
0.00099998885
0.00099998885
0.00099998232
0.00099998885
0.00099998461
0.00099998186
0.00099998145
0.00099998424
0.00099998844
0.00099998494
0.00099998494
0.00099998843
0.00099998427
0.00099998144
0.00099998185
0.00099998464
0.00099998885
0.00099998232
0.00099998885
0.00099998885
0.00099998885
0.00099998885
0.00099998885
0.00099998885
0.00099998885
0.00099998885
0.0009999872
0.00099998885
0.00099998885
0.00099998494
0.00099998494
0.00099998885
0.00099998885
0.00099998722
0.00099998885
0.00099998885
0.00099998885
0.00099998885
0.00099998885
0.00099998885
0.00099998885
0.00099998885
0.00099998885
0.00099998885
0.00099998885
0.00099998885
0.00099998885
0.00099998885
0.00099998885
0.00099998795
0.00099998795
0.00099998885
0.00099998885
0.00099998885
0.00099998885
0.00099998885
0.00099998885
0.00099998885
0.00099998885
0.00099998885
0.00099998885
0.00099998885
0.00099998885
0.00099998885
0.00099998885
0.00099998885
0.00099998885
0.00099998885
0.00099998885
0.00099998885
0.00099998885
0.00099998885
0.00099998885
0.00099998885
0.00099998885
0.00099998885
0.00099998885
0.00099998885
0.00099998885
0.00099998885
0.00099998885
0.00099998885
0.00099998885
0.00099998885
0.00099998885
0.00099998885
0.00099998885
0.00099998885
0.00099998885
0.00099998885
0.00099998885
0.00099998885
0.00099998885
0.00099998885
0.00099998885
0.00099998885
0.00099998885
0.00099998885
0.00099998885
0.00099998885
0.00099997231
0.00099998885
0.00099998885
0.00099998885
0.00099998885
0.00099998885
0.00099998885
0.00099998885
0.00099998885
0.00099998885
0.00099998885
0.00099998885
0.00099998885
0.00099998885
0.00099998885
0.00099998885
0.00099998885
0.00099998885
0.00099998885
0.00099997231
0.00099961028
0.00099992993
0.00099998333
0.00099998839
0.00099998885
0.00099998885
0.00099998885
0.00099998885
0.00099998885
0.00099998885
0.00099998885
0.00099998885
0.00099998885
0.00099998885
0.00099998885
0.00099998885
0.00099998839
0.00099998333
0.00099992994
0.00099961037
0.00098875961
0.00099880834
0.00099979556
0.00099990227
0.00099993092
0.00099994139
0.00099994553
0.00099994727
0.00099994843
0.00099994888
0.00099994888
0.00099994843
0.00099994727
0.00099994553
0.00099994139
0.00099993093
0.00099990228
0.00099979558
0.00099880855
0.00098876281
0.00067912127
0.00096501014
0.0009946661
0.00099782889
0.00099857947
0.00099884272
0.00099894018
0.00099898326
0.00099901193
0.00099902539
0.0009990254
0.00099901194
0.00099898329
0.00099894021
0.00099884277
0.00099857956
0.00099782907
0.00099466673
0.00096501641
0.0006791673
1e-05
1e-05
0.00078278
0.00088727199
0.00092561092
0.00094005835
0.00094606055
0.00094902088
0.00095072237
0.00095147922
0.00095147947
0.00095072315
0.00094902248
0.00094606264
0.00094006137
0.00092561538
0.00088728025
0.00078279593
1e-05
1e-05
1e-05
1e-05
1e-05
1e-05
1e-05
1e-05
1e-05
1e-05
1e-05
1e-05
1e-05
1e-05
1e-05
1e-05
1e-05
1e-05
1e-05
1e-05
1e-05
1e-05
1e-05
1e-05
1e-05
1e-05
1e-05
1e-05
1e-05
1e-05
1e-05
1e-05
1e-05
1e-05
1e-05
1e-05
1e-05
1e-05
1e-05
1e-05
1e-05
1e-05
1e-05
1e-05
1e-05
1e-05
1e-05
1e-05
1e-05
1e-05
1e-05
1e-05
1e-05
1e-05
1e-05
1e-05
1e-05
1e-05
1e-05
1e-05
1e-05
1e-05
)
;

boundaryField
{
    Wall
    {
        type            zeroGradient;
    }
    frontAndBack
    {
        type            empty;
    }
    atmosphere
    {
        type            zeroGradient;
    }
}


// ************************************************************************* //
