/*--------------------------------*- C++ -*----------------------------------*\
| =========                 |                                                 |
| \\      /  F ield         | OpenFOAM: The Open Source CFD Toolbox           |
|  \\    /   O peration     | Version:  3.0.1                                 |
|   \\  /    A nd           | Web:      www.OpenFOAM.org                      |
|    \\/     M anipulation  |                                                 |
\*---------------------------------------------------------------------------*/
FoamFile
{
    version     2.0;
    format      ascii;
    class       volScalarField;
    location    "35";
    object      mZero;
}
// * * * * * * * * * * * * * * * * * * * * * * * * * * * * * * * * * * * * * //

dimensions      [0 0 0 0 0 0 0];

internalField   nonuniform List<scalar> 
800
(
1e+13
1e+13
1e+13
1e+13
1e+13
1e+13
1e+13
1e+13
1e+13
1e+13
1e+13
1e+13
1e+13
1e+13
1e+13
1e+13
1e+13
1e+13
1e+13
1e+13
1e+13
1e+13
1e+13
1e+13
1e+13
1e+13
1e+13
1e+13
1e+13
1e+13
1e+13
1e+13
1e+13
1e+13
1e+13
1e+13
1e+13
1e+13
1e+13
1e+13
9.9577478e+12
9.9592278e+12
9.9599685e+12
9.9602767e+12
9.9603987e+12
9.9604417e+12
9.9604523e+12
9.9604515e+12
9.9604482e+12
9.960446e+12
9.960446e+12
9.9604482e+12
9.9604514e+12
9.9604522e+12
9.9604416e+12
9.9603986e+12
9.9602765e+12
9.9599683e+12
9.9592276e+12
9.9577474e+12
9.8778769e+12
9.8821452e+12
9.8841013e+12
9.8849107e+12
9.8852365e+12
9.885352e+12
9.8853807e+12
9.8853786e+12
9.8853694e+12
9.8853633e+12
9.8853633e+12
9.8853694e+12
9.8853784e+12
9.8853805e+12
9.8853517e+12
9.8852362e+12
9.8849104e+12
9.8841008e+12
9.8821447e+12
9.877876e+12
9.7669944e+12
9.775115e+12
9.7786012e+12
9.7800342e+12
9.7806157e+12
9.7808235e+12
9.780877e+12
9.7808746e+12
9.780859e+12
9.7808482e+12
9.7808482e+12
9.7808589e+12
9.7808744e+12
9.7808767e+12
9.780823e+12
9.7806151e+12
9.7800335e+12
9.7786004e+12
9.775114e+12
9.766993e+12
9.6301068e+12
9.6429016e+12
9.6481507e+12
9.6502894e+12
9.6511568e+12
9.6514672e+12
9.6515486e+12
9.6515462e+12
9.6515235e+12
9.6515076e+12
9.6515076e+12
9.6515233e+12
9.6515459e+12
9.6515481e+12
9.6514665e+12
9.6511559e+12
9.6502884e+12
9.6481495e+12
9.6429002e+12
9.630105e+12
9.4714505e+12
9.4895651e+12
9.4967456e+12
9.4996439e+12
9.5008113e+12
9.5012263e+12
9.5013346e+12
9.5013306e+12
9.5012995e+12
9.5012779e+12
9.5012778e+12
9.5012992e+12
9.5013301e+12
9.5013339e+12
9.5012254e+12
9.5008102e+12
9.4996426e+12
9.496744e+12
9.4895633e+12
9.4714482e+12
9.2947064e+12
9.3186706e+12
9.3279009e+12
9.3315902e+12
9.3330584e+12
9.3335743e+12
9.3337062e+12
9.3336982e+12
9.3336572e+12
9.333629e+12
9.3336289e+12
9.3336568e+12
9.3336975e+12
9.3337053e+12
9.3335732e+12
9.333057e+12
9.3315886e+12
9.327899e+12
9.3186685e+12
9.2947038e+12
9.1031114e+12
9.1333637e+12
9.1447315e+12
9.1492283e+12
9.1509893e+12
9.1515986e+12
9.1517498e+12
9.1517352e+12
9.151683e+12
9.1516477e+12
9.1516476e+12
9.1516826e+12
9.1517345e+12
9.1517488e+12
9.1515973e+12
9.1509877e+12
9.1492264e+12
9.1447294e+12
9.1333613e+12
9.1031085e+12
8.8994796e+12
8.9363826e+12
8.9499608e+12
8.9552727e+12
8.957314e+12
8.9580072e+12
8.9581734e+12
8.9581502e+12
8.9580855e+12
8.9580426e+12
8.9580425e+12
8.958085e+12
8.9581493e+12
8.9581722e+12
8.9580057e+12
8.9573122e+12
8.9552707e+12
8.9499585e+12
8.93638e+12
8.8994766e+12
8.6861045e+12
8.7299966e+12
8.7458643e+12
8.7520031e+12
8.754315e+12
8.7550855e+12
8.7552654e+12
8.7552336e+12
8.7551565e+12
8.7551061e+12
8.7551059e+12
8.755156e+12
8.7552327e+12
8.7552641e+12
8.755084e+12
8.7543131e+12
8.752001e+12
8.7458619e+12
8.7299939e+12
8.6861014e+12
8.4653068e+12
8.5164795e+12
8.5347033e+12
8.5416622e+12
8.5442222e+12
8.545055e+12
8.54524e+12
8.5451949e+12
8.5451015e+12
8.5450417e+12
8.5450415e+12
8.5451009e+12
8.5451939e+12
8.5452387e+12
8.5450533e+12
8.5442202e+12
8.5416599e+12
8.5347008e+12
8.5164768e+12
8.4653038e+12
8.239166e+12
8.2978526e+12
8.3185241e+12
8.3263118e+12
8.3291089e+12
8.3299971e+12
8.3301841e+12
8.3301242e+12
8.3300121e+12
8.3299421e+12
8.3299419e+12
8.3300115e+12
8.3301232e+12
8.3301827e+12
8.3299954e+12
8.3291069e+12
8.3263095e+12
8.3185216e+12
8.2978499e+12
8.2391631e+12
8.0093352e+12
8.075776e+12
8.0990188e+12
8.1076574e+12
8.1106879e+12
8.1116285e+12
8.1118147e+12
8.1117398e+12
8.1116073e+12
8.1115259e+12
8.1115257e+12
8.1116066e+12
8.1117388e+12
8.1118133e+12
8.1116268e+12
8.1106859e+12
8.1076552e+12
8.0990163e+12
8.0757734e+12
8.0093323e+12
7.7771797e+12
7.8515968e+12
7.8775818e+12
7.8871145e+12
7.8903862e+12
7.8913795e+12
7.8915625e+12
7.8914728e+12
7.8913184e+12
7.8912242e+12
7.891224e+12
7.8913178e+12
7.8914718e+12
7.8915611e+12
7.8913778e+12
7.8903842e+12
7.8871123e+12
7.8775794e+12
7.8515943e+12
7.777177e+12
7.5435468e+12
7.6262258e+12
7.6551756e+12
7.6656773e+12
7.6692122e+12
7.6702628e+12
7.6704409e+12
7.6703371e+12
7.6701614e+12
7.6700528e+12
7.6700526e+12
7.6701608e+12
7.6703361e+12
7.6704395e+12
7.6702611e+12
7.6692102e+12
7.6656752e+12
7.6551732e+12
7.6262234e+12
7.5435443e+12
7.3097671e+12
7.4009482e+12
7.4331274e+12
7.4446896e+12
7.448511e+12
7.4496159e+12
7.4497791e+12
7.449656e+12
7.4494581e+12
7.4493324e+12
7.4493322e+12
7.4494575e+12
7.449655e+12
7.4497778e+12
7.4496143e+12
7.4485092e+12
7.4446876e+12
7.4331253e+12
7.400946e+12
7.3097647e+12
7.076885e+12
7.176825e+12
7.2125587e+12
7.2253107e+12
7.2294536e+12
7.2306066e+12
7.2307381e+12
7.2305844e+12
7.2303624e+12
7.2302164e+12
7.2302162e+12
7.2303618e+12
7.2305834e+12
7.2307368e+12
7.230605e+12
7.2294519e+12
7.2253088e+12
7.2125567e+12
7.176823e+12
7.0768828e+12
6.8454689e+12
6.9544605e+12
6.9941616e+12
7.0082983e+12
7.0128268e+12
7.0140297e+12
7.0141136e+12
7.0139177e+12
7.0136715e+12
7.0135035e+12
7.0135033e+12
7.0136709e+12
7.0139167e+12
7.0141124e+12
7.0140283e+12
7.0128252e+12
7.0082966e+12
6.9941597e+12
6.9544586e+12
6.8454669e+12
6.6157709e+12
6.7341913e+12
6.7783532e+12
6.7941227e+12
6.7991202e+12
6.8003724e+12
6.8003844e+12
6.8001256e+12
6.7998502e+12
6.7996573e+12
6.7996571e+12
6.7998497e+12
6.8001247e+12
6.8003832e+12
6.8003711e+12
6.7991187e+12
6.7941212e+12
6.7783515e+12
6.7341897e+12
6.6157691e+12
6.3880811e+12
6.51634e+12
6.5655657e+12
6.5833021e+12
6.5888964e+12
6.5902132e+12
6.5901327e+12
6.5897895e+12
6.5894796e+12
6.5892593e+12
6.5892591e+12
6.5894791e+12
6.5897887e+12
6.5901317e+12
6.590212e+12
6.5888951e+12
6.5833008e+12
6.5655642e+12
6.5163386e+12
6.3880797e+12
6.1624376e+12
6.3010379e+12
6.3560337e+12
6.3761449e+12
6.3824986e+12
6.3838983e+12
6.3836954e+12
6.383233e+12
6.3828726e+12
6.3826178e+12
6.3826176e+12
6.3828721e+12
6.3832322e+12
6.3836944e+12
6.3838972e+12
6.3824974e+12
6.3761437e+12
6.3560324e+12
6.3010367e+12
6.1624364e+12
5.938327e+12
6.0878974e+12
6.1495254e+12
6.1725424e+12
6.1798909e+12
6.1814226e+12
6.1810761e+12
6.180459e+12
6.1800302e+12
6.1797326e+12
6.1797324e+12
6.1800298e+12
6.1804583e+12
6.1810753e+12
6.1814217e+12
6.1798899e+12
6.1725414e+12
6.1495244e+12
6.0878965e+12
5.9383263e+12
5.7154042e+12
5.8767042e+12
5.9459677e+12
5.9725363e+12
5.9811845e+12
5.9829214e+12
5.9824104e+12
5.9815945e+12
5.9810707e+12
5.9807171e+12
5.9807169e+12
5.9810703e+12
5.9815939e+12
5.9824097e+12
5.9829207e+12
5.9811838e+12
5.9725356e+12
5.9459669e+12
5.8767037e+12
5.7154039e+12
5.4927346e+12
5.6667067e+12
5.7448057e+12
5.7757281e+12
5.7860831e+12
5.7881423e+12
5.7874539e+12
5.7863885e+12
5.7857342e+12
5.7853058e+12
5.7853057e+12
5.7857339e+12
5.7863879e+12
5.7874533e+12
5.7881417e+12
5.7860825e+12
5.7757276e+12
5.7448053e+12
5.6667066e+12
5.4927347e+12
5.2692734e+12
5.4570792e+12
5.545441e+12
5.5817154e+12
5.5943043e+12
5.596858e+12
5.5959903e+12
5.5946158e+12
5.5937827e+12
5.5932528e+12
5.5932527e+12
5.5937824e+12
5.5946153e+12
5.5959898e+12
5.5968576e+12
5.5943039e+12
5.5817152e+12
5.5454409e+12
5.4570795e+12
5.2692741e+12
5.0434605e+12
5.2465489e+12
5.3468805e+12
5.3897455e+12
5.405259e+12
5.4085677e+12
5.4075466e+12
5.4058013e+12
5.4047295e+12
5.4040638e+12
5.4040636e+12
5.4047293e+12
5.4058008e+12
5.4075462e+12
5.4085674e+12
5.4052588e+12
5.3897456e+12
5.3468808e+12
5.2465497e+12
5.0434619e+12
4.8133766e+12
5.0335338e+12
5.1478884e+12
5.1988783e+12
5.2182095e+12
5.2226472e+12
5.2215332e+12
5.2193495e+12
5.217961e+12
5.2171128e+12
5.2171127e+12
5.2179607e+12
5.2193491e+12
5.2215329e+12
5.222647e+12
5.2182095e+12
5.1988786e+12
5.1478891e+12
5.0335353e+12
4.8133787e+12
4.5765964e+12
4.8160077e+12
4.9468772e+12
5.0078994e+12
5.0322163e+12
5.0383205e+12
5.0372328e+12
5.0345439e+12
5.032741e+12
5.0316496e+12
5.0316495e+12
5.0327408e+12
5.0345435e+12
5.0372326e+12
5.0383205e+12
5.0322165e+12
5.0079001e+12
4.9468784e+12
4.81601e+12
4.5765996e+12
4.330033e+12
4.5913474e+12
4.7417661e+12
4.8152091e+12
4.846053e+12
4.8545933e+12
4.8537405e+12
4.8504886e+12
4.8481514e+12
4.8467376e+12
4.8467375e+12
4.8481512e+12
4.8504883e+12
4.8537404e+12
4.8545934e+12
4.8460534e+12
4.8152101e+12
4.7417679e+12
4.5913508e+12
4.3300375e+12
4.0697415e+12
4.3561156e+12
4.5297994e+12
4.6186891e+12
4.6581043e+12
4.6701898e+12
4.6699317e+12
4.6660825e+12
4.6630667e+12
4.6612272e+12
4.6612271e+12
4.6630665e+12
4.6660822e+12
4.6699317e+12
4.67019e+12
4.6581049e+12
4.6186905e+12
4.529802e+12
4.3561203e+12
4.0697478e+12
3.7906896e+12
4.1058081e+12
4.3072744e+12
4.4154617e+12
4.4662237e+12
4.483461e+12
4.4844043e+12
4.4799833e+12
4.4761215e+12
4.4737219e+12
4.4737218e+12
4.4761214e+12
4.479983e+12
4.4844044e+12
4.4834614e+12
4.4662246e+12
4.4154635e+12
4.3072778e+12
4.1058145e+12
3.7906984e+12
3.4867881e+12
3.8345009e+12
4.0690192e+12
4.2016324e+12
4.2675511e+12
4.2922554e+12
4.2953816e+12
4.2905638e+12
4.2856665e+12
4.2825289e+12
4.2825287e+12
4.2856664e+12
4.2905636e+12
4.2953819e+12
4.292256e+12
4.2675523e+12
4.2016347e+12
4.0690236e+12
3.8345095e+12
3.4868e+12
3.1509205e+12
3.5341351e+12
3.8081688e+12
3.9718462e+12
4.0582256e+12
4.0937551e+12
4.1007006e+12
4.0958678e+12
4.0897164e+12
4.0855967e+12
4.0855966e+12
4.0897163e+12
4.0958678e+12
4.100701e+12
4.0937558e+12
4.0582271e+12
3.9718492e+12
3.8081744e+12
3.5341458e+12
3.1509366e+12
2.7750086e+12
3.1946462e+12
3.5155279e+12
3.7186734e+12
3.832987e+12
3.884381e+12
3.8977311e+12
3.8935477e+12
3.8859072e+12
3.8804655e+12
3.8804654e+12
3.8859072e+12
3.8935478e+12
3.8977316e+12
3.884382e+12
3.8329889e+12
3.7186771e+12
3.515535e+12
3.1946595e+12
2.7750295e+12
2.3490344e+12
2.8039661e+12
3.1791362e+12
3.4325454e+12
3.5846458e+12
3.6594002e+12
3.683156e+12
3.68082e+12
3.6714911e+12
3.6642544e+12
3.6642543e+12
3.6714912e+12
3.6808203e+12
3.6831566e+12
3.6594015e+12
3.5846482e+12
3.4325501e+12
3.1791451e+12
2.8039827e+12
2.3490618e+12
1.8394002e+12
2.3419905e+12
2.7847194e+12
3.1015855e+12
3.3044482e+12
3.4128369e+12
3.4531624e+12
3.4550847e+12
3.4440619e+12
3.4344121e+12
3.4344121e+12
3.4440621e+12
3.4550852e+12
3.4531634e+12
3.4128387e+12
3.3044515e+12
3.1015917e+12
2.7847306e+12
2.3420122e+12
1.839435e+12
1.2729053e+12
1.8089661e+12
2.3086231e+12
2.7037042e+12
2.9753258e+12
3.1321899e+12
3.1991243e+12
3.2097095e+12
3.1975009e+12
3.1846884e+12
3.1846885e+12
3.1975014e+12
3.2097104e+12
3.1991258e+12
3.1321926e+12
2.9753308e+12
2.7037131e+12
2.3086376e+12
1.8089899e+12
1.2729426e+12
7.2875286e+11
1.311884e+12
1.8151996e+12
2.253427e+12
2.5936065e+12
2.8102876e+12
2.9146068e+12
2.9394237e+12
2.9269344e+12
2.9098964e+12
2.9098966e+12
2.9269351e+12
2.9394249e+12
2.9146084e+12
2.8102908e+12
2.5936129e+12
2.253438e+12
1.8152153e+12
1.3119059e+12
7.2878572e+11
3.2553882e+11
9.0310548e+11
1.3989238e+12
1.8442714e+12
2.2190278e+12
2.4842329e+12
2.6263583e+12
2.6683008e+12
2.6565571e+12
2.6347579e+12
2.6347582e+12
2.6565581e+12
2.6683022e+12
2.6263602e+12
2.4842365e+12
2.2190347e+12
1.8442825e+12
1.398939e+12
9.0312395e+11
3.2556115e+11
)
;

boundaryField
{
    Wall
    {
        type            zeroGradient;
    }
    frontAndBack
    {
        type            empty;
    }
    atmosphere
    {
        type            zeroGradient;
    }
}


// ************************************************************************* //
