/*--------------------------------*- C++ -*----------------------------------*\
| =========                 |                                                 |
| \\      /  F ield         | OpenFOAM: The Open Source CFD Toolbox           |
|  \\    /   O peration     | Version:  3.0.1                                 |
|   \\  /    A nd           | Web:      www.OpenFOAM.org                      |
|    \\/     M anipulation  |                                                 |
\*---------------------------------------------------------------------------*/
FoamFile
{
    version     2.0;
    format      ascii;
    class       volScalarField;
    location    "35";
    object      node0;
}
// * * * * * * * * * * * * * * * * * * * * * * * * * * * * * * * * * * * * * //

dimensions      [0 0 0 0 0 0 0];

internalField   nonuniform List<scalar> 
800
(
0
0
0
0
0
0
0
0
0
0
0
0
0
0
0
0
0
0
0
0
0
0
0
0
0
0
0
0
0
0
0
0
0
0
0
0
0
0
0
0
0
0
0
0
0
0
0
0
0
0
0
0
0
0
0
0
0
0
0
0
0
0
0
0
0
0
0
0
0
0
0
0
0
0
0
0
0
0
0
0
0
0
0
0
0
0
0
0
0
0
0
0
0
0
0
0
0
0
0
0
0
0
0
0
0
0
0
0
0
0
0
0
0
0
0
0
0
0
0
0
0
0
0
0
0
0
0
0
0
0
0
0
0
0
0
0
0
0
0
0
0
0
0
0
0
0
0
0
0
0
0
0
0
0
0
0
0
0
0
0
0
0
0
0
0
0
0
0
0
0
0
0
0
0
0
0
0
0
0
0
0
0
0
0
0
0
0
0
0
0
0
0
0
0
0
0
0
0
0
0
0
0
0
0
0
0
0
0
0
0
0
0
0
0
0
0
0
0
0
0
1.3752208e-13
0
0
0
0
0
0
0
0
0
0
0
0
0
0
0
0
0
0
1.3752271e-13
5.5327908e-13
4.5748751e-13
4.3040841e-13
4.2773883e-13
4.3287202e-13
4.3553451e-13
4.3513141e-13
4.3493599e-13
4.3498044e-13
4.3497801e-13
4.3497801e-13
4.3498048e-13
4.3493609e-13
4.3513148e-13
4.3553465e-13
4.3287211e-13
4.2773886e-13
4.3040843e-13
4.5748742e-13
5.5327854e-13
8.349473e-13
8.0646966e-13
7.8292328e-13
7.7992634e-13
7.8881158e-13
7.9378689e-13
7.9296281e-13
7.9276295e-13
7.9292401e-13
7.9291363e-13
7.9291358e-13
7.9292388e-13
7.9276278e-13
7.929625e-13
7.9378654e-13
7.8881113e-13
7.7992575e-13
7.8292268e-13
8.0646897e-13
8.3494628e-13
1.0200498e-12
1.024406e-12
1.0042598e-12
1.0008558e-12
1.0135469e-12
1.0205715e-12
1.0188528e-12
1.0186236e-12
1.0189415e-12
1.0189577e-12
1.0189576e-12
1.0189413e-12
1.0186232e-12
1.0188523e-12
1.0205709e-12
1.0135462e-12
1.0008548e-12
1.0042588e-12
1.0244049e-12
1.0200485e-12
1.1469396e-12
1.166842e-12
1.1505457e-12
1.1466086e-12
1.1618636e-12
1.1696098e-12
1.1671703e-12
1.1668322e-12
1.1672762e-12
1.1674e-12
1.1673999e-12
1.1672759e-12
1.1668318e-12
1.1671696e-12
1.169609e-12
1.1618626e-12
1.1466075e-12
1.1505445e-12
1.1668408e-12
1.146938e-12
1.2562552e-12
1.2812194e-12
1.268178e-12
1.2636005e-12
1.2795908e-12
1.2867905e-12
1.283995e-12
1.2834478e-12
1.2839371e-12
1.2842969e-12
1.2842968e-12
1.2839367e-12
1.2834473e-12
1.2839943e-12
1.2867896e-12
1.2795897e-12
1.2635992e-12
1.2681767e-12
1.281218e-12
1.2562535e-12
1.3730238e-12
1.3962277e-12
1.3852239e-12
1.3800281e-12
1.3951589e-12
1.4010176e-12
1.398015e-12
1.3971588e-12
1.3975706e-12
1.3983136e-12
1.3983135e-12
1.3975702e-12
1.3971583e-12
1.3980143e-12
1.4010167e-12
1.3951579e-12
1.3800268e-12
1.3852227e-12
1.3962263e-12
1.373022e-12
1.5067155e-12
1.5242604e-12
1.5140234e-12
1.5083757e-12
1.5216748e-12
1.5257845e-12
1.5225132e-12
1.5212598e-12
1.5214264e-12
1.5226781e-12
1.522678e-12
1.521426e-12
1.5212593e-12
1.5225125e-12
1.5257836e-12
1.5216737e-12
1.5083744e-12
1.5140222e-12
1.524259e-12
1.5067136e-12
1.6582748e-12
1.6684606e-12
1.657914e-12
1.6520508e-12
1.6631301e-12
1.6653394e-12
1.661675e-12
1.6599572e-12
1.6596833e-12
1.6615111e-12
1.661511e-12
1.659683e-12
1.6599567e-12
1.6616743e-12
1.6653385e-12
1.6631291e-12
1.6520496e-12
1.6579128e-12
1.6684592e-12
1.6582729e-12
1.8251164e-12
1.8277425e-12
1.816098e-12
1.8102151e-12
1.8190535e-12
1.8194088e-12
1.8152794e-12
1.8130595e-12
1.812178e-12
1.8145708e-12
1.8145707e-12
1.8121777e-12
1.813059e-12
1.8152787e-12
1.819408e-12
1.8190525e-12
1.8102139e-12
1.8160968e-12
1.8277412e-12
1.8251144e-12
2.0039076e-12
1.9996421e-12
1.9864577e-12
1.980659e-12
1.9874335e-12
1.9861311e-12
1.9815649e-12
1.9788492e-12
1.9772999e-12
1.9801746e-12
1.9801745e-12
1.9772996e-12
1.9788488e-12
1.9815643e-12
1.9861303e-12
1.9874326e-12
1.9806579e-12
1.9864565e-12
1.9996407e-12
2.0039057e-12
2.1913636e-12
2.1812931e-12
2.166503e-12
2.1607724e-12
2.1657839e-12
2.1630763e-12
2.1581398e-12
2.1549758e-12
2.1528478e-12
2.1560725e-12
2.1560725e-12
2.1528475e-12
2.1549753e-12
2.1581392e-12
2.1630755e-12
2.165783e-12
2.1607713e-12
2.1665018e-12
2.1812917e-12
2.1913617e-12
2.3841579e-12
2.3695598e-12
2.3534779e-12
2.347688e-12
2.351363e-12
2.3474707e-12
2.3421862e-12
2.3386641e-12
2.3361824e-12
2.3396127e-12
2.3396126e-12
2.3361821e-12
2.3386637e-12
2.3421856e-12
2.34747e-12
2.3513622e-12
2.3476869e-12
2.3534767e-12
2.3695584e-12
2.384156e-12
2.5784998e-12
2.5609247e-12
2.544139e-12
2.5381176e-12
2.5408911e-12
2.5359812e-12
2.5303146e-12
2.526563e-12
2.5240226e-12
2.527538e-12
2.527538e-12
2.5240224e-12
2.5265626e-12
2.530314e-12
2.5359805e-12
2.5408903e-12
2.5381166e-12
2.5441379e-12
2.5609233e-12
2.5784982e-12
2.7692825e-12
2.7509e-12
2.7340927e-12
2.7277241e-12
2.7297874e-12
2.7240418e-12
2.7179713e-12
2.7141517e-12
2.7118501e-12
2.7153804e-12
2.7153804e-12
2.7118499e-12
2.7141514e-12
2.7179708e-12
2.7240411e-12
2.7297866e-12
2.7277232e-12
2.7340917e-12
2.7508987e-12
2.7692811e-12
2.9490272e-12
2.9331455e-12
2.9169893e-12
2.9100842e-12
2.9112182e-12
2.9048138e-12
2.8983917e-12
2.894697e-12
2.8929126e-12
2.8964515e-12
2.8964515e-12
2.8929124e-12
2.8946968e-12
2.8983913e-12
2.9048132e-12
2.9112176e-12
2.9100834e-12
2.9169884e-12
2.9331444e-12
2.9490261e-12
3.1067372e-12
3.0982398e-12
3.0835442e-12
3.0755415e-12
3.0749888e-12
3.0680102e-12
3.0613128e-12
3.0579535e-12
3.0569672e-12
3.060573e-12
3.060573e-12
3.0569672e-12
3.0579534e-12
3.0613125e-12
3.0680098e-12
3.0749883e-12
3.0755409e-12
3.0835434e-12
3.098239e-12
3.1067367e-12
3.2268723e-12
3.2325556e-12
3.2206175e-12
3.2102084e-12
3.2065698e-12
3.1988605e-12
3.1918115e-12
3.1889664e-12
3.1890738e-12
3.1928547e-12
3.1928547e-12
3.1890738e-12
3.1889664e-12
3.1918114e-12
3.1988603e-12
3.2065696e-12
3.2102081e-12
3.2206171e-12
3.2325555e-12
3.2268728e-12
3.2896433e-12
3.3179135e-12
3.3109047e-12
3.2960715e-12
3.2875158e-12
3.2783472e-12
3.2705076e-12
3.2682258e-12
3.2696663e-12
3.2737538e-12
3.2737539e-12
3.2696665e-12
3.2682261e-12
3.2705078e-12
3.2783474e-12
3.287516e-12
3.2960716e-12
3.3109049e-12
3.3179143e-12
3.2896451e-12
3.274883e-12
3.3340445e-12
3.334866e-12
3.3137235e-12
3.2982629e-12
3.2863007e-12
3.2768622e-12
3.2749689e-12
3.2777661e-12
3.2822794e-12
3.2822795e-12
3.2777665e-12
3.2749695e-12
3.2768628e-12
3.2863013e-12
3.2982637e-12
3.3137243e-12
3.3348671e-12
3.3340468e-12
3.2748868e-12
3.1698625e-12
3.2647941e-12
3.2761722e-12
3.2480829e-12
3.2240175e-12
3.2072886e-12
3.1956179e-12
3.1941103e-12
3.1979825e-12
3.202999e-12
3.2029992e-12
3.1979831e-12
3.1941111e-12
3.195619e-12
3.2072897e-12
3.2240189e-12
3.2480846e-12
3.2761744e-12
3.2647981e-12
3.1698684e-12
2.9766273e-12
3.1051577e-12
3.1277535e-12
3.0934192e-12
3.0605886e-12
3.0366017e-12
3.0221115e-12
3.0222822e-12
3.0267589e-12
3.0323003e-12
3.0323006e-12
3.0267597e-12
3.0222834e-12
3.0221129e-12
3.0366033e-12
3.0605905e-12
3.0934217e-12
3.1277568e-12
3.1051633e-12
2.9766349e-12
2.7089458e-12
2.8628978e-12
2.894344e-12
2.854294e-12
2.8141839e-12
2.7807546e-12
2.7642061e-12
2.7663e-12
2.7708723e-12
2.7768825e-12
2.7768829e-12
2.7708732e-12
2.7663014e-12
2.7642078e-12
2.7807566e-12
2.8141863e-12
2.854297e-12
2.894348e-12
2.8629042e-12
2.7089539e-12
2.3829106e-12
2.5566321e-12
2.5900205e-12
2.5429086e-12
2.4964312e-12
2.4559587e-12
2.4358534e-12
2.4368645e-12
2.4409938e-12
2.4473053e-12
2.4473057e-12
2.4409948e-12
2.4368661e-12
2.4358552e-12
2.4559609e-12
2.4964337e-12
2.5429118e-12
2.5900246e-12
2.5566382e-12
2.3829176e-12
2.0188065e-12
2.2085999e-12
2.2345552e-12
2.1839928e-12
2.1226293e-12
2.0792377e-12
2.0513934e-12
2.047608e-12
2.0506216e-12
2.0569371e-12
2.0569375e-12
2.0506226e-12
2.0476096e-12
2.0513952e-12
2.0792398e-12
2.1226317e-12
2.1839958e-12
2.2345588e-12
2.2086048e-12
2.0188123e-12
0
0
1.8411122e-12
1.7916077e-12
1.7223874e-12
1.6639473e-12
1.6253545e-12
1.6280864e-12
1.6292821e-12
1.6352652e-12
1.6352656e-12
1.6292831e-12
1.6280879e-12
1.6253561e-12
1.6639492e-12
1.7223895e-12
1.7916103e-12
1.8411152e-12
0
0
0
0
0
0
0
0
0
0
0
0
0
0
0
0
0
0
0
0
0
0
0
0
0
0
0
0
0
0
0
0
0
0
0
0
0
0
0
0
0
0
0
0
0
0
0
0
0
0
0
0
0
0
0
0
0
0
0
0
0
0
)
;

boundaryField
{
    Wall
    {
        type            zeroGradient;
    }
    frontAndBack
    {
        type            empty;
    }
    atmosphere
    {
        type            zeroGradient;
    }
}


// ************************************************************************* //
