/*--------------------------------*- C++ -*----------------------------------*\
| =========                 |                                                 |
| \\      /  F ield         | OpenFOAM: The Open Source CFD Toolbox           |
|  \\    /   O peration     | Version:  3.0.1                                 |
|   \\  /    A nd           | Web:      www.OpenFOAM.org                      |
|    \\/     M anipulation  |                                                 |
\*---------------------------------------------------------------------------*/
FoamFile
{
    version     2.0;
    format      ascii;
    class       volScalarField;
    location    "35";
    object      node1;
}
// * * * * * * * * * * * * * * * * * * * * * * * * * * * * * * * * * * * * * //

dimensions      [0 0 0 0 0 0 0];

internalField   nonuniform List<scalar> 
800
(
2.0959779e-12
2.0961525e-12
2.0961705e-12
2.0961668e-12
2.0961631e-12
2.096161e-12
2.09616e-12
2.0961596e-12
2.0961595e-12
2.0961594e-12
2.0961595e-12
2.0961595e-12
2.0961596e-12
2.09616e-12
2.096161e-12
2.0961631e-12
2.0961669e-12
2.0961705e-12
2.0961525e-12
2.0959779e-12
2.0910025e-12
2.0920083e-12
2.0922735e-12
2.0923438e-12
2.0923558e-12
2.092352e-12
2.0923458e-12
2.0923408e-12
2.0923377e-12
2.0923362e-12
2.0923362e-12
2.0923377e-12
2.0923408e-12
2.0923457e-12
2.092352e-12
2.0923558e-12
2.0923438e-12
2.0922735e-12
2.0920083e-12
2.0910024e-12
2.0895253e-12
2.0909764e-12
2.0914416e-12
2.0915574e-12
2.0915745e-12
2.0915666e-12
2.0915558e-12
2.0915478e-12
2.0915429e-12
2.0915407e-12
2.0915407e-12
2.0915429e-12
2.0915477e-12
2.0915558e-12
2.0915666e-12
2.0915745e-12
2.0915574e-12
2.0914416e-12
2.0909763e-12
2.0895251e-12
2.0938543e-12
2.0953983e-12
2.0959718e-12
2.0960966e-12
2.096105e-12
2.0960893e-12
2.0960739e-12
2.0960638e-12
2.0960582e-12
2.0960558e-12
2.0960558e-12
2.0960582e-12
2.0960638e-12
2.0960738e-12
2.0960892e-12
2.096105e-12
2.0960965e-12
2.0959717e-12
2.0953982e-12
2.0938541e-12
2.1043473e-12
2.105634e-12
2.1062148e-12
2.106314e-12
2.1062981e-12
2.1062692e-12
2.106248e-12
2.1062362e-12
2.1062304e-12
2.1062282e-12
2.1062282e-12
2.1062304e-12
2.1062362e-12
2.106248e-12
2.1062692e-12
2.1062981e-12
2.1063139e-12
2.1062148e-12
2.1056339e-12
2.1043472e-12
2.1213336e-12
2.1220034e-12
2.1224813e-12
2.1225185e-12
2.1224603e-12
2.1224112e-12
2.1223818e-12
2.1223677e-12
2.1223619e-12
2.12236e-12
2.1223601e-12
2.1223619e-12
2.1223677e-12
2.1223818e-12
2.1224112e-12
2.1224603e-12
2.1225186e-12
2.1224814e-12
2.1220034e-12
2.1213335e-12
2.1451791e-12
2.1448609e-12
2.1451144e-12
2.1450504e-12
2.1449302e-12
2.1448527e-12
2.1448119e-12
2.1447946e-12
2.1447885e-12
2.144787e-12
2.144787e-12
2.1447885e-12
2.1447946e-12
2.144812e-12
2.1448528e-12
2.1449303e-12
2.1450505e-12
2.1451145e-12
2.144861e-12
2.1451791e-12
2.1761682e-12
2.1744986e-12
2.1743954e-12
2.1741889e-12
2.1739874e-12
2.173873e-12
2.1738173e-12
2.1737953e-12
2.1737884e-12
2.1737872e-12
2.1737872e-12
2.1737885e-12
2.1737954e-12
2.1738174e-12
2.1738731e-12
2.1739875e-12
2.174189e-12
2.1743956e-12
2.1744987e-12
2.1761683e-12
2.2148879e-12
2.2112769e-12
2.2106155e-12
2.2102124e-12
2.2099036e-12
2.2097404e-12
2.2096647e-12
2.2096361e-12
2.2096277e-12
2.2096265e-12
2.2096265e-12
2.2096278e-12
2.2096361e-12
2.2096649e-12
2.2097406e-12
2.2099038e-12
2.2102127e-12
2.2106158e-12
2.2112772e-12
2.2148882e-12
2.2634197e-12
2.2573304e-12
2.2558719e-12
2.2552141e-12
2.254776e-12
2.2545525e-12
2.2544503e-12
2.2544118e-12
2.2544008e-12
2.2543992e-12
2.2543992e-12
2.2544009e-12
2.254412e-12
2.2544505e-12
2.2545527e-12
2.2547762e-12
2.2552144e-12
2.2558723e-12
2.2573308e-12
2.2634201e-12
2.3224753e-12
2.3133893e-12
2.3108435e-12
2.3098663e-12
2.3092879e-12
2.3089969e-12
2.3088595e-12
2.3088068e-12
2.3087913e-12
2.3087884e-12
2.3087884e-12
2.3087914e-12
2.3088069e-12
2.3088598e-12
2.3089972e-12
2.3092883e-12
2.3098668e-12
2.310844e-12
2.3133898e-12
2.3224758e-12
2.3924212e-12
2.3800704e-12
2.3761431e-12
2.374785e-12
2.3740806e-12
2.3737297e-12
2.3735488e-12
2.3734773e-12
2.373456e-12
2.3734512e-12
2.3734512e-12
2.3734561e-12
2.3734775e-12
2.3735491e-12
2.3737301e-12
2.374081e-12
2.3747856e-12
2.3761436e-12
2.380071e-12
2.3924218e-12
2.4732047e-12
2.4570383e-12
2.4514847e-12
2.4496783e-12
2.4488676e-12
2.44847e-12
2.448235e-12
2.4481384e-12
2.4481104e-12
2.4481025e-12
2.4481026e-12
2.4481106e-12
2.4481386e-12
2.4482354e-12
2.4484705e-12
2.4488681e-12
2.4496789e-12
2.4514853e-12
2.457039e-12
2.4732054e-12
2.5648368e-12
2.5449743e-12
2.537554e-12
2.5352135e-12
2.5343518e-12
2.5339388e-12
2.5336365e-12
2.5335044e-12
2.5334708e-12
2.5334576e-12
2.5334577e-12
2.5334709e-12
2.5335047e-12
2.5336369e-12
2.5339393e-12
2.5343524e-12
2.5352141e-12
2.5375547e-12
2.5449751e-12
2.5648376e-12
2.6669558e-12
2.6434887e-12
2.6340735e-12
2.6311046e-12
2.6302676e-12
2.6298836e-12
2.6294886e-12
2.6293077e-12
2.6292699e-12
2.6292506e-12
2.6292507e-12
2.6292701e-12
2.629308e-12
2.6294891e-12
2.6298842e-12
2.6302682e-12
2.6311053e-12
2.6340743e-12
2.6434895e-12
2.6669566e-12
2.7787768e-12
2.7517564e-12
2.740362e-12
2.7366735e-12
2.7359223e-12
2.73559e-12
2.7350659e-12
2.7348209e-12
2.7347766e-12
2.7347575e-12
2.7347576e-12
2.7347768e-12
2.7348212e-12
2.7350664e-12
2.7355905e-12
2.735923e-12
2.7366742e-12
2.7403628e-12
2.7517573e-12
2.7787778e-12
2.8992072e-12
2.868739e-12
2.8554712e-12
2.8509997e-12
2.8503749e-12
2.8500834e-12
2.8493887e-12
2.8490669e-12
2.8490075e-12
2.8490108e-12
2.8490109e-12
2.8490077e-12
2.8490672e-12
2.8493892e-12
2.850084e-12
2.8503756e-12
2.8510005e-12
2.855472e-12
2.8687399e-12
2.8992081e-12
3.0273053e-12
2.9935703e-12
2.9785597e-12
2.9732775e-12
2.9728055e-12
2.9725088e-12
2.9715849e-12
2.9711746e-12
2.9710802e-12
2.9711493e-12
2.9711494e-12
2.9710804e-12
2.9711749e-12
2.9715854e-12
2.9725093e-12
2.9728062e-12
2.9732782e-12
2.9785605e-12
2.9935711e-12
3.0273062e-12
3.1622791e-12
3.1255509e-12
3.1089158e-12
3.1028336e-12
3.1025353e-12
3.1021456e-12
3.1009095e-12
3.1003962e-12
3.1002267e-12
3.1004248e-12
3.1004249e-12
3.1002269e-12
3.1003965e-12
3.1009099e-12
3.1021461e-12
3.1025359e-12
3.1028343e-12
3.1089166e-12
3.1255517e-12
3.1622799e-12
3.3033777e-12
3.2640213e-12
3.2458597e-12
3.2390355e-12
3.2389348e-12
3.2383329e-12
3.2366912e-12
3.2360608e-12
3.2357533e-12
3.2361575e-12
3.2361576e-12
3.2357534e-12
3.2360611e-12
3.2366916e-12
3.2383334e-12
3.2389354e-12
3.2390361e-12
3.2458604e-12
3.2640221e-12
3.3033784e-12
3.4496848e-12
3.4082088e-12
3.3885904e-12
3.381101e-12
3.3812034e-12
3.3802521e-12
3.3781169e-12
3.3773531e-12
3.3768262e-12
3.3775147e-12
3.3775147e-12
3.3768263e-12
3.3773533e-12
3.3781173e-12
3.3802525e-12
3.381204e-12
3.3811016e-12
3.388591e-12
3.4082094e-12
3.4496853e-12
3.6002946e-12
3.5573507e-12
3.5363465e-12
3.5282731e-12
3.528568e-12
3.5271436e-12
3.5244611e-12
3.5235539e-12
3.5227371e-12
3.5237782e-12
3.5237782e-12
3.5227372e-12
3.5235541e-12
3.5244613e-12
3.527144e-12
3.5285684e-12
3.5282736e-12
3.536347e-12
3.5573511e-12
3.6002949e-12
3.7543397e-12
3.7107332e-12
3.688447e-12
3.6798311e-12
3.6802945e-12
3.6782854e-12
3.6750261e-12
3.6739683e-12
3.6728321e-12
3.6742723e-12
3.6742723e-12
3.6728321e-12
3.6739684e-12
3.6750263e-12
3.6782857e-12
3.6802948e-12
3.6798314e-12
3.6884474e-12
3.7107334e-12
3.7543397e-12
3.9106557e-12
3.8673435e-12
3.8439862e-12
3.8348206e-12
3.8354641e-12
3.8327679e-12
3.8289091e-12
3.8277025e-12
3.8262895e-12
3.8281506e-12
3.8281506e-12
3.8262895e-12
3.8277025e-12
3.8289092e-12
3.832768e-12
3.8354643e-12
3.8348207e-12
3.8439863e-12
3.8673435e-12
3.9106555e-12
4.0679106e-12
4.0260448e-12
4.0019701e-12
3.9922135e-12
3.9930917e-12
3.9896095e-12
3.9851145e-12
3.9837718e-12
3.9822025e-12
3.984483e-12
3.984483e-12
3.9822025e-12
3.9837719e-12
3.9851145e-12
3.9896095e-12
3.9930917e-12
3.9922135e-12
4.00197e-12
4.0260446e-12
4.0679102e-12
4.2242682e-12
4.1853184e-12
4.1610387e-12
4.1507188e-12
4.1518686e-12
4.1475455e-12
4.1423784e-12
4.1409232e-12
4.139376e-12
4.1420561e-12
4.1420561e-12
4.139376e-12
4.1409232e-12
4.1423783e-12
4.1475455e-12
4.1518685e-12
4.1507186e-12
4.1610385e-12
4.185318e-12
4.2242677e-12
4.3770348e-12
4.3430077e-12
4.3192009e-12
4.3085047e-12
4.3098887e-12
4.3047497e-12
4.2989212e-12
4.2973913e-12
4.2960708e-12
4.2991202e-12
4.2991203e-12
4.2960707e-12
4.2973912e-12
4.2989211e-12
4.3047495e-12
4.3098886e-12
4.3085045e-12
4.3192005e-12
4.3430072e-12
4.3770343e-12
4.5222638e-12
4.4958791e-12
4.4734781e-12
4.4627901e-12
4.4642742e-12
4.4584502e-12
4.4520568e-12
4.4505079e-12
4.4496125e-12
4.4530001e-12
4.4530001e-12
4.4496125e-12
4.4505079e-12
4.4520567e-12
4.45845e-12
4.4642739e-12
4.4627898e-12
4.4734776e-12
4.4958786e-12
4.5222634e-12
4.6543403e-12
4.6391182e-12
4.6194922e-12
4.6092859e-12
4.6106379e-12
4.6043916e-12
4.5976044e-12
4.5961059e-12
4.595803e-12
4.5995042e-12
4.5995043e-12
4.595803e-12
4.5961059e-12
4.5976043e-12
4.6043914e-12
4.6106376e-12
4.6092856e-12
4.6194918e-12
4.6391177e-12
4.6543402e-12
4.765742e-12
4.7659275e-12
4.751117e-12
4.7418258e-12
4.7429308e-12
4.7365092e-12
4.7295211e-12
4.7281412e-12
4.7285518e-12
4.7325552e-12
4.7325552e-12
4.7285518e-12
4.7281412e-12
4.7295211e-12
4.7365091e-12
4.7429306e-12
4.7418256e-12
4.7511167e-12
4.7659274e-12
4.7657427e-12
4.8472084e-12
4.8678229e-12
4.8604832e-12
4.8526268e-12
4.8537823e-12
4.8474362e-12
4.8402474e-12
4.8390411e-12
4.8402315e-12
4.8445405e-12
4.8445406e-12
4.8402316e-12
4.8390412e-12
4.8402475e-12
4.8474362e-12
4.8537823e-12
4.8526268e-12
4.8604833e-12
4.8678236e-12
4.8472101e-12
4.8882837e-12
4.9350454e-12
4.9387834e-12
4.9333025e-12
4.9350484e-12
4.9291566e-12
4.9217993e-12
4.9206238e-12
4.9226192e-12
4.927248e-12
4.9272481e-12
4.9226194e-12
4.920624e-12
4.9217996e-12
4.9291569e-12
4.9350487e-12
4.9333029e-12
4.938784e-12
4.9350471e-12
4.8882871e-12
4.8776003e-12
4.9573655e-12
4.9762291e-12
4.9746441e-12
4.9777104e-12
4.9727449e-12
4.9655218e-12
4.9641935e-12
4.9670033e-12
4.971965e-12
4.9719651e-12
4.9670036e-12
4.964194e-12
4.9655223e-12
4.9727455e-12
4.9777111e-12
4.9746451e-12
4.9762306e-12
4.9573687e-12
4.8776056e-12
4.8058645e-12
4.9242946e-12
4.9619004e-12
4.9658469e-12
4.9712406e-12
4.9675989e-12
4.9607303e-12
4.959666e-12
4.9632675e-12
4.9685538e-12
4.968554e-12
4.963268e-12
4.9596667e-12
4.9607311e-12
4.9675998e-12
4.9712418e-12
4.9658486e-12
4.9619029e-12
4.9242993e-12
4.8058715e-12
4.6646499e-12
4.8284096e-12
4.8857306e-12
4.8957928e-12
4.9044183e-12
4.902281e-12
4.8962179e-12
4.8959505e-12
4.9002211e-12
4.9057727e-12
4.9057729e-12
4.9002216e-12
4.8959514e-12
4.8962189e-12
4.9022823e-12
4.9044199e-12
4.8957951e-12
4.885734e-12
4.8284153e-12
4.6646573e-12
4.4300749e-12
4.6642485e-12
4.7405849e-12
4.7572841e-12
4.7674514e-12
4.7680249e-12
4.762355e-12
4.7629761e-12
4.7676465e-12
4.7733411e-12
4.7733413e-12
4.7676471e-12
4.7629771e-12
4.7623562e-12
4.7680264e-12
4.7674533e-12
4.7572867e-12
4.7405885e-12
4.6642542e-12
4.430082e-12
0
0
4.5043716e-12
4.536536e-12
4.550361e-12
4.5501255e-12
4.5432796e-12
4.5513281e-12
4.5560431e-12
4.5617565e-12
4.5617567e-12
4.5560438e-12
4.5513291e-12
4.5432808e-12
4.5501269e-12
4.5503629e-12
4.5365386e-12
4.504375e-12
0
0
0
0
0
0
0
0
0
0
0
0
0
0
0
0
0
0
0
0
0
0
0
0
0
0
0
0
0
0
0
0
0
0
0
0
0
0
0
0
0
0
0
0
0
0
0
0
0
0
0
0
0
0
0
0
0
0
0
0
0
0
)
;

boundaryField
{
    Wall
    {
        type            zeroGradient;
    }
    frontAndBack
    {
        type            empty;
    }
    atmosphere
    {
        type            zeroGradient;
    }
}


// ************************************************************************* //
