/*--------------------------------*- C++ -*----------------------------------*\
| =========                 |                                                 |
| \\      /  F ield         | OpenFOAM: The Open Source CFD Toolbox           |
|  \\    /   O peration     | Version:  3.0.1                                 |
|   \\  /    A nd           | Web:      www.OpenFOAM.org                      |
|    \\/     M anipulation  |                                                 |
\*---------------------------------------------------------------------------*/
FoamFile
{
    version     2.0;
    format      ascii;
    class       surfaceScalarField;
    location    "35";
    object      phi;
}
// * * * * * * * * * * * * * * * * * * * * * * * * * * * * * * * * * * * * * //

dimensions      [0 3 -1 0 0 0 0];

internalField   nonuniform List<scalar> 
1540
(
4.9162e-10
2.0674736e-08
5.3255902e-10
2.1004983e-08
5.6131259e-10
2.125078e-08
5.5592e-10
2.1426081e-08
5.1135151e-10
2.1541854e-08
4.3526049e-10
2.1613085e-08
3.3862516e-10
2.1654218e-08
2.3037448e-10
2.1676554e-08
1.1630813e-10
2.1687744e-08
-1.0736317e-13
2.1692308e-08
-1.1652088e-10
2.1692304e-08
-2.3058135e-10
2.1687732e-08
-3.3882224e-10
2.1676535e-08
-4.3544377e-10
2.1654191e-08
-5.1151686e-10
2.161305e-08
-5.5606351e-10
2.1541811e-08
-5.6143164e-10
2.142603e-08
-5.3265432e-10
2.1250721e-08
-4.9169718e-10
2.1004918e-08
2.0674668e-08
4.8696523e-10
2.6618507e-08
5.2972304e-10
2.7027804e-08
5.6076478e-10
2.733688e-08
5.5702547e-10
2.7554523e-08
5.133649e-10
2.7697394e-08
4.3760227e-10
2.7785192e-08
3.4083568e-10
2.7835974e-08
2.3207933e-10
2.7863625e-08
1.1723467e-10
2.7877514e-08
-1.0350869e-13
2.788319e-08
-1.1743977e-10
2.7883185e-08
-2.3227871e-10
2.78775e-08
-3.4102553e-10
2.7863602e-08
-4.3777863e-10
2.7835943e-08
-5.1352371e-10
2.7785151e-08
-5.5716287e-10
2.7697344e-08
-5.6087822e-10
2.7554463e-08
-5.298132e-10
2.7336811e-08
-4.8703774e-10
2.7027728e-08
2.6618428e-08
4.7842648e-10
3.5268729e-08
5.2308375e-10
3.580975e-08
5.5600372e-10
3.6208505e-08
5.5370068e-10
3.6485314e-08
5.1111072e-10
3.6665698e-08
4.3623042e-10
3.6776276e-08
3.4015735e-10
3.684024e-08
2.3184223e-10
3.6875093e-08
1.1719412e-10
3.6892604e-08
-9.476324e-14
3.6899757e-08
-1.1738187e-10
3.6899751e-08
-2.3202468e-10
3.6892588e-08
-3.4033092e-10
3.6875066e-08
-4.3639137e-10
3.6840201e-08
-5.112552e-10
3.6776226e-08
-5.5382505e-10
3.6665637e-08
-5.5610556e-10
3.6485241e-08
-5.2316372e-10
3.620842e-08
-4.7848989e-10
3.5809657e-08
3.5268632e-08
4.7329775e-10
4.5556992e-08
5.1864474e-10
4.6250175e-08
5.520461e-10
4.6752992e-08
5.4987466e-10
4.7097946e-08
5.0748493e-10
4.7321299e-08
4.3314006e-10
4.7457914e-08
3.3785145e-10
4.7536963e-08
2.3037259e-10
4.7580096e-08
1.1649745e-10
4.7601798e-08
-8.2989194e-14
4.7610671e-08
-1.1666185e-10
4.7610664e-08
-2.3053226e-10
4.7601778e-08
-3.3800316e-10
4.7580063e-08
-4.3328041e-10
4.7536917e-08
-5.0761041e-10
4.7457854e-08
-5.4998199e-10
4.7321225e-08
-5.5213313e-10
4.7097859e-08
-5.1871209e-10
4.6752891e-08
-4.7335025e-10
4.6250064e-08
4.5556876e-08
4.718947e-10
5.6678456e-08
5.1730255e-10
5.7534173e-08
5.5024647e-10
5.8147955e-08
5.4723778e-10
5.8565288e-08
5.0424381e-10
5.8834107e-08
4.2989008e-10
5.899822e-08
3.3512473e-10
5.9093227e-08
2.2847125e-10
5.9145169e-08
1.1553896e-10
5.9171374e-08
-6.9951205e-14
5.9182113e-08
-1.156775e-10
5.9182106e-08
-2.2860569e-10
5.917135e-08
-3.3525224e-10
5.914513e-08
-4.3000769e-10
5.9093173e-08
-5.0434844e-10
5.899815e-08
-5.4732661e-10
5.8834021e-08
-5.5031773e-10
5.8565186e-08
-5.1735683e-10
5.8147839e-08
-4.7193623e-10
5.7534045e-08
5.6678323e-08
4.7282474e-10
6.8194496e-08
5.1823994e-10
6.9217557e-08
5.5050742e-10
6.9945754e-08
5.4631967e-10
7.0437584e-08
5.0229289e-10
7.0753039e-08
4.2749354e-10
7.0945259e-08
3.3288661e-10
7.1056554e-08
2.2680616e-10
7.111751e-08
1.1466842e-10
7.114835e-08
-5.684167e-14
7.1161025e-08
-1.1478095e-10
7.1161017e-08
-2.2691522e-10
7.1148324e-08
-3.329898e-10
7.1117467e-08
-4.2758833e-10
7.1056493e-08
-5.0237672e-10
7.094518e-08
-5.4639023e-10
7.0752942e-08
-5.5056333e-10
7.043747e-08
-5.1828179e-10
6.9945625e-08
-4.728561e-10
6.9217416e-08
6.8194349e-08
4.7536976e-10
7.9898375e-08
5.2085968e-10
8.1091882e-08
5.5255269e-10
8.1936728e-08
5.4717391e-10
8.2504545e-08
5.0194812e-10
8.2867466e-08
4.2640949e-10
8.3088195e-08
3.3160917e-10
8.3215969e-08
2.2575332e-10
8.3286044e-08
1.1409183e-10
8.3321586e-08
-4.4274508e-14
8.3336232e-08
-1.1417943e-10
8.3336223e-08
-2.2583807e-10
8.3321558e-08
-3.3168909e-10
8.3285997e-08
-4.2648254e-10
8.3215903e-08
-5.0201223e-10
8.308811e-08
-5.4722732e-10
8.2867361e-08
-5.525944e-10
8.2504423e-08
-5.2089026e-10
8.1936589e-08
-4.7539209e-10
8.1091731e-08
7.9898218e-08
4.7931501e-10
9.1683391e-08
5.2509185e-10
9.3049422e-08
5.5641839e-10
9.4012999e-08
5.4994343e-10
9.4658478e-08
5.0343976e-10
9.5069963e-08
4.2691916e-10
9.531984e-08
3.3157315e-10
9.5464452e-08
2.2553785e-10
9.5543859e-08
1.139339e-10
9.5584231e-08
-3.2457099e-14
9.5600911e-08
-1.1399806e-10
9.5600901e-08
-2.2559978e-10
9.5584201e-08
-3.3163128e-10
9.5543808e-08
-4.2697191e-10
9.5464382e-08
-5.0348561e-10
9.5319749e-08
-5.499811e-10
9.5069852e-08
-5.5644724e-10
9.4658349e-08
-5.2511243e-10
9.4012853e-08
-4.7932951e-10
9.3049264e-08
9.1683228e-08
4.8492479e-10
1.0348375e-07
5.3144724e-10
1.0502104e-07
5.6278074e-10
1.0610539e-07
5.5529786e-10
1.0683032e-07
5.0734622e-10
1.0729161e-07
4.2949899e-10
1.0757138e-07
3.3315403e-10
1.0773328e-07
2.2642399e-10
1.0782227e-07
1.1433203e-10
1.0786762e-07
-2.1386583e-14
1.0788641e-07
-1.1437426e-10
1.078864e-07
-2.2646458e-10
1.0786759e-07
-3.3319186e-10
1.0782222e-07
-4.2953296e-10
1.077332e-07
-5.0737529e-10
1.0757129e-07
-5.5532124e-10
1.0729149e-07
-5.6279809e-10
1.0683018e-07
-5.3145902e-10
1.0610524e-07
-4.8493256e-10
1.0502088e-07
1.0348358e-07
4.9285205e-10
1.1525746e-07
5.4100535e-10
1.1697344e-07
5.7294953e-10
1.1818029e-07
5.6445865e-10
1.1898588e-07
5.1465242e-10
1.194976e-07
4.348961e-10
1.1980754e-07
3.3689426e-10
1.1998679e-07
2.2876948e-10
1.2008538e-07
1.1546505e-10
1.2013569e-07
-1.0988736e-14
1.2015656e-07
-1.1548669e-10
1.2015654e-07
-2.2879009e-10
1.2013565e-07
-3.3691317e-10
1.2008532e-07
-4.3491266e-10
1.1998671e-07
-5.1466608e-10
1.1980744e-07
-5.6446904e-10
1.1949748e-07
-5.7295659e-10
1.1898574e-07
-5.4100945e-10
1.1818014e-07
-4.9285409e-10
1.1697327e-07
1.1525729e-07
5.0343382e-10
1.2705618e-07
5.5455856e-10
1.2894925e-07
5.8754307e-10
1.3027751e-07
5.7788803e-10
1.3116216e-07
5.2568939e-10
1.3172272e-07
4.4333656e-10
1.3206143e-07
3.4294412e-10
1.3225688e-07
2.3266787e-10
1.3236418e-07
1.1737836e-10
1.3241886e-07
-1.0653833e-15
1.3244152e-07
-1.1738036e-10
1.3244151e-07
-2.3266948e-10
1.3241883e-07
-3.429451e-10
1.3236413e-07
-4.4333673e-10
1.3225681e-07
-5.2568866e-10
1.3206133e-07
-5.7788643e-10
1.317226e-07
-5.8754076e-10
1.3116203e-07
-5.5455583e-10
1.3027736e-07
-5.0343091e-10
1.2894908e-07
1.2705601e-07
5.1675045e-10
1.3893517e-07
5.7032632e-10
1.4100151e-07
6.0439364e-10
1.424509e-07
5.9344702e-10
1.4341386e-07
5.3862585e-10
1.4402236e-07
4.5338269e-10
1.4438901e-07
3.5024644e-10
1.446e-07
2.3742199e-10
1.4471552e-07
1.1972513e-10
1.4477423e-07
8.8211648e-15
1.4479851e-07
-1.1970757e-10
1.447985e-07
-2.3740471e-10
1.447742e-07
-3.5022965e-10
1.4471546e-07
-4.5336667e-10
1.4459993e-07
-5.3861095e-10
1.4438892e-07
-5.9343365e-10
1.4402224e-07
-6.0438221e-10
1.4341373e-07
-5.7031702e-10
1.4245076e-07
-5.1674294e-10
1.4100135e-07
1.3893501e-07
5.311721e-10
1.5088904e-07
5.8686959e-10
1.5313237e-07
6.2171052e-10
1.5470388e-07
6.0945217e-10
1.5574586e-07
5.5208585e-10
1.5640265e-07
4.639665e-10
1.5679741e-07
3.5801277e-10
1.5702402e-07
2.4250892e-10
1.571478e-07
1.2224389e-10
1.5721058e-07
1.8920097e-14
1.5723651e-07
-1.2220636e-10
1.572365e-07
-2.4247235e-10
1.5721055e-07
-3.5797785e-10
1.5714775e-07
-4.6393396e-10
1.5702395e-07
-5.5205646e-10
1.5679732e-07
-6.0942671e-10
1.5640254e-07
-6.2168965e-10
1.5574574e-07
-5.8685357e-10
1.5470375e-07
-5.3116007e-10
1.5313223e-07
1.5088889e-07
5.4692132e-10
1.6288115e-07
6.0453281e-10
1.6529492e-07
6.39992e-10
1.6699149e-07
6.2631155e-10
1.6811472e-07
5.6633846e-10
1.6882142e-07
4.7524781e-10
1.6924543e-07
3.6633546e-10
1.6948851e-07
2.4797841e-10
1.6962117e-07
1.2495574e-10
1.6968844e-07
2.9116815e-14
1.6971622e-07
-1.2489804e-10
1.6971621e-07
-2.4792234e-10
1.6968841e-07
-3.6628215e-10
1.6962112e-07
-4.7519844e-10
1.6948844e-07
-5.6629417e-10
1.6924535e-07
-6.2627345e-10
1.6882132e-07
-6.3996106e-10
1.681146e-07
-6.0450961e-10
1.6699136e-07
-5.469048e-10
1.6529478e-07
1.6288101e-07
5.6463014e-10
1.748299e-07
6.2524804e-10
1.7743785e-07
6.6129084e-10
1.792617e-07
6.4593293e-10
1.8046838e-07
5.8285835e-10
1.812264e-07
4.8831393e-10
1.8168064e-07
3.7598523e-10
1.8194093e-07
2.5433071e-10
1.8208304e-07
1.2810656e-10
1.8215521e-07
3.9077194e-14
1.8218504e-07
-1.2802912e-10
1.8218503e-07
-2.5425545e-10
1.8215518e-07
-3.7591369e-10
1.82083e-07
-4.8824767e-10
1.8194086e-07
-5.8279889e-10
1.8168056e-07
-6.4588169e-10
1.8122631e-07
-6.6124936e-10
1.8046828e-07
-6.2521677e-10
1.7926159e-07
-5.6460964e-10
1.7743772e-07
1.7482977e-07
5.8520716e-10
1.8688488e-07
6.5009148e-10
1.8967362e-07
6.8759301e-10
1.9162507e-07
6.7002386e-10
1.9291379e-07
6.0307818e-10
1.9372161e-07
5.0427374e-10
1.9420483e-07
3.8778047e-10
1.9448143e-07
2.621142e-10
1.9463241e-07
1.319672e-10
1.9470914e-07
4.8950755e-14
1.9474085e-07
-1.3187016e-10
1.9474085e-07
-2.6201981e-10
1.9470911e-07
-3.8769063e-10
1.9463238e-07
-5.041904e-10
1.9448138e-07
-6.0300329e-10
1.9420477e-07
-6.6995935e-10
1.9372153e-07
-6.8754073e-10
1.929137e-07
-6.5005302e-10
1.9162497e-07
-5.8518097e-10
1.8967351e-07
1.8688477e-07
6.0833857e-10
1.9912614e-07
6.7868293e-10
2.0209271e-07
7.1755453e-10
2.0416973e-07
6.9735519e-10
2.0553751e-07
6.25871e-10
2.0639198e-07
5.2222018e-10
2.069015e-07
4.0104863e-10
2.071923e-07
2.7089701e-10
2.0735061e-07
1.3632755e-10
2.0743091e-07
6.007601e-14
2.0746404e-07
-1.3620856e-10
2.0746403e-07
-2.707815e-10
2.0743089e-07
-4.0093904e-10
2.0735057e-07
-5.2211891e-10
2.0719225e-07
-6.2578046e-10
2.0690145e-07
-6.9727778e-10
2.0639192e-07
-7.1749248e-10
2.0553743e-07
-6.7863759e-10
2.0416964e-07
-6.083075e-10
2.0209261e-07
1.9912604e-07
6.3476723e-10
2.1152425e-07
7.0958833e-10
2.146731e-07
7.4934053e-10
2.1687943e-07
7.2552519e-10
2.1832723e-07
6.4887677e-10
2.1922833e-07
5.4009473e-10
2.19764e-07
4.141695e-10
2.2006895e-07
2.7957341e-10
2.2023463e-07
1.4063909e-10
2.2031867e-07
7.1342334e-14
2.2035323e-07
-1.4049791e-10
2.2035323e-07
-2.7943669e-10
2.2031865e-07
-4.1404022e-10
2.202346e-07
-5.399758e-10
2.2006891e-07
-6.4877109e-10
2.1976395e-07
-7.2543554e-10
2.1922826e-07
-7.4926945e-10
2.1832716e-07
-7.0953698e-10
2.1687935e-07
-6.3473218e-10
2.1467301e-07
2.1152416e-07
6.6151469e-10
2.2408993e-07
7.455567e-10
2.2744076e-07
7.844617e-10
2.2976908e-07
7.5554215e-10
2.3128922e-07
6.7262202e-10
2.3223042e-07
5.5804834e-10
2.3278706e-07
4.2712563e-10
2.3310234e-07
2.8815716e-10
2.3327269e-07
1.4486165e-10
2.3335864e-07
8.1462742e-14
2.3339382e-07
-1.4470048e-10
2.3339382e-07
-2.8800122e-10
2.3335862e-07
-4.2697839e-10
2.3327267e-07
-5.5791321e-10
2.3310231e-07
-6.7250236e-10
2.3278702e-07
-7.554412e-10
2.3223037e-07
-7.8438232e-10
2.3128917e-07
-7.4550009e-10
2.2976902e-07
-6.6147692e-10
2.2744069e-07
2.2408986e-07
6.9316265e-10
2.3692096e-07
7.817604e-10
2.4046557e-07
8.1940098e-10
2.4292301e-07
7.8407646e-10
2.445188e-07
6.942132e-10
2.4550263e-07
5.737786e-10
2.4608304e-07
4.3822542e-10
2.4641128e-07
2.9545942e-10
2.465885e-07
1.4850782e-10
2.4667814e-07
9.1265547e-14
2.4671475e-07
-1.4832727e-10
2.4671475e-07
-2.9528484e-10
2.4667813e-07
-4.380607e-10
2.4658848e-07
-5.7362764e-10
2.4641126e-07
-6.9407985e-10
2.4608302e-07
-7.8396433e-10
2.455026e-07
-8.1931344e-10
2.4451877e-07
-7.8169872e-10
2.4292297e-07
-6.9312229e-10
2.4046553e-07
2.3692091e-07
7.2453782e-10
2.5024279e-07
8.2495835e-10
2.5396091e-07
8.5835799e-10
2.5653056e-07
8.1513494e-10
2.5818637e-07
7.1717703e-10
2.5919857e-07
5.9013735e-10
2.5979052e-07
4.4964818e-10
2.6012186e-07
3.0314454e-10
2.6029831e-07
1.5233304e-10
2.603861e-07
1.0135534e-13
2.6042144e-07
-1.5213253e-10
2.6042144e-07
-3.0295091e-10
2.603861e-07
-4.4946581e-10
2.6029831e-07
-5.8997059e-10
2.6012186e-07
-7.1703012e-10
2.5979052e-07
-8.1501184e-10
2.5919857e-07
-8.5826233e-10
2.5818637e-07
-8.2489156e-10
2.5653056e-07
-7.2449521e-10
2.5396091e-07
2.5024279e-07
7.6201978e-10
2.6349595e-07
8.6551591e-10
2.6744706e-07
8.9350506e-10
2.701476e-07
8.3997032e-10
2.718723e-07
7.3299259e-10
2.7291938e-07
5.9958049e-10
2.73528e-07
4.5522301e-10
2.7386607e-07
3.065613e-10
2.7404408e-07
1.5409929e-10
2.7413199e-07
1.1270869e-13
2.741667e-07
-1.5387641e-10
2.741667e-07
-3.0634599e-10
2.7413201e-07
-4.5502045e-10
2.740441e-07
-5.9939541e-10
2.738661e-07
-7.3282978e-10
2.7352804e-07
-8.3983405e-10
2.7291943e-07
-8.933995e-10
2.7187236e-07
-8.6544284e-10
2.7014766e-07
-7.619739e-10
2.6744712e-07
2.6349601e-07
7.9439922e-10
2.7786977e-07
9.231267e-10
2.8198802e-07
9.3627879e-10
2.8482002e-07
8.6735249e-10
2.8661731e-07
7.47563e-10
2.8767993e-07
6.0561891e-10
2.8828921e-07
4.568899e-10
2.8862341e-07
3.0721796e-10
2.8879611e-07
1.5430593e-10
2.8887928e-07
1.2684457e-13
2.8891131e-07
-1.5405498e-10
2.8891131e-07
-3.069757e-10
2.888793e-07
-4.5666192e-10
2.8879616e-07
-6.0541099e-10
2.8862347e-07
-7.4738003e-10
2.8828929e-07
-8.6719887e-10
2.8768002e-07
-9.3616027e-10
2.8661747e-07
-9.2304566e-10
2.848202e-07
-7.9435079e-10
2.8198821e-07
2.7786997e-07
8.2194991e-10
2.9198415e-07
1.0094893e-09
2.9635377e-07
1.0011724e-09
2.992301e-07
8.8612777e-10
3.0102511e-07
7.510118e-10
3.0211999e-07
6.0192903e-10
3.0275507e-07
4.5073844e-10
3.0310713e-07
3.0221403e-10
3.0329137e-07
1.5186989e-10
3.0338233e-07
1.4383296e-13
3.0341766e-07
-1.5158528e-10
3.0341768e-07
-3.0193877e-10
3.0338238e-07
-4.5047845e-10
3.0329145e-07
-6.0169117e-10
3.0310724e-07
-7.5080182e-10
3.0275522e-07
-8.8589762e-10
3.0212017e-07
-1.0010308e-09
3.0102526e-07
-1.0093928e-09
2.9923027e-07
-8.21898e-10
2.9635394e-07
2.9198432e-07
8.7073043e-10
3.0846048e-07
1.0482164e-09
3.1299827e-07
1.0190323e-09
3.1595111e-07
9.1584311e-10
3.1776827e-07
7.6907008e-10
3.1883238e-07
6.1058309e-10
3.1942539e-07
4.5409618e-10
3.1973693e-07
3.0432577e-10
3.198872e-07
1.5327059e-10
3.1995345e-07
1.6642699e-13
3.1997558e-07
-1.5294177e-10
3.1997559e-07
-3.0400642e-10
3.1995349e-07
-4.5379382e-10
3.1988728e-07
-6.1030418e-10
3.1973704e-07
-7.688222e-10
3.1942554e-07
-9.1563334e-10
3.1883255e-07
-1.0188709e-09
3.1776847e-07
-1.0481084e-09
3.1595132e-07
-8.7067423e-10
3.1299848e-07
3.0846069e-07
9.1314823e-10
3.2597451e-07
1.0757899e-09
3.3068829e-07
1.0198087e-09
3.3370649e-07
8.9927607e-10
3.3553381e-07
7.3991646e-10
3.3658308e-07
5.7748524e-10
3.3715076e-07
4.2402318e-10
3.3743617e-07
2.8279331e-10
3.3756445e-07
1.424611e-10
3.3761535e-07
1.85645e-13
3.3762926e-07
-1.4209305e-10
3.3762928e-07
-2.8243567e-10
3.3761541e-07
-4.2368347e-10
3.3756455e-07
-5.7717098e-10
3.374363e-07
-7.3963794e-10
3.3715094e-07
-8.9904153e-10
3.3658329e-07
-1.0196281e-09
3.3553405e-07
-1.0756706e-09
3.3370676e-07
-9.1308982e-10
3.3068856e-07
3.2597476e-07
9.4732347e-10
3.4410015e-07
1.0873368e-09
3.4900312e-07
9.9706458e-10
3.5210609e-07
8.5548285e-10
3.539552e-07
6.8215264e-10
3.5499908e-07
5.184776e-10
3.5554795e-07
3.7345647e-10
3.5581261e-07
2.4754902e-10
3.5592298e-07
1.2463315e-10
3.5596203e-07
2.0702929e-13
3.5596952e-07
-1.2422268e-10
3.5596952e-07
-2.4715024e-10
3.5596203e-07
-3.730771e-10
3.5592299e-07
-5.1812564e-10
3.5581261e-07
-6.8183681e-10
3.5554796e-07
-8.5521711e-10
3.5499909e-07
-9.968603e-10
3.539552e-07
-1.087203e-09
3.5210609e-07
-9.4726126e-10
3.490031e-07
3.4410008e-07
9.7949732e-10
3.6400384e-07
1.1077187e-09
3.6907714e-07
9.6551566e-10
3.7219879e-07
7.9871269e-10
3.7401402e-07
6.0726973e-10
3.7499166e-07
4.4309433e-10
3.7546818e-07
3.0981248e-10
3.7566885e-07
2.0439699e-10
3.7572939e-07
1.0289834e-10
3.7573477e-07
2.077183e-13
3.7572497e-07
-1.0248714e-10
3.7572499e-07
-2.0399727e-10
3.7573485e-07
-3.0943354e-10
3.7572952e-07
-4.4274717e-10
3.7566902e-07
-6.0695926e-10
3.7546839e-07
-7.9845039e-10
3.7499193e-07
-9.6531324e-10
3.7401433e-07
-1.1075865e-09
3.7219913e-07
-9.7944006e-10
3.6907749e-07
3.6400414e-07
9.833678e-10
3.8533304e-07
1.0589559e-09
3.905979e-07
8.6232641e-10
3.9376994e-07
6.65383e-10
3.9556012e-07
4.6337506e-10
3.9647112e-07
3.1054523e-10
3.9687007e-07
2.0320195e-10
3.9700482e-07
1.3281748e-10
3.9701507e-07
6.6776059e-11
3.969874e-07
2.2837082e-13
3.9696148e-07
-6.6323856e-11
3.9696151e-07
-1.3237562e-10
3.9698748e-07
-2.0278092e-10
3.9701522e-07
-3.1016223e-10
3.9700503e-07
-4.6301825e-10
3.9687031e-07
-6.6508193e-10
3.9647144e-07
-8.6208747e-10
3.9556048e-07
-1.0587988e-09
3.9377036e-07
-9.8330116e-10
3.9059833e-07
3.8533341e-07
9.4935375e-10
4.0816202e-07
9.4590204e-10
4.1366951e-07
6.7924386e-10
4.1691526e-07
4.4787129e-10
4.1867499e-07
2.4741241e-10
4.1950064e-07
1.2106759e-10
4.1980127e-07
5.5304075e-11
4.1984953e-07
3.5007587e-11
4.1980048e-07
1.7822557e-11
4.1973417e-07
2.4898274e-13
4.1969034e-07
-1.7325861e-11
4.1969037e-07
-3.4520469e-11
4.1973426e-07
-5.4823813e-11
4.1980063e-07
-1.205817e-10
4.1984973e-07
-2.4699593e-10
4.1980157e-07
-4.4750688e-10
4.1950101e-07
-6.7896142e-10
4.1867543e-07
-9.4571711e-10
4.1691576e-07
-9.4927862e-10
4.1367005e-07
4.081625e-07
8.5948482e-10
4.3245249e-07
7.3153029e-10
4.3833585e-07
3.7823653e-10
4.4172298e-07
1.1238992e-10
4.4346832e-07
-7.1326272e-11
4.4419146e-07
-1.4384342e-10
4.4437324e-07
-1.4221134e-10
4.4432256e-07
-9.3360244e-11
4.4420546e-07
-4.5713161e-11
4.440982e-07
2.689648e-13
4.440363e-07
4.6250024e-11
4.4403633e-07
9.3888472e-11
4.440983e-07
1.4272197e-10
4.4420563e-07
1.4432279e-10
4.4432278e-07
7.1785127e-11
4.4437356e-07
-1.1198397e-10
4.4419187e-07
-3.7790538e-10
4.4346883e-07
-7.3129585e-10
4.4172358e-07
-8.5939302e-10
4.3833655e-07
4.3245311e-07
6.9281234e-10
4.5791749e-07
3.692476e-10
4.6447862e-07
-1.082437e-10
4.6815439e-07
-3.8379188e-10
4.6991027e-07
-5.1499751e-10
4.7053567e-07
-4.9963757e-10
4.7060062e-07
-3.9643758e-10
4.7045737e-07
-2.5367595e-10
4.7027358e-07
-1.2317628e-10
4.7013065e-07
2.8533458e-13
4.7005486e-07
1.2374337e-10
4.7005489e-07
2.5424272e-10
4.7013074e-07
3.9699991e-10
4.7027375e-07
5.0017888e-10
4.7045762e-07
5.1550424e-10
4.7060097e-07
3.8425975e-10
4.7053612e-07
1.0863776e-10
4.6991086e-07
-3.6897283e-10
4.6815513e-07
-6.9269016e-10
4.6447951e-07
4.5791831e-07
4.4077276e-10
4.8387344e-07
-2.050175e-10
4.9167839e-07
-8.3752208e-10
4.958627e-07
-1.089432e-09
4.9770897e-07
-1.1027254e-09
4.9829563e-07
-9.4105762e-10
4.9828935e-07
-7.0217664e-10
4.9809875e-07
-4.3838026e-10
4.9788042e-07
-2.1026291e-10
4.9771954e-07
3.118511e-13
4.976388e-07
2.1088157e-10
4.9763884e-07
4.3898271e-10
4.9771966e-07
7.0276485e-10
4.9788061e-07
9.4164075e-10
4.9809901e-07
1.1033039e-09
4.9828971e-07
1.0899711e-09
4.9829612e-07
8.3801546e-10
4.9770962e-07
2.0544931e-10
4.9586353e-07
-4.4049642e-10
4.916795e-07
4.8387469e-07
8.5572103e-11
5.0914268e-07
-1.0671344e-09
5.1904844e-07
-1.871242e-09
5.240132e-07
-2.0027508e-09
5.2609354e-07
-1.817955e-09
5.2684349e-07
-1.430947e-09
5.2692412e-07
-1.015464e-09
5.2679246e-07
-6.2054033e-10
5.2657918e-07
-2.9345371e-10
5.2642768e-07
3.2349765e-13
5.2635462e-07
2.9410017e-10
5.2635466e-07
6.211857e-10
5.264278e-07
1.0161113e-09
5.2657939e-07
1.4315719e-09
5.2679276e-07
1.8185894e-09
5.2692449e-07
2.0033994e-09
5.26844e-07
1.8718408e-09
5.2609427e-07
1.0676506e-09
5.2401418e-07
-8.5109583e-11
5.1904975e-07
5.091446e-07
-3.7297455e-10
5.4007166e-07
-2.3900375e-09
5.4578618e-07
-3.2274784e-09
5.5102249e-07
-3.0128505e-09
5.5383856e-07
-2.529802e-09
5.5493611e-07
-1.8598879e-09
5.5550138e-07
-1.2882944e-09
5.555688e-07
-7.6676954e-10
5.5537096e-07
-3.5805585e-10
5.5527123e-07
3.4684122e-13
5.5521655e-07
3.5874941e-10
5.552166e-07
7.6745972e-10
5.5527137e-07
1.2889823e-09
5.5537119e-07
1.8605769e-09
5.5556912e-07
2.5304871e-09
5.5550179e-07
3.0135384e-09
5.5493665e-07
3.2282417e-09
5.5383927e-07
2.3907911e-09
5.5102355e-07
3.7348874e-10
5.4578767e-07
5.4007319e-07
-4.0812086e-09
5.6850537e-07
-4.6971253e-09
5.7787998e-07
-4.7122129e-09
5.7914025e-07
-4.0105821e-09
5.8137628e-07
-2.9490852e-09
5.82814e-07
-2.1267687e-09
5.8351367e-07
-1.5096556e-09
5.8375131e-07
-8.6524469e-10
5.8422211e-07
-4.0296538e-10
5.8420561e-07
3.5524438e-13
5.841536e-07
4.0367039e-10
5.8415364e-07
8.6594442e-10
5.8420573e-07
1.5103699e-09
5.8422227e-07
2.1274841e-09
5.8375156e-07
2.9498198e-09
5.8351398e-07
4.0113734e-09
5.8281441e-07
4.7130721e-09
5.8137678e-07
4.6978731e-09
5.7914097e-07
4.0814847e-09
5.7788162e-07
5.6851114e-07
-3.4003098e-09
5.5240733e-07
-1.036343e-08
5.8431974e-07
-6.725149e-09
6.0691378e-07
-4.8351871e-09
6.1687891e-07
-3.3707242e-09
6.2107606e-07
-2.2826169e-09
6.2292033e-07
-1.2370465e-09
6.2361863e-07
-8.8709586e-10
6.2367962e-07
-4.3017862e-10
6.2358432e-07
3.7928556e-13
6.2353959e-07
4.3093785e-10
6.2353963e-07
8.8780725e-10
6.235845e-07
1.2376958e-09
6.236799e-07
2.2832575e-09
6.2361901e-07
3.3713289e-09
6.2292087e-07
4.8357311e-09
6.2107683e-07
6.7257811e-09
6.1688006e-07
1.0364234e-08
6.069156e-07
3.4013493e-09
5.8432351e-07
5.5241402e-07
4.021083e-08
5.0752544e-07
1.0658463e-08
5.9671707e-07
-7.6323353e-10
5.9949904e-07
-2.4617667e-09
6.0141482e-07
-2.5003362e-09
6.0485555e-07
-1.7838616e-09
6.0708656e-07
-1.1365944e-09
6.0871526e-07
-7.2008831e-10
6.0947747e-07
-3.6468616e-10
6.0989478e-07
3.7368445e-13
6.1008569e-07
3.6543168e-10
6.1008585e-07
7.2092477e-10
6.0989522e-07
1.1373235e-09
6.0947841e-07
1.7845969e-09
6.0871621e-07
2.5009467e-09
6.0708786e-07
2.4624629e-09
6.0485679e-07
7.6414939e-10
6.0141612e-07
-1.0656764e-08
5.9950037e-07
-4.0207912e-08
5.9671883e-07
5.0753419e-07
7.2640252e-08
4.3476318e-07
6.7100765e-08
6.0007025e-07
3.5662588e-08
6.1971431e-07
1.6140262e-08
6.2053938e-07
8.3411243e-09
6.2310974e-07
5.4298433e-09
6.2498545e-07
3.4964975e-09
6.2547027e-07
2.0653654e-09
6.2486378e-07
9.5720946e-10
6.2415513e-07
3.6740819e-13
6.2362552e-07
-9.5647937e-10
6.2362551e-07
-2.0646384e-09
6.2415513e-07
-3.4957593e-09
6.2486375e-07
-5.4290246e-09
6.2547044e-07
-8.3401161e-09
6.2498589e-07
-1.6138392e-08
6.231106e-07
-3.5660104e-08
6.2054023e-07
-6.7098551e-08
6.1971539e-07
-7.2639466e-08
6.0007314e-07
4.3477262e-07
6.0474025e-08
8.0780692e-08
7.5399287e-08
5.9565765e-08
4.3350361e-08
3.1175928e-08
2.1192438e-08
1.318476e-08
6.2973437e-09
2.9228164e-13
-6.2967432e-09
-1.3184085e-08
-2.1191551e-08
-3.1174815e-08
-4.3348825e-08
-5.9563717e-08
-7.5396912e-08
-8.0778831e-08
-6.0472976e-08
)
;

boundaryField
{
    Wall
    {
        type            calculated;
        value           uniform 0;
    }
    frontAndBack
    {
        type            empty;
        value           nonuniform 0();
    }
    atmosphere
    {
        type            calculated;
        value           nonuniform List<scalar> 
20
(
3.7428899e-07
5.7973373e-07
6.2444432e-07
6.2850871e-07
6.2997812e-07
6.2979163e-07
6.2850366e-07
6.2700904e-07
6.2566353e-07
6.2487411e-07
6.2487416e-07
6.2566369e-07
6.2700924e-07
6.2850403e-07
6.2979224e-07
6.299788e-07
6.2850949e-07
6.2444566e-07
5.7973741e-07
3.7429941e-07
)
;
    }
}


// ************************************************************************* //
