/*--------------------------------*- C++ -*----------------------------------*\
| =========                 |                                                 |
| \\      /  F ield         | OpenFOAM: The Open Source CFD Toolbox           |
|  \\    /   O peration     | Version:  3.0.1                                 |
|   \\  /    A nd           | Web:      www.OpenFOAM.org                      |
|    \\/     M anipulation  |                                                 |
\*---------------------------------------------------------------------------*/
FoamFile
{
    version     2.0;
    format      ascii;
    class       volScalarField;
    location    "35";
    object      Psi2;
}
// * * * * * * * * * * * * * * * * * * * * * * * * * * * * * * * * * * * * * //

dimensions      [0 -2 2 0 0 0 0];

internalField   nonuniform List<scalar> 
800
(
0.00051965922
0.00051961882
0.00051961456
0.00051961535
0.0005196162
0.00051961669
0.00051961692
0.00051961701
0.00051961703
0.00051961704
0.00051961703
0.00051961703
0.00051961701
0.00051961692
0.00051961669
0.0005196162
0.00051961535
0.00051961456
0.00051961882
0.00051965922
0.00052085073
0.00052061872
0.00052055702
0.00052054049
0.00052053756
0.00052053835
0.00052053976
0.00052054089
0.00052054161
0.00052054195
0.00052054195
0.00052054161
0.0005205409
0.00052053976
0.00052053835
0.00052053757
0.0005205405
0.00052055703
0.00052061873
0.00052085076
0.0005232834
0.00052287468
0.00052273039
0.00052268815
0.00052267805
0.0005226777
0.00052267966
0.00052268156
0.00052268284
0.00052268346
0.00052268346
0.00052268284
0.00052268156
0.00052267967
0.00052267771
0.00052267806
0.00052268817
0.00052273041
0.00052287471
0.00052328345
0.00052621447
0.00052564463
0.00052541492
0.00052534571
0.00052532755
0.00052532547
0.00052532762
0.00052533008
0.00052533184
0.00052533271
0.00052533271
0.00052533184
0.0005253301
0.00052532764
0.00052532549
0.00052532757
0.00052534573
0.00052541496
0.00052564468
0.00052621455
0.00052928534
0.00052857965
0.00052827062
0.00052817578
0.00052815036
0.0005281467
0.00052814899
0.00052815188
0.00052815402
0.00052815508
0.00052815508
0.00052815402
0.0005281519
0.00052814901
0.00052814673
0.00052815039
0.00052817581
0.00052827067
0.00052857971
0.00052928544
0.00053223301
0.00053142775
0.00053105073
0.00053093353
0.00053090307
0.00053089879
0.00053090155
0.00053090498
0.00053090751
0.00053090876
0.00053090876
0.00053090752
0.000530905
0.00053090157
0.00053089882
0.00053090311
0.00053093358
0.00053105079
0.00053142782
0.00053223312
0.00053483228
0.00053397117
0.00053354219
0.0005334074
0.00053337503
0.00053337166
0.00053337559
0.00053337988
0.00053338293
0.00053338442
0.00053338442
0.00053338294
0.0005333799
0.00053337562
0.00053337169
0.00053337507
0.00053340745
0.00053354225
0.00053397125
0.00053483239
0.00053690416
0.0005360319
0.00053557123
0.00053542469
0.000535394
0.00053539336
0.00053539937
0.00053540494
0.00053540874
0.00053541054
0.00053541054
0.00053540875
0.00053540496
0.00053539939
0.0005353934
0.00053539404
0.00053542474
0.00053557129
0.00053603198
0.00053690427
0.00053833912
0.00053749168
0.00053702188
0.00053686979
0.00053684401
0.00053684793
0.00053685695
0.00053686432
0.0005368691
0.00053687132
0.00053687132
0.00053686911
0.00053686434
0.00053685697
0.00053684796
0.00053684405
0.00053686983
0.00053702194
0.00053749175
0.00053833922
0.00053908651
0.00053828996
0.0005378352
0.00053768382
0.00053766554
0.00053767557
0.00053768858
0.0005376983
0.00053770434
0.00053770711
0.00053770711
0.00053770435
0.00053769832
0.0005376886
0.0005376756
0.00053766558
0.00053768386
0.00053783525
0.00053829003
0.0005390866
0.00053915697
0.00053842067
0.00053800285
0.00053785761
0.0005378482
0.00053786524
0.00053788308
0.00053789561
0.00053790315
0.00053790658
0.00053790658
0.00053790316
0.00053789563
0.0005378831
0.00053786527
0.00053784823
0.00053785765
0.00053800289
0.00053842073
0.00053915705
0.00053843055
0.00053791232
0.00053755065
0.00053741644
0.00053741654
0.00053744106
0.00053746457
0.00053748043
0.00053748971
0.00053749392
0.00053749392
0.00053748972
0.00053748045
0.00053746459
0.00053744108
0.00053741657
0.00053741647
0.00053755068
0.00053791237
0.00053843061
0.00053696252
0.00053641846
0.00053614921
0.00053603349
0.00053603942
0.00053606963
0.00053610061
0.00053612084
0.00053613226
0.0005361375
0.0005361375
0.00053613226
0.00053612086
0.00053610062
0.00053606964
0.00053603944
0.00053603352
0.00053614924
0.00053641849
0.00053696257
0.00053483584
0.00053426742
0.00053409525
0.00053400097
0.00053400708
0.00053403929
0.00053407949
0.00053410486
0.00053411861
0.00053412511
0.00053412511
0.00053411862
0.00053410487
0.0005340795
0.0005340393
0.00053400709
0.00053400099
0.00053409526
0.00053426744
0.00053483587
0.00053218907
0.00053155864
0.0005314715
0.0005314008
0.00053140078
0.0005314318
0.00053148312
0.00053151462
0.00053153111
0.00053153901
0.00053153901
0.00053153111
0.00053151463
0.00053148313
0.00053143181
0.00053140079
0.0005314008
0.00053147151
0.00053155864
0.00053218909
0.00052914235
0.00052838348
0.0005283534
0.00052830642
0.00052829399
0.0005283219
0.00052838616
0.00052842516
0.00052844522
0.00052845425
0.00052845425
0.00052844523
0.00052842517
0.00052838617
0.00052832191
0.000528294
0.00052830643
0.0005283534
0.00052838348
0.00052914235
0.00052580419
0.00052483322
0.00052481738
0.00052478988
0.00052475894
0.00052478329
0.00052486324
0.00052491147
0.00052493654
0.00052494534
0.00052494534
0.00052493654
0.00052491148
0.00052486324
0.00052478329
0.00052475894
0.00052478988
0.00052481738
0.00052483321
0.00052580419
0.00052229403
0.0005210095
0.0005209519
0.0005209325
0.00052087607
0.00052089848
0.00052099926
0.00052105884
0.0005210912
0.0005210968
0.0005210968
0.00052109121
0.00052105884
0.00052099927
0.00052089848
0.00052087607
0.0005209325
0.0005209519
0.00052100949
0.00052229403
0.00051875607
0.00051703491
0.0005168676
0.00051683535
0.00051674374
0.00051676863
0.00051689807
0.00051697127
0.00051701452
0.00051701218
0.00051701218
0.00051701452
0.00051697128
0.00051689808
0.00051676863
0.00051674375
0.00051683534
0.0005168676
0.0005170349
0.00051875607
0.0005153592
0.00051305414
0.00051269848
0.00051262189
0.00051248218
0.00051251681
0.00051268436
0.00051277343
0.00051283276
0.00051281639
0.00051281639
0.00051283277
0.00051277345
0.00051268438
0.00051251682
0.00051248219
0.00051262189
0.00051269848
0.00051305413
0.00051535921
0.00051228966
0.00050922902
0.00050859579
0.00050843353
0.00050823052
0.00050828353
0.00050849825
0.00050860523
0.00050868702
0.00050865001
0.00050865001
0.00050868703
0.00050860525
0.00050849827
0.00050828354
0.00050823053
0.00050843353
0.00050859579
0.00050922902
0.00051228968
0.00050974223
0.0005057279
0.00050471561
0.00050441807
0.00050413482
0.00050421409
0.00050448268
0.00050460933
0.00050471956
0.00050465584
0.00050465584
0.00050471957
0.00050460936
0.0005044827
0.00050421411
0.00050413483
0.00050441808
0.00050471562
0.00050572791
0.00050974226
0.00050793284
0.00050273444
0.00050122387
0.00050073432
0.00050035035
0.00050046154
0.00050078796
0.00050093593
0.00050107769
0.00050098269
0.0005009827
0.00050107771
0.00050093596
0.00050078798
0.00050046156
0.00050035037
0.00050073434
0.00050122389
0.00050273445
0.00050793287
0.00050710457
0.00050045224
0.00049829963
0.0004975545
0.00049704195
0.0004971879
0.0004975745
0.00049774538
0.00049791669
0.00049778793
0.00049778794
0.00049791671
0.00049774541
0.00049757454
0.00049718793
0.00049704198
0.00049755452
0.00049829965
0.00050045225
0.0005071046
0.00050755351
0.00049911988
0.00049614664
0.00049507113
0.00049439136
0.00049457122
0.00049502007
0.00049521558
0.00049540864
0.00049524587
0.00049524587
0.00049540866
0.00049521562
0.00049502011
0.00049457126
0.0004943914
0.00049507115
0.00049614667
0.0004991199
0.00050755353
0.00050966842
0.00049903594
0.0004950162
0.00049351244
0.00049261593
0.00049282126
0.00049333349
0.00049355576
0.00049375781
0.00049356282
0.00049356283
0.00049375783
0.0004935558
0.00049333353
0.00049282129
0.00049261596
0.00049351247
0.00049501622
0.00049903594
0.00050966841
0.0005139892
0.00050059559
0.00049523615
0.00049316673
0.00049199177
0.00049220142
0.00049277422
0.00049302585
0.00049322129
0.00049299757
0.00049299758
0.00049322131
0.00049302589
0.00049277426
0.00049220146
0.0004919918
0.00049316675
0.00049523616
0.00050059556
0.00051398913
0.0005213003
0.00050435794
0.00049725962
0.00049442643
0.00049289325
0.00049306662
0.00049368962
0.00049397388
0.00049414712
0.00049389944
0.00049389945
0.00049414715
0.00049397391
0.00049368965
0.00049306665
0.00049289327
0.00049442643
0.0004972596
0.00050435786
0.00052130014
0.00053277914
0.00051115165
0.00050173907
0.00049785993
0.00049585727
0.0004959234
0.00049657611
0.00049689723
0.00049703554
0.00049676942
0.00049676942
0.00049703556
0.00049689726
0.00049657614
0.00049592342
0.00049585727
0.00049785991
0.000501739
0.00051115147
0.00053277882
0.00055024706
0.00052225199
0.00050965503
0.00050432912
0.0005016772
0.00050153025
0.00050218102
0.0005025445
0.00050264014
0.00050236153
0.00050236154
0.00050264015
0.00050254452
0.00050218103
0.00050153025
0.00050167718
0.00050432905
0.00050965488
0.00052225164
0.00055024647
0.00057660224
0.00053965291
0.00052253476
0.00051517036
0.00051156032
0.00051103901
0.00051165744
0.00051206939
0.00051212059
0.0005118358
0.0005118358
0.00051212059
0.00051206939
0.00051165743
0.00051103898
0.00051156025
0.00051517021
0.00052253449
0.0005396523
0.00057660119
0.00061656696
0.00056654953
0.00054278079
0.00053245618
0.00052739812
0.00052624555
0.00052677707
0.00052726099
0.00052727128
0.00052698693
0.00052698693
0.00052727126
0.00052726097
0.00052677702
0.00052624547
0.00052739797
0.00053245592
0.00054278031
0.00056654848
0.00061656514
0.00067797844
0.0006081047
0.00057430515
0.00055949242
0.00055220499
0.00055002475
0.0005503362
0.00055090476
0.00055088219
0.00055060633
0.00055060632
0.00055088215
0.0005509047
0.0005503361
0.00055002459
0.00055220473
0.00055949198
0.00057430435
0.00060810296
0.00067797537
0.00077376017
0.00067296126
0.00062354341
0.00060169369
0.00059081948
0.00058700842
0.00058686274
0.00058737862
0.00058734132
0.00058708795
0.00058708793
0.00058734126
0.0005873785
0.00058686255
0.00058700816
0.00059081906
0.00060169298
0.00062354213
0.00067295854
0.00077375506
0.00092691636
0.00077559129
0.00070118898
0.00066798328
0.00065107572
0.00064459441
0.00064348003
0.0006436903
0.00064368195
0.00064348228
0.00064348225
0.00064368184
0.00064369009
0.00064347973
0.00064459399
0.00065107508
0.00066798219
0.00070118702
0.0007755871
0.00092690811
0.0011856134
0.00094223318
0.00082569338
0.00077276631
0.00074605228
0.00073453739
0.00073178896
0.00073145917
0.00073157524
0.00073149842
0.00073149837
0.00073157507
0.00073145884
0.00073178852
0.00073453675
0.00074605133
0.0007727647
0.00082569043
0.00094222666
0.0011855985
0.0016226538
0.0012400732
0.0010352663
0.00094281535
0.00089776462
0.00087837674
0.00087322982
0.0008700355
0.0008704677
0.00087064714
0.00087064704
0.0008704674
0.00087003499
0.00087322915
0.00087837577
0.00089776313
0.00094281281
0.0010352615
0.001240061
0.001622624
0.0023789302
0.0017128136
0.0013820547
0.0012235415
0.0011469453
0.0011136597
0.0011039969
0.0010995798
0.0011005988
0.001101248
0.0011012478
0.0011005982
0.0010995789
0.0011039957
0.0011136579
0.0011469425
0.0012235367
0.0013820456
0.0017127924
0.0023788702
0.0038041305
0.0024172695
0.0018777705
0.0016149905
0.0014810782
0.0014217252
0.0014031191
0.0013991229
0.0014022181
0.0014045276
0.0014045273
0.0014022172
0.0013991214
0.0014031174
0.0014217226
0.0014810737
0.0016149822
0.001877755
0.0024172351
0.0038040109
0.0061979287
0.0034299241
0.0025325133
0.0021165717
0.0019009807
0.0017994899
0.0017651649
0.0017617266
0.001769671
0.0017760154
0.0017760149
0.0017696694
0.0017617244
0.0017651623
0.0017994859
0.0019009738
0.002116559
0.0025324892
0.0034298716
0.0061977347
)
;

boundaryField
{
    Wall
    {
        type            calculated;
        value           nonuniform List<scalar> 
100
(
1e-20
1e-20
1e-20
1e-20
1e-20
1e-20
1e-20
1e-20
1e-20
1e-20
1e-20
1e-20
1e-20
1e-20
1e-20
1e-20
1e-20
1e-20
1e-20
1e-20
1e-20
1e-20
1e-20
1e-20
1e-20
1e-20
1e-20
1e-20
1e-20
9.9999999e-21
9.9999999e-21
9.9999999e-21
9.9999999e-21
9.9999999e-21
9.9999999e-21
9.9999999e-21
1e-20
1e-20
1e-20
1e-20
1e-20
1e-20
1e-20
1e-20
1e-20
1e-20
1e-20
1e-20
1e-20
1e-20
1e-20
1e-20
1e-20
1e-20
1e-20
1e-20
1e-20
1e-20
1e-20
1e-20
1e-20
1e-20
1e-20
1e-20
1e-20
1e-20
1e-20
1e-20
1e-20
9.9999999e-21
9.9999999e-21
9.9999999e-21
9.9999999e-21
9.9999999e-21
9.9999999e-21
9.9999999e-21
1e-20
1e-20
1e-20
1e-20
1e-20
1e-20
1e-20
1e-20
1e-20
1e-20
1e-20
1e-20
1e-20
1e-20
1e-20
1e-20
1e-20
1e-20
1e-20
1e-20
1e-20
1e-20
1e-20
1e-20
)
;
    }
    frontAndBack
    {
        type            empty;
    }
    atmosphere
    {
        type            calculated;
        value           uniform 1e-20;
    }
}


// ************************************************************************* //
