/*--------------------------------*- C++ -*----------------------------------*\
| =========                 |                                                 |
| \\      /  F ield         | OpenFOAM: The Open Source CFD Toolbox           |
|  \\    /   O peration     | Version:  3.0.1                                 |
|   \\  /    A nd           | Web:      www.OpenFOAM.org                      |
|    \\/     M anipulation  |                                                 |
\*---------------------------------------------------------------------------*/
FoamFile
{
    version     2.0;
    format      ascii;
    class       volScalarField;
    location    "35";
    object      rho;
}
// * * * * * * * * * * * * * * * * * * * * * * * * * * * * * * * * * * * * * //

dimensions      [1 -3 0 0 0 0 0];

internalField   nonuniform List<scalar> 
800
(
51.965922
51.961882
51.961456
51.961535
51.96162
51.961669
51.961692
51.961701
51.961703
51.961704
51.961703
51.961703
51.961701
51.961692
51.961669
51.96162
51.961535
51.961456
51.961882
51.965922
52.085073
52.061872
52.055702
52.054049
52.053756
52.053835
52.053976
52.054089
52.054161
52.054195
52.054195
52.054161
52.05409
52.053976
52.053835
52.053757
52.05405
52.055703
52.061873
52.085076
52.328339
52.287467
52.273038
52.268815
52.267804
52.26777
52.267966
52.268155
52.268283
52.268345
52.268345
52.268283
52.268156
52.267966
52.267771
52.267806
52.268816
52.273041
52.287471
52.328345
52.621446
52.564462
52.541491
52.53457
52.532754
52.532546
52.532762
52.533008
52.533183
52.53327
52.53327
52.533184
52.533009
52.532763
52.532548
52.532756
52.534573
52.541495
52.564467
52.621454
52.928531
52.857962
52.82706
52.817576
52.815034
52.814668
52.814897
52.815186
52.8154
52.815506
52.815506
52.8154
52.815188
52.814899
52.814671
52.815037
52.817579
52.827065
52.857969
52.928541
53.223295
53.14277
53.105069
53.093349
53.090303
53.089875
53.090151
53.090494
53.090747
53.090872
53.090872
53.090748
53.090496
53.090153
53.089878
53.090306
53.093354
53.105074
53.142777
53.223306
53.483218
53.397108
53.354211
53.340732
53.337495
53.337158
53.337552
53.33798
53.338286
53.338434
53.338434
53.338287
53.337982
53.337554
53.337162
53.3375
53.340737
53.354217
53.397116
53.483229
53.690399
53.603176
53.55711
53.542456
53.539387
53.539324
53.539924
53.540482
53.540861
53.541041
53.541041
53.540862
53.540483
53.539926
53.539327
53.539391
53.542461
53.557116
53.603183
53.69041
53.833887
53.749146
53.702168
53.686959
53.684382
53.684774
53.685675
53.686413
53.686891
53.687113
53.687113
53.686892
53.686415
53.685678
53.684777
53.684386
53.686964
53.702174
53.749153
53.833897
53.908615
53.828965
53.783491
53.768354
53.766527
53.76753
53.76883
53.769802
53.770407
53.770684
53.770684
53.770408
53.769804
53.768833
53.767533
53.76653
53.768358
53.783496
53.828971
53.908624
53.915648
53.842023
53.800245
53.785723
53.784781
53.786486
53.78827
53.789523
53.790277
53.79062
53.79062
53.790278
53.789525
53.788272
53.786489
53.784785
53.785727
53.800249
53.842029
53.915655
53.842989
53.791175
53.755012
53.741593
53.741604
53.744055
53.746407
53.747993
53.748921
53.749342
53.749342
53.748921
53.747994
53.746408
53.744057
53.741607
53.741596
53.755015
53.791179
53.842995
53.696169
53.641771
53.614849
53.603283
53.603877
53.606898
53.609997
53.61202
53.613161
53.613685
53.613685
53.613162
53.612021
53.609998
53.606899
53.603879
53.603285
53.614851
53.641774
53.696173
53.483479
53.426636
53.409427
53.400015
53.400623
53.403845
53.407869
53.410402
53.411768
53.412426
53.412426
53.411769
53.410403
53.40787
53.403847
53.400624
53.400016
53.409429
53.426638
53.483482
53.218774
53.15573
53.147043
53.139977
53.139969
53.14306
53.148087
53.151294
53.152966
53.1538
53.1538
53.152967
53.151295
53.148089
53.143061
53.13997
53.139978
53.147044
53.155731
53.218775
52.914073
52.838212
52.835219
52.830517
52.829272
52.83201
52.838303
52.842255
52.844386
52.845305
52.845305
52.844386
52.842256
52.838303
52.83201
52.829272
52.830517
52.835219
52.838212
52.914073
52.58021
52.483147
52.481591
52.47884
52.4757
52.477993
52.486011
52.490935
52.49352
52.494388
52.494388
52.49352
52.490935
52.486011
52.477993
52.4757
52.47884
52.481591
52.483147
52.58021
52.229136
52.100206
52.094891
52.092932
52.087039
52.089367
52.099735
52.105705
52.10898
52.109511
52.109511
52.108981
52.105706
52.099735
52.089367
52.087039
52.092932
52.094891
52.100205
52.229136
51.874664
51.70182
51.685334
51.682051
51.672948
51.676129
51.689572
51.696948
51.701263
51.701023
51.701023
51.701263
51.696949
51.689573
51.676131
51.672949
51.682051
51.685334
51.701819
51.874664
51.534255
51.303756
51.268192
51.260533
51.24731
51.251014
51.268074
51.277164
51.283061
51.281421
51.281421
51.283062
51.277166
51.268078
51.251014
51.247311
51.260533
51.268192
51.303756
51.534256
51.227312
50.921257
50.857936
50.842044
50.822724
50.82805
50.849606
50.860316
50.868184
50.864589
50.864591
50.868186
50.86032
50.84961
50.828051
50.822725
50.842045
50.857937
50.921257
51.227313
50.972577
50.571157
50.469931
50.441372
50.413222
50.421154
50.448018
50.4607
50.471292
50.46492
50.46492
50.471293
50.460703
50.448022
50.421157
50.413225
50.441373
50.469932
50.571158
50.972579
50.791643
50.27182
50.121136
50.073166
50.034773
50.04588
50.078273
50.09294
50.107193
50.09761
50.097611
50.107194
50.092939
50.078271
50.045883
50.034776
50.073168
50.121137
50.271822
50.791646
50.708819
50.043608
49.829396
49.755126
49.703414
49.717938
49.756541
49.773628
49.791146
49.778252
49.778253
49.791148
49.773631
49.756543
49.717941
49.703414
49.755128
49.829398
50.043609
50.708822
50.753712
49.910377
49.61395
49.50621
49.438233
49.456218
49.501102
49.520653
49.540289
49.524075
49.524076
49.540293
49.520656
49.501105
49.456221
49.438235
49.506212
49.613953
49.910378
50.753714
50.965628
49.902742
49.500697
49.350702
49.260692
49.281225
49.332447
49.354674
49.374879
49.355772
49.355773
49.37488
49.354677
49.332451
49.281228
49.260695
49.350704
49.5007
49.902743
50.965627
51.398354
50.059008
49.522692
49.316131
49.198278
49.219242
49.276521
49.301684
49.321227
49.299184
49.299183
49.321229
49.301687
49.276525
49.219246
49.19828
49.316133
49.522693
50.059006
51.398348
52.129456
50.43524
49.725096
49.4421
49.288578
49.30578
49.368059
49.39662
49.41415
49.389211
49.389212
49.414151
49.396626
49.368063
49.305783
49.288581
49.4421
49.725094
50.435232
52.12944
53.277327
51.114603
50.173355
49.785446
49.585182
49.591795
49.656984
49.689177
49.703008
49.676204
49.676205
49.70301
49.68918
49.656988
49.591797
49.585183
49.785444
50.173349
51.114585
53.277295
55.0241
52.224624
50.964942
50.432357
50.167169
50.152473
50.21755
50.253898
50.263461
50.235556
50.235557
50.263462
50.2539
50.217551
50.152474
50.167166
50.43235
50.964928
52.22459
55.02404
57.659588
53.964697
52.252902
51.516469
51.155469
51.103339
51.165182
51.206376
51.211496
51.183017
51.183017
51.211496
51.206376
51.16518
51.103336
51.155462
51.516455
52.252874
53.964635
57.659483
61.656015
56.654329
54.277482
53.245032
52.739232
52.623976
52.677128
52.725519
52.726547
52.698113
52.698113
52.726546
52.725517
52.677123
52.623968
52.739217
53.245006
54.277433
56.654224
61.655834
67.795982
60.809799
57.429882
55.948626
55.219891
55.001869
55.033014
55.089869
55.087612
55.060026
55.060026
55.087609
55.089864
55.033004
55.001854
55.219865
55.948582
57.429802
60.809625
67.795675
77.346031
67.291449
62.353311
60.168678
59.081296
58.700195
58.685627
58.737214
58.733484
58.708147
58.708146
58.733478
58.737203
58.685608
58.700168
59.081255
60.168607
62.353184
67.291177
77.345526
91.652847
77.467215
70.104666
66.791852
65.103113
64.455697
64.344529
64.365665
64.364904
64.344968
64.344965
64.364893
64.365644
64.344499
64.455655
65.103049
66.791744
70.104471
77.466814
91.652327
80.522192
90.935568
82.130939
77.109792
74.499901
73.369276
73.101841
73.072029
73.085708
73.079011
73.079006
73.085691
73.071997
73.101799
73.369217
74.499812
77.109646
82.130697
90.935528
80.526643
19.33958
62.066233
81.074724
83.68265
83.120784
82.592012
82.630632
82.585177
82.773714
82.856408
82.856421
82.773754
82.585267
82.63075
82.592186
83.121045
83.683202
81.075993
62.069397
19.342649
1.8354076
9.9438186
24.014942
31.936007
37.184354
40.092431
41.618702
42.42917
43.101396
43.43447
43.434564
43.101682
42.429667
41.619329
40.09328
37.185417
31.937243
24.016214
9.9449197
1.8356127
1.2017808
1.3655781
2.2296779
3.2044021
3.963767
4.4453445
4.7077685
4.8631913
4.9847623
5.0476427
5.0476606
4.9848162
4.8632793
4.7078762
4.4454832
3.9639203
3.204549
2.2297945
1.3656124
1.2017817
1.2000003
1.2002279
1.2038661
1.2123983
1.2221718
1.2289009
1.2327447
1.23509
1.2368818
1.2378057
1.2378059
1.2368826
1.2350914
1.2327463
1.2289028
1.2221737
1.2123998
1.2038668
1.200228
1.2000003
)
;

boundaryField
{
    Wall
    {
        type            calculated;
        value           nonuniform List<scalar> 
100
(
1e-15
1.3858207e-12
1.2587001e-08
2.2966957e-08
6.040332e-08
1.2799409e-07
2.3011349e-07
3.7316771e-07
5.6409918e-07
8.1132503e-07
1.1228241e-06
1.4930288e-06
1.9104323e-06
2.4198898e-06
3.0735567e-06
3.7626481e-06
4.8713347e-06
6.2744192e-06
2.2325809e-05
3.9695642e-05
3.969552e-05
3.9695736e-05
3.9695688e-05
3.9695671e-05
3.9695289e-05
2.9273062e-05
1.3518667e-05
1.351747e-05
1.3516383e-05
1.3515277e-05
1.3514946e-05
1.3515535e-05
3.3562507e-05
0.00047238388
0.013624714
0.38894391
1.064853
1.1967786
1.1999944
1.2
1e-15
7.0357901e-15
1.2585987e-08
2.2966603e-08
6.0403789e-08
1.2799569e-07
2.301166e-07
3.731727e-07
5.6410634e-07
8.1133467e-07
1.1228363e-06
1.4930431e-06
1.910449e-06
2.4199088e-06
3.0735761e-06
3.7626752e-06
4.8714067e-06
6.2744916e-06
2.2325887e-05
3.9695852e-05
3.969573e-05
3.9695945e-05
3.9695898e-05
3.9695881e-05
3.9695498e-05
2.9275883e-05
1.3519031e-05
1.3517834e-05
1.3516746e-05
1.3515641e-05
1.3515309e-05
1.3515899e-05
3.3557615e-05
0.00047228019
0.013620833
0.38888811
1.0648277
1.1967775
1.1999944
1.2
1e-15
1e-15
1.0000005e-15
1.000001e-15
1e-15
1.0000012e-15
1.0000011e-15
1.0000001e-15
1e-15
1e-15
1e-15
1e-15
1e-15
1.0000001e-15
1.0000001e-15
1e-15
1e-15
1e-15
1e-15
1e-15
)
;
    }
    frontAndBack
    {
        type            empty;
    }
    atmosphere
    {
        type            calculated;
        value           nonuniform List<scalar> 
20
(
1.2
1.1999992
1.1999816
1.1999293
1.1998592
1.199806
1.1997759
1.1997593
1.1997482
1.1997428
1.1997428
1.1997482
1.1997593
1.1997759
1.199806
1.1998591
1.1999293
1.1999816
1.1999992
1.2
)
;
    }
}


// ************************************************************************* //
