/*--------------------------------*- C++ -*----------------------------------*\
| =========                 |                                                 |
| \\      /  F ield         | OpenFOAM: The Open Source CFD Toolbox           |
|  \\    /   O peration     | Version:  3.0.1                                 |
|   \\  /    A nd           | Web:      www.OpenFOAM.org                      |
|    \\/     M anipulation  |                                                 |
\*---------------------------------------------------------------------------*/
FoamFile
{
    version     2.0;
    format      ascii;
    class       volScalarField;
    location    "35";
    object      rho_foam;
}
// * * * * * * * * * * * * * * * * * * * * * * * * * * * * * * * * * * * * * //

dimensions      [1 -3 0 0 0 0 0];

internalField   nonuniform List<scalar> 
800
(
51.965922
51.961882
51.961456
51.961535
51.96162
51.961669
51.961692
51.961701
51.961703
51.961704
51.961703
51.961703
51.961701
51.961692
51.961669
51.96162
51.961535
51.961456
51.961882
51.965922
52.085073
52.061872
52.055702
52.054049
52.053756
52.053835
52.053976
52.054089
52.054161
52.054195
52.054195
52.054161
52.05409
52.053976
52.053835
52.053757
52.05405
52.055703
52.061873
52.085076
52.32834
52.287468
52.273039
52.268815
52.267805
52.26777
52.267966
52.268156
52.268284
52.268346
52.268346
52.268284
52.268156
52.267967
52.267771
52.267806
52.268817
52.273041
52.287471
52.328345
52.621447
52.564463
52.541492
52.534571
52.532755
52.532547
52.532762
52.533008
52.533184
52.533271
52.533271
52.533184
52.53301
52.532764
52.532549
52.532757
52.534573
52.541496
52.564468
52.621455
52.928534
52.857965
52.827062
52.817578
52.815036
52.81467
52.814899
52.815188
52.815402
52.815508
52.815508
52.815402
52.81519
52.814901
52.814673
52.815039
52.817581
52.827067
52.857971
52.928544
53.223301
53.142775
53.105073
53.093353
53.090307
53.089879
53.090155
53.090498
53.090751
53.090876
53.090876
53.090752
53.0905
53.090157
53.089882
53.090311
53.093358
53.105079
53.142782
53.223312
53.483228
53.397117
53.354219
53.34074
53.337503
53.337166
53.337559
53.337988
53.338293
53.338442
53.338442
53.338294
53.33799
53.337562
53.337169
53.337507
53.340745
53.354225
53.397125
53.483239
53.690416
53.60319
53.557123
53.542469
53.5394
53.539336
53.539937
53.540494
53.540874
53.541054
53.541054
53.540875
53.540496
53.539939
53.53934
53.539404
53.542474
53.557129
53.603198
53.690427
53.833912
53.749168
53.702188
53.686979
53.684401
53.684793
53.685695
53.686432
53.68691
53.687132
53.687132
53.686911
53.686434
53.685697
53.684796
53.684405
53.686983
53.702194
53.749175
53.833922
53.908651
53.828996
53.78352
53.768382
53.766554
53.767557
53.768858
53.76983
53.770434
53.770711
53.770711
53.770435
53.769832
53.76886
53.76756
53.766558
53.768386
53.783525
53.829003
53.90866
53.915697
53.842067
53.800285
53.785761
53.78482
53.786524
53.788308
53.789561
53.790315
53.790658
53.790658
53.790316
53.789563
53.78831
53.786527
53.784823
53.785765
53.800289
53.842073
53.915705
53.843055
53.791232
53.755065
53.741644
53.741654
53.744106
53.746457
53.748043
53.748971
53.749392
53.749392
53.748972
53.748045
53.746459
53.744108
53.741657
53.741647
53.755068
53.791237
53.843061
53.696252
53.641846
53.614921
53.603349
53.603942
53.606963
53.610061
53.612084
53.613226
53.61375
53.61375
53.613226
53.612086
53.610062
53.606964
53.603944
53.603352
53.614924
53.641849
53.696257
53.483584
53.426742
53.409525
53.400097
53.400708
53.403929
53.407949
53.410486
53.411861
53.412511
53.412511
53.411862
53.410487
53.40795
53.40393
53.400709
53.400099
53.409526
53.426744
53.483587
53.218907
53.155864
53.14715
53.14008
53.140078
53.14318
53.148312
53.151462
53.153111
53.153901
53.153901
53.153111
53.151463
53.148313
53.143181
53.140079
53.14008
53.147151
53.155864
53.218909
52.914235
52.838348
52.83534
52.830642
52.829399
52.83219
52.838616
52.842516
52.844522
52.845425
52.845425
52.844523
52.842517
52.838617
52.832191
52.8294
52.830643
52.83534
52.838348
52.914235
52.580419
52.483322
52.481738
52.478988
52.475894
52.478329
52.486324
52.491147
52.493654
52.494534
52.494534
52.493654
52.491148
52.486324
52.478329
52.475894
52.478988
52.481738
52.483321
52.580419
52.229403
52.10095
52.09519
52.09325
52.087607
52.089848
52.099926
52.105884
52.10912
52.10968
52.10968
52.109121
52.105884
52.099927
52.089848
52.087607
52.09325
52.09519
52.100949
52.229403
51.875607
51.703491
51.68676
51.683535
51.674374
51.676863
51.689807
51.697127
51.701452
51.701218
51.701218
51.701452
51.697128
51.689808
51.676863
51.674375
51.683534
51.68676
51.70349
51.875607
51.53592
51.305414
51.269848
51.262189
51.248218
51.251681
51.268436
51.277343
51.283276
51.281639
51.281639
51.283277
51.277345
51.268438
51.251682
51.248219
51.262189
51.269848
51.305413
51.535921
51.228966
50.922902
50.859579
50.843353
50.823052
50.828353
50.849825
50.860523
50.868702
50.865001
50.865001
50.868703
50.860525
50.849827
50.828354
50.823053
50.843353
50.859579
50.922902
51.228968
50.974223
50.57279
50.471561
50.441807
50.413482
50.421409
50.448268
50.460933
50.471956
50.465584
50.465584
50.471957
50.460936
50.44827
50.421411
50.413483
50.441808
50.471562
50.572791
50.974226
50.793284
50.273444
50.122387
50.073432
50.035035
50.046154
50.078796
50.093593
50.107769
50.098269
50.09827
50.107771
50.093596
50.078798
50.046156
50.035037
50.073434
50.122389
50.273445
50.793287
50.710457
50.045224
49.829963
49.75545
49.704195
49.71879
49.75745
49.774538
49.791669
49.778793
49.778794
49.791671
49.774541
49.757454
49.718793
49.704198
49.755452
49.829965
50.045225
50.71046
50.755351
49.911988
49.614664
49.507113
49.439136
49.457122
49.502007
49.521558
49.540864
49.524587
49.524587
49.540866
49.521562
49.502011
49.457126
49.43914
49.507115
49.614667
49.91199
50.755353
50.966842
49.903594
49.50162
49.351244
49.261593
49.282126
49.333349
49.355576
49.375781
49.356282
49.356283
49.375783
49.35558
49.333353
49.282129
49.261596
49.351247
49.501622
49.903594
50.966841
51.39892
50.059559
49.523615
49.316673
49.199177
49.220142
49.277422
49.302585
49.322129
49.299757
49.299758
49.322131
49.302589
49.277426
49.220146
49.19918
49.316675
49.523616
50.059556
51.398913
52.13003
50.435794
49.725962
49.442643
49.289325
49.306662
49.368962
49.397388
49.414712
49.389944
49.389945
49.414715
49.397392
49.368965
49.306665
49.289327
49.442643
49.72596
50.435786
52.130014
53.277914
51.115165
50.173907
49.785993
49.585727
49.59234
49.657611
49.689723
49.703554
49.676942
49.676943
49.703556
49.689726
49.657614
49.592342
49.585727
49.785991
50.1739
51.115147
53.277882
55.024706
52.225199
50.965503
50.432912
50.16772
50.153025
50.218102
50.25445
50.264014
50.236153
50.236154
50.264015
50.254453
50.218104
50.153025
50.167718
50.432905
50.965488
52.225165
55.024647
57.660224
53.965291
52.253477
51.517036
51.156032
51.103901
51.165744
51.206939
51.212059
51.18358
51.18358
51.212059
51.20694
51.165743
51.103898
51.156025
51.517021
52.253449
53.96523
57.660119
61.656696
56.654954
54.278079
53.245618
52.739812
52.624555
52.677708
52.726099
52.727128
52.698693
52.698693
52.727127
52.726097
52.677703
52.624547
52.739798
53.245592
54.278031
56.654848
61.656515
67.797844
60.81047
57.430515
55.949242
55.220499
55.002475
55.033621
55.090476
55.088219
55.060633
55.060633
55.088216
55.090471
55.03361
55.002459
55.220473
55.949198
57.430435
60.810296
67.797537
77.376018
67.296127
62.354341
60.169369
59.081948
58.700843
58.686274
58.737863
58.734133
58.708795
58.708794
58.734126
58.737851
58.686255
58.700816
59.081906
60.169299
62.354214
67.295854
77.375506
92.691637
77.559129
70.118898
66.798328
65.107572
64.459442
64.348004
64.36903
64.368195
64.348229
64.348226
64.368184
64.369009
64.347974
64.459399
65.107508
66.79822
70.118702
77.558711
92.690811
118.56134
94.223319
82.569338
77.276631
74.605228
73.453739
73.178897
73.145918
73.157525
73.149842
73.149837
73.157507
73.145885
73.178852
73.453676
74.605133
77.27647
82.569043
94.222666
118.55985
162.26538
124.00732
103.52663
94.281535
89.776462
87.837674
87.322982
87.00355
87.04677
87.064714
87.064705
87.046741
87.003499
87.322915
87.837577
89.776313
94.281282
103.52615
124.0061
162.2624
237.89302
171.28136
138.20547
122.35415
114.69453
111.36597
110.39969
109.95798
110.05988
110.1248
110.12478
110.05982
109.95789
110.39957
111.36579
114.69425
122.35367
138.20456
171.27924
237.88702
380.41305
241.72695
187.77705
161.49905
148.10782
142.17252
140.31191
139.91229
140.22181
140.45276
140.45273
140.22172
139.91214
140.31174
142.17226
148.10737
161.49822
187.7755
241.72351
380.40109
619.79287
342.99241
253.25133
211.65717
190.09807
179.94899
176.51649
176.17266
176.9671
177.60154
177.60149
176.96694
176.17244
176.51623
179.94859
190.09738
211.6559
253.24892
342.98716
619.77347
)
;

boundaryField
{
    Wall
    {
        type            zeroGradient;
    }
    frontAndBack
    {
        type            empty;
    }
    atmosphere
    {
        type            zeroGradient;
    }
}


// ************************************************************************* //
