/*--------------------------------*- C++ -*----------------------------------*\
| =========                 |                                                 |
| \\      /  F ield         | OpenFOAM: The Open Source CFD Toolbox           |
|  \\    /   O peration     | Version:  3.0.1                                 |
|   \\  /    A nd           | Web:      www.OpenFOAM.org                      |
|    \\/     M anipulation  |                                                 |
\*---------------------------------------------------------------------------*/
FoamFile
{
    version     2.0;
    format      ascii;
    class       volScalarField;
    location    "35";
    object      thermalConductivity;
}
// * * * * * * * * * * * * * * * * * * * * * * * * * * * * * * * * * * * * * //

dimensions      [0 2 -1 0 0 0 0];

internalField   nonuniform List<scalar> 
800
(
0.016244956
0.016244577
0.016244536
0.016244543
0.016244551
0.016244555
0.016244557
0.016244558
0.016244558
0.016244558
0.016244558
0.016244558
0.016244558
0.016244557
0.016244555
0.016244551
0.016244543
0.016244536
0.016244577
0.016244956
0.016256498
0.016254301
0.016253717
0.016253561
0.016253533
0.016253541
0.016253554
0.016253565
0.016253572
0.016253575
0.016253575
0.016253572
0.016253565
0.016253554
0.016253541
0.016253533
0.016253561
0.016253717
0.016254301
0.016256498
0.016279647
0.016275781
0.016274417
0.016274019
0.016273924
0.016273921
0.01627394
0.016273958
0.01627397
0.016273976
0.016273976
0.01627397
0.016273958
0.01627394
0.016273921
0.016273924
0.016274019
0.016274418
0.016275782
0.016279648
0.016307459
0.016302069
0.016299899
0.016299246
0.016299075
0.016299056
0.016299077
0.0162991
0.016299117
0.016299125
0.016299125
0.016299117
0.0162991
0.016299077
0.016299056
0.016299076
0.016299246
0.016299899
0.01630207
0.01630746
0.016336568
0.016329893
0.016326973
0.016326079
0.01632584
0.016325806
0.016325828
0.016325856
0.016325876
0.016325886
0.016325886
0.016325876
0.016325856
0.016325828
0.016325806
0.01632584
0.016326079
0.016326973
0.016329894
0.016336569
0.016364487
0.01635687
0.016353307
0.016352202
0.016351916
0.016351877
0.016351903
0.016351936
0.01635196
0.016351972
0.016351972
0.01635196
0.016351936
0.016351903
0.016351877
0.016351916
0.016352202
0.016353308
0.01635687
0.016364488
0.016389079
0.016380934
0.016376881
0.016375609
0.016375306
0.016375276
0.016375313
0.016375354
0.016375383
0.016375397
0.016375397
0.016375383
0.016375354
0.016375314
0.016375276
0.016375306
0.01637561
0.016376881
0.016380935
0.01638908
0.016408649
0.0164004
0.016396047
0.016394665
0.016394378
0.016394373
0.016394431
0.016394484
0.01639452
0.016394537
0.016394537
0.01639452
0.016394484
0.016394431
0.016394374
0.016394378
0.016394665
0.016396048
0.016400401
0.01640865
0.016422163
0.016414151
0.016409713
0.016408278
0.016408038
0.016408077
0.016408163
0.016408233
0.016408278
0.016408299
0.016408299
0.016408278
0.016408233
0.016408163
0.016408077
0.016408038
0.016408279
0.016409713
0.016414151
0.016422164
0.016429149
0.016421617
0.016417323
0.016415895
0.016415726
0.016415822
0.016415946
0.016416039
0.016416096
0.016416122
0.016416122
0.016416096
0.016416039
0.016415947
0.016415823
0.016415726
0.016415895
0.016417323
0.016421617
0.016429149
0.016429717
0.016422751
0.016418809
0.016417439
0.016417353
0.016417516
0.016417686
0.016417805
0.016417876
0.016417908
0.016417908
0.016417876
0.016417805
0.016417686
0.016417516
0.016417353
0.016417439
0.01641881
0.016422752
0.016429717
0.016422763
0.016417834
0.016414426
0.016413159
0.016413162
0.016413395
0.016413619
0.016413769
0.016413857
0.016413897
0.016413897
0.016413857
0.016413769
0.016413619
0.016413396
0.016413162
0.016413159
0.016414426
0.016417835
0.016422764
0.016408796
0.016403602
0.016401067
0.016399974
0.01640003
0.016400315
0.016400609
0.0164008
0.016400908
0.016400958
0.016400958
0.016400908
0.016400801
0.016400609
0.016400315
0.01640003
0.016399975
0.016401068
0.016403602
0.016408797
0.016388647
0.016383203
0.016381583
0.01638069
0.016380744
0.016381046
0.016381426
0.016381667
0.016381796
0.016381858
0.016381858
0.016381796
0.016381667
0.016381427
0.016381046
0.016380744
0.016380691
0.016381583
0.016383204
0.016388647
0.01636366
0.0163576
0.016356773
0.0163561
0.016356091
0.016356379
0.016356865
0.016357163
0.016357318
0.016357393
0.016357393
0.016357318
0.016357163
0.016356865
0.01635638
0.016356091
0.016356101
0.016356773
0.0163576
0.01636366
0.016334986
0.016327671
0.016327365
0.016326913
0.016326782
0.016327038
0.016327645
0.016328014
0.016328203
0.016328288
0.016328288
0.016328203
0.016328014
0.016327645
0.016327038
0.016326782
0.016326913
0.016327365
0.016327671
0.016334986
0.016303658
0.01629429
0.016294094
0.016293821
0.016293509
0.016293729
0.016294485
0.01629494
0.016295176
0.016295258
0.016295258
0.016295176
0.01629494
0.016294485
0.016293729
0.016293509
0.016293821
0.016294094
0.01629429
0.016303658
0.016270815
0.016258431
0.01625781
0.016257605
0.016257046
0.016257247
0.016258199
0.016258761
0.016259066
0.016259117
0.016259117
0.016259066
0.016258761
0.016258199
0.016257247
0.016257046
0.016257605
0.01625781
0.016258431
0.016270815
0.016237838
0.016221269
0.016219576
0.016219237
0.01621834
0.016218564
0.016219787
0.016220478
0.016220885
0.016220859
0.016220859
0.016220885
0.016220478
0.016219787
0.016218564
0.01621834
0.016219237
0.016219576
0.016221269
0.016237838
0.016206338
0.016184187
0.016180677
0.016179903
0.016178545
0.016178861
0.016180445
0.016181284
0.016181844
0.016181682
0.016181682
0.016181844
0.016181284
0.016180445
0.016178861
0.016178545
0.016179903
0.016180677
0.016184187
0.016206338
0.016178085
0.016148724
0.016142552
0.016140951
0.016138987
0.016139477
0.016141506
0.016142514
0.016143285
0.016142926
0.016142926
0.016143285
0.016142514
0.016141506
0.016139477
0.016138987
0.016140951
0.016142552
0.016148724
0.016178085
0.016154932
0.016116481
0.016106686
0.016103786
0.016101056
0.016101795
0.01610433
0.016105523
0.016106562
0.016105948
0.016105949
0.016106562
0.016105523
0.01610433
0.016101795
0.016101057
0.016103786
0.016106686
0.016116481
0.016154932
0.016138931
0.016089199
0.01607465
0.016069916
0.016066226
0.016067264
0.016070342
0.016071734
0.016073068
0.016072158
0.016072158
0.016073068
0.016071734
0.016070342
0.016067264
0.016066226
0.016069916
0.01607465
0.016089199
0.016138931
0.016132411
0.01606882
0.016048149
0.016040978
0.016036062
0.016037425
0.016041066
0.016042672
0.01604428
0.016043051
0.016043051
0.01604428
0.016042672
0.016041066
0.016037425
0.016036062
0.016040978
0.01604815
0.01606882
0.016132411
0.016138224
0.016057629
0.016029132
0.016018812
0.0160123
0.016013977
0.0160182
0.016020038
0.016021843
0.016020293
0.016020293
0.016021843
0.016020038
0.016018201
0.016013977
0.016012301
0.016018812
0.016029132
0.01605763
0.016138224
0.016160142
0.016058503
0.01602001
0.016005604
0.015997021
0.015998928
0.016003743
0.016005832
0.016007711
0.016005859
0.016005859
0.016007712
0.016005833
0.016003744
0.015998928
0.015997022
0.016005604
0.01602001
0.016058503
0.016160142
0.016203466
0.016075291
0.016023968
0.016004149
0.015992902
0.015994831
0.016000211
0.016002576
0.016004381
0.01600226
0.01600226
0.016004381
0.016002577
0.016000211
0.015994831
0.015992903
0.016004149
0.016023968
0.016075291
0.016203465
0.016275933
0.016113468
0.016045425
0.016018273
0.016003589
0.016005143
0.016010986
0.016013661
0.016015245
0.016012898
0.016012898
0.016015245
0.016013661
0.016010987
0.016005143
0.016003589
0.016018273
0.016045425
0.016113467
0.016275931
0.016389268
0.016181216
0.016090796
0.016053557
0.016034346
0.016034834
0.016040944
0.01604397
0.016045214
0.016042694
0.016042694
0.016045214
0.01604397
0.016040944
0.016034834
0.016034346
0.016053557
0.016090795
0.016181215
0.016389265
0.016561802
0.016291237
0.016169797
0.016118531
0.016093013
0.016091402
0.016097475
0.016100908
0.016101741
0.016099102
0.016099102
0.016101741
0.016100908
0.016097475
0.016091402
0.016093012
0.01611853
0.016169796
0.016291234
0.016561796
0.01682309
0.016463591
0.016297704
0.01622652
0.016191616
0.016186319
0.016192067
0.016195968
0.016196377
0.016193676
0.016193676
0.016196377
0.016195968
0.016192067
0.016186319
0.016191615
0.016226518
0.016297702
0.016463585
0.01682308
0.017222129
0.016730848
0.016498827
0.016398399
0.016349183
0.016337649
0.01634253
0.016347131
0.016347148
0.016344446
0.016344446
0.016347148
0.016347131
0.016342529
0.016337648
0.016349181
0.016398397
0.016498822
0.016730837
0.017222111
0.017842113
0.017146649
0.016813309
0.016667926
0.016596407
0.016574655
0.016577329
0.016582714
0.016582419
0.016579789
0.016579789
0.016582418
0.016582714
0.016577328
0.016574654
0.016596405
0.016667921
0.016813301
0.017146632
0.017842082
0.018825528
0.017803044
0.017308547
0.017091391
0.016983367
0.016945224
0.016943237
0.016947962
0.016947538
0.016945119
0.016945119
0.016947537
0.016947961
0.016943235
0.016945221
0.016983363
0.017091384
0.017308534
0.017803017
0.018825476
0.020441244
0.018860617
0.018100056
0.017764052
0.017593188
0.017527494
0.017515534
0.017517074
0.017516982
0.017515096
0.017515096
0.017516981
0.017517072
0.017515531
0.01752749
0.017593181
0.017764042
0.018100036
0.018860574
0.020441157
0.023314068
0.020630965
0.019397374
0.018846043
0.018570324
0.018450734
0.018421798
0.018417861
0.018419151
0.018418536
0.018418535
0.018419149
0.018417857
0.018421793
0.018450727
0.018570314
0.018846027
0.019397344
0.020630896
0.023313899
0.024
0.024
0.021675809
0.020661814
0.020176404
0.019969257
0.019914152
0.019877461
0.019882222
0.019884325
0.019884324
0.019882219
0.019877456
0.019914145
0.019969247
0.020176389
0.020661786
0.021675756
0.024
0.024
0.024
0.024
0.024
0.024
0.024
0.024
0.024
0.024
0.024
0.024
0.024
0.024
0.024
0.024
0.024
0.024
0.024
0.024
0.024
0.024
0.024
0.024
0.024
0.024
0.024
0.024
0.024
0.024
0.024
0.024
0.024
0.024
0.024
0.024
0.024
0.024
0.024
0.024
0.024
0.024
0.024
0.024
0.024
0.024
0.024
0.024
0.024
0.024
0.024
0.024
0.024
0.024
0.024
0.024
0.024
0.024
0.024
0.024
0.024
0.024
)
;

boundaryField
{
    Wall
    {
        type            calculated;
        value           uniform 0.024;
    }
    frontAndBack
    {
        type            empty;
    }
    atmosphere
    {
        type            calculated;
        value           uniform 0.024;
    }
}


// ************************************************************************* //
