/*--------------------------------*- C++ -*----------------------------------*\
| =========                 |                                                 |
| \\      /  F ield         | OpenFOAM: The Open Source CFD Toolbox           |
|  \\    /   O peration     | Version:  3.0.1                                 |
|   \\  /    A nd           | Web:      www.OpenFOAM.org                      |
|    \\/     M anipulation  |                                                 |
\*---------------------------------------------------------------------------*/
FoamFile
{
    version     2.0;
    format      ascii;
    class       volScalarField;
    location    "35";
    object      thermalDiff_foam;
}
// * * * * * * * * * * * * * * * * * * * * * * * * * * * * * * * * * * * * * //

dimensions      [0 2 -1 0 0 0 0];

internalField   nonuniform List<scalar> 
800
(
1.7332095e-07
1.7333038e-07
1.733314e-07
1.7333123e-07
1.7333104e-07
1.7333092e-07
1.7333087e-07
1.7333085e-07
1.7333085e-07
1.7333085e-07
1.7333085e-07
1.7333085e-07
1.7333085e-07
1.7333087e-07
1.7333092e-07
1.7333104e-07
1.7333123e-07
1.733314e-07
1.7333038e-07
1.7332095e-07
1.7303497e-07
1.7308929e-07
1.7310374e-07
1.7310761e-07
1.7310829e-07
1.731081e-07
1.7310777e-07
1.7310751e-07
1.7310734e-07
1.7310726e-07
1.7310726e-07
1.7310734e-07
1.731075e-07
1.7310777e-07
1.731081e-07
1.7310829e-07
1.7310761e-07
1.7310374e-07
1.7308929e-07
1.7303497e-07
1.724657e-07
1.7256036e-07
1.725938e-07
1.7260358e-07
1.726059e-07
1.7260598e-07
1.7260552e-07
1.7260508e-07
1.7260478e-07
1.7260463e-07
1.7260463e-07
1.7260478e-07
1.7260507e-07
1.7260552e-07
1.7260597e-07
1.726059e-07
1.7260357e-07
1.725938e-07
1.7256036e-07
1.7246568e-07
1.717893e-07
1.7191974e-07
1.7197236e-07
1.7198819e-07
1.7199233e-07
1.719928e-07
1.7199229e-07
1.7199173e-07
1.7199132e-07
1.7199112e-07
1.7199112e-07
1.7199132e-07
1.7199172e-07
1.7199229e-07
1.7199279e-07
1.7199233e-07
1.7198819e-07
1.7197235e-07
1.7191973e-07
1.7178928e-07
1.7109001e-07
1.7124958e-07
1.7131954e-07
1.7134098e-07
1.7134671e-07
1.7134752e-07
1.7134699e-07
1.7134633e-07
1.7134584e-07
1.713456e-07
1.713456e-07
1.7134584e-07
1.7134632e-07
1.7134698e-07
1.7134751e-07
1.713467e-07
1.7134097e-07
1.7131953e-07
1.7124957e-07
1.7108998e-07
1.7042748e-07
1.7060744e-07
1.7069182e-07
1.7071803e-07
1.7072481e-07
1.7072574e-07
1.7072511e-07
1.7072433e-07
1.7072376e-07
1.7072348e-07
1.7072348e-07
1.7072376e-07
1.7072433e-07
1.707251e-07
1.7072573e-07
1.707248e-07
1.7071802e-07
1.7069181e-07
1.7060743e-07
1.7042746e-07
1.6985041e-07
1.7004085e-07
1.7013589e-07
1.7016573e-07
1.7017285e-07
1.7017357e-07
1.7017268e-07
1.7017172e-07
1.7017104e-07
1.7017071e-07
1.7017071e-07
1.7017104e-07
1.7017171e-07
1.7017267e-07
1.7017356e-07
1.7017284e-07
1.7016572e-07
1.7013588e-07
1.7004083e-07
1.6985039e-07
1.6939549e-07
1.6958678e-07
1.6968799e-07
1.6972017e-07
1.6972686e-07
1.6972696e-07
1.6972562e-07
1.6972438e-07
1.6972354e-07
1.6972314e-07
1.6972314e-07
1.6972354e-07
1.6972437e-07
1.6972561e-07
1.6972695e-07
1.6972685e-07
1.6972016e-07
1.6968798e-07
1.6958676e-07
1.6939547e-07
1.6908352e-07
1.6926827e-07
1.6937086e-07
1.6940406e-07
1.6940963e-07
1.6940873e-07
1.6940673e-07
1.6940511e-07
1.6940406e-07
1.6940357e-07
1.6940357e-07
1.6940406e-07
1.6940511e-07
1.6940673e-07
1.6940872e-07
1.6940962e-07
1.6940405e-07
1.6937085e-07
1.6926825e-07
1.6908349e-07
1.6892297e-07
1.6909611e-07
1.6919505e-07
1.6922799e-07
1.692319e-07
1.6922967e-07
1.6922681e-07
1.6922468e-07
1.6922336e-07
1.6922275e-07
1.6922275e-07
1.6922335e-07
1.6922467e-07
1.692268e-07
1.6922966e-07
1.692319e-07
1.6922798e-07
1.6919504e-07
1.6909609e-07
1.6892295e-07
1.6890993e-07
1.6906999e-07
1.6916078e-07
1.6919237e-07
1.6919436e-07
1.691906e-07
1.6918669e-07
1.6918394e-07
1.6918229e-07
1.6918155e-07
1.6918155e-07
1.6918229e-07
1.6918394e-07
1.6918668e-07
1.6919059e-07
1.6919435e-07
1.6919236e-07
1.6916077e-07
1.6906998e-07
1.6890992e-07
1.6906971e-07
1.6918325e-07
1.6926192e-07
1.6929117e-07
1.692911e-07
1.6928571e-07
1.6928056e-07
1.6927708e-07
1.6927505e-07
1.6927413e-07
1.6927413e-07
1.6927505e-07
1.6927708e-07
1.6928055e-07
1.6928571e-07
1.6929109e-07
1.6929116e-07
1.6926191e-07
1.6918324e-07
1.690697e-07
1.6939207e-07
1.6951245e-07
1.6957128e-07
1.6959666e-07
1.6959538e-07
1.6958875e-07
1.6958193e-07
1.6957747e-07
1.6957497e-07
1.6957381e-07
1.6957381e-07
1.6957497e-07
1.6957747e-07
1.6958192e-07
1.6958874e-07
1.6959538e-07
1.6959666e-07
1.6957127e-07
1.6951244e-07
1.6939206e-07
1.698605e-07
1.6998773e-07
1.7002567e-07
1.7004657e-07
1.7004532e-07
1.7003824e-07
1.7002933e-07
1.7002371e-07
1.7002066e-07
1.7001923e-07
1.7001923e-07
1.7002066e-07
1.7002371e-07
1.7002933e-07
1.7003824e-07
1.7004532e-07
1.7004656e-07
1.7002567e-07
1.6998772e-07
1.6986049e-07
1.7044698e-07
1.7059016e-07
1.7060975e-07
1.7062566e-07
1.7062587e-07
1.7061905e-07
1.7060756e-07
1.7060051e-07
1.7059683e-07
1.7059506e-07
1.7059506e-07
1.7059683e-07
1.7060051e-07
1.7060756e-07
1.7061905e-07
1.7062587e-07
1.7062565e-07
1.7060975e-07
1.7059016e-07
1.7044697e-07
1.7112777e-07
1.713028e-07
1.7131014e-07
1.7132097e-07
1.7132413e-07
1.7131798e-07
1.7130342e-07
1.7129459e-07
1.7129006e-07
1.7128802e-07
1.7128802e-07
1.7129006e-07
1.7129459e-07
1.7130342e-07
1.7131798e-07
1.7132412e-07
1.7132097e-07
1.7131014e-07
1.713028e-07
1.7112777e-07
1.7188127e-07
1.7210855e-07
1.7211332e-07
1.7211997e-07
1.7212755e-07
1.7212219e-07
1.7210383e-07
1.7209276e-07
1.7208702e-07
1.7208502e-07
1.7208502e-07
1.7208701e-07
1.7209276e-07
1.7210383e-07
1.7212218e-07
1.7212755e-07
1.7211997e-07
1.7211332e-07
1.7210855e-07
1.7188127e-07
1.7268222e-07
1.7298721e-07
1.7300256e-07
1.7300762e-07
1.7302142e-07
1.7301645e-07
1.7299294e-07
1.7297906e-07
1.7297153e-07
1.7297028e-07
1.7297028e-07
1.7297153e-07
1.7297905e-07
1.7299294e-07
1.7301645e-07
1.7302142e-07
1.7300762e-07
1.7300256e-07
1.7298721e-07
1.7268222e-07
1.7349807e-07
1.7391245e-07
1.7395495e-07
1.7396346e-07
1.73986e-07
1.7398038e-07
1.7394965e-07
1.7393231e-07
1.7392208e-07
1.7392273e-07
1.7392273e-07
1.7392208e-07
1.7393231e-07
1.7394965e-07
1.7398038e-07
1.73986e-07
1.7396346e-07
1.7395495e-07
1.7391245e-07
1.7349807e-07
1.7428847e-07
1.748509e-07
1.7494053e-07
1.7496029e-07
1.7499504e-07
1.7498695e-07
1.7494646e-07
1.74925e-07
1.7491072e-07
1.7491483e-07
1.7491483e-07
1.7491071e-07
1.74925e-07
1.7494646e-07
1.7498695e-07
1.7499503e-07
1.7496029e-07
1.7494053e-07
1.748509e-07
1.7428846e-07
1.750068e-07
1.7576292e-07
1.7592314e-07
1.7596477e-07
1.7601589e-07
1.7600312e-07
1.7595034e-07
1.7592413e-07
1.7590409e-07
1.7591341e-07
1.7591341e-07
1.7590408e-07
1.7592413e-07
1.7595033e-07
1.7600312e-07
1.7601588e-07
1.7596477e-07
1.7592314e-07
1.7576292e-07
1.750068e-07
1.7560222e-07
1.7660479e-07
1.7686297e-07
1.7693961e-07
1.7701186e-07
1.7699231e-07
1.7692522e-07
1.768937e-07
1.7686625e-07
1.7688245e-07
1.7688245e-07
1.7686624e-07
1.7689369e-07
1.7692522e-07
1.7699231e-07
1.7701186e-07
1.7693961e-07
1.7686297e-07
1.7660479e-07
1.7560221e-07
1.7601735e-07
1.7732673e-07
1.7771537e-07
1.778424e-07
1.7794158e-07
1.7791366e-07
1.7783095e-07
1.7779358e-07
1.7775779e-07
1.777822e-07
1.7778219e-07
1.7775778e-07
1.7779357e-07
1.7783094e-07
1.7791366e-07
1.7794158e-07
1.778424e-07
1.7771537e-07
1.7732672e-07
1.7601734e-07
1.7618735e-07
1.7787184e-07
1.7842994e-07
1.786248e-07
1.7875874e-07
1.7872159e-07
1.7862241e-07
1.785787e-07
1.78535e-07
1.785684e-07
1.785684e-07
1.7853499e-07
1.7857869e-07
1.786224e-07
1.7872158e-07
1.7875873e-07
1.786248e-07
1.7842993e-07
1.7787184e-07
1.7618734e-07
1.7603574e-07
1.7817332e-07
1.7894807e-07
1.7923115e-07
1.7941045e-07
1.7936423e-07
1.7924797e-07
1.7919745e-07
1.7914788e-07
1.7919043e-07
1.7919043e-07
1.7914787e-07
1.7919744e-07
1.7924796e-07
1.7936422e-07
1.7941044e-07
1.7923114e-07
1.7894807e-07
1.7817332e-07
1.7603574e-07
1.754677e-07
1.7814973e-07
1.7919822e-07
1.795954e-07
1.7983328e-07
1.7978036e-07
1.7964689e-07
1.7958908e-07
1.7953713e-07
1.7958833e-07
1.7958833e-07
1.7953712e-07
1.7958907e-07
1.7964688e-07
1.7978035e-07
1.7983327e-07
1.7959539e-07
1.7919821e-07
1.7814973e-07
1.754677e-07
1.7436108e-07
1.776982e-07
1.7908956e-07
1.7963565e-07
1.7994778e-07
1.7989415e-07
1.7974477e-07
1.7967921e-07
1.7962923e-07
1.7968798e-07
1.7968797e-07
1.7962922e-07
1.796792e-07
1.7974476e-07
1.7989414e-07
1.7994777e-07
1.7963565e-07
1.7908956e-07
1.7769821e-07
1.7436109e-07
1.7255666e-07
1.7668408e-07
1.7850389e-07
1.7924597e-07
1.7965117e-07
1.7960816e-07
1.794467e-07
1.7937294e-07
1.793293e-07
1.7939396e-07
1.7939395e-07
1.793293e-07
1.7937293e-07
1.7944669e-07
1.7960815e-07
1.7965117e-07
1.7924597e-07
1.7850389e-07
1.766841e-07
1.7255669e-07
1.69846e-07
1.7492674e-07
1.7728423e-07
1.7828341e-07
1.7880557e-07
1.7879225e-07
1.7862572e-07
1.7854343e-07
1.7850962e-07
1.7857811e-07
1.7857811e-07
1.7850962e-07
1.7854342e-07
1.7862571e-07
1.7879224e-07
1.7880557e-07
1.7828342e-07
1.7728425e-07
1.7492678e-07
1.6984607e-07
1.659615e-07
1.7218283e-07
1.7521924e-07
1.7655091e-07
1.7722527e-07
1.772681e-07
1.7710678e-07
1.770158e-07
1.7699373e-07
1.7706364e-07
1.7706364e-07
1.7699373e-07
1.770158e-07
1.7710677e-07
1.772681e-07
1.7722528e-07
1.7655093e-07
1.7521927e-07
1.7218291e-07
1.6596163e-07
1.6057669e-07
1.6813823e-07
1.720256e-07
1.737808e-07
1.7466166e-07
1.7479651e-07
1.7465018e-07
1.7455107e-07
1.7454071e-07
1.7460929e-07
1.7460928e-07
1.7454071e-07
1.7455107e-07
1.7465018e-07
1.7479652e-07
1.7466167e-07
1.7378083e-07
1.7202567e-07
1.6813837e-07
1.6057689e-07
1.5333887e-07
1.6241375e-07
1.6734703e-07
1.6963327e-07
1.7078967e-07
1.710642e-07
1.7094786e-07
1.7083841e-07
1.7083799e-07
1.7090225e-07
1.7090225e-07
1.70838e-07
1.7083841e-07
1.7094788e-07
1.7106422e-07
1.707897e-07
1.6963333e-07
1.6734714e-07
1.6241396e-07
1.5333918e-07
1.4397206e-07
1.546262e-07
1.6076834e-07
1.6370607e-07
1.652153e-07
1.6568311e-07
1.6562537e-07
1.655093e-07
1.6551566e-07
1.6557232e-07
1.6557232e-07
1.6551567e-07
1.6550931e-07
1.6562539e-07
1.6568314e-07
1.6521535e-07
1.6370616e-07
1.6076849e-07
1.546265e-07
1.4397248e-07
1.3250225e-07
1.4450551e-07
1.5190783e-07
1.5559165e-07
1.5753761e-07
1.5824396e-07
1.5828104e-07
1.5819291e-07
1.5820081e-07
1.5824592e-07
1.5824592e-07
1.5820083e-07
1.5819293e-07
1.5828107e-07
1.5824401e-07
1.5753768e-07
1.5559177e-07
1.5190803e-07
1.4450588e-07
1.3250277e-07
1.1939063e-07
1.3215243e-07
1.4061594e-07
1.4504485e-07
1.4749355e-07
1.4847368e-07
1.4865454e-07
1.4863122e-07
1.486326e-07
1.4866118e-07
1.4866118e-07
1.4863261e-07
1.4863125e-07
1.4865459e-07
1.4847375e-07
1.4749364e-07
1.45045e-07
1.4061618e-07
1.3215285e-07
1.193912e-07
1.0544152e-07
1.1817393e-07
1.2720966e-07
1.3229729e-07
1.3515681e-07
1.364715e-07
1.3679678e-07
1.3684126e-07
1.3682668e-07
1.3683362e-07
1.3683363e-07
1.368267e-07
1.368413e-07
1.3679683e-07
1.3647157e-07
1.3515691e-07
1.3229746e-07
1.2720992e-07
1.1817437e-07
1.0544212e-07
0.00034577222
0.0003466906
1.1234436e-07
1.1798122e-07
1.2118462e-07
1.2267158e-07
1.2308031e-07
1.2335563e-07
1.2331976e-07
1.2330393e-07
1.2330394e-07
1.2331979e-07
1.2335567e-07
1.2308036e-07
1.2267165e-07
1.2118473e-07
1.1798138e-07
1.1234462e-07
0.0003466908
0.00034577233
0.00033830394
0.00033898355
0.00034017781
0.00034191693
0.00034347806
0.0003447453
0.00034570544
0.00034637574
0.00034683055
0.00034706028
0.00034706029
0.00034683058
0.00034637579
0.00034570551
0.00034474539
0.00034347817
0.00034191706
0.00034017794
0.00033898371
0.00033830408
0.00033285957
0.0003334273
0.00033437164
0.00033560327
0.00033683717
0.00033791897
0.00033879086
0.00033943816
0.00033987238
0.0003400907
0.00034009071
0.00033987241
0.0003394382
0.00033879092
0.00033791905
0.00033683726
0.00033560338
0.00033437176
0.00033342743
0.00033285971
0.00032990064
0.00033040537
0.00033122022
0.00033223881
0.00033330018
0.00033427474
0.00033508875
0.00033570992
0.00033612872
0.00033633948
0.00033633949
0.00033612875
0.00033570996
0.00033508881
0.00033427481
0.00033330027
0.00033223891
0.00033122034
0.0003304055
0.00032990077
)
;

boundaryField
{
    Wall
    {
        type            calculated;
        value           uniform 4e-05;
    }
    frontAndBack
    {
        type            empty;
    }
    atmosphere
    {
        type            calculated;
        value           uniform 4e-05;
    }
}


// ************************************************************************* //
