/*--------------------------------*- C++ -*----------------------------------*\
| =========                 |                                                 |
| \\      /  F ield         | OpenFOAM: The Open Source CFD Toolbox           |
|  \\    /   O peration     | Version:  3.0.1                                 |
|   \\  /    A nd           | Web:      www.OpenFOAM.org                      |
|    \\/     M anipulation  |                                                 |
\*---------------------------------------------------------------------------*/
FoamFile
{
    version     2.0;
    format      ascii;
    class       volScalarField;
    location    "35";
    object      thermalDiff_gas;
}
// * * * * * * * * * * * * * * * * * * * * * * * * * * * * * * * * * * * * * //

dimensions      [0 2 -1 0 0 0 0];

internalField   nonuniform List<scalar> 
800
(
0.00033813076
0.00033815087
0.00033815603
0.00033815688
0.00033815692
0.00033815688
0.00033815686
0.00033815688
0.0003381569
0.00033815691
0.00033815691
0.0003381569
0.00033815688
0.00033815686
0.00033815688
0.00033815692
0.00033815688
0.00033815603
0.00033815087
0.00033813076
0.00033782067
0.00033788778
0.00033791508
0.00033792463
0.00033792784
0.00033792874
0.00033792884
0.00033792871
0.00033792857
0.00033792849
0.00033792849
0.00033792857
0.00033792871
0.00033792884
0.00033792874
0.00033792784
0.00033792462
0.00033791507
0.00033788778
0.00033782066
0.00033732263
0.00033743302
0.00033748355
0.00033750194
0.00033750818
0.00033750993
0.00033751012
0.00033750987
0.0003375096
0.00033750945
0.00033750945
0.0003375096
0.00033750987
0.00033751012
0.00033750993
0.00033750817
0.00033750193
0.00033748355
0.000337433
0.00033732261
0.00033691671
0.00033705933
0.00033712948
0.00033715527
0.00033716396
0.0003371664
0.00033716668
0.00033716635
0.00033716599
0.00033716578
0.00033716578
0.00033716599
0.00033716635
0.00033716667
0.0003371664
0.00033716395
0.00033715526
0.00033712947
0.00033705931
0.00033691668
0.00033664735
0.00033681136
0.00033689685
0.00033692837
0.00033693886
0.00033694179
0.00033694213
0.00033694177
0.00033694137
0.00033694113
0.00033694113
0.00033694136
0.00033694177
0.00033694213
0.00033694178
0.00033693885
0.00033692836
0.00033689684
0.00033681134
0.00033664732
0.00033653563
0.00033670945
0.00033680568
0.00033684097
0.0003368524
0.00033685549
0.00033685578
0.00033685537
0.00033685493
0.00033685468
0.00033685468
0.00033685493
0.00033685537
0.00033685578
0.00033685548
0.00033685239
0.00033684096
0.00033680566
0.00033670943
0.0003365356
0.00033660876
0.00033677911
0.0003368811
0.00033691799
0.00033692937
0.00033693215
0.0003369322
0.00033693165
0.00033693115
0.00033693088
0.00033693088
0.00033693115
0.00033693165
0.0003369322
0.00033693214
0.00033692936
0.00033691797
0.00033688108
0.00033677909
0.00033660873
0.00033689702
0.00033704877
0.00033715108
0.00033718723
0.0003371975
0.00033719944
0.000337199
0.0003371982
0.00033719758
0.00033719727
0.00033719727
0.00033719758
0.0003371982
0.00033719899
0.00033719944
0.00033719749
0.00033718722
0.00033715106
0.00033704875
0.000336897
0.00033743145
0.00033754782
0.00033764434
0.00033767727
0.00033768531
0.00033768585
0.00033768461
0.00033768341
0.0003376826
0.00033768222
0.00033768222
0.0003376826
0.00033768341
0.00033768461
0.00033768584
0.0003376853
0.00033767726
0.00033764432
0.00033754781
0.00033743143
0.00033824351
0.00033830632
0.00033839008
0.00033841716
0.00033842177
0.00033842029
0.00033841792
0.00033841613
0.00033841505
0.00033841456
0.00033841456
0.00033841505
0.00033841613
0.00033841792
0.00033842028
0.00033842177
0.00033841715
0.00033839007
0.00033830631
0.00033824349
0.00033936471
0.00033935465
0.00033941767
0.00033943612
0.00033943605
0.00033943187
0.00033942798
0.0003394254
0.00033942394
0.0003394233
0.0003394233
0.00033942394
0.0003394254
0.00033942799
0.00033943187
0.00033943605
0.00033943612
0.00033941767
0.00033935464
0.0003393647
0.00034082557
0.00034072272
0.00034075594
0.00034076292
0.00034075684
0.00034074923
0.00034074341
0.00034073978
0.00034073785
0.000340737
0.000340737
0.00034073785
0.00034073979
0.00034074341
0.00034074923
0.00034075685
0.00034076293
0.00034075595
0.00034072272
0.00034082557
0.00034265607
0.00034244037
0.00034243355
0.00034242608
0.0003424125
0.00034240057
0.0003423923
0.00034238734
0.00034238478
0.00034238366
0.00034238366
0.00034238478
0.00034238734
0.0003423923
0.00034240058
0.00034241251
0.00034242608
0.00034243355
0.00034244037
0.00034265608
0.00034488636
0.00034453757
0.00034447948
0.00034445461
0.00034443187
0.00034441463
0.00034440333
0.00034439664
0.00034439325
0.00034439178
0.00034439179
0.00034439325
0.00034439664
0.00034440334
0.00034441464
0.00034443188
0.00034445462
0.00034447949
0.00034453758
0.00034488637
0.00034754737
0.00034704545
0.00034692416
0.00034687896
0.00034684499
0.00034682126
0.00034680618
0.0003467973
0.00034679278
0.00034679089
0.00034679089
0.00034679278
0.00034679731
0.00034680619
0.00034682127
0.000346845
0.00034687897
0.00034692418
0.00034704547
0.00034754739
0.00035067285
0.00034999735
0.00034980087
0.00034973232
0.00034968445
0.0003496527
0.00034963294
0.00034962137
0.00034961524
0.00034961278
0.00034961278
0.00034961524
0.00034962138
0.00034963295
0.00034965272
0.00034968447
0.00034973234
0.00034980089
0.00034999738
0.00035067287
0.00035428688
0.00035341858
0.0003531361
0.00035304147
0.0003529763
0.00035293495
0.0003529097
0.00035289492
0.00035288618
0.00035288297
0.00035288297
0.00035288618
0.00035289493
0.00035290971
0.00035293497
0.00035297632
0.00035304149
0.00035313613
0.00035341861
0.00035428692
0.00035841109
0.00035733064
0.00035695378
0.00035683039
0.00035674389
0.0003566921
0.00035666054
0.00035664184
0.00035662865
0.00035662444
0.00035662445
0.00035662866
0.00035664185
0.00035666055
0.00035669212
0.00035674391
0.00035683042
0.00035695382
0.00035733068
0.00035841114
0.00036306744
0.00036175692
0.00036127854
0.00036112376
0.00036101238
0.00036094966
0.00036091074
0.00036088742
0.00036086686
0.00036086126
0.00036086126
0.00036086687
0.00036088744
0.00036091076
0.00036094968
0.00036101241
0.0003611238
0.00036127858
0.00036175696
0.00036306749
0.00036827888
0.00036672314
0.0003661372
0.00036594923
0.00036581085
0.00036573575
0.00036568792
0.00036565963
0.00036562783
0.00036562025
0.00036562026
0.00036562784
0.00036565964
0.00036568794
0.00036573577
0.00036581088
0.00036594926
0.00036613724
0.00036672318
0.00036827893
0.00037406372
0.00037225124
0.00037155325
0.00037133211
0.00037116421
0.00037107435
0.00037101476
0.00037098103
0.00037093257
0.00037092249
0.00037092249
0.00037093258
0.00037098105
0.00037101478
0.00037107437
0.00037116424
0.00037133215
0.0003715533
0.00037225129
0.00037406377
0.00038044088
0.0003783637
0.00037755044
0.0003772996
0.00037709892
0.00037699196
0.00037691735
0.00037687818
0.00037680578
0.0003767928
0.00037679281
0.00037680579
0.0003768782
0.00037691737
0.00037699198
0.00037709895
0.00037729964
0.00037755049
0.00037836375
0.00038044093
0.00038743746
0.00038509306
0.00038416289
0.00038388624
0.00038364907
0.00038352154
0.00038342773
0.00038338343
0.00038327959
0.00038326316
0.00038326317
0.00038327959
0.00038338344
0.00038342776
0.00038352156
0.0003836491
0.00038388628
0.00038416293
0.0003850931
0.0003874375
0.0003950696
0.00039246291
0.00039141774
0.00039111958
0.00039084204
0.00039068969
0.00039057266
0.00039052437
0.0003903826
0.00039036242
0.00039036242
0.0003903826
0.00039052438
0.00039057267
0.00039068971
0.00039084207
0.00039111961
0.00039141778
0.00039246294
0.00039506963
0.00040335531
0.0004005024
0.00039934655
0.0003990327
0.00039871098
0.00039852839
0.00039838466
0.00039833472
0.00039814917
0.00039812573
0.00039812573
0.00039814917
0.00039833473
0.00039838467
0.00039852841
0.00039871101
0.00039903273
0.00039934658
0.00040050243
0.00040335533
0.00041229514
0.00040923173
0.00040797475
0.00040765365
0.00040728468
0.00040706464
0.00040689079
0.00040684278
0.00040660975
0.00040658495
0.00040658495
0.00040660975
0.00040684278
0.0004068908
0.00040706465
0.00040728469
0.00040765367
0.00040797477
0.00040923175
0.00041229515
0.00042183524
0.00041863921
0.00041730431
0.00041698903
0.00041657118
0.00041630471
0.00041609884
0.0004160584
0.00041577909
0.00041575559
0.00041575559
0.00041577908
0.00041605839
0.00041609884
0.00041630472
0.00041657119
0.00041698904
0.00041730432
0.00041863921
0.00042183524
0.00043180169
0.00042863628
0.00042727883
0.00042699663
0.00042653245
0.00042621105
0.00042597603
0.00042595226
0.00042563475
0.00042561557
0.00042561557
0.00042563474
0.00042595226
0.00042597602
0.00042621105
0.00042653245
0.00042699664
0.00042727884
0.00042863628
0.0004318017
0.00044177485
0.00043896898
0.00043771678
0.00043752696
0.00043702451
0.00043664813
0.00043639721
0.00043640322
0.00043606294
0.00043605322
0.00043605322
0.00043606293
0.00043640322
0.00043639721
0.00043664813
0.00043702452
0.00043752697
0.00043771679
0.00043896899
0.00044177491
0.00045084786
0.00044902811
0.00044817963
0.00044820082
0.00044769467
0.00044727558
0.0004470392
0.00044709387
0.00044675501
0.00044676332
0.00044676332
0.000446755
0.00044709387
0.0004470392
0.00044727559
0.00044769468
0.00044820084
0.00044817966
0.00044902818
0.00045084803
0.00045718655
0.00045752181
0.00045769729
0.00045816221
0.00045778054
0.00045736467
0.00045716591
0.00045730041
0.00045699805
0.00045703669
0.00045703669
0.00045699806
0.00045730041
0.00045716593
0.0004573647
0.00045778058
0.00045816228
0.0004576974
0.00045752203
0.00045718699
0.00045740312
0.00046184961
0.00046435202
0.00046571413
0.00046571082
0.00046543839
0.00046531248
0.00046551393
0.00046529823
0.00046538486
0.00046538487
0.00046529825
0.00046551397
0.00046531254
0.00046543848
0.00046571093
0.00046571429
0.00046435228
0.00046185015
0.00045740409
0.00044558991
0.00045753685
0.00046453915
0.00046765996
0.00046844135
0.00046862519
0.00046873814
0.00046885812
0.00046879745
0.00046895583
0.00046895585
0.0004687975
0.00046885821
0.00046873827
0.00046862536
0.00046844159
0.0004676603
0.0004645397
0.00045753798
0.00044559176
0.00041555825
0.00043793843
0.00045229019
0.00045853769
0.00046076847
0.0004620183
0.00046235701
0.00046246599
0.0004626375
0.00046289034
0.00046289038
0.0004626376
0.00046246616
0.00046235725
0.00046201863
0.00046076892
0.00045853833
0.00045229119
0.00043794038
0.00041556094
0.00037641849
0.00039880268
0.00042070441
0.00043158283
0.00043580345
0.0004383169
0.00043927224
0.00043976208
0.00044021154
0.00044055747
0.00044055752
0.00044021169
0.00043976237
0.00043927263
0.00043831742
0.00043580414
0.00043158383
0.00042070589
0.00039880504
0.00037641967
0.00035815163
0.00036075221
0.00037470188
0.0003856291
0.00039197492
0.0003946877
0.00039633667
0.00039815822
0.00039887912
0.00039926287
0.00039926293
0.0003988793
0.00039815855
0.00039633709
0.00039468826
0.00039197564
0.00038563
0.00037470288
0.00036075272
0.00035815193
0.00034577222
0.0003466906
0.00035156012
0.0003559336
0.00035866298
0.00036047669
0.00036166025
0.00036229792
0.00036282002
0.000363087
0.00036308702
0.00036282008
0.00036229801
0.00036166038
0.00036047686
0.0003586632
0.00035593387
0.00035156038
0.0003466908
0.00034577233
0.00033830394
0.00033898355
0.00034017781
0.00034191693
0.00034347806
0.0003447453
0.00034570544
0.00034637574
0.00034683055
0.00034706028
0.00034706029
0.00034683058
0.00034637579
0.00034570551
0.00034474539
0.00034347817
0.00034191706
0.00034017794
0.00033898371
0.00033830408
0.00033285957
0.0003334273
0.00033437164
0.00033560327
0.00033683717
0.00033791897
0.00033879086
0.00033943816
0.00033987238
0.0003400907
0.00034009071
0.00033987241
0.0003394382
0.00033879092
0.00033791905
0.00033683726
0.00033560338
0.00033437176
0.00033342743
0.00033285971
0.00032990064
0.00033040537
0.00033122022
0.00033223881
0.00033330018
0.00033427474
0.00033508875
0.00033570992
0.00033612872
0.00033633948
0.00033633949
0.00033612875
0.00033570996
0.00033508881
0.00033427481
0.00033330027
0.00033223891
0.00033122034
0.0003304055
0.00032990077
)
;

boundaryField
{
    Wall
    {
        type            calculated;
        value           uniform 0.1;
    }
    frontAndBack
    {
        type            empty;
    }
    atmosphere
    {
        type            calculated;
        value           uniform 0.1;
    }
}


// ************************************************************************* //
