/*--------------------------------*- C++ -*----------------------------------*\
| =========                 |                                                 |
| \\      /  F ield         | OpenFOAM: The Open Source CFD Toolbox           |
|  \\    /   O peration     | Version:  3.0.1                                 |
|   \\  /    A nd           | Web:      www.OpenFOAM.org                      |
|    \\/     M anipulation  |                                                 |
\*---------------------------------------------------------------------------*/
FoamFile
{
    version     2.0;
    format      ascii;
    class       volScalarField;
    location    "35";
    object      thermalDiffusivity;
}
// * * * * * * * * * * * * * * * * * * * * * * * * * * * * * * * * * * * * * //

dimensions      [0 2 -1 0 0 0 0];

internalField   nonuniform List<scalar> 
800
(
1.7332095e-07
1.7333038e-07
1.733314e-07
1.7333123e-07
1.7333104e-07
1.7333092e-07
1.7333087e-07
1.7333085e-07
1.7333085e-07
1.7333085e-07
1.7333085e-07
1.7333085e-07
1.7333085e-07
1.7333087e-07
1.7333092e-07
1.7333104e-07
1.7333123e-07
1.733314e-07
1.7333038e-07
1.7332095e-07
1.7303497e-07
1.7308929e-07
1.7310375e-07
1.7310761e-07
1.7310829e-07
1.7310811e-07
1.7310777e-07
1.7310751e-07
1.7310734e-07
1.7310727e-07
1.7310726e-07
1.7310734e-07
1.7310751e-07
1.7310777e-07
1.731081e-07
1.7310829e-07
1.7310761e-07
1.7310374e-07
1.7308929e-07
1.7303497e-07
1.7246923e-07
1.725637e-07
1.7259703e-07
1.7260679e-07
1.7260909e-07
1.7260917e-07
1.7260871e-07
1.7260827e-07
1.7260798e-07
1.7260784e-07
1.7260783e-07
1.7260798e-07
1.7260827e-07
1.7260871e-07
1.7260916e-07
1.7260909e-07
1.7260678e-07
1.7259702e-07
1.725637e-07
1.7246922e-07
1.7179574e-07
1.7192583e-07
1.7197831e-07
1.719941e-07
1.7199825e-07
1.719987e-07
1.719982e-07
1.7199763e-07
1.7199717e-07
1.7199698e-07
1.7199698e-07
1.7199717e-07
1.7199763e-07
1.7199819e-07
1.719987e-07
1.7199824e-07
1.7199409e-07
1.719783e-07
1.7192582e-07
1.7179572e-07
1.7110694e-07
1.7126404e-07
1.7133296e-07
1.7135404e-07
1.7135961e-07
1.7136038e-07
1.7135984e-07
1.7135918e-07
1.7135874e-07
1.7135851e-07
1.7135851e-07
1.7135874e-07
1.7135918e-07
1.7135983e-07
1.7136037e-07
1.713596e-07
1.7135403e-07
1.7133294e-07
1.7126402e-07
1.7110692e-07
1.7046336e-07
1.7063878e-07
1.7072104e-07
1.7074654e-07
1.7075305e-07
1.707539e-07
1.7075325e-07
1.7075249e-07
1.7075195e-07
1.7075168e-07
1.7075167e-07
1.7075195e-07
1.7075248e-07
1.7075325e-07
1.707539e-07
1.7075304e-07
1.7074653e-07
1.7072102e-07
1.7063876e-07
1.7046333e-07
1.6991493e-07
1.7009749e-07
1.7018848e-07
1.7021706e-07
1.7022375e-07
1.7022433e-07
1.7022341e-07
1.7022247e-07
1.7022181e-07
1.7022149e-07
1.7022149e-07
1.702218e-07
1.7022246e-07
1.702234e-07
1.7022432e-07
1.7022374e-07
1.7021705e-07
1.7018846e-07
1.7009747e-07
1.699149e-07
1.695002e-07
1.6967908e-07
1.697732e-07
1.6980321e-07
1.6980921e-07
1.698091e-07
1.6980772e-07
1.6980651e-07
1.698057e-07
1.6980533e-07
1.6980533e-07
1.698057e-07
1.6980651e-07
1.6980772e-07
1.698091e-07
1.6980921e-07
1.698032e-07
1.6977318e-07
1.6967906e-07
1.6950018e-07
1.6924206e-07
1.6940885e-07
1.6949983e-07
1.6952934e-07
1.6953387e-07
1.6953266e-07
1.6953062e-07
1.6952903e-07
1.6952803e-07
1.6952758e-07
1.6952757e-07
1.6952803e-07
1.6952903e-07
1.6953062e-07
1.6953266e-07
1.6953386e-07
1.6952933e-07
1.6949982e-07
1.6940883e-07
1.6924204e-07
1.6915154e-07
1.6930073e-07
1.6938076e-07
1.6940763e-07
1.6941011e-07
1.6940745e-07
1.6940452e-07
1.6940245e-07
1.694012e-07
1.6940064e-07
1.6940064e-07
1.694012e-07
1.6940245e-07
1.6940452e-07
1.6940744e-07
1.694101e-07
1.6940762e-07
1.6938074e-07
1.6930072e-07
1.6915153e-07
1.6922731e-07
1.6935455e-07
1.6941621e-07
1.6944003e-07
1.6944008e-07
1.6943573e-07
1.6943182e-07
1.6942921e-07
1.6942763e-07
1.6942689e-07
1.6942689e-07
1.6942763e-07
1.6942921e-07
1.6943182e-07
1.6943572e-07
1.6944008e-07
1.6944002e-07
1.694162e-07
1.6935454e-07
1.692273e-07
1.6949355e-07
1.6955684e-07
1.6960433e-07
1.6962425e-07
1.6961911e-07
1.6961344e-07
1.6960856e-07
1.6960458e-07
1.6960204e-07
1.6960158e-07
1.6960158e-07
1.6960204e-07
1.6960458e-07
1.6960856e-07
1.6961343e-07
1.6961911e-07
1.6962425e-07
1.6960432e-07
1.6955684e-07
1.6949354e-07
1.6993732e-07
1.7000153e-07
1.7004567e-07
1.7003101e-07
1.7001875e-07
1.7001256e-07
1.7000178e-07
1.6999642e-07
1.6999641e-07
1.7000087e-07
1.7000085e-07
1.699964e-07
1.6999644e-07
1.7000182e-07
1.7001258e-07
1.7001875e-07
1.7003101e-07
1.7004566e-07
1.7000153e-07
1.6993732e-07
1.7055564e-07
1.7068927e-07
1.706679e-07
1.7058816e-07
1.7060409e-07
1.7058931e-07
1.70558e-07
1.7058109e-07
1.7063598e-07
1.7057794e-07
1.7057802e-07
1.7063556e-07
1.7058072e-07
1.7055791e-07
1.7058906e-07
1.7060403e-07
1.7058816e-07
1.706679e-07
1.7068928e-07
1.7055564e-07
1.7133671e-07
1.714801e-07
1.7132391e-07
1.7131024e-07
1.7135612e-07
1.7141567e-07
1.7210928e-07
1.7172215e-07
1.7155903e-07
1.7126949e-07
1.7126961e-07
1.7155974e-07
1.7172028e-07
1.7210166e-07
1.7141531e-07
1.7135613e-07
1.7131023e-07
1.7132391e-07
1.7148011e-07
1.7133671e-07
1.7222679e-07
1.7222419e-07
1.7212797e-07
1.7216999e-07
1.7218595e-07
1.7253954e-07
1.7342004e-07
1.7305916e-07
1.722113e-07
1.7210371e-07
1.7210352e-07
1.7221263e-07
1.7306137e-07
1.7342578e-07
1.7254015e-07
1.7218604e-07
1.7217002e-07
1.7212797e-07
1.7222419e-07
1.7222679e-07
1.7331878e-07
1.7331088e-07
1.7312674e-07
1.7314088e-07
1.7346007e-07
1.7443463e-07
1.7425015e-07
1.7355309e-07
1.7300788e-07
1.7308831e-07
1.7308824e-07
1.7300905e-07
1.7355555e-07
1.7425669e-07
1.7443795e-07
1.7346058e-07
1.7314087e-07
1.7312675e-07
1.733109e-07
1.733188e-07
1.7455533e-07
1.7821185e-07
1.7509829e-07
1.752319e-07
1.7699785e-07
1.7638717e-07
1.7433233e-07
1.7422809e-07
1.739519e-07
1.7415491e-07
1.7415497e-07
1.7395168e-07
1.7422875e-07
1.7433734e-07
1.7638831e-07
1.7699976e-07
1.7523142e-07
1.7509827e-07
1.7821208e-07
1.7455535e-07
1.8024965e-07
1.8587352e-07
1.8415182e-07
1.8456846e-07
1.8418545e-07
1.7922625e-07
1.7562628e-07
1.7520827e-07
1.7527005e-07
1.7531499e-07
1.7531505e-07
1.7527048e-07
1.7520882e-07
1.7562985e-07
1.7921474e-07
1.8418224e-07
1.8456742e-07
1.8415173e-07
1.8587358e-07
1.8024968e-07
1.8646526e-07
1.8697617e-07
1.8704642e-07
1.8705991e-07
1.8163133e-07
1.7985626e-07
1.7759241e-07
1.7623069e-07
1.7648182e-07
1.765104e-07
1.7651029e-07
1.7648205e-07
1.762311e-07
1.7757261e-07
1.798637e-07
1.8163076e-07
1.8705997e-07
1.8704649e-07
1.8697624e-07
1.8646532e-07
1.8737489e-07
1.8807111e-07
1.8820812e-07
1.8574889e-07
1.7847146e-07
1.7826482e-07
1.7758744e-07
1.7746604e-07
1.7977159e-07
1.7898501e-07
1.7897598e-07
1.7976816e-07
1.7745081e-07
1.775692e-07
1.7827082e-07
1.7847125e-07
1.8574881e-07
1.8820818e-07
1.8807117e-07
1.8737495e-07
1.8818131e-07
1.8911507e-07
1.8934639e-07
1.8027228e-07
1.7900386e-07
1.7894571e-07
1.7883553e-07
1.7868171e-07
1.8194141e-07
1.8195808e-07
1.8195745e-07
1.8194204e-07
1.7867103e-07
1.7882207e-07
1.7893291e-07
1.7899209e-07
1.8027217e-07
1.8934646e-07
1.8911514e-07
1.8818137e-07
1.8882786e-07
1.9005969e-07
1.8754031e-07
1.7992751e-07
1.8000084e-07
1.8005923e-07
1.819286e-07
1.8291653e-07
1.8227258e-07
1.829446e-07
1.8294498e-07
1.8227885e-07
1.8294218e-07
1.8196311e-07
1.8005705e-07
1.7999036e-07
1.799246e-07
1.8754147e-07
1.9005975e-07
1.8882792e-07
1.8925031e-07
1.9084846e-07
1.8299245e-07
1.8123167e-07
1.8505657e-07
1.8558449e-07
1.8593642e-07
1.8589122e-07
1.827331e-07
1.8291367e-07
1.8291295e-07
1.8273413e-07
1.8589424e-07
1.8593944e-07
1.8558625e-07
1.8507839e-07
1.8123493e-07
1.8299247e-07
1.9084853e-07
1.8925038e-07
1.8937268e-07
1.9141593e-07
1.8483526e-07
1.8668925e-07
1.8687633e-07
1.8682724e-07
1.8670777e-07
1.8665683e-07
1.8388444e-07
1.8340361e-07
1.8340377e-07
1.8386871e-07
1.8665991e-07
1.8671085e-07
1.8683032e-07
1.8687942e-07
1.866921e-07
1.848342e-07
1.91416e-07
1.8937274e-07
1.8552103e-07
1.853035e-07
1.8698548e-07
1.8418605e-07
1.874603e-07
1.8740272e-07
1.8726658e-07
1.8720729e-07
1.8715149e-07
1.8389123e-07
1.8389106e-07
1.8715464e-07
1.8721043e-07
1.8726972e-07
1.8740587e-07
1.8746345e-07
1.8418617e-07
1.8698442e-07
1.8530243e-07
1.8552201e-07
1.7911132e-07
1.8241225e-07
1.870569e-07
1.8433009e-07
1.8774817e-07
1.8769016e-07
1.8753637e-07
1.874706e-07
1.8741479e-07
1.8464198e-07
1.8465925e-07
1.8741799e-07
1.8747382e-07
1.8753959e-07
1.8769338e-07
1.8775138e-07
1.8433021e-07
1.8705581e-07
1.8241239e-07
1.7911147e-07
1.7741877e-07
1.8151012e-07
1.8612973e-07
1.8405274e-07
1.8627729e-07
1.874132e-07
1.874239e-07
1.8615257e-07
1.8429581e-07
1.8586725e-07
1.8586786e-07
1.8430343e-07
1.861376e-07
1.874272e-07
1.8741737e-07
1.8626712e-07
1.8405287e-07
1.8613102e-07
1.8151027e-07
1.7741894e-07
1.7482008e-07
1.7986878e-07
1.8221176e-07
1.8320836e-07
1.8372517e-07
1.83708e-07
1.8426531e-07
1.8345721e-07
1.8341994e-07
1.8521084e-07
1.8521022e-07
1.8342006e-07
1.8345733e-07
1.8425726e-07
1.8370813e-07
1.837253e-07
1.832085e-07
1.8221191e-07
1.7986895e-07
1.7482029e-07
1.7103741e-07
1.7723776e-07
1.8026417e-07
1.8159567e-07
1.8226461e-07
1.8230312e-07
1.8213954e-07
1.8204959e-07
1.8202411e-07
1.8250043e-07
1.8249859e-07
1.8202424e-07
1.8204972e-07
1.8213968e-07
1.8230325e-07
1.8226476e-07
1.8159582e-07
1.8026435e-07
1.7723798e-07
1.7103767e-07
1.6572392e-07
1.732887e-07
1.7717755e-07
1.789375e-07
1.7981428e-07
1.7994483e-07
1.797967e-07
1.7969954e-07
1.7968621e-07
1.7975568e-07
1.7975582e-07
1.7968635e-07
1.7969967e-07
1.7979684e-07
1.7994498e-07
1.7981444e-07
1.7893768e-07
1.7717775e-07
1.7328897e-07
1.6572427e-07
1.5848885e-07
1.6761321e-07
1.7257411e-07
1.7487516e-07
1.7603165e-07
1.7630346e-07
1.7618615e-07
1.7607942e-07
1.7607705e-07
1.7614275e-07
1.7614289e-07
1.7607719e-07
1.7607956e-07
1.7618631e-07
1.7630362e-07
1.7603183e-07
1.7487536e-07
1.7257436e-07
1.6761356e-07
1.5848931e-07
1.5643063e-07
1.5977768e-07
1.6599804e-07
1.6897036e-07
1.7048845e-07
1.7095865e-07
1.7090263e-07
1.7078836e-07
1.7079452e-07
1.7085344e-07
1.7085359e-07
1.7079467e-07
1.7078851e-07
1.7090279e-07
1.7095882e-07
1.7048865e-07
1.6897059e-07
1.6599834e-07
1.5977813e-07
1.5642929e-07
2.9603594e-07
1.7549205e-07
1.5952158e-07
1.6096832e-07
1.62725e-07
1.6344572e-07
1.6348704e-07
1.6340059e-07
1.634109e-07
1.6345933e-07
1.6345947e-07
1.6341105e-07
1.6340075e-07
1.6348722e-07
1.6344591e-07
1.6272522e-07
1.609684e-07
1.5952142e-07
1.7548706e-07
2.9600162e-07
4.3918636e-06
6.1203241e-07
2.2746473e-07
1.8763552e-07
1.7789152e-07
1.7441297e-07
1.7281465e-07
1.7204787e-07
1.715576e-07
1.7140034e-07
1.7140017e-07
1.7155733e-07
1.7204744e-07
1.728141e-07
1.7441212e-07
1.7789024e-07
1.8763307e-07
2.2745659e-07
6.1195078e-07
4.3906607e-06
0.00011615534
1.2864169e-05
2.1453344e-06
9.7770823e-07
6.9739922e-07
5.9769045e-07
5.6093954e-07
5.4561278e-07
5.3479194e-07
5.2975421e-07
5.2975216e-07
5.3478641e-07
5.4560296e-07
5.6092662e-07
5.9767126e-07
6.9736651e-07
9.7763771e-07
2.1451004e-06
1.2861903e-05
0.0001161388
0.00034577222
0.0003466906
7.7224956e-05
4.0633524e-05
2.7062189e-05
2.1941072e-05
1.9821178e-05
1.8773194e-05
1.8176686e-05
1.7912477e-05
1.7912386e-05
1.8176405e-05
1.8772616e-05
1.9820423e-05
2.1939981e-05
2.7060591e-05
4.0630585e-05
7.7219359e-05
0.0003466908
0.00034577233
0.00033830394
0.00033898355
0.00034017781
0.00034191693
0.00034347806
0.0003447453
0.00034570544
0.00034637574
0.00034683055
0.00034706028
0.00034706029
0.00034683058
0.00034637579
0.00034570551
0.00034474539
0.00034347817
0.00034191706
0.00034017794
0.00033898371
0.00033830408
0.00033285957
0.0003334273
0.00033437164
0.00033560327
0.00033683717
0.00033791897
0.00033879086
0.00033943816
0.00033987238
0.0003400907
0.00034009071
0.00033987241
0.0003394382
0.00033879092
0.00033791905
0.00033683726
0.00033560338
0.00033437176
0.00033342743
0.00033285971
0.00032990064
0.00033040537
0.00033122022
0.00033223881
0.00033330018
0.00033427474
0.00033508875
0.00033570992
0.00033612872
0.00033633948
0.00033633949
0.00033612875
0.00033570996
0.00033508881
0.00033427481
0.00033330027
0.00033223891
0.00033122034
0.0003304055
0.00032990077
)
;

boundaryField
{
    Wall
    {
        type            calculated;
        value           uniform 4e-05;
    }
    frontAndBack
    {
        type            empty;
    }
    atmosphere
    {
        type            calculated;
        value           uniform 4e-05;
    }
}


// ************************************************************************* //
