/*--------------------------------*- C++ -*----------------------------------*\
| =========                 |                                                 |
| \\      /  F ield         | OpenFOAM: The Open Source CFD Toolbox           |
|  \\    /   O peration     | Version:  3.0.1                                 |
|   \\  /    A nd           | Web:      www.OpenFOAM.org                      |
|    \\/     M anipulation  |                                                 |
\*---------------------------------------------------------------------------*/
FoamFile
{
    version     2.0;
    format      ascii;
    class       volScalarField;
    location    "35";
    object      TS;
}
// * * * * * * * * * * * * * * * * * * * * * * * * * * * * * * * * * * * * * //

dimensions      [0 0 0 1 0 0 0];

internalField   nonuniform List<scalar> 
800
(
369.07695
369.08941
369.0926
369.09313
369.09315
369.09312
369.09311
369.09312
369.09313
369.09314
369.09314
369.09313
369.09312
369.09311
369.09312
369.09315
369.09313
369.09261
369.08941
369.07695
368.89237
368.93361
368.95044
368.95634
368.95833
368.9589
368.95897
368.95889
368.95881
368.95876
368.95876
368.95881
368.95889
368.95897
368.9589
368.95833
368.95634
368.95043
368.93361
368.89236
368.58824
368.65623
368.68743
368.69881
368.70268
368.70378
368.70391
368.70376
368.7036
368.7035
368.7035
368.7036
368.70376
368.70391
368.70378
368.70268
368.69881
368.68743
368.65622
368.58822
368.33995
368.42787
368.47121
368.48717
368.49257
368.4941
368.49427
368.49408
368.49386
368.49373
368.49373
368.49386
368.49408
368.49427
368.49409
368.49256
368.48717
368.4712
368.42786
368.33993
368.17567
368.27681
368.32964
368.34916
368.35567
368.35751
368.35773
368.35751
368.35726
368.35712
368.35712
368.35726
368.35751
368.35773
368.3575
368.35567
368.34915
368.32964
368.2768
368.17565
368.10829
368.21552
368.275
368.29685
368.30396
368.30588
368.30608
368.30583
368.30556
368.3054
368.3054
368.30556
368.30582
368.30607
368.30588
368.30395
368.29685
368.27499
368.21551
368.10827
368.15444
368.25956
368.3226
368.34545
368.35253
368.35427
368.35431
368.35398
368.35367
368.3535
368.3535
368.35367
368.35398
368.35431
368.35426
368.35252
368.34545
368.32259
368.25955
368.15442
368.33271
368.42637
368.4896
368.512
368.51839
368.51961
368.51934
368.51886
368.51847
368.51828
368.51828
368.51847
368.51885
368.51934
368.51961
368.51838
368.51199
368.4896
368.42636
368.33269
368.66211
368.73398
368.79361
368.81401
368.81901
368.81937
368.81861
368.81787
368.81738
368.81714
368.81714
368.81738
368.81787
368.81861
368.81936
368.81901
368.81401
368.79361
368.73397
368.66209
369.16189
369.20075
369.25249
369.26925
369.27213
369.27123
369.26977
369.26867
369.26801
369.2677
369.2677
369.268
369.26867
369.26977
369.27122
369.27213
369.26925
369.25248
369.20074
369.16188
369.85123
369.84519
369.88411
369.89552
369.89549
369.89292
369.89052
369.88893
369.88803
369.88763
369.88763
369.88803
369.88893
369.89052
369.89292
369.89549
369.89552
369.88411
369.84519
369.85122
370.74855
370.68538
370.70591
370.7102
370.70645
370.70175
370.69816
370.69593
370.69473
370.69421
370.69421
370.69473
370.69593
370.69816
370.70175
370.70645
370.7102
370.70591
370.68538
370.74855
371.87177
371.7392
371.73506
371.73039
371.722
371.71464
371.70953
371.70648
371.7049
371.70421
371.70421
371.7049
371.70648
371.70954
371.71464
371.72201
371.73039
371.73506
371.7392
371.87177
373.23869
373.02442
372.98875
372.97331
372.95927
372.94863
372.94166
372.93754
372.93545
372.93455
372.93455
372.93545
372.93754
372.94167
372.94864
372.95927
372.97332
372.98876
373.02442
373.2387
374.86739
374.5593
374.48485
374.45684
374.43589
374.42126
374.41198
374.40651
374.40373
374.40256
374.40256
374.40373
374.40651
374.41198
374.42127
374.4359
374.45685
374.48486
374.55931
374.8674
376.77734
376.36321
376.24271
376.20029
376.17083
376.15129
376.13913
376.13202
376.12826
376.12676
376.12676
376.12827
376.13202
376.13914
376.1513
376.17084
376.20031
376.24272
376.36323
376.77736
378.98201
378.45047
378.27738
378.21891
378.17891
378.15349
378.13797
378.1289
378.12359
378.12163
378.12163
378.1236
378.12891
378.13798
378.1535
378.17892
378.21893
378.2774
378.45049
378.98203
381.49291
380.83268
380.602
380.52589
380.47293
380.44112
380.42176
380.41031
380.40236
380.39979
380.39979
380.40237
380.41031
380.42177
380.44114
380.47295
380.52591
380.60202
380.8327
381.49293
384.32143
383.52217
383.22978
383.13446
383.06641
383.02794
383.00415
382.98988
382.97758
382.97417
382.97417
382.97758
382.98989
383.00416
383.02795
383.06643
383.13448
383.2298
383.5222
384.32146
387.47921
386.5324
386.17486
386.05927
385.97488
385.92895
385.89983
385.88255
385.86363
385.85903
385.85903
385.86363
385.88256
385.89984
385.92896
385.97489
386.05929
386.17488
386.53243
387.47924
390.9749
389.87432
389.44919
389.31333
389.21119
389.15641
389.12031
389.09976
389.07103
389.06493
389.06493
389.07104
389.09977
389.12033
389.15643
389.21121
389.31335
389.44922
389.87435
390.97493
394.81698
393.55864
393.06432
392.91026
392.78855
392.72357
392.6786
392.65475
392.61197
392.60413
392.60413
392.61197
392.65476
392.67862
392.72359
392.78857
392.91028
393.06435
393.55867
394.81701
399.0191
397.60217
397.03795
396.86807
396.72467
396.64753
396.59125
396.56428
396.50305
396.49315
396.49315
396.50306
396.56429
396.59126
396.64755
396.72469
396.86809
397.03798
397.6022
399.01913
403.58718
402.01525
401.38253
401.19934
401.0321
400.94037
400.87044
400.84103
400.75761
400.74546
400.74546
400.75761
400.84104
400.87044
400.94038
401.03212
401.19936
401.38255
402.01527
403.5872
408.53046
406.81325
406.11482
405.92175
405.7285
405.61909
405.53352
405.503
405.39404
405.37989
405.37989
405.39404
405.50301
405.53353
405.6191
405.72852
405.92177
406.11484
406.81327
408.53047
413.84482
412.00291
411.24411
411.0459
410.82501
410.69394
410.5909
410.56136
410.42479
410.40976
410.40976
410.42479
410.56136
410.5909
410.69395
410.82502
411.04591
411.24412
412.00292
413.84483
419.50134
417.5779
416.77132
416.57517
416.32562
416.1678
416.04621
416.02082
415.85734
415.84298
415.84298
415.85734
416.02082
416.04621
416.1678
416.32562
416.57518
416.77132
417.5779
419.50134
425.40534
423.48934
422.66475
422.48526
422.20833
422.01888
421.88032
421.86419
421.67848
421.66648
421.66648
421.67848
421.86419
421.88032
422.01888
422.20833
422.48526
422.66475
423.48933
425.40534
431.33123
429.60036
428.8261
428.69491
428.39483
428.17333
428.02505
428.02548
427.82636
427.81953
427.81953
427.82636
428.02548
428.02505
428.17333
428.39483
428.69492
428.8261
429.60036
431.33125
436.79445
435.58606
435.02134
435.00191
434.69675
434.44947
434.30799
434.33535
434.13641
434.13949
434.13949
434.13641
434.33535
434.30799
434.44948
434.69675
435.00192
435.02135
435.5861
436.79454
440.81403
440.75924
440.73656
440.95359
440.71083
440.46189
440.34013
440.41113
440.23179
440.25154
440.25154
440.23179
440.41113
440.34014
440.46191
440.71085
440.95362
440.73662
440.75936
440.81427
441.55339
443.72957
444.95465
445.65271
445.60802
445.4318
445.34842
445.45628
445.32392
445.37003
445.37003
445.32393
445.4563
445.34845
445.43184
445.60808
445.65279
444.95479
443.72986
441.55392
435.69619
442.04963
445.73972
447.39316
447.76777
447.83355
447.87543
447.93964
447.89182
447.97769
447.9777
447.89185
447.93969
447.8755
447.83364
447.7679
447.39334
445.74002
442.05025
435.69723
419.3134
431.87745
439.76192
443.168
444.33719
444.98429
445.14949
445.19996
445.28154
445.42144
445.42146
445.2816
445.20006
445.14962
444.98447
444.33743
443.16835
439.76248
431.87856
419.31499
395.73012
409.86305
422.72995
428.90946
431.24588
432.62468
433.13493
433.39072
433.63584
433.83367
433.8337
433.63593
433.39088
433.13515
432.62498
431.24627
428.91004
422.73082
409.86452
395.73103
383.42749
384.97685
395.31018
402.34473
406.25949
407.92302
408.91232
409.9372
410.36598
410.60066
410.6007
410.3661
409.93741
408.91259
407.92338
406.25996
402.34533
395.31088
384.97721
383.42771
375.38488
375.98887
379.16141
382.07495
383.7596
384.86439
385.58473
385.94823
386.26238
386.42608
386.42609
386.26241
385.94829
385.58482
384.86451
383.75975
382.07514
379.16159
375.98901
375.38496
370.68077
371.12005
371.85949
372.99614
373.9989
374.80377
375.40731
375.82082
376.10154
376.24398
376.24399
376.10156
375.82085
375.40736
374.80383
373.99898
372.99623
371.85958
371.12016
370.68086
367.24261
367.60863
368.21728
369.02267
369.82105
370.51534
371.07019
371.47774
371.75003
371.88694
371.88695
371.75004
371.47777
371.07024
370.5154
369.82112
369.02274
368.21736
367.60872
367.2427
365.36976
365.69615
366.22657
366.89398
367.5857
368.21609
368.73851
369.134
369.39943
369.5328
369.53281
369.39945
369.13403
368.73855
368.21614
367.58576
366.89405
366.22665
365.69623
365.36985
)
;

boundaryField
{
    Wall
    {
        type            zeroGradient;
    }
    frontAndBack
    {
        type            empty;
    }
    atmosphere
    {
        type            zeroGradient;
    }
}


// ************************************************************************* //
