/*--------------------------------*- C++ -*----------------------------------*\
| =========                 |                                                 |
| \\      /  F ield         | OpenFOAM: The Open Source CFD Toolbox           |
|  \\    /   O peration     | Version:  3.0.1                                 |
|   \\  /    A nd           | Web:      www.OpenFOAM.org                      |
|    \\/     M anipulation  |                                                 |
\*---------------------------------------------------------------------------*/
FoamFile
{
    version     2.0;
    format      ascii;
    class       volVectorField;
    location    "35";
    object      U;
}
// * * * * * * * * * * * * * * * * * * * * * * * * * * * * * * * * * * * * * //

dimensions      [0 1 -1 0 0 0 0];

internalField   nonuniform List<vector> 
800
(
(9.4471555e-06 0.0003708775 0)
(1.0223898e-05 0.00037671755 0)
(1.1073928e-05 0.0003811733 0)
(1.1378661e-05 0.00038436832 0)
(1.0858982e-05 0.00038648341 0)
(9.5954224e-06 0.00038778515 0)
(7.81515e-06 0.00038853611 0)
(5.7299587e-06 0.00038894325 0)
(3.4850825e-06 0.0003891469 0)
(1.1672734e-06 0.00038922989 0)
(-1.1715679e-06 0.00038922982 0)
(-3.4892982e-06 0.00038914668 0)
(-5.734018e-06 0.00038894288 0)
(-7.8189742e-06 0.0003885356 0)
(-9.5989297e-06 0.00038778449 0)
(-1.0862089e-05 0.00038648261 0)
(-1.1381294e-05 0.00038436737 0)
(-1.1076057e-05 0.00038117221 0)
(-1.0225581e-05 0.00037671635 0)
(-9.4485633e-06 0.00037087624 0)
(9.3369395e-06 0.00045646083 0)
(1.0144811e-05 0.00046356512 0)
(1.1042557e-05 0.00046894399 0)
(1.1387896e-05 0.0004727633 0)
(1.0893213e-05 0.0004752807 0)
(9.6413828e-06 0.0004768294 0)
(7.8626965e-06 0.00047772469 0)
(5.7707276e-06 0.00047821166 0)
(3.5124446e-06 0.00047845607 0)
(1.176941e-06 0.00047855592 0)
(-1.1810814e-06 0.00047855584 0)
(-3.5165084e-06 0.00047845582 0)
(-5.7746392e-06 0.00047821125 0)
(-7.8663787e-06 0.00047772411 0)
(-9.644755e-06 0.00047682866 0)
(-1.0896193e-05 0.00047527979 0)
(-1.1390412e-05 0.00047276221 0)
(-1.1044579e-05 0.00046894274 0)
(-1.0146396e-05 0.00046356375 0)
(-9.338256e-06 0.00045645939 0)
(9.1537055e-06 0.0006081236 0)
(9.9900064e-06 0.00061751403 0)
(1.0930186e-05 0.0006244957 0)
(1.1309673e-05 0.00062937986 0)
(1.0838612e-05 0.00063257565 0)
(9.605864e-06 0.0006345376 0)
(7.843344e-06 0.00063567259 0)
(5.762946e-06 0.00063629086 0)
(3.5107413e-06 0.00063660147 0)
(1.1770228e-06 0.00063672838 0)
(-1.1808134e-06 0.00063672828 0)
(-3.5144609e-06 0.00063660118 0)
(-5.7665243e-06 0.00063629037 0)
(-7.8467083e-06 0.0006356719 0)
(-9.6089377e-06 0.00063453671 0)
(-1.0841318e-05 0.00063257455 0)
(-1.1311942e-05 0.00062937854 0)
(-1.093199e-05 0.00062449417 0)
(-9.9914003e-06 0.00061751235 0)
(-9.1548488e-06 0.00060812184 0)
(9.0441225e-06 0.0008025982 0)
(9.8938623e-06 0.00081487023 0)
(1.0848948e-05 0.00082383985 0)
(1.1232734e-05 0.00083002919 0)
(1.0762529e-05 0.00083404959 0)
(9.5369266e-06 0.00083651143 0)
(7.7886758e-06 0.00083793556 0)
(5.7253826e-06 0.00083871187 0)
(3.4895208e-06 0.00083910198 0)
(1.1703772e-06 0.00083926133 0)
(-1.1736967e-06 0.00083926121 0)
(-3.4927773e-06 0.00083910163 0)
(-5.7285129e-06 0.00083871127 0)
(-7.7916138e-06 0.00083793472 0)
(-9.5396025e-06 0.00083651034 0)
(-1.0764872e-05 0.00083404824 0)
(-1.1234684e-05 0.00083002758 0)
(-1.085048e-05 0.00082383799 0)
(-9.8950246e-06 0.00081486818 0)
(-9.0450606e-06 0.00080259606 0)
(9.0135451e-06 0.0010196885 0)
(9.8681484e-06 0.0010351385 0)
(1.0820985e-05 0.0010462819 0)
(1.1188785e-05 0.001053891 0)
(1.0701012e-05 0.0010588048 0)
(9.4687958e-06 0.0010618076 0)
(7.726808e-06 0.0010635455 0)
(5.6781829e-06 0.0010644946 0)
(3.4606685e-06 0.0010649726 0)
(1.1608903e-06 0.0010651682 0)
(-1.1636884e-06 0.001065168 0)
(-3.463412e-06 0.0010649721 0)
(-5.6808169e-06 0.0010644939 0)
(-7.7292745e-06 0.0010635445 0)
(-9.4710335e-06 0.0010618063 0)
(-1.070296e-05 0.0010588032 0)
(-1.1190391e-05 0.0010538891 0)
(-1.0822229e-05 0.0010462797 0)
(-9.8690749e-06 0.0010351361 0)
(-9.0142798e-06 0.001019686 0)
(9.0300934e-06 0.0012474663 0)
(9.8892295e-06 0.0012662333 0)
(1.0837052e-05 0.0012796406 0)
(1.1183256e-05 0.0012887245 0)
(1.0669863e-05 0.0012945633 0)
(9.4219081e-06 0.0012981248 0)
(7.677835e-06 0.001300187 0)
(5.6376342e-06 0.0013013156 0)
(3.4346146e-06 0.0013018857 0)
(1.152123e-06 0.0013021197 0)
(-1.1543967e-06 0.0013021195 0)
(-3.4368422e-06 0.0013018852 0)
(-5.6397691e-06 0.0013013148 0)
(-7.6798279e-06 0.0013001859 0)
(-9.4237071e-06 0.0012981233 0)
(-1.0671417e-05 0.0012945615 0)
(-1.1184525e-05 0.0012887224 0)
(-1.083802e-05 0.0012796381 0)
(-9.8899355e-06 0.0012662306 0)
(-9.030642e-06 0.0012474635 0)
(9.077514e-06 0.0014803141 0)
(9.9430736e-06 0.0015024689 0)
(1.0888205e-05 0.0015181896 0)
(1.1214002e-05 0.0015287791 0)
(1.0673282e-05 0.0015355586 0)
(9.404691e-06 0.001539686 0)
(7.6516921e-06 0.0015420756 0)
(5.6126811e-06 0.0015433854 0)
(3.4174546e-06 0.0015440489 0)
(1.1462195e-06 0.0015443219 0)
(-1.1479905e-06 0.0015443217 0)
(-3.4191877e-06 0.0015440483 0)
(-5.614338e-06 0.0015433845 0)
(-7.6532322e-06 0.0015420743 0)
(-9.4060726e-06 0.0015396843 0)
(-1.0674465e-05 0.0015355566 0)
(-1.1214955e-05 0.0015287767 0)
(-1.0888919e-05 0.0015181869 0)
(-9.9435819e-06 0.0015024659 0)
(-9.0778993e-06 0.0014803111 0)
(9.1514041e-06 0.0017156188 0)
(1.002674e-05 0.0017412056 0)
(1.0973956e-05 0.0017592788 0)
(1.1282902e-05 0.0017714021 0)
(1.0715145e-05 0.0017791393 0)
(9.4224851e-06 0.0017838411 0)
(7.6542834e-06 0.0017865624 0)
(5.6086487e-06 0.0017880556 0)
(3.4128681e-06 0.0017888138 0)
(1.1444885e-06 0.0017891266 0)
(-1.1457867e-06 0.0017891264 0)
(-3.4141366e-06 0.0017888132 0)
(-5.6098571e-06 0.0017880546 0)
(-7.6554003e-06 0.001786561 0)
(-9.4234785e-06 0.0017838394 0)
(-1.0715986e-05 0.0017791371 0)
(-1.1283568e-05 0.0017713995 0)
(-1.0974444e-05 0.0017592759 0)
(-1.0027075e-05 0.0017412025 0)
(-9.151649e-06 0.0017156156 0)
(9.254419e-06 0.0019517164 0)
(1.0147841e-05 0.0019807712 0)
(1.110722e-05 0.0020012411 0)
(1.1404133e-05 0.002014937 0)
(1.0808075e-05 0.0020236591 0)
(9.4858062e-06 0.0020289524 0)
(7.6941522e-06 0.0020320156 0)
(5.6320139e-06 0.0020336986 0)
(3.4249477e-06 0.0020345553 0)
(1.1483341e-06 0.0020349097 0)
(-1.1491895e-06 0.0020349095 0)
(-3.4257814e-06 0.0020345547 0)
(-5.6328038e-06 0.0020336976 0)
(-7.6948757e-06 0.0020320141 0)
(-9.4864415e-06 0.0020289505 0)
(-1.0808603e-05 0.0020236569 0)
(-1.1404541e-05 0.0020149344 0)
(-1.1107507e-05 0.0020012381 0)
(-1.0148026e-05 0.001980768 0)
(-9.2545449e-06 0.0019517131 0)
(9.3953186e-06 0.0021874348 0)
(1.0323727e-05 0.0022199883 0)
(1.1313821e-05 0.002242898 0)
(1.1604293e-05 0.0022582037 0)
(1.0974331e-05 0.0022679361 0)
(9.6117916e-06 0.0022738363 0)
(7.7840473e-06 0.0022772504 0)
(5.6917264e-06 0.0022791285 0)
(3.4590539e-06 0.0022800867 0)
(1.1595483e-06 0.002280484 0)
(-1.1599878e-06 0.0022804838 0)
(-3.4594798e-06 0.002280086 0)
(-5.6921249e-06 0.0022791274 0)
(-7.784405e-06 0.0022772489 0)
(-9.6120963e-06 0.0022738343 0)
(-1.0974573e-05 0.0022679338 0)
(-1.1604467e-05 0.002258201 0)
(-1.1313929e-05 0.0022428949 0)
(-1.0323783e-05 0.002219985 0)
(-9.3953445e-06 0.0021874314 0)
(9.5846448e-06 0.002422916 0)
(1.0566883e-05 0.0024589789 0)
(1.1606953e-05 0.0024843342 0)
(1.1894464e-05 0.002501244 0)
(1.1221899e-05 0.0025119747 0)
(9.8058693e-06 0.0025184681 0)
(7.9276191e-06 0.0025222207 0)
(5.7901718e-06 0.0025242837 0)
(3.5165569e-06 0.0025253363 0)
(1.1785824e-06 0.002525773 0)
(-1.178625e-06 0.0025257728 0)
(-3.5165941e-06 0.0025253357 0)
(-5.7901986e-06 0.0025242826 0)
(-7.9276313e-06 0.0025222192 0)
(-9.805864e-06 0.0025184662 0)
(-1.1221875e-05 0.0025119723 0)
(-1.1894423e-05 0.0025012413 0)
(-1.1606901e-05 0.0024843311 0)
(-1.0566826e-05 0.0024589756 0)
(-9.5845858e-06 0.0024229126 0)
(9.8224804e-06 0.0026594651 0)
(1.0858548e-05 0.002699039 0)
(1.1947015e-05 0.002726817 0)
(1.2228851e-05 0.002745296 0)
(1.1509935e-05 0.0027569899 0)
(1.0035293e-05 0.0027640467 0)
(8.1000155e-06 0.0027681137 0)
(5.9098551e-06 0.0027703437 0)
(3.5870325e-06 0.0027714789 0)
(1.2019743e-06 0.002771949 0)
(-1.2016214e-06 0.0027719488 0)
(-3.5866831e-06 0.0027714782 0)
(-5.9095131e-06 0.0027703427 0)
(-8.0996858e-06 0.0027681122 0)
(-1.0034982e-05 0.0027640448 0)
(-1.150965e-05 0.0027569876 0)
(-1.2228601e-05 0.0027452934 0)
(-1.1946808e-05 0.002726814 0)
(-1.0858383e-05 0.0026990359 0)
(-9.8223443e-06 0.0026594618 0)
(1.0089174e-05 0.0028979336 0)
(1.1169848e-05 0.0029410219 0)
(1.2297467e-05 0.0029712207 0)
(1.2571144e-05 0.0029912606 0)
(1.180774e-05 0.0030039066 0)
(1.0275829e-05 0.0030115161 0)
(8.2828027e-06 0.003015889 0)
(6.0377106e-06 0.0030182794 0)
(3.6626455e-06 0.0030194928 0)
(1.2271083e-06 0.0030199942 0)
(-1.2263514e-06 0.003019994 0)
(-3.6619012e-06 0.0030194922 0)
(-6.0369921e-06 0.0030182784 0)
(-8.2821243e-06 0.0030158875 0)
(-1.0275206e-05 0.0030115143 0)
(-1.1807187e-05 0.0030039044 0)
(-1.2570677e-05 0.0029912581 0)
(-1.2297098e-05 0.0029712179 0)
(-1.1169576e-05 0.002941019 0)
(-1.0088964e-05 0.0028979305 0)
(1.0383238e-05 0.0031376162 0)
(1.1505454e-05 0.0031842632 0)
(1.2668859e-05 0.003216929 0)
(1.29311e-05 0.0032385686 0)
(1.2122011e-05 0.0032521941 0)
(1.053157e-05 0.0032603751 0)
(8.4783387e-06 0.0032650669 0)
(6.1750631e-06 0.0032676274 0)
(3.7440591e-06 0.0032689254 0)
(1.2541741e-06 0.0032694612 0)
(-1.2530094e-06 0.003269461 0)
(-3.7429159e-06 0.0032689248 0)
(-6.1739635e-06 0.0032676264 0)
(-8.477306e-06 0.0032650656 0)
(-1.0530628e-05 0.0032603733 0)
(-1.2121182e-05 0.003252192 0)
(-1.2930405e-05 0.0032385662 0)
(-1.2668316e-05 0.0032169263 0)
(-1.150507e-05 0.0031842604 0)
(-1.0382961e-05 0.0031376133 0)
(1.0714247e-05 0.0033769385 0)
(1.1891868e-05 0.003427201 0)
(1.310393e-05 0.0034623995 0)
(1.3351181e-05 0.0034856967 0)
(1.2486636e-05 0.0035003444 0)
(1.0827697e-05 0.0035091276 0)
(8.7048856e-06 0.0035141616 0)
(6.3345064e-06 0.0035169095 0)
(3.8386854e-06 0.0035183037 0)
(1.2855987e-06 0.0035188797 0)
(-1.2840356e-06 0.0035188795 0)
(-3.8371509e-06 0.0035183032 0)
(-6.3330305e-06 0.0035169085 0)
(-8.7034997e-06 0.0035141603 0)
(-1.0826432e-05 0.003509126 0)
(-1.2485522e-05 0.0035003424 0)
(-1.3350245e-05 0.0034856944 0)
(-1.3103199e-05 0.003462397 0)
(-1.1891366e-05 0.0034271983 0)
(-1.0713906e-05 0.0033769358 0)
(1.1089924e-05 0.0036165291 0)
(1.234855e-05 0.0036704351 0)
(1.3636081e-05 0.0037081907 0)
(1.3868567e-05 0.0037331542 0)
(1.2933758e-05 0.0037488242 0)
(1.1189496e-05 0.0037582086 0)
(8.9815692e-06 0.0037635848 0)
(6.529667e-06 0.0037665209 0)
(3.9547322e-06 0.0037680129 0)
(1.324101e-06 0.0037686299 0)
(-1.3221426e-06 0.0037686297 0)
(-3.9528086e-06 0.0037680124 0)
(-6.5278149e-06 0.0037665201 0)
(-8.9798276e-06 0.0037635836 0)
(-1.1187905e-05 0.0037582072 0)
(-1.2932355e-05 0.0037488225 0)
(-1.386739e-05 0.0037331523 0)
(-1.3635168e-05 0.0037081885 0)
(-1.2347926e-05 0.0036704327 0)
(-1.1089499e-05 0.0036165266 0)
(1.1512034e-05 0.0038590325 0)
(1.2869428e-05 0.0039166061 0)
(1.4246913e-05 0.0039568982 0)
(1.4457354e-05 0.0039834767 0)
(1.3438454e-05 0.0040001136 0)
(1.1596313e-05 0.004010053 0)
(9.2924917e-06 0.0040157363 0)
(6.7495232e-06 0.0040188357 0)
(4.0858408e-06 0.0040204101 0)
(1.3676054e-06 0.0040210606 0)
(-1.3652025e-06 0.0040210605 0)
(-4.0834841e-06 0.0040204097 0)
(-6.7472601e-06 0.0040188351 0)
(-9.290371e-06 0.0040157354 0)
(-1.1594383e-05 0.0040100519 0)
(-1.3436763e-05 0.0040001122 0)
(-1.4455949e-05 0.0039834751 0)
(-1.4245837e-05 0.0039568964 0)
(-1.2868693e-05 0.0039166041 0)
(-1.1511524e-05 0.0038590304 0)
(1.1987508e-05 0.0041053449 0)
(1.3447487e-05 0.0041666264 0)
(1.4906348e-05 0.0042094596 0)
(1.5070858e-05 0.0042376256 0)
(1.3951415e-05 0.0042551926 0)
(1.2003322e-05 0.004265654 0)
(9.6003905e-06 0.0042716181 0)
(6.9666545e-06 0.0042748622 0)
(4.2154948e-06 0.004276508 0)
(1.4105731e-06 0.0042771862 0)
(-1.4077198e-06 0.0042771861 0)
(-4.2127011e-06 0.0042765076 0)
(-6.9639797e-06 0.0042748616 0)
(-9.597894e-06 0.0042716172 0)
(-1.2001062e-05 0.004265653 0)
(-1.3949448e-05 0.0042551914 0)
(-1.5069239e-05 0.0042376241 0)
(-1.4905124e-05 0.0042094579 0)
(-1.3446659e-05 0.0041666245 0)
(-1.1986931e-05 0.004105343 0)
(1.2492045e-05 0.0043547958 0)
(1.4087937e-05 0.0044198661 0)
(1.5649268e-05 0.0044652235 0)
(1.573711e-05 0.004494921 0)
(1.4487866e-05 0.0045133613 0)
(1.2416351e-05 0.004524297 0)
(9.9059383e-06 0.0045305079 0)
(7.1805072e-06 0.0045338739 0)
(4.343352e-06 0.0045355772 0)
(1.4528157e-06 0.0045362763 0)
(-1.449557e-06 0.0045362762 0)
(-4.3401636e-06 0.0045355768 0)
(-7.1774582e-06 0.0045338733 0)
(-9.9030977e-06 0.0045305072 0)
(-1.2413787e-05 0.004524296 0)
(-1.4485644e-05 0.0045133602 0)
(-1.5735293e-05 0.0044949197 0)
(-1.5647911e-05 0.004465222 0)
(-1.4087035e-05 0.0044198645 0)
(-1.2491426e-05 0.0043547941 0)
(1.305785e-05 0.0046083259 0)
(1.4780147e-05 0.0046772392 0)
(1.640721e-05 0.0047251143 0)
(1.6381379e-05 0.0047563013 0)
(1.4984131e-05 0.0047755768 0)
(1.2783212e-05 0.0047869666 0)
(1.0168526e-05 0.0047934161 0)
(7.3624053e-06 0.0047969023 0)
(4.4529671e-06 0.0047986651 0)
(1.4892496e-06 0.0047993867 0)
(-1.4855986e-06 0.0047993866 0)
(-4.449396e-06 0.0047986648 0)
(-7.3589928e-06 0.0047969019 0)
(-1.016535e-05 0.0047934155 0)
(-1.2780351e-05 0.0047869659 0)
(-1.4981658e-05 0.004775576 0)
(-1.6379367e-05 0.0047563004 0)
(-1.640572e-05 0.0047251132 0)
(-1.4779176e-05 0.004677238 0)
(-1.3057196e-05 0.0046083247 0)
(1.3653648e-05 0.0048691378 0)
(1.555164e-05 0.0049419282 0)
(1.7270079e-05 0.0049922241 0)
(1.7090615e-05 0.0050247698 0)
(1.5516049e-05 0.0050447591 0)
(1.3167203e-05 0.0050565065 0)
(1.0438509e-05 0.0050631206 0)
(7.5501776e-06 0.0050666709 0)
(4.5682896e-06 0.0050684545 0)
(1.5279852e-06 0.005069179 0)
(-1.5239302e-06 0.0050691789 0)
(-4.5643259e-06 0.0050684544 0)
(-7.5463956e-06 0.0050666707 0)
(-1.0434996e-05 0.0050631203 0)
(-1.3164045e-05 0.0050565063 0)
(-1.5513329e-05 0.0050447588 0)
(-1.7088409e-05 0.0050247694 0)
(-1.7268457e-05 0.0049922237 0)
(-1.5550602e-05 0.0049419278 0)
(-1.3652963e-05 0.0048691373 0)
(1.4319663e-05 0.0051344394 0)
(1.6362843e-05 0.0052111952 0)
(1.8085821e-05 0.0052639422 0)
(1.7688388e-05 0.0052977959 0)
(1.5908915e-05 0.0053184254 0)
(1.3406587e-05 0.0053304601 0)
(1.0576851e-05 0.0053371758 0)
(7.6348694e-06 0.0053407359 0)
(4.6201581e-06 0.005342503 0)
(1.5459573e-06 0.0053432088 0)
(-1.5414488e-06 0.0053432088 0)
(-4.6157511e-06 0.0053425031 0)
(-7.630666e-06 0.0053407361 0)
(-1.057295e-05 0.005337176 0)
(-1.3403086e-05 0.0053304605 0)
(-1.5905902e-05 0.0053184258 0)
(-1.7685949e-05 0.0052977964 0)
(-1.8084036e-05 0.0052639427 0)
(-1.6361717e-05 0.0052111958 0)
(-1.4318935e-05 0.00513444 0)
(1.4949892e-05 0.0054098971 0)
(1.7314405e-05 0.0054905326 0)
(1.9151173e-05 0.0055459089 0)
(1.8389429e-05 0.0055811892 0)
(1.6305436e-05 0.0056023384 0)
(1.3593264e-05 0.0056145536 0)
(1.0637796e-05 0.0056213021 0)
(7.6491767e-06 0.0056248273 0)
(4.6272461e-06 0.0056265499 0)
(1.5486839e-06 0.005627223 0)
(-1.5436094e-06 0.0056272231 0)
(-4.6222861e-06 0.0056265503 0)
(-7.6444464e-06 0.005624828 0)
(-1.0633409e-05 0.005621303 0)
(-1.3589333e-05 0.0056145548 0)
(-1.6302041e-05 0.0056023398 0)
(-1.8386679e-05 0.0055811914 0)
(-1.9149181e-05 0.0055459113 0)
(-1.7313185e-05 0.0054905352 0)
(-1.4949131e-05 0.0054098996 0)
(1.5514944e-05 0.0056937165 0)
(1.8520295e-05 0.0057785725 0)
(2.0735691e-05 0.0058357433 0)
(1.9211434e-05 0.0058717463 0)
(1.6501028e-05 0.0058933856 0)
(1.3564292e-05 0.0059058814 0)
(1.0517635e-05 0.0059127853 0)
(7.5255203e-06 0.0059163851 0)
(4.5504415e-06 0.0059181466 0)
(1.5246866e-06 0.0059188302 0)
(-1.5189333e-06 0.0059188304 0)
(-4.5448127e-06 0.0059181474 0)
(-7.5201372e-06 0.0059163864 0)
(-1.0512627e-05 0.005912787 0)
(-1.3559781e-05 0.0059058836 0)
(-1.6496591e-05 0.0058933884 0)
(-1.9207679e-05 0.0058717495 0)
(-2.0733304e-05 0.0058357468 0)
(-1.8518903e-05 0.0057785762 0)
(-1.5514144e-05 0.0056937201 0)
(1.6312704e-05 0.0059991678 0)
(1.9473178e-05 0.0060881294 0)
(2.1357675e-05 0.0061464848 0)
(1.9653455e-05 0.0061826699 0)
(1.6939833e-05 0.006204319 0)
(1.3802274e-05 0.0062166585 0)
(1.0612074e-05 0.0062233442 0)
(7.5651672e-06 0.0062267265 0)
(4.5821366e-06 0.0062283228 0)
(1.5393563e-06 0.0062289092 0)
(-1.5327067e-06 0.0062289096 0)
(-4.575625e-06 0.0062283237 0)
(-7.558917e-06 0.0062267281 0)
(-1.0606217e-05 0.0062233464 0)
(-1.3796983e-05 0.0062166614 0)
(-1.6935215e-05 0.0062043225 0)
(-1.9649688e-05 0.0061826734 0)
(-2.1354982e-05 0.0061464885 0)
(-1.9471643e-05 0.0060881333 0)
(-1.6311864e-05 0.0059991715 0)
(1.7022695e-05 0.0063384855 0)
(2.0274018e-05 0.0064309935 0)
(2.1656502e-05 0.0064907526 0)
(1.9443831e-05 0.0065272526 0)
(1.644446e-05 0.0065484547 0)
(1.3139884e-05 0.0065601266 0)
(9.9467958e-06 0.0065661491 0)
(7.0306971e-06 0.0065689726 0)
(4.2548458e-06 0.0065701683 0)
(1.4318368e-06 0.00657054 0)
(-1.4244082e-06 0.0065705403 0)
(-4.2475612e-06 0.0065701693 0)
(-7.0236856e-06 0.0065689744 0)
(-9.9401932e-06 0.0065661516 0)
(-1.3133929e-05 0.0065601298 0)
(-1.6439305e-05 0.0065484586 0)
(-1.9439615e-05 0.006527257 0)
(-2.1653486e-05 0.0064907572 0)
(-2.0272364e-05 0.0064309982 0)
(-1.7021844e-05 0.0063384899 0)
(1.7548977e-05 0.0066945833 0)
(2.084948e-05 0.0067907499 0)
(2.154256e-05 0.0068520198 0)
(1.8707136e-05 0.0068888564 0)
(1.5371884e-05 0.0069098626 0)
(1.1916874e-05 0.0069210987 0)
(8.808429e-06 0.0069266543 0)
(6.1514435e-06 0.0069290783 0)
(3.720363e-06 0.0069300009 0)
(1.2539966e-06 0.0069302247 0)
(-1.2457101e-06 0.0069302249 0)
(-3.7122426e-06 0.0069300015 0)
(-6.1436124e-06 0.0069290793 0)
(-8.8010422e-06 0.0069266558 0)
(-1.191017e-05 0.0069211006 0)
(-1.5366046e-05 0.0069098648 0)
(-1.8702361e-05 0.0068888588 0)
(-2.153914e-05 0.0068520224 0)
(-2.0847662e-05 0.0067907523 0)
(-1.7548093e-05 0.006694585 0)
(1.7889372e-05 0.0070744511 0)
(2.1505638e-05 0.0071741278 0)
(2.1401257e-05 0.0072363937 0)
(1.7724798e-05 0.0072730974 0)
(1.39795e-05 0.0072933984 0)
(1.0342639e-05 0.0073037381 0)
(7.3674737e-06 0.0073084592 0)
(5.0624397e-06 0.0073102131 0)
(3.0700885e-06 0.007310684 0)
(1.0370925e-06 0.0073106718 0)
(-1.0287799e-06 0.0073106721 0)
(-3.0619663e-06 0.0073106848 0)
(-5.0546197e-06 0.0073102144 0)
(-7.3601061e-06 0.007308461 0)
(-1.0336047e-05 0.0073037404 0)
(-1.3973774e-05 0.0072934012 0)
(-1.772004e-05 0.0072731007 0)
(-2.1397846e-05 0.0072363973 0)
(-2.1503907e-05 0.0071741311 0)
(-1.7888502e-05 0.0070744534 0)
(1.7735577e-05 0.0074864687 0)
(2.1217387e-05 0.0075896023 0)
(1.9798777e-05 0.0076524683 0)
(1.5215277e-05 0.0076885447 0)
(1.1100714e-05 0.0077075105 0)
(7.4882188e-06 0.0077163549 0)
(4.9211855e-06 0.0077197785 0)
(3.2623504e-06 0.0077205316 0)
(1.9959696e-06 0.0077203343 0)
(6.76649e-07 0.0077199874 0)
(-6.6749815e-07 0.0077199879 0)
(-1.9869864e-06 0.0077203358 0)
(-3.2536673e-06 0.0077205342 0)
(-4.9130262e-06 0.0077197823 0)
(-7.4807621e-06 0.0077163594 0)
(-1.1094105e-05 0.0077075164 0)
(-1.5209754e-05 0.0076885516 0)
(-1.9794711e-05 0.0076524759 0)
(-2.1215353e-05 0.00758961 0)
(-1.7734563e-05 0.0074864753 0)
(1.6966527e-05 0.0079282395 0)
(1.995676e-05 0.0080354235 0)
(1.6654643e-05 0.0080993368 0)
(1.0997689e-05 0.0081347754 0)
(6.6136615e-06 0.0081521848 0)
(3.3181889e-06 0.008159253 0)
(1.500402e-06 0.0081611382 0)
(7.9940538e-07 0.0081607806 0)
(5.4100454e-07 0.0081598523 0)
(1.9047723e-07 0.008159158 0)
(-1.8053268e-07 0.0081591586 0)
(-5.3115288e-07 0.008159854 0)
(-7.8968305e-07 0.0081607835 0)
(-1.4915227e-06 0.0081611421 0)
(-3.3099351e-06 0.0081592583 0)
(-6.606039e-06 0.0081521915 0)
(-1.099135e-05 0.0081347833 0)
(-1.6649805e-05 0.0080993458 0)
(-1.9954415e-05 0.0080354328 0)
(-1.6965328e-05 0.0079282476 0)
(1.5414338e-05 0.0084006286 0)
(1.7182329e-05 0.00851351 0)
(1.1090975e-05 0.0085792379 0)
(4.2656926e-06 0.008614063 0)
(-7.4336105e-08 0.0086294918 0)
(-2.5877697e-06 0.0086343106 0)
(-3.1497239e-06 0.0086342707 0)
(-2.445813e-06 0.0086325857 0)
(-1.3560457e-06 0.0086308333 0)
(-4.3639841e-07 0.0086297634 0)
(4.4717022e-07 0.008629764 0)
(1.3667917e-06 0.0086308352 0)
(2.4561648e-06 0.0086325887 0)
(3.1595944e-06 0.008634275 0)
(2.5973108e-06 0.0086343167 0)
(8.2884507e-08 0.0086294992 0)
(-4.2583362e-06 0.0086140723 0)
(-1.1085005e-05 0.0085792487 0)
(-1.7179428e-05 0.0085135214 0)
(-1.5412741e-05 0.0084006383 0)
(1.2953183e-05 0.0089006916 0)
(1.2228457e-05 0.0090236839 0)
(1.9868266e-06 0.0090932955 0)
(-5.9633826e-06 0.0091277947 0)
(-9.6994775e-06 0.0091409675 0)
(-1.0656288e-05 0.009143208 0)
(-9.2407812e-06 0.0091411181 0)
(-6.5397197e-06 0.0091380101 0)
(-3.6871925e-06 0.0091354335 0)
(-1.1977e-06 0.0091340174 0)
(1.2091609e-06 0.0091340181 0)
(3.6985416e-06 0.0091354356 0)
(6.5509916e-06 0.0091380137 0)
(9.2518824e-06 0.0091411228 0)
(1.0666764e-05 0.0091432145 0)
(9.7092029e-06 0.009140976 0)
(5.9721804e-06 0.0091278054 0)
(-1.9796769e-06 0.0090933082 0)
(-1.2224973e-05 0.0090236995 0)
(-1.2950707e-05 0.0089007058 0)
(9.5672055e-06 0.009417908 0)
(4.6946576e-06 0.0095605607 0)
(-1.210027e-05 0.0096381008 0)
(-2.0905635e-05 0.0096732855 0)
(-2.286954e-05 0.0096847416 0)
(-2.0976574e-05 0.0096847192 0)
(-1.6610844e-05 0.0096809923 0)
(-1.1339817e-05 0.0096767919 0)
(-6.341199e-06 0.0096736457 0)
(-2.0465275e-06 0.0096720261 0)
(2.0589841e-06 0.0096720269 0)
(6.3537148e-06 0.0096736478 0)
(1.1351546e-05 0.0096767957 0)
(1.6622237e-05 0.0096809976 0)
(2.0988517e-05 0.0096847266 0)
(2.2880648e-05 0.0096847508 0)
(2.0915456e-05 0.009673298 0)
(1.2110489e-05 0.0096381172 0)
(-4.6882097e-06 0.0095605799 0)
(-9.5629086e-06 0.0094179275 0)
(4.5677746e-06 0.0099307085 0)
(-5.9050165e-06 0.010110022 0)
(-3.2480829e-05 0.01020099 0)
(-4.0998473e-05 0.010239398 0)
(-3.9322223e-05 0.010251679 0)
(-3.2962845e-05 0.010251652 0)
(-2.4438662e-05 0.010247891 0)
(-1.6128311e-05 0.010243236 0)
(-8.8999904e-06 0.010240027 0)
(-2.8524516e-06 0.010238455 0)
(2.8653688e-06 0.010238456 0)
(8.912987e-06 0.01024003 0)
(1.6141165e-05 0.01024324 0)
(2.4451644e-05 0.010247897 0)
(3.2975226e-05 0.01025166 0)
(3.9334424e-05 0.01025169 0)
(4.1011403e-05 0.010239413 0)
(3.2492371e-05 0.010201008 0)
(5.9142524e-06 0.010110049 0)
(-4.5591093e-06 0.0099307417 0)
(-4.6547259e-06 0.010448634 0)
(-2.1914361e-05 0.010650522 0)
(-6.050144e-05 0.010755695 0)
(-6.4836841e-05 0.010803517 0)
(-5.643358e-05 0.010821103 0)
(-4.4038817e-05 0.010826728 0)
(-3.1162201e-05 0.010825639 0)
(-2.0195884e-05 0.010821305 0)
(-1.0912944e-05 0.010818577 0)
(-3.4679051e-06 0.010817264 0)
(3.4817642e-06 0.010817265 0)
(1.0926795e-05 0.01081858 0)
(2.0209507e-05 0.010821309 0)
(3.1175978e-05 0.010825646 0)
(4.4052977e-05 0.010826735 0)
(5.6446982e-05 0.010821115 0)
(6.4849457e-05 0.010803533 0)
(6.0518389e-05 0.010755718 0)
(2.193263e-05 0.010650554 0)
(4.6677106e-06 0.010448675 0)
(-6.4310892e-05 0.010917591 0)
(-9.1906178e-05 0.011177719 0)
(-9.927813e-05 0.011280035 0)
(-8.8465019e-05 0.011338609 0)
(-6.9934981e-05 0.011367908 0)
(-5.0213329e-05 0.011381459 0)
(-3.580908e-05 0.011385284 0)
(-2.3477473e-05 0.011388217 0)
(-1.2286267e-05 0.011387321 0)
(-3.8796416e-06 0.011386413 0)
(3.8938707e-06 0.011386414 0)
(1.2300328e-05 0.011387324 0)
(2.3491579e-05 0.011388221 0)
(3.5823175e-05 0.01138529 0)
(5.02277e-05 0.011381466 0)
(6.995061e-05 0.011367917 0)
(8.8481104e-05 0.01133862 0)
(9.9294173e-05 0.011280052 0)
(9.1918348e-05 0.011177747 0)
(6.4318303e-05 0.010917638 0)
(1.1724686e-05 0.011415744 0)
(-0.00015093758 0.011606803 0)
(-0.00017152486 0.011750692 0)
(-0.00011826202 0.011851896 0)
(-8.2862866e-05 0.011910761 0)
(-5.5237499e-05 0.011938009 0)
(-3.3900523e-05 0.01194935 0)
(-2.0302947e-05 0.011955518 0)
(-1.2514612e-05 0.011956333 0)
(-4.169166e-06 0.011956127 0)
(4.18431e-06 0.011956128 0)
(1.2529181e-05 0.011956336 0)
(2.0316911e-05 0.011955522 0)
(3.391372e-05 0.011949356 0)
(5.5250423e-05 0.011938016 0)
(8.2874598e-05 0.011910769 0)
(0.00011827191 0.011851906 0)
(0.00017154088 0.011750707 0)
(0.00015095998 0.01160683 0)
(-1.1688857e-05 0.011415817 0)
(0.00086666205 0.011021225 0)
(0.00032829669 0.011998181 0)
(2.1939357e-05 0.012243619 0)
(-4.2966429e-05 0.012362675 0)
(-5.3944438e-05 0.012418856 0)
(-4.180581e-05 0.012445727 0)
(-2.7805318e-05 0.012457861 0)
(-1.7873132e-05 0.012454332 0)
(-1.0825015e-05 0.012453014 0)
(-3.6404753e-06 0.012452393 0)
(3.6555982e-06 0.012452393 0)
(1.0839241e-05 0.012453015 0)
(1.7887389e-05 0.012454335 0)
(2.7818497e-05 0.012457865 0)
(4.1817372e-05 0.012445732 0)
(5.3956387e-05 0.012418864 0)
(4.2979236e-05 0.012362688 0)
(-2.1918401e-05 0.012243644 0)
(-0.00032825106 0.011998239 0)
(-0.00086659559 0.011021424 0)
(0.0011565127 0.0094492427 0)
(0.0015698861 0.012139765 0)
(0.00095927809 0.012367374 0)
(0.00047462716 0.012412226 0)
(0.00023155706 0.012486405 0)
(0.00013516455 0.012549961 0)
(8.6634405e-05 0.012587463 0)
(5.3794948e-05 0.012600081 0)
(2.9399146e-05 0.012605587 0)
(9.4868385e-06 0.012607789 0)
(-9.4721857e-06 0.012607792 0)
(-2.9384607e-05 0.012605595 0)
(-5.3780524e-05 0.012600098 0)
(-8.6619511e-05 0.012587481 0)
(-0.0001351461 0.01254999 0)
(-0.0002315314 0.012486442 0)
(-0.00047459165 0.012412262 0)
(-0.00095922098 0.012367409 0)
(-0.0015698384 0.012139835 0)
(-0.0011565124 0.0094494346 0)
(0.00081583827 0.0075679822 0)
(0.00161367 0.011617676 0)
(0.0016320588 0.012462623 0)
(0.0013573568 0.012570174 0)
(0.0010133905 0.012599563 0)
(0.00073130487 0.012595833 0)
(0.00051423902 0.012570073 0)
(0.0003371333 0.012540181 0)
(0.00019082683 0.012513271 0)
(6.2592364e-05 0.012497482 0)
(-6.258067e-05 0.012497483 0)
(-0.00019081453 0.012513274 0)
(-0.00033711799 0.012540185 0)
(-0.00051421964 0.012570081 0)
(-0.00073127888 0.012595845 0)
(-0.0010133551 0.012599576 0)
(-0.0013573168 0.01257019 0)
(-0.0016320074 0.012462651 0)
(-0.0016136282 0.011617746 0)
(-0.00081584027 0.0075681901 0)
)
;

boundaryField
{
    Wall
    {
        type            fixedValue;
        value           uniform (0 0 0);
    }
    frontAndBack
    {
        type            empty;
    }
    atmosphere
    {
        type            pressureInletOutletVelocity;
        value           nonuniform List<vector> 
20
(
(0.00081583827 0.0075679822 0)
(0.00161367 0.011617676 0)
(0.0016320588 0.012462623 0)
(0.0013573568 0.012570174 0)
(0.0010133905 0.012599563 0)
(0.00073130487 0.012595833 0)
(0.00051423902 0.012570073 0)
(0.0003371333 0.012540181 0)
(0.00019082683 0.012513271 0)
(6.2592364e-05 0.012497482 0)
(-6.258067e-05 0.012497483 0)
(-0.00019081453 0.012513274 0)
(-0.00033711799 0.012540185 0)
(-0.00051421964 0.012570081 0)
(-0.00073127888 0.012595845 0)
(-0.0010133551 0.012599576 0)
(-0.0013573168 0.01257019 0)
(-0.0016320074 0.012462651 0)
(-0.0016136282 0.011617746 0)
(-0.00081584027 0.0075681901 0)
)
;
    }
}


// ************************************************************************* //
