/*--------------------------------*- C++ -*----------------------------------*\
| =========                 |                                                 |
| \\      /  F ield         | OpenFOAM: The Open Source CFD Toolbox           |
|  \\    /   O peration     | Version:  3.0.1                                 |
|   \\  /    A nd           | Web:      www.OpenFOAM.org                      |
|    \\/     M anipulation  |                                                 |
\*---------------------------------------------------------------------------*/
FoamFile
{
    version     2.0;
    format      ascii;
    class       volScalarField;
    location    "35";
    object      wBA_l_0;
}
// * * * * * * * * * * * * * * * * * * * * * * * * * * * * * * * * * * * * * //

dimensions      [0 0 0 0 0 0 0];

internalField   nonuniform List<scalar> 
800
(
0.039001865
0.039000784
0.038998727
0.038997652
0.038997091
0.038996801
0.038996647
0.038996563
0.038996519
0.038996501
0.038996501
0.038996519
0.038996563
0.038996647
0.038996801
0.038997092
0.038997652
0.038998727
0.039000784
0.039001865
0.039499808
0.039481527
0.039475278
0.039473188
0.03947253
0.039472349
0.039472307
0.039472298
0.039472294
0.039472292
0.039472292
0.039472294
0.039472298
0.039472307
0.039472349
0.039472531
0.039473189
0.039475279
0.039481528
0.03949981
0.039792251
0.039765019
0.039755408
0.039752403
0.039751489
0.039751228
0.039751149
0.039751113
0.03975109
0.039751077
0.039751077
0.03975109
0.039751114
0.03975115
0.039751229
0.03975149
0.039752404
0.03975541
0.03976502
0.039792254
0.039937625
0.039907204
0.039896384
0.039893248
0.039892351
0.039892095
0.039891995
0.039891931
0.039891883
0.039891857
0.039891857
0.039891883
0.039891931
0.039891995
0.039892095
0.039892352
0.039893249
0.039896385
0.039907206
0.039937627
0.039957671
0.039930055
0.039919963
0.039917429
0.039916847
0.039916703
0.039916613
0.039916521
0.039916442
0.039916398
0.039916398
0.039916442
0.039916521
0.039916613
0.039916703
0.039916847
0.039917429
0.039919963
0.039930056
0.039957672
0.039861229
0.039841861
0.039834194
0.039832922
0.039832941
0.039833027
0.039832988
0.039832883
0.039832774
0.039832711
0.039832711
0.039832774
0.039832882
0.039832988
0.039833026
0.039832941
0.039832921
0.039834193
0.03984186
0.039861228
0.039654819
0.039648597
0.039644848
0.039645378
0.039646222
0.039646632
0.039646686
0.039646583
0.039646451
0.039646371
0.03964637
0.03964645
0.039646582
0.039646685
0.03964663
0.03964622
0.039645377
0.039644846
0.039648596
0.039654816
0.039346926
0.039358092
0.039359586
0.039362356
0.039364186
0.03936498
0.039365149
0.039365055
0.039364902
0.039364805
0.039364805
0.039364901
0.039365054
0.039365147
0.039364978
0.039364183
0.039362353
0.039359583
0.039358089
0.039346922
0.038948351
0.038980304
0.038988162
0.038993501
0.038996414
0.038997622
0.038997912
0.03899783
0.038997655
0.038997541
0.038997541
0.038997654
0.038997829
0.03899791
0.038997619
0.038996411
0.038993497
0.038988158
0.038980299
0.038948346
0.038470637
0.038526114
0.03854134
0.038549512
0.038553579
0.038555223
0.03855564
0.038555574
0.038555379
0.03855525
0.03855525
0.038555378
0.038555573
0.038555638
0.03855522
0.038553575
0.038549507
0.038541335
0.038526108
0.03847063
0.037927328
0.038008485
0.038031751
0.038042851
0.038048057
0.038050099
0.0380506
0.038050521
0.038050287
0.038050133
0.038050133
0.038050286
0.038050519
0.038050597
0.038050095
0.038048052
0.038042845
0.038031745
0.038008479
0.03792732
0.037324027
0.03743831
0.037470482
0.0374847
0.037491131
0.03749361
0.0374942
0.037494116
0.03749385
0.037493674
0.037493674
0.037493848
0.037494113
0.037494196
0.037493605
0.037491126
0.037484694
0.037470475
0.037438303
0.037324018
0.036671978
0.036812604
0.036855004
0.036872436
0.03687994
0.036882754
0.036883404
0.036883297
0.036882989
0.036882784
0.036882783
0.036882987
0.036883294
0.036883399
0.036882749
0.036879934
0.036872429
0.036854996
0.036812596
0.036671969
0.035982171
0.036151475
0.036204751
0.036225418
0.036233864
0.036236885
0.036237577
0.036237418
0.036237056
0.036236813
0.036236813
0.036237055
0.036237415
0.036237573
0.03623688
0.036233858
0.03622541
0.036204743
0.036151466
0.035982161
0.035264287
0.035464021
0.035528651
0.035552668
0.035561987
0.035565141
0.03556586
0.03556563
0.035565212
0.035564931
0.035564931
0.03556521
0.035565627
0.035565856
0.035565136
0.035561981
0.035552661
0.035528643
0.035464012
0.035264278
0.034528161
0.0347598
0.034836372
0.034863887
0.034874054
0.03487728
0.034877943
0.034877602
0.034877111
0.03487679
0.034876789
0.034877109
0.034877599
0.034877939
0.034877274
0.034874048
0.03486388
0.034836364
0.034759792
0.034528152
0.033776661
0.034042037
0.034131403
0.03416284
0.034173989
0.034177293
0.034177818
0.034177349
0.034176779
0.034176423
0.034176422
0.034176777
0.034177345
0.034177813
0.034177288
0.034173982
0.034162833
0.034131395
0.034042028
0.033776652
0.033013579
0.033314518
0.033417874
0.033453762
0.033466101
0.033469478
0.033469784
0.03346917
0.033468516
0.033468126
0.033468125
0.033468514
0.033469167
0.033469779
0.033469473
0.033466095
0.033453755
0.033417866
0.03331451
0.033013571
0.032241605
0.032580571
0.032699308
0.032740276
0.032754007
0.032757394
0.03275737
0.032756547
0.032755774
0.032755329
0.032755328
0.032755772
0.032756544
0.032757365
0.032757389
0.032754001
0.032740269
0.0326993
0.032580563
0.032241597
0.031463215
0.031842761
0.031978971
0.032025994
0.032041453
0.032044865
0.032044452
0.032043368
0.032042461
0.032041938
0.032041937
0.032042459
0.032043365
0.032044448
0.03204486
0.032041448
0.032025988
0.031978964
0.031842755
0.031463209
0.030676576
0.031100104
0.031256324
0.031310645
0.031328243
0.031331711
0.031330837
0.031329403
0.031328339
0.031327704
0.031327704
0.031328337
0.0313294
0.031330833
0.031331706
0.031328238
0.03131064
0.031256318
0.031100098
0.03067657
0.029884928
0.030355517
0.030534955
0.030598205
0.030618509
0.030622112
0.030620694
0.030618801
0.030617551
0.030616769
0.030616768
0.03061755
0.030618798
0.03062069
0.030622108
0.030618504
0.0305982
0.03053495
0.030355512
0.029884924
0.02907788
0.029600471
0.029807136
0.029881372
0.029905277
0.029909225
0.029907194
0.029904712
0.029903234
0.029902262
0.029902261
0.029903232
0.029904709
0.029907191
0.029909221
0.029905273
0.029881367
0.029807131
0.029600467
0.029077877
0.028265789
0.028844605
0.029084615
0.029173456
0.029201744
0.029206042
0.029203096
0.029199692
0.029197777
0.029196509
0.029196508
0.029197775
0.02919969
0.029203093
0.029206039
0.02920174
0.029173453
0.029084612
0.028844603
0.028265788
0.027419396
0.028061763
0.028339652
0.02844559
0.028480724
0.028486488
0.028483104
0.028479001
0.028476823
0.028475354
0.028475354
0.028476822
0.028478999
0.028483102
0.028486486
0.028480721
0.028445588
0.02833965
0.028061762
0.027419397
0.026557267
0.027270637
0.027594251
0.027722401
0.027765861
0.027773185
0.027768834
0.027763402
0.02776048
0.027758575
0.027758574
0.027760479
0.0277634
0.027768832
0.027773183
0.027765859
0.0277224
0.027594251
0.027270638
0.02655727
0.025660896
0.026454541
0.026832944
0.026989112
0.02704405
0.027054131
0.027048996
0.027042074
0.027038248
0.027035824
0.027035824
0.027038247
0.027042072
0.027048994
0.02705413
0.027044049
0.026989112
0.026832945
0.026454544
0.025660902
0.024719137
0.025604426
0.026048854
0.026240481
0.026310983
0.026325352
0.026319619
0.026310913
0.026305884
0.026302776
0.026302775
0.026305883
0.026310911
0.026319618
0.026325351
0.026310983
0.026240482
0.026048856
0.025604433
0.024719147
0.023717501
0.024708369
0.025232617
0.025469228
0.025560748
0.02558163
0.025575694
0.025564858
0.025558229
0.02555419
0.02555419
0.025558228
0.025564857
0.025575694
0.02558163
0.025560749
0.025469231
0.025232622
0.024708379
0.023717516
0.022637587
0.023751008
0.024372237
0.024666197
0.024786021
0.024816761
0.024811512
0.024798212
0.024789477
0.024784169
0.024784168
0.024789476
0.024798211
0.024811512
0.024816762
0.024786023
0.024666201
0.024372245
0.023751023
0.022637609
0.021456087
0.022712385
0.023451861
0.023819254
0.023977434
0.024022967
0.024019991
0.02400413
0.023992645
0.023985602
0.023985602
0.023992645
0.02400413
0.024019991
0.024022969
0.023977438
0.02381926
0.023451873
0.022712407
0.021456118
0.02014431
0.021566393
0.022450557
0.022912244
0.023123099
0.023190876
0.023192656
0.023174523
0.023159466
0.023150041
0.023150041
0.023159465
0.023174523
0.023192657
0.023190879
0.023123104
0.022912253
0.022450573
0.021566424
0.020144354
0.018665851
0.020279568
0.021340098
0.0219243
0.02220787
0.022309423
0.022320775
0.022300122
0.022280456
0.022267741
0.022267741
0.022280455
0.022300122
0.022320777
0.022309426
0.022207876
0.021924311
0.02134012
0.020279612
0.018665915
0.016976282
0.018806406
0.020083183
0.020827604
0.021212099
0.021366327
0.021393877
0.021371044
0.021345508
0.021328206
0.021328205
0.021345508
0.021371045
0.02139388
0.021366331
0.021212107
0.02082762
0.020083213
0.018806463
0.01697637
0.014984545
0.017083563
0.018628301
0.019583975
0.020110122
0.020343311
0.02039984
0.020377936
0.020344945
0.02032115
0.02032115
0.020344946
0.020377937
0.020399843
0.020343317
0.020110133
0.019583995
0.018628339
0.017083634
0.014984667
0.012651174
0.014971233
0.016872867
0.018117617
0.018854639
0.019210044
0.019319729
0.019304901
0.01926318
0.019230205
0.019230205
0.019263182
0.019304904
0.019319734
0.019210053
0.018854653
0.018117644
0.016872918
0.014971329
0.01265132
0.0099657671
0.012489911
0.014692961
0.016292544
0.017314989
0.017852562
0.018052862
0.018063916
0.018012503
0.017966362
0.017966363
0.018012505
0.01806392
0.018052868
0.017852572
0.017315007
0.016292577
0.014693021
0.012490028
0.0099659634
0.0067677518
0.0095894333
0.012223541
0.014298542
0.015748615
0.016577681
0.016933067
0.01698388
0.016919074
0.016850596
0.016850596
0.016919076
0.016983883
0.016933072
0.016577691
0.015748644
0.014298588
0.01222362
0.009589568
0.0067679672
0.0036665448
0.0067905572
0.0094898456
0.011838857
0.013667799
0.0148619
0.015450428
0.015595493
0.015531269
0.015438518
0.01543852
0.015531275
0.015595504
0.015450441
0.014861924
0.013667835
0.011838918
0.0094899341
0.0067906797
0.0036667275
0.0014713697
0.0045148666
0.0071484508
0.0095562828
0.011621292
0.013107347
0.013923859
0.014171289
0.014107894
0.013982935
0.013982936
0.014107899
0.014171296
0.013923868
0.013107366
0.011621329
0.0095563466
0.0071485349
0.0045149656
0.0014714818
)
;

boundaryField
{
    Wall
    {
        type            zeroGradient;
    }
    frontAndBack
    {
        type            empty;
    }
    atmosphere
    {
        type            zeroGradient;
    }
}


// ************************************************************************* //
