/*--------------------------------*- C++ -*----------------------------------*\
| =========                 |                                                 |
| \\      /  F ield         | OpenFOAM: The Open Source CFD Toolbox           |
|  \\    /   O peration     | Version:  3.0.1                                 |
|   \\  /    A nd           | Web:      www.OpenFOAM.org                      |
|    \\/     M anipulation  |                                                 |
\*---------------------------------------------------------------------------*/
FoamFile
{
    version     2.0;
    format      ascii;
    class       volScalarField;
    location    "35";
    object      wBA_l;
}
// * * * * * * * * * * * * * * * * * * * * * * * * * * * * * * * * * * * * * //

dimensions      [0 0 0 0 0 0 0];

internalField   nonuniform List<scalar> 
800
(
0.038949487
0.038948408
0.038946343
0.038945256
0.038944686
0.038944389
0.038944231
0.038944145
0.038944101
0.038944082
0.038944082
0.038944101
0.038944145
0.038944231
0.038944389
0.038944686
0.038945256
0.038946343
0.038948409
0.038949487
0.03944596
0.039427763
0.039421521
0.039419421
0.039418752
0.039418564
0.039418519
0.039418509
0.039418504
0.039418502
0.039418502
0.039418504
0.039418509
0.03941852
0.039418564
0.039418753
0.039419422
0.039421522
0.039427764
0.039445961
0.039738693
0.039711553
0.039701958
0.039698947
0.039698025
0.03969776
0.039697679
0.039697642
0.039697619
0.039697606
0.039697606
0.039697619
0.039697642
0.039697679
0.03969776
0.039698026
0.039698948
0.039701959
0.039711554
0.039738696
0.039884698
0.039854341
0.039843529
0.039840383
0.039839478
0.039839218
0.039839117
0.039839053
0.039839005
0.03983898
0.039838979
0.039839005
0.039839053
0.039839117
0.039839218
0.039839479
0.039840384
0.03984353
0.039854343
0.0398847
0.039905997
0.039878384
0.039868283
0.039865734
0.039865143
0.039864997
0.039864906
0.039864815
0.039864736
0.039864693
0.039864693
0.039864736
0.039864815
0.039864906
0.039864997
0.039865143
0.039865735
0.039868283
0.039878385
0.039905998
0.03981157
0.039792117
0.039784421
0.039783128
0.039783137
0.03978322
0.039783182
0.039783078
0.039782971
0.039782909
0.039782909
0.039782971
0.039783078
0.039783182
0.039783219
0.039783136
0.039783127
0.03978442
0.039792117
0.039811569
0.039607914
0.039601501
0.039597698
0.039598201
0.039599034
0.039599443
0.039599499
0.039599399
0.039599269
0.03959919
0.03959919
0.039599268
0.039599398
0.039599498
0.039599442
0.039599033
0.0395982
0.039597696
0.039601499
0.039607911
0.039303395
0.039314247
0.03931566
0.039318398
0.039320218
0.039321014
0.039321187
0.039321098
0.039320947
0.039320852
0.039320852
0.039320947
0.039321097
0.039321185
0.039321012
0.039320216
0.039318396
0.039315657
0.039314243
0.039303391
0.038908664
0.038940169
0.038947918
0.038953221
0.038956128
0.038957341
0.038957638
0.038957562
0.03895739
0.038957279
0.038957279
0.03895739
0.038957561
0.038957636
0.038957338
0.038956125
0.038953218
0.038947914
0.038940164
0.038908659
0.038435149
0.038490044
0.03850513
0.038513264
0.038517328
0.03851898
0.038519408
0.03851935
0.03851916
0.038519033
0.038519033
0.038519158
0.038519348
0.038519405
0.038518977
0.038517324
0.038513259
0.038505125
0.038490038
0.038435142
0.037896305
0.037976734
0.037999826
0.038010886
0.038016092
0.038018147
0.038018662
0.038018593
0.038018365
0.038018214
0.038018214
0.038018364
0.03801859
0.038018658
0.038018143
0.038016087
0.03801088
0.037999819
0.037976727
0.037896297
0.037297598
0.037411077
0.037443033
0.037457207
0.037463642
0.037466137
0.037466744
0.037466671
0.037466412
0.03746624
0.03746624
0.03746641
0.037466668
0.03746674
0.037466133
0.037463636
0.037457201
0.037443026
0.037411069
0.037297589
0.036650256
0.036789963
0.036832109
0.0368495
0.036857018
0.036859856
0.036860527
0.036860435
0.036860136
0.036859935
0.036859935
0.036860134
0.036860432
0.036860523
0.036859851
0.036857012
0.036849493
0.036832101
0.036789954
0.036650247
0.035965087
0.036133305
0.036186289
0.036206916
0.036215387
0.036218442
0.036219158
0.036219017
0.036218666
0.036218428
0.036218427
0.036218664
0.036219014
0.036219154
0.036218436
0.036215381
0.036206909
0.03618628
0.036133296
0.035965078
0.03525166
0.035450169
0.035514467
0.035538444
0.035547796
0.035550991
0.035551739
0.035551529
0.035551123
0.035550848
0.035550847
0.035551121
0.035551526
0.035551735
0.035550985
0.035547789
0.035538436
0.035514459
0.03545016
0.03525165
0.034519885
0.034750138
0.034826329
0.034853797
0.034864001
0.034867274
0.034867972
0.034867655
0.034867177
0.034866862
0.034866861
0.034867175
0.034867651
0.034867968
0.034867269
0.034863995
0.034853789
0.034826321
0.034750129
0.034519876
0.033772722
0.03403654
0.034125463
0.034156834
0.034168019
0.034171373
0.034171937
0.034171493
0.034170937
0.034170587
0.034170586
0.034170935
0.03417149
0.034171932
0.034171368
0.034168012
0.034156826
0.034125455
0.034036532
0.033772713
0.033013819
0.033313018
0.033415855
0.033451656
0.033464029
0.033467463
0.033467816
0.033467231
0.033466592
0.033466209
0.033466208
0.03346659
0.033467227
0.033467811
0.033467458
0.033464023
0.033451649
0.033415847
0.03331301
0.033013811
0.03224592
0.032582956
0.032701065
0.032741908
0.032755663
0.03275911
0.032759137
0.032758346
0.032757589
0.032757151
0.032757151
0.032757587
0.032758343
0.032759133
0.032759105
0.032755657
0.032741902
0.032701058
0.032582949
0.032245912
0.031471574
0.031848945
0.031984401
0.032031255
0.032046731
0.032050211
0.032049862
0.032048817
0.03204793
0.032047417
0.032047416
0.032047928
0.032048814
0.032049858
0.032050207
0.032046725
0.032031248
0.031984395
0.031848939
0.031471567
0.030689211
0.031110318
0.031265589
0.031319657
0.03133724
0.031340769
0.031339956
0.031338562
0.031337513
0.031336889
0.031336888
0.031337511
0.031338558
0.031339952
0.031340764
0.031337235
0.031319651
0.031265583
0.031110312
0.030689206
0.029901169
0.030369007
0.0305473
0.030610213
0.030630481
0.030634152
0.030632809
0.030630967
0.030629738
0.030628969
0.030628968
0.030629736
0.030630964
0.030632806
0.030634148
0.030630476
0.030610208
0.030547295
0.030369002
0.029901165
0.029099186
0.029618756
0.029823986
0.029897786
0.029921592
0.029925584
0.029923626
0.029921197
0.029919737
0.029918779
0.029918778
0.029919736
0.029921195
0.029923622
0.02992558
0.029921588
0.029897782
0.029823982
0.029618752
0.029099182
0.028290264
0.028865625
0.029103585
0.029191668
0.029219871
0.029224253
0.02922143
0.029218126
0.029216258
0.029215019
0.029215018
0.029216256
0.029218123
0.029221427
0.029224249
0.029219867
0.029191666
0.029103582
0.028865623
0.028290263
0.027450779
0.028089244
0.02836482
0.028469924
0.028504728
0.028510447
0.028507109
0.028503057
0.028500885
0.028499425
0.028499424
0.028500884
0.028503054
0.028507107
0.028510444
0.028504725
0.028469922
0.028364817
0.028089243
0.02745078
0.02659352
0.027302242
0.027622926
0.027749866
0.027792904
0.027800208
0.027795967
0.02779065
0.027787781
0.027785907
0.027785906
0.02778778
0.027790648
0.027795965
0.027800206
0.027792903
0.027749865
0.027622925
0.027302243
0.026593524
0.025706174
0.026494339
0.02686895
0.027023347
0.027077497
0.027087364
0.027082238
0.02707538
0.02707157
0.027069161
0.02706916
0.027071569
0.027075378
0.027082237
0.027087364
0.027077497
0.027023348
0.026868953
0.026494344
0.025706182
0.024769436
0.025648197
0.026088303
0.026277718
0.026347334
0.026361555
0.026355969
0.026347461
0.026342553
0.026339515
0.026339514
0.026342552
0.026347459
0.026355967
0.026361553
0.026347333
0.026277718
0.026088304
0.025648202
0.024769445
0.023776811
0.024759863
0.025278423
0.025511894
0.025601961
0.025622423
0.025616534
0.025605873
0.025599358
0.025595389
0.025595389
0.025599357
0.025605871
0.025616533
0.025622423
0.025601962
0.025511897
0.025278429
0.024759873
0.023776826
0.022707942
0.023811981
0.024425944
0.024715642
0.02483336
0.024863384
0.024858106
0.024845012
0.024836434
0.024831224
0.024831223
0.024836433
0.024845011
0.024858106
0.024863385
0.024833363
0.024715646
0.024425952
0.023811996
0.022707964
0.021540091
0.022785083
0.023515258
0.023876862
0.024031983
0.024076339
0.024073193
0.024057552
0.024046282
0.024039379
0.024039379
0.024046281
0.024057551
0.024073193
0.024076341
0.024031986
0.023876869
0.02351527
0.022785105
0.021540121
0.020245331
0.021653851
0.022526117
0.022979911
0.023186272
0.023252141
0.023253517
0.02323559
0.023220829
0.023211607
0.023211607
0.023220828
0.02323559
0.023253518
0.023252143
0.023186277
0.022979919
0.022526133
0.021653882
0.020245375
0.018788387
0.020385918
0.021431258
0.022004528
0.022281514
0.022379974
0.02239046
0.022370038
0.022350777
0.022338358
0.022338358
0.022350777
0.022370038
0.022390461
0.022379977
0.02228152
0.022004539
0.02143128
0.02038596
0.018788447
0.017126627
0.018937904
0.02019472
0.020923882
0.021298654
0.021447808
0.021473772
0.02145112
0.021426134
0.021409269
0.021409269
0.021426134
0.02145112
0.021473774
0.021447812
0.021298662
0.020923897
0.020194748
0.018937958
0.017126712
0.015177206
0.017249873
0.018767417
0.019701622
0.020212999
0.020438148
0.020491639
0.020469593
0.020437344
0.020414204
0.020414204
0.020437344
0.020469594
0.020491642
0.020438154
0.020213009
0.019701641
0.018767454
0.017249945
0.015177327
0.012878187
0.015193176
0.017057885
0.018270317
0.018983212
0.019324533
0.019428205
0.019412849
0.019372013
0.019340002
0.019340002
0.019372014
0.019412851
0.01942821
0.019324541
0.018983227
0.018270344
0.017057936
0.015193272
0.012878333
0.010258463
0.012752658
0.014922176
0.016482982
0.017475641
0.017996204
0.018187983
0.018196686
0.018146872
0.018102412
0.018102412
0.018146874
0.01819669
0.018187989
0.017996215
0.01747566
0.016483015
0.014922237
0.012752772
0.010258656
0.0071047933
0.0098934338
0.012500692
0.014529249
0.015929182
0.016716817
0.017051513
0.017096472
0.017032713
0.016966733
0.016966733
0.017032714
0.017096474
0.017051517
0.016716826
0.015929203
0.014529295
0.012500771
0.0098935706
0.007105011
0.0039655689
0.007065572
0.0097731758
0.012093516
0.013894195
0.015057897
0.015623725
0.015759831
0.015696191
0.015606294
0.015606296
0.015696197
0.015759842
0.015623739
0.015057921
0.013894236
0.012093578
0.0097732657
0.0070656983
0.00396576
0.0016526654
0.004739322
0.0073843864
0.0097963976
0.01183863
0.013300412
0.014096104
0.0143347
0.014272024
0.014150735
0.014150736
0.014272029
0.014334708
0.014096114
0.013300432
0.011838669
0.0097964616
0.0073844731
0.0047394257
0.0016527873
)
;

boundaryField
{
    Wall
    {
        type            zeroGradient;
    }
    frontAndBack
    {
        type            empty;
    }
    atmosphere
    {
        type            zeroGradient;
    }
}


// ************************************************************************* //
