/*--------------------------------*- C++ -*----------------------------------*\
| =========                 |                                                 |
| \\      /  F ield         | OpenFOAM: The Open Source CFD Toolbox           |
|  \\    /   O peration     | Version:  3.0.1                                 |
|   \\  /    A nd           | Web:      www.OpenFOAM.org                      |
|    \\/     M anipulation  |                                                 |
\*---------------------------------------------------------------------------*/
FoamFile
{
    version     2.0;
    format      ascii;
    class       volScalarField;
    location    "35";
    object      wBA_g;
}
// * * * * * * * * * * * * * * * * * * * * * * * * * * * * * * * * * * * * * //

dimensions      [0 0 0 0 0 0 0];

internalField   nonuniform List<scalar> 
800
(
0.049582095
0.049583818
0.049581867
0.04958064
0.049579988
0.049579668
0.049579515
0.049579443
0.049579411
0.0495794
0.0495794
0.049579411
0.049579443
0.049579515
0.049579668
0.049579988
0.04958064
0.049581868
0.049583818
0.049582095
0.052116154
0.052052887
0.052030173
0.052020837
0.05201684
0.052015176
0.052014519
0.052014276
0.052014194
0.052014174
0.052014174
0.052014195
0.052014277
0.052014521
0.052015179
0.052016843
0.05202084
0.052030178
0.052052893
0.052116163
0.054143145
0.054049524
0.054018546
0.0540038
0.053997463
0.053994782
0.05399367
0.053993223
0.053993049
0.05399299
0.053992991
0.053993049
0.053993225
0.053993672
0.053994785
0.053997466
0.054003805
0.054018552
0.054049531
0.054143156
0.055560864
0.055452165
0.055423316
0.055406653
0.05539952
0.055396488
0.055395187
0.055394649
0.055394424
0.055394346
0.055394347
0.055394425
0.055394649
0.055395188
0.05539649
0.055399523
0.055406656
0.055423321
0.055452171
0.055560873
0.05645198
0.056343556
0.056321733
0.056307388
0.05630076
0.056297973
0.056296731
0.056296207
0.056295966
0.056295879
0.056295879
0.056295966
0.056296207
0.056296731
0.056297973
0.05630076
0.056307389
0.056321735
0.056343559
0.056451985
0.056881468
0.056788253
0.056774771
0.056767046
0.056761916
0.056759871
0.05675893
0.056758546
0.056758342
0.056758269
0.056758269
0.056758341
0.056758544
0.056758928
0.056759869
0.056761913
0.056767043
0.056774768
0.056788251
0.056881466
0.056906121
0.056841545
0.056835654
0.056837836
0.056834749
0.056833756
0.056833284
0.056833141
0.056833023
0.056832991
0.056832991
0.056833022
0.056833138
0.05683328
0.056833751
0.056834743
0.056837829
0.056835647
0.056841538
0.056906112
0.056586469
0.056560827
0.056561151
0.056574903
0.056573936
0.056574066
0.056574113
0.056574252
0.056574242
0.056574263
0.056574262
0.056574239
0.056574247
0.056574106
0.056574057
0.056573927
0.056574892
0.056561139
0.056560814
0.056586453
0.055987323
0.05600651
0.056011901
0.056037061
0.0560381
0.056039195
0.056039689
0.056040086
0.056040172
0.056040246
0.056040245
0.056040168
0.056040079
0.056039681
0.056039183
0.056038087
0.056037046
0.056011884
0.056006491
0.055987301
0.055175237
0.055240505
0.055250158
0.055284875
0.055288041
0.055289955
0.055290722
0.055291292
0.055291434
0.055291548
0.055291546
0.05529143
0.055291284
0.055290711
0.055289941
0.055288024
0.055284856
0.055250137
0.055240482
0.05517521
0.054217976
0.054326926
0.054339764
0.054380595
0.054386491
0.054389373
0.054390073
0.054390626
0.054390719
0.05439083
0.054390828
0.054390714
0.054390617
0.05439006
0.054389357
0.054386471
0.054380572
0.054339739
0.054326899
0.054217944
0.053178482
0.053326054
0.053340872
0.053383349
0.053393617
0.053398321
0.05339856
0.05339887
0.053398798
0.053398855
0.053398853
0.053398792
0.05339886
0.053398546
0.053398303
0.053393595
0.053383323
0.053340845
0.053326025
0.053178447
0.052115122
0.052295994
0.052310595
0.052349181
0.052366602
0.052374466
0.052373638
0.052373334
0.052372971
0.052372879
0.052372877
0.052372965
0.052373324
0.052373623
0.052374447
0.052366578
0.052349154
0.052310566
0.052295963
0.052115086
0.05107957
0.051288858
0.051300613
0.051329473
0.051358218
0.05137088
0.051368254
0.051366852
0.051366363
0.051365986
0.051365984
0.051366357
0.051366842
0.051368239
0.05137086
0.051358194
0.051329445
0.051300582
0.051288825
0.051079534
0.050112676
0.050347358
0.050353459
0.050367148
0.05041229
0.050431186
0.050425836
0.050422726
0.050422965
0.050422218
0.050422216
0.050422959
0.050422716
0.050425821
0.050431165
0.050412265
0.05036712
0.050353429
0.050347325
0.050112639
0.049250105
0.049509249
0.049507487
0.049501542
0.049568065
0.049593828
0.049584499
0.049578878
0.049581648
0.04958076
0.049580758
0.049581643
0.049578868
0.049584484
0.049593809
0.049568041
0.049501513
0.049507457
0.049509217
0.04925007
0.048512451
0.048797347
0.048786916
0.048758878
0.048850684
0.048882792
0.048867955
0.04885888
0.04886689
0.048866806
0.048866804
0.048866885
0.04885887
0.04886794
0.048882773
0.048850661
0.048758851
0.048786887
0.048797316
0.048512417
0.047913869
0.048227093
0.048209103
0.048158644
0.048277752
0.048314263
0.048292165
0.048278546
0.048294857
0.048297521
0.048297519
0.048294852
0.048278538
0.048292151
0.048314245
0.04827773
0.048158618
0.048209075
0.048227063
0.047913837
0.047460563
0.047806583
0.047783865
0.047712483
0.04785897
0.047896538
0.047865232
0.047845791
0.047872992
0.047881294
0.047881292
0.047872988
0.047845783
0.04786522
0.047896521
0.047858949
0.047712458
0.047783839
0.047806555
0.047460532
0.047153211
0.047537514
0.047515025
0.047425679
0.047598658
0.047633095
0.047590697
0.047564109
0.047603715
0.047621151
0.04762115
0.047603711
0.047564102
0.047590686
0.047633079
0.047598638
0.047425655
0.047515
0.047537486
0.047153181
0.046981704
0.047412257
0.047396233
0.047292323
0.04749073
0.047517403
0.047462068
0.047426954
0.047478983
0.047509005
0.047509004
0.04747898
0.047426947
0.047462057
0.047517388
0.047490712
0.0472923
0.047396208
0.047412231
0.046981674
0.046937887
0.047423557
0.047421572
0.047306638
0.047530234
0.04754481
0.047474817
0.047429898
0.04749312
0.047538516
0.047538515
0.047493117
0.047429891
0.047474806
0.047544795
0.047530217
0.047306616
0.047421549
0.047423531
0.046937858
0.046995636
0.047550114
0.04757099
0.047448623
0.047698273
0.04769712
0.047610722
0.047554799
0.047627211
0.047689579
0.047689579
0.047627208
0.047554792
0.047610712
0.047697106
0.047698256
0.047448601
0.047570967
0.047550087
0.046995605
0.047146791
0.047785383
0.047841159
0.047716922
0.047993956
0.047974141
0.047869243
0.04780102
0.047880352
0.0479598
0.0479598
0.047880349
0.047801014
0.047869232
0.047974127
0.047993939
0.047716902
0.047841137
0.047785357
0.047146761
0.047332117
0.048079758
0.048182435
0.048062109
0.048369235
0.048330467
0.048205877
0.048124869
0.048209595
0.048305031
0.04830503
0.048209593
0.048124863
0.048205867
0.048330454
0.048369219
0.048062089
0.048182413
0.048079732
0.047332087
0.04754165
0.0484295
0.048596694
0.048490957
0.048828277
0.048771056
0.048624395
0.048529211
0.048617506
0.048726309
0.048726309
0.048617504
0.048529205
0.048624385
0.048771043
0.048828262
0.048490938
0.048596672
0.048429475
0.047541622
0.047723949
0.048794694
0.049049612
0.04897292
0.049339274
0.049267555
0.049096969
0.048986552
0.049076969
0.049195779
0.049195779
0.049076967
0.048986548
0.049096961
0.049267543
0.049339261
0.048972903
0.049049593
0.048794673
0.047723925
0.047801978
0.049112884
0.049488505
0.049459997
0.049853213
0.049774944
0.049579359
0.04945304
0.049544188
0.049669257
0.049669257
0.049544185
0.049453034
0.049579348
0.04977493
0.049853197
0.049459977
0.049488482
0.04911286
0.047801953
0.047702173
0.049329814
0.04986826
0.049908957
0.05032567
0.050250347
0.050028215
0.04988471
0.049974277
0.050101457
0.050101457
0.049974275
0.049884706
0.050028206
0.050250335
0.050325657
0.049908942
0.049868242
0.049329797
0.047702158
0.047302775
0.049348489
0.050106968
0.050241532
0.050681278
0.05062068
0.05037151
0.050209922
0.050295216
0.050420585
0.050420585
0.050295214
0.050209919
0.050371503
0.05062067
0.050681267
0.05024152
0.050106955
0.04934848
0.047302774
0.04644666
0.049037132
0.050090186
0.050348377
0.050814109
0.050780605
0.050506158
0.050325755
0.050403463
0.050523376
0.050523376
0.050403463
0.050325754
0.050506153
0.050780597
0.050814101
0.05034837
0.050090179
0.049037135
0.04644668
0.044945943
0.048222056
0.0496625
0.05008327
0.050584414
0.050589635
0.050295431
0.050098086
0.050164491
0.050275728
0.050275729
0.050164492
0.050098087
0.050295428
0.05058963
0.05058441
0.050083269
0.049662502
0.048222079
0.044945995
0.042608252
0.046691762
0.048626531
0.049263181
0.049820944
0.049875095
0.049571467
0.049364405
0.049415737
0.049515611
0.049515611
0.04941574
0.049364408
0.049571468
0.049875094
0.049820947
0.049263188
0.048626546
0.046691814
0.042608349
0.03928203
0.044217897
0.046758777
0.047681861
0.048333926
0.048449464
0.048152406
0.047947079
0.047980317
0.048066834
0.048066836
0.047980322
0.047947085
0.048152411
0.04844947
0.048333936
0.047681879
0.046758811
0.044217982
0.03928219
0.034842879
0.040599835
0.043843142
0.045142183
0.045945022
0.046143125
0.045875361
0.045682407
0.045695757
0.04576768
0.045767682
0.045695763
0.045682418
0.045875371
0.046143137
0.045945042
0.045142216
0.043843202
0.040599968
0.034843127
0.029370501
0.035638487
0.039682019
0.04148794
0.04252175
0.042846613
0.04263608
0.042459069
0.042452506
0.042509146
0.04250915
0.042452516
0.042459086
0.042636098
0.042846635
0.042521784
0.041487994
0.039682115
0.035638681
0.02937081
0.02314704
0.029553181
0.034181553
0.036590134
0.037940463
0.038441488
0.038322133
0.03818157
0.038154841
0.038194691
0.038194696
0.038154856
0.038181593
0.038322158
0.03844152
0.037940511
0.036590205
0.034181676
0.029553421
0.023147446
0.01606636
0.022639418
0.027957572
0.031120998
0.032926219
0.033658346
0.033656652
0.033522554
0.033463753
0.0334788
0.033478806
0.033463769
0.033522579
0.033656679
0.033658383
0.032926276
0.031121099
0.027957736
0.022639704
0.016066812
0.0092434404
0.016027639
0.0213432
0.02492335
0.027124378
0.028163423
0.028335065
0.028225927
0.028134183
0.028120114
0.028120124
0.028134208
0.028225967
0.028335108
0.028163483
0.027124465
0.024923478
0.021343387
0.016027906
0.0092438448
0.004151755
0.010607741
0.015605137
0.019260182
0.021672906
0.02292816
0.023243251
0.023136974
0.022990096
0.022930549
0.022930559
0.022990121
0.02313701
0.02324329
0.022928216
0.021672992
0.019260313
0.015605318
0.010607965
0.0041520323
)
;

boundaryField
{
    Wall
    {
        type            zeroGradient;
    }
    frontAndBack
    {
        type            empty;
    }
    atmosphere
    {
        type            zeroGradient;
    }
}


// ************************************************************************* //
