/*--------------------------------*- C++ -*----------------------------------*\
| =========                 |                                                 |
| \\      /  F ield         | OpenFOAM: The Open Source CFD Toolbox           |
|  \\    /   O peration     | Version:  3.0.1                                 |
|   \\  /    A nd           | Web:      www.OpenFOAM.org                      |
|    \\/     M anipulation  |                                                 |
\*---------------------------------------------------------------------------*/
FoamFile
{
    version     2.0;
    format      ascii;
    class       volScalarField;
    location    "35";
    object      wCO2_l;
}
// * * * * * * * * * * * * * * * * * * * * * * * * * * * * * * * * * * * * * //

dimensions      [0 0 0 0 0 0 0];

internalField   nonuniform List<scalar> 
800
(
0.0037927051
0.0037930288
0.0037929575
0.0037928778
0.0037928265
0.0037927984
0.0037927839
0.0037927765
0.0037927731
0.0037927717
0.0037927717
0.0037927731
0.0037927765
0.0037927839
0.0037927984
0.0037928265
0.0037928778
0.0037929576
0.0037930289
0.0037927051
0.0038257238
0.0038258149
0.0038262347
0.0038265159
0.003826676
0.0038267536
0.0038267841
0.0038267918
0.0038267911
0.0038267892
0.0038267892
0.0038267911
0.0038267918
0.0038267841
0.0038267535
0.0038266759
0.0038265158
0.0038262346
0.0038258147
0.0038257235
0.0038748455
0.0038739529
0.0038739534
0.0038742553
0.0038744506
0.0038745484
0.0038745865
0.0038745949
0.0038745928
0.0038745895
0.0038745895
0.0038745928
0.0038745949
0.0038745864
0.0038745484
0.0038744505
0.0038742552
0.0038739533
0.0038739527
0.0038748452
0.0039596921
0.0039562039
0.003955192
0.0039552846
0.0039554037
0.0039554753
0.0039555052
0.0039555115
0.0039555093
0.0039555061
0.0039555061
0.0039555093
0.0039555116
0.0039555052
0.0039554754
0.0039554038
0.0039552847
0.003955192
0.0039562039
0.003959692
0.0040802672
0.0040726123
0.0040701481
0.004069769
0.0040697249
0.004069736
0.0040697455
0.0040697469
0.0040697449
0.0040697426
0.0040697427
0.004069745
0.004069747
0.0040697457
0.0040697362
0.0040697252
0.0040697693
0.0040701484
0.0040726126
0.0040802675
0.0042364881
0.0042229369
0.004218606
0.0042174378
0.0042171453
0.0042170618
0.0042170382
0.0042170309
0.004217029
0.0042170279
0.0042170279
0.0042170292
0.0042170312
0.0042170386
0.0042170623
0.0042171458
0.0042174385
0.0042186067
0.0042229376
0.0042364888
0.004429925
0.0044084037
0.0044017557
0.0043994492
0.0043988175
0.0043986039
0.0043985339
0.0043985137
0.0043985111
0.0043985111
0.0043985112
0.0043985113
0.0043985141
0.0043985345
0.0043986047
0.0043988184
0.0043994502
0.0044017568
0.0044084049
0.0044299263
0.0046636496
0.0046316319
0.0046220974
0.0046182989
0.0046172363
0.004616855
0.0046167236
0.0046166849
0.0046166802
0.0046166812
0.0046166813
0.0046166806
0.0046166856
0.0046167245
0.0046168561
0.0046172376
0.0046183003
0.004622099
0.0046316336
0.0046636515
0.004942354
0.0048967334
0.0048834997
0.0048778528
0.0048762447
0.0048756548
0.0048754446
0.0048753807
0.0048753721
0.0048753734
0.0048753736
0.0048753727
0.0048753816
0.0048754459
0.0048756564
0.0048762465
0.0048778549
0.0048835018
0.0048967357
0.0049423565
0.0052720532
0.0052092158
0.0051911834
0.0051833401
0.005181028
0.0051801763
0.005179868
0.005179771
0.0051797569
0.005179758
0.0051797582
0.0051797576
0.0051797721
0.0051798697
0.0051801783
0.0051810304
0.0051833427
0.0051911862
0.0052092188
0.0052720564
0.0056606016
0.0055762445
0.0055519011
0.0055414865
0.0055382216
0.0055370004
0.0055365587
0.0055364106
0.0055363846
0.0055363825
0.0055363828
0.0055363855
0.0055364121
0.0055365607
0.0055370028
0.0055382245
0.0055414897
0.0055519046
0.0055762481
0.0056606055
0.0061106504
0.0060050796
0.0059726528
0.0059593604
0.0059548321
0.0059531024
0.0059525081
0.0059523047
0.0059522731
0.0059522704
0.0059522708
0.0059522742
0.0059523065
0.0059525105
0.0059531054
0.0059548356
0.0059593643
0.005972657
0.0060050839
0.0061106551
0.0066296441
0.0064906291
0.0064487584
0.0064323688
0.0064259712
0.0064234506
0.0064226909
0.0064224301
0.0064223936
0.0064223928
0.0064223933
0.0064223949
0.0064224322
0.0064226938
0.0064234541
0.0064259753
0.0064323734
0.0064487633
0.0064906342
0.0066296496
0.0072254139
0.0070482446
0.0069946666
0.0069748463
0.006965714
0.0069620061
0.0069610656
0.0069607287
0.006960644
0.0069606477
0.0069606482
0.0069606455
0.0069607311
0.0069610689
0.0069620102
0.0069657187
0.0069748516
0.0069946723
0.0070482504
0.0072254203
0.0079069892
0.0076856902
0.007617797
0.0075941654
0.0075811767
0.007575859
0.0075747179
0.0075742858
0.0075740087
0.0075740171
0.0075740177
0.0075740104
0.0075742886
0.0075747217
0.0075758636
0.0075811821
0.0075941714
0.0076178035
0.0076856968
0.0079069967
0.0086838837
0.0084113456
0.0083262827
0.0082983104
0.0082801563
0.0082728183
0.0082714138
0.0082708639
0.0082700668
0.0082700483
0.0082700489
0.0082700687
0.008270867
0.008271418
0.0082728235
0.0082801623
0.0082983172
0.00832629
0.0084113532
0.0086838922
0.009560629
0.0092297657
0.0091245656
0.0090916368
0.0090670518
0.0090573861
0.0090556515
0.0090549966
0.009053142
0.0090529932
0.0090529939
0.009053144
0.0090549999
0.009055656
0.0090573916
0.0090670583
0.0090916441
0.0091245735
0.009229774
0.0095606383
0.010541606
0.010145258
0.010016757
0.0099780277
0.0099458613
0.0099336539
0.0099315064
0.0099307967
0.0099271408
0.009926636
0.0099266367
0.0099271429
0.0099308002
0.0099315112
0.0099336598
0.0099458682
0.0099780356
0.010016765
0.010145266
0.010541616
0.011632638
0.011163688
0.011008245
0.010962527
0.01092168
0.010906732
0.010904002
0.010903288
0.010896902
0.010895657
0.010895658
0.010896904
0.010903292
0.010904007
0.010906738
0.010921688
0.010962535
0.011008254
0.011163697
0.011632649
0.01284136
0.012292365
0.012105963
0.012051939
0.012001375
0.011983556
0.011980061
0.011979454
0.011969345
0.011966858
0.011966858
0.011969347
0.011979458
0.011980066
0.011983563
0.012001383
0.012051948
0.012105972
0.012292374
0.01284137
0.014173767
0.013537794
0.013315784
0.013251908
0.013190317
0.013169418
0.013164897
0.013164509
0.013149687
0.013145384
0.013145385
0.013149689
0.013164513
0.013164902
0.013169425
0.013190324
0.013251917
0.013315793
0.013537803
0.014173777
0.015639294
0.014909042
0.01464626
0.014570885
0.01449663
0.014472413
0.014466685
0.014466716
0.01444636
0.014439722
0.014439723
0.014446362
0.014466719
0.014466689
0.014472419
0.014496637
0.014570893
0.014646269
0.01490905
0.015639303
0.017247501
0.016416108
0.016106607
0.016017484
0.015928426
0.015900354
0.015893174
0.015893814
0.015867312
0.015857926
0.015857927
0.015867313
0.015893817
0.015893178
0.015900359
0.015928431
0.01601749
0.016106614
0.016416115
0.017247508
0.019016636
0.018075447
0.01771308
0.017607449
0.017501003
0.017467977
0.017458899
0.01746031
0.017427343
0.017414967
0.017414968
0.017427344
0.017460312
0.017458902
0.017467981
0.017501007
0.017607455
0.017713086
0.018075452
0.019016639
0.020954364
0.019895427
0.019472116
0.019345198
0.019219154
0.019179772
0.019168458
0.0191711
0.019131988
0.01911671
0.01911671
0.019131989
0.019171102
0.01916846
0.019179775
0.019219158
0.019345202
0.019472119
0.019895429
0.020954363
0.023093009
0.021906042
0.021412165
0.021258269
0.021109314
0.021060902
0.021046504
0.021050608
0.021005949
0.020987989
0.020987989
0.021005949
0.021050609
0.021046506
0.021060903
0.021109315
0.021258271
0.021412165
0.021906039
0.023093004
0.025457167
0.024133037
0.023556072
0.023368357
0.023192651
0.023131725
0.023113757
0.023119763
0.023070801
0.023050658
0.023050658
0.023070801
0.023119764
0.023113758
0.023131725
0.023192651
0.023368356
0.023556069
0.024133031
0.025457158
0.028062557
0.026597192
0.025923304
0.025695669
0.025488835
0.025411544
0.025390595
0.025399338
0.025348065
0.025326555
0.025326555
0.025348064
0.025399336
0.025390592
0.025411541
0.02548883
0.025695663
0.025923295
0.026597176
0.028062538
0.030927434
0.029327132
0.02854303
0.028270352
0.028025975
0.027928535
0.027906052
0.027918348
0.027867095
0.027845158
0.027845158
0.027867093
0.027918346
0.027906049
0.02792853
0.028025968
0.028270343
0.028543016
0.02932711
0.030927411
0.034031459
0.032324294
0.031429631
0.031109595
0.030824187
0.030702833
0.030681426
0.030698485
0.030650128
0.030629004
0.030629003
0.030650126
0.030698482
0.030681421
0.030702827
0.030824178
0.031109582
0.031429613
0.032324267
0.034031433
0.037276778
0.035543251
0.034563618
0.034201469
0.033883838
0.033738127
0.033714212
0.03373669
0.033694309
0.033675491
0.033675491
0.033694307
0.033736687
0.033714207
0.03373812
0.033883828
0.034201454
0.034563597
0.035543224
0.037276761
0.040387654
0.038815738
0.037854349
0.037476988
0.03714462
0.036987616
0.036956471
0.036969573
0.036936493
0.036921815
0.036921815
0.036936492
0.036969569
0.036956466
0.03698761
0.03714461
0.037476975
0.037854333
0.038815724
0.040387672
0.042690405
0.041759753
0.041035047
0.04072326
0.04040162
0.040269496
0.040240143
0.040204044
0.040184792
0.040176684
0.040176684
0.040184791
0.040204044
0.040240142
0.040269495
0.040401618
0.040723257
0.041035049
0.041759781
0.0426905
0.043200759
0.043595057
0.04349761
0.043426847
0.043178793
0.043131906
0.043081495
0.043010548
0.0430115
0.043012892
0.043012893
0.043011503
0.043010554
0.043081503
0.043131917
0.043178807
0.043426869
0.043497651
0.043595161
0.043200968
0.04069232
0.043216244
0.044242383
0.044671566
0.044637331
0.044652367
0.044656547
0.044633524
0.044659332
0.044671547
0.04467155
0.044659341
0.04463354
0.044656569
0.044652396
0.044637371
0.044671626
0.044242483
0.04321644
0.040692641
0.032807975
0.039409923
0.042108137
0.043182722
0.043708118
0.043841137
0.043995217
0.0440864
0.044132208
0.044150613
0.044150618
0.044132223
0.044086428
0.043995253
0.043841185
0.043708184
0.043182819
0.042108289
0.039410185
0.032808339
0.022091962
0.029030707
0.035293696
0.037788097
0.03891826
0.039496075
0.039787341
0.039993317
0.040040073
0.040052848
0.040052854
0.040040092
0.039993349
0.039787384
0.039496133
0.038918338
0.037788206
0.035293861
0.029030977
0.022092374
0.013722541
0.019814692
0.024790777
0.027715015
0.029252754
0.030006792
0.030341075
0.030641015
0.030653269
0.030639306
0.030639312
0.030653286
0.030641042
0.030341111
0.030006842
0.029252825
0.027715127
0.024790945
0.019814962
0.013722942
0.0072995572
0.012790423
0.016913126
0.019687648
0.021364696
0.022262218
0.022654101
0.022887332
0.022871899
0.022832912
0.022832919
0.02287192
0.022887366
0.02265414
0.022262273
0.021364773
0.01968776
0.016913284
0.012790644
0.0072998841
0.0030896931
0.0078959655
0.011470859
0.014044759
0.015754192
0.01673339
0.017164826
0.017313766
0.017259119
0.017187199
0.017187206
0.017259136
0.017313792
0.017164856
0.016733433
0.015754257
0.014044858
0.011470995
0.0078961354
0.0030899018
)
;

boundaryField
{
    Wall
    {
        type            zeroGradient;
    }
    frontAndBack
    {
        type            empty;
    }
    atmosphere
    {
        type            zeroGradient;
    }
}


// ************************************************************************* //
