/*--------------------------------*- C++ -*----------------------------------*\
| =========                 |                                                 |
| \\      /  F ield         | OpenFOAM: The Open Source CFD Toolbox           |
|  \\    /   O peration     | Version:  3.0.1                                 |
|   \\  /    A nd           | Web:      www.OpenFOAM.org                      |
|    \\/     M anipulation  |                                                 |
\*---------------------------------------------------------------------------*/
FoamFile
{
    version     2.0;
    format      ascii;
    class       volScalarField;
    location    "35";
    object      wCO2_g;
}
// * * * * * * * * * * * * * * * * * * * * * * * * * * * * * * * * * * * * * //

dimensions      [0 0 0 0 0 0 0];

internalField   nonuniform List<scalar> 
800
(
0.018974616
0.018976118
0.018975476
0.018974998
0.018974734
0.018974602
0.018974538
0.018974509
0.018974496
0.018974491
0.018974491
0.018974496
0.018974509
0.018974538
0.018974602
0.018974734
0.018974998
0.018975476
0.018976118
0.018974616
0.019243844
0.019243813
0.019243106
0.019242644
0.019242377
0.01924223
0.019242148
0.019242102
0.019242077
0.019242066
0.019242066
0.019242077
0.019242102
0.019242148
0.01924223
0.019242377
0.019242644
0.019243106
0.019243813
0.019243844
0.019472658
0.019471205
0.019470232
0.019469475
0.019469005
0.019468729
0.019468569
0.019468477
0.019468428
0.019468406
0.019468406
0.019468428
0.019468477
0.019468569
0.019468729
0.019469005
0.019469475
0.019470232
0.019471206
0.019472658
0.01969958
0.019694891
0.019693629
0.019692523
0.019691821
0.019691414
0.019691185
0.019691062
0.019690999
0.019690973
0.019690973
0.019690999
0.019691062
0.019691185
0.019691414
0.019691822
0.019692524
0.01969363
0.019694891
0.01969958
0.019937251
0.01992784
0.019926027
0.01992454
0.019923568
0.019923021
0.019922721
0.019922569
0.019922495
0.019922466
0.019922466
0.019922495
0.019922569
0.019922721
0.019923021
0.019923568
0.01992454
0.019926027
0.01992784
0.019937252
0.020191344
0.020175725
0.020172905
0.020170994
0.020169698
0.020168991
0.020168616
0.020168436
0.020168353
0.020168322
0.020168322
0.020168353
0.020168436
0.020168617
0.020168992
0.020169698
0.020170994
0.020172905
0.020175726
0.020191344
0.020465193
0.020441914
0.020437485
0.02043506
0.020433356
0.020432458
0.020431996
0.020431785
0.020431692
0.020431659
0.020431659
0.020431692
0.020431786
0.020431997
0.020432458
0.020433356
0.020435061
0.020437486
0.020441915
0.020465193
0.020761482
0.020729212
0.020722464
0.020719397
0.020717188
0.020716051
0.02071548
0.020715228
0.020715119
0.020715083
0.020715084
0.020715119
0.020715228
0.020715481
0.020716052
0.020717189
0.020719398
0.020722466
0.020729213
0.020761483
0.021081428
0.021039254
0.021029408
0.021025541
0.021022746
0.021021317
0.021020607
0.021020295
0.021020162
0.021020119
0.021020119
0.021020162
0.021020295
0.021020607
0.021021318
0.021022747
0.021025542
0.021029409
0.021039255
0.021081429
0.021424699
0.021372217
0.021358458
0.021353624
0.021350203
0.021348448
0.021347563
0.021347173
0.021347006
0.021346953
0.021346953
0.021347007
0.021347174
0.021347564
0.021348449
0.021350204
0.021353625
0.02135846
0.021372219
0.0214247
0.021790578
0.021728084
0.021709563
0.021703525
0.021699457
0.021697334
0.021696213
0.021695702
0.021695477
0.021695401
0.021695401
0.021695478
0.021695703
0.021696214
0.021697336
0.021699459
0.021703527
0.021709565
0.021728086
0.021790579
0.022180682
0.022103935
0.022080141
0.0220728
0.022068215
0.022065789
0.022064411
0.022063769
0.022063486
0.022063386
0.022063386
0.022063487
0.022063769
0.022064412
0.02206579
0.022068217
0.022072802
0.022080143
0.022103936
0.022180684
0.022591316
0.022509284
0.022479072
0.022470107
0.022465226
0.022462583
0.022460845
0.022460009
0.022459646
0.022459506
0.022459507
0.022459647
0.02246001
0.022460846
0.022462585
0.022465228
0.022470109
0.022479074
0.022509286
0.022591317
0.023018905
0.022933065
0.022896458
0.022885689
0.022880861
0.022878181
0.022875978
0.022874883
0.022874427
0.022874232
0.022874232
0.022874428
0.022874884
0.022875979
0.022878183
0.022880863
0.022885691
0.02289646
0.022933067
0.023018907
0.023456898
0.023370592
0.023328297
0.023315583
0.023311238
0.023308701
0.023305912
0.023304483
0.023303922
0.023303663
0.023303663
0.023303922
0.023304484
0.023305913
0.023308703
0.023311239
0.023315585
0.023328299
0.023370594
0.023456899
0.023901606
0.023819486
0.023773027
0.023758263
0.023754842
0.023752549
0.023749004
0.023747122
0.023746424
0.023746117
0.023746117
0.023746424
0.023747123
0.023749005
0.02375255
0.023754844
0.023758265
0.023773029
0.023819488
0.023901608
0.024344441
0.024272622
0.02422444
0.024207904
0.024205949
0.024203968
0.024199461
0.024197009
0.024196145
0.024195881
0.024195881
0.024196145
0.02419701
0.024199462
0.02420397
0.024205951
0.024207906
0.024224441
0.024272624
0.024344442
0.02477758
0.024723215
0.024676616
0.024658986
0.024659102
0.024657371
0.024651587
0.024648436
0.024647359
0.02464733
0.02464733
0.024647359
0.024648437
0.024651587
0.024657372
0.024659103
0.024658987
0.024676617
0.024723216
0.024777581
0.02519282
0.025164669
0.025123593
0.025105983
0.025108809
0.025107023
0.025099456
0.025095424
0.025094001
0.025094503
0.025094503
0.025094002
0.025095424
0.025099457
0.025107023
0.025108809
0.025105985
0.025123594
0.02516467
0.025192821
0.025581553
0.025589559
0.025558922
0.025543178
0.025549563
0.025547302
0.02553741
0.025532336
0.02553038
0.025531811
0.025531811
0.02553038
0.025532336
0.02553741
0.025547303
0.025549563
0.025543178
0.025558922
0.02558956
0.025581553
0.02593091
0.025986951
0.025972348
0.025960838
0.025971688
0.025968385
0.025955601
0.0259493
0.025946537
0.025949331
0.025949331
0.025946537
0.025949299
0.025955601
0.025968385
0.025971688
0.025960838
0.025972348
0.025986951
0.025930909
0.026231309
0.026347934
0.026355904
0.026351581
0.026367965
0.026363119
0.026347041
0.026339369
0.026335572
0.026340156
0.026340155
0.026335572
0.026339368
0.02634704
0.026363119
0.026367964
0.02635158
0.026355904
0.026347933
0.026231308
0.026465537
0.026657794
0.026695898
0.026702065
0.026725273
0.026718494
0.026698845
0.026689643
0.026684711
0.026691409
0.026691408
0.02668471
0.026689642
0.026698843
0.026718492
0.026725272
0.026702063
0.026695896
0.026657792
0.026465534
0.02662769
0.026910562
0.026988535
0.027009581
0.027041061
0.027031955
0.027008423
0.026997426
0.02699144
0.027000399
0.027000399
0.026991439
0.026997424
0.027008421
0.027031953
0.027041059
0.02700958
0.026988533
0.02691056
0.026627688
0.02668563
0.027077896
0.027205532
0.027245323
0.027287871
0.027276946
0.027249789
0.027237119
0.027230754
0.027242087
0.027242087
0.027230753
0.027237117
0.027249787
0.027276944
0.027287869
0.027245321
0.027205529
0.027077894
0.026685628
0.02663631
0.027157814
0.027347748
0.027412149
0.027468089
0.027455574
0.027424496
0.027409745
0.027403551
0.027417005
0.027417004
0.02740355
0.027409743
0.027424494
0.027455572
0.027468086
0.027412146
0.027347746
0.027157812
0.026636308
0.02645387
0.027128271
0.0273953
0.027491694
0.027564167
0.027551387
0.02751661
0.027499556
0.027494349
0.027509582
0.027509582
0.027494348
0.027499555
0.027516608
0.027551386
0.027564166
0.027491693
0.027395299
0.027128272
0.026453873
0.026100017
0.026955443
0.027318233
0.027456823
0.027550021
0.027539774
0.027502261
0.027482882
0.027479553
0.027496162
0.027496161
0.027479551
0.027482879
0.027502258
0.027539771
0.027550017
0.02745682
0.027318231
0.026955444
0.026100021
0.0255426
0.02661223
0.02709278
0.027285962
0.027404407
0.027400444
0.027361259
0.027339192
0.027338123
0.027355466
0.027355465
0.027338122
0.02733919
0.027361257
0.027400442
0.027404406
0.027285962
0.027092782
0.026612237
0.025542612
0.024730526
0.02605239
0.026679227
0.026942553
0.02709322
0.027101044
0.027062077
0.027037164
0.027038458
0.027055875
0.027055875
0.027038458
0.027037163
0.027062075
0.027101043
0.02709322
0.026942555
0.026679232
0.026052404
0.024730549
0.023603157
0.025218929
0.026026436
0.026378529
0.026571763
0.0265985
0.02656163
0.026533863
0.026537121
0.026553873
0.026553872
0.02653712
0.026533863
0.02656163
0.0265985
0.026571765
0.026378535
0.026026447
0.025218954
0.023603194
0.022091693
0.024042233
0.025070338
0.025533365
0.025782586
0.025837396
0.025805401
0.025774616
0.025779003
0.02579431
0.025794309
0.025779003
0.025774617
0.025805403
0.025837399
0.025782591
0.025533375
0.025070357
0.024042272
0.022091751
0.020128555
0.022445661
0.02373309
0.024333205
0.024654468
0.024747827
0.024726176
0.024693163
0.024697575
0.024710643
0.024710643
0.024697576
0.024693165
0.02472618
0.024747832
0.024654477
0.024333221
0.023733118
0.022445717
0.020128638
0.017674022
0.02035485
0.021930585
0.022694048
0.023106666
0.023249017
0.023244808
0.023215826
0.023219022
0.023229061
0.023229061
0.023219024
0.023215829
0.023244814
0.023249025
0.02310668
0.022694071
0.021930624
0.020354924
0.017674133
0.014704386
0.017724311
0.019591835
0.020535767
0.021061143
0.02126254
0.021286944
0.021270183
0.021270764
0.021276962
0.021276963
0.021270767
0.021270188
0.021286953
0.021262551
0.021061161
0.020535797
0.019591886
0.017724404
0.014704526
0.011330568
0.014530808
0.016666835
0.017809959
0.018452006
0.018734626
0.018793927
0.01879104
0.018787927
0.018789623
0.018789624
0.018787932
0.018791048
0.018793939
0.018734642
0.018452029
0.017809996
0.016666897
0.014530916
0.011330715
0.0081231354
0.010882942
0.013160547
0.0144858
0.015240629
0.015583422
0.015671742
0.015724662
0.015717555
0.015714598
0.0157146
0.015717561
0.015724672
0.015671755
0.01558344
0.015240655
0.014485839
0.013160611
0.010883051
0.0081232972
0.0052622204
0.0076610413
0.0097173942
0.011049322
0.011831974
0.012192096
0.012294797
0.012339859
0.012326484
0.012318216
0.012318218
0.012326489
0.012339868
0.012294809
0.012192113
0.011832001
0.011049366
0.0097174618
0.0076611504
0.0052623795
0.0028786716
0.0050891999
0.0068662746
0.0081178369
0.0089116597
0.0093102605
0.0094402247
0.009470785
0.0094507146
0.0094358129
0.0094358157
0.0094507225
0.0094707982
0.0094402395
0.0093102822
0.0089116911
0.008117883
0.0068663404
0.005089291
0.0028788028
0.0012446228
0.0032117705
0.0047532866
0.0059041048
0.0066840983
0.007106863
0.0072570854
0.0072718637
0.0072370712
0.0072100169
0.0072100195
0.0072370782
0.0072718744
0.0072570974
0.0071068812
0.0066841262
0.0059041472
0.0047533445
0.0032118414
0.0012447077
)
;

boundaryField
{
    Wall
    {
        type            zeroGradient;
    }
    frontAndBack
    {
        type            empty;
    }
    atmosphere
    {
        type            zeroGradient;
    }
}


// ************************************************************************* //
