/*--------------------------------*- C++ -*----------------------------------*\
| =========                 |                                                 |
| \\      /  F ield         | OpenFOAM: The Open Source CFD Toolbox           |
|  \\    /   O peration     | Version:  3.0.1                                 |
|   \\  /    A nd           | Web:      www.OpenFOAM.org                      |
|    \\/     M anipulation  |                                                 |
\*---------------------------------------------------------------------------*/
FoamFile
{
    version     2.0;
    format      ascii;
    class       volScalarField;
    location    "35";
    object      weight0;
}
// * * * * * * * * * * * * * * * * * * * * * * * * * * * * * * * * * * * * * //

dimensions      [0 0 0 0 0 0 0];

internalField   nonuniform List<scalar> 
800
(
7.3562072e+09
7.3562029e+09
7.3561386e+09
7.3561063e+09
7.3560911e+09
7.356084e+09
7.3560806e+09
7.3560793e+09
7.356079e+09
7.3560791e+09
7.356079e+09
7.356079e+09
7.3560794e+09
7.3560806e+09
7.356084e+09
7.3560911e+09
7.3561062e+09
7.3561386e+09
7.3562029e+09
7.3562072e+09
7.0774473e+09
7.1121352e+09
7.1192749e+09
7.1208479e+09
7.1210841e+09
7.1210808e+09
7.12108e+09
7.1211082e+09
7.1211433e+09
7.1211655e+09
7.1211655e+09
7.1211432e+09
7.121108e+09
7.1210797e+09
7.1210803e+09
7.1210835e+09
7.1208471e+09
7.1192739e+09
7.1121341e+09
7.0774452e+09
7.0200489e+09
7.0565353e+09
7.0668971e+09
7.0688655e+09
7.0692939e+09
7.0694523e+09
7.0695939e+09
7.0697345e+09
7.0698459e+09
7.0699069e+09
7.0699069e+09
7.0698458e+09
7.0697344e+09
7.0695936e+09
7.0694519e+09
7.0692935e+09
7.0688649e+09
7.0668965e+09
7.0565345e+09
7.0200474e+09
7.0200671e+09
7.0513429e+09
7.0616861e+09
7.0637088e+09
7.0644012e+09
7.0647737e+09
7.0650468e+09
7.0652579e+09
7.0654036e+09
7.0654784e+09
7.0654783e+09
7.0654034e+09
7.0652577e+09
7.0650465e+09
7.0647733e+09
7.0644007e+09
7.0637083e+09
7.0616854e+09
7.0513421e+09
7.0200658e+09
6.8407514e+09
6.8808975e+09
6.8923239e+09
6.8952195e+09
6.8967457e+09
6.8975011e+09
6.8978895e+09
6.8980942e+09
6.8982016e+09
6.8982487e+09
6.8982485e+09
6.8982012e+09
6.8980936e+09
6.8978886e+09
6.8975e+09
6.8967444e+09
6.895218e+09
6.8923221e+09
6.8808953e+09
6.8407481e+09
6.2397821e+09
6.3231101e+09
6.3418646e+09
6.3472325e+09
6.3507907e+09
6.3523437e+09
6.3529197e+09
6.3530716e+09
6.3530775e+09
6.3530571e+09
6.3530567e+09
6.3530765e+09
6.3530699e+09
6.3529173e+09
6.3523408e+09
6.3507871e+09
6.3472282e+09
6.3418596e+09
6.3231043e+09
6.239774e+09
4.9535587e+09
5.138722e+09
5.1785642e+09
5.188909e+09
5.1965317e+09
5.1996908e+09
5.2007053e+09
5.2008474e+09
5.2007327e+09
5.2006246e+09
5.2006239e+09
5.2007305e+09
5.2008438e+09
5.2007002e+09
5.1996845e+09
5.196524e+09
5.1889e+09
5.1785539e+09
5.13871e+09
4.9535426e+09
2.5189539e+09
2.9363781e+09
3.0315533e+09
3.0522298e+09
3.0685305e+09
3.0754141e+09
3.0777258e+09
3.0781891e+09
3.0780585e+09
3.0778934e+09
3.077892e+09
3.0780541e+09
3.0781819e+09
3.0777156e+09
3.0754015e+09
3.0685153e+09
3.0522121e+09
3.0315333e+09
2.9363555e+09
2.5189238e+09
60858001
15382912
9240860.3
8294999.7
7600548.8
7283494.3
7163419.1
7125756.9
7119751.5
7120631.2
7120686.4
7119919.1
7126031.4
7163801.4
7283981.3
7601143.3
8295720
9241710.6
15384210
60861869
3.1222319e+09
2.1290959e+09
1.8686691e+09
1.8279118e+09
1.8009861e+09
1.7863111e+09
1.7794026e+09
1.7768171e+09
1.7761374e+09
1.7759826e+09
1.7759851e+09
1.776145e+09
1.7768296e+09
1.7794199e+09
1.786333e+09
1.8010118e+09
1.8279413e+09
1.8687013e+09
2.1291331e+09
3.1222843e+09
1.6770386e+10
1.3545694e+10
1.2438858e+10
1.2289396e+10
1.2233689e+10
1.2194594e+10
1.2163478e+10
1.2149999e+10
1.2145571e+10
1.2143996e+10
1.2144004e+10
1.2145596e+10
1.2150042e+10
1.2163535e+10
1.2194667e+10
1.2233773e+10
1.228949e+10
1.2438959e+10
1.3545804e+10
1.6770513e+10
4.5003583e+10
3.9621228e+10
3.7110865e+10
3.6819405e+10
3.6866557e+10
3.6862983e+10
3.6788212e+10
3.6751711e+10
3.6738734e+10
3.6733169e+10
3.6733182e+10
3.6738775e+10
3.675178e+10
3.6788304e+10
3.68631e+10
3.6866688e+10
3.6819551e+10
3.7111017e+10
3.9621387e+10
4.5003747e+10
8.8150245e+10
7.8744389e+10
7.4650658e+10
7.4201586e+10
7.4540372e+10
7.4673996e+10
7.4538884e+10
7.4466117e+10
7.4445011e+10
7.4432043e+10
7.4432057e+10
7.4445055e+10
7.4466193e+10
7.4538982e+10
7.4674123e+10
7.4540509e+10
7.4201737e+10
7.465081e+10
7.8744541e+10
8.8150383e+10
1.450249e+11
1.3618468e+11
1.3023717e+11
1.2955413e+11
1.3074183e+11
1.3130978e+11
1.3106805e+11
1.309294e+11
1.3091437e+11
1.3088645e+11
1.3088646e+11
1.309144e+11
1.3092945e+11
1.3106811e+11
1.3130986e+11
1.3074192e+11
1.2955422e+11
1.3023725e+11
1.3618476e+11
1.4502496e+11
2.0876272e+11
2.0438676e+11
1.9730767e+11
1.9638146e+11
1.9915001e+11
2.0054686e+11
2.000522e+11
1.9981605e+11
1.9984085e+11
1.9979877e+11
1.9979876e+11
1.9984084e+11
1.9981604e+11
2.0005218e+11
2.0054684e+11
1.9914998e+11
1.9638142e+11
1.9730761e+11
2.0438668e+11
2.0876262e+11
2.7015013e+11
2.7226992e+11
2.6569708e+11
2.6462205e+11
2.6931056e+11
2.7157575e+11
2.7069603e+11
2.703361e+11
2.704234e+11
2.7040447e+11
2.7040445e+11
2.7042334e+11
2.7033601e+11
2.7069589e+11
2.7157559e+11
2.6931037e+11
2.6462184e+11
2.6569684e+11
2.7226966e+11
2.7014986e+11
3.2537386e+11
3.343454e+11
3.2978425e+11
3.2875277e+11
3.3515919e+11
3.3795391e+11
3.3665095e+11
3.361503e+11
3.3628811e+11
3.3638626e+11
3.3638622e+11
3.3628798e+11
3.3615011e+11
3.3665069e+11
3.379536e+11
3.3515884e+11
3.2875239e+11
3.2978383e+11
3.3434495e+11
3.2537341e+11
3.7480987e+11
3.9032697e+11
3.8869296e+11
3.8798688e+11
3.9566454e+11
3.9852872e+11
3.9676192e+11
3.9610333e+11
3.9623498e+11
3.9659051e+11
3.9659045e+11
3.962348e+11
3.9610305e+11
3.9676155e+11
3.9852828e+11
3.9566405e+11
3.8798635e+11
3.8869238e+11
3.9032635e+11
3.7480922e+11
4.19521e+11
4.412843e+11
4.4302793e+11
4.430206e+11
4.5153716e+11
4.5402216e+11
4.5170435e+11
4.5085924e+11
4.508722e+11
4.5163937e+11
4.5163929e+11
4.5087198e+11
4.5085888e+11
4.5170387e+11
4.5402159e+11
4.5153655e+11
4.4301993e+11
4.430272e+11
4.4128352e+11
4.1952014e+11
4.6023722e+11
4.8815303e+11
4.934461e+11
4.945763e+11
5.0359317e+11
5.0531413e+11
5.0235342e+11
5.012774e+11
5.0100468e+11
5.0230831e+11
5.0230821e+11
5.0100441e+11
5.0127696e+11
5.0235284e+11
5.0531345e+11
5.0359243e+11
4.9457549e+11
4.9344522e+11
4.881521e+11
4.6023615e+11
4.9738529e+11
5.316009e+11
5.4049621e+11
5.432073e+11
5.5245885e+11
5.5315862e+11
5.4952336e+11
5.4815949e+11
5.4742111e+11
5.4931426e+11
5.4931415e+11
5.4742081e+11
5.4815899e+11
5.4952271e+11
5.5315784e+11
5.5245801e+11
5.4320636e+11
5.404952e+11
5.3159981e+11
4.9738405e+11
5.3142437e+11
5.7228977e+11
5.8489118e+11
5.8959177e+11
5.9887898e+11
5.9846902e+11
5.9422605e+11
5.9251497e+11
5.9119699e+11
5.9363684e+11
5.9363673e+11
5.9119666e+11
5.9251443e+11
5.9422534e+11
5.9846818e+11
5.9887806e+11
5.8959074e+11
5.8489005e+11
5.7228855e+11
5.3142305e+11
5.6276722e+11
6.1071119e+11
6.2736743e+11
6.3443703e+11
6.4368895e+11
6.4222973e+11
6.3750156e+11
6.3539163e+11
6.3351673e+11
6.3636334e+11
6.3636323e+11
6.3351638e+11
6.3539107e+11
6.3750082e+11
6.4222885e+11
6.4368799e+11
6.3443595e+11
6.2736624e+11
6.1070991e+11
5.627659e+11
5.9200171e+11
6.473766e+11
6.6883201e+11
6.7865734e+11
6.8803856e+11
6.8566816e+11
6.8053471e+11
6.7798872e+11
6.7572319e+11
6.7876015e+11
6.7876004e+11
6.7572285e+11
6.7798816e+11
6.8053399e+11
6.8566731e+11
6.8803763e+11
6.786563e+11
6.6883083e+11
6.4737536e+11
5.9200053e+11
6.1945343e+11
6.8248517e+11
7.0992676e+11
7.2307025e+11
7.3296703e+11
7.2989029e+11
7.2435675e+11
7.2135915e+11
7.1894091e+11
7.2190949e+11
7.2190938e+11
7.1894059e+11
7.2135862e+11
7.2435608e+11
7.298895e+11
7.3296618e+11
7.2306931e+11
7.0992568e+11
6.8248407e+11
6.1945253e+11
6.4486697e+11
7.157059e+11
7.5059183e+11
7.6803724e+11
7.7883874e+11
7.7543466e+11
7.6951495e+11
7.6607997e+11
7.6370089e+11
7.6633664e+11
7.6633653e+11
7.6370061e+11
7.6607949e+11
7.6951437e+11
7.7543398e+11
7.7883802e+11
7.6803647e+11
7.5059093e+11
7.1570507e+11
6.4486648e+11
6.6691692e+11
7.4562351e+11
7.8938736e+11
8.124688e+11
8.2442088e+11
8.2126086e+11
8.1510222e+11
8.1129566e+11
8.0901162e+11
8.1108018e+11
8.1108007e+11
8.090114e+11
8.1129527e+11
8.1510176e+11
8.2126035e+11
8.2442036e+11
8.1246829e+11
7.8938676e+11
7.4562309e+11
6.6691699e+11
6.8296214e+11
7.6899254e+11
8.2270417e+11
8.5258241e+11
8.6569635e+11
8.6343356e+11
8.5731701e+11
8.5327207e+11
8.5098441e+11
8.5231266e+11
8.5231256e+11
8.5098425e+11
8.5327176e+11
8.5731672e+11
8.6343328e+11
8.6569608e+11
8.5258224e+11
8.2270399e+11
7.6899269e+11
6.8296289e+11
6.8969085e+11
7.8092772e+11
8.4476256e+11
8.8150705e+11
8.9550057e+11
8.9462685e+11
8.8877854e+11
8.8466976e+11
8.821714e+11
8.8267293e+11
8.8267285e+11
8.8217133e+11
8.8466957e+11
8.8877845e+11
8.9462682e+11
8.9550061e+11
8.8150728e+11
8.4476289e+11
7.8092855e+11
6.8969229e+11
6.8567862e+11
7.7726155e+11
8.4971744e+11
8.9197927e+11
9.0662941e+11
9.0700932e+11
9.013852e+11
8.9732358e+11
8.9433307e+11
8.9401339e+11
8.9401334e+11
8.9433306e+11
8.9732351e+11
9.013853e+11
9.0700953e+11
9.0662975e+11
8.9197989e+11
8.4971829e+11
7.7726303e+11
6.8568059e+11
6.7574565e+11
7.6000368e+11
8.3731146e+11
8.8350325e+11
8.9901929e+11
9.0013674e+11
8.9456886e+11
8.9050701e+11
8.8667115e+11
8.8559423e+11
8.855942e+11
8.8667118e+11
8.9050701e+11
8.9456907e+11
9.001371e+11
8.9901981e+11
8.8350412e+11
8.3731268e+11
7.6000557e+11
6.7574776e+11
6.7206253e+11
7.4110375e+11
8.1838271e+11
8.6827112e+11
8.857594e+11
8.8728143e+11
8.8210051e+11
8.7815825e+11
8.7315213e+11
8.7137795e+11
8.7137791e+11
8.7315214e+11
8.7815822e+11
8.8210068e+11
8.8728174e+11
8.8575986e+11
8.6827193e+11
8.1838395e+11
7.4110559e+11
6.7206437e+11
6.8660735e+11
7.3710818e+11
8.1124436e+11
8.6645234e+11
8.8862031e+11
8.9110849e+11
8.8675749e+11
8.8351193e+11
8.7719126e+11
8.7471887e+11
8.7471881e+11
8.7719119e+11
8.8351178e+11
8.867575e+11
8.9110859e+11
8.886205e+11
8.6645287e+11
8.1124532e+11
7.3710961e+11
6.8660891e+11
7.1845436e+11
7.5679936e+11
8.3014764e+11
8.9417464e+11
9.2494073e+11
9.3079874e+11
9.2848519e+11
9.2495287e+11
9.1733771e+11
9.1406825e+11
9.1406815e+11
9.1733753e+11
9.2495256e+11
9.2848498e+11
9.3079858e+11
9.2494061e+11
8.9417485e+11
8.3014831e+11
7.5680056e+11
7.1845656e+11
7.5117195e+11
7.9292448e+11
8.7496056e+11
9.5448454e+11
9.9892702e+11
1.0138275e+12
1.0141035e+12
1.0085891e+12
9.9975296e+11
9.9546671e+11
9.9546658e+11
9.997527e+11
1.0085887e+12
1.0141031e+12
1.0138271e+12
9.9892675e+11
9.5448469e+11
8.7496142e+11
7.9292645e+11
7.5117636e+11
7.5429195e+11
8.2267762e+11
9.2886228e+11
1.0351192e+12
1.1013041e+12
1.1316043e+12
1.1371225e+12
1.1301674e+12
1.1201539e+12
1.1144659e+12
1.1144657e+12
1.1201536e+12
1.1301669e+12
1.1371221e+12
1.131604e+12
1.101304e+12
1.0351198e+12
9.2886412e+11
8.2268159e+11
7.5430005e+11
0
0
9.617971e+11
1.1078831e+12
1.2110876e+12
1.2659696e+12
1.2838204e+12
1.2782818e+12
1.267136e+12
1.2594284e+12
1.2594282e+12
1.2671357e+12
1.2782814e+12
1.28382e+12
1.2659694e+12
1.2110879e+12
1.1078846e+12
9.6180057e+11
0
0
0
0
0
0
0
0
0
0
0
0
0
0
0
0
0
0
0
0
0
0
0
0
0
0
0
0
0
0
0
0
0
0
0
0
0
0
0
0
0
0
0
0
0
0
0
0
0
0
0
0
0
0
0
0
0
0
0
0
0
0
)
;

boundaryField
{
    Wall
    {
        type            zeroGradient;
    }
    frontAndBack
    {
        type            empty;
    }
    atmosphere
    {
        type            zeroGradient;
    }
}


// ************************************************************************* //
