/*--------------------------------*- C++ -*----------------------------------*\
| =========                 |                                                 |
| \\      /  F ield         | OpenFOAM: The Open Source CFD Toolbox           |
|  \\    /   O peration     | Version:  3.0.1                                 |
|   \\  /    A nd           | Web:      www.OpenFOAM.org                      |
|    \\/     M anipulation  |                                                 |
\*---------------------------------------------------------------------------*/
FoamFile
{
    version     2.0;
    format      ascii;
    class       volScalarField;
    location    "35";
    object      weight1;
}
// * * * * * * * * * * * * * * * * * * * * * * * * * * * * * * * * * * * * * //

dimensions      [0 0 0 0 0 0 0];

internalField   nonuniform List<scalar> 
800
(
9.9926438e+12
9.9926438e+12
9.9926439e+12
9.9926439e+12
9.9926439e+12
9.9926439e+12
9.9926439e+12
9.9926439e+12
9.9926439e+12
9.9926439e+12
9.9926439e+12
9.9926439e+12
9.9926439e+12
9.9926439e+12
9.9926439e+12
9.9926439e+12
9.9926439e+12
9.9926439e+12
9.9926438e+12
9.9926438e+12
9.9929226e+12
9.9928879e+12
9.9928807e+12
9.9928792e+12
9.9928789e+12
9.9928789e+12
9.9928789e+12
9.9928789e+12
9.9928789e+12
9.9928788e+12
9.9928788e+12
9.9928789e+12
9.9928789e+12
9.9928789e+12
9.9928789e+12
9.9928789e+12
9.9928792e+12
9.9928807e+12
9.9928879e+12
9.9929226e+12
9.9505144e+12
9.9519624e+12
9.9526941e+12
9.9530002e+12
9.9531214e+12
9.9531638e+12
9.9531739e+12
9.9531727e+12
9.9531692e+12
9.953167e+12
9.953167e+12
9.9531692e+12
9.9531727e+12
9.9531738e+12
9.9531637e+12
9.9531213e+12
9.9530001e+12
9.9526939e+12
9.9519622e+12
9.9505141e+12
9.8703214e+12
9.8745696e+12
9.8765176e+12
9.8773245e+12
9.8776483e+12
9.8777623e+12
9.87779e+12
9.8777871e+12
9.8777776e+12
9.8777712e+12
9.8777712e+12
9.8777775e+12
9.877787e+12
9.8777898e+12
9.8777621e+12
9.877648e+12
9.8773241e+12
9.8765171e+12
9.874569e+12
9.8703205e+12
9.7591923e+12
9.7672928e+12
9.7707706e+12
9.7721992e+12
9.7727769e+12
9.7729821e+12
9.7730339e+12
9.7730304e+12
9.7730142e+12
9.7730031e+12
9.7730031e+12
9.773014e+12
9.7730302e+12
9.7730335e+12
9.7729816e+12
9.7727763e+12
9.7721985e+12
9.7707698e+12
9.7672918e+12
9.759191e+12
9.6223899e+12
9.6351314e+12
9.6403652e+12
9.6424957e+12
9.643356e+12
9.6436619e+12
9.6437408e+12
9.643737e+12
9.6437135e+12
9.6436973e+12
9.6436973e+12
9.6437133e+12
9.6437366e+12
9.6437402e+12
9.6436612e+12
9.6433552e+12
9.6424947e+12
9.640364e+12
9.6351299e+12
9.6223881e+12
9.4644367e+12
9.4824068e+12
9.4895511e+12
9.4924347e+12
9.4935893e+12
9.493997e+12
9.4941015e+12
9.4940956e+12
9.4940636e+12
9.4940416e+12
9.4940415e+12
9.4940633e+12
9.4940951e+12
9.4941008e+12
9.4939961e+12
9.4935882e+12
9.4924334e+12
9.4895495e+12
9.482405e+12
9.4644344e+12
9.2894981e+12
9.3130971e+12
9.3222355e+12
9.3258978e+12
9.3273427e+12
9.3278462e+12
9.327972e+12
9.3279613e+12
9.3279191e+12
9.3278906e+12
9.3278905e+12
9.3279188e+12
9.3279606e+12
9.3279712e+12
9.3278451e+12
9.3273413e+12
9.3258962e+12
9.3222337e+12
9.313095e+12
9.2894955e+12
9.0997049e+12
9.1300669e+12
9.1414437e+12
9.1459328e+12
9.1476853e+12
9.1482879e+12
9.1484346e+12
9.1484172e+12
9.1483633e+12
9.1483274e+12
9.1483272e+12
9.1483629e+12
9.1484164e+12
9.1484335e+12
9.1482866e+12
9.1476837e+12
9.145931e+12
9.1414416e+12
9.1300645e+12
9.099702e+12
8.8923438e+12
8.9303166e+12
8.9441573e+12
8.9494989e+12
8.9515556e+12
8.9522547e+12
8.9524222e+12
8.9523981e+12
8.9523322e+12
8.9522886e+12
8.9522885e+12
8.9523317e+12
8.9523973e+12
8.952421e+12
8.9522533e+12
8.9515538e+12
8.9494969e+12
8.9441549e+12
8.930314e+12
8.8923407e+12
8.66465e+12
8.7118568e+12
8.7288331e+12
8.7351079e+12
8.7374614e+12
8.7382608e+12
8.7384651e+12
8.7384428e+12
8.738368e+12
8.7383181e+12
8.7383179e+12
8.7383674e+12
8.7384419e+12
8.7384638e+12
8.7382592e+12
8.7374595e+12
8.7351057e+12
8.7288306e+12
8.711854e+12
8.6646469e+12
8.4149602e+12
8.4716192e+12
8.4923549e+12
8.4995891e+12
8.5020853e+12
8.5029096e+12
8.5031617e+12
8.5031485e+12
8.5030654e+12
8.5030101e+12
8.5030099e+12
8.5030648e+12
8.5031474e+12
8.5031603e+12
8.5029078e+12
8.5020832e+12
8.4995867e+12
8.4923522e+12
8.4716163e+12
8.414957e+12
8.1450317e+12
8.2132425e+12
8.2380104e+12
8.246229e+12
8.2486683e+12
8.2494093e+12
8.2497227e+12
8.2497305e+12
8.2496367e+12
8.2495783e+12
8.2495781e+12
8.249636e+12
8.2497294e+12
8.2497213e+12
8.2494075e+12
8.2486662e+12
8.2462266e+12
8.2380077e+12
8.2132397e+12
8.1450286e+12
7.8577051e+12
7.9331207e+12
7.9623163e+12
7.9716182e+12
7.97344e+12
7.9737976e+12
7.9742161e+12
7.9742743e+12
7.9741536e+12
7.9740987e+12
7.9740985e+12
7.9741529e+12
7.9742732e+12
7.9742146e+12
7.9737958e+12
7.9734379e+12
7.9716158e+12
7.9623137e+12
7.933118e+12
7.8577022e+12
7.5612145e+12
7.6401596e+12
7.6732338e+12
7.6836723e+12
7.6841528e+12
7.683733e+12
7.6844004e+12
7.6845408e+12
7.6843581e+12
7.6843045e+12
7.6843043e+12
7.6843575e+12
7.6845398e+12
7.684399e+12
7.6837313e+12
7.6841508e+12
7.6836702e+12
7.6732315e+12
7.6401572e+12
7.5612119e+12
7.2656171e+12
7.3463481e+12
7.3818883e+12
7.3934453e+12
7.3922679e+12
7.391036e+12
7.3920827e+12
7.3923324e+12
7.3920656e+12
7.3919743e+12
7.3919741e+12
7.3920651e+12
7.3923314e+12
7.3920814e+12
7.3910345e+12
7.3922662e+12
7.3934434e+12
7.3818862e+12
7.346346e+12
7.2656148e+12
6.9760723e+12
7.0584748e+12
7.0952432e+12
7.1078189e+12
7.1052096e+12
7.1035011e+12
7.1049552e+12
7.1053256e+12
7.1049859e+12
7.1047601e+12
7.10476e+12
7.1049854e+12
7.1053248e+12
7.1049541e+12
7.1034998e+12
7.1052081e+12
7.1078173e+12
7.0952414e+12
7.058473e+12
6.9760704e+12
6.693243e+12
6.777883e+12
6.8152933e+12
6.8287376e+12
6.8251788e+12
6.8234479e+12
6.8253328e+12
6.82583e+12
6.825472e+12
6.8249683e+12
6.8249682e+12
6.8254716e+12
6.8258293e+12
6.8253319e+12
6.8234468e+12
6.8251776e+12
6.8287363e+12
6.8152918e+12
6.7778816e+12
6.6932415e+12
6.4166249e+12
6.5040976e+12
6.5421177e+12
6.5562558e+12
6.5522453e+12
6.5509428e+12
6.5533299e+12
6.5539705e+12
6.5537069e+12
6.5527694e+12
6.5527693e+12
6.5537066e+12
6.5539699e+12
6.5533292e+12
6.550942e+12
6.5522443e+12
6.5562547e+12
6.5421166e+12
6.5040966e+12
6.4166238e+12
6.1457306e+12
6.2365119e+12
6.2754695e+12
6.2901144e+12
6.2860758e+12
6.2855862e+12
6.2885428e+12
6.2893504e+12
6.289343e+12
6.2878439e+12
6.2878438e+12
6.2893427e+12
6.2893499e+12
6.2885423e+12
6.2855856e+12
6.2860751e+12
6.2901137e+12
6.2754687e+12
6.2365112e+12
6.14573e+12
5.8804228e+12
5.9747797e+12
6.0152327e+12
6.0302803e+12
6.0266096e+12
6.0272058e+12
6.030743e+12
6.0317527e+12
6.0321759e+12
6.0300597e+12
6.0300597e+12
6.0321757e+12
6.0317523e+12
6.0307426e+12
6.0272054e+12
6.0266091e+12
6.0302799e+12
6.0152323e+12
5.9747794e+12
5.8804226e+12
5.6202582e+12
5.7183526e+12
5.760913e+12
5.7763689e+12
5.7734308e+12
5.7752206e+12
5.7792416e+12
5.7804775e+12
5.7814292e+12
5.7787315e+12
5.7787314e+12
5.781429e+12
5.7804773e+12
5.7792414e+12
5.7752204e+12
5.7734306e+12
5.7763688e+12
5.7609128e+12
5.7183527e+12
5.6202584e+12
5.3643161e+12
5.466354e+12
5.5115459e+12
5.5275694e+12
5.5256743e+12
5.5286478e+12
5.5330089e+12
5.5344869e+12
5.535926e+12
5.5327782e+12
5.5327782e+12
5.5359259e+12
5.5344867e+12
5.5330088e+12
5.5286478e+12
5.5256743e+12
5.5275695e+12
5.5115461e+12
5.4663544e+12
5.3643167e+12
5.111604e+12
5.2180081e+12
5.2661046e+12
5.2829637e+12
5.2822582e+12
5.2863528e+12
5.2909535e+12
5.2926663e+12
5.2943997e+12
5.291005e+12
5.2910049e+12
5.2943997e+12
5.2926662e+12
5.2909535e+12
5.2863529e+12
5.2822584e+12
5.282964e+12
5.2661051e+12
5.2180088e+12
5.1116049e+12
4.8609075e+12
4.972405e+12
5.0234379e+12
5.0413881e+12
5.0418994e+12
5.0470287e+12
5.0518502e+12
5.0537611e+12
5.0555141e+12
5.0521114e+12
5.0521114e+12
5.055514e+12
5.053761e+12
5.0518502e+12
5.0470289e+12
5.0418996e+12
5.0413886e+12
5.0234385e+12
4.9724059e+12
4.8609085e+12
4.6112845e+12
4.7289135e+12
4.7828748e+12
4.8019478e+12
4.8038269e+12
4.8097916e+12
4.8148211e+12
4.8168574e+12
4.8183902e+12
4.8152176e+12
4.8152176e+12
4.8183902e+12
4.8168573e+12
4.8148212e+12
4.8097918e+12
4.8038272e+12
4.8019483e+12
4.7828756e+12
4.7289147e+12
4.6112857e+12
4.3625298e+12
4.4877058e+12
4.5448978e+12
4.5650208e+12
4.5687261e+12
4.575221e+12
4.5803381e+12
4.582371e+12
4.5835662e+12
4.5808227e+12
4.5808227e+12
4.5835662e+12
4.5823709e+12
4.5803382e+12
4.5752212e+12
4.5687264e+12
4.5650214e+12
4.5448987e+12
4.4877071e+12
4.3625311e+12
4.1153185e+12
4.2504056e+12
4.3118486e+12
4.3334253e+12
4.3398579e+12
4.346614e+12
4.3516012e+12
4.3534293e+12
4.354306e+12
4.3521171e+12
4.3521171e+12
4.3543059e+12
4.3534292e+12
4.3516012e+12
4.3466141e+12
4.3398582e+12
4.3334259e+12
4.3118495e+12
4.250407e+12
4.1153199e+12
3.8704721e+12
4.019815e+12
4.0878743e+12
4.1127828e+12
4.1234209e+12
4.1304994e+12
4.1352545e+12
4.1366364e+12
4.1373021e+12
4.1356922e+12
4.1356921e+12
4.137302e+12
4.1366362e+12
4.1352544e+12
4.1304994e+12
4.1234211e+12
4.1127833e+12
4.0878752e+12
4.0198165e+12
3.8704739e+12
3.6262406e+12
3.7974e+12
3.8766752e+12
3.9087072e+12
3.925355e+12
3.9336842e+12
3.9384685e+12
3.9392356e+12
3.9398495e+12
3.9387319e+12
3.9387318e+12
3.9398493e+12
3.9392354e+12
3.9384684e+12
3.9336841e+12
3.9253551e+12
3.9087076e+12
3.8766762e+12
3.7974019e+12
3.6262432e+12
3.3737426e+12
3.5776045e+12
3.6756626e+12
3.7195069e+12
3.7440562e+12
3.7552976e+12
3.7606539e+12
3.7608205e+12
3.7615886e+12
3.7607936e+12
3.7607935e+12
3.7615884e+12
3.7608203e+12
3.7606537e+12
3.7552975e+12
3.7440563e+12
3.7195074e+12
3.675664e+12
3.5776074e+12
3.3737469e+12
3.0956245e+12
3.3438269e+12
3.4701625e+12
3.5300091e+12
3.5642188e+12
3.5803662e+12
3.5865947e+12
3.5860717e+12
3.5871482e+12
3.5864775e+12
3.5864774e+12
3.587148e+12
3.5860716e+12
3.5865947e+12
3.5803663e+12
3.5642192e+12
3.5300101e+12
3.4701647e+12
3.3438315e+12
3.0956316e+12
2.7736578e+12
3.073383e+12
3.2364948e+12
3.3160187e+12
3.3611131e+12
3.3840018e+12
3.3916815e+12
3.3900802e+12
3.3914157e+12
3.3906869e+12
3.3906868e+12
3.3914156e+12
3.3900802e+12
3.3916817e+12
3.3840023e+12
3.3611141e+12
3.3160205e+12
3.2364982e+12
3.0733902e+12
2.7736683e+12
2.4014927e+12
2.7491353e+12
2.9533167e+12
3.0558502e+12
3.1134024e+12
3.1441132e+12
3.1537449e+12
3.152451e+12
3.1538011e+12
3.1528605e+12
3.1528605e+12
3.1538012e+12
3.1524512e+12
3.1537455e+12
3.1441141e+12
3.113404e+12
3.055853e+12
2.9533217e+12
2.7491449e+12
2.4015069e+12
1.9873785e+12
2.3680039e+12
2.6112306e+12
2.7387568e+12
2.8114344e+12
2.8495383e+12
2.8632659e+12
2.8646705e+12
2.8657219e+12
2.8644363e+12
2.8644363e+12
2.8657221e+12
2.864671e+12
2.8632668e+12
2.8495396e+12
2.8114366e+12
2.7387604e+12
2.6112368e+12
2.3680153e+12
1.9873953e+12
1.5503069e+12
1.940378e+12
2.2147851e+12
2.3671552e+12
2.45707e+12
2.5039952e+12
2.5233404e+12
2.5281683e+12
2.5286773e+12
2.5269405e+12
2.5269405e+12
2.5286777e+12
2.528169e+12
2.5233415e+12
2.5039968e+12
2.4570725e+12
2.3671594e+12
2.2147922e+12
1.9403908e+12
1.5503268e+12
0
0
1.7789669e+12
1.9568816e+12
2.062226e+12
2.1195023e+12
2.1438314e+12
2.1517423e+12
2.1516786e+12
2.1494707e+12
2.1494708e+12
2.1516791e+12
2.1517433e+12
2.1438327e+12
2.1195043e+12
2.0622291e+12
1.9568864e+12
1.7789749e+12
0
0
0
0
0
0
0
0
0
0
0
0
0
0
0
0
0
0
0
0
0
0
0
0
0
0
0
0
0
0
0
0
0
0
0
0
0
0
0
0
0
0
0
0
0
0
0
0
0
0
0
0
0
0
0
0
0
0
0
0
0
0
)
;

boundaryField
{
    Wall
    {
        type            zeroGradient;
    }
    frontAndBack
    {
        type            empty;
    }
    atmosphere
    {
        type            zeroGradient;
    }
}


// ************************************************************************* //
