/*--------------------------------*- C++ -*----------------------------------*\
| =========                 |                                                 |
| \\      /  F ield         | OpenFOAM: The Open Source CFD Toolbox           |
|  \\    /   O peration     | Version:  3.0.1                                 |
|   \\  /    A nd           | Web:      www.OpenFOAM.org                      |
|    \\/     M anipulation  |                                                 |
\*---------------------------------------------------------------------------*/
FoamFile
{
    version     2.0;
    format      ascii;
    class       volScalarField;
    location    "35";
    object      XOH;
}
// * * * * * * * * * * * * * * * * * * * * * * * * * * * * * * * * * * * * * //

dimensions      [0 0 0 0 0 0 0];

internalField   nonuniform List<scalar> 
800
(
0.25990737
0.25994225
0.2599493
0.25995017
0.25995015
0.2599501
0.25995014
0.25995021
0.25995027
0.25995031
0.25995031
0.25995027
0.25995021
0.25995014
0.25995011
0.25995015
0.25995017
0.2599493
0.25994225
0.25990737
0.25623447
0.25646656
0.25653671
0.25655962
0.256567
0.25656912
0.25656951
0.25656944
0.25656931
0.25656923
0.25656923
0.25656931
0.25656944
0.25656951
0.25656911
0.256567
0.25655961
0.25653669
0.25646655
0.25623444
0.25244201
0.25281733
0.25295083
0.25299538
0.25300995
0.25301419
0.25301502
0.25301492
0.25301467
0.25301452
0.25301452
0.25301467
0.25301491
0.25301502
0.25301418
0.25300994
0.25299536
0.25295081
0.2528173
0.25244197
0.24907829
0.24957073
0.24975719
0.24981963
0.2498401
0.24984612
0.24984737
0.24984728
0.24984697
0.24984678
0.24984678
0.24984697
0.24984727
0.24984736
0.24984611
0.24984008
0.24981961
0.24975716
0.24957069
0.24907823
0.24615965
0.24674648
0.24697668
0.24705335
0.24707822
0.2470855
0.24708706
0.24708702
0.2470867
0.2470865
0.2470865
0.2470867
0.24708701
0.24708705
0.24708549
0.2470782
0.24705332
0.24697665
0.24674643
0.24615958
0.24368532
0.2443433
0.24460941
0.24469678
0.24472438
0.24473215
0.24473373
0.24473362
0.24473327
0.24473305
0.24473305
0.24473327
0.24473361
0.24473371
0.24473214
0.24472435
0.24469675
0.24460938
0.24434326
0.24368526
0.24166965
0.24237492
0.24266961
0.24276436
0.24279298
0.24280039
0.24280156
0.24280119
0.24280072
0.24280046
0.24280045
0.24280072
0.24280118
0.24280155
0.24280037
0.24279296
0.24276433
0.24266958
0.24237488
0.24166959
0.24013028
0.24085903
0.24117484
0.24127384
0.24130187
0.24130802
0.24130833
0.24130746
0.24130676
0.2413064
0.2413064
0.24130676
0.24130745
0.24130832
0.241308
0.24130185
0.24127382
0.24117481
0.24085899
0.24013023
0.23908492
0.23981387
0.2401427
0.24024305
0.24026897
0.24027299
0.24027198
0.24027036
0.24026929
0.24026879
0.24026878
0.24026929
0.24027035
0.24027197
0.24027298
0.24026895
0.24024303
0.24014268
0.23981383
0.23908487
0.23855088
0.23925769
0.23959041
0.23968943
0.23971182
0.23971287
0.23971005
0.23970739
0.23970583
0.2397051
0.2397051
0.23970582
0.23970739
0.23971004
0.23971286
0.23971181
0.23968941
0.23959039
0.23925766
0.23855084
0.23854337
0.23920733
0.23953368
0.23962907
0.23964672
0.23964402
0.23963891
0.23963495
0.23963275
0.23963174
0.23963174
0.23963275
0.23963494
0.23963891
0.23964401
0.23964671
0.23962906
0.23953366
0.23920731
0.23854335
0.23907895
0.23968137
0.23998978
0.24007951
0.24009116
0.24008387
0.24007597
0.24007038
0.2400674
0.24006605
0.24006605
0.2400674
0.24007038
0.24007597
0.24008387
0.24009115
0.24007951
0.23998978
0.23968136
0.23907894
0.2401732
0.24069733
0.24097569
0.2410582
0.24106247
0.2410498
0.2410386
0.24103107
0.24102718
0.2410254
0.2410254
0.24102718
0.24103107
0.2410386
0.2410498
0.24106248
0.2410582
0.24097569
0.24069734
0.2401732
0.24184015
0.24227121
0.24250781
0.24258198
0.24257705
0.24255823
0.24254325
0.24253347
0.24252844
0.24252618
0.24252618
0.24252845
0.24253347
0.24254326
0.24255824
0.24257706
0.24258199
0.24250782
0.24227122
0.24184016
0.2440934
0.24441822
0.2446031
0.24466808
0.24465134
0.24462567
0.24460648
0.24459415
0.24458741
0.2445846
0.2445846
0.24458742
0.24459416
0.24460649
0.24462568
0.24465136
0.2446681
0.24460312
0.24441824
0.24409343
0.24694337
0.24715063
0.24727687
0.24733205
0.24730014
0.24726704
0.2472433
0.24722818
0.24721833
0.24721491
0.24721491
0.24721833
0.24722819
0.24724331
0.24726706
0.24730016
0.24733208
0.2472769
0.24715067
0.24694341
0.25038897
0.250471
0.25053607
0.2505815
0.25053072
0.2504901
0.25046143
0.25044343
0.25042777
0.25042366
0.25042366
0.25042777
0.25044344
0.25046144
0.25049013
0.25053075
0.25058154
0.25053611
0.25047104
0.25038902
0.25441942
0.25437364
0.25437978
0.25441669
0.25434404
0.25429633
0.25426181
0.25424101
0.25421521
0.25421031
0.25421031
0.25421522
0.25424102
0.25426183
0.25429635
0.25434408
0.25441673
0.25437983
0.2543737
0.25441948
0.25901497
0.25884656
0.2588003
0.25883203
0.25873634
0.25868179
0.25863956
0.25861633
0.25857423
0.2585684
0.2585684
0.25857424
0.25861634
0.25863958
0.25868182
0.25873638
0.25883208
0.25880036
0.25884663
0.25901504
0.26414336
0.26386806
0.26378035
0.26381414
0.26369642
0.26363459
0.26358169
0.26355692
0.26349055
0.26348368
0.26348368
0.26349056
0.26355694
0.26358171
0.26363463
0.26369646
0.26381419
0.26378041
0.26386813
0.26414343
0.26975145
0.2693995
0.26928631
0.26933452
0.26919688
0.26912666
0.2690592
0.26903433
0.26893401
0.26892616
0.26892616
0.26893402
0.26903434
0.26905923
0.2691267
0.26919693
0.26933458
0.26928638
0.26939957
0.26975153
0.27576463
0.2753848
0.27526897
0.27535005
0.27519504
0.27511541
0.27502995
0.27500733
0.27486248
0.27485406
0.27485407
0.27486249
0.27500734
0.27502997
0.27511545
0.27519509
0.27535011
0.27526903
0.27538488
0.27576471
0.28208259
0.28174802
0.2816622
0.28179961
0.28162993
0.28153993
0.28143415
0.28141716
0.28121799
0.28120981
0.28120982
0.28121799
0.28141717
0.28143418
0.28153996
0.28162997
0.28179967
0.28166227
0.2817481
0.28208267
0.2885567
0.28837161
0.28836392
0.28858544
0.28840629
0.28830512
0.28817837
0.28817186
0.28791181
0.28790532
0.28790533
0.28791181
0.28817187
0.28817839
0.28830515
0.28840634
0.2885855
0.28836399
0.28837168
0.28855678
0.294984
0.29509402
0.29523469
0.29557206
0.2953944
0.29528064
0.29513344
0.29514405
0.29482158
0.29481924
0.29481924
0.29482158
0.29514405
0.29513346
0.29528068
0.29539445
0.29557212
0.29523476
0.2950941
0.29498409
0.30106245
0.30167471
0.30206581
0.30255852
0.30240103
0.3022739
0.30210835
0.30214488
0.30176534
0.30177098
0.30177098
0.30176534
0.30214488
0.30210836
0.30227393
0.30240108
0.30255858
0.30206588
0.3016748
0.30106256
0.30633352
0.30775784
0.30854859
0.30925328
0.30914443
0.30900568
0.30882809
0.308902
0.30847902
0.30849767
0.30849767
0.30847902
0.308902
0.3088281
0.30900571
0.30914448
0.30925335
0.30854867
0.30775795
0.30633367
0.31007588
0.31279052
0.31420702
0.31521658
0.3151988
0.3150575
0.31488355
0.31500971
0.31456571
0.31460374
0.31460374
0.31456571
0.31500972
0.31488358
0.31505754
0.31519886
0.31521667
0.31420712
0.31279068
0.31007611
0.31114662
0.31589867
0.31830404
0.31977309
0.31990585
0.31979257
0.31965378
0.31985098
0.31941663
0.31948231
0.31948231
0.31941664
0.31985099
0.31965381
0.31979263
0.31990593
0.3197732
0.31830419
0.31589892
0.311147
0.30773112
0.31567229
0.31968306
0.32185845
0.32224265
0.32221408
0.32216868
0.32246171
0.32207543
0.32217938
0.32217939
0.32207545
0.32246174
0.32216874
0.32221417
0.32224277
0.32185862
0.3196833
0.31567271
0.30773176
0.29699766
0.30987473
0.31648858
0.31975774
0.32060814
0.32076304
0.32087206
0.32130723
0.3210162
0.32117184
0.32117185
0.32101624
0.32130729
0.32087216
0.32076318
0.32060833
0.31975801
0.31648897
0.30987543
0.29699872
0.27491652
0.29507687
0.30584826
0.31080787
0.31249059
0.31300904
0.31334462
0.3139702
0.31383246
0.31405633
0.31405634
0.31383252
0.3139703
0.31334478
0.31300926
0.31249089
0.31080829
0.30584889
0.29507801
0.27491821
0.23697875
0.26679627
0.28361755
0.2910959
0.29412903
0.29529247
0.2960363
0.29686261
0.29693902
0.29724628
0.29724631
0.29693912
0.29686278
0.29603656
0.29529281
0.29412949
0.29109655
0.28361853
0.26679802
0.23698111
0.18186581
0.22132649
0.24513396
0.25580612
0.26079936
0.26298811
0.26433075
0.26544427
0.26576602
0.26615377
0.26615382
0.26576616
0.26544452
0.26433111
0.26298859
0.2608
0.25580702
0.2451353
0.2213287
0.18186828
0.11413395
0.16114147
0.18902911
0.20230162
0.20932418
0.21290708
0.21488777
0.21632072
0.21682471
0.21724106
0.21724112
0.21682488
0.21632102
0.21488819
0.21290764
0.20932492
0.20230264
0.18903053
0.16114343
0.11413548
0.033861455
0.094187946
0.12182887
0.13664884
0.14335576
0.14859515
0.15058932
0.15221666
0.15272704
0.15306905
0.1530691
0.15272718
0.15221691
0.15058966
0.14859561
0.14335634
0.13664961
0.12182984
0.094189034
0.03386191
1e-150
1e-150
0.044561013
0.063832112
0.072431186
0.07561173
0.076776216
0.082445445
0.082790162
0.082991227
0.082991252
0.082790235
0.082445572
0.076776389
0.075611955
0.072431476
0.063832465
0.044561362
1e-150
1e-150
1e-150
1e-150
1e-150
1e-150
1e-150
1e-150
1e-150
1e-150
1e-150
1e-150
1e-150
1e-150
1e-150
1e-150
1e-150
1e-150
1e-150
1e-150
1e-150
1e-150
1e-150
1e-150
1e-150
1e-150
1e-150
1e-150
1e-150
1e-150
1e-150
1e-150
1e-150
1e-150
1e-150
1e-150
1e-150
1e-150
1e-150
1e-150
1e-150
1e-150
1e-150
1e-150
1e-150
1e-150
1e-150
1e-150
1e-150
1e-150
1e-150
1e-150
1e-150
1e-150
1e-150
1e-150
1e-150
1e-150
1e-150
1e-150
1e-150
1e-150
)
;

boundaryField
{
    Wall
    {
        type            zeroGradient;
    }
    frontAndBack
    {
        type            empty;
    }
    atmosphere
    {
        type            zeroGradient;
    }
}


// ************************************************************************* //
