/*--------------------------------*- C++ -*----------------------------------*\
| =========                 |                                                 |
| \\      /  F ield         | OpenFOAM: The Open Source CFD Toolbox           |
|  \\    /   O peration     | Version:  3.0.1                                 |
|   \\  /    A nd           | Web:      www.OpenFOAM.org                      |
|    \\/     M anipulation  |                                                 |
\*---------------------------------------------------------------------------*/
FoamFile
{
    version     2.0;
    format      ascii;
    class       volScalarField;
    location    "35";
    object      XW;
}
// * * * * * * * * * * * * * * * * * * * * * * * * * * * * * * * * * * * * * //

dimensions      [0 0 0 0 0 0 0];

internalField   nonuniform List<scalar> 
800
(
0.85412325
0.85416713
0.85417555
0.85417648
0.85417639
0.85417631
0.85417634
0.85417642
0.8541765
0.85417654
0.85417654
0.8541765
0.85417642
0.85417634
0.85417631
0.85417639
0.85417648
0.85417555
0.85416713
0.85412325
0.84865441
0.84898389
0.84908121
0.84911325
0.84912381
0.84912703
0.8491278
0.84912785
0.84912777
0.84912769
0.8491277
0.84912776
0.84912785
0.84912779
0.84912703
0.8491238
0.84911323
0.84908119
0.84898387
0.84865437
0.84281496
0.84336486
0.84355644
0.84362073
0.84364223
0.84364886
0.84365047
0.84365061
0.84365044
0.84365031
0.84365031
0.84365043
0.8436506
0.84365046
0.84364884
0.84364221
0.8436207
0.84355641
0.84336482
0.84281489
0.83739464
0.83814103
0.83841638
0.83850912
0.83854027
0.83854999
0.83855244
0.83855271
0.83855251
0.83855233
0.83855233
0.8385525
0.8385527
0.83855242
0.83854996
0.83854025
0.83850909
0.83841633
0.83814098
0.83739455
0.83243038
0.83335229
0.83370184
0.83381909
0.83385825
0.83387046
0.83387364
0.83387409
0.83387391
0.83387374
0.83387374
0.8338739
0.83387408
0.83387362
0.83387043
0.83385822
0.83381905
0.83370179
0.83335222
0.83243028
0.82793185
0.82900598
0.82942167
0.82955951
0.82960468
0.82961843
0.82962196
0.82962244
0.82962225
0.82962207
0.82962207
0.82962225
0.82962243
0.82962194
0.8296184
0.82960464
0.82955947
0.82942162
0.8290059
0.82793174
0.82392819
0.82512934
0.82560354
0.82575822
0.8258073
0.82582146
0.82582478
0.82582501
0.82582468
0.82582444
0.82582444
0.82582467
0.82582499
0.82582476
0.82582143
0.82580726
0.82575817
0.82560348
0.82512927
0.82392809
0.82045026
0.82175282
0.82227755
0.82244548
0.82249644
0.82250983
0.82251232
0.82251196
0.82251134
0.82251097
0.82251097
0.82251133
0.82251195
0.8225123
0.8225098
0.8224964
0.82244544
0.82227749
0.82175276
0.82045017
0.81752538
0.8189043
0.81947085
0.81964873
0.81969964
0.81971112
0.81971214
0.81971085
0.81970976
0.81970918
0.81970918
0.81970975
0.81971084
0.81971212
0.81971109
0.81969961
0.81964869
0.8194708
0.81890424
0.81752529
0.81517596
0.81660759
0.81720616
0.817391
0.8174401
0.81744855
0.81744747
0.81744488
0.81744313
0.81744225
0.81744225
0.81744312
0.81744487
0.81744746
0.81744853
0.81744007
0.81739096
0.81720612
0.81660754
0.81517589
0.81341474
0.8148785
0.81549843
0.81568791
0.8157338
0.81573829
0.81573457
0.81573035
0.81572778
0.81572653
0.81572653
0.81572777
0.81573034
0.81573455
0.81573827
0.81573377
0.81568788
0.8154984
0.81487845
0.81341468
0.81225426
0.81373322
0.81436251
0.81455456
0.81459581
0.81459532
0.81458831
0.81458206
0.81457846
0.81457674
0.81457674
0.81457845
0.81458205
0.81458829
0.81459531
0.81459579
0.81455454
0.81436248
0.81373319
0.81225422
0.8117014
0.81318216
0.81380873
0.81400219
0.81403751
0.81403121
0.81402039
0.81401178
0.81400699
0.81400472
0.81400472
0.81400699
0.81401177
0.81402038
0.8140312
0.8140375
0.81400218
0.81380871
0.81318214
0.81170138
0.81175456
0.81322812
0.81384106
0.8140356
0.81406344
0.81405072
0.81403568
0.81402443
0.81401825
0.81401536
0.81401536
0.81401825
0.81402442
0.81403568
0.81405071
0.81406343
0.8140356
0.81384106
0.81322812
0.81175456
0.81240675
0.81386782
0.8144591
0.81465506
0.81467334
0.81465381
0.81463431
0.81462023
0.81461214
0.81460858
0.81460858
0.81461214
0.81462023
0.81463431
0.81465381
0.81467334
0.81465507
0.81445911
0.81386783
0.81240676
0.81363799
0.81508624
0.81565239
0.81585092
0.81585703
0.81583069
0.81580677
0.81578986
0.8157786
0.81577433
0.81577433
0.8157786
0.81578986
0.81580678
0.8158307
0.81585704
0.81585094
0.81565241
0.81508627
0.81363801
0.81541811
0.81685863
0.81740226
0.8176054
0.81759654
0.81756411
0.81753595
0.81751642
0.81749943
0.81749442
0.81749443
0.81749943
0.81751642
0.81753595
0.81756413
0.81759656
0.81760543
0.81740229
0.81685867
0.81541815
0.81770146
0.81914686
0.81967721
0.81988859
0.81986297
0.81982601
0.81979342
0.81977171
0.81974487
0.81973909
0.81973909
0.81974487
0.81977171
0.81979343
0.81982603
0.819863
0.81988863
0.81967725
0.81914691
0.81770152
0.82042514
0.8218986
0.82243137
0.82265746
0.82261583
0.82257617
0.82253825
0.82251528
0.82247275
0.82246622
0.82246622
0.82247275
0.82251529
0.82253826
0.82257619
0.82261586
0.82265751
0.82243143
0.82189866
0.8204252
0.82350538
0.82504482
0.82560201
0.8258537
0.82579968
0.82575859
0.82571342
0.82569072
0.82562506
0.82561788
0.82561789
0.82562507
0.82569072
0.82571343
0.82575862
0.82579972
0.82585375
0.82560207
0.82504489
0.82350545
0.82683373
0.82849522
0.8291062
0.82940055
0.82933994
0.82929839
0.8292433
0.82922307
0.8291255
0.82911806
0.82911807
0.8291255
0.82922307
0.82924332
0.82929842
0.82933998
0.82940061
0.82910626
0.82849529
0.8268338
0.83027269
0.83213623
0.83283952
0.83320055
0.83314042
0.83309968
0.83303242
0.83301778
0.83287879
0.83287192
0.83287193
0.83287879
0.83301779
0.83303244
0.8330997
0.83314046
0.83320061
0.83283958
0.83213631
0.83027277
0.83364199
0.83582003
0.83666783
0.83712634
0.83707517
0.8370373
0.83695722
0.83695249
0.83676371
0.83675874
0.83675875
0.8367637
0.83695249
0.83695723
0.83703733
0.83707521
0.8371264
0.8366679
0.83582011
0.83364208
0.83670312
0.83935152
0.8404162
0.84100977
0.84097935
0.84094752
0.8408563
0.84086737
0.84062383
0.8406228
0.8406228
0.84062383
0.84086737
0.84085631
0.84094755
0.84097939
0.84100983
0.84041627
0.83935161
0.83670322
0.83913155
0.84246839
0.84385313
0.84462742
0.84463673
0.84461515
0.84451663
0.84455127
0.84425299
0.84425901
0.84425902
0.84425298
0.84455127
0.84451664
0.84461518
0.84463677
0.84462749
0.8438532
0.84246849
0.83913167
0.84046385
0.84480293
0.84665891
0.84767335
0.84775212
0.84774736
0.84764769
0.84771596
0.8473694
0.84738706
0.84738707
0.8473694
0.84771597
0.8476477
0.84774739
0.84775217
0.84767342
0.846659
0.84480305
0.840464
0.83999901
0.84581697
0.84837261
0.84971332
0.84990703
0.84993117
0.84984105
0.84995616
0.84957546
0.84961068
0.84961068
0.84957546
0.84995616
0.84984107
0.84993121
0.84990709
0.8497134
0.84837272
0.84581714
0.83999924
0.83662794
0.84468229
0.84829685
0.850103
0.85048165
0.8505581
0.85049737
0.8506767
0.85028393
0.85034423
0.85034423
0.85028393
0.85067671
0.8504974
0.85055815
0.85048173
0.85010312
0.84829701
0.84468253
0.83662829
0.82852785
0.84006857
0.84533776
0.84784517
0.84851582
0.84869523
0.84870004
0.84896688
0.84859178
0.8486873
0.8486873
0.84859179
0.8489669
0.84870009
0.84869532
0.84851593
0.84784533
0.84533799
0.84006895
0.82852843
0.81259941
0.82974409
0.83770961
0.84132192
0.84246142
0.84283786
0.84297741
0.84336562
0.84304654
0.84319141
0.84319142
0.84304656
0.84336566
0.8429775
0.84283798
0.8424616
0.84132217
0.83770998
0.82974473
0.81260039
0.78348141
0.80987074
0.82236546
0.8277809
0.82972717
0.83046437
0.83084669
0.83142732
0.83121648
0.83143112
0.83143113
0.83121654
0.83142741
0.83084684
0.83046457
0.82972745
0.8277813
0.82236607
0.80987184
0.7834831
0.73227384
0.77386866
0.79402886
0.80245706
0.80585856
0.80724044
0.80802947
0.80896379
0.8089381
0.80925272
0.80925275
0.8089382
0.80896395
0.80802972
0.80724077
0.80585902
0.80245771
0.79402987
0.77387051
0.73227666
0.64658969
0.71123892
0.74386677
0.75726657
0.76328819
0.7657722
0.76730914
0.76890934
0.76917151
0.76962415
0.7696242
0.76917167
0.76890961
0.76730954
0.76577274
0.76328892
0.75726762
0.74386839
0.7112419
0.64659392
0.51501503
0.60919927
0.65921924
0.67992935
0.69038572
0.69469699
0.69773036
0.70033718
0.70097717
0.70159027
0.70159035
0.70097741
0.7003376
0.69773097
0.69469781
0.69038682
0.67993091
0.65922161
0.60920334
0.51501988
0.33407113
0.46276333
0.528956
0.5576658
0.57399824
0.58195346
0.58670227
0.59026844
0.59124615
0.59196373
0.59196384
0.59124645
0.59026899
0.58670304
0.58195449
0.5739996
0.55766773
0.52895875
0.46276731
0.33407442
0.10035802
0.27953046
0.3550437
0.39320534
0.40982753
0.42386432
0.42884204
0.43286557
0.43390758
0.43454977
0.43454986
0.43390786
0.43286608
0.42884273
0.42386524
0.40982873
0.39320693
0.35504575
0.27953285
0.10035907
1e-150
1e-150
0.13244441
0.18843062
0.21294287
0.22166945
0.22460904
0.24149024
0.24223452
0.24263711
0.24263716
0.24223467
0.24149051
0.22460941
0.22166993
0.2129435
0.18843139
0.13244519
1e-150
1e-150
1e-150
1e-150
1e-150
1e-150
1e-150
1e-150
1e-150
1e-150
1e-150
1e-150
1e-150
1e-150
1e-150
1e-150
1e-150
1e-150
1e-150
1e-150
1e-150
1e-150
1e-150
1e-150
1e-150
1e-150
1e-150
1e-150
1e-150
1e-150
1e-150
1e-150
1e-150
1e-150
1e-150
1e-150
1e-150
1e-150
1e-150
1e-150
1e-150
1e-150
1e-150
1e-150
1e-150
1e-150
1e-150
1e-150
1e-150
1e-150
1e-150
1e-150
1e-150
1e-150
1e-150
1e-150
1e-150
1e-150
1e-150
1e-150
1e-150
1e-150
)
;

boundaryField
{
    Wall
    {
        type            zeroGradient;
    }
    frontAndBack
    {
        type            empty;
    }
    atmosphere
    {
        type            zeroGradient;
    }
}


// ************************************************************************* //
