/*--------------------------------*- C++ -*----------------------------------*\
| =========                 |                                                 |
| \\      /  F ield         | OpenFOAM: The Open Source CFD Toolbox           |
|  \\    /   O peration     | Version:  3.0.1                                 |
|   \\  /    A nd           | Web:      www.OpenFOAM.org                      |
|    \\/     M anipulation  |                                                 |
\*---------------------------------------------------------------------------*/
FoamFile
{
    version     2.0;
    format      ascii;
    class       volScalarField;
    location    "4";
    object      mOne;
}
// * * * * * * * * * * * * * * * * * * * * * * * * * * * * * * * * * * * * * //

dimensions      [0 0 0 0 0 0 0];

internalField   nonuniform List<scalar> 
800
(
0.00026763605
0.00026763605
0.00026763605
0.00026763605
0.00026763605
0.00026763605
0.00026763605
0.00026763605
0.00026763605
0.00026763605
0.00026763605
0.00026763605
0.00026763605
0.00026763605
0.00026763605
0.00026763605
0.00026763605
0.00026763605
0.00026763605
0.00026763605
0.00026763605
0.00026763605
0.00026763605
0.00026763605
0.00026763605
0.00026763605
0.00026763605
0.00026763605
0.00026763605
0.00026763605
0.00026763605
0.00026763605
0.00026763605
0.00026763605
0.00026763605
0.00026763605
0.00026763605
0.00026763605
0.00026763605
0.00026763605
3.1064892e-06
3.1875503e-06
3.1958694e-06
3.1974934e-06
3.1977918e-06
3.1978303e-06
3.1978261e-06
3.1978179e-06
3.1978126e-06
3.19781e-06
3.1978103e-06
3.1978124e-06
3.1978183e-06
3.197826e-06
3.1978297e-06
3.1977915e-06
3.1974927e-06
3.1958683e-06
3.187549e-06
3.1064894e-06
2.0662435e-08
3.1987641e-08
3.5540286e-08
3.6484675e-08
3.66901e-08
3.6723512e-08
3.6724643e-08
3.6721886e-08
3.6719817e-08
3.6718849e-08
3.6718865e-08
3.671984e-08
3.6721921e-08
3.6724659e-08
3.6723484e-08
3.6690025e-08
3.6484537e-08
3.5540101e-08
3.1987429e-08
2.0662328e-08
1.1574765e-10
3.4847202e-10
4.4866107e-10
4.7728878e-10
4.8360738e-10
4.8462515e-10
4.8464748e-10
4.8455326e-10
4.8448347e-10
4.8445081e-10
4.8445124e-10
4.8448428e-10
4.8455425e-10
4.84648e-10
4.8462445e-10
4.8360492e-10
4.7728446e-10
4.486554e-10
3.4846618e-10
1.1574568e-10
5.9674415e-13
3.4308244e-12
5.1057016e-12
5.625284e-12
5.7419977e-12
5.760627e-12
5.7607878e-12
5.7588395e-12
5.7574095e-12
5.7567352e-12
5.7567428e-12
5.7574238e-12
5.7588572e-12
5.7607984e-12
5.760615e-12
5.741951e-12
5.6252021e-12
5.1055961e-12
3.4307289e-12
5.9672555e-13
2.6513048e-15
2.8379806e-14
4.8629757e-14
5.5451186e-14
5.7016115e-14
5.7266256e-14
5.7266815e-14
5.723883e-14
5.7218213e-14
5.720839e-14
5.7208489e-14
5.7218382e-14
5.7239036e-14
5.7266942e-14
5.7266111e-14
5.7015503e-14
5.5450117e-14
4.8628411e-14
2.8378733e-14
2.651188e-15
1.0004409e-17
1.964085e-16
3.8652703e-16
4.5593666e-16
4.7222426e-16
4.748529e-16
4.7486001e-16
4.7456088e-16
4.7433793e-16
4.7423047e-16
4.7423131e-16
4.743392e-16
4.745624e-16
4.7486074e-16
4.7485118e-16
4.7221814e-16
4.5592628e-16
3.8651441e-16
1.9639973e-16
1.0003878e-17
3.248548e-20
1.1590222e-18
2.6150243e-18
3.1898461e-18
3.3278898e-18
3.3505011e-18
3.35069e-18
3.3481754e-18
3.3462693e-18
3.3453403e-18
3.3453453e-18
3.3462744e-18
3.3481804e-18
3.350688e-18
3.3504816e-18
3.3278382e-18
3.1897656e-18
2.6149319e-18
1.1589665e-18
3.2483621e-20
9.2435939e-23
5.9576757e-21
1.5391535e-20
1.9410587e-20
2.0398382e-20
2.0563035e-20
2.0565864e-20
2.0548484e-20
2.0535044e-20
2.0528425e-20
2.0528442e-20
2.0535026e-20
2.0548444e-20
2.0565768e-20
2.0562834e-20
2.0397994e-20
1.9410052e-20
1.539097e-20
5.9573847e-21
9.2430619e-23
2.3418832e-25
2.7157237e-23
8.0263951e-23
1.0463166e-22
1.1075972e-22
1.1180008e-22
1.1182869e-22
1.1172652e-22
1.1164577e-22
1.1160563e-22
1.1160561e-22
1.1164532e-22
1.1172578e-22
1.1182754e-22
1.1179836e-22
1.1075705e-22
1.046284e-22
8.0260829e-23
2.7155888e-23
2.34175e-25
5.3508729e-28
1.1133731e-25
3.7620255e-25
5.0686758e-25
5.4047872e-25
5.4628905e-25
5.4651075e-25
5.4598688e-25
5.455631e-25
5.4535063e-25
5.4535001e-25
5.4555898e-25
5.4598043e-25
5.4650166e-25
5.4627706e-25
5.404621e-25
5.0684895e-25
3.7618623e-25
1.1133141e-25
5.3505592e-28
1.113977e-30
4.1512876e-28
1.6028849e-27
2.2318476e-27
2.3972706e-27
2.4263646e-27
2.427775e-27
2.4253865e-27
2.4234064e-27
2.4224063e-27
2.4224012e-27
2.4233803e-27
2.4253457e-27
2.4277189e-27
2.4262935e-27
2.397177e-27
2.2317474e-27
1.6028028e-27
4.1510379e-28
1.113905e-30
2.1308391e-33
1.4204038e-30
6.2649407e-30
9.01443e-30
9.7535207e-30
9.8856284e-30
9.8933052e-30
9.8834795e-30
9.8751212e-30
9.870871e-30
9.8708433e-30
9.8749879e-30
9.8832711e-30
9.8930194e-30
9.8852673e-30
9.7530528e-30
9.0139374e-30
6.2645547e-30
1.4203031e-30
2.1306789e-33
3.7710116e-36
4.4929548e-33
2.2631321e-32
3.3648635e-32
3.6674374e-32
3.722339e-32
3.7260131e-32
3.7223239e-32
3.7190995e-32
3.7174502e-32
3.717438e-32
3.7190422e-32
3.7222339e-32
3.725888e-32
3.7221792e-32
3.6672301e-32
3.3646464e-32
2.2629671e-32
4.492581e-33
3.7706791e-36
6.2105835e-39
1.3219705e-35
7.6030728e-35
1.1680611e-34
1.2824306e-34
1.3034736e-34
1.3050496e-34
1.303774e-34
1.3026268e-34
1.3020368e-34
1.3020322e-34
1.3026051e-34
1.3037397e-34
1.3050013e-34
1.3034111e-34
1.2823491e-34
1.167976e-34
7.6024434e-35
1.3218456e-35
6.2099583e-39
9.5661561e-42
3.6370826e-38
2.3880822e-37
3.7908036e-37
4.1925013e-37
4.2673703e-37
4.2735156e-37
4.2694239e-37
4.2656308e-37
4.2636704e-37
4.2636549e-37
4.265556e-37
4.269305e-37
4.2733461e-37
4.2671503e-37
4.1922135e-37
3.7905049e-37
2.3878674e-37
3.6367081e-38
9.5651003e-42
1.3840152e-44
9.3989286e-41
7.0446532e-40
1.1554123e-39
1.2872201e-39
1.3120832e-39
1.3142845e-39
1.3130597e-39
1.3118872e-39
1.3112781e-39
1.311273e-39
1.3118629e-39
1.3130215e-39
1.31423e-39
1.3120127e-39
1.2871279e-39
1.1553175e-39
7.0439899e-40
9.3979114e-41
1.3838537e-44
1.8878672e-47
2.2903019e-43
1.9594262e-42
3.3204252e-42
3.7263484e-42
3.8037795e-42
3.8110835e-42
3.807645e-42
3.8042381e-42
3.8024591e-42
3.8024435e-42
3.8041637e-42
3.8075297e-42
3.8109213e-42
3.8035712e-42
3.7260766e-42
3.3201479e-42
1.9592373e-42
2.2900467e-43
1.8876389e-47
2.4359082e-50
5.2805818e-46
5.1564787e-45
9.0281613e-45
1.020617e-44
1.043324e-44
1.0455839e-44
1.0446745e-44
1.04374e-44
1.0432495e-44
1.0432451e-44
1.0437187e-44
1.044642e-44
1.0455388e-44
1.0432666e-44
1.0205419e-44
9.0274007e-45
5.155974e-45
5.2799814e-46
2.435606e-50
2.9817873e-53
1.155465e-48
1.287812e-47
2.3295666e-47
2.6528457e-47
2.7157749e-47
2.7223314e-47
2.7200573e-47
2.7176288e-47
2.7163474e-47
2.7163356e-47
2.7175716e-47
2.7199711e-47
2.7222125e-47
2.7156246e-47
2.6526482e-47
2.3293678e-47
1.2876838e-47
1.1553312e-48
2.9814086e-53
3.4717399e-56
2.4059301e-51
3.060544e-50
5.719978e-50
6.5615171e-50
6.7268537e-50
6.7447754e-50
6.7393834e-50
6.7333852e-50
6.730203e-50
6.730173e-50
6.7332377e-50
6.7391631e-50
6.7444726e-50
6.7264731e-50
6.5610162e-50
5.7194788e-50
3.0602324e-50
2.4056451e-51
3.4712878e-56
3.8537431e-59
4.77861e-54
6.9380697e-53
1.3396918e-52
1.548059e-52
1.5893574e-52
1.593991e-52
1.5927756e-52
1.5913637e-52
1.5906106e-52
1.590603e-52
1.5913268e-52
1.5927208e-52
1.5939158e-52
1.5892634e-52
1.5479356e-52
1.3395704e-52
6.93734e-53
4.7780276e-54
3.8532259e-59
4.0868802e-62
9.0729313e-57
1.5035307e-55
2.9994889e-55
3.4914216e-55
3.5897397e-55
3.6011101e-55
3.5985005e-55
3.5953259e-55
3.593623e-55
3.5936045e-55
3.595237e-55
3.5983688e-55
3.6009296e-55
3.5895147e-55
3.491128e-55
2.9992044e-55
1.5033664e-55
9.071789e-57
4.086313e-62
4.1485393e-65
1.6499269e-59
3.1208082e-58
6.4323476e-58
7.5421765e-58
7.7657643e-58
7.7923267e-58
7.7869806e-58
7.7801488e-58
7.7764646e-58
7.7764227e-58
7.7799473e-58
7.7866816e-58
7.7919161e-58
7.7652531e-58
7.5415119e-58
6.4317119e-58
3.1204547e-58
1.6497124e-59
4.1479435e-65
4.0377269e-68
2.8788382e-62
6.2154229e-61
1.3235485e-60
1.5632877e-60
1.6119572e-60
1.61788e-60
1.6168337e-60
1.6154243e-60
1.6146602e-60
1.6146516e-60
1.6153819e-60
1.616771e-60
1.6177932e-60
1.6118488e-60
1.5631463e-60
1.3234143e-60
6.2147007e-61
2.8784538e-62
4.0371288e-68
3.7739394e-71
4.8272627e-65
1.1896568e-63
2.6173225e-63
3.1140666e-63
3.2156572e-63
3.2282911e-63
3.2263326e-63
3.2235399e-63
3.2220189e-63
3.2220034e-63
3.2234588e-63
3.2262124e-63
3.2281228e-63
3.215445e-63
3.1137855e-63
2.6170562e-63
1.189517e-63
4.8266071e-65
3.7733671e-71
3.3922553e-74
7.7902453e-68
2.1915833e-66
4.9814981e-66
5.9703808e-66
6.1740663e-66
6.1998993e-66
6.1963898e-66
6.1910671e-66
6.1881555e-66
6.1881316e-66
6.1909254e-66
6.196181e-66
6.1996023e-66
6.173686e-66
5.9698623e-66
4.9810049e-66
2.1913293e-66
7.7891909e-68
3.3917379e-74
2.9362008e-77
1.2115747e-70
3.8910268e-69
9.1376201e-69
1.1031802e-68
1.1424662e-68
1.1475389e-68
1.1469366e-68
1.1459594e-68
1.1454226e-68
1.1454195e-68
1.1459368e-68
1.1469038e-68
1.1474916e-68
1.1424047e-68
1.1030927e-68
9.1367824e-69
3.8906017e-69
1.2114177e-70
2.9357658e-77
2.4502433e-80
1.8181672e-73
6.6661955e-72
1.6173895e-71
1.966977e-71
2.0399719e-71
2.0495539e-71
2.0485638e-71
2.0468337e-71
2.0458793e-71
2.0458766e-71
2.046801e-71
2.0485185e-71
2.049488e-71
2.0398856e-71
1.9668461e-71
1.6172636e-71
6.6655614e-72
1.8179566e-73
2.4499108e-80
1.9735188e-83
2.6357013e-76
1.1033047e-74
2.7656731e-74
3.388106e-74
3.5189273e-74
3.5363646e-74
3.5348072e-74
3.5318503e-74
3.5302119e-74
3.530213e-74
3.5318094e-74
3.5347572e-74
3.5362927e-74
3.5188343e-74
3.3879445e-74
2.7655182e-74
1.1032256e-74
2.6354588e-76
1.9732959e-83
1.535777e-86
3.6948301e-79
1.765937e-77
4.5735227e-77
5.6438931e-77
5.8703109e-77
5.9009234e-77
5.898583e-77
5.8937011e-77
5.890985e-77
5.8909982e-77
5.8936659e-77
5.8985588e-77
5.9008928e-77
5.8702781e-77
5.643771e-77
4.5734077e-77
1.7658703e-77
3.6946205e-79
1.5356564e-86
1.1558025e-89
5.0136315e-82
2.7361665e-80
7.3213334e-80
9.1010289e-80
9.4798742e-80
9.5317868e-80
9.5284366e-80
9.5206462e-80
9.5162955e-80
9.5163392e-80
9.5206546e-80
9.5285156e-80
9.5319162e-80
9.4800706e-80
9.1011383e-80
7.3214472e-80
2.7361877e-80
5.0135863e-82
1.1557662e-89
8.4196073e-93
6.5911851e-85
4.1076401e-83
1.1355711e-82
1.4219618e-82
1.4833061e-82
1.4918193e-82
1.4913645e-82
1.4901617e-82
1.4894875e-82
1.4894981e-82
1.4901743e-82
1.4913975e-82
1.4918716e-82
1.4833829e-82
1.4220372e-82
1.1356466e-82
4.1079102e-83
6.5915309e-85
8.419859e-93
5.9416932e-96
8.402216e-88
5.9798776e-86
1.7080134e-85
2.1544658e-85
2.2506848e-85
2.2642002e-85
2.2636183e-85
2.2618191e-85
2.2608062e-85
2.2608276e-85
2.261854e-85
2.2636987e-85
2.2643295e-85
2.2508773e-85
2.1546818e-85
1.7082312e-85
5.9806962e-86
8.4032982e-88
5.9423256e-96
4.0651005e-99
1.0394032e-90
8.4485928e-89
2.4932396e-88
3.1680308e-88
3.3143523e-88
3.3351445e-88
3.3344492e-88
3.3318363e-88
3.3303571e-88
3.3303941e-88
3.3319042e-88
3.3346019e-88
3.3353984e-88
3.3147455e-88
3.1685106e-88
2.493733e-88
8.4504656e-89
1.0396327e-90
4.0659091e-99
2.6982547e-102
1.248677e-93
1.1592754e-91
3.5346959e-91
4.5243715e-91
4.7402874e-91
4.7713102e-91
4.7705451e-91
4.7668517e-91
4.7647451e-91
4.7647992e-91
4.7669531e-91
4.7707823e-91
4.7717289e-91
4.7409809e-91
4.5252916e-91
3.535676e-91
1.1596481e-91
1.2490893e-93
2.6990878e-102
1.7387065e-105
1.4577484e-96
1.5459423e-94
4.8702663e-94
6.2798066e-94
6.5892271e-94
6.6341574e-94
6.6333971e-94
6.6282959e-94
6.6253583e-94
6.625423e-94
6.6284041e-94
6.6336855e-94
6.6347263e-94
6.5902951e-94
6.2813933e-94
4.8720517e-94
1.5466233e-94
1.4584211e-96
1.7394723e-105
1.0882964e-108
1.6547884e-99
2.0048106e-97
6.5259224e-97
8.4768407e-97
8.9078443e-97
8.9710688e-97
8.9704073e-97
8.9634802e-97
8.9594507e-97
8.9595059e-97
8.9635178e-97
8.9706155e-97
8.971627e-97
8.9092498e-97
8.479361e-97
6.5289858e-97
2.0059893e-97
1.6558227e-99
1.0889582e-108
6.6201512e-112
1.8275407e-102
2.5297411e-100
8.5089535e-100
1.1134859e-99
1.1718804e-99
1.1805354e-99
1.1804892e-99
1.1795644e-99
1.1790184e-99
1.1790188e-99
1.1795467e-99
1.1804737e-99
1.1805542e-99
1.1720368e-99
1.1138598e-99
8.5139735e-100
2.5316798e-100
1.8290564e-102
6.6255302e-112
)
;

boundaryField
{
    Wall
    {
        type            zeroGradient;
    }
    frontAndBack
    {
        type            empty;
    }
    atmosphere
    {
        type            zeroGradient;
    }
}


// ************************************************************************* //
