/*--------------------------------*- C++ -*----------------------------------*\
| =========                 |                                                 |
| \\      /  F ield         | OpenFOAM: The Open Source CFD Toolbox           |
|  \\    /   O peration     | Version:  3.0.1                                 |
|   \\  /    A nd           | Web:      www.OpenFOAM.org                      |
|    \\/     M anipulation  |                                                 |
\*---------------------------------------------------------------------------*/
FoamFile
{
    version     2.0;
    format      ascii;
    class       volScalarField;
    location    "4";
    object      mTwo;
}
// * * * * * * * * * * * * * * * * * * * * * * * * * * * * * * * * * * * * * //

dimensions      [0 0 0 0 0 0 0];

internalField   nonuniform List<scalar> 
800
(
2.7892964e-22
2.7892964e-22
2.7892964e-22
2.7892964e-22
2.7892964e-22
2.7892964e-22
2.7892964e-22
2.7892964e-22
2.7892964e-22
2.7892964e-22
2.7892964e-22
2.7892964e-22
2.7892964e-22
2.7892964e-22
2.7892964e-22
2.7892964e-22
2.7892964e-22
2.7892964e-22
2.7892964e-22
2.7892964e-22
2.7892964e-22
2.7892964e-22
2.7892964e-22
2.7892964e-22
2.7892964e-22
2.7892964e-22
2.7892964e-22
2.7892964e-22
2.7892964e-22
2.7892964e-22
2.7892964e-22
2.7892964e-22
2.7892964e-22
2.7892964e-22
2.7892964e-22
2.7892964e-22
2.7892964e-22
2.7892964e-22
2.7892964e-22
2.7892964e-22
3.2373242e-24
3.3220246e-24
3.3307563e-24
3.3324636e-24
3.3327775e-24
3.332818e-24
3.3328136e-24
3.3328049e-24
3.3327994e-24
3.3327967e-24
3.332797e-24
3.3327992e-24
3.3328054e-24
3.3328135e-24
3.3328173e-24
3.3327772e-24
3.3324629e-24
3.3307551e-24
3.3220232e-24
3.2373244e-24
2.0888144e-26
3.2453284e-26
3.6096454e-26
3.7066834e-26
3.7278251e-26
3.7312745e-26
3.731398e-26
3.7311183e-26
3.7309076e-26
3.7308089e-26
3.7308106e-26
3.73091e-26
3.7311219e-26
3.7313995e-26
3.7312716e-26
3.7278174e-26
3.7066694e-26
3.6096264e-26
3.245307e-26
2.0888037e-26
1.0995983e-28
3.3599738e-28
4.3403805e-28
4.6212083e-28
4.6832937e-28
4.6933298e-28
4.693574e-28
4.6926631e-28
4.6919859e-28
4.6916685e-28
4.6916727e-28
4.6919937e-28
4.6926727e-28
4.693579e-28
4.6933229e-28
4.68327e-28
4.6211665e-28
4.3403253e-28
3.3599176e-28
1.0995797e-28
5.1919245e-31
3.0776289e-30
4.6071543e-30
5.0830209e-30
5.190071e-30
5.207219e-30
5.2074127e-30
5.2056545e-30
5.20436e-30
5.2037488e-30
5.2037558e-30
5.2043728e-30
5.2056706e-30
5.2074219e-30
5.2072079e-30
5.1900288e-30
5.082947e-30
4.6070586e-30
3.0775434e-30
5.1917642e-31
2.0627947e-33
2.3184927e-32
4.0068853e-32
4.5775412e-32
4.7086185e-32
4.7296405e-32
4.729744e-32
4.7274369e-32
4.7257324e-32
4.7249195e-32
4.7249276e-32
4.7257462e-32
4.727454e-32
4.729754e-32
4.729628e-32
4.7085679e-32
4.577453e-32
4.0067739e-32
2.3184054e-32
2.0627049e-33
6.7976935e-36
1.4298885e-34
2.8457824e-34
3.364676e-34
3.4865602e-34
3.506289e-34
3.5063922e-34
3.5041876e-34
3.5025401e-34
3.5017453e-34
3.5017515e-34
3.5025493e-34
3.5041989e-34
3.5063972e-34
3.5062759e-34
3.4865148e-34
3.3645994e-34
2.845689e-34
1.4298248e-34
6.7973373e-36
1.8828632e-38
7.357953e-37
1.6835611e-36
2.0593545e-36
2.1496724e-36
2.1645034e-36
2.164661e-36
2.1630396e-36
2.1618074e-36
2.1612064e-36
2.1612096e-36
2.1618105e-36
2.1630429e-36
2.1646595e-36
2.1644905e-36
2.149639e-36
2.0593025e-36
1.6835013e-36
7.3576e-37
1.8827569e-38
4.4655169e-41
3.2282496e-39
8.4823659e-39
1.0731744e-38
1.1284938e-38
1.137734e-38
1.1379113e-38
1.1369515e-38
1.1362074e-38
1.1358407e-38
1.1358417e-38
1.1362064e-38
1.1369493e-38
1.1379058e-38
1.1377227e-38
1.1284722e-38
1.0731448e-38
8.4820522e-39
3.2280921e-39
4.4652627e-41
9.2178245e-44
1.2298559e-41
3.7080628e-41
4.8514947e-41
5.1391944e-41
5.1881217e-41
5.1895526e-41
5.1848209e-41
5.1810715e-41
5.1792065e-41
5.1792059e-41
5.1810504e-41
5.184787e-41
5.189499e-41
5.1880416e-41
5.1390702e-41
4.8513431e-41
3.7079175e-41
1.2297948e-41
9.2173034e-44
1.6781614e-46
4.1274701e-44
1.427235e-43
1.9308421e-43
2.0604423e-43
2.0828782e-43
2.0837685e-43
2.0817753e-43
2.0801585e-43
2.0793476e-43
2.0793452e-43
2.0801429e-43
2.0817508e-43
2.0837336e-43
2.0828322e-43
2.0603788e-43
1.930771e-43
1.4271726e-43
4.127251e-44
1.6780631e-46
2.7233828e-49
1.2343026e-46
4.8933363e-46
6.8445204e-46
7.3579053e-46
7.4483047e-46
7.4528079e-46
7.4454925e-46
7.4394105e-46
7.436337e-46
7.4363216e-46
7.4393302e-46
7.4453677e-46
7.452635e-46
7.4480853e-46
7.3576177e-46
6.8442126e-46
4.8930841e-46
1.2342282e-46
2.7232061e-49
3.973994e-52
3.3195131e-49
1.5084725e-48
2.1814088e-48
2.3623723e-48
2.3947501e-48
2.3966698e-48
2.3942954e-48
2.3922695e-48
2.3912388e-48
2.3912321e-48
2.3922372e-48
2.3942451e-48
2.3966003e-48
2.3946623e-48
2.3622589e-48
2.1812895e-48
1.508379e-48
3.3192773e-49
3.973694e-52
5.2519797e-55
8.0897886e-52
4.2133408e-51
6.2989903e-51
6.8720189e-51
6.9760785e-51
6.9831516e-51
6.9762561e-51
6.9702098e-51
6.9671155e-51
6.9670927e-51
6.9701024e-51
6.9760879e-51
6.9829162e-51
6.975778e-51
6.8716302e-51
6.2985836e-51
4.2130325e-51
8.0891149e-52
5.2515154e-55
6.3246543e-58
1.7978947e-54
1.0731376e-53
1.6585671e-53
1.8228465e-53
1.8530927e-53
1.8553865e-53
1.8535783e-53
1.8519464e-53
1.8511067e-53
1.8511003e-53
1.8519156e-53
1.8535297e-53
1.8553175e-53
1.8530036e-53
1.8227305e-53
1.6584461e-53
1.0730485e-53
1.7977247e-54
6.3240173e-58
6.9762422e-61
3.6634494e-57
2.5059914e-56
4.0038996e-56
4.4330748e-56
4.5131095e-56
4.5197464e-56
4.5154331e-56
4.5114194e-56
4.5093438e-56
4.5093275e-56
4.5113402e-56
4.5153077e-56
4.5195664e-56
4.5128759e-56
4.4327704e-56
4.003584e-56
2.5057652e-56
3.6630721e-57
6.9754733e-61
7.0797891e-64
6.8757048e-60
5.3903502e-59
8.903123e-59
9.930475e-59
1.0124354e-58
1.0141667e-58
1.0132251e-58
1.0123198e-58
1.0118493e-58
1.0118455e-58
1.0123011e-58
1.0131956e-58
1.0141245e-58
1.0123808e-58
9.9297634e-59
8.9023919e-59
5.389841e-59
6.8749606e-60
7.0789647e-64
6.6362617e-67
1.1933814e-62
1.0722931e-61
1.8308753e-61
2.0572772e-61
2.10048e-61
2.1045854e-61
2.1026942e-61
2.1008119e-61
2.0998284e-61
2.0998199e-61
2.1007708e-61
2.1026307e-61
2.1044954e-61
2.1003646e-61
2.057127e-61
1.8307222e-61
1.0721894e-61
1.1932484e-62
6.6354621e-67
5.7651683e-70
1.9221601e-65
1.9796651e-64
3.4942708e-64
3.9554644e-64
4.0443895e-64
4.0532963e-64
4.0497865e-64
4.0461622e-64
4.0442586e-64
4.0442417e-64
4.0460797e-64
4.049661e-64
4.0531205e-64
4.044166e-64
3.9551729e-64
3.4939761e-64
1.9794706e-64
1.9219416e-65
5.7644562e-70
4.6557602e-73
2.8818885e-68
3.4024191e-67
6.2083101e-67
7.0798077e-67
7.2494926e-67
7.2672713e-67
7.261231e-67
7.2547451e-67
7.2513206e-67
7.2512895e-67
7.2545923e-67
7.2610014e-67
7.2669523e-67
7.2490895e-67
7.0792799e-67
6.2077798e-67
3.4020793e-67
2.8815547e-68
4.6551722e-73
3.5044062e-76
4.0328804e-71
5.4585925e-70
1.0296491e-69
1.182891e-69
1.2130039e-69
1.2162843e-69
1.2153174e-69
1.2142352e-69
1.2136608e-69
1.2136554e-69
1.2142086e-69
1.2152777e-69
1.2162294e-69
1.2129349e-69
1.1828006e-69
1.0295591e-69
5.4580347e-70
4.0324028e-71
3.5039527e-76
2.4643932e-79
5.2801249e-74
8.1943579e-73
1.5978999e-72
1.8493231e-72
1.8991623e-72
1.9047792e-72
1.9033358e-72
1.9016479e-72
1.900747e-72
1.900738e-72
1.9016038e-72
1.9032704e-72
1.9046889e-72
1.8990494e-72
1.8491756e-72
1.597755e-72
8.1934929e-73
5.2794816e-74
2.4640647e-79
1.6225279e-82
6.4816988e-77
1.1535044e-75
2.3253256e-75
2.7111597e-75
2.7882809e-75
2.797236e-75
2.795223e-75
2.792756e-75
2.7914319e-75
2.7914176e-75
2.792687e-75
2.7951209e-75
2.7970952e-75
2.7881053e-75
2.7109315e-75
2.3251048e-75
1.1533779e-75
6.4808829e-77
1.6223043e-82
1.0020247e-85
7.4743661e-80
1.5255329e-78
3.1792175e-78
3.734221e-78
3.8460411e-78
3.8593744e-78
3.856747e-78
3.8533621e-78
3.8515355e-78
3.8515149e-78
3.8532624e-78
3.8565993e-78
3.8591702e-78
3.8457869e-78
3.7338917e-78
3.1789031e-78
1.5253596e-78
7.4733947e-80
1.001882e-85
5.8143455e-89
8.1103258e-83
1.8987236e-81
4.0907153e-81
4.8404732e-81
4.9926888e-81
5.0112752e-81
5.0080624e-81
5.0036951e-81
5.0013261e-81
5.0012997e-81
5.0035641e-81
5.0078686e-81
5.0110054e-81
4.9923519e-81
4.840035e-81
4.0903003e-81
1.8985022e-81
8.1092433e-83
5.8134918e-89
3.174797e-92
8.2935636e-86
2.2274204e-84
4.9611635e-84
5.913999e-84
6.1088717e-84
6.1331814e-84
6.1294969e-84
6.1241892e-84
6.1212967e-84
6.1212674e-84
6.1240354e-84
6.1292691e-84
6.1328604e-84
6.1084668e-84
5.913465e-84
4.9606584e-84
2.2271578e-84
8.292438e-86
3.1743204e-92
1.6334779e-95
8.0034118e-89
2.4662475e-87
5.6789392e-87
6.8198451e-87
7.0548462e-87
7.0847365e-87
7.08077e-87
7.0746857e-87
7.0713551e-87
7.071328e-87
7.074524e-87
7.0805321e-87
7.0843954e-87
7.0544096e-87
6.8192526e-87
5.6783767e-87
2.4659608e-87
8.0023297e-89
1.6332316e-95
7.9290661e-99
7.2974526e-92
2.5804629e-90
6.143036e-90
7.4319099e-90
7.6992267e-90
7.7338353e-90
7.7298263e-90
7.7232387e-90
7.7196172e-90
7.7195968e-90
7.7230863e-90
7.7296062e-90
7.7335146e-90
7.6988099e-90
7.4313205e-90
6.1424728e-90
2.5801802e-90
7.2965084e-92
7.9279079e-99
3.635111e-102
6.2936961e-95
2.5542444e-93
6.2864975e-93
7.6619069e-93
7.9490931e-93
7.9868856e-93
7.9830819e-93
7.976338e-93
7.9726148e-93
7.9726048e-93
7.9762108e-93
7.982906e-93
7.9866268e-93
7.9487544e-93
7.6613969e-93
6.2860085e-93
2.5540007e-93
6.2929688e-95
3.6346266e-102
1.5755298e-105
5.1393159e-98
2.3941911e-96
6.0921728e-96
7.4801766e-96
7.7718985e-96
7.8108725e-96
7.8074885e-96
7.8009558e-96
7.7973334e-96
7.7973363e-96
7.8008661e-96
7.8073789e-96
7.8107117e-96
7.7716906e-96
7.4798202e-96
6.0918316e-96
2.3940189e-96
5.1388448e-98
1.5753563e-105
6.4614589e-109
3.9769607e-101
2.1270071e-99
5.5957188e-99
6.9216238e-99
7.2020893e-99
7.2400916e-99
7.2372743e-99
7.2312833e-99
7.2279474e-99
7.2279639e-99
7.2312405e-99
7.2372455e-99
7.2400523e-99
7.2020469e-99
6.9214741e-99
5.5955783e-99
2.1269262e-99
3.9767365e-101
6.4609721e-109
2.5094001e-112
2.918659e-104
1.7923928e-102
4.87529e-102
6.0752788e-102
6.3307156e-102
6.3657888e-102
6.3636013e-102
6.3583976e-102
6.3554891e-102
6.3555186e-102
6.3584036e-102
6.3636549e-102
6.3658739e-102
6.3308449e-102
6.0753519e-102
4.8753659e-102
1.7924061e-102
2.9186337e-104
2.5093304e-112
9.2352051e-116
2.0328359e-107
1.4336831e-105
4.031883e-105
5.0616122e-105
5.2821734e-105
5.3128408e-105
5.3112646e-105
5.3069805e-105
5.304577e-105
5.3046151e-105
5.3070256e-105
5.3113827e-105
5.313026e-105
5.2824454e-105
5.0618808e-105
4.0321511e-105
1.4337769e-105
2.0329433e-107
9.2355179e-116
3.2227491e-119
1.3445373e-110
1.0891665e-108
3.1669716e-108
4.0053676e-108
4.1860543e-108
4.2114801e-108
4.2104337e-108
4.2070866e-108
4.2052007e-108
4.2052409e-108
4.2071521e-108
4.2105838e-108
4.2117196e-108
4.1864112e-108
4.0057693e-108
3.1673754e-108
1.0893152e-108
1.3447109e-110
3.2231061e-119
1.0669437e-122
8.4493868e-114
7.8629865e-112
2.363965e-111
3.0120308e-111
3.1525551e-111
3.1725572e-111
3.171924e-111
3.1694383e-111
3.1680298e-111
3.1680652e-111
3.1695032e-111
3.1720698e-111
3.1727981e-111
3.1529283e-111
3.012487e-111
2.3644328e-111
7.8647261e-112
8.4512543e-114
1.0671609e-122
3.352656e-126
5.0472583e-117
5.3967284e-115
1.6776353e-114
2.1534782e-114
2.2572912e-114
2.2722307e-114
2.2718874e-114
2.2701284e-114
2.2691242e-114
2.2691501e-114
2.2701769e-114
2.2720008e-114
2.2724298e-114
2.2576209e-114
2.1539163e-114
1.6781004e-114
5.3984607e-115
5.0489255e-117
3.3537081e-126
1.0002982e-129
2.8669816e-120
3.522796e-118
1.1323506e-117
1.4643859e-117
1.5372738e-117
1.5478736e-117
1.5477111e-117
1.5465209e-117
1.5458349e-117
1.54585e-117
1.5465463e-117
1.5477787e-117
1.5480061e-117
1.5375227e-117
1.4647561e-117
1.1327656e-117
3.5243455e-118
2.868305e-120
1.0007446e-129
2.8345116e-133
1.5490122e-123
2.1876969e-121
7.2715473e-121
9.4742523e-121
9.9608846e-121
1.0032371e-120
1.0031732e-120
1.0023986e-120
1.0019476e-120
1.0019538e-120
1.0024029e-120
1.0031967e-120
1.0032994e-120
9.9624559e-121
9.477071e-121
7.2749589e-121
2.1889812e-121
1.5499804e-123
2.8362546e-133
7.6298502e-137
7.9621907e-127
1.2927903e-124
4.4436617e-124
5.8333908e-124
6.1424413e-124
6.1883091e-124
6.1881325e-124
6.1832851e-124
6.1804204e-124
6.1804226e-124
6.1831932e-124
6.1880526e-124
6.1884079e-124
6.143262e-124
5.835351e-124
4.4462808e-124
1.2937792e-124
7.9687916e-127
7.6361121e-137
)
;

boundaryField
{
    Wall
    {
        type            zeroGradient;
    }
    frontAndBack
    {
        type            empty;
    }
    atmosphere
    {
        type            zeroGradient;
    }
}


// ************************************************************************* //
