/*--------------------------------*- C++ -*----------------------------------*\
| =========                 |                                                 |
| \\      /  F ield         | OpenFOAM: The Open Source CFD Toolbox           |
|  \\    /   O peration     | Version:  3.0.1                                 |
|   \\  /    A nd           | Web:      www.OpenFOAM.org                      |
|    \\/     M anipulation  |                                                 |
\*---------------------------------------------------------------------------*/
FoamFile
{
    version     2.0;
    format      ascii;
    class       volScalarField;
    location    "4";
    object      mZero;
}
// * * * * * * * * * * * * * * * * * * * * * * * * * * * * * * * * * * * * * //

dimensions      [0 0 0 0 0 0 0];

internalField   nonuniform List<scalar> 
800
(
1e+13
1e+13
1e+13
1e+13
1e+13
1e+13
1e+13
1e+13
1e+13
1e+13
1e+13
1e+13
1e+13
1e+13
1e+13
1e+13
1e+13
1e+13
1e+13
1e+13
1e+13
1e+13
1e+13
1e+13
1e+13
1e+13
1e+13
1e+13
1e+13
1e+13
1e+13
1e+13
1e+13
1e+13
1e+13
1e+13
1e+13
1e+13
1e+13
1e+13
1.160714e+11
1.1910018e+11
1.1941102e+11
1.194717e+11
1.1948285e+11
1.1948429e+11
1.1948413e+11
1.1948382e+11
1.1948363e+11
1.1948353e+11
1.1948354e+11
1.1948362e+11
1.1948384e+11
1.1948413e+11
1.1948426e+11
1.1948284e+11
1.1947167e+11
1.1941098e+11
1.1910014e+11
1.1607141e+11
7.7203503e+08
1.195192e+09
1.3279337e+09
1.3632199e+09
1.3708955e+09
1.3721439e+09
1.3721862e+09
1.3720831e+09
1.3720058e+09
1.3719697e+09
1.3719703e+09
1.3720067e+09
1.3720845e+09
1.3721868e+09
1.3721429e+09
1.3708927e+09
1.3632148e+09
1.3279267e+09
1.1951841e+09
7.7203104e+08
4324819.3
13020376
16763858
17833509
18069598
18107626
18108461
18104940
18102333
18101112
18101128
18102363
18104977
18108480
18107600
18069506
17833347
16763645
13020158
4324745.7
22296.892
128190.05
190770.48
210184.26
214545.17
215241.24
215247.25
215174.45
215121.02
215095.83
215096.11
215121.55
215175.11
215247.64
215240.79
214543.43
210181.2
190766.52
128186.48
22296.197
99.064089
1060.3895
1817.0129
2071.8902
2130.3625
2139.7089
2139.7298
2138.6841
2137.9138
2137.5468
2137.5504
2137.9201
2138.6918
2139.7345
2139.7034
2130.3397
2071.8503
1816.9624
1060.3495
99.059726
0.37380791
7.3386558
14.442287
17.035724
17.644297
17.742515
17.74278
17.731603
17.723273
17.719258
17.719289
17.72332
17.73166
17.742807
17.74245
17.644069
17.035336
14.441814
7.3383281
0.37378806
0.0012137991
0.043306017
0.097708432
0.11918621
0.1243441
0.12518896
0.12519602
0.12510206
0.12503084
0.12499613
0.12499632
0.12503103
0.12510225
0.12519594
0.12518823
0.12434218
0.1191832
0.097704962
0.043303934
0.0012137296
3.4538131e-06
0.00022260431
0.00057509348
0.00072526236
0.00076217058
0.00076832271
0.00076842839
0.000767779
0.00076727685
0.00076702951
0.00076703016
0.00076727617
0.00076777753
0.00076842481
0.00076831518
0.00076215608
0.00072524235
0.00057507226
0.00022259344
3.4536143e-06
8.750315e-09
1.0147114e-06
2.9990054e-06
3.9094872e-06
4.1384573e-06
4.1773297e-06
4.1783986e-06
4.1745812e-06
4.1715641e-06
4.1700642e-06
4.1700636e-06
4.1715471e-06
4.1745537e-06
4.1783558e-06
4.1772657e-06
4.1383576e-06
3.9093652e-06
2.9988883e-06
1.014661e-06
8.7498173e-09
1.9993258e-11
4.1600442e-09
1.4056548e-08
1.8938753e-08
2.0194609e-08
2.0411708e-08
2.0419992e-08
2.0400418e-08
2.0384583e-08
2.0376644e-08
2.0376621e-08
2.0384429e-08
2.0400176e-08
2.0419652e-08
2.041126e-08
2.0193988e-08
1.8938057e-08
1.4055935e-08
4.1598239e-09
1.9992086e-11
4.1623217e-14
1.5511018e-11
5.9890712e-11
8.3391468e-11
8.9572379e-11
9.0659458e-11
9.0712155e-11
9.0622913e-11
9.0548927e-11
9.0511557e-11
9.0511367e-11
9.0547949e-11
9.0621388e-11
9.0710059e-11
9.06568e-11
8.9568882e-11
8.3387724e-11
5.9887633e-11
1.5510085e-11
4.1620524e-14
7.9617868e-17
5.3072502e-14
2.340854e-13
3.368182e-13
3.6443382e-13
3.6936994e-13
3.6965677e-13
3.6928964e-13
3.6897734e-13
3.6881854e-13
3.688175e-13
3.6897236e-13
3.6928186e-13
3.6964609e-13
3.6935645e-13
3.6441634e-13
3.367998e-13
2.3407093e-13
5.3068741e-14
7.9611881e-17
1.4090235e-19
1.6787655e-16
8.4560491e-16
1.2572596e-15
1.3703143e-15
1.3908279e-15
1.3922007e-15
1.3908223e-15
1.3896175e-15
1.3890012e-15
1.3889967e-15
1.3895961e-15
1.3907886e-15
1.392154e-15
1.3907682e-15
1.3702368e-15
1.2571785e-15
8.4554309e-16
1.6786259e-16
1.4088992e-19
2.3205623e-22
4.9394664e-19
2.8408412e-18
4.3643873e-18
4.7917215e-18
4.8703472e-18
4.8762361e-18
4.8714697e-18
4.8671832e-18
4.8649786e-18
4.8649617e-18
4.8671022e-18
4.8713416e-18
4.8760554e-18
4.8701137e-18
4.7914168e-18
4.3640692e-18
2.8406054e-18
4.9389995e-19
2.3203287e-22
3.5743638e-25
1.3589757e-21
8.9229266e-21
1.4164108e-20
1.5665026e-20
1.5944769e-20
1.5967731e-20
1.5952442e-20
1.5938269e-20
1.5930945e-20
1.5930887e-20
1.593799e-20
1.5951998e-20
1.5967097e-20
1.5943947e-20
1.5663951e-20
1.4162992e-20
8.9221218e-21
1.3588357e-21
3.5739693e-25
5.1713344e-28
3.5118595e-24
2.632194e-23
4.3171301e-23
4.8096219e-23
4.9025212e-23
4.9107462e-23
4.90617e-23
4.901789e-23
4.8995131e-23
4.8994942e-23
4.9016981e-23
4.9060271e-23
4.9105428e-23
4.9022578e-23
4.8092775e-23
4.3167758e-23
2.6319455e-23
3.5114795e-24
5.1707307e-28
7.0539706e-31
8.5575961e-27
7.3212864e-26
1.240658e-25
1.3923288e-25
1.4212604e-25
1.4239895e-25
1.4227047e-25
1.4214318e-25
1.4207671e-25
1.4207613e-25
1.421404e-25
1.4226617e-25
1.4239289e-25
1.4211826e-25
1.3922272e-25
1.2405544e-25
7.3205787e-26
8.5566425e-27
7.0531175e-31
9.1017222e-34
1.9730636e-29
1.9266905e-28
3.3733228e-28
3.8134791e-28
3.8983225e-28
3.9067664e-28
3.9033683e-28
3.8998767e-28
3.8980439e-28
3.8980275e-28
3.8997972e-28
3.903247e-28
3.9065978e-28
3.8981081e-28
3.8131983e-28
3.3730386e-28
1.9265014e-28
1.9728393e-29
9.1005927e-34
1.11414e-36
4.3173412e-32
4.8118425e-31
8.7043018e-31
9.9122164e-31
1.0147348e-30
1.0171846e-30
1.0163349e-30
1.0154275e-30
1.0149487e-30
1.0149443e-30
1.0154061e-30
1.0163027e-30
1.0171401e-30
1.0146786e-30
9.9114783e-31
8.7035592e-31
4.8113624e-31
4.3168412e-32
1.1139985e-36
1.2972112e-39
8.9896512e-35
1.143557e-33
2.1372405e-33
2.4516771e-33
2.5134542e-33
2.5201506e-33
2.5181358e-33
2.5158947e-33
2.5147056e-33
2.5146944e-33
2.5158396e-33
2.5180535e-33
2.5200374e-33
2.513312e-33
2.4514899e-33
2.137054e-33
1.1434402e-33
8.9885863e-35
1.2970423e-39
1.4399477e-42
1.7855076e-37
2.5923765e-36
5.0056924e-36
5.7842457e-36
5.9385549e-36
5.9558682e-36
5.951327e-36
5.9460515e-36
5.9432374e-36
5.9432091e-36
5.9459136e-36
5.951122e-36
5.9555872e-36
5.9382036e-36
5.7837846e-36
5.0052389e-36
2.592103e-36
1.78529e-37
1.4397544e-42
1.5270606e-45
3.3900647e-40
5.6178734e-39
1.1207448e-38
1.304553e-38
1.3412891e-38
1.3455376e-38
1.3445625e-38
1.3433763e-38
1.3427401e-38
1.3427332e-38
1.3433431e-38
1.3445133e-38
1.3454701e-38
1.341205e-38
1.3044433e-38
1.1206385e-38
5.6172578e-39
3.3896379e-40
1.5268487e-45
1.550101e-48
6.1648901e-43
1.1660762e-41
2.4034174e-41
2.8180997e-41
2.9016422e-41
2.9115671e-41
2.9095696e-41
2.9070169e-41
2.9056403e-41
2.9056247e-41
2.9069416e-41
2.9094578e-41
2.9114137e-41
2.9014512e-41
2.8178514e-41
2.4031799e-41
1.1659438e-41
6.1640886e-43
1.5498784e-48
1.5086974e-51
1.0756678e-45
2.3223667e-44
4.9453814e-44
5.841156e-44
6.0230071e-44
6.0451375e-44
6.0412281e-44
6.0359617e-44
6.0331069e-44
6.0330748e-44
6.0358035e-44
6.0409936e-44
6.0448133e-44
6.0226023e-44
5.8406275e-44
4.94488e-44
2.3220961e-44
1.0755241e-45
1.5084739e-51
1.4101344e-54
1.8036908e-48
4.4451051e-47
9.7795165e-47
1.1635579e-46
1.2015168e-46
1.2062374e-46
1.2055056e-46
1.2044621e-46
1.2038938e-46
1.203888e-46
1.2044318e-46
1.2054607e-46
1.2061745e-46
1.2014375e-46
1.1634529e-46
9.7785215e-47
4.4445812e-47
1.8034459e-48
1.4099206e-54
1.2675191e-57
2.9108013e-51
8.1887678e-50
1.861317e-49
2.2308088e-49
2.3069151e-49
2.3165675e-49
2.3152562e-49
2.3132674e-49
2.3121795e-49
2.3121705e-49
2.3132144e-49
2.3151782e-49
2.3164565e-49
2.306773e-49
2.2306151e-49
1.8611327e-49
8.1878158e-50
2.9104073e-51
1.2673258e-57
1.097115e-60
4.5270146e-54
1.4538682e-52
3.4142372e-52
4.1219905e-52
4.2687812e-52
4.2877352e-52
4.2854846e-52
4.2818335e-52
4.2798278e-52
4.2798163e-52
4.2817489e-52
4.2853623e-52
4.2875585e-52
4.2685515e-52
4.1216637e-52
3.4139242e-52
1.4537088e-52
4.5264279e-54
1.0969524e-60
9.1553717e-64
6.793534e-57
2.4908013e-55
6.0433177e-55
7.3495381e-55
7.6222808e-55
7.6580837e-55
7.6543842e-55
7.6479198e-55
7.6443535e-55
7.6443436e-55
7.6477975e-55
7.6542148e-55
7.6578374e-55
7.6219584e-55
7.3490491e-55
6.0428476e-55
2.4905634e-55
6.7927471e-57
9.1541293e-64
7.3740896e-67
9.8482346e-60
4.1224624e-58
1.0333844e-57
1.2659542e-57
1.3148351e-57
1.3213505e-57
1.3207685e-57
1.3196637e-57
1.3190515e-57
1.3190519e-57
1.3196484e-57
1.3207498e-57
1.3213236e-57
1.3148003e-57
1.2658938e-57
1.0333265e-57
4.1221655e-58
9.8473287e-60
7.3732568e-67
5.7384642e-70
1.3805652e-62
6.5983704e-61
1.7088821e-60
2.1088223e-60
2.1934226e-60
2.2048608e-60
2.2039863e-60
2.2021623e-60
2.2011474e-60
2.2011523e-60
2.2021491e-60
2.2039773e-60
2.2048494e-60
2.1934103e-60
2.1087767e-60
1.7088391e-60
6.5981189e-61
1.3804869e-62
5.7380137e-70
4.3186848e-73
1.8733336e-65
1.0223609e-63
2.7355942e-63
3.4005716e-63
3.542126e-63
3.5615229e-63
3.5602712e-63
3.5573603e-63
3.5557347e-63
3.555751e-63
3.5573634e-63
3.5603007e-63
3.5615713e-63
3.5421994e-63
3.4006125e-63
2.7356367e-63
1.0223685e-63
1.8733167e-65
4.3185494e-73
3.14601e-76
2.4627849e-68
1.534809e-66
4.2430293e-66
5.3131194e-66
5.5423306e-66
5.5741401e-66
5.5724407e-66
5.5679466e-66
5.5654273e-66
5.565467e-66
5.5679935e-66
5.5725639e-66
5.5743355e-66
5.5426176e-66
5.3134012e-66
4.2433114e-66
1.5349093e-66
2.4629141e-68
3.146104e-76
2.2201322e-79
3.1394753e-71
2.2343668e-69
6.3819472e-69
8.0501041e-69
8.4096232e-69
8.4601234e-69
8.4579492e-69
8.4512262e-69
8.4474416e-69
8.4475218e-69
8.451357e-69
8.4582495e-69
8.4606063e-69
8.4103426e-69
8.0509111e-69
6.3827608e-69
2.2346718e-69
3.1398796e-71
2.2203685e-79
1.5189387e-82
3.8837166e-74
3.1567979e-72
9.3159291e-72
1.1837268e-71
1.2383995e-71
1.2461684e-71
1.2459086e-71
1.2449323e-71
1.2443796e-71
1.2443935e-71
1.2449577e-71
1.2459657e-71
1.2462633e-71
1.2385464e-71
1.1839061e-71
9.3177728e-72
3.1574964e-72
3.884574e-74
1.5192409e-82
1.0082129e-85
4.6656682e-77
4.3316092e-75
1.3207312e-74
1.690521e-74
1.7711975e-74
1.7827891e-74
1.7825032e-74
1.7811231e-74
1.780336e-74
1.7803562e-74
1.781161e-74
1.7825918e-74
1.7829455e-74
1.7714566e-74
1.6908648e-74
1.3210974e-74
4.333e-75
4.6672085e-77
1.0085242e-85
6.4967465e-89
5.4468643e-80
5.7763852e-78
1.819765e-77
2.3464365e-77
2.4620508e-77
2.4788389e-77
2.4785548e-77
2.4766488e-77
2.4755511e-77
2.4755753e-77
2.4766892e-77
2.4786626e-77
2.4790515e-77
2.4624498e-77
2.3470294e-77
1.8204321e-77
5.7789272e-78
5.449378e-80
6.4996081e-89
4.0664663e-92
6.1831063e-83
7.4909421e-81
2.4383988e-80
3.1673553e-80
3.3283989e-80
3.3520226e-80
3.3517754e-80
3.3491871e-80
3.3476815e-80
3.3477021e-80
3.3492012e-80
3.3518532e-80
3.3522312e-80
3.3289241e-80
3.168297e-80
2.4395434e-80
7.4953431e-81
6.186971e-83
4.0689392e-92
2.4736499e-95
6.8285979e-86
9.4523414e-84
3.1793563e-83
4.1605207e-83
4.3787109e-83
4.4110499e-83
4.4108775e-83
4.4074219e-83
4.405382e-83
4.4053831e-83
4.4073558e-83
4.4108196e-83
4.4111203e-83
4.3792954e-83
4.1619179e-83
3.181232e-83
9.4595812e-84
6.8342614e-86
2.4756598e-95
)
;

boundaryField
{
    Wall
    {
        type            zeroGradient;
    }
    frontAndBack
    {
        type            empty;
    }
    atmosphere
    {
        type            zeroGradient;
    }
}


// ************************************************************************* //
