/*--------------------------------*- C++ -*----------------------------------*\
| =========                 |                                                 |
| \\      /  F ield         | OpenFOAM: The Open Source CFD Toolbox           |
|  \\    /   O peration     | Version:  3.0.1                                 |
|   \\  /    A nd           | Web:      www.OpenFOAM.org                      |
|    \\/     M anipulation  |                                                 |
\*---------------------------------------------------------------------------*/
FoamFile
{
    version     2.0;
    format      ascii;
    class       surfaceScalarField;
    location    "4";
    object      phi;
}
// * * * * * * * * * * * * * * * * * * * * * * * * * * * * * * * * * * * * * //

dimensions      [0 3 -1 0 0 0 0];

internalField   nonuniform List<scalar> 
1540
(
-1.5019618e-13
6.9786162e-10
-1.1180091e-13
7.0038157e-10
-4.1457567e-14
7.0077744e-10
-8.3929869e-15
7.0084734e-10
2.6281544e-15
7.0086421e-10
5.1734579e-15
7.0086874e-10
4.7314904e-15
7.0086993e-10
3.3459977e-15
7.0087019e-10
1.7049748e-15
7.0087019e-10
2.556197e-17
7.0087017e-10
-1.6414803e-15
7.0087017e-10
-3.271984e-15
7.008702e-10
-4.6586565e-15
7.0087019e-10
-5.0985363e-15
7.0086994e-10
-2.553028e-15
7.0086874e-10
8.4666521e-15
7.0086421e-10
4.1521518e-14
7.0084733e-10
1.1183924e-13
7.0077742e-10
1.502111e-13
7.0038154e-10
6.978616e-10
1.0772863e-13
6.8436783e-10
8.0506521e-14
7.0514499e-10
4.0841638e-14
7.0848515e-10
2.8482234e-14
7.0943977e-10
2.1439055e-14
7.0968292e-10
1.5890097e-14
7.0973326e-10
1.1253615e-14
7.0974032e-10
7.207678e-15
7.0973974e-10
3.547797e-15
7.0973858e-10
4.0320795e-17
7.0973795e-10
-3.4439225e-15
7.0973795e-10
-7.1165709e-15
7.0973859e-10
-1.1152121e-14
7.0973976e-10
-1.5795333e-14
7.0974033e-10
-2.1347404e-14
7.0973324e-10
-2.8381745e-14
7.0968288e-10
-4.0744757e-14
7.0943968e-10
-8.0418878e-14
7.0848502e-10
-1.0765802e-13
7.0514485e-10
6.8436775e-10
1.5544312e-13
6.2196572e-10
1.576968e-13
9.8061831e-10
1.2190252e-13
1.142171e-09
1.0082649e-13
1.2005637e-09
8.0625015e-14
1.2174065e-09
6.1516542e-14
1.2213031e-09
4.425777e-14
1.2219665e-09
2.8660447e-14
1.2219903e-09
1.4195794e-14
1.2219374e-09
2.8419474e-16
1.2219053e-09
-1.3629789e-14
1.2219055e-09
-2.8108144e-14
1.2219379e-09
-4.3731801e-14
1.2219908e-09
-6.1033e-14
1.2219666e-09
-8.0188822e-14
1.2213023e-09
-1.0043137e-13
1.2174043e-09
-1.2156598e-13
1.2005601e-09
-1.5743878e-13
1.1421662e-09
-1.5528448e-13
9.8061383e-10
6.2196372e-10
2.3130363e-12
6.1288931e-10
3.7432485e-12
1.4362007e-09
4.1256912e-12
1.8373611e-09
3.8093842e-12
1.985555e-09
3.1825556e-12
2.0287906e-09
2.4836373e-12
2.0388682e-09
1.809193e-12
2.0405897e-09
1.1799635e-12
2.0406463e-09
5.872341e-13
2.0405028e-09
1.3325051e-14
2.0404157e-09
-5.6086774e-13
2.0404162e-09
-1.1546341e-12
2.040504e-09
-1.7854169e-12
2.0406475e-09
-2.4622156e-12
2.04059e-09
-3.1636753e-12
2.0388662e-09
-3.793326e-12
2.0287851e-09
-4.1128106e-12
1.9855457e-09
-3.7342583e-12
1.8373491e-09
-2.3083492e-12
1.4361893e-09
6.1288425e-10
3.120099e-12
6.8168236e-10
5.1600857e-12
1.7064786e-09
5.8322119e-12
2.2261558e-09
5.5151841e-12
2.4216948e-09
4.7062937e-12
2.4793741e-09
3.7356439e-12
2.4929286e-09
2.7553341e-12
2.4952554e-09
1.8121767e-12
2.4953237e-09
9.0682837e-13
2.4951182e-09
2.2144047e-14
2.4949928e-09
-8.6309081e-13
2.4949933e-09
-1.7704648e-12
2.4951192e-09
-2.7166692e-12
2.4953249e-09
-3.7013891e-12
2.4952556e-09
-4.6767926e-12
2.492926e-09
-5.4907949e-12
2.4793672e-09
-5.8132369e-12
2.4216831e-09
-5.1472333e-12
2.2261405e-09
-3.1136385e-12
1.7064641e-09
6.816759e-10
2.783405e-12
7.1809012e-10
4.7077543e-12
1.8184016e-09
5.4840628e-12
2.3834461e-09
5.3538001e-12
2.5978576e-09
4.7034942e-12
2.6615576e-09
3.8235645e-12
2.6766522e-09
2.871154e-12
2.6792802e-09
1.9119053e-12
2.6793684e-09
9.6471997e-13
2.6791378e-09
2.672336e-14
2.6789945e-09
-9.122434e-13
2.6789947e-09
-1.8622308e-12
2.6791381e-09
-2.8260355e-12
2.6793684e-09
-3.784787e-12
2.6792793e-09
-4.6714358e-12
2.6766492e-09
-5.3287276e-12
2.661551e-09
-5.4659611e-12
2.5978468e-09
-4.6964814e-12
2.3834321e-09
-2.7782056e-12
1.8183883e-09
7.1808428e-10
2.0683204e-12
7.301783e-10
3.5841936e-12
1.8532723e-09
4.3159349e-12
2.4322674e-09
4.3652383e-12
2.652797e-09
3.9625e-12
2.7186289e-09
3.3101614e-12
2.7343668e-09
2.5377458e-12
2.7371741e-09
1.7149531e-12
2.7373081e-09
8.7448853e-13
2.7370861e-09
2.8604423e-14
2.7369424e-09
-8.1843271e-13
2.7369419e-09
-1.6623302e-12
2.7370846e-09
-2.4906419e-12
2.7373057e-09
-3.2706813e-12
2.7371706e-09
-3.9315889e-12
2.7343621e-09
-4.3428941e-12
2.7186226e-09
-4.3016776e-12
2.6527885e-09
-3.5768536e-12
2.4322575e-09
-2.0656725e-12
1.8532634e-09
7.3017449e-10
1.4245958e-12
7.3309787e-10
2.5269599e-12
1.8616523e-09
3.1417643e-12
2.4442106e-09
3.2885885e-12
2.6665043e-09
3.0818698e-12
2.7330944e-09
2.6443679e-12
2.7491536e-09
2.0696995e-12
2.7521053e-09
1.4198043e-12
2.7523077e-09
7.3205685e-13
2.7521173e-09
2.8418451e-14
2.7519857e-09
-6.76173e-13
2.7519843e-09
-1.3672555e-12
2.7521135e-09
-2.0227224e-12
2.7523019e-09
-2.6050828e-12
2.7520981e-09
-3.0517296e-12
2.7491459e-09
-3.2680562e-12
2.733087e-09
-3.1302485e-12
2.6664977e-09
-2.5225347e-12
2.4442051e-09
-1.4239137e-12
1.8616483e-09
7.3309646e-10
9.6256947e-13
7.335557e-10
1.7417397e-12
1.8630737e-09
2.2258639e-12
2.4464231e-09
2.4001751e-12
2.669251e-09
2.3128079e-12
2.7361768e-09
2.0319101e-12
2.7524451e-09
1.620086e-12
2.7555263e-09
1.126628e-12
2.7558068e-09
5.8707539e-13
2.7556599e-09
2.6793276e-14
2.7555472e-09
-5.3411303e-13
2.755545e-09
-1.0760512e-12
2.7556533e-09
-1.5740003e-12
2.7557969e-09
-1.992376e-12
2.7555147e-09
-2.281734e-12
2.7524333e-09
-2.3787501e-12
2.7361668e-09
-2.2139524e-12
2.6692441e-09
-1.7373383e-12
2.4464195e-09
-9.6199534e-13
1.8630727e-09
7.3355575e-10
6.5486666e-13
7.3352275e-10
1.2033048e-12
1.8630808e-09
1.571059e-12
2.4465956e-09
1.7343939e-12
2.6696348e-09
1.7090929e-12
2.7367562e-09
1.5308165e-12
2.75318e-09
1.2396142e-12
2.7563744e-09
8.7207608e-13
2.7567309e-09
4.5869269e-13
2.7566301e-09
2.4152794e-14
2.756539e-09
-4.1060024e-13
2.7565361e-09
-8.2481261e-13
2.7566217e-09
-1.1948132e-12
2.7567182e-09
-1.4905842e-12
2.7563593e-09
-1.6755691e-12
2.7531646e-09
-1.709333e-12
2.7367424e-09
-1.5551606e-12
2.6696244e-09
-1.1952651e-12
2.4465894e-09
-6.5211671e-13
1.8630784e-09
7.3352243e-10
4.5214656e-13
7.3343649e-10
8.3989461e-13
1.8629048e-09
1.1137666e-12
2.4464576e-09
1.2510481e-12
2.6696108e-09
1.2539197e-12
2.7368646e-09
1.1402745e-12
2.7534072e-09
9.3480594e-13
2.7566953e-09
6.6392935e-13
2.7571193e-09
3.5218772e-13
2.7570617e-09
2.1005434e-14
2.7569914e-09
-3.0987199e-13
2.7569884e-09
-6.211448e-13
2.7570528e-09
-8.9246272e-13
2.7571055e-09
-1.1001088e-12
2.7566784e-09
-1.2182757e-12
2.753389e-09
-1.221936e-12
2.7368467e-09
-1.092417e-12
2.6695951e-09
-8.2641271e-13
2.4464455e-09
-4.4586305e-13
1.8628972e-09
7.3343397e-10
3.1627951e-13
7.3336709e-10
5.919669e-13
1.8627534e-09
7.9359105e-13
2.4463177e-09
9.0269629e-13
2.6695439e-09
9.1637088e-13
2.7368913e-09
8.4312997e-13
2.7535235e-09
6.9812315e-13
2.7568862e-09
4.9996037e-13
2.7573665e-09
2.6741848e-13
2.7573461e-09
1.8241536e-14
2.7572945e-09
-2.3045035e-13
2.7572916e-09
-4.6185693e-13
2.7573379e-09
-6.5913114e-13
2.7573535e-09
-8.0453384e-13
2.7568694e-09
-8.8046564e-13
2.7535036e-09
-8.7143519e-13
2.7368695e-09
-7.6852886e-13
2.6695219e-09
-5.7430868e-13
2.446298e-09
-3.0713673e-13
1.8627389e-09
7.3336152e-10
2.2327617e-13
7.333158e-10
4.2020413e-13
1.8626388e-09
5.6781015e-13
2.4462059e-09
6.518049e-13
2.6694807e-09
6.6801091e-13
2.7368949e-09
6.2035659e-13
2.753594e-09
5.1812661e-13
2.7570146e-09
3.7398542e-13
2.7575399e-09
2.0191409e-13
2.7575503e-09
1.6146498e-14
2.7575143e-09
-1.6903811e-13
2.7575121e-09
-3.3989348e-13
2.7575437e-09
-4.8292568e-13
2.757529e-09
-5.8515123e-13
2.7569996e-09
-6.3449233e-13
2.7535747e-09
-6.2146146e-13
2.7368717e-09
-5.4215148e-13
2.669455e-09
-4.0116479e-13
2.4461806e-09
-2.130516e-13
1.8626185e-09
7.3330757e-10
1.5849061e-13
7.3327491e-10
2.996103e-13
1.8625453e-09
4.0734226e-13
2.4461094e-09
4.7089608e-13
2.6694164e-09
4.8612679e-13
2.7368782e-09
4.5474501e-13
2.7536266e-09
3.8261856e-13
2.7570913e-09
2.7829062e-13
2.7576519e-09
1.5183785e-13
2.7576867e-09
1.4492661e-14
2.7576635e-09
-1.2232273e-13
2.757662e-09
-2.4780374e-13
2.7576821e-09
-3.5150448e-13
2.7576439e-09
-4.2415895e-13
2.7570792e-09
-4.5704116e-13
2.7536096e-09
-4.4425286e-13
2.7368563e-09
-3.8430541e-13
2.6693909e-09
-2.8222749e-13
2.4460828e-09
-1.4911216e-13
1.862523e-09
7.3326558e-10
1.1281277e-13
7.3323872e-10
2.1407454e-13
1.8624603e-09
2.9243346e-13
2.446016e-09
3.4000864e-13
2.6693435e-09
3.5302072e-13
2.7368389e-09
3.3214414e-13
2.7536239e-09
2.8121619e-13
2.7571221e-09
2.0612511e-13
2.7577099e-09
1.1389539e-13
2.7577639e-09
1.320242e-14
2.7577508e-09
-8.7201032e-14
2.7577499e-09
-1.7899061e-13
2.7577609e-09
-2.5448892e-13
2.7577043e-09
-3.0656394e-13
2.7571131e-09
-3.2916719e-13
2.7536105e-09
-3.1845548e-13
2.7368212e-09
-2.7416033e-13
2.6693221e-09
-2.0042518e-13
2.445993e-09
-1.056783e-13
1.8624404e-09
7.3323026e-10
8.035326e-14
7.3320505e-10
1.5290536e-13
1.8623796e-09
2.0970691e-13
2.4459227e-09
2.4483483e-13
2.6692624e-09
2.5539492e-13
2.7367818e-09
2.4156538e-13
2.7535939e-09
2.0593302e-13
2.7571177e-09
1.5226141e-13
2.7577263e-09
8.5622124e-14
2.7577949e-09
1.2244382e-14
2.7577896e-09
-6.116586e-14
2.7577888e-09
-1.2818723e-13
2.7577927e-09
-1.8306855e-13
2.7577222e-09
-2.2053563e-13
2.757111e-09
-2.3632495e-13
2.7535844e-09
-2.2832801e-13
2.7367694e-09
-1.9640073e-13
2.6692475e-09
-1.4368103e-13
2.4459064e-09
-7.5857958e-14
1.8623651e-09
7.3319881e-10
5.707939e-14
7.3317438e-10
1.0892056e-13
1.8623048e-09
1.4995749e-13
2.4458333e-09
1.7585228e-13
2.6691796e-09
1.8443876e-13
2.736716e-09
1.7551429e-13
2.7535482e-09
1.5061631e-13
2.7570911e-09
1.123435e-13
2.7577154e-09
6.4399193e-14
2.7577951e-09
1.1205954e-14
2.7577952e-09
-4.2125308e-14
2.7577944e-09
-9.0803731e-14
2.7577927e-09
-1.3034032e-13
2.757712e-09
-1.5707318e-13
2.7570866e-09
-1.6825198e-13
2.7535424e-09
-1.6272186e-13
2.736709e-09
-1.4047145e-13
2.6691713e-09
-1.0328861e-13
2.4458239e-09
-5.4795811e-14
1.8622961e-09
7.3317049e-10
4.0088275e-14
7.3314822e-10
7.6956099e-14
1.8622405e-09
1.0688804e-13
2.4457546e-09
1.2648737e-13
2.6691042e-09
1.3368662e-13
2.7366521e-09
1.281525e-13
2.7534987e-09
1.1060831e-13
2.7570555e-09
8.2981048e-14
2.7576913e-09
4.8206113e-14
2.7577787e-09
9.7979855e-15
2.7577828e-09
-2.8460556e-14
2.7577819e-09
-6.315145e-14
2.7577764e-09
-9.1105762e-14
2.7576884e-09
-1.0992465e-13
2.7570526e-09
-1.1790227e-13
2.753496e-09
-1.1439853e-13
2.7366493e-09
-9.9457843e-14
2.6691004e-09
-7.3749871e-14
2.4457497e-09
-3.9354772e-14
1.8622353e-09
7.3314588e-10
2.7398973e-14
7.3312753e-10
5.3324754e-14
1.8621893e-09
7.5474397e-14
2.4456919e-09
9.087588e-14
2.6690428e-09
9.7408549e-14
2.7365988e-09
9.4256108e-14
2.753455e-09
8.188906e-14
2.7570214e-09
6.1587999e-14
2.7576652e-09
3.6071232e-14
2.7577584e-09
8.3564758e-15
2.7577653e-09
-1.870344e-14
2.7577647e-09
-4.2773079e-14
2.7577566e-09
-6.1996637e-14
2.7576632e-09
-7.4992186e-14
2.7570199e-09
-8.0773145e-14
2.7534541e-09
-7.8938114e-14
2.7365975e-09
-6.9253707e-14
2.6690407e-09
-5.172792e-14
2.4456886e-09
-2.7695957e-14
1.8621859e-09
7.331259e-10
1.7980833e-14
7.3311259e-10
3.5772953e-14
1.8621524e-09
5.2096888e-14
2.4456465e-09
6.4472012e-14
2.6689986e-09
7.0483941e-14
2.7365599e-09
6.9241039e-14
2.7534231e-09
6.0776527e-14
2.7569962e-09
4.601384e-14
2.7576459e-09
2.7342871e-14
2.7577432e-09
7.4838027e-15
2.7577523e-09
-1.1367789e-14
2.7577518e-09
-2.7625013e-14
2.7577418e-09
-4.044303e-14
2.7576442e-09
-4.9234898e-14
2.7569949e-09
-5.3628508e-14
2.7534218e-09
-5.3051829e-14
2.7365579e-09
-4.7008618e-14
2.6689955e-09
-3.5277378e-14
2.4456428e-09
-1.889192e-14
1.862149e-09
7.3311108e-10
1.1310152e-14
7.3310295e-10
2.3087311e-14
1.8621286e-09
3.4815896e-14
2.4456175e-09
4.4593921e-14
2.6689708e-09
5.0177975e-14
2.7365364e-09
5.0434898e-14
2.7534048e-09
4.5071706e-14
2.756983e-09
3.4650065e-14
2.7576368e-09
2.1222151e-14
2.7577372e-09
7.1560933e-15
2.7577478e-09
-5.7400493e-15
2.7577472e-09
-1.6467024e-14
2.7577354e-09
-2.4816775e-14
2.7576341e-09
-3.0839774e-14
2.7569797e-09
-3.4274905e-14
2.7534009e-09
-3.4453593e-14
2.7365315e-09
-3.0758312e-14
2.6689653e-09
-2.3080991e-14
2.445612e-09
-1.2294493e-14
1.8621242e-09
7.3310115e-10
6.7947874e-15
7.330976e-10
1.4254377e-14
1.8621154e-09
2.2363358e-14
2.4456019e-09
2.9913246e-14
2.668957e-09
3.5055588e-14
2.736526e-09
3.6391718e-14
2.7533983e-09
3.3345303e-14
2.7569801e-09
2.6230789e-14
2.757637e-09
1.6670104e-14
2.7577397e-09
6.804261e-15
2.7577515e-09
-1.8181548e-15
2.7577504e-09
-8.6715733e-15
2.7577366e-09
-1.4030879e-14
2.7576323e-09
-1.8160165e-14
2.7569739e-09
-2.0729168e-14
2.7533908e-09
-2.109218e-14
2.7365173e-09
-1.8874419e-14
2.668948e-09
-1.4061718e-14
2.4455939e-09
-7.4118047e-15
1.8621095e-09
7.3309522e-10
3.8995191e-15
7.3309493e-10
8.4154464e-15
1.8621089e-09
1.3750599e-14
2.4455947e-09
1.9268282e-14
2.6689516e-09
2.3701761e-14
2.7365236e-09
2.5686297e-14
2.7533989e-09
2.4387745e-14
2.7569833e-09
1.9766364e-14
2.7576427e-09
1.3077018e-14
2.7577473e-09
6.1401781e-15
2.75776e-09
4.5076733e-16
2.7577588e-09
-3.7418135e-15
2.7577437e-09
-7.0916614e-15
2.757637e-09
-9.8635375e-15
2.7569755e-09
-1.1568022e-14
2.753389e-09
-1.1745742e-14
2.7365124e-09
-1.0363135e-14
2.6689403e-09
-7.5925001e-15
2.445585e-09
-3.9366689e-15
1.8621018e-09
7.3309212e-10
2.1380896e-15
7.3309337e-10
4.7795184e-15
1.8621051e-09
8.1831019e-15
2.4455904e-09
1.2032843e-14
2.6689486e-09
1.5557493e-14
2.7365229e-09
1.7758788e-14
2.7534008e-09
1.7724785e-14
2.7569879e-09
1.5021226e-14
2.7576496e-09
1.0386364e-14
2.757756e-09
5.3743037e-15
2.75777e-09
1.4840147e-15
2.7577692e-09
-1.0968069e-15
2.7577535e-09
-3.1538155e-15
2.757645e-09
-4.8715083e-15
2.7569813e-09
-5.7567714e-15
2.7533923e-09
-5.5991927e-15
2.7365129e-09
-4.7151057e-15
2.6689382e-09
-3.3951448e-15
2.4455811e-09
-1.7755271e-15
1.8620979e-09
7.3309043e-10
1.1848294e-15
7.3309165e-10
2.8304717e-15
1.8621006e-09
5.1660183e-15
2.4455847e-09
7.9479078e-15
2.6689436e-09
1.0641243e-14
2.7365197e-09
1.2720836e-14
2.7533999e-09
1.3415088e-14
2.7569895e-09
1.1989337e-14
2.7576535e-09
8.6959846e-15
2.7577618e-09
4.8130824e-15
2.7577772e-09
1.7855985e-15
2.7577772e-09
-1.1663657e-16
2.7577617e-09
-1.4918131e-15
2.7576527e-09
-2.4041677e-15
2.7569875e-09
-2.5526163e-15
2.7533963e-09
-2.0898923e-15
2.7365143e-09
-1.559998e-15
2.6689372e-09
-1.2217822e-15
2.4455779e-09
-7.747227e-16
1.8620946e-09
7.3308902e-10
8.2148141e-16
7.3308895e-10
2.1336482e-15
1.8620935e-09
4.0845596e-15
2.4455756e-09
6.367397e-15
2.6689342e-09
8.5334942e-15
2.7365116e-09
1.0351353e-14
2.7533939e-09
1.1256481e-14
2.7569855e-09
1.0446414e-14
2.7576514e-09
7.9053568e-15
2.7577613e-09
4.7263014e-15
2.7577782e-09
2.0848562e-15
2.7577794e-09
2.4091288e-16
2.7577648e-09
-1.0725518e-15
2.757656e-09
-1.6831066e-15
2.7569902e-09
-1.4992577e-15
2.7533975e-09
-9.6940902e-16
2.7365133e-09
-6.7054944e-16
2.6689337e-09
-7.1579255e-16
2.445573e-09
-6.0022931e-16
1.8620901e-09
7.3308722e-10
7.782692e-16
7.3308466e-10
2.1131196e-15
1.8620826e-09
4.1288056e-15
2.4455613e-09
6.4438861e-15
2.6689196e-09
8.5493505e-15
2.7364981e-09
1.0211629e-14
2.7533821e-09
1.1024501e-14
2.7569756e-09
1.0302662e-14
2.7576431e-09
8.1413867e-15
2.7577544e-09
5.4318867e-15
2.7577725e-09
3.0033444e-15
2.7577748e-09
8.7664362e-16
2.7577611e-09
-1.0065868e-15
2.7576531e-09
-2.1717448e-15
2.7569875e-09
-2.4562045e-15
2.7533943e-09
-2.2294508e-15
2.7365086e-09
-1.8631572e-15
2.6689275e-09
-1.49223e-15
2.4455661e-09
-9.2818245e-16
1.8620846e-09
7.3308506e-10
1.192878e-15
7.3307852e-10
2.9353169e-15
1.8620669e-09
5.3759053e-15
2.4455414e-09
8.0597631e-15
2.6688991e-09
1.0335658e-14
2.7364789e-09
1.1927673e-14
2.7533651e-09
1.2511783e-14
2.7569608e-09
1.1655737e-14
2.7576299e-09
9.590878e-15
2.7577424e-09
7.1588567e-15
2.7577613e-09
4.8881255e-15
2.7577644e-09
2.4060288e-15
2.7577514e-09
-4.8478324e-16
2.7576442e-09
-3.1046077e-15
2.7569794e-09
-4.8211133e-15
2.7533865e-09
-5.3355471e-15
2.7365007e-09
-4.651234e-15
2.6689195e-09
-3.2439675e-15
2.4455588e-09
-1.6499003e-15
1.862079e-09
7.3308293e-10
2.179962e-15
7.3307075e-10
4.9102561e-15
1.8620472e-09
8.2544552e-15
2.4455164e-09
1.1565098e-14
2.6688735e-09
1.4066106e-14
2.7364552e-09
1.5508845e-14
2.7533441e-09
1.5745964e-14
2.7569423e-09
1.4578028e-14
2.7576133e-09
1.2398284e-14
2.757727e-09
1.0015984e-14
2.7577467e-09
7.7240962e-15
2.7577503e-09
4.7653586e-15
2.7577378e-09
6.1029616e-16
2.7576312e-09
-3.9629453e-15
2.7569675e-09
-7.5955159e-15
2.7533757e-09
-9.0922548e-15
2.7364912e-09
-8.1252281e-15
2.6689114e-09
-5.6561993e-15
2.4455521e-09
-2.8090283e-15
1.8620743e-09
7.3308119e-10
3.9077234e-15
7.3306181e-10
8.36279e-15
1.8620247e-09
1.313325e-14
2.4454878e-09
1.7290268e-14
2.6688447e-09
2.0037458e-14
2.7364287e-09
2.1221958e-14
2.7533207e-09
2.0842801e-14
2.756922e-09
1.9034278e-14
2.7575956e-09
1.6421444e-14
2.7577109e-09
1.3735854e-14
2.7577316e-09
1.1057332e-14
2.7577358e-09
7.3784098e-15
2.7577236e-09
2.0041106e-15
2.7576178e-09
-4.2713604e-15
2.7569549e-09
-9.4802079e-15
2.7533643e-09
-1.18304e-14
2.7364815e-09
-1.0949005e-14
2.6689035e-09
-7.9691934e-15
2.4455462e-09
-4.1072056e-15
1.8620704e-09
7.3307982e-10
6.5692677e-15
7.3305207e-10
1.3578075e-14
1.8620002e-09
2.0423563e-14
2.4454571e-09
2.5812014e-14
2.6688139e-09
2.9005987e-14
2.7364011e-09
2.9804198e-14
2.7532973e-09
2.8348178e-14
2.7569024e-09
2.5238435e-14
2.757579e-09
2.1509629e-14
2.7576969e-09
1.7991527e-14
2.7577193e-09
1.4523659e-14
2.7577244e-09
1.0065937e-14
2.7577128e-09
3.8029339e-15
2.7576071e-09
-3.4130604e-15
2.7569446e-09
-9.4035095e-15
2.7533547e-09
-1.2305178e-14
2.7364733e-09
-1.1895688e-14
2.6688969e-09
-9.1224685e-15
2.4455409e-09
-4.9059984e-15
1.862067e-09
7.3307859e-10
1.0311822e-14
7.3304166e-10
2.0879555e-14
1.8619742e-09
3.0735988e-14
2.4454249e-09
3.8150477e-14
2.6687827e-09
4.2095428e-14
2.7363744e-09
4.2195158e-14
2.7532758e-09
3.907174e-14
2.7568856e-09
3.3910623e-14
2.757566e-09
2.8251692e-14
2.7576871e-09
2.3094705e-14
2.7577118e-09
1.8310741e-14
2.7577181e-09
1.2893648e-14
2.7577065e-09
6.0234726e-15
2.7576005e-09
-1.5234075e-15
2.7569377e-09
-7.7929727e-15
2.7533482e-09
-1.1196415e-14
2.7364673e-09
-1.1538873e-14
2.6688916e-09
-9.3235809e-15
2.4455366e-09
-5.2027362e-15
1.862064e-09
7.3307748e-10
1.5745628e-14
7.3303049e-10
3.1463663e-14
1.8619465e-09
4.571499e-14
2.4453916e-09
5.5964963e-14
2.6687522e-09
6.0652193e-14
2.7363504e-09
5.9552624e-14
2.7532587e-09
5.4002237e-14
2.7568739e-09
4.6056548e-14
2.7575584e-09
3.7533305e-14
2.7576823e-09
2.9709733e-14
2.7577088e-09
2.2700697e-14
2.7577156e-09
1.5779382e-14
2.7577036e-09
8.2487643e-15
2.7575968e-09
5.5564496e-16
2.7569334e-09
-5.8517289e-15
2.753344e-09
-9.7904085e-15
2.7364632e-09
-1.0929064e-14
2.6688879e-09
-9.3574277e-15
2.4455333e-09
-5.4036282e-15
1.8620615e-09
7.3307652e-10
2.3675714e-14
7.3301824e-10
4.6920098e-14
1.8619167e-09
6.7397835e-14
2.4453568e-09
8.1216561e-14
2.6687224e-09
8.6147374e-14
2.7363305e-09
8.2624249e-14
2.7532481e-09
7.342731e-14
2.7568698e-09
6.1525442e-14
2.7575579e-09
4.9160572e-14
2.7576832e-09
3.7667639e-14
2.7577099e-09
2.7660415e-14
2.7577161e-09
1.8731202e-14
2.757703e-09
1.0395237e-14
2.757595e-09
2.6239554e-15
2.7569307e-09
-3.8905403e-15
2.7533406e-09
-8.3548531e-15
2.73646e-09
-1.034153e-14
2.6688845e-09
-9.4456026e-15
2.44553e-09
-5.6765426e-15
1.8620588e-09
7.3307533e-10
3.4500827e-14
7.3300361e-10
6.8201509e-14
1.8618817e-09
9.725034e-14
2.4453178e-09
1.1571132e-13
2.6686925e-09
1.1991865e-13
2.7363155e-09
1.1184807e-13
2.7532463e-09
9.661154e-14
2.7568752e-09
7.881437e-14
2.7575651e-09
6.1257352e-14
2.7576894e-09
4.5401126e-14
2.7577139e-09
3.2052766e-14
2.7577181e-09
2.1113636e-14
2.7577033e-09
1.2073857e-14
2.7575937e-09
4.2849179e-15
2.756928e-09
-2.3181614e-15
2.753337e-09
-7.3513451e-15
2.7364555e-09
-1.0179326e-14
2.668879e-09
-9.8957222e-15
2.4455235e-09
-6.157045e-15
1.8620523e-09
7.3307225e-10
4.8027467e-14
7.3298204e-10
9.529694e-14
1.8618324e-09
1.3592101e-13
2.445266e-09
1.6010505e-13
2.6686574e-09
1.6224623e-13
2.7363044e-09
1.4637e-13
2.7532541e-09
1.2159847e-13
2.7568907e-09
9.5458692e-14
2.7575796e-09
7.1418105e-14
2.7576988e-09
5.0938471e-14
2.7577183e-09
3.4494279e-14
2.7577187e-09
2.2008299e-14
2.7577017e-09
1.2562038e-14
2.7575908e-09
4.8524901e-15
2.7569232e-09
-1.8972673e-15
2.7533301e-09
-7.6439411e-15
2.7364463e-09
-1.1457348e-14
2.668867e-09
-1.1768224e-14
2.4455075e-09
-7.5854285e-15
1.8620348e-09
7.3306344e-10
6.2761377e-14
7.3294197e-10
1.2588888e-13
1.8617475e-09
1.8078341e-13
2.4451837e-09
2.1182755e-13
2.6686076e-09
2.1030913e-13
2.7362954e-09
1.8293049e-13
2.7532751e-09
1.450677e-13
2.7569207e-09
1.0830032e-13
2.7576037e-09
7.7278096e-14
2.7577115e-09
5.2703169e-14
2.7577218e-09
3.4208814e-14
2.7577172e-09
2.0972483e-14
2.7576983e-09
1.1542803e-14
2.757587e-09
4.0620429e-15
2.7569164e-09
-2.842631e-15
2.7533193e-09
-9.5473924e-15
2.7364305e-09
-1.4874136e-14
2.6688428e-09
-1.6138578e-14
2.4454708e-09
-1.0864816e-14
1.8619905e-09
7.3303989e-10
7.4654053e-14
7.3285628e-10
1.5210444e-13
1.8615826e-09
2.2089784e-13
2.4450354e-09
2.5907882e-13
2.6685276e-09
2.5327201e-13
2.7362846e-09
2.1335116e-13
2.7533196e-09
1.6129808e-13
2.756979e-09
1.1413422e-13
2.7576496e-09
7.7507941e-14
2.7577339e-09
5.0694003e-14
2.7577305e-09
3.1772259e-14
2.7577203e-09
1.8821497e-14
2.7577014e-09
9.7917788e-15
2.7575942e-09
2.6141431e-15
2.7569161e-09
-4.5212109e-15
2.7533101e-09
-1.252678e-14
2.7364075e-09
-2.0068247e-14
2.668797e-09
-2.293361e-14
2.4453894e-09
-1.6086534e-14
1.8618844e-09
7.3298137e-10
7.930134e-14
7.3271487e-10
1.6406301e-13
1.8613119e-09
2.4136237e-13
2.4448087e-09
2.8393447e-13
2.6684046e-09
2.7567002e-13
2.7362714e-09
2.2691262e-13
2.7533682e-09
1.6530619e-13
2.7570543e-09
1.1174254e-13
2.7577086e-09
7.274657e-14
2.757771e-09
4.6176003e-14
2.7577482e-09
2.8503667e-14
2.7577323e-09
1.6728334e-14
2.7577193e-09
8.382668e-15
2.7576093e-09
1.509788e-15
2.7569297e-09
-5.7915997e-15
2.7533055e-09
-1.496681e-14
2.7363776e-09
-2.4780603e-14
2.6687175e-09
-2.9518661e-14
2.4452331e-09
-2.1346607e-14
1.8616869e-09
7.3286747e-10
7.8043452e-14
1.6305157e-13
2.4202024e-13
2.8546869e-13
2.769913e-13
2.2545255e-13
1.6078704e-13
1.0576604e-13
6.7056434e-14
4.1843995e-14
2.5832772e-14
1.5324811e-14
7.6643286e-15
1.1005306e-15
-6.1273151e-15
-1.5753738e-14
-2.6736184e-14
-3.2619249e-14
-2.3993234e-14
)
;

boundaryField
{
    Wall
    {
        type            calculated;
        value           uniform 0;
    }
    frontAndBack
    {
        type            empty;
        value           nonuniform 0();
    }
    atmosphere
    {
        type            calculated;
        value           nonuniform List<scalar> 
20
(
7.3262843e-10
1.8612022e-09
2.4446853e-09
2.6683342e-09
2.7362373e-09
2.7534698e-09
2.757161e-09
2.7577962e-09
2.7577642e-09
2.757745e-09
2.7577335e-09
2.7577248e-09
2.7576535e-09
2.7569202e-09
2.7533019e-09
2.7363269e-09
2.6686522e-09
2.4451554e-09
1.8616034e-09
7.3284123e-10
)
;
    }
}


// ************************************************************************* //
