/*--------------------------------*- C++ -*----------------------------------*\
| =========                 |                                                 |
| \\      /  F ield         | OpenFOAM: The Open Source CFD Toolbox           |
|  \\    /   O peration     | Version:  3.0.1                                 |
|   \\  /    A nd           | Web:      www.OpenFOAM.org                      |
|    \\/     M anipulation  |                                                 |
\*---------------------------------------------------------------------------*/
FoamFile
{
    version     2.0;
    format      ascii;
    class       volScalarField;
    location    "4";
    object      thermalDiff_gas;
}
// * * * * * * * * * * * * * * * * * * * * * * * * * * * * * * * * * * * * * //

dimensions      [0 2 -1 0 0 0 0];

internalField   nonuniform List<scalar> 
800
(
0.00023710644
0.00023710644
0.00023710644
0.00023710644
0.00023710644
0.00023710644
0.00023710644
0.00023710644
0.00023710644
0.00023710644
0.00023710644
0.00023710644
0.00023710644
0.00023710644
0.00023710644
0.00023710644
0.00023710644
0.00023710644
0.00023710644
0.00023710644
0.00022881727
0.00022881732
0.00022881736
0.0002288174
0.00022881744
0.00022881747
0.00022881749
0.00022881751
0.00022881752
0.00022881752
0.00022881752
0.00022881752
0.00022881751
0.00022881749
0.00022881747
0.00022881744
0.0002288174
0.00022881736
0.00022881732
0.00022881727
0.00022850517
0.0002285052
0.00022850524
0.00022850529
0.00022850532
0.00022850536
0.00022850538
0.0002285054
0.00022850541
0.00022850542
0.00022850542
0.00022850541
0.0002285054
0.00022850538
0.00022850536
0.00022850532
0.00022850529
0.00022850524
0.0002285052
0.00022850517
0.00022836063
0.00022836067
0.00022836072
0.00022836077
0.00022836081
0.00022836084
0.00022836087
0.00022836089
0.0002283609
0.00022836091
0.00022836091
0.0002283609
0.00022836089
0.00022836087
0.00022836084
0.00022836081
0.00022836077
0.00022836072
0.00022836067
0.00022836063
0.00022822761
0.00022822767
0.00022822773
0.00022822779
0.00022822784
0.00022822787
0.0002282279
0.00022822792
0.00022822794
0.00022822794
0.00022822794
0.00022822794
0.00022822792
0.0002282279
0.00022822787
0.00022822784
0.00022822779
0.00022822773
0.00022822767
0.00022822761
0.00022810602
0.00022810609
0.00022810616
0.00022810622
0.00022810628
0.00022810632
0.00022810635
0.00022810637
0.00022810638
0.00022810639
0.00022810639
0.00022810638
0.00022810637
0.00022810635
0.00022810632
0.00022810628
0.00022810622
0.00022810616
0.00022810609
0.00022810602
0.00022799568
0.00022799574
0.00022799582
0.00022799589
0.00022799594
0.00022799598
0.00022799601
0.00022799603
0.00022799605
0.00022799605
0.00022799605
0.00022799605
0.00022799603
0.00022799601
0.00022799598
0.00022799594
0.00022799589
0.00022799582
0.00022799574
0.00022799568
0.00022789632
0.00022789638
0.00022789646
0.00022789652
0.00022789658
0.00022789662
0.00022789665
0.00022789667
0.00022789668
0.00022789669
0.00022789669
0.00022789668
0.00022789667
0.00022789665
0.00022789662
0.00022789658
0.00022789652
0.00022789646
0.00022789638
0.00022789632
0.00022780761
0.00022780767
0.00022780774
0.0002278078
0.00022780785
0.00022780789
0.00022780792
0.00022780794
0.00022780795
0.00022780796
0.00022780796
0.00022780795
0.00022780794
0.00022780792
0.00022780789
0.00022780785
0.0002278078
0.00022780774
0.00022780767
0.00022780761
0.00022772912
0.00022772917
0.00022772923
0.00022772929
0.00022772933
0.00022772937
0.0002277294
0.00022772942
0.00022772943
0.00022772944
0.00022772944
0.00022772943
0.00022772942
0.0002277294
0.00022772937
0.00022772933
0.00022772929
0.00022772923
0.00022772917
0.00022772912
0.00022766032
0.00022766036
0.00022766042
0.00022766047
0.00022766051
0.00022766055
0.00022766057
0.00022766059
0.0002276606
0.00022766061
0.00022766061
0.0002276606
0.00022766059
0.00022766057
0.00022766055
0.00022766051
0.00022766047
0.00022766042
0.00022766036
0.00022766032
0.00022760062
0.00022760066
0.00022760071
0.00022760075
0.00022760079
0.00022760082
0.00022760084
0.00022760086
0.00022760087
0.00022760088
0.00022760088
0.00022760087
0.00022760086
0.00022760084
0.00022760082
0.00022760079
0.00022760075
0.00022760071
0.00022760066
0.00022760062
0.00022754935
0.00022754938
0.00022754943
0.00022754947
0.0002275495
0.00022754953
0.00022754955
0.00022754956
0.00022754957
0.00022754957
0.00022754957
0.00022754957
0.00022754956
0.00022754955
0.00022754953
0.0002275495
0.00022754947
0.00022754943
0.00022754938
0.00022754935
0.00022750579
0.00022750582
0.00022750586
0.00022750589
0.00022750592
0.00022750594
0.00022750596
0.00022750597
0.00022750598
0.00022750599
0.00022750599
0.00022750598
0.00022750597
0.00022750596
0.00022750594
0.00022750592
0.00022750589
0.00022750586
0.00022750582
0.00022750579
0.00022746919
0.00022746922
0.00022746925
0.00022746928
0.0002274693
0.00022746932
0.00022746934
0.00022746935
0.00022746935
0.00022746936
0.00022746936
0.00022746935
0.00022746935
0.00022746934
0.00022746932
0.0002274693
0.00022746928
0.00022746925
0.00022746922
0.00022746919
0.00022743879
0.00022743881
0.00022743883
0.00022743886
0.00022743888
0.00022743889
0.00022743891
0.00022743892
0.00022743892
0.00022743892
0.00022743892
0.00022743892
0.00022743892
0.00022743891
0.00022743889
0.00022743888
0.00022743886
0.00022743883
0.00022743881
0.00022743879
0.00022741381
0.00022741383
0.00022741385
0.00022741387
0.00022741389
0.0002274139
0.00022741391
0.00022741392
0.00022741393
0.00022741393
0.00022741393
0.00022741393
0.00022741392
0.00022741391
0.0002274139
0.00022741389
0.00022741387
0.00022741385
0.00022741383
0.00022741381
0.00022739354
0.00022739356
0.00022739357
0.00022739359
0.0002273936
0.00022739361
0.00022739362
0.00022739363
0.00022739363
0.00022739364
0.00022739364
0.00022739363
0.00022739363
0.00022739362
0.00022739361
0.0002273936
0.00022739359
0.00022739357
0.00022739356
0.00022739354
0.00022737728
0.00022737729
0.0002273773
0.00022737732
0.00022737733
0.00022737734
0.00022737734
0.00022737735
0.00022737735
0.00022737735
0.00022737735
0.00022737735
0.00022737735
0.00022737734
0.00022737734
0.00022737733
0.00022737732
0.0002273773
0.00022737729
0.00022737728
0.00022736439
0.0002273644
0.00022736441
0.00022736442
0.00022736443
0.00022736443
0.00022736444
0.00022736444
0.00022736444
0.00022736445
0.00022736445
0.00022736444
0.00022736444
0.00022736444
0.00022736443
0.00022736443
0.00022736442
0.00022736441
0.0002273644
0.00022736439
0.00022735429
0.00022735429
0.0002273543
0.00022735431
0.00022735432
0.00022735432
0.00022735433
0.00022735433
0.00022735433
0.00022735433
0.00022735433
0.00022735433
0.00022735433
0.00022735433
0.00022735432
0.00022735432
0.00022735431
0.0002273543
0.00022735429
0.00022735429
0.00022734647
0.00022734647
0.00022734648
0.00022734649
0.00022734649
0.0002273465
0.0002273465
0.0002273465
0.0002273465
0.0002273465
0.0002273465
0.0002273465
0.0002273465
0.0002273465
0.0002273465
0.00022734649
0.00022734649
0.00022734648
0.00022734647
0.00022734647
0.00022734049
0.00022734049
0.0002273405
0.0002273405
0.0002273405
0.00022734051
0.00022734051
0.00022734051
0.00022734051
0.00022734051
0.00022734051
0.00022734051
0.00022734051
0.00022734051
0.00022734051
0.0002273405
0.0002273405
0.0002273405
0.00022734049
0.00022734049
0.00022733596
0.00022733597
0.00022733597
0.00022733598
0.00022733598
0.00022733598
0.00022733598
0.00022733598
0.00022733599
0.00022733599
0.00022733599
0.00022733599
0.00022733598
0.00022733598
0.00022733598
0.00022733598
0.00022733598
0.00022733597
0.00022733597
0.00022733596
0.00022733259
0.00022733259
0.00022733259
0.00022733259
0.0002273326
0.0002273326
0.0002273326
0.0002273326
0.0002273326
0.0002273326
0.0002273326
0.0002273326
0.0002273326
0.0002273326
0.0002273326
0.0002273326
0.00022733259
0.00022733259
0.00022733259
0.00022733259
0.00022733009
0.00022733009
0.0002273301
0.0002273301
0.0002273301
0.0002273301
0.0002273301
0.0002273301
0.0002273301
0.0002273301
0.0002273301
0.0002273301
0.0002273301
0.0002273301
0.0002273301
0.0002273301
0.0002273301
0.0002273301
0.00022733009
0.00022733009
0.00022732827
0.00022732827
0.00022732828
0.00022732828
0.00022732828
0.00022732828
0.00022732828
0.00022732828
0.00022732828
0.00022732828
0.00022732828
0.00022732828
0.00022732828
0.00022732828
0.00022732828
0.00022732828
0.00022732828
0.00022732828
0.00022732827
0.00022732827
0.00022732696
0.00022732696
0.00022732696
0.00022732696
0.00022732696
0.00022732696
0.00022732697
0.00022732697
0.00022732697
0.00022732697
0.00022732697
0.00022732697
0.00022732697
0.00022732697
0.00022732696
0.00022732696
0.00022732696
0.00022732696
0.00022732696
0.00022732696
0.00022732602
0.00022732602
0.00022732603
0.00022732603
0.00022732603
0.00022732603
0.00022732603
0.00022732603
0.00022732603
0.00022732603
0.00022732603
0.00022732603
0.00022732603
0.00022732603
0.00022732603
0.00022732603
0.00022732603
0.00022732603
0.00022732602
0.00022732602
0.00022732536
0.00022732536
0.00022732536
0.00022732536
0.00022732537
0.00022732537
0.00022732537
0.00022732537
0.00022732537
0.00022732537
0.00022732537
0.00022732537
0.00022732537
0.00022732537
0.00022732537
0.00022732537
0.00022732536
0.00022732536
0.00022732536
0.00022732536
0.0002273249
0.0002273249
0.0002273249
0.0002273249
0.0002273249
0.0002273249
0.0002273249
0.0002273249
0.00022732491
0.00022732491
0.00022732491
0.00022732491
0.0002273249
0.0002273249
0.0002273249
0.0002273249
0.0002273249
0.0002273249
0.0002273249
0.0002273249
0.00022732459
0.00022732459
0.00022732459
0.00022732459
0.00022732459
0.00022732459
0.00022732459
0.00022732459
0.00022732459
0.00022732459
0.00022732459
0.00022732459
0.00022732459
0.00022732459
0.00022732459
0.00022732459
0.00022732459
0.00022732459
0.00022732459
0.00022732459
0.00022732437
0.00022732437
0.00022732437
0.00022732437
0.00022732437
0.00022732437
0.00022732437
0.00022732437
0.00022732437
0.00022732437
0.00022732437
0.00022732437
0.00022732437
0.00022732437
0.00022732437
0.00022732437
0.00022732437
0.00022732437
0.00022732437
0.00022732437
0.00022732422
0.00022732422
0.00022732422
0.00022732422
0.00022732422
0.00022732422
0.00022732422
0.00022732422
0.00022732422
0.00022732422
0.00022732422
0.00022732422
0.00022732422
0.00022732422
0.00022732422
0.00022732422
0.00022732422
0.00022732422
0.00022732422
0.00022732422
0.00022732413
0.00022732413
0.00022732413
0.00022732413
0.00022732413
0.00022732413
0.00022732413
0.00022732413
0.00022732413
0.00022732413
0.00022732413
0.00022732413
0.00022732413
0.00022732413
0.00022732413
0.00022732413
0.00022732413
0.00022732413
0.00022732413
0.00022732413
0.00022732406
0.00022732406
0.00022732406
0.00022732406
0.00022732406
0.00022732406
0.00022732406
0.00022732406
0.00022732406
0.00022732406
0.00022732406
0.00022732406
0.00022732406
0.00022732406
0.00022732406
0.00022732406
0.00022732406
0.00022732406
0.00022732406
0.00022732406
0.00022732402
0.00022732402
0.00022732402
0.00022732402
0.00022732402
0.00022732402
0.00022732402
0.00022732402
0.00022732402
0.00022732402
0.00022732402
0.00022732402
0.00022732402
0.00022732402
0.00022732402
0.00022732402
0.00022732402
0.00022732402
0.00022732402
0.00022732402
0.00022732399
0.00022732399
0.00022732399
0.00022732399
0.00022732399
0.00022732399
0.00022732399
0.00022732399
0.00022732399
0.00022732399
0.00022732399
0.00022732399
0.00022732399
0.00022732399
0.00022732399
0.00022732399
0.00022732399
0.00022732399
0.00022732399
0.00022732399
0.00022732398
0.00022732398
0.00022732398
0.00022732398
0.00022732398
0.00022732398
0.00022732398
0.00022732398
0.00022732398
0.00022732398
0.00022732398
0.00022732398
0.00022732398
0.00022732398
0.00022732398
0.00022732398
0.00022732398
0.00022732398
0.00022732398
0.00022732398
0.00022732397
0.00022732397
0.00022732397
0.00022732397
0.00022732397
0.00022732397
0.00022732397
0.00022732397
0.00022732397
0.00022732397
0.00022732397
0.00022732397
0.00022732397
0.00022732397
0.00022732397
0.00022732397
0.00022732397
0.00022732397
0.00022732397
0.00022732397
)
;

boundaryField
{
    Wall
    {
        type            calculated;
        value           uniform 0.1;
    }
    frontAndBack
    {
        type            empty;
    }
    atmosphere
    {
        type            calculated;
        value           uniform 0.1;
    }
}


// ************************************************************************* //
