/*--------------------------------*- C++ -*----------------------------------*\
| =========                 |                                                 |
| \\      /  F ield         | OpenFOAM: The Open Source CFD Toolbox           |
|  \\    /   O peration     | Version:  3.0.1                                 |
|   \\  /    A nd           | Web:      www.OpenFOAM.org                      |
|    \\/     M anipulation  |                                                 |
\*---------------------------------------------------------------------------*/
FoamFile
{
    version     2.0;
    format      ascii;
    class       volScalarField;
    location    "4";
    object      TS;
}
// * * * * * * * * * * * * * * * * * * * * * * * * * * * * * * * * * * * * * //

dimensions      [0 0 0 1 0 0 0];

internalField   nonuniform List<scalar> 
800
(
304.52863
304.52862
304.52862
304.52863
304.52863
304.52863
304.52863
304.52863
304.52863
304.52863
304.52863
304.52863
304.52863
304.52863
304.52863
304.52863
304.52863
304.52862
304.52862
304.52863
298.99414
298.99417
298.9942
298.99423
298.99425
298.99427
298.99429
298.9943
298.99431
298.99431
298.99431
298.99431
298.9943
298.99429
298.99427
298.99425
298.99423
298.9942
298.99417
298.99414
298.78717
298.78719
298.78721
298.78724
298.78727
298.78729
298.78731
298.78732
298.78733
298.78733
298.78733
298.78733
298.78732
298.78731
298.78729
298.78727
298.78724
298.78721
298.78719
298.78717
298.69128
298.6913
298.69133
298.69137
298.6914
298.69142
298.69144
298.69145
298.69146
298.69146
298.69146
298.69146
298.69145
298.69144
298.69142
298.6914
298.69137
298.69133
298.6913
298.69128
298.60301
298.60304
298.60308
298.60312
298.60315
298.60318
298.6032
298.60321
298.60322
298.60323
298.60323
298.60322
298.60321
298.6032
298.60318
298.60315
298.60312
298.60308
298.60304
298.60301
298.52229
298.52233
298.52237
298.52242
298.52245
298.52248
298.5225
298.52251
298.52252
298.52253
298.52253
298.52252
298.52251
298.5225
298.52248
298.52245
298.52242
298.52237
298.52233
298.52229
298.449
298.44904
298.44909
298.44913
298.44917
298.4492
298.44922
298.44923
298.44924
298.44925
298.44925
298.44924
298.44923
298.44922
298.4492
298.44917
298.44913
298.44909
298.44904
298.449
298.38297
298.38301
298.38306
298.3831
298.38314
298.38316
298.38318
298.3832
298.38321
298.38321
298.38321
298.38321
298.3832
298.38318
298.38316
298.38314
298.3831
298.38306
298.38301
298.38297
298.32397
298.32401
298.32406
298.3241
298.32413
298.32416
298.32418
298.32419
298.3242
298.3242
298.3242
298.3242
298.32419
298.32418
298.32416
298.32413
298.3241
298.32406
298.32401
298.32397
298.27173
298.27176
298.2718
298.27184
298.27188
298.2719
298.27192
298.27193
298.27194
298.27194
298.27194
298.27194
298.27193
298.27192
298.2719
298.27188
298.27184
298.2718
298.27176
298.27173
298.2259
298.22593
298.22596
298.226
298.22603
298.22605
298.22607
298.22608
298.22609
298.22609
298.22609
298.22609
298.22608
298.22607
298.22605
298.22603
298.226
298.22596
298.22593
298.2259
298.18608
298.18611
298.18614
298.18617
298.1862
298.18622
298.18623
298.18624
298.18625
298.18625
298.18625
298.18625
298.18624
298.18623
298.18622
298.1862
298.18617
298.18614
298.18611
298.18608
298.15185
298.15187
298.1519
298.15193
298.15195
298.15197
298.15198
298.15199
298.15199
298.152
298.152
298.15199
298.15199
298.15198
298.15197
298.15195
298.15193
298.1519
298.15187
298.15185
298.12272
298.12274
298.12276
298.12279
298.12281
298.12282
298.12283
298.12284
298.12285
298.12285
298.12285
298.12285
298.12284
298.12283
298.12282
298.12281
298.12279
298.12276
298.12274
298.12272
298.09821
298.09822
298.09824
298.09826
298.09828
298.09829
298.0983
298.09831
298.09832
298.09832
298.09832
298.09832
298.09831
298.0983
298.09829
298.09828
298.09826
298.09824
298.09822
298.09821
298.07781
298.07782
298.07784
298.07785
298.07787
298.07788
298.07789
298.07789
298.0779
298.0779
298.0779
298.0779
298.07789
298.07789
298.07788
298.07787
298.07785
298.07784
298.07782
298.07781
298.06102
298.06103
298.06105
298.06106
298.06107
298.06108
298.06109
298.06109
298.06109
298.0611
298.0611
298.06109
298.06109
298.06109
298.06108
298.06107
298.06106
298.06105
298.06103
298.06102
298.04736
298.04737
298.04739
298.0474
298.04741
298.04741
298.04742
298.04742
298.04743
298.04743
298.04743
298.04743
298.04742
298.04742
298.04741
298.04741
298.0474
298.04739
298.04737
298.04736
298.03639
298.03639
298.0364
298.03641
298.03642
298.03643
298.03643
298.03643
298.03644
298.03644
298.03644
298.03644
298.03643
298.03643
298.03643
298.03642
298.03641
298.0364
298.03639
298.03639
298.02766
298.02767
298.02767
298.02768
298.02769
298.02769
298.0277
298.0277
298.0277
298.0277
298.0277
298.0277
298.0277
298.0277
298.02769
298.02769
298.02768
298.02767
298.02767
298.02766
298.02081
298.02081
298.02082
298.02082
298.02083
298.02083
298.02084
298.02084
298.02084
298.02084
298.02084
298.02084
298.02084
298.02084
298.02083
298.02083
298.02082
298.02082
298.02081
298.02081
298.01549
298.01549
298.0155
298.0155
298.01551
298.01551
298.01551
298.01551
298.01551
298.01551
298.01551
298.01551
298.01551
298.01551
298.01551
298.01551
298.0155
298.0155
298.01549
298.01549
298.01141
298.01141
298.01142
298.01142
298.01142
298.01142
298.01143
298.01143
298.01143
298.01143
298.01143
298.01143
298.01143
298.01143
298.01142
298.01142
298.01142
298.01142
298.01141
298.01141
298.00832
298.00832
298.00832
298.00832
298.00833
298.00833
298.00833
298.00833
298.00833
298.00833
298.00833
298.00833
298.00833
298.00833
298.00833
298.00833
298.00832
298.00832
298.00832
298.00832
298.006
298.006
298.006
298.006
298.00601
298.00601
298.00601
298.00601
298.00601
298.00601
298.00601
298.00601
298.00601
298.00601
298.00601
298.00601
298.006
298.006
298.006
298.006
298.00428
298.00428
298.00428
298.00429
298.00429
298.00429
298.00429
298.00429
298.00429
298.00429
298.00429
298.00429
298.00429
298.00429
298.00429
298.00429
298.00429
298.00428
298.00428
298.00428
298.00302
298.00303
298.00303
298.00303
298.00303
298.00303
298.00303
298.00303
298.00303
298.00303
298.00303
298.00303
298.00303
298.00303
298.00303
298.00303
298.00303
298.00303
298.00303
298.00302
298.00211
298.00212
298.00212
298.00212
298.00212
298.00212
298.00212
298.00212
298.00212
298.00212
298.00212
298.00212
298.00212
298.00212
298.00212
298.00212
298.00212
298.00212
298.00212
298.00211
298.00146
298.00146
298.00146
298.00146
298.00147
298.00147
298.00147
298.00147
298.00147
298.00147
298.00147
298.00147
298.00147
298.00147
298.00147
298.00147
298.00146
298.00146
298.00146
298.00146
298.001
298.001
298.001
298.001
298.001
298.001
298.001
298.001
298.001
298.001
298.001
298.001
298.001
298.001
298.001
298.001
298.001
298.001
298.001
298.001
298.00068
298.00068
298.00068
298.00068
298.00068
298.00068
298.00068
298.00068
298.00068
298.00068
298.00068
298.00068
298.00068
298.00068
298.00068
298.00068
298.00068
298.00068
298.00068
298.00068
298.00046
298.00046
298.00046
298.00046
298.00046
298.00046
298.00046
298.00046
298.00046
298.00046
298.00046
298.00046
298.00046
298.00046
298.00046
298.00046
298.00046
298.00046
298.00046
298.00046
298.0003
298.0003
298.0003
298.0003
298.0003
298.0003
298.0003
298.0003
298.0003
298.0003
298.0003
298.0003
298.0003
298.0003
298.0003
298.0003
298.0003
298.0003
298.0003
298.0003
298.0002
298.0002
298.0002
298.0002
298.0002
298.0002
298.0002
298.0002
298.0002
298.0002
298.0002
298.0002
298.0002
298.0002
298.0002
298.0002
298.0002
298.0002
298.0002
298.0002
298.00013
298.00013
298.00013
298.00013
298.00013
298.00013
298.00013
298.00013
298.00013
298.00013
298.00013
298.00013
298.00013
298.00013
298.00013
298.00013
298.00013
298.00013
298.00013
298.00013
298.00009
298.00009
298.00009
298.00009
298.00009
298.00009
298.00009
298.00009
298.00009
298.00009
298.00009
298.00009
298.00009
298.00009
298.00009
298.00009
298.00009
298.00009
298.00009
298.00009
298.00006
298.00006
298.00006
298.00006
298.00006
298.00006
298.00006
298.00006
298.00006
298.00006
298.00006
298.00006
298.00006
298.00006
298.00006
298.00006
298.00006
298.00006
298.00006
298.00006
298.00004
298.00004
298.00004
298.00004
298.00004
298.00004
298.00004
298.00004
298.00004
298.00004
298.00004
298.00004
298.00004
298.00004
298.00004
298.00004
298.00004
298.00004
298.00004
298.00004
298.00003
298.00003
298.00003
298.00003
298.00003
298.00003
298.00003
298.00003
298.00003
298.00003
298.00003
298.00003
298.00003
298.00003
298.00003
298.00003
298.00003
298.00003
298.00003
298.00003
298.00002
298.00002
298.00002
298.00002
298.00002
298.00002
298.00002
298.00002
298.00002
298.00002
298.00002
298.00002
298.00002
298.00002
298.00002
298.00002
298.00002
298.00002
298.00002
298.00002
)
;

boundaryField
{
    Wall
    {
        type            zeroGradient;
    }
    frontAndBack
    {
        type            empty;
    }
    atmosphere
    {
        type            zeroGradient;
    }
}


// ************************************************************************* //
