/*--------------------------------*- C++ -*----------------------------------*\
| =========                 |                                                 |
| \\      /  F ield         | OpenFOAM: The Open Source CFD Toolbox           |
|  \\    /   O peration     | Version:  3.0.1                                 |
|   \\  /    A nd           | Web:      www.OpenFOAM.org                      |
|    \\/     M anipulation  |                                                 |
\*---------------------------------------------------------------------------*/
FoamFile
{
    version     2.0;
    format      ascii;
    class       volVectorField;
    location    "4";
    object      U;
}
// * * * * * * * * * * * * * * * * * * * * * * * * * * * * * * * * * * * * * //

dimensions      [0 1 -1 0 0 0 0];

internalField   nonuniform List<vector> 
800
(
(-2.7497786e-09 1.3721859e-05 0)
(-3.1878392e-09 1.3763073e-05 0)
(-1.3303688e-09 1.376764e-05 0)
(-3.4380591e-10 1.3768442e-05 0)
(4.5128615e-12 1.376868e-05 0)
(9.9533847e-11 1.376876e-05 0)
(1.054895e-10 1.3768787e-05 0)
(8.2341305e-11 1.3768795e-05 0)
(5.0774257e-11 1.3768797e-05 0)
(1.7303348e-11 1.3768798e-05 0)
(-1.617993e-11 1.3768798e-05 0)
(-4.9358969e-11 1.3768798e-05 0)
(-8.0890635e-11 1.3768795e-05 0)
(-1.0401423e-10 1.3768787e-05 0)
(-9.8038136e-11 1.376876e-05 0)
(-3.0317215e-12 1.376868e-05 0)
(3.453024e-10 1.3768442e-05 0)
(1.3314522e-09 1.376764e-05 0)
(3.1883007e-09 1.3763073e-05 0)
(2.7499103e-09 1.3721859e-05 0)
(2.0304228e-09 1.3908135e-05 0)
(2.2290373e-09 1.3987652e-05 0)
(9.9122353e-10 1.3998853e-05 0)
(6.5348527e-10 1.4000833e-05 0)
(4.9197902e-10 1.4001266e-05 0)
(3.6932973e-10 1.4001365e-05 0)
(2.6863646e-10 1.4001386e-05 0)
(1.827628e-10 1.4001388e-05 0)
(1.0651351e-10 1.4001386e-05 0)
(3.5521668e-11 1.4001384e-05 0)
(-3.3710575e-11 1.4001384e-05 0)
(-1.0456716e-10 1.4001386e-05 0)
(-1.8084897e-10 1.4001388e-05 0)
(-2.6663641e-10 1.4001386e-05 0)
(-3.6752136e-10 1.4001365e-05 0)
(-4.9005005e-10 1.4001266e-05 0)
(-6.5141572e-10 1.4000832e-05 0)
(-9.8940686e-10 1.3998853e-05 0)
(-2.2273483e-09 1.3987651e-05 0)
(-2.0293138e-09 1.3908134e-05 0)
(2.5651706e-09 1.3456207e-05 0)
(3.6523315e-09 1.4206718e-05 0)
(2.655724e-09 1.4329041e-05 0)
(2.2204822e-09 1.4365232e-05 0)
(1.8126377e-09 1.4374523e-05 0)
(1.4123977e-09 1.4376436e-05 0)
(1.0482851e-09 1.4376698e-05 0)
(7.2203854e-10 1.4376674e-05 0)
(4.2438566e-10 1.4376629e-05 0)
(1.4344973e-10 1.4376605e-05 0)
(-1.320822e-10 1.4376605e-05 0)
(-4.1311258e-10 1.4376629e-05 0)
(-7.1121966e-10 1.4376674e-05 0)
(-1.0380654e-09 1.4376699e-05 0)
(-1.4032748e-09 1.4376436e-05 0)
(-1.8043132e-09 1.4374521e-05 0)
(-2.2130015e-09 1.4365229e-05 0)
(-2.6497429e-09 1.4329037e-05 0)
(-3.6479914e-09 1.4206714e-05 0)
(-2.5631654e-09 1.3456205e-05 0)
(2.6085378e-08 1.1423396e-05 0)
(6.6350398e-08 2.5020286e-05 0)
(8.3329251e-08 3.1360103e-05 0)
(8.174291e-08 3.3659626e-05 0)
(7.0671404e-08 3.4324044e-05 0)
(5.6659183e-08 3.4477994e-05 0)
(4.270577e-08 3.4504267e-05 0)
(2.967389e-08 3.4505244e-05 0)
(1.753214e-08 3.4503174e-05 0)
(5.9598386e-09 3.4501915e-05 0)
(-5.4265798e-09 3.4501923e-05 0)
(-1.7011888e-08 3.4503194e-05 0)
(-2.9179179e-08 3.4505265e-05 0)
(-4.2251024e-08 3.4504273e-05 0)
(-5.6255127e-08 3.4477964e-05 0)
(-7.0320979e-08 3.4323958e-05 0)
(-8.1450626e-08 3.3659483e-05 0)
(-8.3107076e-08 3.1359919e-05 0)
(-6.6211022e-08 2.5020111e-05 0)
(-2.6037389e-08 1.1423319e-05 0)
(3.4665128e-08 1.3097719e-05 0)
(9.0088666e-08 3.2446936e-05 0)
(1.1622793e-07 4.2153934e-05 0)
(1.1702026e-07 4.5782225e-05 0)
(1.0358471e-07 4.6847245e-05 0)
(8.4675245e-08 4.7096398e-05 0)
(6.4761325e-08 4.7138986e-05 0)
(4.5458216e-08 4.7140275e-05 0)
(2.7035023e-08 4.7136605e-05 0)
(9.2375906e-09 4.713438e-05 0)
(-8.3515109e-09 4.7134392e-05 0)
(-2.6174552e-08 4.7136631e-05 0)
(-4.4647743e-08 4.7140303e-05 0)
(-6.4027654e-08 4.7138993e-05 0)
(-8.4036382e-08 4.7096349e-05 0)
(-1.0304459e-07 4.684711e-05 0)
(-1.1658325e-07 4.5781997e-05 0)
(-1.1590705e-07 4.2153637e-05 0)
(-8.9895037e-08 3.2446654e-05 0)
(-3.4600488e-08 1.3097594e-05 0)
(3.0499183e-08 1.4169508e-05 0)
(8.0811487e-08 3.5811552e-05 0)
(1.0744482e-07 4.6891554e-05 0)
(1.1187925e-07 5.1084832e-05 0)
(1.0225323e-07 5.2327006e-05 0)
(8.5879117e-08 5.2620048e-05 0)
(6.7066154e-08 5.2670547e-05 0)
(4.7780193e-08 5.2671995e-05 0)
(2.8698726e-08 5.2667446e-05 0)
(9.8905633e-09 5.266466e-05 0)
(-8.8213271e-09 5.2664668e-05 0)
(-2.7668087e-08 5.2667464e-05 0)
(-4.6823609e-08 5.2672013e-05 0)
(-6.6220682e-08 5.2670545e-05 0)
(-8.5169005e-08 5.2619995e-05 0)
(-1.0168252e-07 5.2326868e-05 0)
(-1.1144699e-07 5.1084594e-05 0)
(-1.0715299e-07 4.6891241e-05 0)
(-8.0652364e-08 3.5811253e-05 0)
(-3.0450308e-08 1.4169376e-05 0)
(2.2334673e-08 1.455408e-05 0)
(6.0384873e-08 3.6924366e-05 0)
(8.2951293e-08 4.8446091e-05 0)
(8.965739e-08 5.2829258e-05 0)
(8.4933503e-08 5.4135085e-05 0)
(7.3556939e-08 5.4445837e-05 0)
(5.8843577e-08 5.4500462e-05 0)
(4.2662945e-08 5.4502545e-05 0)
(2.5936019e-08 5.4497873e-05 0)
(9.0425875e-09 5.4494926e-05 0)
(-7.8984106e-09 5.4494924e-05 0)
(-2.4837631e-08 5.4497865e-05 0)
(-4.1654806e-08 5.4502527e-05 0)
(-5.7970472e-08 5.4500425e-05 0)
(-7.285052e-08 5.4445767e-05 0)
(-8.4401965e-08 5.4134959e-05 0)
(-8.9294881e-08 5.2829063e-05 0)
(-8.2743881e-08 4.8445843e-05 0)
(-6.0298284e-08 3.6924133e-05 0)
(-2.2315304e-08 1.4553979e-05 0)
(1.517219e-08 1.4653071e-05 0)
(4.180489e-08 3.7206558e-05 0)
(5.9254107e-08 4.8844608e-05 0)
(6.639696e-08 5.3282608e-05 0)
(6.5131343e-08 5.4610055e-05 0)
(5.8133896e-08 5.4928819e-05 0)
(4.7632932e-08 5.4986487e-05 0)
(3.5151807e-08 5.498977e-05 0)
(2.1638365e-08 5.4985561e-05 0)
(7.642379e-09 5.498276e-05 0)
(-6.5053033e-09 5.4982743e-05 0)
(-2.0542853e-08 5.4985511e-05 0)
(-3.414478e-08 5.4989692e-05 0)
(-4.6761151e-08 5.4986385e-05 0)
(-5.74348e-08 5.4928701e-05 0)
(-6.4624323e-08 5.4609925e-05 0)
(-6.6082019e-08 5.3282466e-05 0)
(-5.910876e-08 4.8844459e-05 0)
(-4.1773519e-08 3.7206434e-05 0)
(-1.5175641e-08 1.465302e-05 0)
(1.0133107e-08 1.4670856e-05 0)
(2.8365859e-08 3.7259556e-05 0)
(4.1291954e-08 4.8923826e-05 0)
(4.7730421e-08 5.3377563e-05 0)
(4.8264681e-08 5.4713715e-05 0)
(4.4238851e-08 5.5037315e-05 0)
(3.70309e-08 5.5097717e-05 0)
(2.7769426e-08 5.5102531e-05 0)
(1.7293192e-08 5.5099126e-05 0)
(6.1883331e-09 5.5096662e-05 0)
(-5.1162665e-09 5.5096625e-05 0)
(-1.6248572e-08 5.5099021e-05 0)
(-2.6791707e-08 5.5102373e-05 0)
(-3.616393e-08 5.5097528e-05 0)
(-4.3524557e-08 5.5037123e-05 0)
(-4.7736203e-08 5.4713549e-05 0)
(-4.7401695e-08 5.3377443e-05 0)
(-4.1143827e-08 4.8923753e-05 0)
(-2.8337405e-08 3.7259524e-05 0)
(-1.0138646e-08 1.467085e-05 0)
(6.8335756e-09 1.467138e-05 0)
(1.9359071e-08 3.726341e-05 0)
(2.8765214e-08 4.8933111e-05 0)
(3.4069953e-08 5.3392481e-05 0)
(3.5296559e-08 5.4733355e-05 0)
(3.3059706e-08 5.5060483e-05 0)
(2.8168725e-08 5.5123332e-05 0)
(2.1411782e-08 5.5129733e-05 0)
(1.3468382e-08 5.5127261e-05 0)
(4.8794598e-09 5.512522e-05 0)
(-3.9135408e-09 5.5125166e-05 0)
(-1.250882e-08 5.5127105e-05 0)
(-2.0482106e-08 5.5129499e-05 0)
(-2.7306851e-08 5.5123057e-05 0)
(-3.2310991e-08 5.5060207e-05 0)
(-3.4704156e-08 5.4733121e-05 0)
(-3.3661338e-08 5.3392322e-05 0)
(-2.8536001e-08 4.8933034e-05 0)
(-1.9267361e-08 3.7263398e-05 0)
(-6.8147732e-09 1.4671387e-05 0)
(4.6892527e-09 1.4669535e-05 0)
(1.3395145e-08 3.7259833e-05 0)
(2.0196141e-08 4.8930721e-05 0)
(2.4348254e-08 5.339291e-05 0)
(2.5687345e-08 5.473689e-05 0)
(2.4465086e-08 5.5066716e-05 0)
(2.114114e-08 5.513164e-05 0)
(1.624797e-08 5.5139498e-05 0)
(1.0307687e-08 5.513794e-05 0)
(3.7778314e-09 5.5136334e-05 0)
(-2.9374142e-09 5.5136273e-05 0)
(-9.4557145e-09 5.513776e-05 0)
(-1.5390351e-08 5.5139225e-05 0)
(-2.0304825e-08 5.5131311e-05 0)
(-2.3694829e-08 5.5066374e-05 0)
(-2.5031054e-08 5.4736574e-05 0)
(-2.3840553e-08 5.3392657e-05 0)
(-1.9849612e-08 4.8930552e-05 0)
(-1.3202979e-08 3.725975e-05 0)
(-4.6300267e-09 1.4669514e-05 0)
(3.2665531e-09 1.4667927e-05 0)
(9.3838507e-09 3.7256365e-05 0)
(1.4291632e-08 4.8927591e-05 0)
(1.744815e-08 5.3391527e-05 0)
(1.8655501e-08 5.4737695e-05 0)
(1.7995812e-08 5.506957e-05 0)
(1.5725386e-08 5.513617e-05 0)
(1.2197876e-08 5.5145271e-05 0)
(7.7993505e-09 5.5144524e-05 0)
(2.8959408e-09 5.5143319e-05 0)
(-2.1662794e-09 5.5143259e-05 0)
(-7.0500674e-09 5.5144348e-05 0)
(-1.1422769e-08 5.5144995e-05 0)
(-1.4939795e-08 5.5135824e-05 0)
(-1.7239349e-08 5.5069182e-05 0)
(-1.7974771e-08 5.4737291e-05 0)
(-1.6878676e-08 5.3391147e-05 0)
(-1.3858118e-08 4.8927272e-05 0)
(-9.1112154e-09 3.7256147e-05 0)
(-3.1739484e-09 1.4667848e-05 0)
(2.2991805e-09 1.4666759e-05 0)
(6.6319748e-09 3.7253776e-05 0)
(1.0174211e-08 4.8925121e-05 0)
(1.2534896e-08 5.3390226e-05 0)
(1.3534568e-08 5.4737954e-05 0)
(1.3183917e-08 5.5071365e-05 0)
(1.1627384e-08 5.5139275e-05 0)
(9.0955983e-09 5.5149384e-05 0)
(5.8626241e-09 5.5149317e-05 0)
(2.2128404e-09 5.5148455e-05 0)
(-1.5668023e-09 5.5148404e-05 0)
(-5.194947e-09 5.5149164e-05 0)
(-8.3992501e-09 5.5149139e-05 0)
(-1.0915585e-08 5.5138949e-05 0)
(-1.2487932e-08 5.5070963e-05 0)
(-1.2888598e-08 5.4737489e-05 0)
(-1.1967127e-08 5.3389732e-05 0)
(-9.7157903e-09 4.8924654e-05 0)
(-6.3289136e-09 3.7253416e-05 0)
(-2.193315e-09 1.4666615e-05 0)
(1.628019e-09 1.4665874e-05 0)
(4.7120518e-09 3.7251775e-05 0)
(7.270764e-09 4.8923117e-05 0)
(9.0206461e-09 5.3389003e-05 0)
(9.8129341e-09 5.4737843e-05 0)
(9.6303545e-09 5.5072392e-05 0)
(8.5575359e-09 5.5141305e-05 0)
(6.7458498e-09 5.5152208e-05 0)
(4.3842507e-09 5.5152689e-05 0)
(1.6886663e-09 5.5152112e-05 0)
(-1.1089598e-09 5.5152075e-05 0)
(-3.7843872e-09 5.5152577e-05 0)
(-6.1258623e-09 5.5152019e-05 0)
(-7.935336e-09 5.5141032e-05 0)
(-9.0285192e-09 5.5072021e-05 0)
(-9.2508861e-09 5.4737377e-05 0)
(-8.5165777e-09 5.3388469e-05 0)
(-6.8541366e-09 4.8922572e-05 0)
(-4.4337578e-09 3.7251328e-05 0)
(-1.5310767e-09 1.4665688e-05 0)
(1.15626e-09 1.4665122e-05 0)
(3.3567653e-09 3.7250033e-05 0)
(5.2045338e-09 4.8921257e-05 0)
(6.4932281e-09 5.3387651e-05 0)
(7.1052661e-09 5.4737279e-05 0)
(7.0138234e-09 5.5072667e-05 0)
(6.2706441e-09 5.5142342e-05 0)
(4.9781133e-09 5.515386e-05 0)
(3.2652015e-09 5.5154772e-05 0)
(1.291215e-09 5.5154423e-05 0)
(-7.6304531e-10 5.5154401e-05 0)
(-2.7248068e-09 5.5154701e-05 0)
(-4.4347029e-09 5.5153729e-05 0)
(-5.7440353e-09 5.5142132e-05 0)
(-6.5169521e-09 5.5072359e-05 0)
(-6.6481278e-09 5.4736872e-05 0)
(-6.0888829e-09 5.3387164e-05 0)
(-4.8754622e-09 4.8920739e-05 0)
(-3.142711e-09 3.7249591e-05 0)
(-1.0839306e-09 1.4664935e-05 0)
(8.2209429e-10 1.4664426e-05 0)
(2.3924082e-09 3.724838e-05 0)
(3.7231074e-09 4.8919384e-05 0)
(4.664325e-09 5.3386089e-05 0)
(5.1275896e-09 5.4736278e-05 0)
(5.0874517e-09 5.5072288e-05 0)
(4.5756438e-09 5.5142543e-05 0)
(3.6604431e-09 5.5154534e-05 0)
(2.4292056e-09 5.515578e-05 0)
(9.9533139e-10 5.5155608e-05 0)
(-5.055561e-10 5.5155594e-05 0)
(-1.9403339e-09 5.5155733e-05 0)
(-3.1875347e-09 5.5154443e-05 0)
(-4.1349662e-09 5.5142388e-05 0)
(-4.6846568e-09 5.5072057e-05 0)
(-4.7691271e-09 5.4735971e-05 0)
(-4.36228e-09 5.3385719e-05 0)
(-3.4927853e-09 4.8918982e-05 0)
(-2.2547237e-09 3.7248027e-05 0)
(-7.7918252e-10 1.4664275e-05 0)
(5.8310901e-10 1.4663776e-05 0)
(1.7003284e-09 3.7246805e-05 0)
(2.6557708e-09 4.8917524e-05 0)
(3.3418616e-09 5.3384405e-05 0)
(3.6921602e-09 5.4734993e-05 0)
(3.6844264e-09 5.5071468e-05 0)
(3.3353906e-09 5.5142163e-05 0)
(2.6885256e-09 5.5154517e-05 0)
(1.8058182e-09 5.5156016e-05 0)
(7.6934878e-10 5.5155973e-05 0)
(-3.2111063e-10 5.5155957e-05 0)
(-1.3642064e-09 5.5155971e-05 0)
(-2.2671434e-09 5.5154442e-05 0)
(-2.9464696e-09 5.5142052e-05 0)
(-3.3354271e-09 5.5071316e-05 0)
(-3.3949636e-09 5.4734803e-05 0)
(-3.1128855e-09 5.338418e-05 0)
(-2.5049542e-09 4.8917273e-05 0)
(-1.626839e-09 3.7246578e-05 0)
(-5.6469293e-10 1.4663677e-05 0)
(4.081735e-10 1.46632e-05 0)
(1.1953575e-09 3.7245392e-05 0)
(1.8827717e-09 4.891581e-05 0)
(2.3923845e-09 5.3382779e-05 0)
(2.666476e-09 5.4733647e-05 0)
(2.681434e-09 5.507046e-05 0)
(2.4438043e-09 5.514148e-05 0)
(1.9801977e-09 5.5154102e-05 0)
(1.339244e-09 5.5155786e-05 0)
(5.8842912e-10 5.5155834e-05 0)
(-1.965097e-10 5.5155815e-05 0)
(-9.4220741e-10 5.5155736e-05 0)
(-1.5831337e-09 5.5154036e-05 0)
(-2.0616755e-09 5.5141408e-05 0)
(-2.3345024e-09 5.5070381e-05 0)
(-2.3807695e-09 5.4733559e-05 0)
(-2.1956322e-09 5.3382674e-05 0)
(-1.7822935e-09 4.8915681e-05 0)
(-1.1669794e-09 3.7245265e-05 0)
(-4.0697148e-10 1.4663143e-05 0)
(2.7681102e-10 1.4662729e-05 0)
(8.1908651e-10 3.7244227e-05 0)
(1.3143246e-09 4.8914379e-05 0)
(1.7043335e-09 5.3381388e-05 0)
(1.9308347e-09 5.4732443e-05 0)
(1.964716e-09 5.5069489e-05 0)
(1.8058046e-09 5.5140737e-05 0)
(1.4689008e-09 5.5153547e-05 0)
(9.9513167e-10 5.5155363e-05 0)
(4.4746988e-10 5.5155477e-05 0)
(-1.1315373e-10 5.5155461e-05 0)
(-6.34772e-10 5.515532e-05 0)
(-1.0760378e-09 5.5153498e-05 0)
(-1.4042573e-09 5.5140698e-05 0)
(-1.5946612e-09 5.5069461e-05 0)
(-1.6358002e-09 5.4732413e-05 0)
(-1.5222628e-09 5.3381342e-05 0)
(-1.2472625e-09 4.8914309e-05 0)
(-8.2123306e-10 3.7244151e-05 0)
(-2.86801e-10 1.4662692e-05 0)
(1.7942431e-10 1.4662373e-05 0)
(5.397108e-10 3.7243348e-05 0)
(8.9150654e-10 4.8913297e-05 0)
(1.1928446e-09 5.3380328e-05 0)
(1.385218e-09 5.4731507e-05 0)
(1.434392e-09 5.5068714e-05 0)
(1.3355748e-09 5.5140119e-05 0)
(1.0947925e-09 5.5153062e-05 0)
(7.4604051e-10 5.5154973e-05 0)
(3.4794321e-10 5.5155137e-05 0)
(-4.8680046e-11 5.5155126e-05 0)
(-4.0581606e-10 5.5154945e-05 0)
(-6.9947131e-10 5.5153031e-05 0)
(-9.1786239e-10 5.5140099e-05 0)
(-1.0518306e-09 5.5068702e-05 0)
(-1.0928231e-09 5.4731487e-05 0)
(-1.0295551e-09 5.3380286e-05 0)
(-8.5029997e-10 4.8913235e-05 0)
(-5.6053652e-10 3.7243285e-05 0)
(-1.9523205e-10 1.4662344e-05 0)
(1.1136372e-10 1.4662131e-05 0)
(3.4104237e-10 3.7242749e-05 0)
(5.8264901e-10 4.8912563e-05 0)
(8.1022533e-10 5.3379615e-05 0)
(9.7299162e-10 5.4730887e-05 0)
(1.0344713e-09 5.5068211e-05 0)
(9.8340375e-10 5.5139733e-05 0)
(8.1884853e-10 5.5152774e-05 0)
(5.6753081e-10 5.5154756e-05 0)
(2.8143148e-10 5.5154956e-05 0)
(4.7012215e-12 5.5154947e-05 0)
(-2.3418883e-10 5.5154728e-05 0)
(-4.2440243e-10 5.5152737e-05 0)
(-5.6836507e-10 5.5139695e-05 0)
(-6.6547675e-10 5.506817e-05 0)
(-7.0522649e-10 5.4730829e-05 0)
(-6.7262366e-10 5.3379538e-05 0)
(-5.5746563e-10 4.8912477e-05 0)
(-3.6554455e-10 3.7242676e-05 0)
(-1.2630684e-10 1.46621e-05 0)
(6.6024601e-11 1.4661988e-05 0)
(2.057189e-10 3.7242396e-05 0)
(3.6445617e-10 4.8912138e-05 0)
(5.3025322e-10 5.3379221e-05 0)
(6.6601656e-10 5.4730569e-05 0)
(7.3578262e-10 5.5067981e-05 0)
(7.2018175e-10 5.5139587e-05 0)
(6.1334325e-10 5.5152699e-05 0)
(4.3563741e-10 5.5154733e-05 0)
(2.3130401e-10 5.5154959e-05 0)
(4.0866432e-11 5.5154942e-05 0)
(-1.136179e-10 5.5154685e-05 0)
(-2.331307e-10 5.5152626e-05 0)
(-3.282152e-10 5.5139492e-05 0)
(-3.9834489e-10 5.5067867e-05 0)
(-4.3059934e-10 5.4730433e-05 0)
(-4.1326812e-10 5.3379075e-05 0)
(-3.4145369e-10 4.8912004e-05 0)
(-2.2110171e-10 3.7242294e-05 0)
(-7.5370476e-11 1.4661947e-05 0)
(3.7388682e-11 1.4661916e-05 0)
(1.185995e-10 3.724222e-05 0)
(2.1802534e-10 4.8911938e-05 0)
(3.3211184e-10 5.337906e-05 0)
(4.3879069e-10 5.4730473e-05 0)
(5.0895439e-10 5.506795e-05 0)
(5.1875655e-10 5.5139615e-05 0)
(4.5642866e-10 5.515278e-05 0)
(3.3444796e-10 5.5154853e-05 0)
(1.8848534e-10 5.5155097e-05 0)
(5.7121786e-11 5.5155072e-05 0)
(-3.906268e-11 5.515478e-05 0)
(-1.1057636e-10 5.5152666e-05 0)
(-1.7309009e-10 5.5139463e-05 0)
(-2.213274e-10 5.5067763e-05 0)
(-2.4130036e-10 5.4730258e-05 0)
(-2.2863142e-10 5.3378845e-05 0)
(-1.8575867e-10 4.8911753e-05 0)
(-1.1793483e-10 3.7242087e-05 0)
(-3.9547319e-11 1.4661863e-05 0)
(2.0122099e-11 1.4661881e-05 0)
(6.5410979e-11 3.7242136e-05 0)
(1.2581311e-10 4.8911849e-05 0)
(2.0142806e-10 5.3379003e-05 0)
(2.7988564e-10 5.473047e-05 0)
(3.4225525e-10 5.5068002e-05 0)
(3.6828126e-10 5.5139718e-05 0)
(3.4049189e-10 5.5152929e-05 0)
(2.6053153e-10 5.5155038e-05 0)
(1.5477504e-10 5.5155304e-05 0)
(6.0226261e-11 5.515528e-05 0)
(-8.4445565e-13 5.5154967e-05 0)
(-4.3083381e-11 5.5152812e-05 0)
(-8.3069239e-11 5.5139556e-05 0)
(-1.1184169e-10 5.5067799e-05 0)
(-1.1834937e-10 5.4730237e-05 0)
(-1.0566585e-10 5.3378771e-05 0)
(-8.2889207e-11 4.8911647e-05 0)
(-5.2911213e-11 3.7241988e-05 0)
(-1.8129149e-11 1.4661822e-05 0)
(1.0637822e-11 1.4661854e-05 0)
(3.6746355e-11 3.7242065e-05 0)
(7.6504107e-11 4.8911765e-05 0)
(1.3016926e-10 5.3378939e-05 0)
(1.876481e-10 5.4730446e-05 0)
(2.3809764e-10 5.506803e-05 0)
(2.707679e-10 5.5139797e-05 0)
(2.6572892e-10 5.5153056e-05 0)
(2.1401949e-10 5.5155204e-05 0)
(1.3365814e-10 5.5155497e-05 0)
(5.8865158e-11 5.5155486e-05 0)
(1.2594228e-11 5.5155169e-05 0)
(-1.7276355e-11 5.5152991e-05 0)
(-4.2371639e-11 5.5139697e-05 0)
(-5.379507e-11 5.5067893e-05 0)
(-4.8257077e-11 5.4730279e-05 0)
(-3.5320985e-11 5.337876e-05 0)
(-2.7132514e-11 4.8911595e-05 0)
(-2.1738775e-11 3.7241928e-05 0)
(-9.2249502e-12 1.4661796e-05 0)
(6.7340833e-12 1.4661813e-05 0)
(2.6109433e-11 3.7241958e-05 0)
(5.9236496e-11 4.8911626e-05 0)
(1.0421337e-10 5.3378803e-05 0)
(1.5036761e-10 5.4730339e-05 0)
(1.9097216e-10 5.5067967e-05 0)
(2.2297821e-10 5.5139781e-05 0)
(2.2728104e-10 5.5153082e-05 0)
(1.9038275e-10 5.5155266e-05 0)
(1.2592919e-10 5.515559e-05 0)
(6.3097602e-11 5.5155602e-05 0)
(2.0326223e-11 5.5155297e-05 0)
(-1.0708421e-11 5.5153116e-05 0)
(-3.2159731e-11 5.51398e-05 0)
(-3.5186583e-11 5.5067958e-05 0)
(-2.4753452e-11 5.4730295e-05 0)
(-1.4022909e-11 5.3378724e-05 0)
(-1.2865536e-11 4.8911522e-05 0)
(-1.5743749e-11 3.7241854e-05 0)
(-8.228104e-12 1.4661765e-05 0)
(6.031453e-12 1.4661745e-05 0)
(2.5129072e-11 3.7241783e-05 0)
(5.9395713e-11 4.8911398e-05 0)
(1.057854e-10 5.3378567e-05 0)
(1.5197004e-10 5.4730125e-05 0)
(1.8986781e-10 5.5067788e-05 0)
(2.1859736e-10 5.513964e-05 0)
(2.2219949e-10 5.5152974e-05 0)
(1.9003532e-10 5.5155188e-05 0)
(1.3556083e-10 5.5155539e-05 0)
(8.1778208e-11 5.5155575e-05 0)
(3.8391992e-11 5.5155291e-05 0)
(-3.3262472e-12 5.5153123e-05 0)
(-3.68477e-11 5.5139806e-05 0)
(-4.9956018e-11 5.5067941e-05 0)
(-4.8292163e-11 5.4730238e-05 0)
(-4.092836e-11 5.3378625e-05 0)
(-3.3597929e-11 4.8911399e-05 0)
(-2.6091272e-11 3.724175e-05 0)
(-1.0999443e-11 1.4661724e-05 0)
(1.0315307e-11 1.4661641e-05 0)
(3.7399812e-11 3.7241517e-05 0)
(8.0033e-11 4.8911056e-05 0)
(1.3503873e-10 5.3378214e-05 0)
(1.8725618e-10 5.4729796e-05 0)
(2.2617015e-10 5.5067496e-05 0)
(2.5091128e-10 5.5139386e-05 0)
(2.4956002e-10 5.5152751e-05 0)
(2.1666947e-10 5.5154988e-05 0)
(1.6683538e-10 5.515536e-05 0)
(1.1956134e-10 5.5155417e-05 0)
(7.5963682e-11 5.5155151e-05 0)
(2.0227251e-11 5.5152999e-05 0)
(-3.9555968e-11 5.5139695e-05 0)
(-8.462834e-11 5.5067828e-05 0)
(-1.0814934e-10 5.4730106e-05 0)
(-1.0527254e-10 5.3378475e-05 0)
(-8.0676399e-11 4.8911249e-05 0)
(-4.9089916e-11 3.7241633e-05 0)
(-1.6922082e-11 1.4661678e-05 0)
(2.0192302e-11 1.46615e-05 0)
(6.698286e-11 3.7241159e-05 0)
(1.2945316e-10 4.8910599e-05 0)
(2.0075853e-10 5.3377747e-05 0)
(2.6170706e-10 5.472936e-05 0)
(3.0110768e-10 5.5067108e-05 0)
(3.1941243e-10 5.5139045e-05 0)
(3.1022323e-10 5.5152445e-05 0)
(2.7289789e-10 5.5154705e-05 0)
(2.2288162e-10 5.5155091e-05 0)
(1.7775774e-10 5.5155159e-05 0)
(1.3132112e-10 5.5154903e-05 0)
(5.9141553e-11 5.5152766e-05 0)
(-3.4729707e-11 5.5139482e-05 0)
(-1.2378811e-10 5.5067632e-05 0)
(-1.8015124e-10 5.4729924e-05 0)
(-1.8329162e-10 5.3378308e-05 0)
(-1.4182544e-10 4.8911105e-05 0)
(-8.4459626e-11 3.7241528e-05 0)
(-2.7891869e-11 1.4661639e-05 0)
(3.7197431e-11 1.466133e-05 0)
(1.1912536e-10 3.724073e-05 0)
(2.1533215e-10 4.8910056e-05 0)
(3.0999786e-10 5.3377195e-05 0)
(3.8135277e-10 5.4728848e-05 0)
(4.2036059e-10 5.5066654e-05 0)
(4.2842577e-10 5.5138647e-05 0)
(4.0508363e-10 5.5152089e-05 0)
(3.5651592e-10 5.5154376e-05 0)
(3.0008979e-10 5.5154777e-05 0)
(2.4934437e-10 5.5154853e-05 0)
(1.9274781e-10 5.5154605e-05 0)
(1.0238859e-10 5.5152482e-05 0)
(-2.230517e-11 5.5139219e-05 0)
(-1.4845011e-10 5.5067396e-05 0)
(-2.3081477e-10 5.4729723e-05 0)
(-2.4208725e-10 5.3378145e-05 0)
(-1.9587295e-10 4.8910979e-05 0)
(-1.2275514e-10 3.7241445e-05 0)
(-4.1533086e-11 1.4661609e-05 0)
(6.3707042e-11 1.4661142e-05 0)
(1.9906366e-10 3.7240257e-05 0)
(3.4420515e-10 4.8909457e-05 0)
(4.7240062e-10 5.3376591e-05 0)
(5.6036293e-10 5.4728297e-05 0)
(6.001565e-10 5.5066175e-05 0)
(5.9172106e-10 5.5138236e-05 0)
(5.418791e-10 5.5151733e-05 0)
(4.6785204e-10 5.5154061e-05 0)
(3.9276124e-10 5.5154487e-05 0)
(3.2663757e-10 5.5154579e-05 0)
(2.5446592e-10 5.5154341e-05 0)
(1.479865e-10 5.5152229e-05 0)
(4.1308529e-12 5.5138978e-05 0)
(-1.4054422e-10 5.5067177e-05 0)
(-2.3538757e-10 5.4729538e-05 0)
(-2.5659422e-10 5.3377997e-05 0)
(-2.1923329e-10 4.8910867e-05 0)
(-1.4546592e-10 3.7241373e-05 0)
(-5.0804892e-11 1.4661584e-05 0)
(1.0148313e-10 1.4660941e-05 0)
(3.1098975e-10 3.7239751e-05 0)
(5.2425966e-10 4.8908825e-05 0)
(7.0478221e-10 5.3375965e-05 0)
(8.2159699e-10 5.4727746e-05 0)
(8.6170578e-10 5.5065715e-05 0)
(8.2648732e-10 5.5137859e-05 0)
(7.3602217e-10 5.5151428e-05 0)
(6.2063117e-10 5.5153815e-05 0)
(5.0968481e-10 5.5154286e-05 0)
(4.1391909e-10 5.5154401e-05 0)
(3.1869582e-10 5.5154171e-05 0)
(1.9682765e-10 5.5152057e-05 0)
(4.4229641e-11 5.5138806e-05 0)
(-1.0513482e-10 5.5067015e-05 0)
(-2.0648478e-10 5.4729394e-05 0)
(-2.4150449e-10 5.3377876e-05 0)
(-2.1984921e-10 4.8910769e-05 0)
(-1.5322149e-10 3.7241306e-05 0)
(-5.4937632e-11 1.466156e-05 0)
(1.5644984e-10 1.4660725e-05 0)
(4.7327762e-10 3.7239216e-05 0)
(7.854749e-10 4.890817e-05 0)
(1.0426389e-09 5.3375344e-05 0)
(1.1965377e-09 5.4727232e-05 0)
(1.2289162e-09 5.5065318e-05 0)
(1.1529421e-09 5.5137563e-05 0)
(1.0074934e-09 5.5151214e-05 0)
(8.3449187e-10 5.5153667e-05 0)
(6.6717004e-10 5.5154184e-05 0)
(5.2093769e-10 5.5154319e-05 0)
(3.8730633e-10 5.5154086e-05 0)
(2.4404441e-10 5.5151961e-05 0)
(8.5817696e-11 5.5138701e-05 0)
(-6.3548098e-11 5.5066912e-05 0)
(-1.7056463e-10 5.4729298e-05 0)
(-2.2086294e-10 5.3377789e-05 0)
(-2.1612181e-10 4.8910694e-05 0)
(-1.5803508e-10 3.7241252e-05 0)
(-5.8112733e-11 1.4661539e-05 0)
(2.3653595e-10 1.4660494e-05 0)
(7.1062626e-10 3.7238647e-05 0)
(1.1665597e-09 4.8907495e-05 0)
(1.5286719e-09 5.3374741e-05 0)
(1.7208192e-09 5.4726785e-05 0)
(1.7244197e-09 5.506503e-05 0)
(1.5808531e-09 5.5137394e-05 0)
(1.3564648e-09 5.5151124e-05 0)
(1.1048121e-09 5.5153626e-05 0)
(8.6110168e-10 5.5154167e-05 0)
(6.4602026e-10 5.5154305e-05 0)
(4.6002006e-10 5.5154057e-05 0)
(2.8944273e-10 5.5151911e-05 0)
(1.2636676e-10 5.5138637e-05 0)
(-2.1458849e-11 5.5066844e-05 0)
(-1.3403806e-10 5.4729232e-05 0)
(-2.0015606e-10 5.3377726e-05 0)
(-2.1331852e-10 4.8910638e-05 0)
(-1.6466232e-10 3.724121e-05 0)
(-6.230712e-11 1.4661522e-05 0)
(3.4501047e-10 1.4660237e-05 0)
(1.0352364e-09 3.7238023e-05 0)
(1.6924947e-09 4.890678e-05 0)
(2.1982512e-09 5.3374158e-05 0)
(2.4292451e-09 5.4726436e-05 0)
(2.3680689e-09 5.5064897e-05 0)
(2.1064667e-09 5.5137399e-05 0)
(1.7578465e-09 5.5151189e-05 0)
(1.3948322e-09 5.5153701e-05 0)
(1.0550335e-09 5.5154227e-05 0)
(7.613885e-10 5.515434e-05 0)
(5.2041519e-10 5.5154063e-05 0)
(3.243729e-10 5.5151888e-05 0)
(1.5840745e-10 5.5138591e-05 0)
(1.2989264e-11 5.5066785e-05 0)
(-1.0567819e-10 5.4729167e-05 0)
(-1.8837561e-10 5.3377653e-05 0)
(-2.1861613e-10 4.891056e-05 0)
(-1.7735968e-10 3.7241139e-05 0)
(-6.8853628e-11 1.4661491e-05 0)
(4.7842993e-10 1.4659907e-05 0)
(1.4429346e-09 3.7237244e-05 0)
(2.3692911e-09 4.890593e-05 0)
(3.0679352e-09 5.3373541e-05 0)
(3.335571e-09 5.4726186e-05 0)
(3.1546761e-09 5.5064953e-05 0)
(2.6998795e-09 5.5137606e-05 0)
(2.1646558e-09 5.5151414e-05 0)
(1.6532252e-09 5.5153873e-05 0)
(1.2037408e-09 5.515433e-05 0)
(8.3344309e-10 5.5154385e-05 0)
(5.4669401e-10 5.5154067e-05 0)
(3.3383871e-10 5.5151861e-05 0)
(1.685749e-10 5.5138531e-05 0)
(2.5622183e-11 5.5066695e-05 0)
(-1.0151545e-10 5.4729051e-05 0)
(-2.042042e-10 5.3377505e-05 0)
(-2.5390293e-10 4.8910378e-05 0)
(-2.1672152e-10 3.7240952e-05 0)
(-8.6646006e-11 1.4661399e-05 0)
(6.1974317e-10 1.4659374e-05 0)
(1.8910769e-09 3.7236052e-05 0)
(3.1448543e-09 4.8904709e-05 0)
(4.0857535e-09 5.3372752e-05 0)
(4.3873484e-09 5.4725994e-05 0)
(4.0250168e-09 5.5065214e-05 0)
(3.2933476e-09 5.5138027e-05 0)
(2.5085338e-09 5.5151776e-05 0)
(1.8229105e-09 5.5154084e-05 0)
(1.2681476e-09 5.5154404e-05 0)
(8.4033575e-10 5.515437e-05 0)
(5.2824917e-10 5.5154007e-05 0)
(3.1085162e-10 5.5151777e-05 0)
(1.5069816e-10 5.5138403e-05 0)
(1.178356e-11 5.5066513e-05 0)
(-1.2550288e-10 5.4728809e-05 0)
(-2.5639282e-10 5.3377178e-05 0)
(-3.3833867e-10 4.8909928e-05 0)
(-3.0702355e-10 3.7240446e-05 0)
(-1.2752073e-10 1.4661139e-05 0)
(7.2806713e-10 1.4658304e-05 0)
(2.2585531e-09 3.723385e-05 0)
(3.8256107e-09 4.8902637e-05 0)
(5.0122125e-09 5.3371555e-05 0)
(5.3477334e-09 5.472582e-05 0)
(4.7851491e-09 5.5065789e-05 0)
(3.7484811e-09 5.5138801e-05 0)
(2.703573e-09 5.5152372e-05 0)
(1.8618951e-09 5.5154374e-05 0)
(1.2378906e-09 5.5154468e-05 0)
(7.9025601e-10 5.5154319e-05 0)
(4.8080264e-10 5.5153924e-05 0)
(2.7190192e-10 5.5151706e-05 0)
(1.1980352e-10 5.5138253e-05 0)
(-1.5237794e-11 5.5066257e-05 0)
(-1.6561064e-10 5.472841e-05 0)
(-3.3525824e-10 5.3376537e-05 0)
(-4.6757378e-10 4.8908905e-05 0)
(-4.4978742e-10 3.7239174e-05 0)
(-1.934379e-10 1.4660454e-05 0)
(7.634811e-10 1.4655948e-05 0)
(2.4089329e-09 3.7229457e-05 0)
(4.1554044e-09 4.8898789e-05 0)
(5.4964104e-09 5.3369549e-05 0)
(5.8598021e-09 5.4725559e-05 0)
(5.1641643e-09 5.5066977e-05 0)
(3.9145284e-09 5.514034e-05 0)
(2.6971452e-09 5.5153588e-05 0)
(1.7728944e-09 5.5154959e-05 0)
(1.1366465e-09 5.5154727e-05 0)
(7.107469e-10 5.515447e-05 0)
(4.2960914e-10 5.5154102e-05 0)
(2.3933365e-10 5.5152034e-05 0)
(9.5973071e-11 5.5138367e-05 0)
(-3.5559459e-11 5.5066124e-05 0)
(-1.9610453e-10 5.4727869e-05 0)
(-4.0239089e-10 5.3375319e-05 0)
(-5.891821e-10 4.8906648e-05 0)
(-5.9232691e-10 3.7236184e-05 0)
(-2.6092083e-10 1.4658801e-05 0)
(7.4488053e-10 1.4652569e-05 0)
(2.3768575e-09 3.7224044e-05 0)
(4.1486017e-09 4.8893563e-05 0)
(5.5246565e-09 5.3366683e-05 0)
(5.901962e-09 5.4724745e-05 0)
(5.1700524e-09 5.5069253e-05 0)
(3.8510872e-09 5.5143078e-05 0)
(2.5824376e-09 5.5155782e-05 0)
(1.6482039e-09 5.5155283e-05 0)
(1.0327992e-09 5.5154901e-05 0)
(6.409606e-10 5.515467e-05 0)
(3.9175609e-10 5.5154495e-05 0)
(2.2072112e-10 5.515307e-05 0)
(8.5621296e-11 5.5138546e-05 0)
(-4.1539502e-11 5.5066039e-05 0)
(-2.0362619e-10 5.4726681e-05 0)
(-4.2652333e-10 5.3373045e-05 0)
(-6.436642e-10 4.8903109e-05 0)
(-6.6280434e-10 3.7232069e-05 0)
(-2.9546291e-10 1.4656825e-05 0)
)
;

boundaryField
{
    Wall
    {
        type            fixedValue;
        value           uniform (0 0 0);
    }
    frontAndBack
    {
        type            empty;
    }
    atmosphere
    {
        type            pressureInletOutletVelocity;
        value           nonuniform List<vector> 
20
(
(7.4488053e-10 1.4652569e-05 0)
(2.3768575e-09 3.7224044e-05 0)
(4.1486017e-09 4.8893563e-05 0)
(5.5246565e-09 5.3366683e-05 0)
(5.901962e-09 5.4724745e-05 0)
(5.1700524e-09 5.5069253e-05 0)
(3.8510872e-09 5.5143078e-05 0)
(2.5824376e-09 5.5155782e-05 0)
(1.6482039e-09 5.5155283e-05 0)
(1.0327992e-09 5.5154901e-05 0)
(6.409606e-10 5.515467e-05 0)
(3.9175609e-10 5.5154495e-05 0)
(2.2072112e-10 5.515307e-05 0)
(8.5621296e-11 5.5138546e-05 0)
(-4.1539502e-11 5.5066039e-05 0)
(-2.0362619e-10 5.4726681e-05 0)
(-4.2652333e-10 5.3373045e-05 0)
(-6.436642e-10 4.8903109e-05 0)
(-6.6280434e-10 3.7232069e-05 0)
(-2.9546291e-10 1.4656825e-05 0)
)
;
    }
}


// ************************************************************************* //
