/*--------------------------------*- C++ -*----------------------------------*\
| =========                 |                                                 |
| \\      /  F ield         | OpenFOAM: The Open Source CFD Toolbox           |
|  \\    /   O peration     | Version:  3.0.1                                 |
|   \\  /    A nd           | Web:      www.OpenFOAM.org                      |
|    \\/     M anipulation  |                                                 |
\*---------------------------------------------------------------------------*/
FoamFile
{
    version     2.0;
    format      ascii;
    class       volScalarField;
    location    "4";
    object      wCO2_l;
}
// * * * * * * * * * * * * * * * * * * * * * * * * * * * * * * * * * * * * * //

dimensions      [0 0 0 0 0 0 0];

internalField   nonuniform List<scalar> 
800
(
0.0021176907
0.0021176902
0.0021176901
0.0021176901
0.0021176901
0.0021176901
0.0021176901
0.0021176901
0.0021176901
0.0021176901
0.0021176901
0.0021176901
0.0021176901
0.0021176901
0.0021176901
0.0021176901
0.0021176901
0.0021176901
0.0021176902
0.0021176907
0.0018919888
0.0018919945
0.0018919958
0.0018919966
0.0018919973
0.0018919978
0.0018919982
0.0018919985
0.0018919986
0.0018919987
0.0018919987
0.0018919986
0.0018919985
0.0018919982
0.0018919978
0.0018919973
0.0018919966
0.0018919958
0.0018919945
0.0018919888
1.0501799e-05
1.0810567e-05
1.0849698e-05
1.0858333e-05
1.0860065e-05
1.0860329e-05
1.0860333e-05
1.0860306e-05
1.0860287e-05
1.0860277e-05
1.0860277e-05
1.0860287e-05
1.0860307e-05
1.0860333e-05
1.0860329e-05
1.0860065e-05
1.0858331e-05
1.0849695e-05
1.0810565e-05
1.0501798e-05
3.9968642e-08
6.4215361e-08
7.2797697e-08
7.5286719e-08
7.5870272e-08
7.5976272e-08
7.5985568e-08
7.5980844e-08
7.5976578e-08
7.59745e-08
7.5974523e-08
7.5976626e-08
7.5980899e-08
7.5985597e-08
7.5976228e-08
7.5870119e-08
7.5286452e-08
7.279734e-08
6.4214981e-08
3.9968452e-08
1.3591752e-10
4.6063837e-10
6.208008e-10
6.7060059e-10
6.8232627e-10
6.8440565e-10
6.8455583e-10
6.8443868e-10
6.8434e-10
6.8429235e-10
6.8429283e-10
6.8434107e-10
6.8443984e-10
6.8455647e-10
6.8440474e-10
6.8232288e-10
6.7059474e-10
6.207932e-10
4.6063116e-10
1.3591535e-10
4.6097271e-13
3.2301683e-12
5.1342023e-12
5.7762775e-12
5.9289415e-12
5.9554683e-12
5.9569635e-12
5.9551255e-12
5.9536459e-12
5.9529319e-12
5.9529384e-12
5.9536598e-12
5.9551413e-12
5.9569728e-12
5.9554563e-12
5.9288942e-12
5.7761959e-12
5.1340988e-12
3.230083e-12
4.6095917e-13
1.4370705e-15
1.9950777e-14
3.7030725e-14
4.3274159e-14
4.4780344e-14
4.5039516e-14
4.5051356e-14
4.503088e-14
4.5014678e-14
4.500682e-14
4.5006885e-14
4.5014803e-14
4.5031022e-14
4.5051439e-14
4.5039398e-14
4.4779871e-14
4.3273345e-14
3.7029721e-14
1.9950056e-14
1.4370104e-15
3.953468e-18
1.0558007e-16
2.2730899e-16
2.7543727e-16
2.8725206e-16
2.8928393e-16
2.8936714e-16
2.8919579e-16
2.8906026e-16
2.8899399e-16
2.8899442e-16
2.8906098e-16
2.8919658e-16
2.8936747e-16
2.8928284e-16
2.8724836e-16
2.7543111e-16
2.2730169e-16
1.0557553e-16
3.9532674e-18
9.5382787e-21
4.809693e-19
1.1958514e-18
1.5008846e-18
1.5772135e-18
1.5904207e-18
1.5909665e-18
1.5898374e-18
1.5889354e-18
1.5884905e-18
1.5884924e-18
1.5889376e-18
1.589839e-18
1.5909649e-18
1.5904111e-18
1.5771892e-18
1.5008472e-18
1.1958097e-18
4.8094694e-19
9.537753e-21
2.0301542e-23
1.9105662e-21
5.4699888e-21
7.1058274e-21
7.5234832e-21
7.596498e-21
7.5998076e-21
7.5937149e-21
7.5887688e-21
7.5863069e-21
7.5863109e-21
7.5887615e-21
7.5936972e-21
7.5997695e-21
7.5964222e-21
7.5233403e-21
7.105633e-21
5.4697893e-21
1.9104754e-21
2.0300406e-23
3.8435628e-26
6.702237e-24
2.2052973e-23
2.9638404e-23
3.1615403e-23
3.1965389e-23
3.1983411e-23
3.1955656e-23
3.1932669e-23
3.1921131e-23
3.1921117e-23
3.1932539e-23
3.1955435e-23
3.1983076e-23
3.1964895e-23
3.1614642e-23
2.9637484e-23
2.2052118e-23
6.7019107e-24
3.8433476e-26
6.5233491e-29
2.0985991e-26
7.9256992e-26
1.1016786e-25
1.1839349e-25
1.1986946e-25
1.199561e-25
1.1984688e-25
1.1975434e-25
1.1970752e-25
1.1970735e-25
1.1975344e-25
1.1984543e-25
1.1995408e-25
1.1986681e-25
1.1838986e-25
1.1016382e-25
7.9253554e-26
2.0984894e-26
6.5229684e-29
9.9936821e-32
5.9170933e-29
2.5627419e-28
3.6835573e-28
3.9880878e-28
4.0434798e-28
4.0471474e-28
4.0433691e-28
4.0400867e-28
4.0384142e-28
4.0384046e-28
4.0400434e-28
4.0433003e-28
4.0470534e-28
4.043361e-28
3.9879325e-28
3.6833923e-28
2.5626106e-28
5.9167407e-29
9.9930339e-32
1.3902919e-34
1.5132905e-31
7.5121821e-31
1.1163998e-30
1.2176992e-30
1.2363712e-30
1.2377448e-30
1.2365803e-30
1.2355409e-30
1.2350079e-30
1.235004e-30
1.2355244e-30
1.2365541e-30
1.2377089e-30
1.2363259e-30
1.217641e-30
1.1163389e-30
7.5117194e-31
1.513184e-31
1.3901869e-34
1.7656008e-37
3.5320894e-34
2.0089745e-33
3.0866381e-33
3.391794e-33
3.4487615e-33
3.4533494e-33
3.4501182e-33
3.4471491e-33
3.4456174e-33
3.4456052e-33
3.4470965e-33
3.4500343e-33
3.4532331e-33
3.4486133e-33
3.3916029e-33
3.0864395e-33
2.0088282e-33
3.5317976e-34
1.7654447e-37
2.0563091e-40
7.5631285e-37
4.9278857e-36
7.8272734e-36
8.665215e-36
8.8235432e-36
8.8373195e-36
8.829181e-36
8.8214662e-36
8.8174645e-36
8.8174315e-36
8.8213206e-36
8.8289475e-36
8.8369912e-36
8.8231195e-36
8.664666e-36
7.8267043e-36
4.9274784e-36
7.5624184e-37
2.0561021e-40
2.2052721e-43
1.4923878e-39
1.1138385e-38
1.8289493e-38
2.0398484e-38
2.0801547e-38
2.0839018e-38
2.0820288e-38
2.0801928e-38
2.0792357e-38
2.0792275e-38
2.0801566e-38
2.0819705e-38
2.083819e-38
2.0800472e-38
2.0397088e-38
1.8288055e-38
1.1137385e-38
1.4922351e-39
2.2050292e-43
2.1856596e-46
2.7243798e-42
2.3291046e-41
3.9536298e-41
4.442447e-41
4.53688e-41
4.5461732e-41
4.5422128e-41
4.5381889e-41
4.53608e-41
4.5360614e-41
4.5381054e-41
4.5420798e-41
4.5459844e-41
4.5366358e-41
4.4421299e-41
3.9533059e-41
2.3288855e-41
2.7240866e-42
2.1854052e-46
2.008383e-49
4.6168437e-45
4.5213878e-44
7.9343132e-44
8.9819039e-44
9.186355e-44
9.2074876e-44
9.1997587e-44
9.1915966e-44
9.1872958e-44
9.187256e-44
9.1914183e-44
9.1994793e-44
9.2070947e-44
9.185851e-44
8.9812502e-44
7.9336512e-44
4.5209522e-44
4.6163318e-45
2.0081412e-49
1.7159415e-52
7.2849186e-48
8.1733374e-47
1.4827707e-46
1.6910976e-46
1.7321486e-46
1.7365761e-46
1.7351784e-46
1.7336401e-46
1.7328251e-46
1.7328174e-46
1.733605e-46
1.7351243e-46
1.7365009e-46
1.732053e-46
1.6909733e-46
1.4826458e-46
8.1725376e-47
7.2840943e-48
1.7157297e-52
1.3666856e-55
1.0731684e-50
1.3795807e-49
2.587424e-49
2.9730391e-49
3.0497215e-49
3.0583045e-49
3.055955e-49
3.0532523e-49
3.0518126e-49
3.0517987e-49
3.0531885e-49
3.0558579e-49
3.0581704e-49
3.0495521e-49
2.9728181e-49
2.5872032e-49
1.3794435e-49
1.0730447e-50
1.3665131e-55
1.0170656e-58
1.4794786e-53
2.1795091e-52
4.2260604e-52
4.8922637e-52
5.0258986e-52
5.0413513e-52
5.0376702e-52
5.0332311e-52
5.0308531e-52
5.0308295e-52
5.0331218e-52
5.0375051e-52
5.041124e-52
5.025613e-52
4.8918907e-52
4.2256916e-52
2.1792872e-52
1.479304e-53
1.0169341e-58
7.086741e-62
1.912804e-56
3.229719e-55
6.4745582e-55
7.5514121e-55
7.7692184e-55
7.7951392e-55
7.7897526e-55
7.7829196e-55
7.7792382e-55
7.7791995e-55
7.7827407e-55
7.7894838e-55
7.7947702e-55
7.7687569e-55
7.550811e-55
6.4739716e-55
3.2293792e-55
1.9125718e-56
7.0857971e-62
4.6320657e-65
2.3236996e-59
4.497769e-58
9.3223101e-58
1.095439e-57
1.128713e-57
1.1327755e-57
1.132038e-57
1.1310503e-57
1.130515e-57
1.130509e-57
1.1310226e-57
1.1319965e-57
1.1327185e-57
1.128642e-57
1.0953471e-57
9.3214261e-58
4.4972775e-58
2.3234081e-59
4.631428e-65
2.8448983e-68
2.656922e-62
5.8965945e-61
1.2636351e-60
1.4960139e-60
1.5437534e-60
1.5497172e-60
1.5487716e-60
1.5474284e-60
1.5466964e-60
1.5466878e-60
1.5473887e-60
1.5487121e-60
1.5496353e-60
1.5436515e-60
1.4958824e-60
1.2635103e-60
5.8959266e-61
2.6565777e-62
2.8444933e-68
1.6443133e-71
2.8637392e-65
7.2886339e-64
1.615005e-63
1.9263699e-63
1.9908095e-63
1.9990279e-63
1.9978914e-63
1.9961708e-63
1.9952278e-63
1.9952168e-63
1.9961189e-63
1.9978139e-63
1.9989205e-63
1.9906753e-63
1.926196e-63
1.6148414e-63
7.2877868e-64
2.8633582e-65
1.6440721e-71
8.9562477e-75
2.9136933e-68
8.5061574e-67
1.948865e-66
2.342081e-66
2.4240434e-66
2.4346949e-66
2.4334138e-66
2.431334e-66
2.4301885e-66
2.4301764e-66
2.4312734e-66
2.4333231e-66
2.4345678e-66
2.4238829e-66
2.3418702e-66
1.9486669e-66
8.505158e-67
2.913299e-68
8.9549049e-75
4.6028997e-78
2.8018834e-71
9.3843551e-70
2.2232423e-69
2.6919298e-69
2.7903024e-69
2.803308e-69
2.8019531e-69
2.799578e-69
2.7982636e-69
2.7982523e-69
2.7995146e-69
2.8018587e-69
2.8031733e-69
2.7901299e-69
2.6916967e-69
2.2230224e-69
9.383268e-70
2.8015058e-71
4.602207e-78
2.2345428e-81
2.5494034e-74
9.7982025e-73
2.4003588e-72
2.928278e-72
3.0398325e-72
3.0548152e-72
3.0534716e-72
3.0509061e-72
3.0494796e-72
3.0494709e-72
3.0508464e-72
3.0533843e-72
3.0546887e-72
3.0396681e-72
2.9280466e-72
2.4001391e-72
9.7971333e-73
2.5490748e-74
2.2342172e-81
1.0257418e-84
2.1970872e-77
9.6916489e-76
2.4552071e-75
3.0177688e-75
3.1374289e-75
3.1537364e-75
3.1524885e-75
3.1498646e-75
3.1483989e-75
3.1483943e-75
3.149815e-75
3.1524188e-75
3.1536344e-75
3.1372953e-75
3.0175687e-75
2.4550166e-75
9.6907285e-76
2.1968344e-77
1.0256055e-84
4.4563229e-88
1.795023e-80
9.0897541e-79
2.3813136e-78
2.9490258e-78
3.0705624e-78
3.0873523e-78
3.0862698e-78
3.083727e-78
3.0822998e-78
3.0823004e-78
3.0836921e-78
3.0862262e-78
3.0872889e-78
3.0704803e-78
2.948886e-78
2.3811806e-78
9.0891041e-79
1.7948593e-80
4.4558338e-88
1.8338403e-91
1.3914255e-83
8.0902688e-82
2.1918686e-81
2.7349111e-81
2.8519048e-81
2.8682742e-81
2.867401e-81
2.8650653e-81
2.8637483e-81
2.8637543e-81
2.8650489e-81
2.8673895e-81
2.8682589e-81
2.8518881e-81
2.7348527e-81
2.1918139e-81
8.0899646e-82
1.3913477e-83
1.8337028e-91
7.1533969e-95
1.024077e-86
6.8382582e-85
1.9160079e-84
2.4087706e-84
2.5155956e-84
2.5307232e-84
2.5300731e-84
2.5280387e-84
2.5268866e-84
2.5268979e-84
2.5280416e-84
2.5300943e-84
2.5307572e-84
2.515647e-84
2.4088001e-84
1.916038e-84
6.8383119e-85
1.0240686e-86
7.1532011e-95
2.6467561e-98
7.1609135e-90
5.4926258e-88
1.5916415e-87
2.0161173e-87
2.1087066e-87
2.1219691e-87
2.1215281e-87
2.1198466e-87
2.1188903e-87
2.1189052e-87
2.119865e-87
2.1215752e-87
2.1220432e-87
2.1088152e-87
2.0162246e-87
1.5917474e-87
5.492987e-88
7.1612942e-90
2.6468467e-98
9.2943342e-102
4.7600857e-93
4.1948242e-91
1.2572041e-90
1.6045459e-90
1.6807738e-90
1.6918129e-90
1.6915464e-90
1.690226e-90
1.6894715e-90
1.6894873e-90
1.6902526e-90
1.6916066e-90
1.6919092e-90
1.6809171e-90
1.6047071e-90
1.2573644e-90
4.1953977e-91
4.7607014e-93
9.2953667e-102
3.0991729e-105
3.0094525e-96
3.047632e-94
9.4470284e-94
1.214847e-93
1.2744941e-93
1.2832232e-93
1.2830864e-93
1.2820999e-93
1.2815326e-93
1.2815467e-93
1.2821264e-93
1.2831454e-93
1.2833207e-93
1.2746449e-93
1.2150311e-93
9.4488965e-94
3.0483064e-94
3.0101179e-96
3.0998048e-105
9.8171422e-109
1.8103853e-99
2.1072268e-97
6.7561562e-97
8.7541028e-97
9.1979333e-97
9.2635442e-97
9.263026e-97
9.2559951e-97
9.251919e-97
9.2520231e-97
9.2561945e-97
9.2634883e-97
9.2643564e-97
9.1992765e-97
8.7558842e-97
6.7580275e-97
2.107903e-97
1.8109832e-99
9.8202261e-109
2.9552211e-112
1.0366137e-102
1.3871197e-100
4.6001914e-100
6.0059501e-100
6.3201544e-100
6.3670547e-100
6.3670064e-100
6.3622096e-100
6.3594003e-100
6.3594618e-100
6.3623153e-100
6.3672847e-100
6.367601e-100
6.3211784e-100
6.007469e-100
4.6018754e-100
1.3877294e-100
1.0370921e-102
2.9565411e-112
8.4561229e-116
5.6511875e-106
8.6954362e-104
2.9829867e-103
3.924315e-103
4.1360532e-103
4.1679552e-103
4.1681054e-103
4.1649535e-103
4.1630884e-103
4.1631137e-103
4.1649725e-103
4.1682032e-103
4.1682157e-103
4.1367071e-103
3.9254833e-103
2.9843841e-103
8.7005345e-104
5.6547178e-106
8.4613289e-116
2.3004211e-119
2.9337395e-109
5.1920194e-107
1.8425763e-106
2.4426669e-106
2.578533e-106
2.5991998e-106
2.5993907e-106
2.5973971e-106
2.5961995e-106
2.5962003e-106
2.5973593e-106
2.5993574e-106
2.5992426e-106
2.5788792e-106
2.4434882e-106
1.8436599e-106
5.1959827e-107
2.9361692e-109
2.3023113e-119
)
;

boundaryField
{
    Wall
    {
        type            zeroGradient;
    }
    frontAndBack
    {
        type            empty;
    }
    atmosphere
    {
        type            zeroGradient;
    }
}


// ************************************************************************* //
