/*--------------------------------*- C++ -*----------------------------------*\
| =========                 |                                                 |
| \\      /  F ield         | OpenFOAM: The Open Source CFD Toolbox           |
|  \\    /   O peration     | Version:  3.0.1                                 |
|   \\  /    A nd           | Web:      www.OpenFOAM.org                      |
|    \\/     M anipulation  |                                                 |
\*---------------------------------------------------------------------------*/
FoamFile
{
    version     2.0;
    format      ascii;
    class       volScalarField;
    location    "28";
    object      alpha.gas;
}
// * * * * * * * * * * * * * * * * * * * * * * * * * * * * * * * * * * * * * //

dimensions      [0 0 0 0 0 0 0];

internalField   nonuniform List<scalar> 
800
(
2.0305613e-28
2.2763249e-25
4.3715669e-22
8.5792862e-22
1.3431577e-23
1.0586565e-21
9.2922167e-22
5.9205624e-23
2.6517e-25
5.5189389e-28
3.0397152e-23
2.9541056e-23
4.9461061e-25
6.8873712e-23
6.7374488e-23
1.5740309e-27
3.7498467e-32
1.6246461e-35
3.2014416e-39
5.9559882e-43
1.7762272e-12
4.0784124e-13
2.8690015e-11
1.0525436e-11
4.9873118e-13
1.3584242e-11
1.0777134e-11
1.2947911e-11
2.6307153e-11
6.6094152e-11
3.3232115e-11
3.3050229e-11
1.7870462e-11
1.0603916e-11
9.9613715e-12
1.9351986e-12
7.8068485e-16
8.9672261e-14
5.5665725e-12
7.7417306e-15
7.1122128e-08
6.411158e-08
6.2014638e-08
6.1523195e-08
6.1468075e-08
6.1564637e-08
6.1662266e-08
6.174234e-08
6.1801471e-08
6.1851785e-08
6.18301e-08
6.1805982e-08
6.1745691e-08
6.1662292e-08
6.1562468e-08
6.1469292e-08
6.1516559e-08
6.1996154e-08
6.4115526e-08
7.1121792e-08
3.1992529e-07
2.875424e-07
2.7787982e-07
2.7589988e-07
2.757521e-07
2.7617341e-07
2.7661969e-07
2.7696884e-07
2.7719994e-07
2.7732952e-07
2.7731074e-07
2.7720408e-07
2.7697213e-07
2.7662023e-07
2.7617227e-07
2.7575407e-07
2.7589518e-07
2.7786499e-07
2.875476e-07
3.1992746e-07
8.6064656e-07
7.7236371e-07
7.4527437e-07
7.403117e-07
7.4013369e-07
7.4132614e-07
7.4254839e-07
7.4348152e-07
7.4408688e-07
7.4439408e-07
7.4437609e-07
7.4409131e-07
7.4348551e-07
7.4255003e-07
7.413265e-07
7.4013735e-07
7.4030916e-07
7.4526238e-07
7.723718e-07
8.6065266e-07
1.8038071e-06
1.6177704e-06
1.5573626e-06
1.5475347e-06
1.5476401e-06
1.5503317e-06
1.5529655e-06
1.5549314e-06
1.5561935e-06
1.5568112e-06
1.5567937e-06
1.5561987e-06
1.5549366e-06
1.552969e-06
1.5503343e-06
1.5476464e-06
1.547535e-06
1.557354e-06
1.6177824e-06
1.8038179e-06
3.2487003e-06
2.9139438e-06
2.7958566e-06
2.7788972e-06
2.7801444e-06
2.7854093e-06
2.7903233e-06
2.7939084e-06
2.7961893e-06
2.7972837e-06
2.7972667e-06
2.7961956e-06
2.7939153e-06
2.7903291e-06
2.7854146e-06
2.780154e-06
2.7789009e-06
2.7958517e-06
2.9139599e-06
3.2487154e-06
5.2763052e-06
4.7372244e-06
4.5252954e-06
4.4981051e-06
4.5020617e-06
4.5114592e-06
4.5197596e-06
4.5256735e-06
4.5294038e-06
4.5311683e-06
4.5311519e-06
4.5294114e-06
4.5256824e-06
4.5197683e-06
4.5114676e-06
4.5020748e-06
4.498112e-06
4.525294e-06
4.7372438e-06
5.2763226e-06
7.9442322e-06
7.146656e-06
6.7896748e-06
6.7469215e-06
6.7559374e-06
6.7714224e-06
6.7843723e-06
6.7933923e-06
6.7990503e-06
6.8016936e-06
6.8016779e-06
6.7990593e-06
6.7934033e-06
6.7843837e-06
6.7714335e-06
6.7559535e-06
6.7469306e-06
6.7896758e-06
7.1466773e-06
7.9442492e-06
1.1285549e-05
1.0183949e-05
9.6135017e-06
9.5442309e-06
9.5614175e-06
9.5850591e-06
9.6039393e-06
9.6168273e-06
9.6248508e-06
9.6285783e-06
9.6285633e-06
9.6248611e-06
9.6168402e-06
9.6039529e-06
9.5850722e-06
9.5614353e-06
9.5442409e-06
9.6135039e-06
1.018397e-05
1.1285564e-05
1.5312003e-05
1.3881895e-05
1.3008172e-05
1.2889353e-05
1.2918347e-05
1.2952171e-05
1.2978156e-05
1.2995577e-05
1.3006585e-05
1.3011615e-05
1.3011601e-05
1.3006597e-05
1.2995592e-05
1.2978171e-05
1.2952185e-05
1.2918365e-05
1.2889362e-05
1.3008174e-05
1.3881916e-05
1.5312016e-05
2.0029837e-05
1.8301586e-05
1.6968913e-05
1.6767545e-05
1.6812855e-05
1.6858895e-05
1.6893056e-05
1.69154e-05
1.6929575e-05
1.6935963e-05
1.6935949e-05
1.6929587e-05
1.6915415e-05
1.6893072e-05
1.6858908e-05
1.6812871e-05
1.6767552e-05
1.6968917e-05
1.8301607e-05
2.0029848e-05
2.5501937e-05
2.3542984e-05
2.1419428e-05
2.1176968e-05
2.1243533e-05
2.1304079e-05
2.134707e-05
2.137422e-05
2.1391257e-05
2.1399665e-05
2.1399652e-05
2.1391269e-05
2.1374235e-05
2.1347085e-05
2.1304091e-05
2.1243548e-05
2.1176972e-05
2.1419432e-05
2.3543014e-05
2.550195e-05
3.1719438e-05
2.9193814e-05
2.6159204e-05
2.6096141e-05
2.618665e-05
2.6263667e-05
2.6316211e-05
2.6348675e-05
2.6368246e-05
2.6378148e-05
2.6378135e-05
2.6368258e-05
2.6348689e-05
2.6316224e-05
2.6263677e-05
2.6186662e-05
2.6096142e-05
2.6159203e-05
2.9193858e-05
3.1719463e-05
3.8463573e-05
3.4092941e-05
3.1457881e-05
3.1601452e-05
3.1719349e-05
3.1814966e-05
3.1877691e-05
3.1913238e-05
3.1933817e-05
3.1943714e-05
3.1943702e-05
3.1933827e-05
3.1913251e-05
3.1877703e-05
3.1814974e-05
3.1719358e-05
3.1601451e-05
3.1457874e-05
3.4092972e-05
3.8463609e-05
4.6513958e-05
3.930413e-05
3.8017229e-05
3.8120088e-05
3.8250678e-05
3.8357478e-05
3.842544e-05
3.8461542e-05
3.8480468e-05
3.8489085e-05
3.8489073e-05
3.8480478e-05
3.8461554e-05
3.842545e-05
3.8357483e-05
3.8250684e-05
3.8120085e-05
3.8017221e-05
3.9304136e-05
4.6513987e-05
6.1326398e-05
4.9112801e-05
4.7822691e-05
4.7666108e-05
4.7710359e-05
4.7768287e-05
4.7805051e-05
4.7821992e-05
4.7814952e-05
4.7814556e-05
4.7814544e-05
4.781496e-05
4.7822001e-05
4.7805056e-05
4.7768285e-05
4.7710358e-05
4.7666097e-05
4.7822677e-05
4.9112785e-05
6.1326359e-05
0.00010988787
7.8696869e-05
7.259435e-05
7.1032747e-05
7.032281e-05
6.9976532e-05
6.9776573e-05
6.9648485e-05
6.945356e-05
6.9382828e-05
6.9382812e-05
6.9453549e-05
6.964847e-05
6.9776543e-05
6.9976491e-05
7.0322759e-05
7.1032676e-05
7.2594258e-05
7.8696699e-05
0.00010988734
0.00043631672
0.00025746336
0.00020802446
0.00019388532
0.00018555614
0.00018133212
0.0001788769
0.00017751463
0.00017593556
0.00017527845
0.00017527839
0.00017593538
0.00017751436
0.00017887651
0.00018133163
0.00018555556
0.00019388459
0.00020802351
0.00025746139
0.00043631039
0.0056849572
0.0025907844
0.00180922
0.0015866749
0.0014498712
0.0013844727
0.001348979
0.0013290112
0.0013096111
0.0013008996
0.0013008987
0.0013096082
0.0013290068
0.0013489729
0.0013844649
0.0014498608
0.0015866621
0.0018092031
0.0025907467
0.0056848025
0.195933
0.088784564
0.05932173
0.049657854
0.044271996
0.04163395
0.040088904
0.039207418
0.03840649
0.03804173
0.038041691
0.038406362
0.039207217
0.040088624
0.041633596
0.04427156
0.049657323
0.059320959
0.088783058
0.19592874
0.81426552
0.69254983
0.62372393
0.59275387
0.57104229
0.5596531
0.55265542
0.54856785
0.54481536
0.54309712
0.54309693
0.54481475
0.5485669
0.55265412
0.55965149
0.57104042
0.59275177
0.62372156
0.69254693
0.81426245
0.99282945
0.98110953
0.97201869
0.96724388
0.96348788
0.96139535
0.96006392
0.95927126
0.95853453
0.95819674
0.9581967
0.9585344
0.95927107
0.96006366
0.96139504
0.96348754
0.96724353
0.97201834
0.9811092
0.99282922
0.99997573
0.99985706
0.99972418
0.99964662
0.99958429
0.99954748
0.99952346
0.99950901
0.99949532
0.99948909
0.99948909
0.99949532
0.99950901
0.99952346
0.99954748
0.99958429
0.99964661
0.99972418
0.99985705
0.99997573
1
0.99999993
0.99999978
0.99999968
0.9999996
0.99999955
0.99999952
0.9999995
0.99999948
0.99999947
0.99999947
0.99999948
0.9999995
0.99999952
0.99999955
0.9999996
0.99999968
0.99999978
0.99999993
1
1
1
1
1
1
1
1
1
1
1
1
1
1
1
1
1
1
1
1
1
1
1
1
1
1
1
1
1
1
1
1
1
1
1
1
1
1
1
1
1
1
1
1
1
1
1
1
1
1
1
1
1
1
1
1
1
1
1
1
1
1
1
1
1
1
1
1
1
1
1
1
1
1
1
1
1
1
1
1
1
1
1
1
1
1
1
1
1
1
1
1
1
1
1
1
1
1
1
1
1
1
1
1
1
1
1
1
1
1
1
1
1
1
1
1
1
1
1
1
1
1
1
1
1
1
1
1
1
1
1
1
1
1
1
1
1
1
1
1
1
1
1
1
1
1
1
1
1
1
1
1
1
1
1
1
1
1
1
1
1
1
1
1
1
1
1
1
1
1
1
1
1
1
1
1
1
1
1
1
1
1
1
1
1
1
1
1
1
1
1
1
1
1
1
1
1
1
1
1
1
1
1
1
1
1
1
1
1
1
1
1
1
1
1
1
1
1
1
1
1
1
1
1
1
1
1
1
1
1
1
1
1
1
1
1
1
1
1
1
1
1
1
1
1
1
1
1
1
1
1
1
1
1
1
1
1
1
1
1
1
1
1
1
1
1
1
1
1
1
1
1
1
1
1
1
1
1
1
1
1
1
1
1
1
1
1
1
1
1
1
1
1
1
1
1
1
1
1
1
1
)
;

boundaryField
{
    Wall
    {
        type            zeroGradient;
    }
    frontAndBack
    {
        type            empty;
    }
    atmosphere
    {
        type            zeroGradient;
    }
}


// ************************************************************************* //
