/*--------------------------------*- C++ -*----------------------------------*\
| =========                 |                                                 |
| \\      /  F ield         | OpenFOAM: The Open Source CFD Toolbox           |
|  \\    /   O peration     | Version:  3.0.1                                 |
|   \\  /    A nd           | Web:      www.OpenFOAM.org                      |
|    \\/     M anipulation  |                                                 |
\*---------------------------------------------------------------------------*/
FoamFile
{
    version     2.0;
    format      ascii;
    class       volScalarField;
    location    "28";
    object      g1_BA;
}
// * * * * * * * * * * * * * * * * * * * * * * * * * * * * * * * * * * * * * //

dimensions      [0 0 0 0 0 0 0];

internalField   nonuniform List<scalar> 
800
(
0.54262516
0.54269997
0.54271679
0.54271944
0.54271983
0.54272005
0.54272034
0.54272064
0.54272087
0.54272099
0.542721
0.54272087
0.54272064
0.54272034
0.54272005
0.54271983
0.54271944
0.54271679
0.54269998
0.54262516
0.53616527
0.53669095
0.53684903
0.53688374
0.53688467
0.53687826
0.53687209
0.53686781
0.53686531
0.53686417
0.53686417
0.53686531
0.5368678
0.53687208
0.53687826
0.53688466
0.53688372
0.53684901
0.53669092
0.53616521
0.51906394
0.52027471
0.52070663
0.52081386
0.52082564
0.52081388
0.52080028
0.52079033
0.52078434
0.52078161
0.52078161
0.52078434
0.52079032
0.52080026
0.52081385
0.5208256
0.52081381
0.52070657
0.52027463
0.5190638
0.49528888
0.49730661
0.49804295
0.49822941
0.49825309
0.49823555
0.49821401
0.49819793
0.49818812
0.49818361
0.49818361
0.4981881
0.4981979
0.49821397
0.4982355
0.49825302
0.49822933
0.49804284
0.49730648
0.49528868
0.46829808
0.47108685
0.47211104
0.47236628
0.47239677
0.47237087
0.47234027
0.47231746
0.47230349
0.47229706
0.47229705
0.47230348
0.47231742
0.47234022
0.47237081
0.47239669
0.47236618
0.47211091
0.47108669
0.46829785
0.44078366
0.4441952
0.44547047
0.44578021
0.44581054
0.44577293
0.44573185
0.44570152
0.445683
0.44567444
0.44567443
0.44568298
0.44570148
0.44573179
0.44577286
0.44581044
0.4457801
0.44547033
0.44419504
0.44078343
0.41412303
0.41805864
0.41953979
0.41989059
0.41991529
0.41986335
0.41981064
0.41977206
0.41974861
0.41973771
0.4197377
0.41974858
0.41977201
0.41981058
0.41986327
0.41991519
0.41989048
0.41953966
0.41805849
0.41412284
0.38912027
0.39348482
0.39509694
0.39547908
0.3954948
0.39542671
0.3953617
0.39531444
0.3952858
0.39527239
0.39527238
0.39528578
0.39531439
0.39536164
0.39542664
0.39549471
0.39547898
0.39509684
0.39348471
0.38912012
0.36561344
0.3704419
0.37212107
0.37253264
0.3725382
0.37245585
0.37237941
0.37232402
0.37229042
0.37227455
0.37227454
0.37229039
0.37232398
0.37237936
0.37245579
0.37253813
0.37253257
0.37212099
0.37044182
0.36561334
0.34294347
0.34833608
0.35004993
0.35049876
0.35049503
0.35039934
0.3503145
0.35025301
0.35021539
0.35019746
0.35019745
0.35021536
0.35025297
0.35031445
0.35039929
0.35049497
0.35049871
0.35004987
0.34833603
0.34294342
0.3202979
0.32639653
0.32815852
0.32866227
0.32865303
0.32854553
0.3284577
0.32839367
0.32835363
0.32833441
0.32833441
0.32835361
0.32839363
0.32845765
0.32854549
0.32865299
0.32866223
0.32815848
0.32639651
0.32029788
0.2968239
0.30376782
0.30566574
0.30624856
0.30621685
0.30610767
0.30602401
0.30596237
0.30592367
0.30590424
0.30590424
0.30592365
0.30596233
0.30602397
0.30610764
0.30621682
0.30624854
0.30566571
0.30376781
0.2968239
0.2717674
0.27964051
0.28183676
0.28249548
0.28243818
0.28234594
0.28227455
0.28222207
0.28218575
0.28216798
0.28216798
0.28218572
0.28222203
0.28227451
0.2823459
0.28243815
0.28249546
0.28183673
0.27964049
0.27176739
0.24463714
0.2535136
0.25615578
0.25689078
0.25685357
0.25679814
0.25674781
0.25671123
0.256646
0.25663206
0.25663205
0.25664598
0.25671119
0.25674776
0.2567981
0.25685353
0.25689076
0.25615575
0.25351358
0.24463711
0.21572011
0.22567101
0.22886881
0.22976136
0.22981778
0.22981599
0.22980037
0.22977308
0.22966827
0.22965849
0.22965848
0.22966824
0.22977303
0.22980033
0.22981594
0.22981774
0.22976132
0.22886877
0.22567097
0.21572008
0.19426602
0.20590524
0.21019059
0.21158266
0.2118382
0.21190451
0.21182326
0.2118002
0.21164191
0.21162896
0.21162895
0.21164188
0.21180015
0.21182323
0.21190447
0.21183818
0.21158264
0.21019056
0.20590522
0.19426601
0.16224847
0.17564582
0.18102027
0.18299915
0.18354906
0.18363342
0.18350705
0.18351275
0.18340115
0.18340334
0.18340333
0.18340113
0.18351271
0.18350702
0.18363339
0.18354904
0.18299914
0.18102025
0.17564581
0.1622485
0.12477441
0.14039075
0.14738546
0.15030672
0.15144822
0.15163475
0.15155349
0.15162
0.15140523
0.15143761
0.1514376
0.15140522
0.15161996
0.15155347
0.15163473
0.15144822
0.15030672
0.14738545
0.14039077
0.12477451
0.075156526
0.093457448
0.10271798
0.10700785
0.10890911
0.10953728
0.10972607
0.10993725
0.1097449
0.10983906
0.10983906
0.1097449
0.10993724
0.10972607
0.10953729
0.10890914
0.10700789
0.10271802
0.093457544
0.075156745
0.019367945
0.032488299
0.041217307
0.046214465
0.048147732
0.049237816
0.049785896
0.050134786
0.050296632
0.050441611
0.050441611
0.050296643
0.050134799
0.049785927
0.04923786
0.048147788
0.046214533
0.041217385
0.032488418
0.019368099
0
0
0.00038059975
0.001806995
0.0026432188
0.0030573835
0.0032606605
0.0033709362
0.003462783
0.0035014171
0.0035014141
0.0034627778
0.0033709268
0.0032606522
0.0030573749
0.0026432102
0.0018069874
0.00038059361
0
0
0
0
0
0
0
0
0
0
0
0
0
0
0
0
0
0
0
0
0
0
0
0
0
0
0
0
0
0
0
0
0
0
0
0
0
0
0
0
0
0
0
0
0
0
0
0
0
0
0
0
0
0
0
0
0
0
0
0
0
0
0
0
0
0
0
0
0
0
0
0
0
0
0
0
0
0
0
0
0
0
0
0
0
0
0
0
0
0
0
0
0
0
0
0
0
0
0
0
0
0
0
0
0
0
0
0
0
0
0
0
0
0
0
0
0
0
0
0
0
0
0
0
0
0
0
0
0
0
0
0
0
0
0
0
0
0
0
0
0
0
0
0
0
0
0
0
0
0
0
0
0
0
0
0
0
0
0
0
0
0
0
0
0
0
0
0
0
0
0
0
0
0
0
0
0
0
0
0
0
0
0
0
0
0
0
0
0
0
0
0
0
0
0
0
0
0
0
0
0
0
0
0
0
0
0
0
0
0
0
0
0
0
0
0
0
0
0
0
0
0
0
0
0
0
0
0
0
0
0
0
0
0
0
0
0
0
0
0
0
0
0
0
0
0
0
0
0
0
0
0
0
0
0
0
0
0
0
0
0
0
0
0
0
0
0
0
0
0
0
0
0
0
0
0
0
0
0
0
0
0
0
0
0
0
0
0
0
0
0
0
0
0
0
0
0
0
0
0
0
0
0
0
0
0
0
0
0
0
0
0
0
0
0
0
0
0
0
0
0
0
0
0
0
0
0
0
0
0
0
0
0
0
0
0
0
0
0
0
0
0
0
0
0
0
0
0
0
0
0
0
0
0
0
0
0
0
0
0
0
0
0
0
0
0
0
0
0
0
0
0
0
0
0
0
0
0
0
0
0
0
)
;

boundaryField
{
    Wall
    {
        type            zeroGradient;
    }
    frontAndBack
    {
        type            empty;
    }
    atmosphere
    {
        type            zeroGradient;
    }
}


// ************************************************************************* //
