/*--------------------------------*- C++ -*----------------------------------*\
| =========                 |                                                 |
| \\      /  F ield         | OpenFOAM: The Open Source CFD Toolbox           |
|  \\    /   O peration     | Version:  3.0.1                                 |
|   \\  /    A nd           | Web:      www.OpenFOAM.org                      |
|    \\/     M anipulation  |                                                 |
\*---------------------------------------------------------------------------*/
FoamFile
{
    version     2.0;
    format      ascii;
    class       volScalarField;
    location    "28";
    object      g1_CO2;
}
// * * * * * * * * * * * * * * * * * * * * * * * * * * * * * * * * * * * * * //

dimensions      [0 0 0 0 0 0 0];

internalField   nonuniform List<scalar> 
800
(
0.48513581
0.48517993
0.48519029
0.4851919
0.48519216
0.48519233
0.48519256
0.48519278
0.48519295
0.48519304
0.48519304
0.48519295
0.48519278
0.48519256
0.48519233
0.48519216
0.4851919
0.48519029
0.48517993
0.48513581
0.50280234
0.50265664
0.50268582
0.50270491
0.50270846
0.50270402
0.50269728
0.50269119
0.50268689
0.50268471
0.50268471
0.50268689
0.50269118
0.50269728
0.50270401
0.50270845
0.50270489
0.5026858
0.50265661
0.50280228
0.52038996
0.52008163
0.52010486
0.52013506
0.5201418
0.52013549
0.52012505
0.52011536
0.52010841
0.52010484
0.52010484
0.52010841
0.52011535
0.52012504
0.52013547
0.52014177
0.52013503
0.52010482
0.52008158
0.52038987
0.53951601
0.53888364
0.53887459
0.53891556
0.5389265
0.53892121
0.53890972
0.53889859
0.53889035
0.53888607
0.53888607
0.53889035
0.53889858
0.5389097
0.5389212
0.53892647
0.53891552
0.53887454
0.53888358
0.5395159
0.56197458
0.56077256
0.56068356
0.56070831
0.56072089
0.56071762
0.56070643
0.56069515
0.56068649
0.56068195
0.56068195
0.56068649
0.56069514
0.56070642
0.5607176
0.56072086
0.56070827
0.56068351
0.56077249
0.56197447
0.58973135
0.58759932
0.58736795
0.58733983
0.58734857
0.58734612
0.58733531
0.5873242
0.58731531
0.58731066
0.58731066
0.58731532
0.5873242
0.58733531
0.58734611
0.58734855
0.5873398
0.58736791
0.58759926
0.58973126
0.62423015
0.62081515
0.62037242
0.62026429
0.62026461
0.62026093
0.62024949
0.62023785
0.6202283
0.6202233
0.6202233
0.62022831
0.62023786
0.6202495
0.62026093
0.6202646
0.62026427
0.62037239
0.62081511
0.62423008
0.66696915
0.66185931
0.66104919
0.66084678
0.66083659
0.66082805
0.66081316
0.66079873
0.66078717
0.66078113
0.66078113
0.66078719
0.66079875
0.66081318
0.66082806
0.6608366
0.66084678
0.66104918
0.66185929
0.6669691
0.71887866
0.71180841
0.71042811
0.71012538
0.71008293
0.71006861
0.71004497
0.71002367
0.71000787
0.70999962
0.70999963
0.71000789
0.71002369
0.710045
0.71006864
0.71008296
0.7101254
0.71042812
0.71180842
0.71887865
0.7806134
0.77141147
0.76925262
0.7688459
0.76874274
0.76869845
0.76865551
0.76862065
0.76859748
0.76858531
0.76858532
0.7685975
0.76862068
0.76865555
0.7686985
0.76874278
0.76884595
0.76925265
0.77141151
0.78061344
0.8527232
0.84140378
0.83827954
0.83775839
0.83756347
0.83745517
0.83737501
0.83731595
0.83728149
0.83726302
0.83726303
0.83728152
0.83731599
0.83737507
0.83745523
0.83756353
0.83775846
0.83827961
0.84140386
0.8527233
0.93527982
0.92213677
0.91804468
0.91736879
0.91699083
0.91680732
0.91666341
0.91656266
0.91651602
0.91648706
0.91648707
0.91651605
0.9165627
0.91666347
0.91680739
0.9169909
0.91736888
0.91804479
0.9221369
0.93527997
1.0273437
1.0130343
1.0083772
1.0073556
1.0067487
1.0064988
1.0062549
1.0060781
1.0060082
1.0059547
1.0059547
1.0060082
1.0060782
1.006255
1.0064989
1.0067488
1.0073557
1.0083773
1.0130344
1.0273439
1.1264243
1.1124491
1.1079396
1.1064616
1.1057233
1.1054008
1.1050054
1.1047089
1.1044405
1.1043603
1.1043603
1.1044405
1.1047089
1.1050054
1.1054009
1.1057233
1.1064617
1.1079398
1.1124492
1.1264244
1.2244538
1.2137379
1.2101153
1.2082633
1.2075649
1.2070992
1.2063785
1.2060494
1.2054748
1.2056242
1.2056242
1.2054748
1.2060494
1.2063785
1.2070992
1.2075649
1.2082633
1.2101154
1.213738
1.2244539
1.3717386
1.3676549
1.3669881
1.3667577
1.3662482
1.3650991
1.3629186
1.3622707
1.3612932
1.3620263
1.3620263
1.3612932
1.3622707
1.3629186
1.3650991
1.3662482
1.3667577
1.3669882
1.367655
1.3717386
1.4655765
1.4731752
1.4765012
1.4787522
1.4796551
1.4765456
1.472825
1.4717204
1.4701412
1.4715484
1.4715483
1.4701412
1.4717203
1.472825
1.4765455
1.479655
1.4787521
1.4765012
1.4731752
1.4655764
1.5372523
1.5626151
1.5736449
1.5792475
1.5835367
1.5787076
1.5742643
1.5726295
1.5687244
1.5705031
1.570503
1.5687243
1.5726294
1.5742642
1.5787074
1.5835366
1.5792473
1.5736447
1.562615
1.5372521
1.5371029
1.6028597
1.6312811
1.6423579
1.6504992
1.6459326
1.6419351
1.6398468
1.6355433
1.6372956
1.6372956
1.6355432
1.6398467
1.6419349
1.6459324
1.650499
1.6423578
1.631281
1.6028596
1.5371032
1.3028571
1.4576503
1.53102
1.5635744
1.5792255
1.585555
1.5836757
1.5818236
1.5802314
1.5819946
1.5819945
1.5802314
1.5818236
1.5836757
1.5855551
1.5792257
1.5635746
1.5310203
1.4576509
1.3028586
0.82036816
0.97941005
1.0713844
1.1291721
1.1589187
1.1681969
1.1678525
1.1662302
1.1829351
1.1849669
1.1849669
1.1829351
1.1662301
1.1678525
1.168197
1.1589187
1.1291722
1.0713846
0.97941058
0.82036945
0
0
0
0
0
0
0
0
0
0
0
0
0
0
0
0
0
0
0
0
0
0
0
0
0
0
0
0
0
0
0
0
0
0
0
0
0
0
0
0
0
0
0
0
0
0
0
0
0
0
0
0
0
0
0
0
0
0
0
0
0
0
0
0
0
0
0
0
0
0
0
0
0
0
0
0
0
0
0
0
0
0
0
0
0
0
0
0
0
0
0
0
0
0
0
0
0
0
0
0
0
0
0
0
0
0
0
0
0
0
0
0
0
0
0
0
0
0
0
0
0
0
0
0
0
0
0
0
0
0
0
0
0
0
0
0
0
0
0
0
0
0
0
0
0
0
0
0
0
0
0
0
0
0
0
0
0
0
0
0
0
0
0
0
0
0
0
0
0
0
0
0
0
0
0
0
0
0
0
0
0
0
0
0
0
0
0
0
0
0
0
0
0
0
0
0
0
0
0
0
0
0
0
0
0
0
0
0
0
0
0
0
0
0
0
0
0
0
0
0
0
0
0
0
0
0
0
0
0
0
0
0
0
0
0
0
0
0
0
0
0
0
0
0
0
0
0
0
0
0
0
0
0
0
0
0
0
0
0
0
0
0
0
0
0
0
0
0
0
0
0
0
0
0
0
0
0
0
0
0
0
0
0
0
0
0
0
0
0
0
0
0
0
0
0
0
0
0
0
0
0
0
0
0
0
0
0
0
0
0
0
0
0
0
0
0
0
0
0
0
0
0
0
0
0
0
0
0
0
0
0
0
0
0
0
0
0
0
0
0
0
0
0
0
0
0
0
0
0
0
0
0
0
0
0
0
0
0
0
0
0
0
0
0
0
0
0
0
0
0
0
0
0
0
0
0
0
0
0
0
)
;

boundaryField
{
    Wall
    {
        type            zeroGradient;
    }
    frontAndBack
    {
        type            empty;
    }
    atmosphere
    {
        type            zeroGradient;
    }
}


// ************************************************************************* //
