/*--------------------------------*- C++ -*----------------------------------*\
| =========                 |                                                 |
| \\      /  F ield         | OpenFOAM: The Open Source CFD Toolbox           |
|  \\    /   O peration     | Version:  3.0.1                                 |
|   \\  /    A nd           | Web:      www.OpenFOAM.org                      |
|    \\/     M anipulation  |                                                 |
\*---------------------------------------------------------------------------*/
FoamFile
{
    version     2.0;
    format      ascii;
    class       volScalarField;
    location    "28";
    object      M0;
}
// * * * * * * * * * * * * * * * * * * * * * * * * * * * * * * * * * * * * * //

dimensions      [0 0 0 0 0 0 0];

internalField   nonuniform List<scalar> 
800
(
6.7260953e+11
6.7254964e+11
6.7254053e+11
6.7253999e+11
6.7254031e+11
6.7254053e+11
6.7254058e+11
6.7254056e+11
6.7254054e+11
6.7254052e+11
6.7254052e+11
6.7254054e+11
6.7254057e+11
6.7254058e+11
6.7254052e+11
6.725403e+11
6.7253998e+11
6.7254052e+11
6.7254964e+11
6.7260953e+11
6.8486182e+11
6.8413085e+11
6.8397373e+11
6.8394656e+11
6.8394995e+11
6.8395714e+11
6.8396229e+11
6.8396506e+11
6.8396631e+11
6.8396677e+11
6.8396676e+11
6.8396631e+11
6.8396507e+11
6.839623e+11
6.8395714e+11
6.8394996e+11
6.8394657e+11
6.8397374e+11
6.8413087e+11
6.8486186e+11
6.9147184e+11
6.9045369e+11
6.9016384e+11
6.9011381e+11
6.9011473e+11
6.9012295e+11
6.9012875e+11
6.901315e+11
6.9013246e+11
6.9013268e+11
6.9013268e+11
6.9013246e+11
6.901315e+11
6.9012876e+11
6.9012296e+11
6.9011474e+11
6.9011382e+11
6.9016386e+11
6.9045372e+11
6.9147189e+11
6.9177681e+11
6.9073397e+11
6.9037158e+11
6.903142e+11
6.9031508e+11
6.9032266e+11
6.9032694e+11
6.9032796e+11
6.9032756e+11
6.9032705e+11
6.9032705e+11
6.9032756e+11
6.9032796e+11
6.9032694e+11
6.9032266e+11
6.9031509e+11
6.9031421e+11
6.9037159e+11
6.9073399e+11
6.9177685e+11
6.8556297e+11
6.8476162e+11
6.8438855e+11
6.8432669e+11
6.8433095e+11
6.843376e+11
6.8433929e+11
6.8433766e+11
6.8433526e+11
6.8433371e+11
6.843337e+11
6.8433526e+11
6.8433766e+11
6.8433928e+11
6.8433759e+11
6.8433095e+11
6.8432668e+11
6.8438854e+11
6.8476161e+11
6.8556298e+11
6.7321886e+11
6.7287245e+11
6.7254368e+11
6.7247646e+11
6.7248701e+11
6.7249303e+11
6.724918e+11
6.7248718e+11
6.7248257e+11
6.7247987e+11
6.7247987e+11
6.7248257e+11
6.7248717e+11
6.7249178e+11
6.7249301e+11
6.7248699e+11
6.7247643e+11
6.7254365e+11
6.7287242e+11
6.7321883e+11
6.556792e+11
6.5590819e+11
6.5568395e+11
6.5561269e+11
6.5563101e+11
6.5563681e+11
6.5563284e+11
6.5562544e+11
6.5561878e+11
6.5561503e+11
6.5561502e+11
6.5561877e+11
6.5562542e+11
6.5563281e+11
6.5563678e+11
6.5563097e+11
6.5561264e+11
6.556839e+11
6.5590813e+11
6.5567915e+11
6.3420943e+11
6.3503418e+11
6.3497414e+11
6.3490383e+11
6.3492935e+11
6.3493516e+11
6.3492905e+11
6.3491952e+11
6.3491125e+11
6.3490669e+11
6.3490668e+11
6.3491124e+11
6.3491949e+11
6.3492902e+11
6.3493511e+11
6.3492929e+11
6.3490377e+11
6.3497408e+11
6.3503411e+11
6.3420936e+11
6.1026961e+11
6.1161307e+11
6.117681e+11
6.1170733e+11
6.1172514e+11
6.1173078e+11
6.1172358e+11
6.117129e+11
6.1170361e+11
6.1169853e+11
6.1169853e+11
6.117036e+11
6.1171288e+11
6.1172354e+11
6.1173073e+11
6.1172508e+11
6.1170726e+11
6.1176803e+11
6.1161299e+11
6.1026954e+11
5.8532335e+11
5.8701218e+11
5.8742254e+11
5.8738297e+11
5.8736659e+11
5.8735646e+11
5.8734984e+11
5.8733923e+11
5.8732951e+11
5.8732421e+11
5.873242e+11
5.8732949e+11
5.873392e+11
5.8734979e+11
5.873564e+11
5.8736653e+11
5.873829e+11
5.8742247e+11
5.870121e+11
5.8532328e+11
5.6072109e+11
5.6251146e+11
5.6318562e+11
5.6318306e+11
5.6309294e+11
5.6303799e+11
5.6303402e+11
5.6302476e+11
5.6301505e+11
5.6300974e+11
5.6300973e+11
5.6301503e+11
5.6302473e+11
5.6303398e+11
5.6303794e+11
5.6309288e+11
5.6318299e+11
5.6318555e+11
5.625114e+11
5.6072103e+11
5.3765191e+11
5.3929215e+11
5.4016826e+11
5.4022823e+11
5.4001804e+11
5.3989309e+11
5.3989359e+11
5.3988687e+11
5.3987729e+11
5.398721e+11
5.3987209e+11
5.3987728e+11
5.3988685e+11
5.3989356e+11
5.3989305e+11
5.40018e+11
5.4022818e+11
5.401682e+11
5.392921e+11
5.3765186e+11
5.171577e+11
5.1842703e+11
5.1937129e+11
5.1954859e+11
5.1917909e+11
5.1897625e+11
5.189821e+11
5.1897948e+11
5.1894393e+11
5.1893984e+11
5.1893983e+11
5.1894392e+11
5.1897946e+11
5.1898208e+11
5.1897622e+11
5.1917906e+11
5.1954856e+11
5.1937125e+11
5.1842698e+11
5.1715767e+11
5.0026539e+11
5.0092999e+11
5.0180338e+11
5.021234e+11
5.0157824e+11
5.0130779e+11
5.0131779e+11
5.0131886e+11
5.012296e+11
5.0122738e+11
5.0122738e+11
5.012296e+11
5.0131885e+11
5.0131778e+11
5.0130778e+11
5.0157823e+11
5.0212338e+11
5.0180335e+11
5.0092997e+11
5.0026539e+11
4.8702485e+11
4.8687121e+11
4.875751e+11
4.8797312e+11
4.8727298e+11
4.8696095e+11
4.8698778e+11
4.870349e+11
4.8687262e+11
4.8681103e+11
4.8681103e+11
4.8687262e+11
4.8703489e+11
4.8698778e+11
4.8696095e+11
4.8727298e+11
4.8797312e+11
4.8757509e+11
4.8687121e+11
4.8702488e+11
4.7666261e+11
4.7538172e+11
4.7583729e+11
4.762302e+11
4.7543562e+11
4.7513892e+11
4.7523467e+11
4.7529072e+11
4.750411e+11
4.7483882e+11
4.7483882e+11
4.750411e+11
4.7529072e+11
4.7523468e+11
4.7513893e+11
4.7543563e+11
4.7623022e+11
4.758373e+11
4.7538175e+11
4.7666267e+11
4.7285167e+11
4.7006099e+11
4.702624e+11
4.7065843e+11
4.6971239e+11
4.6950218e+11
4.6965881e+11
4.6969261e+11
4.6936156e+11
4.6897848e+11
4.6897848e+11
4.6936156e+11
4.6969261e+11
4.6965883e+11
4.695022e+11
4.6971242e+11
4.7065847e+11
4.7026243e+11
4.7006104e+11
4.7285175e+11
4.7781037e+11
4.7306927e+11
4.7303727e+11
4.736182e+11
4.7238747e+11
4.7224109e+11
4.7237152e+11
4.7235819e+11
4.7194805e+11
4.7138678e+11
4.7138677e+11
4.7194806e+11
4.7235819e+11
4.7237153e+11
4.7224112e+11
4.7238751e+11
4.7361825e+11
4.7303732e+11
4.7306934e+11
4.7781047e+11
4.9556739e+11
4.8822488e+11
4.8804551e+11
4.8924853e+11
4.87583e+11
4.8740525e+11
4.8738799e+11
4.8728324e+11
4.8662438e+11
4.8589267e+11
4.8589267e+11
4.8662438e+11
4.8728323e+11
4.87388e+11
4.8740528e+11
4.8758305e+11
4.892486e+11
4.8804557e+11
4.8822496e+11
4.9556749e+11
5.3148308e+11
5.2184038e+11
5.2214131e+11
5.2468458e+11
5.2251436e+11
5.220924e+11
5.2182327e+11
5.2154494e+11
5.2039293e+11
5.1946722e+11
5.1946721e+11
5.2039292e+11
5.2154493e+11
5.2182328e+11
5.2209244e+11
5.2251441e+11
5.2468465e+11
5.2214138e+11
5.2184048e+11
5.314832e+11
5.8619439e+11
5.7826269e+11
5.8207285e+11
5.8746659e+11
5.859874e+11
5.8584416e+11
5.8530205e+11
5.8470874e+11
5.8273906e+11
5.8155616e+11
5.8155615e+11
5.8273904e+11
5.8470871e+11
5.8530206e+11
5.858442e+11
5.8598746e+11
5.8746667e+11
5.8207295e+11
5.7826284e+11
5.861946e+11
6.4464699e+11
6.5391523e+11
6.714346e+11
6.8681547e+11
6.9015512e+11
6.9164786e+11
6.9086676e+11
6.8958597e+11
6.8665376e+11
6.850676e+11
6.8506756e+11
6.8665372e+11
6.895859e+11
6.9086674e+11
6.9164788e+11
6.9015516e+11
6.8681555e+11
6.714347e+11
6.5391543e+11
6.4464735e+11
6.4976313e+11
6.9581452e+11
7.3920454e+11
7.739906e+11
7.8961509e+11
7.9598122e+11
7.9580639e+11
7.9354193e+11
7.8927387e+11
7.870552e+11
7.8705514e+11
7.8927376e+11
7.9354179e+11
7.9580632e+11
7.9598118e+11
7.8961508e+11
7.7399064e+11
7.3920466e+11
6.9581483e+11
6.4976383e+11
5.5921947e+11
6.8291858e+11
7.6438542e+11
8.2588773e+11
8.6137847e+11
8.7742974e+11
8.7992405e+11
8.7679897e+11
8.7103882e+11
8.6785577e+11
8.6785566e+11
8.7103864e+11
8.7679874e+11
8.7992389e+11
8.7742963e+11
8.613784e+11
8.2588775e+11
7.6438556e+11
6.8291901e+11
5.5922075e+11
3.5808079e+11
6.0998521e+11
7.4319124e+11
8.3467447e+11
8.9144974e+11
9.1915953e+11
9.2552207e+11
9.216042e+11
9.1410417e+11
9.0955247e+11
9.0955232e+11
9.141039e+11
9.2160387e+11
9.2552184e+11
9.1915936e+11
8.9144964e+11
8.3467445e+11
7.4319139e+11
6.0998577e+11
3.5808245e+11
1.5112063e+11
4.8723348e+11
6.7771698e+11
8.0081434e+11
8.7707001e+11
9.1496039e+11
9.2441419e+11
9.1913414e+11
9.0942798e+11
9.0311963e+11
9.0311942e+11
9.0942761e+11
9.191337e+11
9.2441389e+11
9.1496018e+11
8.7706987e+11
8.0081432e+11
6.7771713e+11
4.8723412e+11
1.5112184e+11
4.34633e+10
3.4407275e+11
5.7691741e+11
7.2864542e+11
8.2116898e+11
8.6654835e+11
8.7754713e+11
8.7030748e+11
8.5812464e+11
8.4994344e+11
8.4994318e+11
8.5812417e+11
8.7030692e+11
8.7754673e+11
8.6654807e+11
8.2116877e+11
7.2864533e+11
5.7691755e+11
3.440734e+11
4.3463807e+10
9.7078724e+09
2.1524253e+11
4.5741955e+11
6.2765222e+11
7.3149978e+11
7.8156837e+11
7.9304266e+11
7.84044e+11
7.6989253e+11
7.6027445e+11
7.6027414e+11
7.6989196e+11
7.8404332e+11
7.9304216e+11
7.8156799e+11
7.3149949e+11
6.2765203e+11
4.5741959e+11
2.1524298e+11
9.7080264e+09
1.8741517e+09
1.2120831e+11
3.3846907e+11
5.1166046e+11
6.2002579e+11
6.7201036e+11
6.8360797e+11
6.7390656e+11
6.5904997e+11
6.4889796e+11
6.4889762e+11
6.5904932e+11
6.7390577e+11
6.8360736e+11
6.720099e+11
6.2002542e+11
5.116602e+11
3.3846907e+11
1.2120859e+11
1.8741882e+09
3.3194385e+08
6.2783453e+10
2.3504632e+11
3.9545066e+11
5.006948e+11
5.5180188e+11
5.6349961e+11
5.5445252e+11
5.403889e+11
5.3072019e+11
5.3071984e+11
5.4038821e+11
5.5445168e+11
5.6349893e+11
5.5180136e+11
5.006944e+11
3.9545039e+11
2.350463e+11
6.2783621e+10
3.319512e+08
55824012
3.0505793e+10
1.543227e+11
2.9082892e+11
3.8622096e+11
4.338394e+11
4.4552486e+11
4.3817981e+11
4.26083e+11
4.17681e+11
4.1768066e+11
4.2608232e+11
4.3817897e+11
4.4552417e+11
4.3383887e+11
3.8622058e+11
2.908287e+11
1.543227e+11
3.0505891e+10
55825349
9094345.3
1.4105859e+10
9.6515043e+10
2.0446607e+11
2.8557943e+11
3.2766217e+11
3.3899065e+11
3.3379393e+11
3.2424092e+11
3.1749685e+11
3.1749654e+11
3.242403e+11
3.3379315e+11
3.3899e+11
3.2766169e+11
2.8557911e+11
2.0446593e+11
9.6515059e+10
1.4105914e+10
9094572.5
1451582.3
6.2664412e+09
5.7871019e+10
1.3806309e+11
2.0319231e+11
2.3854968e+11
2.4904944e+11
2.4589956e+11
2.3890581e+11
2.3384922e+11
2.3384897e+11
2.3890527e+11
2.4589888e+11
2.4904888e+11
2.3854926e+11
2.0319206e+11
1.38063e+11
5.7871043e+10
6.2664696e+09
1451619.4
228378.91
2.6906469e+09
3.3439012e+10
8.9914406e+10
1.3962237e+11
1.6796436e+11
1.772128e+11
1.7568541e+11
1.7090338e+11
1.6732906e+11
1.6732885e+11
1.7090294e+11
1.7568485e+11
1.7721233e+11
1.6796402e+11
1.3962219e+11
8.9914368e+10
3.3439043e+10
2.690661e+09
228384.75
35539.076
1.1208956e+09
1.8691663e+10
5.667448e+10
9.2948978e+10
1.1470919e+11
1.224517e+11
1.2202745e+11
1.1895976e+11
1.1656088e+11
1.1656072e+11
1.189594e+11
1.22027e+11
1.2245133e+11
1.1470894e+11
9.2948851e+10
5.6674469e+10
1.8691691e+10
1.1209024e+09
35540.045
5544.7331
4.5418554e+08
1.0136444e+10
3.4669831e+10
6.010465e+10
7.616725e+10
8.2346159e+10
8.2560376e+10
8.0712194e+10
7.9175793e+10
7.9175671e+10
8.0711927e+10
8.2560031e+10
8.2345876e+10
7.6167063e+10
6.0104564e+10
3.4669833e+10
1.0136464e+10
4.5418867e+08
5544.8644
1041.4758
1.7931238e+08
5.3443223e+09
2.0627936e+10
3.7831022e+10
4.9268477e+10
5.3987391e+10
5.4494632e+10
5.3452769e+10
5.2510678e+10
5.2510589e+10
5.3452572e+10
5.4494377e+10
5.3987183e+10
4.9268343e+10
3.7830965e+10
2.0627942e+10
5.3443358e+09
1.7931376e+08
1041.5586
514.01602
69064836
2.7439588e+09
1.195714e+10
2.3215368e+10
3.1093371e+10
3.4555412e+10
3.5134931e+10
3.4591511e+10
3.4037611e+10
3.4037549e+10
3.4591371e+10
3.5134749e+10
3.4555264e+10
3.1093278e+10
2.3215331e+10
1.1957147e+10
2.7439672e+09
69065439
513.20317
457.63649
25982441
1.3737312e+09
6.7614846e+09
1.3907621e+10
1.9168717e+10
2.1616998e+10
2.2149091e+10
2.1893749e+10
2.1581562e+10
2.1581519e+10
2.1893653e+10
2.2148965e+10
2.1616896e+10
1.9168654e+10
1.3907597e+10
6.76149e+09
1.3737363e+09
25982709
457.30499
239.07895
9558794
6.7131949e+08
3.7339399e+09
8.1420089e+09
1.1554981e+10
1.3228743e+10
1.3663233e+10
1.3562453e+10
1.339417e+10
1.3394141e+10
1.3562389e+10
1.3663148e+10
1.3228674e+10
1.155494e+10
8.1419941e+09
3.7339439e+09
6.713224e+08
9558920.5
239.0562
)
;

boundaryField
{
    Wall
    {
        type            zeroGradient;
    }
    frontAndBack
    {
        type            empty;
    }
    atmosphere
    {
        type            zeroGradient;
    }
}


// ************************************************************************* //
