/*--------------------------------*- C++ -*----------------------------------*\
| =========                 |                                                 |
| \\      /  F ield         | OpenFOAM: The Open Source CFD Toolbox           |
|  \\    /   O peration     | Version:  3.0.1                                 |
|   \\  /    A nd           | Web:      www.OpenFOAM.org                      |
|    \\/     M anipulation  |                                                 |
\*---------------------------------------------------------------------------*/
FoamFile
{
    version     2.0;
    format      ascii;
    class       volScalarField;
    location    "28";
    object      M3;
}
// * * * * * * * * * * * * * * * * * * * * * * * * * * * * * * * * * * * * * //

dimensions      [0 0 0 0 0 0 0];

internalField   nonuniform List<scalar> 
800
(
1.7770826e-24
1.7774396e-24
1.7774944e-24
1.7774979e-24
1.7774964e-24
1.7774954e-24
1.7774952e-24
1.7774955e-24
1.7774957e-24
1.7774958e-24
1.7774959e-24
1.7774957e-24
1.7774954e-24
1.7774952e-24
1.7774954e-24
1.7774964e-24
1.777498e-24
1.7774944e-24
1.7774397e-24
1.7770827e-24
1.7079805e-24
1.712016e-24
1.7128879e-24
1.7130392e-24
1.7130209e-24
1.7129812e-24
1.7129527e-24
1.7129373e-24
1.7129303e-24
1.7129278e-24
1.7129278e-24
1.7129303e-24
1.7129372e-24
1.7129526e-24
1.7129812e-24
1.7130208e-24
1.7130392e-24
1.7128878e-24
1.7120159e-24
1.7079803e-24
1.6688196e-24
1.6743746e-24
1.675973e-24
1.6762526e-24
1.6762488e-24
1.6762033e-24
1.6761706e-24
1.6761546e-24
1.6761487e-24
1.6761472e-24
1.6761472e-24
1.6761487e-24
1.6761546e-24
1.6761705e-24
1.6762033e-24
1.6762487e-24
1.6762525e-24
1.6759729e-24
1.6743744e-24
1.6688193e-24
1.6612787e-24
1.6671123e-24
1.669154e-24
1.6694859e-24
1.6694838e-24
1.6694399e-24
1.6694133e-24
1.669405e-24
1.6694055e-24
1.6694074e-24
1.6694074e-24
1.6694054e-24
1.669405e-24
1.6694133e-24
1.6694399e-24
1.6694837e-24
1.6694859e-24
1.6691539e-24
1.6671122e-24
1.6612785e-24
1.6870646e-24
1.6919143e-24
1.6941318e-24
1.6945145e-24
1.6944943e-24
1.6944518e-24
1.694436e-24
1.6944401e-24
1.6944503e-24
1.6944574e-24
1.6944574e-24
1.6944503e-24
1.6944401e-24
1.694436e-24
1.6944518e-24
1.6944944e-24
1.6945146e-24
1.6941318e-24
1.6919143e-24
1.6870645e-24
1.7475364e-24
1.7501726e-24
1.7523105e-24
1.7527692e-24
1.7527096e-24
1.7526641e-24
1.7526607e-24
1.7526797e-24
1.7527015e-24
1.752715e-24
1.752715e-24
1.7527016e-24
1.7526797e-24
1.7526607e-24
1.7526642e-24
1.7527098e-24
1.7527693e-24
1.7523107e-24
1.7501728e-24
1.7475365e-24
1.8437893e-24
1.8431873e-24
1.844882e-24
1.8454339e-24
1.845315e-24
1.84526e-24
1.8452681e-24
1.8453024e-24
1.8453367e-24
1.8453567e-24
1.8453567e-24
1.8453367e-24
1.8453025e-24
1.8452683e-24
1.8452602e-24
1.8453153e-24
1.8454342e-24
1.8448823e-24
1.8431876e-24
1.8437896e-24
1.9758474e-24
1.9712727e-24
1.9720351e-24
1.9726719e-24
1.97248e-24
1.9724074e-24
1.9724226e-24
1.9724694e-24
1.9725149e-24
1.9725409e-24
1.972541e-24
1.972515e-24
1.9724696e-24
1.9724228e-24
1.9724077e-24
1.9724803e-24
1.9726723e-24
1.9720356e-24
1.9712731e-24
1.9758479e-24
2.1427261e-24
2.133892e-24
2.1330902e-24
2.1337668e-24
2.1336293e-24
2.1335288e-24
2.1335393e-24
2.1335907e-24
2.1336436e-24
2.1336739e-24
2.133674e-24
2.1336438e-24
2.1335909e-24
2.1335396e-24
2.1335292e-24
2.1336298e-24
2.1337674e-24
2.1330907e-24
2.1338925e-24
2.1427266e-24
2.3418339e-24
2.329393e-24
2.3262452e-24
2.3268796e-24
2.327096e-24
2.3271353e-24
2.3271153e-24
2.3271555e-24
2.3272091e-24
2.3272401e-24
2.3272402e-24
2.3272093e-24
2.3271558e-24
2.3271157e-24
2.3271358e-24
2.3270965e-24
2.3268801e-24
2.3262458e-24
2.3293936e-24
2.3418345e-24
2.5685636e-24
2.5543821e-24
2.5482777e-24
2.5487469e-24
2.5498819e-24
2.5504376e-24
2.5503411e-24
2.5503431e-24
2.5503866e-24
2.5504127e-24
2.5504128e-24
2.5503867e-24
2.5503434e-24
2.5503415e-24
2.550438e-24
2.5498825e-24
2.5487475e-24
2.5482783e-24
2.5543828e-24
2.5685642e-24
2.8161267e-24
2.8029915e-24
2.794269e-24
2.7943638e-24
2.7972268e-24
2.7987005e-24
2.7984581e-24
2.7983777e-24
2.7983956e-24
2.7984075e-24
2.7984075e-24
2.7983958e-24
2.798378e-24
2.7984584e-24
2.798701e-24
2.7972273e-24
2.7943644e-24
2.7942697e-24
2.8029922e-24
2.8161274e-24
3.0752669e-24
3.0666121e-24
3.0571568e-24
3.0562964e-24
3.0617336e-24
3.064347e-24
3.0638627e-24
3.063619e-24
3.0639863e-24
3.0639528e-24
3.0639529e-24
3.0639865e-24
3.0636193e-24
3.0638631e-24
3.0643474e-24
3.0617341e-24
3.056297e-24
3.0571575e-24
3.0666128e-24
3.0752675e-24
3.332498e-24
3.3332257e-24
3.3260818e-24
3.3242634e-24
3.3329027e-24
3.3366156e-24
3.335774e-24
3.3352659e-24
3.3363407e-24
3.3362202e-24
3.3362202e-24
3.3363408e-24
3.3352661e-24
3.3357744e-24
3.336616e-24
3.3329032e-24
3.3242639e-24
3.3260824e-24
3.3332263e-24
3.3324986e-24
3.5524145e-24
3.5703104e-24
3.5683809e-24
3.5656778e-24
3.5776735e-24
3.5822297e-24
3.5807757e-24
3.5804486e-24
3.5824986e-24
3.58322e-24
3.5832201e-24
3.5824987e-24
3.5804488e-24
3.5807759e-24
3.58223e-24
3.5776738e-24
3.5656782e-24
3.5683813e-24
3.5703108e-24
3.5524147e-24
3.684196e-24
3.7278953e-24
3.7331571e-24
3.731584e-24
3.7464252e-24
3.7511307e-24
3.7482982e-24
3.7478531e-24
3.7513139e-24
3.7542468e-24
3.7542468e-24
3.7513139e-24
3.7478531e-24
3.7482983e-24
3.7511308e-24
3.7464253e-24
3.7315841e-24
3.7331572e-24
3.7278954e-24
3.6841957e-24
3.7170703e-24
3.793524e-24
3.8077337e-24
3.8088612e-24
3.827616e-24
3.831124e-24
3.8268162e-24
3.8260903e-24
3.830754e-24
3.8364965e-24
3.8364965e-24
3.830754e-24
3.8260902e-24
3.8268161e-24
3.8311239e-24
3.8276158e-24
3.808861e-24
3.8077335e-24
3.7935236e-24
3.7170696e-24
3.6218888e-24
3.7364156e-24
3.7616776e-24
3.7650973e-24
3.7897321e-24
3.7921905e-24
3.7876077e-24
3.7868549e-24
3.7919183e-24
3.8001015e-24
3.8001015e-24
3.7919183e-24
3.7868548e-24
3.7876075e-24
3.7921901e-24
3.7897317e-24
3.7650968e-24
3.7616771e-24
3.7364149e-24
3.6218879e-24
3.3632769e-24
3.520053e-24
3.5590949e-24
3.563486e-24
3.5949177e-24
3.5978747e-24
3.5945788e-24
3.5942416e-24
3.6008974e-24
3.6106213e-24
3.6106213e-24
3.6008974e-24
3.5942415e-24
3.5945786e-24
3.5978743e-24
3.5949171e-24
3.5634853e-24
3.5590942e-24
3.5200522e-24
3.3632762e-24
2.9294447e-24
3.1182974e-24
3.171384e-24
3.1782072e-24
3.2153478e-24
3.2218308e-24
3.2205526e-24
3.2209077e-24
3.2301392e-24
3.2403453e-24
3.2403453e-24
3.2301391e-24
3.2209076e-24
3.2205523e-24
3.2218304e-24
3.2153472e-24
3.1782065e-24
3.1713833e-24
3.1182966e-24
2.9294442e-24
2.3852809e-24
2.578069e-24
2.6366673e-24
2.6471872e-24
2.6851178e-24
2.6922755e-24
2.6923618e-24
2.6931741e-24
2.7046034e-24
2.7141376e-24
2.7141376e-24
2.7046033e-24
2.693174e-24
2.6923615e-24
2.6922751e-24
2.6851173e-24
2.6471865e-24
2.6366666e-24
2.5780683e-24
2.3852804e-24
1.804266e-24
1.9643204e-24
2.015603e-24
2.0241759e-24
2.0561137e-24
2.0627711e-24
2.0639747e-24
2.0652543e-24
2.075426e-24
2.08324e-24
2.0832401e-24
2.075426e-24
2.0652542e-24
2.0639745e-24
2.0627708e-24
2.0561134e-24
2.0241755e-24
2.0156025e-24
1.9643201e-24
1.8042662e-24
1.3113845e-24
1.4476464e-24
1.4930813e-24
1.4977414e-24
1.5207904e-24
1.5268778e-24
1.5292045e-24
1.5311198e-24
1.5406145e-24
1.5468977e-24
1.5468978e-24
1.5406146e-24
1.5311198e-24
1.5292045e-24
1.5268778e-24
1.5207903e-24
1.4977412e-24
1.4930812e-24
1.4476464e-24
1.3113853e-24
8.4749042e-25
1.0189381e-24
1.0700519e-24
1.0741527e-24
1.0862568e-24
1.090002e-24
1.0917215e-24
1.0931977e-24
1.1009998e-24
1.105636e-24
1.105636e-24
1.1009998e-24
1.0931978e-24
1.0917217e-24
1.0900022e-24
1.0862569e-24
1.0741527e-24
1.0700519e-24
1.0189384e-24
8.4749208e-25
4.1888969e-25
6.5987281e-25
7.3480852e-25
7.4847107e-25
7.5527571e-25
7.5548749e-25
7.5468135e-25
7.5417323e-25
7.5913921e-25
7.6192512e-25
7.6192518e-25
7.5913934e-25
7.5417343e-25
7.5468161e-25
7.5548782e-25
7.552759e-25
7.4847112e-25
7.3480861e-25
6.5987338e-25
4.188915e-25
1.3936219e-25
3.7968481e-25
4.7486605e-25
5.0179697e-25
5.0975932e-25
5.0892496e-25
5.060253e-25
5.0335059e-25
5.0509703e-25
5.0601399e-25
5.0601405e-25
5.0509715e-25
5.0335078e-25
5.0602557e-25
5.0892524e-25
5.0975949e-25
5.0179706e-25
4.7486619e-25
3.7968539e-25
1.3936326e-25
3.2014223e-26
1.9134553e-25
2.856138e-25
3.2103638e-25
3.3223654e-25
3.3242229e-25
3.2907305e-25
3.2537126e-25
3.2487907e-25
3.2451493e-25
3.2451497e-25
3.2487916e-25
3.2537139e-25
3.2907324e-25
3.3242248e-25
3.3223663e-25
3.2103644e-25
2.8561395e-25
1.9134599e-25
3.2014591e-26
5.7475862e-27
8.5103776e-26
1.5957403e-25
1.9512919e-25
2.0818822e-25
2.0992872e-25
2.0729628e-25
2.0373425e-25
2.0222661e-25
2.0127683e-25
2.0127685e-25
2.0222666e-25
2.0373432e-25
2.0729638e-25
2.0992881e-25
2.0818824e-25
1.9512921e-25
1.5957412e-25
8.5104032e-26
5.7476778e-27
8.9426395e-28
3.4163507e-26
8.3231165e-26
1.1266276e-25
1.2519642e-25
1.2795486e-25
1.2640549e-25
1.2363926e-25
1.2201718e-25
1.210005e-25
1.2100051e-25
1.220172e-25
1.2363929e-25
1.2640553e-25
1.279549e-25
1.2519641e-25
1.1266275e-25
8.3231225e-26
3.4163627e-26
8.9428176e-28
1.2768812e-28
1.2699723e-26
4.0906274e-26
6.1993612e-26
7.2306489e-26
7.5278796e-26
7.464219e-26
7.2804927e-26
7.1505339e-26
7.0680529e-26
7.0680531e-26
7.1505344e-26
7.2804928e-26
7.4642194e-26
7.5278798e-26
7.2306466e-26
6.1993595e-26
4.0906307e-26
1.2699776e-26
1.2769106e-28
1.7301224e-29
4.4673509e-27
1.9142728e-26
3.2680336e-26
4.0212392e-26
4.2816744e-26
4.2743569e-26
4.167062e-26
4.0789625e-26
4.0218527e-26
4.0218525e-26
4.0789621e-26
4.1670612e-26
4.274356e-26
4.2816733e-26
4.0212372e-26
3.2680323e-26
1.9142745e-26
4.4673723e-27
1.7301664e-29
2.2691848e-30
1.5097568e-27
8.6101699e-27
1.6600327e-26
2.1613949e-26
2.3604891e-26
2.3787809e-26
2.323058e-26
2.2699112e-26
2.2344522e-26
2.234452e-26
2.2699106e-26
2.323057e-26
2.3787797e-26
2.3604878e-26
2.1613935e-26
1.6600319e-26
8.6101783e-27
1.5097651e-27
2.2692464e-30
2.9143919e-31
4.9488167e-28
3.7499038e-27
8.1689871e-27
1.1271688e-26
1.2651002e-26
1.2896906e-26
1.2640766e-26
1.2347885e-26
1.2145003e-26
1.2145001e-26
1.2347879e-26
1.2640757e-26
1.2896896e-26
1.2650992e-26
1.1271679e-26
8.1689835e-27
3.749908e-27
4.9488469e-28
2.9144745e-31
3.6885916e-32
1.5822722e-28
1.5897114e-27
3.9116285e-27
5.7235012e-27
6.6103128e-27
6.827746e-27
6.7269686e-27
6.5773577e-27
6.4685579e-27
6.4685566e-27
6.5773537e-27
6.7269626e-27
6.8277394e-27
6.6103066e-27
5.7234967e-27
3.9116273e-27
1.5897138e-27
1.5822828e-28
3.6886971e-32
4.6150433e-33
4.9504796e-29
6.5831343e-28
1.8286511e-27
2.8380326e-27
3.3756747e-27
3.5367862e-27
3.506839e-27
3.4354972e-27
3.3802063e-27
3.3802054e-27
3.4354945e-27
3.5068352e-27
3.5367821e-27
3.3756712e-27
2.8380305e-27
1.828651e-27
6.5831476e-28
4.9505162e-29
4.6151748e-33
5.7172e-34
1.5183874e-29
2.6689058e-28
8.3659109e-28
1.3772818e-27
1.6880655e-27
1.7955005e-27
1.7932052e-27
1.7614415e-27
1.7346281e-27
1.7346276e-27
1.7614398e-27
1.7932028e-27
1.7954981e-27
1.6880636e-27
1.3772809e-27
8.3659127e-28
2.6689126e-28
1.5183998e-29
5.7173557e-34
7.0941683e-35
4.5699968e-30
1.0607579e-28
3.7514458e-28
6.5520616e-28
8.2783557e-28
8.94421e-28
9.003008e-28
8.8720676e-28
8.7474892e-28
8.7474862e-28
8.8720578e-28
9.0029945e-28
8.9441967e-28
8.2783458e-28
6.5520579e-28
3.7514479e-28
1.0607612e-28
4.5700378e-30
7.0943431e-35
1.0798138e-35
1.3504465e-30
4.136577e-29
1.6505961e-28
3.0589223e-28
3.9854779e-28
4.3758802e-28
4.4411545e-28
4.392365e-28
4.3368357e-28
4.3368339e-28
4.3923595e-28
4.441147e-28
4.3758731e-28
3.985473e-28
3.058921e-28
1.6505976e-28
4.1365924e-29
1.3504599e-30
1.0785924e-35
4.0384236e-36
3.9192316e-31
1.5835161e-29
7.1306523e-29
1.4025581e-28
1.8850098e-28
2.103911e-28
2.1536254e-28
2.1382311e-28
2.1145144e-28
2.1145134e-28
2.1382281e-28
2.1536214e-28
2.1039073e-28
1.8850075e-28
1.4025577e-28
7.1306618e-29
1.5835231e-29
3.9192749e-31
4.0325986e-36
1.5977088e-36
1.1173922e-31
5.9523795e-30
3.0258488e-29
6.3190248e-29
8.7630788e-29
9.9452122e-29
1.0269739e-28
1.0237825e-28
1.0141196e-28
1.014119e-28
1.0237809e-28
1.0269718e-28
9.9451932e-29
8.7630676e-29
6.319024e-29
3.0258541e-29
5.9524104e-30
1.1174065e-31
1.5957157e-36
)
;

boundaryField
{
    Wall
    {
        type            zeroGradient;
    }
    frontAndBack
    {
        type            empty;
    }
    atmosphere
    {
        type            zeroGradient;
    }
}


// ************************************************************************* //
