/*--------------------------------*- C++ -*----------------------------------*\
| =========                 |                                                 |
| \\      /  F ield         | OpenFOAM: The Open Source CFD Toolbox           |
|  \\    /   O peration     | Version:  3.0.1                                 |
|   \\  /    A nd           | Web:      www.OpenFOAM.org                      |
|    \\/     M anipulation  |                                                 |
\*---------------------------------------------------------------------------*/
FoamFile
{
    version     2.0;
    format      ascii;
    class       volScalarField;
    location    "28";
    object      mOne;
}
// * * * * * * * * * * * * * * * * * * * * * * * * * * * * * * * * * * * * * //

dimensions      [0 0 0 0 0 0 0];

internalField   nonuniform List<scalar> 
800
(
13.867467
13.868791
13.868992
13.869004
13.868997
13.868992
13.868991
13.868992
13.868992
13.868993
13.868993
13.868992
13.868992
13.868991
13.868993
13.868997
13.869004
13.868993
13.868791
13.867467
13.601486
13.617087
13.620445
13.621025
13.620953
13.620799
13.620689
13.62063
13.620603
13.620593
13.620593
13.620603
13.62063
13.620689
13.620799
13.620953
13.621025
13.620444
13.617086
13.601485
13.329724
13.354167
13.361495
13.362905
13.362941
13.362736
13.36257
13.362476
13.362433
13.362417
13.362417
13.362433
13.362476
13.362569
13.362736
13.36294
13.362904
13.361494
13.354166
13.329723
13.083696
13.114363
13.125002
13.127046
13.127157
13.126911
13.126702
13.126584
13.126531
13.126512
13.126512
13.12653
13.126584
13.126702
13.126911
13.127156
13.127046
13.125001
13.114362
13.083694
12.882814
12.91687
12.930005
12.932695
12.932793
12.932477
12.932219
12.932076
12.932011
12.931989
12.931989
12.932011
12.932076
12.932218
12.932477
12.932792
12.932694
12.930004
12.916869
12.882812
12.734275
12.769502
12.784427
12.787838
12.787828
12.787397
12.787071
12.786893
12.786812
12.786784
12.786784
12.786812
12.786893
12.787071
12.787397
12.787827
12.787837
12.784427
12.769501
12.734273
12.634823
12.670557
12.686369
12.690518
12.690311
12.689716
12.689294
12.689063
12.688956
12.688918
12.688918
12.688956
12.689063
12.689294
12.689715
12.690311
12.690518
12.686368
12.670556
12.634822
12.574176
12.611548
12.627307
12.632142
12.631665
12.630853
12.630304
12.629998
12.629852
12.629798
12.629798
12.629852
12.629998
12.630303
12.630853
12.631665
12.632142
12.627306
12.611548
12.574175
12.53578
12.577941
12.592874
12.5983
12.597827
12.596752
12.596039
12.595636
12.595438
12.59536
12.59536
12.595438
12.595636
12.596039
12.596751
12.597826
12.5983
12.592874
12.577941
12.535779
12.498582
12.551204
12.564811
12.570723
12.570876
12.56989
12.568983
12.568461
12.568197
12.568088
12.568088
12.568196
12.56846
12.568982
12.56989
12.570875
12.570723
12.564811
12.551204
12.498582
12.438032
12.509249
12.522001
12.528309
12.530169
12.53005
12.528916
12.528257
12.527911
12.527766
12.527766
12.527911
12.528257
12.528916
12.53005
12.530168
12.528309
12.522001
12.509249
12.438032
12.326835
12.425995
12.440648
12.447204
12.452254
12.453797
12.45241
12.451598
12.451136
12.450946
12.450946
12.451136
12.451597
12.452409
12.453796
12.452254
12.447204
12.440648
12.425995
12.326835
12.135413
12.271953
12.294063
12.300223
12.309984
12.313593
12.311936
12.310952
12.311048
12.310779
12.310779
12.311048
12.310951
12.311936
12.313592
12.309983
12.300223
12.294062
12.271953
12.135413
11.830127
12.014215
12.050673
12.057091
12.072625
12.078194
12.076296
12.075162
12.076602
12.076182
12.076182
12.076601
12.075161
12.076295
12.078193
12.072624
12.05709
12.050673
12.014214
11.830125
11.404749
11.645652
11.70355
11.714143
11.735661
11.742626
11.740094
11.737634
11.740966
11.742012
11.742012
11.740966
11.737633
11.740093
11.742625
11.73566
11.714141
11.703549
11.645651
11.404747
10.873951
11.183307
11.270745
11.291184
11.318185
11.3252
11.320639
11.317723
11.323284
11.327901
11.327901
11.323283
11.317722
11.320638
11.325199
11.318184
11.291183
11.270743
11.183304
10.873949
10.144733
10.531399
10.65568
10.690763
10.726034
10.731676
10.725409
10.722633
10.729862
10.738711
10.738711
10.729861
10.722632
10.725408
10.731674
10.726032
10.690761
10.655678
10.531396
10.14473
9.179036
9.6464159
9.8151059
9.8672693
9.9155079
9.9212893
9.9155989
9.9131772
9.9214217
9.9334925
9.9334922
9.9214211
9.913176
9.9155976
9.9212877
9.9155061
9.8672672
9.8151036
9.6464136
9.1790343
7.9396408
8.4836985
8.7028061
8.7723972
8.8382708
8.8476637
8.8449756
8.8431149
8.8546244
8.8681276
8.8681274
8.8546239
8.8431138
8.8449744
8.8476623
8.8382691
8.7723953
8.7028041
8.4836968
7.9396406
6.4384686
7.0248899
7.2903834
7.3792184
7.4647874
7.482823
7.483974
7.4827792
7.4983854
7.5114452
7.511445
7.498385
7.4827784
7.4839731
7.4828219
7.4647861
7.379217
7.2903819
7.0248891
6.43847
4.8145612
5.3790769
5.6660828
5.7770821
5.8685213
5.8895055
5.8931357
5.8923018
5.9102789
5.9210903
5.9210902
5.9102787
5.8923013
5.8931351
5.8895048
5.8685204
5.7770811
5.666082
5.3790771
4.814564
3.2549387
3.7301632
4.0020264
4.1129417
4.1925807
4.2130285
4.2182973
4.2181274
4.2325053
4.2398944
4.2398944
4.2325053
4.2181273
4.2182973
4.2130285
4.1925806
4.1129415
4.0020266
3.7301648
3.2549433
2.0001809
2.4326631
2.7020982
2.8243005
2.8956227
2.9158212
2.9201182
2.9186134
2.9279114
2.9317763
2.9317764
2.9279116
2.9186137
2.9201187
2.9158218
2.895623
2.8243009
2.7020991
2.4326654
2.0001861
1.030768
1.5001075
1.7720891
1.9060762
1.9728008
1.9919784
1.9922883
1.9866587
1.9889162
1.9890636
1.9890636
1.9889164
1.9866592
1.9922889
1.9919791
1.9728013
1.9060766
1.7720899
1.5001095
1.0307725
0.41220759
0.86942714
1.1400382
1.2815084
1.3469687
1.3638207
1.3595822
1.3492367
1.3450582
1.3419942
1.3419943
1.3450584
1.3492371
1.3595827
1.3638213
1.346969
1.2815086
1.1400388
0.86942865
0.41221018
0.12601055
0.4740933
0.71735594
0.85543534
0.92005012
0.93682933
0.93078071
0.9179478
0.90955297
0.90434896
0.904349
0.90955309
0.91794798
0.93078104
0.93682967
0.92005029
0.85543548
0.71735632
0.47409432
0.12601165
0.030362214
0.24407521
0.44084042
0.56468007
0.6255793
0.64287693
0.63769428
0.62521417
0.61554705
0.60969321
0.60969321
0.61554707
0.62521421
0.63769439
0.64287705
0.62557928
0.56468009
0.44084067
0.24407586
0.030362574
0.0060910732
0.11882507
0.26437161
0.3673454
0.42137791
0.43851564
0.43531254
0.42488069
0.41591182
0.41046444
0.41046441
0.41591177
0.42488062
0.43531251
0.43851561
0.4213778
0.36734533
0.26437171
0.11882541
0.0060911702
0.0010794104
0.054884451
0.15454418
0.23486548
0.28011548
0.29607308
0.29486073
0.28704247
0.27971427
0.27520767
0.27520763
0.27971419
0.28704235
0.29486063
0.29607298
0.28011534
0.23486538
0.15454423
0.054884612
0.0010794316
0.00017652152
0.024182657
0.08799269
0.14728156
0.183267
0.19723842
0.1975178
0.1921548
0.18667579
0.18324662
0.18324658
0.1866757
0.19215467
0.19751768
0.19723831
0.18326688
0.14728147
0.087992716
0.024182737
0.00017652547
2.746496e-05
0.01023191
0.048785231
0.09045927
0.11778263
0.1293529
0.13051719
0.12712333
0.12329984
0.12085384
0.1208538
0.12329975
0.12712321
0.13051707
0.12935279
0.11778254
0.09045921
0.048785247
0.010231949
2.7465631e-05
4.1447417e-06
0.0041827722
0.026346067
0.054372
0.074265711
0.083383388
0.084918417
0.082940825
0.080422609
0.078768109
0.078768077
0.080422534
0.082940725
0.08491832
0.083383304
0.074265648
0.054371968
0.026346081
0.0041827911
4.1448481e-06
6.1356562e-07
0.0016599997
0.01386835
0.031970529
0.045907437
0.052779403
0.05433137
0.053285574
0.051710391
0.050641147
0.050641122
0.051710332
0.053285495
0.054331296
0.052779344
0.045907399
0.031970516
0.013868361
0.0016600082
6.1358185e-07
8.9647211e-08
0.00064175879
0.0071216617
0.018388695
0.027809923
0.032784265
0.034153833
0.033671758
0.032733151
0.032069693
0.032069675
0.032733107
0.0336717
0.034153779
0.032784226
0.027809902
0.018388693
0.0071216714
0.00064176253
8.9649579e-08
1.296832e-08
0.00024224916
0.0035707415
0.010347739
0.016507619
0.019977491
0.021082971
0.020912364
0.020379373
0.019982867
0.019982854
0.020379341
0.020912322
0.021082934
0.019977466
0.016507609
0.010347742
0.0035707488
0.00024225078
1.2968665e-08
1.8661918e-09
8.9422847e-05
0.0017494619
0.0056984729
0.0096019622
0.011940937
0.012775997
0.012758688
0.012470933
0.01224226
0.012242251
0.01247091
0.012758659
0.012775972
0.011940921
0.0096019579
0.0056984767
0.0017494666
8.9423526e-05
1.866235e-09
2.8632527e-10
3.2313052e-05
0.0008381712
0.0030721908
0.0054739475
0.0070011296
0.007599281
0.0076445322
0.0074977191
0.0073703439
0.0073703377
0.0074977039
0.0076445127
0.0075992649
0.0070011203
0.0054739461
0.0030721943
0.00083817405
3.2313329e-05
2.8633501e-10
8.2289325e-11
1.1438409e-05
0.00039293519
0.001622142
0.0030592367
0.0040270224
0.0044367569
0.004497644
0.0044277353
0.004359215
0.0043592109
0.0044277253
0.0044976313
0.0044367467
0.0040270169
0.0030592364
0.0016221446
0.00039293681
1.143852e-05
8.2160779e-11
5.8214464e-11
3.9690158e-06
0.00018034982
0.00083919009
0.0016765778
0.0022728446
0.0025428224
0.0025984195
0.0025681538
0.0025325994
0.0025325968
0.0025681474
0.0025984114
0.0025428161
0.0022728415
0.0016765779
0.00083919187
0.00018035071
3.9690602e-06
5.8157986e-11
2.8483126e-11
1.3509044e-06
8.1084969e-05
0.0004255415
0.00090129988
0.0012590059
0.0014308513
0.0014742251
0.0014630553
0.0014453068
0.0014453051
0.0014630514
0.0014742201
0.0014308475
0.0012590041
0.00090130014
0.00042554263
8.108544e-05
1.3509229e-06
2.8471664e-11
)
;

boundaryField
{
    Wall
    {
        type            zeroGradient;
    }
    frontAndBack
    {
        type            empty;
    }
    atmosphere
    {
        type            zeroGradient;
    }
}


// ************************************************************************* //
