/*--------------------------------*- C++ -*----------------------------------*\
| =========                 |                                                 |
| \\      /  F ield         | OpenFOAM: The Open Source CFD Toolbox           |
|  \\    /   O peration     | Version:  3.0.1                                 |
|   \\  /    A nd           | Web:      www.OpenFOAM.org                      |
|    \\/     M anipulation  |                                                 |
\*---------------------------------------------------------------------------*/
FoamFile
{
    version     2.0;
    format      ascii;
    class       volScalarField;
    location    "28";
    object      mThree;
}
// * * * * * * * * * * * * * * * * * * * * * * * * * * * * * * * * * * * * * //

dimensions      [0 0 0 0 0 0 0];

internalField   nonuniform List<scalar> 
800
(
2.6420717e-23
2.6428378e-23
2.6429551e-23
2.6429624e-23
2.6429589e-23
2.6429565e-23
2.6429561e-23
2.6429565e-23
2.642957e-23
2.6429572e-23
2.6429573e-23
2.642957e-23
2.6429565e-23
2.6429561e-23
2.6429566e-23
2.642959e-23
2.6429625e-23
2.6429552e-23
2.6428379e-23
2.6420718e-23
2.4939053e-23
2.5024687e-23
2.5043182e-23
2.504639e-23
2.5045998e-23
2.5045154e-23
2.5044548e-23
2.5044222e-23
2.5044074e-23
2.504402e-23
2.5044021e-23
2.5044074e-23
2.5044221e-23
2.5044548e-23
2.5045154e-23
2.5045997e-23
2.5046389e-23
2.504318e-23
2.5024684e-23
2.4939048e-23
2.3913725e-23
2.4034252e-23
2.4069478e-23
2.4075856e-23
2.4075862e-23
2.4074866e-23
2.4074116e-23
2.407373e-23
2.4073573e-23
2.4073525e-23
2.4073525e-23
2.4073573e-23
2.4073729e-23
2.4074115e-23
2.4074865e-23
2.407586e-23
2.4075854e-23
2.4069475e-23
2.4034248e-23
2.3913718e-23
2.3396945e-23
2.3530229e-23
2.3576804e-23
2.3584905e-23
2.3585059e-23
2.358403e-23
2.3583304e-23
2.3582991e-23
2.3582907e-23
2.3582903e-23
2.3582903e-23
2.3582907e-23
2.358299e-23
2.3583304e-23
2.3584029e-23
2.3585057e-23
2.3584903e-23
2.3576801e-23
2.3530225e-23
2.3396938e-23
2.3421203e-23
2.3546151e-23
2.3599264e-23
2.3609154e-23
2.3609039e-23
2.3607911e-23
2.3607253e-23
2.3607068e-23
2.36071e-23
2.3607162e-23
2.3607162e-23
2.36071e-23
2.3607068e-23
2.3607253e-23
2.360791e-23
2.3609038e-23
2.3609154e-23
2.3599263e-23
2.3546149e-23
2.3421199e-23
2.4001145e-23
2.4099006e-23
2.4154597e-23
2.4166897e-23
2.4166059e-23
2.4164676e-23
2.4164057e-23
2.4164007e-23
2.4164166e-23
2.4164302e-23
2.4164303e-23
2.4164166e-23
2.4164007e-23
2.4164058e-23
2.4164676e-23
2.4166059e-23
2.4166898e-23
2.4154597e-23
2.4099006e-23
2.4001143e-23
2.5139742e-23
2.5197397e-23
2.5249735e-23
2.5264946e-23
2.5262937e-23
2.5261085e-23
2.5260417e-23
2.5260461e-23
2.5260732e-23
2.5260936e-23
2.5260937e-23
2.5260733e-23
2.5260462e-23
2.5260419e-23
2.5261087e-23
2.5262939e-23
2.5264949e-23
2.5249738e-23
2.51974e-23
2.5139744e-23
2.68205e-23
2.6832073e-23
2.6873528e-23
2.6891744e-23
2.6888186e-23
2.6885596e-23
2.6884719e-23
2.6884754e-23
2.6885087e-23
2.6885334e-23
2.6885334e-23
2.6885088e-23
2.6884756e-23
2.6884721e-23
2.6885599e-23
2.688819e-23
2.6891749e-23
2.6873533e-23
2.6832078e-23
2.6820504e-23
2.9003468e-23
2.8973859e-23
2.8994826e-23
2.9015601e-23
2.9012722e-23
2.9009061e-23
2.9007684e-23
2.9007522e-23
2.900782e-23
2.9008064e-23
2.9008065e-23
2.9007821e-23
2.9007524e-23
2.9007688e-23
2.9009065e-23
2.9012727e-23
2.9015608e-23
2.8994833e-23
2.8973866e-23
2.9003475e-23
3.1611436e-23
3.1566079e-23
3.1555077e-23
3.1577439e-23
3.158073e-23
3.1578971e-23
3.1576588e-23
3.1575918e-23
3.1576031e-23
3.1576199e-23
3.15762e-23
3.1576033e-23
3.1575921e-23
3.1576592e-23
3.1578977e-23
3.1580736e-23
3.1577446e-23
3.1555085e-23
3.1566087e-23
3.1611444e-23
3.451644e-23
3.4507783e-23
3.4457813e-23
3.4480236e-23
3.4500333e-23
3.4507548e-23
3.4503352e-23
3.4501697e-23
3.4501402e-23
3.4501386e-23
3.4501386e-23
3.4501404e-23
3.45017e-23
3.4503356e-23
3.4507554e-23
3.4500339e-23
3.4480244e-23
3.4457822e-23
3.4507792e-23
3.4516448e-23
3.7530057e-23
3.7632949e-23
3.7556787e-23
3.7576381e-23
3.7629005e-23
3.7653148e-23
3.7646004e-23
3.7642652e-23
3.7641601e-23
3.7641227e-23
3.7641228e-23
3.7641602e-23
3.7642654e-23
3.7646008e-23
3.7653154e-23
3.7629011e-23
3.7576389e-23
3.7556796e-23
3.7632958e-23
3.7530065e-23
4.0394902e-23
4.0699933e-23
4.0642035e-23
4.0649424e-23
4.0751626e-23
4.0797468e-23
4.0785945e-23
4.0779685e-23
4.0784869e-23
4.0783599e-23
4.07836e-23
4.078487e-23
4.0779686e-23
4.0785948e-23
4.0797472e-23
4.075163e-23
4.064943e-23
4.0642042e-23
4.0699941e-23
4.0394908e-23
4.2756373e-23
4.3379315e-23
4.3407607e-23
4.3405209e-23
4.3569789e-23
4.3636905e-23
4.361957e-23
4.3609141e-23
4.3627998e-23
4.3625022e-23
4.3625023e-23
4.3627998e-23
4.3609141e-23
4.3619571e-23
4.3636908e-23
4.3569792e-23
4.3405213e-23
4.3407612e-23
4.337932e-23
4.2756375e-23
4.4066809e-23
4.5148904e-23
4.5331105e-23
4.5334536e-23
4.5564039e-23
4.5647013e-23
4.561942e-23
4.5606444e-23
4.5644493e-23
4.5657434e-23
4.5657434e-23
4.5644492e-23
4.5606442e-23
4.5619418e-23
4.5647012e-23
4.5564038e-23
4.5334537e-23
4.5331105e-23
4.5148904e-23
4.4066804e-23
4.3745963e-23
4.5418092e-23
4.5808618e-23
4.5865587e-23
4.614916e-23
4.6233437e-23
4.6181429e-23
4.6165017e-23
4.6228505e-23
4.6281985e-23
4.6281984e-23
4.6228503e-23
4.6165013e-23
4.6181425e-23
4.6233433e-23
4.6149155e-23
4.5865582e-23
4.5808613e-23
4.5418084e-23
4.3745951e-23
4.1425756e-23
4.3744638e-23
4.4381725e-23
4.4528493e-23
4.4882753e-23
4.4945504e-23
4.4870985e-23
4.4851852e-23
4.4934216e-23
4.5035523e-23
4.5035522e-23
4.4934212e-23
4.4851847e-23
4.4870978e-23
4.4945497e-23
4.4882744e-23
4.4528483e-23
4.4381714e-23
4.3744625e-23
4.1425739e-23
3.6867336e-23
3.9779434e-23
4.0682942e-23
4.0916326e-23
4.1366851e-23
4.1415609e-23
4.1344007e-23
4.1326619e-23
4.1413139e-23
4.1548381e-23
4.154838e-23
4.1413136e-23
4.1326613e-23
4.1343999e-23
4.14156e-23
4.1366839e-23
4.0916313e-23
4.0682928e-23
3.9779418e-23
3.6867322e-23
3.0066487e-23
3.3383121e-23
3.4533208e-23
3.48238e-23
3.5367773e-23
3.543066e-23
3.5388541e-23
3.5378533e-23
3.5485492e-23
3.5630071e-23
3.5630071e-23
3.5485489e-23
3.5378528e-23
3.5388534e-23
3.5430651e-23
3.5367762e-23
3.4823787e-23
3.4533194e-23
3.3383108e-23
3.006648e-23
2.1790583e-23
2.5023993e-23
2.6291989e-23
2.6630892e-23
2.7217235e-23
2.733022e-23
2.7323084e-23
2.7322249e-23
2.7450968e-23
2.7580021e-23
2.7580021e-23
2.7450966e-23
2.7322246e-23
2.732308e-23
2.7330214e-23
2.7217226e-23
2.6630882e-23
2.6291979e-23
2.5023984e-23
2.1790583e-23
1.3869361e-23
1.6445701e-23
1.7576242e-23
1.7940205e-23
1.8442789e-23
1.8548447e-23
1.8558815e-23
1.8562169e-23
1.8689564e-23
1.8784791e-23
1.8784791e-23
1.8689563e-23
1.8562167e-23
1.8558812e-23
1.8548442e-23
1.8442783e-23
1.7940198e-23
1.7576236e-23
1.6445696e-23
1.3869366e-23
7.6770413e-24
9.2915561e-24
1.0082099e-23
1.0349494e-23
1.0676536e-23
1.0753285e-23
1.0770434e-23
1.077676e-23
1.0859678e-23
1.0915958e-23
1.0915958e-23
1.0859677e-23
1.0776759e-23
1.0770433e-23
1.0753283e-23
1.0676534e-23
1.0349491e-23
1.0082097e-23
9.2915576e-24
7.6770501e-24
3.9343907e-24
4.9692823e-24
5.5275337e-24
5.7278131e-24
5.9244257e-24
5.9789805e-24
5.9946626e-24
5.9998666e-24
6.0513973e-24
6.0820559e-24
6.0820561e-24
6.0513977e-24
5.9998672e-24
5.9946632e-24
5.9789812e-24
5.9244258e-24
5.7278131e-24
5.5275345e-24
4.9692859e-24
3.9344001e-24
1.7210565e-24
2.5474547e-24
2.9662793e-24
3.1215697e-24
3.2292252e-24
3.2612625e-24
3.2667455e-24
3.2650083e-24
3.290796e-24
3.3048162e-24
3.3048164e-24
3.2907965e-24
3.2650093e-24
3.2667468e-24
3.2612638e-24
3.229226e-24
3.1215701e-24
2.9662801e-24
2.5474575e-24
1.7210636e-24
5.915592e-25
1.2335841e-24
1.5725183e-24
1.707643e-24
1.7726084e-24
1.785837e-24
1.7807327e-24
1.7717315e-24
1.7802256e-24
1.7844242e-24
1.7844244e-24
1.7802261e-24
1.7717322e-24
1.7807337e-24
1.7858382e-24
1.7726092e-24
1.7076433e-24
1.5725189e-24
1.2335862e-24
5.9156284e-25
1.569233e-25
5.5969083e-25
8.1551403e-25
9.3105184e-25
9.7876343e-25
9.8570078e-25
9.770239e-25
9.6540016e-25
9.6450953e-25
9.6362722e-25
9.6362735e-25
9.6450982e-25
9.6540061e-25
9.7702457e-25
9.857015e-25
9.7876386e-25
9.3105206e-25
8.1551446e-25
5.5969208e-25
1.5692465e-25
3.2986245e-26
2.3804823e-25
4.1152391e-25
5.0231923e-25
5.4007684e-25
5.4612892e-25
5.3892106e-25
5.2879798e-25
5.2485743e-25
5.2236948e-25
5.2236954e-25
5.2485758e-25
5.2879821e-25
5.389214e-25
5.4612926e-25
5.4007699e-25
5.0231933e-25
4.115242e-25
2.3804893e-25
3.2986636e-26
5.7825951e-27
9.5216238e-26
2.0176087e-25
2.6680901e-25
2.9591413e-25
3.0198574e-25
2.9753495e-25
2.90297e-25
2.8633504e-25
2.8389381e-25
2.8389383e-25
2.863351e-25
2.9029709e-25
2.9753509e-25
3.0198588e-25
2.9591414e-25
2.6680901e-25
2.01761e-25
9.5216553e-26
5.7826879e-27
8.9522923e-28
3.6038553e-26
9.6094057e-26
1.3912335e-25
1.6026588e-25
1.6583885e-25
1.6367751e-25
1.5912898e-25
1.5614713e-25
1.5430076e-25
1.5430077e-25
1.5614715e-25
1.59129e-25
1.6367755e-25
1.6583889e-25
1.6026585e-25
1.3912333e-25
9.6094131e-26
3.6038684e-26
8.9524708e-28
1.2771066e-28
1.3006836e-26
4.4505727e-26
7.1124128e-26
8.5557883e-26
9.0126667e-26
8.9385351e-26
8.6794744e-26
8.4853654e-26
8.3632498e-26
8.3632497e-26
8.4853654e-26
8.6794735e-26
8.9385347e-26
9.012666e-26
8.5557846e-26
7.1124104e-26
4.4505764e-26
1.3006891e-26
1.277136e-28
1.7301699e-29
4.5130604e-27
2.0076611e-26
3.5636575e-26
4.4948713e-26
4.8355214e-26
4.832234e-26
4.6967928e-26
4.5818979e-26
4.507909e-26
4.5079087e-26
4.5818971e-26
4.6967914e-26
4.8322324e-26
4.8355197e-26
4.4948687e-26
3.5636559e-26
2.0076628e-26
4.5130823e-27
1.7302139e-29
2.2691942e-30
1.5160717e-27
8.837014e-27
1.750292e-26
2.3219124e-26
2.5573147e-26
2.5807832e-26
2.5157343e-26
2.4524634e-26
2.4104558e-26
2.4104555e-26
2.4524626e-26
2.515733e-26
2.5807817e-26
2.5573131e-26
2.3219107e-26
1.7502911e-26
8.8370227e-27
1.5160801e-27
2.2692558e-30
2.9143937e-31
4.9570317e-28
3.8019088e-27
8.430154e-27
1.1789142e-26
1.3318714e-26
1.3597612e-26
1.3314336e-26
1.2986399e-26
1.276004e-26
1.2760038e-26
1.2986392e-26
1.3314326e-26
1.3597601e-26
1.3318703e-26
1.1789132e-26
8.4301501e-27
3.801913e-27
4.9570621e-28
2.9144763e-31
3.6885919e-32
1.5832876e-28
1.6010328e-27
3.9835582e-27
5.8826713e-27
6.827027e-27
7.0609397e-27
6.9534775e-27
6.7926554e-27
6.6760026e-27
6.6760011e-27
6.792651e-27
6.9534709e-27
7.0609325e-27
6.8270204e-27
5.8826665e-27
3.983557e-27
1.6010352e-27
1.5832982e-28
3.6886975e-32
4.6150434e-33
4.9516788e-29
6.606641e-28
1.8475735e-27
2.8848818e-27
3.4431122e-27
3.6113522e-27
3.5801753e-27
3.5055105e-27
3.4477525e-27
3.4477516e-27
3.5055076e-27
3.5801712e-27
3.6113478e-27
3.4431085e-27
2.8848796e-27
1.8475734e-27
6.6066543e-28
4.9517155e-29
4.6151748e-33
5.7172e-34
1.5185232e-29
2.6735749e-28
8.4135838e-28
1.3905065e-27
1.7082226e-27
1.8184398e-27
1.8160841e-27
1.7834083e-27
1.7558639e-27
1.7558633e-27
1.7834066e-27
1.8160817e-27
1.8184373e-27
1.7082206e-27
1.3905055e-27
8.4135857e-28
2.6735817e-28
1.5185356e-29
5.7173557e-34
7.0941684e-35
4.5701445e-30
1.061647e-28
3.7629709e-28
6.5879272e-28
8.3363135e-28
9.0121796e-28
9.0718318e-28
8.9385879e-28
8.8119613e-28
8.8119581e-28
8.9385779e-28
9.071818e-28
9.012166e-28
8.3363035e-28
6.5879235e-28
3.7629731e-28
1.0616503e-28
4.5701854e-30
7.0943431e-35
1.0798138e-35
1.350462e-30
4.1382024e-29
1.6532736e-28
3.0682803e-28
4.0015275e-28
4.3952949e-28
4.4611293e-28
4.4118133e-28
4.3557409e-28
4.3557391e-28
4.4118076e-28
4.4611216e-28
4.3952877e-28
4.0015226e-28
3.068279e-28
1.6532751e-28
4.1382178e-29
1.3504753e-30
1.0785924e-35
4.0384236e-36
3.9192471e-31
1.5838017e-29
7.1366362e-29
1.4049096e-28
1.8892942e-28
2.1092609e-28
2.1592214e-28
2.1437224e-28
2.1198696e-28
2.1198686e-28
2.1437194e-28
2.1592174e-28
2.1092571e-28
1.8892918e-28
1.4049092e-28
7.1366457e-29
1.5838087e-29
3.9192905e-31
4.0325986e-36
1.5977088e-36
1.1173938e-31
5.9528622e-30
3.0271364e-29
6.3247202e-29
8.7741116e-29
9.9594423e-29
1.0284879e-28
1.0252804e-28
1.0155853e-28
1.0155847e-28
1.0252788e-28
1.0284858e-28
9.9594233e-29
8.7741003e-29
6.3247194e-29
3.0271417e-29
5.952893e-30
1.117408e-31
1.5957157e-36
)
;

boundaryField
{
    Wall
    {
        type            zeroGradient;
    }
    frontAndBack
    {
        type            empty;
    }
    atmosphere
    {
        type            zeroGradient;
    }
}


// ************************************************************************* //
