/*--------------------------------*- C++ -*----------------------------------*\
| =========                 |                                                 |
| \\      /  F ield         | OpenFOAM: The Open Source CFD Toolbox           |
|  \\    /   O peration     | Version:  3.0.1                                 |
|   \\  /    A nd           | Web:      www.OpenFOAM.org                      |
|    \\/     M anipulation  |                                                 |
\*---------------------------------------------------------------------------*/
FoamFile
{
    version     2.0;
    format      ascii;
    class       volScalarField;
    location    "28";
    object      mTwo;
}
// * * * * * * * * * * * * * * * * * * * * * * * * * * * * * * * * * * * * * //

dimensions      [0 0 0 0 0 0 0];

internalField   nonuniform List<scalar> 
800
(
1.9211396e-11
1.9215064e-11
1.9215622e-11
1.9215655e-11
1.9215635e-11
1.9215622e-11
1.9215618e-11
1.9215619e-11
1.9215621e-11
1.9215622e-11
1.9215622e-11
1.9215621e-11
1.9215619e-11
1.9215619e-11
1.9215622e-11
1.9215636e-11
1.9215655e-11
1.9215623e-11
1.9215064e-11
1.9211397e-11
1.8485681e-11
1.852776e-11
1.8536843e-11
1.8538415e-11
1.8538217e-11
1.8537798e-11
1.8537497e-11
1.8537334e-11
1.853726e-11
1.8537233e-11
1.8537233e-11
1.853726e-11
1.8537334e-11
1.8537497e-11
1.8537798e-11
1.8538216e-11
1.8538414e-11
1.8536842e-11
1.8527759e-11
1.8485678e-11
1.7919262e-11
1.7980514e-11
1.7998512e-11
1.8001831e-11
1.8001853e-11
1.8001341e-11
1.8000946e-11
1.8000736e-11
1.8000647e-11
1.8000618e-11
1.8000618e-11
1.8000647e-11
1.8000736e-11
1.8000945e-11
1.800134e-11
1.8001852e-11
1.800183e-11
1.7998511e-11
1.7980512e-11
1.7919258e-11
1.7558271e-11
1.7628543e-11
1.765298e-11
1.7657369e-11
1.7657497e-11
1.7656943e-11
1.7656528e-11
1.7656329e-11
1.765626e-11
1.7656245e-11
1.7656245e-11
1.765626e-11
1.7656329e-11
1.7656528e-11
1.7656943e-11
1.7657496e-11
1.7657368e-11
1.7652978e-11
1.7628541e-11
1.7558267e-11
1.7428724e-11
1.749801e-11
1.7526462e-11
1.7531928e-11
1.7531948e-11
1.7531312e-11
1.753089e-11
1.7530721e-11
1.7530687e-11
1.7530693e-11
1.7530693e-11
1.7530686e-11
1.7530721e-11
1.7530889e-11
1.7531311e-11
1.7531947e-11
1.7531927e-11
1.7526461e-11
1.7498008e-11
1.7428721e-11
1.7536623e-11
1.7596548e-11
1.7626966e-11
1.7633752e-11
1.7633436e-11
1.7632632e-11
1.7632178e-11
1.7632034e-11
1.7632033e-11
1.7632062e-11
1.7632062e-11
1.7632033e-11
1.7632033e-11
1.7632178e-11
1.7632632e-11
1.7633436e-11
1.7633752e-11
1.7626966e-11
1.7596548e-11
1.7536621e-11
1.7871407e-11
1.7917236e-11
1.7946927e-11
1.7955178e-11
1.7954316e-11
1.7953234e-11
1.7952695e-11
1.7952544e-11
1.7952562e-11
1.7952606e-11
1.7952606e-11
1.7952562e-11
1.7952544e-11
1.7952695e-11
1.7953234e-11
1.7954316e-11
1.7955178e-11
1.7946928e-11
1.7917237e-11
1.7871407e-11
1.8408185e-11
1.8439557e-11
1.8465315e-11
1.8474981e-11
1.8473408e-11
1.8471923e-11
1.8471217e-11
1.8471003e-11
1.8471009e-11
1.8471052e-11
1.8471052e-11
1.8471009e-11
1.8471003e-11
1.8471218e-11
1.8471924e-11
1.8473409e-11
1.8474982e-11
1.8465316e-11
1.8439559e-11
1.8408186e-11
1.9107621e-11
1.9129768e-11
1.9148158e-11
1.9158992e-11
1.9157634e-11
1.9155609e-11
1.9154614e-11
1.9154254e-11
1.9154202e-11
1.9154222e-11
1.9154223e-11
1.9154202e-11
1.9154255e-11
1.9154615e-11
1.9155611e-11
1.9157635e-11
1.9158994e-11
1.914816e-11
1.912977e-11
1.9107623e-11
1.9915203e-11
1.9941897e-11
1.9949499e-11
1.9961115e-11
1.9962108e-11
1.9960719e-11
1.9959255e-11
1.9958635e-11
1.9958464e-11
1.9958432e-11
1.9958432e-11
1.9958464e-11
1.9958636e-11
1.9959257e-11
1.9960721e-11
1.996211e-11
1.9961117e-11
1.9949502e-11
1.9941899e-11
1.9915205e-11
2.0760183e-11
2.081493e-11
2.0810842e-11
2.0822749e-11
2.0829978e-11
2.0831873e-11
2.0829689e-11
2.0828657e-11
2.0828288e-11
2.0828165e-11
2.0828165e-11
2.0828288e-11
2.0828657e-11
2.082969e-11
2.0831875e-11
2.082998e-11
2.0822751e-11
2.0810845e-11
2.0814933e-11
2.0760185e-11
2.1555383e-11
2.1668303e-11
2.1659416e-11
2.1670749e-11
2.1689649e-11
2.1697618e-11
2.1694397e-11
2.1692752e-11
2.1692062e-11
2.1691795e-11
2.1691795e-11
2.1692063e-11
2.1692753e-11
2.1694398e-11
2.1697619e-11
2.1689651e-11
2.1670751e-11
2.1659419e-11
2.1668305e-11
2.1555385e-11
2.2196983e-11
2.2401444e-11
2.2405595e-11
2.2413385e-11
2.2449555e-11
2.2465064e-11
2.2460452e-11
2.2457876e-11
2.2459335e-11
2.2458753e-11
2.2458754e-11
2.2459335e-11
2.2457876e-11
2.2460452e-11
2.2465065e-11
2.2449556e-11
2.2413386e-11
2.2405596e-11
2.2401446e-11
2.2196984e-11
2.2556962e-11
2.2892357e-11
2.2934098e-11
2.2939796e-11
2.2997126e-11
2.301976e-11
2.3013479e-11
2.3009715e-11
2.3015955e-11
2.3014794e-11
2.3014794e-11
2.3015955e-11
2.3009714e-11
2.3013479e-11
2.301976e-11
2.2997126e-11
2.2939797e-11
2.2934098e-11
2.2892357e-11
2.2556962e-11
2.2466327e-11
2.2977389e-11
2.307996e-11
2.3089936e-11
2.316884e-11
2.3196582e-11
2.3187277e-11
2.3182904e-11
2.319588e-11
2.3200141e-11
2.3200141e-11
2.319588e-11
2.3182903e-11
2.3187275e-11
2.3196581e-11
2.3168839e-11
2.3089935e-11
2.3079959e-11
2.2977387e-11
2.2466324e-11
2.1780435e-11
2.2507446e-11
2.2690478e-11
2.2722852e-11
2.2819867e-11
2.284784e-11
2.283088e-11
2.2825248e-11
2.2846951e-11
2.2864858e-11
2.2864858e-11
2.284695e-11
2.2825246e-11
2.2830878e-11
2.2847837e-11
2.2819864e-11
2.2722849e-11
2.2690474e-11
2.2507441e-11
2.1780429e-11
2.0401521e-11
2.1364256e-11
2.1643265e-11
2.1711656e-11
2.1833561e-11
2.1854852e-11
2.1831144e-11
2.1824743e-11
2.1852999e-11
2.1886998e-11
2.1886998e-11
2.1852997e-11
2.182474e-11
2.1831141e-11
2.1854848e-11
2.1833557e-11
2.1711651e-11
2.164326e-11
2.136425e-11
2.0401514e-11
1.8233099e-11
1.9422166e-11
1.9808897e-11
1.9914117e-11
2.0072218e-11
2.0090374e-11
2.0068455e-11
2.0062742e-11
2.009358e-11
2.0139364e-11
2.0139364e-11
2.0093578e-11
2.006274e-11
2.0068451e-11
2.009037e-11
2.0072213e-11
1.9914112e-11
1.9808891e-11
1.942216e-11
1.8233093e-11
1.5228333e-11
1.6595747e-11
1.7090899e-11
1.7224696e-11
1.742394e-11
1.7449418e-11
1.7438169e-11
1.7434952e-11
1.7475021e-11
1.7524977e-11
1.7524977e-11
1.747502e-11
1.7434949e-11
1.7438166e-11
1.7449414e-11
1.7423936e-11
1.722469e-11
1.7090894e-11
1.6595742e-11
1.522833e-11
1.1582149e-11
1.2972145e-11
1.3538642e-11
1.3699212e-11
1.3929647e-11
1.3976436e-11
1.3977925e-11
1.3977921e-11
1.4028588e-11
1.4074868e-11
1.4074868e-11
1.4028587e-11
1.3977919e-11
1.3977922e-11
1.3976433e-11
1.3929644e-11
1.3699208e-11
1.3538637e-11
1.2972142e-11
1.158215e-11
7.9104081e-12
9.1052349e-12
9.6504214e-12
9.8341527e-12
1.0048345e-11
1.0095762e-11
1.0103977e-11
1.0105651e-11
1.0159067e-11
1.0195131e-11
1.0195131e-11
1.0159067e-11
1.010565e-11
1.0103976e-11
1.009576e-11
1.0048343e-11
9.8341498e-12
9.6504186e-12
9.1052336e-12
7.9104114e-12
4.7920661e-12
5.6343661e-12
6.0658988e-12
6.2190531e-12
6.3742651e-12
6.413036e-12
6.4241603e-12
6.4273382e-12
6.4656472e-12
6.4885953e-12
6.4885952e-12
6.4656472e-12
6.427338e-12
6.42416e-12
6.4130355e-12
6.3742643e-12
6.2190521e-12
6.0658983e-12
5.6343676e-12
4.7920721e-12
2.6712719e-12
3.2981987e-12
3.6518387e-12
3.7884843e-12
3.8953987e-12
3.9260778e-12
3.9355124e-12
3.9375071e-12
3.9626512e-12
3.9756788e-12
3.975679e-12
3.9626515e-12
3.9375075e-12
3.935513e-12
3.9260784e-12
3.895399e-12
3.7884846e-12
3.6518395e-12
3.2982015e-12
2.6712785e-12
1.2631679e-12
1.8430963e-12
2.1501185e-12
2.2770982e-12
2.3490795e-12
2.36988e-12
2.3724481e-12
2.3693819e-12
2.3813629e-12
2.3867964e-12
2.3867966e-12
2.3813633e-12
2.3693826e-12
2.372449e-12
2.369881e-12
2.3490801e-12
2.2770986e-12
2.1501193e-12
1.8430985e-12
1.2631732e-12
4.6723467e-13
9.7157182e-13
1.2484102e-12
1.3719763e-12
1.4270506e-12
1.4385658e-12
1.4338795e-12
1.4252382e-12
1.4271292e-12
1.4273628e-12
1.4273629e-12
1.4271296e-12
1.4252387e-12
1.4338802e-12
1.4385666e-12
1.427051e-12
1.3719765e-12
1.2484107e-12
9.7157349e-13
4.6723757e-13
1.3296828e-13
4.8119283e-13
7.0986302e-13
8.2378468e-13
8.7180189e-13
8.8053517e-13
8.7315154e-13
8.6205348e-13
8.5799755e-13
8.5524384e-13
8.5524392e-13
8.5799776e-13
8.620538e-13
8.7315202e-13
8.8053566e-13
8.7180216e-13
8.2378484e-13
7.098634e-13
4.8119389e-13
1.3296944e-13
2.9959879e-14
2.2443391e-13
3.9394866e-13
4.900888e-13
5.3236986e-13
5.4111592e-13
5.3476756e-13
5.2449103e-13
5.1856249e-13
5.1491034e-13
5.1491038e-13
5.1856258e-13
5.2449118e-13
5.3476779e-13
5.4111614e-13
5.3236992e-13
4.9008886e-13
3.9394891e-13
2.2443455e-13
2.9960234e-14
5.6350167e-15
9.8884719e-14
2.1322944e-13
2.8771823e-13
3.2313355e-13
3.3204047e-13
3.2796173e-13
3.199938e-13
3.1443219e-13
3.1105024e-13
3.1105025e-13
3.1443222e-13
3.1999383e-13
3.279618e-13
3.3204053e-13
3.231335e-13
2.877182e-13
2.1322955e-13
9.8885022e-14
5.6351067e-15
9.3766628e-16
4.1375964e-14
1.1254969e-13
1.6627206e-13
1.9416362e-13
2.0251742e-13
2.0052702e-13
1.9504482e-13
1.9070493e-13
1.8804802e-13
1.8804802e-13
1.9070492e-13
1.9504479e-13
2.0052701e-13
2.025174e-13
1.9416354e-13
1.66272e-13
1.1254975e-13
4.13761e-14
9.376848e-16
1.440991e-16
1.6555559e-14
5.7963362e-14
9.4455303e-14
1.1519051e-13
1.2236227e-13
1.2180366e-13
1.1836527e-13
1.1533209e-13
1.1344581e-13
1.134458e-13
1.1533206e-13
1.1836523e-13
1.2180362e-13
1.2236222e-13
1.1519044e-13
9.4455249e-14
5.796339e-14
1.655562e-14
1.4410236e-16
2.1079778e-17
6.3826103e-15
2.9152282e-14
5.2708338e-14
6.7358352e-14
7.3067733e-14
7.3298458e-14
7.1310981e-14
6.9350559e-14
6.8104294e-14
6.8104281e-14
6.935053e-14
7.1310935e-14
7.3298408e-14
7.3067682e-14
6.7358298e-14
5.2708302e-14
2.9152296e-14
6.3826374e-15
2.1080303e-17
2.9924374e-18
2.3865811e-15
1.4334855e-14
2.8883975e-14
3.8782924e-14
4.305303e-14
4.3611145e-14
4.2552821e-14
4.1361853e-14
4.0583167e-14
4.0583156e-14
4.1361827e-14
4.2552784e-14
4.3611104e-14
4.305299e-14
3.8782889e-14
2.8883955e-14
1.4334863e-14
2.3865928e-15
2.9925163e-18
4.1697236e-19
8.6984893e-16
6.8993489e-15
1.5543246e-14
2.1973293e-14
2.5004617e-14
2.5617376e-14
2.5105436e-14
2.4419435e-14
2.3954842e-14
2.3954834e-14
2.4419415e-14
2.5105408e-14
2.5617346e-14
2.5004589e-14
2.1973272e-14
1.5543237e-14
6.8993544e-15
8.6985365e-16
4.1698373e-19
5.7393665e-20
3.1009096e-16
3.2534958e-15
8.2142793e-15
1.2246182e-14
1.4304431e-14
1.4840717e-14
1.4624868e-14
1.4248707e-14
1.3982419e-14
1.3982413e-14
1.4248693e-14
1.4624848e-14
1.4840697e-14
1.4304414e-14
1.2246171e-14
8.2142763e-15
3.2534999e-15
3.1009283e-16
5.7395234e-20
7.8288992e-21
1.0836051e-16
1.5044232e-15
4.2638266e-15
6.7123676e-15
8.0567133e-15
8.4730766e-15
8.4036798e-15
8.2072318e-15
8.0600682e-15
8.0600646e-15
8.207222e-15
8.4036664e-15
8.4730633e-15
8.0567028e-15
6.7123621e-15
4.2638264e-15
1.504426e-15
1.0836124e-16
7.8291124e-21
1.0612829e-21
3.716897e-17
6.8255567e-16
2.1742108e-15
3.6181509e-15
4.4664269e-15
4.7651433e-15
4.7597997e-15
4.6623966e-15
4.5838172e-15
4.5838149e-15
4.6623902e-15
4.7597911e-15
4.7651351e-15
4.4664209e-15
3.6181483e-15
2.1742115e-15
6.8255732e-16
3.7169252e-17
1.0613093e-21
1.4798466e-22
1.2524807e-17
3.0399091e-16
1.0893054e-15
1.9179273e-15
2.4367397e-15
2.6388628e-15
2.6560247e-15
2.6105486e-15
2.5699786e-15
2.5699771e-15
2.6105446e-15
2.6560193e-15
2.6388579e-15
2.4367363e-15
1.9179263e-15
1.0893062e-15
3.0399184e-16
1.2524913e-17
1.4798851e-22
3.1317625e-23
4.1481499e-18
1.3295245e-16
5.3631346e-16
9.998453e-16
1.308202e-15
1.4387244e-15
1.4596757e-15
1.440028e-15
1.4197846e-15
1.4197836e-15
1.4400255e-15
1.4596724e-15
1.4387215e-15
1.3082002e-15
9.9984494e-16
5.3631407e-16
1.3295295e-16
4.1481892e-18
3.1273911e-23
1.7525822e-23
1.3507852e-18
5.7117796e-17
2.5952807e-16
5.1265455e-16
6.911238e-16
7.7217376e-16
7.8990625e-16
7.8235305e-16
7.7260916e-16
7.7260859e-16
7.8235154e-16
7.8990428e-16
7.7217208e-16
6.9112283e-16
5.1265446e-16
2.5952848e-16
5.7118054e-17
1.3507998e-18
1.7505881e-23
8.030531e-24
4.3265107e-19
2.410973e-17
1.2345899e-16
2.5855628e-16
3.593116e-16
4.0796032e-16
4.2086982e-16
4.1855975e-16
4.1405248e-16
4.1405214e-16
4.1855887e-16
4.2086867e-16
4.0795937e-16
3.5931109e-16
2.5855629e-16
1.2345925e-16
2.4109859e-17
4.3265667e-19
8.0252305e-24
)
;

boundaryField
{
    Wall
    {
        type            zeroGradient;
    }
    frontAndBack
    {
        type            empty;
    }
    atmosphere
    {
        type            zeroGradient;
    }
}


// ************************************************************************* //
