/*--------------------------------*- C++ -*----------------------------------*\
| =========                 |                                                 |
| \\      /  F ield         | OpenFOAM: The Open Source CFD Toolbox           |
|  \\    /   O peration     | Version:  3.0.1                                 |
|   \\  /    A nd           | Web:      www.OpenFOAM.org                      |
|    \\/     M anipulation  |                                                 |
\*---------------------------------------------------------------------------*/
FoamFile
{
    version     2.0;
    format      ascii;
    class       volScalarField;
    location    "28";
    object      muMixture;
}
// * * * * * * * * * * * * * * * * * * * * * * * * * * * * * * * * * * * * * //

dimensions      [1 -1 -1 0 0 0 0];

internalField   nonuniform List<scalar> 
800
(
0.001
0.001
0.001
0.001
0.001
0.001
0.001
0.001
0.001
0.001
0.001
0.001
0.001
0.001
0.001
0.001
0.001
0.001
0.001
0.001
0.001
0.001
0.001
0.001
0.001
0.001
0.001
0.001
0.001
0.001
0.001
0.001
0.001
0.001
0.001
0.001
0.001
0.001
0.001
0.001
0.00099999993
0.00099999994
0.00099999994
0.00099999994
0.00099999994
0.00099999994
0.00099999994
0.00099999994
0.00099999994
0.00099999994
0.00099999994
0.00099999994
0.00099999994
0.00099999994
0.00099999994
0.00099999994
0.00099999994
0.00099999994
0.00099999994
0.00099999993
0.00099999968
0.00099999972
0.00099999972
0.00099999973
0.00099999973
0.00099999973
0.00099999973
0.00099999973
0.00099999973
0.00099999973
0.00099999973
0.00099999973
0.00099999973
0.00099999973
0.00099999973
0.00099999973
0.00099999973
0.00099999972
0.00099999972
0.00099999968
0.00099999915
0.00099999924
0.00099999926
0.00099999927
0.00099999927
0.00099999927
0.00099999926
0.00099999926
0.00099999926
0.00099999926
0.00099999926
0.00099999926
0.00099999926
0.00099999926
0.00099999927
0.00099999927
0.00099999927
0.00099999926
0.00099999924
0.00099999915
0.00099999821
0.0009999984
0.00099999846
0.00099999847
0.00099999847
0.00099999847
0.00099999846
0.00099999846
0.00099999846
0.00099999846
0.00099999846
0.00099999846
0.00099999846
0.00099999846
0.00099999847
0.00099999847
0.00099999847
0.00099999846
0.0009999984
0.00099999821
0.00099999678
0.00099999712
0.00099999723
0.00099999725
0.00099999725
0.00099999724
0.00099999724
0.00099999723
0.00099999723
0.00099999723
0.00099999723
0.00099999723
0.00099999723
0.00099999724
0.00099999724
0.00099999725
0.00099999725
0.00099999723
0.00099999712
0.00099999678
0.00099999478
0.00099999531
0.00099999552
0.00099999555
0.00099999554
0.00099999553
0.00099999553
0.00099999552
0.00099999552
0.00099999551
0.00099999551
0.00099999552
0.00099999552
0.00099999553
0.00099999553
0.00099999554
0.00099999555
0.00099999552
0.00099999531
0.00099999478
0.00099999214
0.00099999292
0.00099999328
0.00099999332
0.00099999331
0.0009999933
0.00099999328
0.00099999327
0.00099999327
0.00099999327
0.00099999327
0.00099999327
0.00099999327
0.00099999328
0.0009999933
0.00099999331
0.00099999332
0.00099999328
0.00099999292
0.00099999214
0.00099998883
0.00099998992
0.00099999048
0.00099999055
0.00099999053
0.00099999051
0.00099999049
0.00099999048
0.00099999047
0.00099999047
0.00099999047
0.00099999047
0.00099999048
0.00099999049
0.00099999051
0.00099999053
0.00099999055
0.00099999048
0.00099998992
0.00099998883
0.00099998484
0.00099998626
0.00099998712
0.00099998724
0.00099998721
0.00099998718
0.00099998715
0.00099998713
0.00099998712
0.00099998712
0.00099998712
0.00099998712
0.00099998713
0.00099998715
0.00099998718
0.00099998721
0.00099998724
0.00099998712
0.00099998626
0.00099998484
0.00099998017
0.00099998188
0.0009999832
0.0009999834
0.00099998336
0.00099998331
0.00099998328
0.00099998325
0.00099998324
0.00099998323
0.00099998323
0.00099998324
0.00099998325
0.00099998328
0.00099998331
0.00099998336
0.0009999834
0.0009999832
0.00099998188
0.00099998017
0.00099997475
0.00099997669
0.00099997879
0.00099997903
0.00099997897
0.00099997891
0.00099997887
0.00099997884
0.00099997882
0.00099997881
0.00099997881
0.00099997882
0.00099997884
0.00099997887
0.00099997891
0.00099997897
0.00099997903
0.00099997879
0.00099997669
0.00099997475
0.0009999686
0.0009999711
0.0009999741
0.00099997416
0.00099997408
0.000999974
0.00099997395
0.00099997391
0.0009999739
0.00099997389
0.00099997389
0.0009999739
0.00099997391
0.00099997395
0.000999974
0.00099997408
0.00099997416
0.0009999741
0.0009999711
0.0009999686
0.00099996192
0.00099996625
0.00099996886
0.00099996871
0.0009999686
0.0009999685
0.00099996844
0.00099996841
0.00099996839
0.00099996838
0.00099996838
0.00099996839
0.00099996841
0.00099996844
0.0009999685
0.0009999686
0.00099996871
0.00099996886
0.00099996625
0.00099996192
0.00099995395
0.00099996109
0.00099996236
0.00099996226
0.00099996213
0.00099996203
0.00099996196
0.00099996192
0.0009999619
0.0009999619
0.0009999619
0.0009999619
0.00099996192
0.00099996196
0.00099996203
0.00099996213
0.00099996226
0.00099996236
0.00099996109
0.00099995395
0.00099993929
0.00099995138
0.00099995266
0.00099995281
0.00099995277
0.00099995271
0.00099995267
0.00099995266
0.00099995266
0.00099995266
0.00099995266
0.00099995266
0.00099995266
0.00099995267
0.00099995271
0.00099995277
0.00099995281
0.00099995266
0.00099995138
0.00099993929
0.00099989121
0.00099992209
0.00099992813
0.00099992968
0.00099993038
0.00099993072
0.00099993092
0.00099993105
0.00099993124
0.00099993131
0.00099993131
0.00099993124
0.00099993105
0.00099993092
0.00099993072
0.00099993038
0.00099992968
0.00099992813
0.00099992209
0.00099989121
0.00099956805
0.00099974511
0.00099979406
0.00099980805
0.0009998163
0.00099982048
0.00099982291
0.00099982426
0.00099982582
0.00099982647
0.00099982647
0.00099982582
0.00099982426
0.00099982291
0.00099982048
0.0009998163
0.00099980805
0.00099979406
0.00099974511
0.00099956805
0.00099437189
0.00099743512
0.00099820887
0.00099842919
0.00099856463
0.00099862937
0.00099866451
0.00099868428
0.00099870349
0.00099871211
0.00099871211
0.00099870349
0.00099868428
0.00099866452
0.00099862938
0.00099856464
0.0009984292
0.00099820889
0.00099743516
0.00099437205
0.00080602633
0.00091210328
0.00094127149
0.00095083872
0.00095617072
0.00095878239
0.00096031199
0.00096118466
0.00096197757
0.00096233869
0.00096233873
0.0009619777
0.00096118486
0.00096031226
0.00095878274
0.00095617116
0.00095083925
0.00094127225
0.00091210477
0.00080603054
1e-05
1e-05
1e-05
1e-05
1e-05
1e-05
1e-05
1e-05
1e-05
1e-05
1e-05
1e-05
1e-05
1e-05
1e-05
1e-05
1e-05
1e-05
1e-05
1e-05
1e-05
1e-05
1e-05
1e-05
1e-05
1e-05
1e-05
1e-05
1e-05
1e-05
1e-05
1e-05
1e-05
1e-05
1e-05
1e-05
1e-05
1e-05
1e-05
1e-05
1e-05
1e-05
1e-05
1e-05
1e-05
1e-05
1e-05
1e-05
1e-05
1e-05
1e-05
1e-05
1e-05
1e-05
1e-05
1e-05
1e-05
1e-05
1e-05
1e-05
1e-05
1e-05
1e-05
1e-05
1e-05
1e-05
1e-05
1e-05
1e-05
1e-05
1e-05
1e-05
1e-05
1e-05
1e-05
1e-05
1e-05
1e-05
1e-05
1e-05
1e-05
1e-05
1e-05
1e-05
1e-05
1e-05
1e-05
1e-05
1e-05
1e-05
1e-05
1e-05
1e-05
1e-05
1e-05
1e-05
1e-05
1e-05
1e-05
1e-05
1e-05
1e-05
1e-05
1e-05
1e-05
1e-05
1e-05
1e-05
1e-05
1e-05
1e-05
1e-05
1e-05
1e-05
1e-05
1e-05
1e-05
1e-05
1e-05
1e-05
1e-05
1e-05
1e-05
1e-05
1e-05
1e-05
1e-05
1e-05
1e-05
1e-05
1e-05
1e-05
1e-05
1e-05
1e-05
1e-05
1e-05
1e-05
1e-05
1e-05
1e-05
1e-05
1e-05
1e-05
1e-05
1e-05
1e-05
1e-05
1e-05
1e-05
1e-05
1e-05
1e-05
1e-05
1e-05
1e-05
1e-05
1e-05
1e-05
1e-05
1e-05
1e-05
1e-05
1e-05
1e-05
1e-05
1e-05
1e-05
1e-05
1e-05
1e-05
1e-05
1e-05
1e-05
1e-05
1e-05
1e-05
1e-05
1e-05
1e-05
1e-05
1e-05
1e-05
1e-05
1e-05
1e-05
1e-05
1e-05
1e-05
1e-05
1e-05
1e-05
1e-05
1e-05
1e-05
1e-05
1e-05
1e-05
1e-05
1e-05
1e-05
1e-05
1e-05
1e-05
1e-05
1e-05
1e-05
1e-05
1e-05
1e-05
1e-05
1e-05
1e-05
1e-05
1e-05
1e-05
1e-05
1e-05
1e-05
1e-05
1e-05
1e-05
1e-05
1e-05
1e-05
1e-05
1e-05
1e-05
1e-05
1e-05
1e-05
1e-05
1e-05
1e-05
1e-05
1e-05
1e-05
1e-05
1e-05
1e-05
1e-05
1e-05
1e-05
1e-05
1e-05
1e-05
1e-05
1e-05
1e-05
1e-05
1e-05
1e-05
1e-05
1e-05
1e-05
1e-05
1e-05
1e-05
1e-05
1e-05
1e-05
1e-05
1e-05
1e-05
1e-05
1e-05
1e-05
1e-05
1e-05
1e-05
1e-05
1e-05
1e-05
1e-05
1e-05
1e-05
1e-05
1e-05
1e-05
1e-05
1e-05
1e-05
1e-05
1e-05
1e-05
1e-05
1e-05
1e-05
1e-05
1e-05
1e-05
1e-05
1e-05
1e-05
1e-05
1e-05
1e-05
1e-05
1e-05
1e-05
1e-05
1e-05
1e-05
1e-05
1e-05
1e-05
1e-05
1e-05
1e-05
1e-05
1e-05
1e-05
1e-05
1e-05
1e-05
1e-05
1e-05
1e-05
1e-05
1e-05
1e-05
1e-05
1e-05
1e-05
1e-05
1e-05
1e-05
1e-05
1e-05
1e-05
1e-05
1e-05
1e-05
1e-05
1e-05
1e-05
1e-05
1e-05
1e-05
1e-05
1e-05
1e-05
1e-05
1e-05
1e-05
1e-05
1e-05
1e-05
1e-05
1e-05
1e-05
1e-05
1e-05
1e-05
1e-05
1e-05
1e-05
1e-05
1e-05
1e-05
1e-05
1e-05
1e-05
1e-05
1e-05
1e-05
1e-05
1e-05
1e-05
1e-05
1e-05
1e-05
1e-05
1e-05
1e-05
1e-05
1e-05
1e-05
1e-05
1e-05
)
;

boundaryField
{
    Wall
    {
        type            zeroGradient;
    }
    frontAndBack
    {
        type            empty;
    }
    atmosphere
    {
        type            zeroGradient;
    }
}


// ************************************************************************* //
