/*--------------------------------*- C++ -*----------------------------------*\
| =========                 |                                                 |
| \\      /  F ield         | OpenFOAM: The Open Source CFD Toolbox           |
|  \\    /   O peration     | Version:  3.0.1                                 |
|   \\  /    A nd           | Web:      www.OpenFOAM.org                      |
|    \\/     M anipulation  |                                                 |
\*---------------------------------------------------------------------------*/
FoamFile
{
    version     2.0;
    format      ascii;
    class       volScalarField;
    location    "28";
    object      mZero;
}
// * * * * * * * * * * * * * * * * * * * * * * * * * * * * * * * * * * * * * //

dimensions      [0 0 0 0 0 0 0];

internalField   nonuniform List<scalar> 
800
(
1e+13
1e+13
1e+13
1e+13
1e+13
1e+13
1e+13
1e+13
1e+13
1e+13
1e+13
1e+13
1e+13
1e+13
1e+13
1e+13
1e+13
1e+13
1e+13
1e+13
1e+13
1e+13
1e+13
1e+13
1e+13
1e+13
1e+13
1e+13
1e+13
1e+13
1e+13
1e+13
1e+13
1e+13
1e+13
1e+13
1e+13
1e+13
1e+13
1e+13
9.9086009e+12
9.9108873e+12
9.9117846e+12
9.9120389e+12
9.9120768e+12
9.912054e+12
9.9120222e+12
9.911997e+12
9.911981e+12
9.9119736e+12
9.9119736e+12
9.911981e+12
9.9119969e+12
9.9120221e+12
9.9120539e+12
9.9120767e+12
9.9120387e+12
9.9117844e+12
9.9108871e+12
9.9086005e+12
9.7427744e+12
9.7492702e+12
9.7514999e+12
9.7521007e+12
9.7521894e+12
9.7521268e+12
9.7520429e+12
9.7519762e+12
9.7519334e+12
9.7519132e+12
9.7519131e+12
9.7519333e+12
9.7519761e+12
9.7520427e+12
9.7521266e+12
9.7521891e+12
9.7521002e+12
9.7514994e+12
9.7492696e+12
9.7427735e+12
9.5175429e+12
9.5297382e+12
9.533536e+12
9.5345151e+12
9.5346415e+12
9.5345178e+12
9.5343648e+12
9.5342442e+12
9.5341665e+12
9.5341296e+12
9.5341295e+12
9.5341663e+12
9.534244e+12
9.5343644e+12
9.5345174e+12
9.534641e+12
9.5345144e+12
9.5335352e+12
9.5297373e+12
9.5175417e+12
9.2461729e+12
9.2651187e+12
9.2706296e+12
9.2719964e+12
9.2721351e+12
9.2719287e+12
9.2716923e+12
9.2715087e+12
9.2713906e+12
9.2713346e+12
9.2713345e+12
9.2713904e+12
9.2715083e+12
9.2716918e+12
9.2719281e+12
9.2721343e+12
9.2719955e+12
9.2706285e+12
9.2651176e+12
9.2461714e+12
8.9400702e+12
8.9666302e+12
8.9739325e+12
8.9756774e+12
8.9757924e+12
8.9754816e+12
8.9751506e+12
8.9748978e+12
8.9747366e+12
8.9746602e+12
8.9746601e+12
8.9747364e+12
8.9748974e+12
8.97515e+12
8.9754808e+12
8.9757915e+12
8.9756763e+12
8.9739313e+12
8.9666289e+12
8.9400686e+12
8.6088701e+12
8.6437982e+12
8.6529874e+12
8.6550992e+12
8.6551442e+12
8.6547081e+12
8.6542757e+12
8.6539517e+12
8.6537467e+12
8.6536496e+12
8.6536495e+12
8.6537464e+12
8.6539512e+12
8.654275e+12
8.6547073e+12
8.6551432e+12
8.6550981e+12
8.6529862e+12
8.643797e+12
8.6088686e+12
8.2604751e+12
8.3044461e+12
8.3156868e+12
8.3181796e+12
8.3181325e+12
8.3175515e+12
8.3170178e+12
8.3166259e+12
8.3163786e+12
8.3162616e+12
8.3162615e+12
8.3163782e+12
8.3166253e+12
8.317017e+12
8.3175506e+12
8.3181315e+12
8.3181786e+12
8.3156857e+12
8.304445e+12
8.2604738e+12
7.9010351e+12
7.9547216e+12
7.9682759e+12
7.9712117e+12
7.9710789e+12
7.9703627e+12
7.9697398e+12
7.9692892e+12
7.9690022e+12
7.9688665e+12
7.9688664e+12
7.9690019e+12
7.9692886e+12
7.969739e+12
7.9703619e+12
7.971078e+12
7.9712107e+12
7.9682748e+12
7.9547206e+12
7.901034e+12
7.534988e+12
7.5991072e+12
7.6153965e+12
7.6189145e+12
7.6187425e+12
7.6179323e+12
7.6172401e+12
7.6167436e+12
7.6164175e+12
7.6162638e+12
7.6162637e+12
7.6164172e+12
7.6167431e+12
7.6172394e+12
7.6179315e+12
7.6187416e+12
7.6189136e+12
7.6153955e+12
7.5991063e+12
7.5349871e+12
7.1651984e+12
7.2405336e+12
7.2602117e+12
7.2645595e+12
7.2644598e+12
7.263612e+12
7.2628697e+12
7.2623411e+12
7.261963e+12
7.2617904e+12
7.2617903e+12
7.2619627e+12
7.2623405e+12
7.262869e+12
7.2636112e+12
7.264459e+12
7.2645587e+12
7.2602108e+12
7.2405328e+12
7.1651976e+12
6.7930802e+12
6.8805392e+12
6.9045546e+12
6.9101122e+12
6.9102654e+12
6.9094385e+12
6.9086566e+12
6.9081107e+12
6.9076875e+12
6.9074936e+12
6.9074935e+12
6.9076872e+12
6.9081102e+12
6.908656e+12
6.9094378e+12
6.9102647e+12
6.9101115e+12
6.9045538e+12
6.8805385e+12
6.7930794e+12
6.4184684e+12
6.5192105e+12
6.548872e+12
6.5562708e+12
6.5569445e+12
6.5562004e+12
6.5553801e+12
6.5548251e+12
6.5543798e+12
6.5541405e+12
6.5541404e+12
6.5543795e+12
6.5548246e+12
6.5553795e+12
6.5561998e+12
6.5569438e+12
6.5562702e+12
6.5488712e+12
6.5192097e+12
6.4184676e+12
6.0414209e+12
6.1568041e+12
6.1939346e+12
6.2041599e+12
6.2057438e+12
6.2051612e+12
6.2042703e+12
6.2036722e+12
6.2032276e+12
6.2029522e+12
6.202952e+12
6.2032273e+12
6.2036717e+12
6.2042697e+12
6.2051606e+12
6.2057432e+12
6.2041593e+12
6.1939339e+12
6.1568034e+12
6.0414202e+12
5.6598686e+12
5.7917212e+12
5.8388779e+12
5.8534332e+12
5.856504e+12
5.8561823e+12
5.8551948e+12
5.8544995e+12
5.8540661e+12
5.8537661e+12
5.853766e+12
5.8540658e+12
5.854499e+12
5.8551943e+12
5.8561817e+12
5.8565035e+12
5.8534327e+12
5.8388772e+12
5.7917205e+12
5.659868e+12
5.2698056e+12
5.4204608e+12
5.481228e+12
5.502356e+12
5.5078633e+12
5.5080473e+12
5.5069416e+12
5.5060341e+12
5.5055462e+12
5.5052027e+12
5.5052026e+12
5.5055459e+12
5.5060336e+12
5.5069411e+12
5.5080468e+12
5.5078628e+12
5.5023555e+12
5.4812273e+12
5.4204602e+12
5.2698053e+12
4.863649e+12
5.0364922e+12
5.1159482e+12
5.1469365e+12
5.1563491e+12
5.1574816e+12
5.156218e+12
5.1549286e+12
5.1543437e+12
5.1539038e+12
5.1539036e+12
5.1543434e+12
5.1549281e+12
5.1562176e+12
5.1574812e+12
5.1563487e+12
5.1469361e+12
5.1159477e+12
5.0364918e+12
4.8636491e+12
4.4301944e+12
4.6301775e+12
4.735411e+12
4.781131e+12
4.7969736e+12
4.799803e+12
4.7983228e+12
4.7963849e+12
4.7955005e+12
4.7948509e+12
4.7948508e+12
4.7955002e+12
4.7963843e+12
4.7983224e+12
4.7998026e+12
4.7969732e+12
4.7811307e+12
4.7354106e+12
4.6301775e+12
4.4301952e+12
3.9534202e+12
4.1877116e+12
4.3287516e+12
4.3964467e+12
4.4229729e+12
4.4288174e+12
4.427135e+12
4.4241506e+12
4.4224997e+12
4.4214168e+12
4.4214166e+12
4.4224994e+12
4.4241501e+12
4.4271347e+12
4.4288172e+12
4.4229727e+12
4.3964466e+12
4.3287515e+12
4.187712e+12
3.9534219e+12
3.4084632e+12
3.6887822e+12
3.8801459e+12
3.9813093e+12
4.0248669e+12
4.0361766e+12
4.0345664e+12
4.0299891e+12
4.0268895e+12
4.0250027e+12
4.0250025e+12
4.0268892e+12
4.0299886e+12
4.0345662e+12
4.0361764e+12
4.0248668e+12
3.9813093e+12
3.880146e+12
3.6887832e+12
3.408466e+12
2.7429334e+12
3.0931257e+12
3.3585336e+12
3.5116474e+12
3.5836861e+12
3.60558e+12
3.6051481e+12
3.5983474e+12
3.5929195e+12
3.5896819e+12
3.5896817e+12
3.5929192e+12
3.598347e+12
3.605148e+12
3.6055801e+12
3.5836863e+12
3.5116477e+12
3.3585342e+12
3.0931277e+12
2.7429379e+12
1.949407e+12
2.3884969e+12
2.7366078e+12
2.9599727e+12
3.0760425e+12
3.1169202e+12
3.1196551e+12
3.1095841e+12
3.1001978e+12
3.094525e+12
3.0945248e+12
3.1001976e+12
3.1095838e+12
3.1196552e+12
3.1169204e+12
3.0760427e+12
2.9599731e+12
2.7366089e+12
2.3884995e+12
1.9494124e+12
1.135645e+12
1.7073699e+12
2.1189445e+12
2.4000927e+12
2.5607066e+12
2.6252508e+12
2.6329864e+12
2.6186993e+12
2.603462e+12
2.5940761e+12
2.5940758e+12
2.6034617e+12
2.618699e+12
2.6329865e+12
2.6252511e+12
2.5607068e+12
2.4000931e+12
2.1189455e+12
1.7073723e+12
1.1356501e+12
5.0568441e+11
1.1403229e+12
1.5904577e+12
1.9043168e+12
2.0922046e+12
2.1727283e+12
2.1838454e+12
2.1650664e+12
2.1436275e+12
2.1301666e+12
2.1301663e+12
2.143627e+12
2.165066e+12
2.1838453e+12
2.1727285e+12
2.0922047e+12
1.9043169e+12
1.5904584e+12
1.1403249e+12
5.0568769e+11
1.7016343e+11
7.1822761e+11
1.1638813e+12
1.4858592e+12
1.6840184e+12
1.7721221e+12
1.7848411e+12
1.7628513e+12
1.7366009e+12
1.7198549e+12
1.7198546e+12
1.7366003e+12
1.7628506e+12
1.7848408e+12
1.772122e+12
1.6840183e+12
1.4858593e+12
1.1638818e+12
7.1822904e+11
1.7016495e+11
4.4782942e+10
4.2805238e+11
8.3124592e+11
1.140097e+12
1.3348753e+12
1.4236323e+12
1.4371539e+12
1.414436e+12
1.3863407e+12
1.3681482e+12
1.3681478e+12
1.38634e+12
1.4144352e+12
1.4371534e+12
1.4236319e+12
1.3348749e+12
1.1400968e+12
8.3124627e+11
4.2805341e+11
4.478348e+10
9.7670038e+09
2.4081874e+11
5.7834829e+11
8.5821737e+11
1.0397376e+12
1.1242983e+12
1.1382641e+12
1.1171692e+12
1.0900999e+12
1.0723401e+12
1.0723396e+12
1.0900991e+12
1.1171681e+12
1.1382633e+12
1.1242978e+12
1.0397371e+12
8.5821708e+11
5.7834839e+11
2.4081931e+11
9.7671597e+09
1.8761747e+09
1.2786076e+11
3.9077749e+11
6.3183184e+11
7.9370461e+11
8.7097454e+11
8.8517711e+11
8.6734636e+11
8.4339565e+11
8.2747965e+11
8.2747919e+11
8.4339476e+11
8.6734527e+11
8.8517625e+11
8.7097387e+11
7.9370405e+11
6.3183147e+11
3.9077751e+11
1.2786107e+11
1.8762113e+09
3.3200245e+08
6.4301724e+10
2.5572867e+11
4.5369325e+11
5.9245564e+11
6.6063842e+11
6.7480082e+11
6.6099324e+11
6.4126642e+11
6.2797287e+11
6.2797244e+11
6.4126556e+11
6.6099216e+11
6.7479994e+11
6.6063773e+11
5.924551e+11
4.5369291e+11
2.5572866e+11
6.4301901e+10
3.3200979e+08
55825545
3.0817926e+10
1.6185137e+11
3.1713709e+11
4.3171108e+11
4.8995778e+11
5.0367351e+11
4.9388268e+11
4.7861896e+11
4.6815935e+11
4.6815896e+11
4.7861816e+11
4.9388169e+11
5.0367268e+11
4.8995714e+11
4.3171062e+11
3.1713684e+11
1.6185137e+11
3.0818026e+10
55826882
9094383
1.416486e+10
9.9057835e+10
2.155833e+11
3.0678819e+11
3.5498376e+11
3.677772e+11
3.6147907e+11
3.5031722e+11
3.4250547e+11
3.4250514e+11
3.5031652e+11
3.614782e+11
3.6777647e+11
3.549832e+11
3.0678783e+11
2.1558314e+11
9.9057852e+10
1.4164916e+10
9094610.2
1451583.2
6.2768434e+09
5.8673594e+10
1.4247704e+11
2.1252035e+11
2.5114019e+11
2.6258064e+11
2.5900246e+11
2.5125972e+11
2.4569162e+11
2.4569134e+11
2.5125914e+11
2.5900172e+11
2.6258003e+11
2.5113974e+11
2.1252008e+11
1.4247695e+11
5.867362e+10
6.276872e+09
1451620.3
228378.93
2.6923737e+09
3.3677154e+10
9.1567814e+10
1.4350526e+11
1.7347094e+11
1.8326529e+11
1.8160105e+11
1.7649759e+11
1.7269525e+11
1.7269503e+11
1.7649712e+11
1.8160045e+11
1.832648e+11
1.734706e+11
1.4350507e+11
9.1567776e+10
3.3677185e+10
2.6923878e+09
228384.77
35539.077
1.1211672e+09
1.8758406e+10
5.7260932e+10
9.4483344e+10
1.170008e+11
1.2503335e+11
1.2457933e+11
1.2138408e+11
1.188901e+11
1.1888993e+11
1.2138372e+11
1.2457887e+11
1.2503296e+11
1.1700053e+11
9.4483215e+10
5.7260921e+10
1.8758434e+10
1.121174e+09
35540.046
5544.7331
4.5422616e+08
1.0154178e+10
3.4867396e+10
6.0681772e+10
7.7076759e+10
8.3398213e+10
8.3613739e+10
8.1718751e+10
8.0145083e+10
8.0144959e+10
8.1718478e+10
8.3613386e+10
8.3397925e+10
7.7076568e+10
6.0681686e+10
3.4867398e+10
1.0154198e+10
4.5422928e+08
5544.8644
1041.4758
1.7931817e+08
5.3488017e+09
2.0691309e+10
3.8038107e+10
4.9613412e+10
5.4397656e+10
5.4911218e+10
5.3853542e+10
5.2897699e+10
5.289761e+10
5.3853344e+10
5.491096e+10
5.4397445e+10
4.9613276e+10
3.803805e+10
2.0691316e+10
5.3488153e+09
1.7931956e+08
1041.5586
514.01602
69065626
2.745037e+09
1.1976536e+10
2.328639e+10
3.1218585e+10
3.4708726e+10
3.5292955e+10
3.4744673e+10
3.4185988e+10
3.4185925e+10
3.4744532e+10
3.5292772e+10
3.4708577e+10
3.1218491e+10
2.3286353e+10
1.1976543e+10
2.7450455e+09
69066229
513.20317
457.63649
25982544
1.373979e+09
6.7671588e+09
1.3930938e+10
1.9212285e+10
2.1671966e+10
2.2206643e+10
2.1949975e+10
2.1636219e+10
2.1636176e+10
2.1949879e+10
2.2206517e+10
2.1671864e+10
1.9212221e+10
1.3930914e+10
6.7671642e+09
1.3739841e+09
25982813
457.30499
239.07895
9558806.9
6.7137392e+08
3.7355289e+09
8.1493473e+09
1.1569529e+10
1.3247671e+10
1.3683376e+10
1.3582296e+10
1.3413528e+10
1.34135e+10
1.3582232e+10
1.3683291e+10
1.3247602e+10
1.1569487e+10
8.1493325e+09
3.7355328e+09
6.7137683e+08
9558933.4
239.0562
)
;

boundaryField
{
    Wall
    {
        type            zeroGradient;
    }
    frontAndBack
    {
        type            empty;
    }
    atmosphere
    {
        type            zeroGradient;
    }
}


// ************************************************************************* //
