/*--------------------------------*- C++ -*----------------------------------*\
| =========                 |                                                 |
| \\      /  F ield         | OpenFOAM: The Open Source CFD Toolbox           |
|  \\    /   O peration     | Version:  3.0.1                                 |
|   \\  /    A nd           | Web:      www.OpenFOAM.org                      |
|    \\/     M anipulation  |                                                 |
\*---------------------------------------------------------------------------*/
FoamFile
{
    version     2.0;
    format      ascii;
    class       volScalarField;
    location    "28";
    object      node1;
}
// * * * * * * * * * * * * * * * * * * * * * * * * * * * * * * * * * * * * * //

dimensions      [0 0 0 0 0 0 0];

internalField   nonuniform List<scalar> 
800
(
1.3832523e-12
1.3833843e-12
1.3834044e-12
1.3834056e-12
1.3834049e-12
1.3834044e-12
1.3834042e-12
1.3834043e-12
1.3834043e-12
1.3834044e-12
1.3834044e-12
1.3834043e-12
1.3834043e-12
1.3834043e-12
1.3834044e-12
1.3834049e-12
1.3834056e-12
1.3834044e-12
1.3833843e-12
1.3832523e-12
1.3561831e-12
1.3577716e-12
1.3581112e-12
1.3581696e-12
1.3581623e-12
1.3581469e-12
1.358136e-12
1.3581302e-12
1.3581277e-12
1.3581267e-12
1.3581267e-12
1.3581276e-12
1.3581302e-12
1.358136e-12
1.3581469e-12
1.3581622e-12
1.3581696e-12
1.3581112e-12
1.3577715e-12
1.356183e-12
1.3411449e-12
1.3433302e-12
1.3439558e-12
1.3440642e-12
1.3440629e-12
1.3440457e-12
1.3440335e-12
1.3440278e-12
1.3440258e-12
1.3440254e-12
1.3440254e-12
1.3440258e-12
1.3440278e-12
1.3440335e-12
1.3440457e-12
1.3440629e-12
1.3440642e-12
1.3439558e-12
1.3433302e-12
1.3411448e-12
1.3387546e-12
1.3410338e-12
1.3418274e-12
1.3419552e-12
1.3419548e-12
1.3419388e-12
1.3419294e-12
1.3419269e-12
1.3419276e-12
1.3419286e-12
1.3419286e-12
1.3419276e-12
1.3419269e-12
1.3419294e-12
1.3419388e-12
1.3419548e-12
1.3419552e-12
1.3418274e-12
1.3410337e-12
1.3387545e-12
1.3492952e-12
1.3511765e-12
1.3520271e-12
1.3521719e-12
1.3521652e-12
1.3521503e-12
1.3521455e-12
1.3521481e-12
1.3521526e-12
1.3521556e-12
1.3521556e-12
1.3521526e-12
1.3521481e-12
1.3521455e-12
1.3521503e-12
1.3521652e-12
1.3521719e-12
1.3520271e-12
1.3511765e-12
1.3492951e-12
1.3724615e-12
1.373535e-12
1.3743456e-12
1.3745127e-12
1.3744931e-12
1.3744785e-12
1.3744791e-12
1.3744875e-12
1.3744966e-12
1.374502e-12
1.374502e-12
1.3744966e-12
1.3744876e-12
1.3744791e-12
1.3744785e-12
1.3744931e-12
1.3745127e-12
1.3743456e-12
1.3735351e-12
1.3724616e-12
1.408665e-12
1.4084204e-12
1.409025e-12
1.4092152e-12
1.4091738e-12
1.4091566e-12
1.409162e-12
1.4091763e-12
1.4091899e-12
1.4091978e-12
1.4091978e-12
1.40919e-12
1.4091764e-12
1.4091621e-12
1.4091567e-12
1.4091739e-12
1.4092153e-12
1.4090251e-12
1.4084205e-12
1.4086651e-12
1.4570358e-12
1.4553181e-12
1.455561e-12
1.4557711e-12
1.4557061e-12
1.4556848e-12
1.4556938e-12
1.455713e-12
1.4557307e-12
1.4557407e-12
1.4557407e-12
1.4557307e-12
1.455713e-12
1.4556939e-12
1.4556849e-12
1.4557062e-12
1.4557713e-12
1.4555611e-12
1.4553183e-12
1.457036e-12
1.5163744e-12
1.5131565e-12
1.5128343e-12
1.5130493e-12
1.5130039e-12
1.5129756e-12
1.5129841e-12
1.5130051e-12
1.5130253e-12
1.5130366e-12
1.5130366e-12
1.5130253e-12
1.5130051e-12
1.5129842e-12
1.5129757e-12
1.5130041e-12
1.5130495e-12
1.5128344e-12
1.5131567e-12
1.5163746e-12
1.5847385e-12
1.5803671e-12
1.5792565e-12
1.5794484e-12
1.5795239e-12
1.5795442e-12
1.5795434e-12
1.5795605e-12
1.5795806e-12
1.5795919e-12
1.5795919e-12
1.5795806e-12
1.5795606e-12
1.5795435e-12
1.5795444e-12
1.579524e-12
1.5794486e-12
1.5792567e-12
1.5803673e-12
1.5847387e-12
1.6594299e-12
1.6546327e-12
1.6526033e-12
1.6527309e-12
1.6531038e-12
1.6532929e-12
1.6532684e-12
1.653273e-12
1.6532893e-12
1.6532987e-12
1.6532988e-12
1.6532893e-12
1.6532731e-12
1.6532685e-12
1.6532931e-12
1.653104e-12
1.6527311e-12
1.6526035e-12
1.6546329e-12
1.6594301e-12
1.7374226e-12
1.7330923e-12
1.7303336e-12
1.7303327e-12
1.7312295e-12
1.7316974e-12
1.7316296e-12
1.7316091e-12
1.7316172e-12
1.7316219e-12
1.731622e-12
1.7316172e-12
1.7316092e-12
1.7316298e-12
1.7316975e-12
1.7312297e-12
1.7303329e-12
1.7303338e-12
1.7330925e-12
1.7374228e-12
1.8155932e-12
1.8126445e-12
1.809773e-12
1.8094761e-12
1.8110956e-12
1.8118784e-12
1.811743e-12
1.8116755e-12
1.8117903e-12
1.8117816e-12
1.8117816e-12
1.8117904e-12
1.8116756e-12
1.8117431e-12
1.8118785e-12
1.8110957e-12
1.8094763e-12
1.8097732e-12
1.8126447e-12
1.8155933e-12
1.8903366e-12
1.8899338e-12
1.8877877e-12
1.8872198e-12
1.8896646e-12
1.8907177e-12
1.8904873e-12
1.8903478e-12
1.8906603e-12
1.8906275e-12
1.8906276e-12
1.8906603e-12
1.8903479e-12
1.8904874e-12
1.8907179e-12
1.8896647e-12
1.8872199e-12
1.8877878e-12
1.889934e-12
1.8903368e-12
1.9539866e-12
1.9578524e-12
1.9571238e-12
1.9564024e-12
1.9596499e-12
1.9608821e-12
1.9604857e-12
1.960332e-12
1.9608902e-12
1.9610952e-12
1.9610952e-12
1.9608902e-12
1.9603321e-12
1.9604858e-12
1.9608822e-12
1.95965e-12
1.9564025e-12
1.957124e-12
1.9578526e-12
1.9539867e-12
1.9987577e-12
2.0087159e-12
2.0098706e-12
2.0096121e-12
2.0135114e-12
2.0147292e-12
2.0139343e-12
2.0136719e-12
2.0145434e-12
2.0153215e-12
2.0153215e-12
2.0145434e-12
2.013672e-12
2.0139343e-12
2.0147292e-12
2.0135114e-12
2.0096121e-12
2.0098706e-12
2.008716e-12
1.9987576e-12
2.0234183e-12
2.0408316e-12
2.0443062e-12
2.0449671e-12
2.0498378e-12
2.0506828e-12
2.0494234e-12
2.0490131e-12
2.0500736e-12
2.0515234e-12
2.0515234e-12
2.0500736e-12
2.0490131e-12
2.0494234e-12
2.0506828e-12
2.0498378e-12
2.0449671e-12
2.0443062e-12
2.0408316e-12
2.0234182e-12
2.0244076e-12
2.0506244e-12
2.0571303e-12
2.0587564e-12
2.0652087e-12
2.0656963e-12
2.0641828e-12
2.0636944e-12
2.0646304e-12
2.0666423e-12
2.0666423e-12
2.0646304e-12
2.0636944e-12
2.0641827e-12
2.0656963e-12
2.0652086e-12
2.0587564e-12
2.0571302e-12
2.0506243e-12
2.0244075e-12
1.9923761e-12
2.0299633e-12
2.0406595e-12
2.0430738e-12
2.0515598e-12
2.0520401e-12
2.0505851e-12
2.0501347e-12
2.051225e-12
2.0536599e-12
2.0536599e-12
2.051225e-12
2.0501347e-12
2.0505851e-12
2.05204e-12
2.0515597e-12
2.0430737e-12
2.0406594e-12
2.0299632e-12
1.992376e-12
1.9138144e-12
1.9632158e-12
1.9786189e-12
1.9819641e-12
1.992599e-12
1.9938955e-12
1.9927268e-12
1.9924178e-12
1.9941116e-12
1.9968651e-12
1.9968651e-12
1.9941116e-12
1.9924178e-12
1.9927268e-12
1.9938955e-12
1.992599e-12
1.9819641e-12
1.9786188e-12
1.9632157e-12
1.9138143e-12
1.7901765e-12
1.8468603e-12
1.8646436e-12
1.8687955e-12
1.8802754e-12
1.8815777e-12
1.8806151e-12
1.880442e-12
1.8829063e-12
1.8858292e-12
1.8858292e-12
1.8829062e-12
1.880442e-12
1.880615e-12
1.8815776e-12
1.8802753e-12
1.8687953e-12
1.8646435e-12
1.8468602e-12
1.7901763e-12
0
0
0
0
0
0
0
0
0
0
0
0
0
0
0
0
0
0
0
0
0
0
0
0
0
0
0
0
0
0
0
0
0
0
0
0
0
0
0
0
0
0
0
0
0
0
0
0
0
0
0
0
0
0
0
0
0
0
0
0
0
0
0
0
0
0
0
0
0
0
0
0
0
0
0
0
0
0
0
0
0
0
0
0
0
0
0
0
0
0
0
0
0
0
0
0
0
0
0
0
0
0
0
0
0
0
0
0
0
0
0
0
0
0
0
0
0
0
0
0
0
0
0
0
0
0
0
0
0
0
0
0
0
0
0
0
0
0
0
0
0
0
0
0
0
0
0
0
0
0
0
0
0
0
0
0
0
0
0
0
0
0
0
0
0
0
0
0
0
0
0
0
0
0
0
0
0
0
0
0
0
0
0
0
0
0
0
0
0
0
0
0
0
0
0
0
0
0
0
0
0
0
0
0
0
0
0
0
0
0
0
0
0
0
0
0
0
0
0
0
0
0
0
0
0
0
0
0
0
0
0
0
0
0
0
0
0
0
0
0
0
0
0
0
0
0
0
0
0
0
0
0
0
0
0
0
0
0
0
0
0
0
0
0
0
0
0
0
0
0
0
0
0
0
0
0
0
0
0
0
0
0
0
0
0
0
0
0
0
0
0
0
0
0
0
0
0
0
0
0
0
0
0
0
0
0
0
0
0
0
0
0
0
0
0
0
0
0
0
0
0
0
0
0
0
0
0
0
0
0
0
0
0
0
0
0
0
0
0
0
0
0
0
0
0
0
0
0
0
0
0
0
0
0
0
0
0
0
0
0
0
0
0
0
0
0
0
0
0
0
0
0
0
0
0
0
0
0
0
0
)
;

boundaryField
{
    Wall
    {
        type            zeroGradient;
    }
    frontAndBack
    {
        type            empty;
    }
    atmosphere
    {
        type            zeroGradient;
    }
}


// ************************************************************************* //
