/*--------------------------------*- C++ -*----------------------------------*\
| =========                 |                                                 |
| \\      /  F ield         | OpenFOAM: The Open Source CFD Toolbox           |
|  \\    /   O peration     | Version:  3.0.1                                 |
|   \\  /    A nd           | Web:      www.OpenFOAM.org                      |
|    \\/     M anipulation  |                                                 |
\*---------------------------------------------------------------------------*/
FoamFile
{
    version     2.0;
    format      ascii;
    class       surfaceScalarField;
    location    "28";
    object      phi;
}
// * * * * * * * * * * * * * * * * * * * * * * * * * * * * * * * * * * * * * //

dimensions      [0 3 -1 0 0 0 0];

internalField   nonuniform List<scalar> 
1540
(
4.3446915e-10
1.6296084e-08
5.554926e-10
1.6615398e-08
5.6063682e-10
1.6732326e-08
5.0715948e-10
1.679083e-08
4.2873784e-10
1.6815538e-08
3.4213865e-10
1.6823569e-08
2.5459534e-10
1.6824451e-08
1.6840051e-10
1.6823089e-08
8.3676262e-11
1.6821621e-08
-1.8844971e-13
1.6820767e-08
-8.4048948e-11
1.6820763e-08
-1.6876113e-10
1.682161e-08
-2.5493692e-10
1.6823071e-08
-3.4245505e-10
1.6824427e-08
-4.2902399e-10
1.682354e-08
-5.0741152e-10
1.6815505e-08
-5.6084756e-10
1.679079e-08
-5.5565446e-10
1.6732278e-08
-4.3457547e-10
1.6615342e-08
1.6295975e-08
2.6207886e-10
3.3249582e-08
4.5698115e-10
3.3625379e-08
5.035074e-10
3.3891351e-08
4.7589175e-10
3.4024204e-08
4.1291241e-10
3.4084281e-08
3.3502053e-10
3.4107111e-08
2.5194145e-10
3.411304e-08
1.6771776e-10
3.4112701e-08
8.3665109e-11
3.4110977e-08
-1.2982585e-13
3.4109822e-08
-8.3921501e-11
3.4109816e-08
-1.6796635e-10
3.4110959e-08
-2.5217705e-10
3.411267e-08
-3.3523915e-10
3.4113e-08
-4.1310973e-10
3.4107061e-08
-4.7606514e-10
3.4084223e-08
-5.036534e-10
3.4024135e-08
-4.5709366e-10
3.3891268e-08
-2.6214397e-10
3.3625274e-08
3.3249405e-08
3.5680384e-10
5.0500867e-08
4.7605971e-10
5.1097997e-08
4.9740552e-10
5.146129e-08
4.6330665e-10
5.1650066e-08
4.0112773e-10
5.1738333e-08
3.2609287e-10
5.1773856e-08
2.4589466e-10
5.1784693e-08
1.6405527e-10
5.1785754e-08
8.1942952e-11
5.1784129e-08
-9.0433442e-14
5.1782806e-08
-8.2121557e-11
5.1782798e-08
-1.6422828e-10
5.1784105e-08
-2.4605973e-10
5.1785715e-08
-3.2624641e-10
5.178464e-08
-4.012652e-10
5.177379e-08
-4.6342516e-10
5.1738254e-08
-4.9750142e-10
5.1649974e-08
-4.7612747e-10
5.1461176e-08
-3.5683076e-10
5.1097848e-08
5.0500658e-08
3.6517883e-10
6.8054189e-08
4.8037221e-10
6.8881549e-08
4.9245121e-10
6.9346862e-08
4.538025e-10
6.9588142e-08
3.907526e-10
6.9701075e-08
3.169361e-10
6.9747158e-08
2.3884845e-10
6.9761894e-08
1.5937747e-10
6.9763983e-08
7.9639292e-11
6.9762365e-08
-6.7523513e-14
6.9760875e-08
-7.9773893e-11
6.9760866e-08
-1.595082e-10
6.9762336e-08
-2.3897248e-10
6.9763936e-08
-3.1705055e-10
6.9761831e-08
-3.9085487e-10
6.9747078e-08
-4.538895e-10
6.9700979e-08
-4.9252023e-10
6.9588029e-08
-4.8041883e-10
6.9346723e-08
-3.6519953e-10
6.8881371e-08
6.8053956e-08
3.4629791e-10
8.5890135e-08
4.7095857e-10
8.6917117e-08
4.832778e-10
8.7493502e-08
4.4368328e-10
8.7788962e-08
3.8060626e-10
8.7925799e-08
3.0790024e-10
8.7981254e-08
2.3169064e-10
8.7999004e-08
1.544901e-10
8.8001612e-08
7.7182353e-11
8.7999755e-08
-5.2538206e-14
8.7998014e-08
-7.7286421e-11
8.7998003e-08
-1.5459136e-10
8.7999723e-08
-2.3178722e-10
8.800156e-08
-3.0799019e-10
8.7998932e-08
-3.8068469e-10
8.7981162e-08
-4.4374868e-10
8.7925688e-08
-4.833274e-10
8.7788831e-08
-4.7099148e-10
8.7493343e-08
-3.4631302e-10
8.6916919e-08
8.5889885e-08
3.4749661e-10
1.0398722e-07
4.6989079e-10
1.0521289e-07
4.7879245e-10
1.0589941e-07
4.3617483e-10
1.062477e-07
3.7200409e-10
1.0640659e-07
2.9973911e-10
1.064698e-07
2.249603e-10
1.0648944e-07
1.4976258e-10
1.0649187e-07
7.4760441e-11
1.0648939e-07
-4.1068583e-14
1.0648722e-07
-7.4841535e-11
1.0648721e-07
-1.4984097e-10
1.0648935e-07
-2.2503349e-10
1.0649181e-07
-2.9980498e-10
1.0648936e-07
-3.7206151e-10
1.0646969e-07
-4.3622126e-10
1.0640646e-07
-4.7882517e-10
1.0624755e-07
-4.6990979e-10
1.0589924e-07
-3.4750401e-10
1.0521268e-07
1.0398696e-07
3.5920927e-10
1.2237384e-07
4.7707773e-10
1.2380623e-07
4.7981199e-10
1.2460168e-07
4.3176907e-10
1.2499998e-07
3.6523872e-10
1.2517789e-07
2.9267265e-10
1.252467e-07
2.1885618e-10
1.2526683e-07
1.4535562e-10
1.2526823e-07
7.2467887e-11
1.2526461e-07
-2.9958702e-14
1.2526178e-07
-7.2526705e-11
1.2526176e-07
-1.4541259e-10
1.2526457e-07
-2.1890905e-10
1.2526817e-07
-2.9271924e-10
1.2526675e-07
-3.6527754e-10
1.2524659e-07
-4.3179719e-10
1.2517776e-07
-4.7982849e-10
1.2499982e-07
-4.7708268e-10
1.2460149e-07
-3.592073e-10
1.2380601e-07
1.2237359e-07
3.7536949e-10
1.411255e-07
4.8918623e-10
1.4276942e-07
4.8411237e-10
1.4367242e-07
4.2887914e-10
1.441175e-07
3.5940149e-10
1.4431194e-07
2.8623091e-10
1.4438389e-07
2.1314129e-10
1.4440303e-07
1.4115118e-10
1.4440247e-07
7.0256367e-11
1.4439713e-07
-1.7850927e-14
1.4439335e-07
-7.0292056e-11
1.4439334e-07
-1.4118444e-10
1.4439708e-07
-2.1317143e-10
1.444024e-07
-2.8625632e-10
1.4440293e-07
-3.5941992e-10
1.4438377e-07
-4.2888808e-10
1.4431179e-07
-4.8411034e-10
1.4411733e-07
-4.8917359e-10
1.4367223e-07
-3.7535363e-10
1.427692e-07
1.4112526e-07
3.9555246e-10
1.6034785e-07
5.0451408e-10
1.6221e-07
4.896644e-10
1.6321714e-07
4.2628258e-10
1.6370462e-07
3.5300423e-10
1.639128e-07
2.7960699e-10
1.6398669e-07
2.073268e-10
1.6400364e-07
1.3687169e-10
1.6400027e-07
6.7990481e-11
1.6399262e-07
-5.5803296e-15
1.6398758e-07
-6.8001271e-11
1.6398757e-07
-1.3688125e-10
1.6399258e-07
-2.0733324e-10
1.6400019e-07
-2.7960998e-10
1.6400354e-07
-3.5300179e-10
1.6398656e-07
-4.2627234e-10
1.6391265e-07
-4.8964654e-10
1.6370444e-07
-5.0448983e-10
1.6321693e-07
-3.9552791e-10
1.6220978e-07
1.6034763e-07
4.2073634e-10
1.8016883e-07
5.2043579e-10
1.8225875e-07
4.941479e-10
1.8336512e-07
4.2250628e-10
1.8388924e-07
3.4560303e-10
1.8410811e-07
2.7205718e-10
1.8418283e-07
2.0077655e-10
1.8419623e-07
1.3205696e-10
1.8418913e-07
6.5423432e-11
1.8417855e-07
6.9322056e-15
1.8417184e-07
-6.540908e-11
1.8417183e-07
-1.320417e-10
1.841785e-07
-2.0075941e-10
1.8418906e-07
-2.7203826e-10
1.8419613e-07
-3.4558109e-10
1.841827e-07
-4.2248074e-10
1.8410795e-07
-4.9411801e-10
1.8388906e-07
-5.2040334e-10
1.8336491e-07
-4.2071035e-10
1.8225854e-07
1.8016864e-07
4.5193724e-10
2.0074213e-07
5.3303813e-10
2.0306844e-07
4.9425748e-10
2.0426877e-07
4.1561892e-10
2.0482099e-07
3.3646363e-10
2.0504563e-07
2.6231862e-10
2.0511797e-07
1.923352e-10
2.0512558e-07
1.2567007e-10
2.0511377e-07
6.2070777e-11
2.0509901e-07
1.8473825e-14
2.0509023e-07
-6.2033279e-11
2.0509021e-07
-1.2563228e-10
2.0509897e-07
-1.9229654e-10
2.0511369e-07
-2.6227976e-10
2.0512548e-07
-3.3642505e-10
2.0511784e-07
-4.1558277e-10
2.0504547e-07
-4.9422365e-10
2.0482081e-07
-5.3300994e-10
2.0426857e-07
-4.5191889e-10
2.0306824e-07
2.0074196e-07
4.8837728e-10
2.2224789e-07
5.3788318e-10
2.2481943e-07
4.8409423e-10
2.2610473e-07
4.0148523e-10
2.2666674e-07
3.2169677e-10
2.2688694e-07
2.4719704e-10
2.2695036e-07
1.7968923e-10
2.2694882e-07
1.1562111e-10
2.2693168e-07
5.7125051e-11
2.2691635e-07
2.7999902e-14
2.2690531e-07
-5.7068555e-11
2.2690529e-07
-1.1556475e-10
2.2691631e-07
-1.7963219e-10
2.2693161e-07
-2.4714234e-10
2.2694872e-07
-3.2164412e-10
2.2695023e-07
-4.0143423e-10
2.2688679e-07
-4.8405048e-10
2.2666656e-07
-5.3784841e-10
2.2610453e-07
-4.8835773e-10
2.2481923e-07
2.2224773e-07
5.2292283e-10
2.4487281e-07
5.2575171e-10
2.4770878e-07
4.4895686e-10
2.4905739e-07
3.6952169e-10
2.4960915e-07
2.9289113e-10
2.498096e-07
2.221162e-10
2.4985478e-07
1.6074414e-10
2.4984109e-07
1.033365e-10
2.4981763e-07
4.9725781e-11
2.4980423e-07
3.5531049e-14
2.4978772e-07
-4.9653719e-11
2.497877e-07
-1.0326578e-10
2.4980419e-07
-1.6067514e-10
2.4981756e-07
-2.2204768e-10
2.4984099e-07
-2.9283021e-10
2.4985466e-07
-3.6946916e-10
2.4980946e-07
-4.4891301e-10
2.4960898e-07
-5.2571816e-10
2.4905721e-07
-5.229067e-10
2.477086e-07
2.4487267e-07
5.3120203e-10
2.6918673e-07
4.76589e-10
2.7227258e-07
3.6870462e-10
2.7365574e-07
3.0183745e-10
2.74183e-07
2.3851525e-10
2.7434159e-07
1.8073375e-10
2.7435892e-07
1.31673e-10
2.7432735e-07
8.7658717e-11
2.7428145e-07
3.7160153e-11
2.742721e-07
4.0063131e-14
2.7425908e-07
-3.7083184e-11
2.7425907e-07
-8.7579855e-11
2.7427205e-07
-1.3159596e-10
2.7428139e-07
-1.8066091e-10
2.7432726e-07
-2.3844308e-10
2.743588e-07
-3.0177272e-10
2.7434145e-07
-3.6865177e-10
2.7418285e-07
-4.7655835e-10
2.7365558e-07
-5.3119365e-10
2.7227243e-07
2.691866e-07
5.0087833e-10
2.9568805e-07
3.693558e-10
2.9904726e-07
2.2942844e-10
3.0042707e-07
1.7907287e-10
3.0089743e-07
1.4313095e-10
3.009823e-07
1.1087576e-10
3.0095691e-07
8.1064868e-11
3.008961e-07
6.4090208e-11
3.0084669e-07
2.4277332e-11
3.0084515e-07
4.4667211e-14
3.0084455e-07
-2.4194022e-11
3.0084454e-07
-6.4002961e-11
3.0084511e-07
-8.0984678e-11
3.0084663e-07
-1.1079621e-10
3.0089601e-07
-1.4306139e-10
3.0095681e-07
-1.7901698e-10
3.0098218e-07
-2.2938397e-10
3.0089729e-07
-3.6932729e-10
3.0042693e-07
-5.0086441e-10
2.9904712e-07
2.9568794e-07
4.0467413e-10
3.2447832e-07
1.814906e-10
3.2805617e-07
3.9102601e-12
3.2939754e-07
-3.0603427e-11
3.2978187e-07
-1.1928969e-11
3.2979346e-07
-1.7058762e-12
3.2971818e-07
1.0042703e-11
3.2962405e-07
3.2668389e-11
3.295655e-07
1.3998841e-11
3.2956311e-07
4.5865575e-14
3.2957468e-07
-1.3895835e-11
3.2957466e-07
-3.2578924e-11
3.2956308e-07
-9.9541044e-12
3.2956545e-07
1.7827926e-12
3.2962398e-07
1.1996582e-11
3.2971809e-07
3.0664916e-11
3.2979335e-07
-3.8593429e-12
3.2978175e-07
-1.8145864e-10
3.2939742e-07
-4.0466561e-10
3.2805607e-07
3.2447824e-07
1.8119319e-10
3.554151e-07
-1.4631261e-10
3.590846e-07
-3.3468301e-10
3.603351e-07
-3.3760053e-10
3.6060137e-07
-2.4250311e-10
3.6055139e-07
-1.6375559e-10
3.604394e-07
-8.7905904e-11
3.6032106e-07
-9.6232642e-12
3.6024779e-07
1.1651125e-12
3.6024828e-07
4.0619949e-14
3.6026666e-07
-1.0883871e-12
3.6026665e-07
9.697006e-12
3.6024826e-07
8.7978392e-11
3.6024774e-07
1.6382535e-10
3.60321e-07
2.4256983e-10
3.6043932e-07
3.3765874e-10
3.6055129e-07
3.3472919e-10
3.6060127e-07
1.4635547e-10
3.60335e-07
-1.811548e-10
3.5908451e-07
3.5541508e-07
-1.7226528e-10
3.8845376e-07
-6.5176717e-10
3.9208281e-07
-8.220833e-10
3.9318961e-07
-7.3612098e-10
3.9330251e-07
-5.3616867e-10
3.9325773e-07
-3.6121459e-10
3.9312517e-07
-2.0881784e-10
3.9299675e-07
-7.4242571e-11
3.9291711e-07
-2.1477383e-11
3.929289e-07
3.5138977e-14
3.9295163e-07
2.1546453e-11
3.9295162e-07
7.4311321e-11
3.9292887e-07
2.0888326e-10
3.9291707e-07
3.6127596e-10
3.9299669e-07
5.3623059e-10
3.9312509e-07
7.3617882e-10
3.9325765e-07
8.2213482e-10
3.9330243e-07
6.5179636e-10
3.9318955e-07
1.7226619e-10
3.9208278e-07
3.8845377e-07
-7.1100113e-10
4.234086e-07
-1.357711e-09
4.2662884e-07
-1.4824152e-09
4.2757368e-07
-1.1788765e-09
4.275689e-07
-8.6749553e-10
4.2767925e-07
-5.6731474e-10
4.275784e-07
-3.3559286e-10
4.2746246e-07
-1.4168687e-10
4.2738207e-07
-4.8270309e-11
4.2736977e-07
2.8719774e-14
4.273903e-07
4.8327414e-11
4.2739029e-07
1.4174478e-10
4.2736974e-07
3.3564892e-10
4.2738203e-07
5.6736857e-10
4.2746241e-07
8.6754973e-10
4.2757833e-07
1.1789313e-09
4.2767917e-07
1.4824717e-09
4.2756883e-07
1.3577598e-09
4.2757364e-07
7.1103928e-10
4.2662883e-07
4.2340866e-07
-1.5439387e-09
4.6291959e-07
-2.2529614e-09
4.6353617e-07
-2.2107148e-09
4.6395824e-07
-1.5609658e-09
4.6419194e-07
-1.1475224e-09
4.6418507e-07
-7.4529066e-10
4.6404321e-07
-4.5101959e-10
4.6392969e-07
-2.2192571e-10
4.638486e-07
-8.2211312e-11
4.6373382e-07
2.3807326e-14
4.6374033e-07
8.2258769e-11
4.6374032e-07
2.2197321e-10
4.637338e-07
4.5106566e-10
4.6384856e-07
7.4533947e-10
4.6392964e-07
1.1475708e-09
4.6404315e-07
1.5610186e-09
4.6418499e-07
2.2107925e-09
4.6419185e-07
2.2530118e-09
4.6395812e-07
1.5439793e-09
4.6353606e-07
4.629195e-07
-3.6844371e-09
5.045763e-07
-3.2287484e-09
5.0765523e-07
-2.5360803e-09
5.0889048e-07
-1.8938789e-09
5.0905793e-07
-1.3653255e-09
5.0887497e-07
-8.7171214e-10
5.0876721e-07
-5.3826179e-10
5.0868232e-07
-3.6832644e-10
5.0868645e-07
-1.2698552e-10
5.0884078e-07
1.7568479e-14
5.0891352e-07
1.2702052e-10
5.0891351e-07
3.6836279e-10
5.0884075e-07
5.3830059e-10
5.086864e-07
8.7175566e-10
5.0868225e-07
1.36537e-09
5.0876714e-07
1.8939205e-09
5.0887489e-07
2.5361102e-09
5.0905784e-07
3.2287669e-09
5.0889043e-07
3.6844224e-09
5.0765529e-07
5.0457661e-07
1.217382e-09
4.8925582e-07
-8.3301393e-10
5.0141372e-07
-1.4593794e-09
5.0568716e-07
-1.3558775e-09
5.0672753e-07
-1.0024008e-09
5.0754785e-07
-6.3591178e-10
5.0799786e-07
-3.5961043e-10
5.0834435e-07
-1.9707909e-10
5.0867467e-07
-8.5370063e-11
5.0910175e-07
1.5290654e-14
5.093216e-07
8.5400029e-11
5.0932161e-07
1.9711802e-10
5.0910176e-07
3.5965937e-10
5.0867468e-07
6.3595013e-10
5.0834439e-07
1.0024324e-09
5.0799791e-07
1.355931e-09
5.0754788e-07
1.4594413e-09
5.0672759e-07
8.331086e-10
5.0568737e-07
-1.2172914e-09
5.0141406e-07
4.8925646e-07
3.8066954e-08
4.4494578e-07
2.4460193e-08
5.0523317e-07
1.1893564e-08
5.0776702e-07
6.6997943e-09
5.0629993e-07
3.8847052e-09
5.0474356e-07
2.5746403e-09
5.0481876e-07
1.7083183e-09
5.0457573e-07
1.059948e-09
5.0438885e-07
4.9696599e-10
5.0414505e-07
2.2190019e-14
5.040331e-07
-4.9691476e-10
5.040331e-07
-1.0598996e-09
5.0414504e-07
-1.7082609e-09
5.0438893e-07
-2.5746014e-09
5.0457583e-07
-3.8847052e-09
5.0481887e-07
-6.6997911e-09
5.0474367e-07
-1.1893554e-08
5.0629988e-07
-2.44601e-08
5.0776675e-07
-3.8066634e-08
5.0523328e-07
4.4494663e-07
8.3312565e-08
3.6138179e-07
9.3070536e-08
4.9483902e-07
7.2128161e-08
5.2087401e-07
5.3605603e-08
5.2450441e-07
3.9016031e-08
5.2104622e-07
2.6867419e-08
5.1711505e-07
1.8012574e-08
5.1465184e-07
1.0886417e-08
5.1305383e-07
5.1631179e-09
5.1230849e-07
2.6227248e-14
5.1195715e-07
-5.1630649e-09
5.1195717e-07
-1.0886254e-08
5.1230856e-07
-1.8012522e-08
5.1305382e-07
-2.6867438e-08
5.146519e-07
-3.9016071e-08
5.1711529e-07
-5.3605672e-08
5.2104641e-07
-7.2128185e-08
5.2450435e-07
-9.3070486e-08
5.2087386e-07
-8.3312648e-08
4.9483922e-07
3.6138255e-07
7.3867996e-08
2.875132e-07
1.0173281e-07
4.6696986e-07
9.7364222e-08
5.2293731e-07
8.0728507e-08
5.3495665e-07
6.3876104e-08
5.3471642e-07
4.7661049e-08
5.3012238e-07
3.3393913e-08
5.2517874e-07
2.1068144e-08
5.2122171e-07
1.0169768e-08
5.1859428e-07
-2.0222064e-14
5.1726282e-07
-1.0169796e-08
5.1726285e-07
-2.1068179e-08
5.1859431e-07
-3.3393941e-08
5.2122177e-07
-4.7661065e-08
5.2517886e-07
-6.3876037e-08
5.3012252e-07
-8.0728388e-08
5.3471662e-07
-9.7364273e-08
5.3495665e-07
-1.017328e-07
5.2293719e-07
-7.3868014e-08
4.669701e-07
2.8751389e-07
5.3760559e-08
2.3371902e-07
8.5676837e-08
4.3389153e-07
9.0295495e-08
5.1257932e-07
8.3547422e-08
5.4122507e-07
7.0356873e-08
5.4729313e-07
5.5127344e-08
5.4453045e-07
4.0057936e-08
5.3932051e-07
2.5920437e-08
5.343833e-07
1.2711949e-08
5.3081071e-07
-5.8336042e-14
5.2893457e-07
-1.2712068e-08
5.2893458e-07
-2.5920538e-08
5.3081073e-07
-4.0058026e-08
5.3438333e-07
-5.5127381e-08
5.3932056e-07
-7.0356803e-08
5.4453051e-07
-8.3547238e-08
5.4729319e-07
-9.0295455e-08
5.4122498e-07
-8.5676698e-08
5.1257948e-07
-5.3760482e-08
4.3389207e-07
2.3372002e-07
3.4197288e-08
1.9464523e-07
6.240609e-08
4.03359e-07
7.4585377e-08
5.0124438e-07
7.3997734e-08
5.4234924e-07
6.5758834e-08
5.557673e-07
5.3751428e-08
5.5661866e-07
4.0333522e-08
5.5272581e-07
2.669742e-08
5.4796086e-07
1.3276265e-08
5.441488e-07
-6.8625335e-14
5.4207049e-07
-1.3276396e-08
5.4207049e-07
-2.6697548e-08
5.441488e-07
-4.0333638e-08
5.4796085e-07
-5.3751465e-08
5.5272584e-07
-6.5758798e-08
5.5661866e-07
-7.39976e-08
5.5576728e-07
-7.4585195e-08
5.4234911e-07
-6.2405934e-08
5.0124431e-07
-3.4197165e-08
4.0335929e-07
1.9464608e-07
2.1478623e-08
1.7451678e-07
4.3951741e-08
3.8181152e-07
5.69593e-08
4.8919816e-07
6.0065626e-08
5.3976192e-07
5.6005111e-08
5.6002088e-07
4.7551413e-08
5.6511186e-07
3.6734255e-08
5.6351381e-07
2.4822741e-08
5.5981652e-07
1.2498698e-08
5.5641331e-07
-5.1013871e-14
5.5446597e-07
-1.2498797e-08
5.5446596e-07
-2.4822857e-08
5.5641328e-07
-3.6734346e-08
5.5981648e-07
-4.7551444e-08
5.6351379e-07
-5.6005091e-08
5.6511183e-07
-6.0065576e-08
5.6002079e-07
-5.6959256e-08
5.3976184e-07
-4.3951798e-08
4.8919822e-07
-2.1478733e-08
3.818118e-07
1.7451753e-07
1.3094302e-08
1.6245476e-07
2.9591125e-08
3.6597677e-07
4.1265411e-08
4.7833902e-07
4.6004978e-08
5.3547213e-07
4.4823045e-08
5.6136565e-07
3.9401856e-08
5.7054852e-07
3.1257504e-08
5.7160401e-07
2.1522318e-08
5.6946751e-07
1.0958309e-08
5.6688837e-07
-3.8939916e-14
5.6529864e-07
-1.0958388e-08
5.6529864e-07
-2.1522387e-08
5.6688835e-07
-3.1257556e-08
5.6946744e-07
-3.9401863e-08
5.7160395e-07
-4.4823025e-08
5.7054847e-07
-4.6004972e-08
5.6136557e-07
-4.1265447e-08
5.354721e-07
-2.9591213e-08
4.7833916e-07
-1.3094476e-08
3.6597709e-07
1.6245533e-07
7.8719786e-09
1.5528728e-07
1.9329736e-08
3.5497553e-07
2.8781805e-08
4.695231e-07
3.3769765e-08
5.3087499e-07
3.4266819e-08
5.610405e-07
3.1103315e-08
5.7375857e-07
2.5283538e-08
5.7740464e-07
1.7710008e-08
5.7699076e-07
9.107857e-09
5.7543287e-07
-2.3044047e-14
5.7431984e-07
-9.1079103e-09
5.7431981e-07
-1.7710062e-08
5.7543282e-07
-2.5283584e-08
5.769907e-07
-3.110336e-08
5.7740455e-07
-3.4266803e-08
5.7375852e-07
-3.3769772e-08
5.6104044e-07
-2.8781861e-08
5.30875e-07
-1.9329836e-08
4.6952326e-07
-7.8721268e-09
3.5497589e-07
1.5528773e-07
4.6997703e-09
1.5102897e-07
1.2350865e-08
3.4762226e-07
1.9487288e-08
4.6284817e-07
2.3966834e-08
5.2670927e-07
2.5258712e-08
5.5990908e-07
2.3622547e-08
5.7545791e-07
1.964182e-08
5.8139268e-07
1.3977456e-08
5.8263417e-07
7.2540435e-09
5.8212743e-07
-1.3311526e-14
5.8152382e-07
-7.2540827e-09
5.815238e-07
-1.3977486e-08
5.8212737e-07
-1.9641868e-08
5.826341e-07
-2.3622596e-08
5.8139263e-07
-2.5258706e-08
5.7545788e-07
-2.3966837e-08
5.5990906e-07
-1.9487354e-08
5.267093e-07
-1.2350972e-08
4.6284835e-07
-4.6998676e-09
3.4762262e-07
1.5102931e-07
2.7876526e-09
1.4850977e-07
7.7424382e-09
3.4286005e-07
1.2859805e-08
4.5804992e-07
1.652389e-08
5.2328034e-07
1.8048739e-08
5.5851758e-07
1.7362717e-08
5.7620535e-07
1.4747084e-08
5.8402559e-07
1.0650428e-08
5.8672464e-07
5.5740835e-09
5.8719007e-07
-4.0459252e-15
5.8706951e-07
-5.5741035e-09
5.8706949e-07
-1.0650434e-08
5.8719001e-07
-1.4747097e-08
5.8672458e-07
-1.7362737e-08
5.8402553e-07
-1.804877e-08
5.7620532e-07
-1.6523918e-08
5.5851759e-07
-1.285989e-08
5.2328042e-07
-7.7425254e-09
4.5805009e-07
-2.7876936e-09
3.4286038e-07
1.4851006e-07
1.6352663e-09
1.4703469e-07
4.7585552e-09
3.3986105e-07
8.2800432e-09
4.5474323e-07
1.1088592e-08
5.2064129e-07
1.2534984e-08
5.5717486e-07
1.2389891e-08
5.7640281e-07
1.0739861e-08
5.8569491e-07
7.8662566e-09
5.8959912e-07
4.1498493e-09
5.9090079e-07
3.8529649e-15
5.9120379e-07
-4.1498481e-09
5.9120377e-07
-7.8662608e-09
5.9090075e-07
-1.0739854e-08
5.8959907e-07
-1.2389901e-08
5.8569487e-07
-1.2535018e-08
5.764028e-07
-1.1088659e-08
5.5717492e-07
-8.2801477e-09
5.2064141e-07
-4.7587043e-09
4.5474346e-07
-1.6353732e-09
3.3986131e-07
1.4703485e-07
9.3930563e-10
1.4618902e-07
2.8540462e-09
3.3802609e-07
5.192255e-09
4.5254654e-07
7.2410081e-09
5.1871068e-07
8.4673251e-09
5.5602533e-07
8.5956031e-09
5.7631628e-07
7.6009349e-09
5.8670753e-07
5.6439213e-09
5.9156016e-07
3.0005149e-09
5.9354281e-07
4.2135599e-15
5.9419636e-07
-3.0005061e-09
5.9419634e-07
-5.6439259e-09
5.9354276e-07
-7.6009157e-09
5.9156013e-07
-8.5956117e-09
5.8670749e-07
-8.4673452e-09
5.763163e-07
-7.2410873e-09
5.5602542e-07
-5.1923374e-09
5.1871085e-07
-2.8541415e-09
4.5254682e-07
-9.3939646e-10
3.3802634e-07
1.4618909e-07
5.1987492e-10
1.4572226e-07
1.6561845e-09
3.3694013e-07
3.1569857e-09
4.5113681e-07
4.5909879e-09
5.1735633e-07
5.5579597e-09
5.5511292e-07
5.7971914e-09
5.761085e-07
5.2302861e-09
5.8728928e-07
3.9371344e-09
5.928581e-07
2.1092824e-09
5.9537116e-07
6.733462e-15
5.9630188e-07
-2.1092697e-09
5.9630187e-07
-3.9371303e-09
5.9537113e-07
-5.2302901e-09
5.9285808e-07
-5.7971946e-09
5.8728928e-07
-5.5579817e-09
5.7610855e-07
-4.5910388e-09
5.5511301e-07
-3.1570437e-09
5.1735651e-07
-1.6562607e-09
4.5113705e-07
-5.1992766e-10
3.3694036e-07
1.4572228e-07
2.7042911e-10
1.4548061e-07
9.1742243e-10
3.3632411e-07
1.8472498e-09
4.5026406e-07
2.8141153e-09
5.1644157e-07
3.5365281e-09
5.5442791e-07
3.7958886e-09
5.7587174e-07
3.4970275e-09
5.8759951e-07
2.6697867e-09
5.9368959e-07
1.4416637e-09
5.9660032e-07
1.1613564e-15
5.9774182e-07
-1.4416628e-09
5.9774182e-07
-2.669776e-09
5.9660029e-07
-3.4970378e-09
5.9368958e-07
-3.7958958e-09
5.875995e-07
-3.536539e-09
5.7587179e-07
-2.8141534e-09
5.5442803e-07
-1.8473028e-09
5.1644178e-07
-9.174734e-10
4.5026432e-07
-2.7047325e-10
3.3632432e-07
1.4548056e-07
1.2620772e-10
1.4536845e-07
4.74988e-10
3.3599346e-07
1.0287669e-09
4.4974468e-07
1.657398e-09
5.1584573e-07
2.173441e-09
5.5393642e-07
2.4075863e-09
5.7565297e-07
2.2685504e-09
5.8774656e-07
1.7580582e-09
5.9420324e-07
9.5731607e-10
5.9740186e-07
3.5378448e-16
5.9869815e-07
-9.5730739e-10
5.9869814e-07
-1.7580607e-09
5.9740182e-07
-2.2685596e-09
5.9420323e-07
-2.4075951e-09
5.8774656e-07
-2.173459e-09
5.7565304e-07
-1.6574223e-09
5.5393655e-07
-1.0287991e-09
5.1584593e-07
-4.7502803e-10
4.4974493e-07
-1.2624295e-10
3.3599368e-07
1.4536839e-07
4.7383577e-11
1.453268e-07
2.2266921e-10
3.3582729e-07
5.3817288e-10
4.4944811e-07
9.3192091e-10
5.1547093e-07
1.2855732e-09
5.5359756e-07
1.4759011e-09
5.7547217e-07
1.4255596e-09
5.8780199e-07
1.1227846e-09
5.9450818e-07
6.169044e-10
5.9790849e-07
-8.6049511e-15
5.9931479e-07
-6.1693059e-10
5.9931478e-07
-1.1228025e-09
5.9790846e-07
-1.4255652e-09
5.9450818e-07
-1.4759137e-09
5.8780201e-07
-1.2855841e-09
5.7547224e-07
-9.3195017e-10
5.5359769e-07
-5.3819988e-10
5.1547115e-07
-2.2272163e-10
4.4944839e-07
-4.7424673e-11
3.3582753e-07
1.4532669e-07
1.0878909e-11
1.4531593e-07
9.2116436e-11
3.3574735e-07
2.6433583e-10
4.4928364e-07
5.0167032e-10
5.1524277e-07
7.3362354e-10
5.5337343e-07
8.7577597e-10
5.75335e-07
8.6844344e-10
5.8781139e-07
6.9565036e-10
5.9468072e-07
3.8581723e-10
5.9821674e-07
-2.1428806e-14
5.9969818e-07
-3.8584227e-10
5.9969819e-07
-6.9567662e-10
5.9821673e-07
-8.6846068e-10
5.9468072e-07
-8.7579569e-10
5.878114e-07
-7.3363265e-10
5.7533507e-07
-5.017021e-10
5.5337358e-07
-2.6436613e-10
5.1524301e-07
-9.2145487e-11
4.4928394e-07
-1.0915763e-11
3.3574759e-07
1.4531582e-07
7.8785443e-13
3.8674768e-11
1.3402024e-10
2.7645173e-10
4.2471647e-10
5.2388058e-10
5.3117598e-10
4.3173128e-10
2.41466e-10
-3.4548944e-14
-2.4152087e-10
-4.3176442e-10
-5.3121621e-10
-5.238941e-10
-4.2472636e-10
-2.7647839e-10
-1.340353e-10
-3.8684391e-11
-8.1618841e-13
)
;

boundaryField
{
    Wall
    {
        type            calculated;
        value           uniform 0;
    }
    frontAndBack
    {
        type            empty;
        value           nonuniform 0();
    }
    atmosphere
    {
        type            calculated;
        value           nonuniform List<scalar> 
20
(
1.4531585e-07
3.3571534e-07
4.4920708e-07
5.1512938e-07
5.5325589e-07
5.7525698e-07
5.8780704e-07
5.9476205e-07
5.9837108e-07
5.9989364e-07
5.9989364e-07
5.983711e-07
5.9476207e-07
5.8780704e-07
5.7525703e-07
5.5325604e-07
5.1512962e-07
4.4920738e-07
3.3571556e-07
1.4531573e-07
)
;
    }
}


// ************************************************************************* //
