/*--------------------------------*- C++ -*----------------------------------*\
| =========                 |                                                 |
| \\      /  F ield         | OpenFOAM: The Open Source CFD Toolbox           |
|  \\    /   O peration     | Version:  3.0.1                                 |
|   \\  /    A nd           | Web:      www.OpenFOAM.org                      |
|    \\/     M anipulation  |                                                 |
\*---------------------------------------------------------------------------*/
FoamFile
{
    version     2.0;
    format      ascii;
    class       volScalarField;
    location    "28";
    object      Psi2;
}
// * * * * * * * * * * * * * * * * * * * * * * * * * * * * * * * * * * * * * //

dimensions      [0 -2 2 0 0 0 0];

internalField   nonuniform List<scalar> 
800
(
0.00076102856
0.00076096237
0.0007609523
0.00076095171
0.00076095206
0.0007609523
0.00076095236
0.00076095234
0.00076095231
0.0007609523
0.00076095229
0.00076095231
0.00076095235
0.00076095236
0.0007609523
0.00076095206
0.00076095171
0.00076095229
0.00076096237
0.00076102855
0.00077475606
0.00077394443
0.0007737701
0.00077374003
0.00077374382
0.00077375179
0.00077375749
0.00077376054
0.00077376191
0.00077376241
0.00077376241
0.00077376191
0.00077376055
0.00077375749
0.00077375179
0.00077374383
0.00077374004
0.00077377011
0.00077394445
0.00077475611
0.00078922664
0.00078790914
0.00078751568
0.00078744019
0.00078743836
0.00078744933
0.00078745826
0.00078746325
0.00078746553
0.00078746634
0.00078746634
0.00078746553
0.00078746326
0.00078745827
0.00078744935
0.00078743839
0.00078744022
0.00078751572
0.00078790919
0.00078922674
0.00080274907
0.0008010409
0.00080045115
0.0008003382
0.00080033224
0.0008003459
0.00080035745
0.00080036392
0.00080036686
0.00080036788
0.00080036788
0.00080036687
0.00080036393
0.00080035747
0.00080034592
0.00080033228
0.00080033824
0.0008004512
0.00080104096
0.00080274918
0.00081409473
0.00081214573
0.0008113975
0.00081124483
0.00081123952
0.00081125757
0.00081127224
0.00081128031
0.00081128396
0.00081128519
0.00081128519
0.00081128396
0.00081128033
0.00081127226
0.0008112576
0.00081123956
0.00081124487
0.00081139756
0.00081214579
0.00081409484
0.00082265153
0.00082059405
0.0008197258
0.00081952815
0.00081952905
0.00081955416
0.00081957309
0.00081958338
0.00081958804
0.00081958963
0.00081958963
0.00081958805
0.0008195834
0.00081957311
0.00081955418
0.00081952909
0.00081952818
0.00081972585
0.00082059411
0.00082265162
0.00082844263
0.00082632577
0.00082539263
0.00082514858
0.00082516112
0.00082519632
0.00082522116
0.00082523472
0.00082524097
0.00082524319
0.00082524319
0.00082524098
0.00082523474
0.00082522118
0.00082519635
0.00082516115
0.00082514861
0.00082539266
0.00082632581
0.0008284427
0.00083198321
0.00082974673
0.00082880854
0.00082852138
0.00082855
0.00082859837
0.00082863104
0.00082864917
0.00082865776
0.000828661
0.000828661
0.00082865777
0.00082864918
0.00082863106
0.00082859839
0.00082855003
0.0008285214
0.00082880857
0.00082974676
0.00083198325
0.00083423372
0.00083168955
0.00083079565
0.00083047125
0.00083049925
0.00083056359
0.00083060613
0.0008306302
0.00083064197
0.00083064664
0.00083064664
0.00083064198
0.00083063021
0.00083060615
0.0008305636
0.00083049926
0.00083047126
0.00083079566
0.00083168957
0.00083423374
0.00083647267
0.00083326934
0.00083245044
0.0008320946
0.00083208409
0.0008321427
0.00083219711
0.00083222839
0.00083224418
0.00083225068
0.00083225068
0.00083224419
0.00083222841
0.00083219713
0.00083214272
0.0008320841
0.00083209461
0.00083245045
0.00083326934
0.00083647269
0.00084022902
0.00083584484
0.00083506934
0.00083468581
0.00083457012
0.00083457544
0.00083464375
0.00083468347
0.00083470428
0.00083471303
0.00083471303
0.00083470429
0.00083468349
0.00083464377
0.00083457546
0.00083457013
0.00083468582
0.00083506934
0.00083584484
0.00084022903
0.0008472745
0.00084106637
0.00084015597
0.00083975047
0.00083943569
0.00083933803
0.00083942239
0.00083947173
0.00083949983
0.0008395114
0.0008395114
0.00083949985
0.00083947175
0.00083942242
0.00083933805
0.00083943572
0.00083975048
0.00084015598
0.00084106637
0.00084727452
0.00085971083
0.00085092472
0.00084950825
0.00084911693
0.00084849787
0.00084826789
0.00084837042
0.00084843129
0.00084842354
0.0008484402
0.00084844021
0.00084842356
0.00084843133
0.00084837046
0.00084826793
0.00084849791
0.00084911696
0.00084950828
0.00085092475
0.00085971088
0.00088033489
0.00086795079
0.00086551783
0.00086509051
0.00086407056
0.0008637043
0.00086382525
0.00086389736
0.00086380065
0.00086382767
0.00086382768
0.00086380069
0.00086389741
0.00086382531
0.00086370436
0.00086407062
0.00086509057
0.00086551789
0.00086795085
0.00088033499
0.00091073536
0.00089346474
0.00088937853
0.00088862454
0.00088713537
0.0008866531
0.00088682311
0.0008869933
0.00088676107
0.00088668533
0.00088668534
0.00088676111
0.00088699336
0.00088682318
0.00088665318
0.00088713546
0.00088862463
0.00088937863
0.00089346486
0.00091073552
0.00095194153
0.00092784025
0.00092120731
0.00091965259
0.00091765066
0.00091712965
0.00091746095
0.00091767155
0.00091725749
0.00091690935
0.00091690937
0.00091725754
0.00091767163
0.00091746105
0.00091712975
0.00091765077
0.00091965271
0.00092120745
0.00092784041
0.00095194174
0.0010151571
0.00098115422
0.00097064998
0.000967703
0.00096479512
0.00096432741
0.00096482616
0.00096504222
0.00096444478
0.00096371511
0.00096371513
0.00096444484
0.00096504231
0.00096482627
0.00096432753
0.00096479526
0.00096770316
0.00097065016
0.00098115442
0.0010151573
0.0011131854
0.0010642658
0.001047565
0.0010424861
0.0010378553
0.0010372808
0.0010377863
0.0010379986
0.0010372019
0.0010360588
0.0010360588
0.001037202
0.0010379987
0.0010377865
0.0010372809
0.0010378555
0.0010424863
0.0010475652
0.0010642661
0.0011131855
0.0012707406
0.001197643
0.0011703752
0.0011619592
0.0011540964
0.0011529295
0.0011531843
0.0011533776
0.0011519845
0.001150415
0.001150415
0.0011519846
0.0011533777
0.0011531844
0.0011529296
0.0011540966
0.0011619594
0.0011703755
0.0011976432
0.0012707407
0.0015320781
0.001420177
0.0013744017
0.0013597354
0.0013458003
0.0013428555
0.0013425968
0.0013427572
0.0013402156
0.0013381739
0.0013381739
0.0013402156
0.0013427573
0.0013425969
0.0013428556
0.0013458005
0.0013597356
0.001374402
0.0014201771
0.0015320778
0.0019667316
0.0017923613
0.0017145758
0.0016863096
0.0016637628
0.0016586541
0.0016576945
0.0016578627
0.0016536562
0.0016511143
0.0016511144
0.0016536563
0.0016578628
0.0016576946
0.0016586543
0.001663763
0.0016863098
0.001714576
0.0017923612
0.0019667306
0.0026894531
0.0024180625
0.0022848088
0.002234267
0.0021998042
0.0021910201
0.0021886806
0.0021887179
0.0021827254
0.0021797356
0.0021797356
0.0021827253
0.0021887179
0.0021886806
0.0021910201
0.0021998042
0.002234267
0.0022848086
0.0024180616
0.0026894501
0.0038180951
0.0033270544
0.0030813828
0.0029807192
0.0029258137
0.0029105355
0.0029074053
0.002908689
0.0029020421
0.0028994106
0.0028994106
0.002902042
0.0029086888
0.0029074049
0.0029105351
0.0029258134
0.0029807189
0.0030813821
0.0033270521
0.0038180884
0.0056351942
0.0045495096
0.0040961114
0.0039044691
0.0038165715
0.0037924605
0.0037926992
0.0038005229
0.0037983624
0.0037986153
0.0037986152
0.0037983621
0.0038005223
0.0037926984
0.0037924596
0.0038165709
0.0039044685
0.0040961103
0.0045495061
0.0056351821
0.0080075571
0.0060472173
0.0052779276
0.0049483487
0.0048100195
0.0047760849
0.004785622
0.0048077415
0.0048175075
0.0048244972
0.004824497
0.0048175071
0.0048077409
0.0047856209
0.0047760836
0.0048100188
0.0049483483
0.0052779263
0.0060472126
0.0080075432
0.0098750119
0.0076082766
0.0065395744
0.0060542264
0.0058511214
0.0058007515
0.0058193915
0.0058588673
0.005885522
0.0059021213
0.0059021212
0.0058855217
0.0058588668
0.0058193906
0.0058007506
0.0058511209
0.006054226
0.0065395731
0.0076082716
0.0098750031
0.010685401
0.0089439982
0.0077497441
0.007144914
0.0068803123
0.0068085415
0.0068299
0.0068819638
0.0069232448
0.006948477
0.0069484771
0.0069232448
0.0068819637
0.0068298996
0.0068085411
0.0068803124
0.007144914
0.0077497428
0.0089439938
0.010685398
0.010907815
0.0098833033
0.008785407
0.0081398026
0.0078366208
0.0077447601
0.007761417
0.0078169535
0.0078656627
0.0078955507
0.0078955509
0.0078656629
0.0078169539
0.0077614172
0.0077447603
0.0078366215
0.008139803
0.0087854063
0.0098833006
0.010907814
0.010954297
0.010439742
0.0095800767
0.0089778522
0.0086695417
0.0085653364
0.0085726709
0.0086229202
0.0086708327
0.0087005754
0.0087005756
0.0086708332
0.008622921
0.0085726716
0.0085653371
0.0086695427
0.0089778529
0.0095800763
0.01043974
0.010954297
0.010962638
0.010727981
0.010133703
0.0096319923
0.0093496626
0.0092439656
0.0092413794
0.0092810428
0.0093221658
0.0093481069
0.0093481072
0.0093221665
0.0092810438
0.0092413804
0.0092439665
0.0093496636
0.0096319931
0.010133702
0.010727981
0.010962638
0.010964009
0.0108635
0.010489486
0.010108451
0.0098720378
0.0097747689
0.0097646618
0.0097924151
0.0098241039
0.0098445044
0.0098445047
0.0098241046
0.0097924161
0.0097646628
0.0097747698
0.0098720386
0.010108451
0.010489486
0.010863499
0.010964009
0.010964223
0.010923024
0.010703688
0.010435173
0.010251526
0.01016911
0.010155038
0.010172353
0.010194709
0.010209472
0.010209472
0.010194709
0.010172354
0.010155039
0.010169111
0.010251527
0.010435174
0.010703688
0.010923024
0.010964223
0.010964255
0.010947926
0.010826102
0.010648024
0.010514018
0.010448867
0.010434031
0.010443585
0.010458223
0.010468204
0.010468204
0.010458224
0.010443585
0.010434032
0.010448868
0.010514018
0.010648024
0.010826102
0.010947926
0.010964255
0.01096426
0.010957965
0.010893172
0.010780824
0.010688028
0.010639443
0.010625986
0.010630477
0.010639455
0.010645829
0.010645829
0.010639456
0.010630477
0.010625986
0.010639444
0.010688028
0.010780824
0.010893172
0.010957965
0.01096426
0.010964261
0.010961893
0.010928652
0.01086069
0.01079922
0.010764737
0.010753694
0.010755263
0.010760447
0.010764323
0.010764323
0.010760448
0.010755263
0.010753694
0.010764737
0.01079922
0.01086069
0.010928652
0.010961893
0.010964261
0.010964261
0.01096339
0.010946859
0.010907214
0.010868028
0.010844571
0.010836157
0.010836258
0.01083908
0.010841336
0.010841336
0.01083908
0.010836258
0.010836157
0.010844571
0.010868028
0.010907214
0.010946859
0.01096339
0.010964261
0.010964261
0.010963948
0.010955952
0.010933558
0.010909409
0.010894037
0.010887989
0.010887492
0.010888934
0.010890196
0.010890196
0.010888934
0.010887492
0.010887989
0.010894037
0.010909409
0.010933558
0.010955952
0.010963948
0.010964261
0.010964261
0.010964151
0.010960381
0.010948096
0.010933661
0.010923916
0.010919772
0.010919135
0.01091982
0.010920499
0.010920499
0.01091982
0.010919136
0.010919772
0.010923916
0.010933661
0.010948095
0.010960381
0.010964151
0.010964261
0.010964261
0.010964223
0.010962487
0.010955927
0.010947538
0.010941544
0.010938819
0.010938246
0.01093854
0.010938892
0.010938892
0.01093854
0.010938246
0.010938819
0.010941544
0.010947538
0.010955927
0.010962487
0.010964223
0.010964261
0.010964261
0.010964248
0.010963467
0.010960051
0.010955301
0.010951716
0.010949987
0.010949544
0.010949651
0.010949826
0.010949826
0.010949651
0.010949544
0.010949987
0.010951716
0.010955301
0.010960051
0.010963467
0.010964248
0.010964261
)
;

boundaryField
{
    Wall
    {
        type            calculated;
        value           nonuniform List<scalar> 
100
(
9.9999998e-21
9.9999998e-21
9.9999998e-21
9.9999998e-21
9.9999998e-21
9.9999998e-21
9.9999998e-21
9.9999998e-21
9.9999998e-21
9.9999998e-21
9.9999998e-21
9.9999998e-21
9.9999998e-21
9.9999998e-21
9.9999998e-21
9.9999998e-21
9.9999998e-21
9.9999998e-21
9.9999999e-21
9.9999999e-21
9.9999999e-21
1e-20
1e-20
1e-20
1e-20
1e-20
1e-20
1e-20
1e-20
1e-20
1e-20
1e-20
1e-20
1e-20
1e-20
1e-20
1e-20
1e-20
1e-20
1e-20
9.9999998e-21
9.9999998e-21
9.9999998e-21
9.9999998e-21
9.9999998e-21
9.9999998e-21
9.9999998e-21
9.9999998e-21
9.9999998e-21
9.9999998e-21
9.9999998e-21
9.9999998e-21
9.9999998e-21
9.9999998e-21
9.9999998e-21
9.9999998e-21
9.9999998e-21
9.9999998e-21
9.9999999e-21
9.9999999e-21
9.9999999e-21
1e-20
1e-20
1e-20
1e-20
1e-20
1e-20
1e-20
1e-20
1e-20
1e-20
1e-20
1e-20
1e-20
1e-20
1e-20
1e-20
1e-20
1e-20
1e-20
9.9999998e-21
9.9999998e-21
9.9999998e-21
9.9999998e-21
9.9999998e-21
9.9999998e-21
9.9999998e-21
9.9999998e-21
9.9999998e-21
9.9999998e-21
9.9999998e-21
9.9999998e-21
9.9999998e-21
9.9999998e-21
9.9999998e-21
9.9999998e-21
9.9999998e-21
9.9999998e-21
9.9999998e-21
9.9999998e-21
)
;
    }
    frontAndBack
    {
        type            empty;
    }
    atmosphere
    {
        type            calculated;
        value           uniform 1e-20;
    }
}


// ************************************************************************* //
