/*--------------------------------*- C++ -*----------------------------------*\
| =========                 |                                                 |
| \\      /  F ield         | OpenFOAM: The Open Source CFD Toolbox           |
|  \\    /   O peration     | Version:  3.0.1                                 |
|   \\  /    A nd           | Web:      www.OpenFOAM.org                      |
|    \\/     M anipulation  |                                                 |
\*---------------------------------------------------------------------------*/
FoamFile
{
    version     2.0;
    format      ascii;
    class       volScalarField;
    location    "28";
    object      rho;
}
// * * * * * * * * * * * * * * * * * * * * * * * * * * * * * * * * * * * * * //

dimensions      [1 -3 0 0 0 0 0];

internalField   nonuniform List<scalar> 
800
(
76.102857
76.096239
76.095232
76.095173
76.095207
76.095232
76.095238
76.095236
76.095233
76.095231
76.095231
76.095233
76.095236
76.095237
76.095231
76.095207
76.095172
76.095231
76.096238
76.102856
77.475608
77.394444
77.377011
77.374005
77.374383
77.37518
77.37575
77.376056
77.376193
77.376242
77.376242
77.376193
77.376056
77.375751
77.375181
77.374384
77.374006
77.377013
77.394447
77.475613
78.92266
78.790911
78.751565
78.744016
78.743833
78.74493
78.745823
78.746322
78.74655
78.746631
78.746631
78.74655
78.746323
78.745824
78.744931
78.743836
78.744019
78.751569
78.790916
78.92267
80.274883
80.104068
80.045095
80.033799
80.033204
80.034569
80.035725
80.036372
80.036666
80.036768
80.036768
80.036666
80.036373
80.035727
80.034572
80.033208
80.033803
80.0451
80.104075
80.274894
81.409406
81.214512
81.139692
81.124426
81.123894
81.1257
81.127166
81.127973
81.128338
81.128461
81.128461
81.128339
81.127975
81.127168
81.125703
81.123898
81.12443
81.139698
81.214519
81.409417
82.265008
82.059276
81.972456
81.952691
81.952781
81.955292
81.957185
81.958214
81.95868
81.958839
81.958839
81.958681
81.958216
81.957187
81.955295
81.952785
81.952695
81.972461
82.059282
82.265017
82.843999
82.632341
82.539037
82.514634
82.515887
82.519407
82.52189
82.523246
82.523871
82.524093
82.524093
82.523872
82.523248
82.521892
82.51941
82.51589
82.514636
82.53904
82.632345
82.844006
83.197889
82.974287
82.880486
82.851772
82.854634
82.85947
82.862736
82.864549
82.865408
82.865732
82.865731
82.865409
82.86455
82.862738
82.859472
82.854637
82.851774
82.880488
82.97429
83.197894
83.42272
83.168371
83.07901
83.046574
83.049373
83.055806
83.06006
83.062465
83.063642
83.064109
83.064108
83.063643
83.062467
83.060061
83.055808
83.049375
83.046576
83.079011
83.168372
83.422723
83.646338
83.326099
83.244257
83.208679
83.207626
83.213486
83.218925
83.222052
83.22363
83.22428
83.22428
83.223631
83.222054
83.218927
83.213487
83.207627
83.208679
83.244258
83.326099
83.64634
84.021635
83.583342
83.505864
83.467522
83.455951
83.45648
83.463309
83.467279
83.469359
83.470234
83.470234
83.46936
83.467281
83.463311
83.456482
83.455952
83.467523
83.505865
83.583342
84.021636
84.725778
84.105121
84.014193
83.97366
83.94218
83.93241
83.940843
83.945774
83.948583
83.94974
83.94974
83.948585
83.945777
83.940846
83.932412
83.942182
83.973662
84.014194
84.105121
84.725781
85.968923
85.090499
84.949033
84.909922
84.848012
84.825009
84.835258
84.841343
84.840566
84.842231
84.842232
84.840568
84.841346
84.835262
84.825013
84.848015
84.909925
84.949036
85.090501
85.968928
88.030736
86.792581
86.549552
86.506826
86.404826
86.368195
86.380285
86.387493
86.377821
86.380522
86.380523
86.377824
86.387498
86.38029
86.368201
86.404832
86.506832
86.549558
86.792588
88.030746
91.07008
89.343471
88.935094
88.859685
88.710762
88.662528
88.679523
88.696539
88.673314
88.66574
88.665741
88.673318
88.696545
88.679531
88.662537
88.710771
88.859694
88.935104
89.343482
91.070097
95.189782
92.780427
92.117276
91.961801
91.761603
91.709494
91.742617
91.763673
91.722267
91.687453
91.687455
91.722272
91.763681
91.742627
91.709505
91.761614
91.961813
92.11729
92.780443
95.189803
101.50956
98.110664
97.060415
96.765746
96.474968
96.428193
96.478062
96.499665
96.439926
96.366962
96.366964
96.439931
96.499675
96.478074
96.428206
96.474982
96.765762
97.060433
98.110684
101.50958
111.30644
106.41831
104.74898
104.24129
103.77832
103.7209
103.77148
103.79272
103.71307
103.59877
103.59877
103.71308
103.79273
103.77149
103.72092
103.77834
104.24131
104.749
106.41833
111.30645
127.01914
119.73378
117.01343
116.17362
115.38845
115.27226
115.29802
115.3175
115.1784
115.02155
115.02155
115.17841
115.31751
115.29803
115.27228
115.38847
116.17365
117.01345
119.7338
127.01915
152.34365
141.65287
137.19369
135.7597
134.38664
134.10129
134.08018
134.09886
133.84761
133.64487
133.64487
133.84762
134.09887
134.0802
134.10131
134.38666
135.75972
137.19371
141.65289
152.34365
158.37352
163.42927
161.35761
160.3167
159.0636
159.00974
159.17204
159.33326
159.0606
158.87596
158.87597
159.06063
159.33331
159.1721
159.00982
159.06369
160.31681
161.35776
163.42953
158.37427
50.929536
75.174432
86.720356
91.700964
95.047549
97.152475
98.572627
99.464043
100.00808
100.24446
100.24451
100.00822
99.464249
98.572909
97.152825
95.047958
91.70143
86.720889
75.175103
50.930302
3.92918
7.4622932
9.7885345
10.924371
11.838951
12.389695
12.763113
12.99785
13.183697
13.270319
13.270329
13.183732
12.997904
12.763186
12.389784
11.83905
10.924476
9.7886403
7.4623985
3.9292633
1.2136495
1.2648613
1.3126476
1.3375518
1.3581582
1.3710722
1.3801641
1.3860117
1.3910884
1.3934634
1.3934637
1.3910893
1.3860131
1.380166
1.3710744
1.3581605
1.3375541
1.3126498
1.2648631
1.2136503
1.2000027
1.2000444
1.2001164
1.2001603
1.2001941
1.2002148
1.2002299
1.2002398
1.2002493
1.2002537
1.2002537
1.2002493
1.2002398
1.2002299
1.2002148
1.2001941
1.2001603
1.2001164
1.2000444
1.2000027
1.2000002
1.2000003
1.2000002
1.2000002
1.2000002
1.2000002
1.2000002
1.2000002
1.2000002
1.2000002
1.2000002
1.2000002
1.2000002
1.2000002
1.2000002
1.2000002
1.2000002
1.2000002
1.2000003
1.2000002
1.2
1.2000002
1.2000002
1.2000003
1.2000003
1.2000003
1.2000003
1.2000003
1.2000003
1.2000003
1.2000003
1.2000003
1.2000003
1.2000003
1.2000003
1.2000003
1.2000003
1.2000002
1.2000002
1.2
1.2
1.2000002
1.2000002
1.2000003
1.2000003
1.2000004
1.2000004
1.2000004
1.2000004
1.2000004
1.2000004
1.2000004
1.2000004
1.2000004
1.2000004
1.2000003
1.2000003
1.2000002
1.2000002
1.2
1.2
1.2000001
1.2000002
1.2000003
1.2000004
1.2000004
1.2000004
1.2000004
1.2000004
1.2000004
1.2000004
1.2000004
1.2000004
1.2000004
1.2000004
1.2000004
1.2000003
1.2000002
1.2000001
1.2
1.2
1.2000001
1.2000002
1.2000003
1.2000004
1.2000004
1.2000004
1.2000004
1.2000004
1.2000004
1.2000004
1.2000004
1.2000004
1.2000004
1.2000004
1.2000004
1.2000003
1.2000002
1.2000001
1.2
1.2
1.2
1.2000001
1.2000003
1.2000003
1.2000004
1.2000004
1.2000004
1.2000004
1.2000004
1.2000004
1.2000004
1.2000004
1.2000004
1.2000004
1.2000003
1.2000003
1.2000001
1.2
1.2
1.2
1.2
1.2000001
1.2000002
1.2000003
1.2000003
1.2000004
1.2000004
1.2000004
1.2000004
1.2000004
1.2000004
1.2000004
1.2000004
1.2000003
1.2000003
1.2000002
1.2000001
1.2
1.2
1.2
1.2
1.2000001
1.2000002
1.2000002
1.2000003
1.2000003
1.2000003
1.2000003
1.2000003
1.2000003
1.2000003
1.2000003
1.2000003
1.2000003
1.2000002
1.2000002
1.2000001
1.2
1.2
1.2
1.2
1.2
1.2000001
1.2000002
1.2000002
1.2000002
1.2000003
1.2000002
1.2000002
1.2000002
1.2000002
1.2000003
1.2000002
1.2000002
1.2000002
1.2000001
1.2
1.2
1.2
1.2
1.2
1.2
1.2000001
1.2000001
1.2000002
1.2000002
1.2000002
1.2000002
1.2000002
1.2000002
1.2000002
1.2000002
1.2000002
1.2000002
1.2000001
1.2000001
1.2
1.2
1.2
1.2
1.2
1.2
1.2000001
1.2000001
1.2000001
1.2000001
1.2000001
1.2000001
1.2000001
1.2000001
1.2000001
1.2000001
1.2000001
1.2000001
1.2000001
1.2000001
1.2
1.2
1.2
1.2
1.2
1.2
1.2
1.2000001
1.2000001
1.2000001
1.2000001
1.2000001
1.2000001
1.2000001
1.2000001
1.2000001
1.2000001
1.2000001
1.2000001
1.2
1.2
1.2
1.2
1.2
1.2
1.2
1.2
1.2
1.2000001
1.2000001
1.2000001
1.2000001
1.2000001
1.2000001
1.2000001
1.2000001
1.2000001
1.2000001
1.2
1.2
1.2
1.2
1.2
1.2
1.2
1.2
1.2
1.2
1.2
1.2
1.2
1.2
1.2
1.2
1.2
1.2
1.2
1.2
1.2
1.2
1.2
1.2
1.2
1.2
1.2
1.2
1.2
1.2
1.2
1.2
1.2
1.2
1.2
1.2
1.2
1.2
1.2
1.2
1.2
1.2
1.2
1.2
1.2
)
;

boundaryField
{
    Wall
    {
        type            calculated;
        value           nonuniform List<scalar> 
100
(
1e-15
2.1324726e-12
8.5346555e-08
3.8391035e-07
1.0327759e-06
2.1645685e-06
3.8984404e-06
6.3315663e-06
9.5330787e-06
1.3542659e-05
1.8374404e-05
2.4035804e-05
3.0602324e-05
3.8063326e-05
4.6156287e-05
5.5816749e-05
7.3591677e-05
0.00013186544
0.00052358007
0.0068219487
0.2351196
0.97711862
1.1913953
1.1999709
1.2
1.2
1.2
1.2
1.2
1.2
1.2
1.2
1.2
1.2
1.2
1.2
1.2
1.2
1.2
1.2
1e-15
1.0290077e-14
8.5346152e-08
3.8391295e-07
1.0327832e-06
2.1645815e-06
3.8984585e-06
6.3315871e-06
9.533099e-06
1.3542677e-05
1.8374419e-05
2.4035817e-05
3.060234e-05
3.8063355e-05
4.6156331e-05
5.5816785e-05
7.3591631e-05
0.00013186481
0.00052357247
0.006821763
0.23511449
0.97711494
1.1913951
1.1999709
1.2
1.2
1.2
1.2
1.2
1.2
1.2
1.2
1.2
1.2
1.2
1.2
1.2
1.2
1.2
1.2
1e-15
1e-15
1.0000005e-15
1.000001e-15
1e-15
1.0000013e-15
1.0000011e-15
1.0000001e-15
1e-15
1e-15
1e-15
1e-15
1e-15
1.0000001e-15
1.0000001e-15
1e-15
1e-15
1e-15
1e-15
1e-15
)
;
    }
    frontAndBack
    {
        type            empty;
    }
    atmosphere
    {
        type            calculated;
        value           nonuniform List<scalar> 
20
(
1.2
1.2
1.2
1.2
1.2
1.2
1.2
1.2
1.2
1.2
1.2
1.2
1.2
1.2
1.2
1.2
1.2
1.2
1.2
1.2
)
;
    }
}


// ************************************************************************* //
