/*--------------------------------*- C++ -*----------------------------------*\
| =========                 |                                                 |
| \\      /  F ield         | OpenFOAM: The Open Source CFD Toolbox           |
|  \\    /   O peration     | Version:  3.0.1                                 |
|   \\  /    A nd           | Web:      www.OpenFOAM.org                      |
|    \\/     M anipulation  |                                                 |
\*---------------------------------------------------------------------------*/
FoamFile
{
    version     2.0;
    format      ascii;
    class       volScalarField;
    location    "28";
    object      rho_foam;
}
// * * * * * * * * * * * * * * * * * * * * * * * * * * * * * * * * * * * * * //

dimensions      [1 -3 0 0 0 0 0];

internalField   nonuniform List<scalar> 
800
(
76.102857
76.096239
76.095232
76.095173
76.095207
76.095232
76.095238
76.095236
76.095233
76.095231
76.095231
76.095233
76.095236
76.095237
76.095231
76.095207
76.095172
76.095231
76.096238
76.102856
77.475608
77.394444
77.377011
77.374005
77.374383
77.37518
77.37575
77.376056
77.376193
77.376242
77.376242
77.376193
77.376056
77.375751
77.375181
77.374384
77.374006
77.377013
77.394447
77.475613
78.922666
78.790916
78.75157
78.744021
78.743838
78.744934
78.745827
78.746326
78.746554
78.746636
78.746635
78.746555
78.746328
78.745829
78.744936
78.74384
78.744024
78.751573
78.790921
78.922675
80.274908
80.104091
80.045117
80.033821
80.033226
80.034591
80.035747
80.036393
80.036687
80.03679
80.036789
80.036688
80.036395
80.035748
80.034594
80.033229
80.033825
80.045122
80.104098
80.274919
81.409475
81.214574
81.139752
81.124485
81.123953
81.125759
81.127225
81.128033
81.128397
81.128521
81.128521
81.128398
81.128035
81.127227
81.125762
81.123957
81.124489
81.139757
81.214581
81.409486
82.265154
82.059407
81.972582
81.952816
81.952906
81.955417
81.95731
81.95834
81.958806
81.958965
81.958965
81.958807
81.958342
81.957312
81.95542
81.95291
81.95282
81.972586
82.059413
82.265164
82.844264
82.632578
82.539264
82.514859
82.516113
82.519634
82.522117
82.523473
82.524098
82.524321
82.524321
82.524099
82.523475
82.522119
82.519636
82.516116
82.514862
82.539268
82.632583
82.844271
83.198322
82.974675
82.880856
82.852139
82.855002
82.859838
82.863105
82.864918
82.865778
82.866102
82.866102
82.865779
82.86492
82.863107
82.85984
82.855004
82.852141
82.880858
82.974677
83.198327
83.423373
83.168957
83.079566
83.047127
83.049926
83.05636
83.060615
83.063022
83.064199
83.064665
83.064665
83.0642
83.063023
83.060617
83.056362
83.049928
83.047128
83.079567
83.168958
83.423376
83.647269
83.326936
83.245046
83.209462
83.20841
83.214272
83.219713
83.222841
83.22442
83.225069
83.225069
83.224421
83.222842
83.219714
83.214273
83.208412
83.209462
83.245046
83.326936
83.64727
84.022904
83.584486
83.506935
83.468583
83.457013
83.457546
83.464377
83.468348
83.470429
83.471304
83.471305
83.470431
83.46835
83.464379
83.457547
83.457015
83.468583
83.506935
83.584486
84.022905
84.727451
84.106638
84.015599
83.975048
83.943571
83.933804
83.942241
83.947174
83.949984
83.951141
83.951141
83.949986
83.947177
83.942243
83.933807
83.943573
83.97505
84.0156
84.106638
84.727454
85.971084
85.092474
84.950827
84.911695
84.849789
84.826791
84.837044
84.843131
84.842355
84.844021
84.844022
84.842357
84.843134
84.837048
84.826795
84.849792
84.911697
84.95083
85.092476
85.97109
88.03349
86.79508
86.551784
86.509052
86.407058
86.370432
86.382526
86.389738
86.380067
86.382769
86.38277
86.38007
86.389743
86.382532
86.370438
86.407064
86.509058
86.55179
86.795086
88.033501
91.073537
89.346476
88.937854
88.862455
88.713538
88.665311
88.682312
88.699331
88.676108
88.668534
88.668535
88.676112
88.699338
88.68232
88.665319
88.713547
88.862464
88.937864
89.346487
91.073554
95.194154
92.784027
92.120733
91.965261
91.765067
91.712966
91.746097
91.767156
91.72575
91.690936
91.690938
91.725755
91.767164
91.746106
91.712977
91.765079
91.965273
92.120747
92.784042
95.194175
101.51571
98.115424
97.064999
96.770302
96.479513
96.432742
96.482617
96.504223
96.44448
96.371512
96.371514
96.444485
96.504233
96.482629
96.432755
96.479528
96.770317
97.065017
98.115444
101.51573
111.31854
106.42659
104.7565
104.24861
103.78554
103.72808
103.77863
103.79986
103.72019
103.60588
103.60588
103.7202
103.79987
103.77865
103.72809
103.78555
104.24863
104.75652
106.42661
111.31855
127.07407
119.7643
117.03752
116.19592
115.40964
115.29295
115.31843
115.33776
115.19846
115.0415
115.04151
115.19846
115.33777
115.31845
115.29297
115.40966
116.19594
117.03755
119.76433
127.07407
153.20781
142.0177
137.44017
135.97354
134.58003
134.28555
134.25968
134.27572
134.02156
133.81739
133.81739
134.02156
134.27573
134.25969
134.28556
134.58005
135.97356
137.4402
142.01771
153.20778
196.67317
179.23613
171.45758
168.63096
166.37628
165.86542
165.76945
165.78627
165.36563
165.11144
165.11144
165.36563
165.78628
165.76947
165.86543
166.3763
168.63098
171.4576
179.23612
196.67307
268.94531
241.80625
228.48088
223.4267
219.98042
219.10201
218.86806
218.87179
218.27254
217.97356
217.97356
218.27254
218.87179
218.86806
219.10201
219.98042
223.4267
228.48086
241.80616
268.94501
381.80951
332.70544
308.13828
298.07192
292.58137
291.05355
290.74053
290.8689
290.20421
289.94106
289.94106
290.2042
290.86888
290.74049
291.05351
292.58134
298.07189
308.13821
332.70521
381.80884
563.51942
454.95096
409.61114
390.44691
381.65715
379.24605
379.26992
380.05229
379.83624
379.86153
379.86152
379.83621
380.05223
379.26984
379.24596
381.65709
390.44685
409.61103
454.95061
563.51821
800.75571
604.72173
527.79276
494.83487
481.00195
477.60849
478.5622
480.77415
481.75075
482.44972
482.4497
481.75071
480.77409
478.56209
477.60836
481.00188
494.83483
527.79263
604.72126
800.75433
987.50119
760.82766
653.95744
605.42264
585.11214
580.07515
581.93915
585.88673
588.5522
590.21213
590.21212
588.55217
585.88668
581.93906
580.07506
585.11209
605.4226
653.95731
760.82716
987.50031
1068.5401
894.39982
774.97441
714.4914
688.03123
680.85415
682.99
688.19638
692.32448
694.8477
694.84771
692.32448
688.19637
682.98996
680.85411
688.03124
714.4914
774.97428
894.39938
1068.5398
1090.7815
988.33033
878.5407
813.98026
783.66208
774.47601
776.1417
781.69535
786.56627
789.55507
789.55509
786.56629
781.69539
776.14172
774.47603
783.66215
813.9803
878.54063
988.33006
1090.7814
1095.4297
1043.9742
958.00767
897.78522
866.95417
856.53364
857.26709
862.29202
867.08327
870.05754
870.05756
867.08332
862.2921
857.26716
856.53371
866.95427
897.78529
958.00763
1043.974
1095.4297
1096.2638
1072.7981
1013.3703
963.19923
934.96626
924.39656
924.13794
928.10428
932.21658
934.81069
934.81072
932.21665
928.10438
924.13804
924.39665
934.96636
963.19931
1013.3702
1072.7981
1096.2638
1096.4009
1086.35
1048.9486
1010.8451
987.20378
977.47689
976.46618
979.24151
982.41039
984.45044
984.45047
982.41046
979.24161
976.46628
977.47698
987.20386
1010.8451
1048.9486
1086.3499
1096.4009
1096.4223
1092.3024
1070.3688
1043.5173
1025.1526
1016.911
1015.5038
1017.2353
1019.4709
1020.9472
1020.9472
1019.4709
1017.2354
1015.5039
1016.9111
1025.1527
1043.5174
1070.3688
1092.3024
1096.4223
1096.4255
1094.7926
1082.6102
1064.8024
1051.4018
1044.8867
1043.4031
1044.3585
1045.8223
1046.8204
1046.8204
1045.8224
1044.3585
1043.4032
1044.8868
1051.4018
1064.8024
1082.6102
1094.7926
1096.4255
1096.426
1095.7965
1089.3172
1078.0824
1068.8028
1063.9443
1062.5986
1063.0477
1063.9455
1064.5829
1064.5829
1063.9456
1063.0477
1062.5986
1063.9444
1068.8028
1078.0824
1089.3172
1095.7965
1096.426
1096.4261
1096.1893
1092.8652
1086.069
1079.922
1076.4737
1075.3694
1075.5263
1076.0447
1076.4323
1076.4323
1076.0448
1075.5263
1075.3694
1076.4737
1079.922
1086.069
1092.8652
1096.1893
1096.4261
1096.4261
1096.339
1094.6859
1090.7214
1086.8028
1084.4571
1083.6157
1083.6258
1083.908
1084.1336
1084.1336
1083.908
1083.6258
1083.6157
1084.4571
1086.8028
1090.7214
1094.6859
1096.339
1096.4261
1096.4261
1096.3948
1095.5952
1093.3558
1090.9409
1089.4037
1088.7989
1088.7492
1088.8934
1089.0196
1089.0196
1088.8934
1088.7492
1088.7989
1089.4037
1090.9409
1093.3558
1095.5952
1096.3948
1096.4261
1096.4261
1096.4151
1096.0381
1094.8096
1093.3661
1092.3916
1091.9772
1091.9135
1091.982
1092.0499
1092.0499
1091.982
1091.9136
1091.9772
1092.3916
1093.3661
1094.8095
1096.0381
1096.4151
1096.4261
1096.4261
1096.4223
1096.2487
1095.5927
1094.7538
1094.1544
1093.8819
1093.8246
1093.854
1093.8892
1093.8892
1093.854
1093.8246
1093.8819
1094.1544
1094.7538
1095.5927
1096.2487
1096.4223
1096.4261
1096.4261
1096.4248
1096.3467
1096.0051
1095.5301
1095.1716
1094.9987
1094.9544
1094.9651
1094.9826
1094.9826
1094.9651
1094.9544
1094.9987
1095.1716
1095.5301
1096.0051
1096.3467
1096.4248
1096.4261
)
;

boundaryField
{
    Wall
    {
        type            zeroGradient;
    }
    frontAndBack
    {
        type            empty;
    }
    atmosphere
    {
        type            zeroGradient;
    }
}


// ************************************************************************* //
