/*--------------------------------*- C++ -*----------------------------------*\
| =========                 |                                                 |
| \\      /  F ield         | OpenFOAM: The Open Source CFD Toolbox           |
|  \\    /   O peration     | Version:  3.0.1                                 |
|   \\  /    A nd           | Web:      www.OpenFOAM.org                      |
|    \\/     M anipulation  |                                                 |
\*---------------------------------------------------------------------------*/
FoamFile
{
    version     2.0;
    format      ascii;
    class       volScalarField;
    location    "28";
    object      thermalConductivity;
}
// * * * * * * * * * * * * * * * * * * * * * * * * * * * * * * * * * * * * * //

dimensions      [0 2 -1 0 0 0 0];

internalField   nonuniform List<scalar> 
800
(
0.018571808
0.018571158
0.01857106
0.018571054
0.018571058
0.01857106
0.018571061
0.01857106
0.01857106
0.01857106
0.01857106
0.01857106
0.01857106
0.018571061
0.01857106
0.018571058
0.018571054
0.01857106
0.018571158
0.018571808
0.018708028
0.018699998
0.018698277
0.018697982
0.01869802
0.018698099
0.018698155
0.018698185
0.018698199
0.018698203
0.018698203
0.018698199
0.018698185
0.018698155
0.018698099
0.01869802
0.018697982
0.018698277
0.018699998
0.018708029
0.018851784
0.018838725
0.01883483
0.018834086
0.01883407
0.018834179
0.018834267
0.018834316
0.018834338
0.018834346
0.018834346
0.018834338
0.018834316
0.018834267
0.018834179
0.01883407
0.018834086
0.01883483
0.018838725
0.018851785
0.018986269
0.018969307
0.018963458
0.018962343
0.018962286
0.018962422
0.018962537
0.018962601
0.018962629
0.018962639
0.018962639
0.018962629
0.018962601
0.018962537
0.018962423
0.018962287
0.018962343
0.018963458
0.018969308
0.01898627
0.019099191
0.019079812
0.019072378
0.019070866
0.019070817
0.019070997
0.019071143
0.019071222
0.019071258
0.01907127
0.01907127
0.019071258
0.019071223
0.019071143
0.019070997
0.019070817
0.019070866
0.019072378
0.019079813
0.019099192
0.019184414
0.019163928
0.01915529
0.019153324
0.019153338
0.019153589
0.019153777
0.019153879
0.019153925
0.01915394
0.01915394
0.019153925
0.019153879
0.019153777
0.019153589
0.019153338
0.019153325
0.01915529
0.019163928
0.019184415
0.019242188
0.019221067
0.019211777
0.019209343
0.019209473
0.019209825
0.019210073
0.019210207
0.019210269
0.019210291
0.019210291
0.019210269
0.019210207
0.019210073
0.019209825
0.019209473
0.019209343
0.019211777
0.019221067
0.019242188
0.019277757
0.019255368
0.019246023
0.019243153
0.019243444
0.019243929
0.019244255
0.019244435
0.01924452
0.019244552
0.019244552
0.019244521
0.019244435
0.019244255
0.019243929
0.019243445
0.019243153
0.019246024
0.019255368
0.019277757
0.019300873
0.019275292
0.019266382
0.019263135
0.019263415
0.01926406
0.019264485
0.019264725
0.019264842
0.019264888
0.019264888
0.019264842
0.019264725
0.019264485
0.01926406
0.019263415
0.019263136
0.019266382
0.019275292
0.019300873
0.019324507
0.019292148
0.019283974
0.019280409
0.01928029
0.01928087
0.019281414
0.019281727
0.019281884
0.019281949
0.019281949
0.019281884
0.019281727
0.019281415
0.01928087
0.01928029
0.019280409
0.019283974
0.019292148
0.019324507
0.019364203
0.019319742
0.019311963
0.019308118
0.019306918
0.019306947
0.019307631
0.019308027
0.019308235
0.019308322
0.019308322
0.019308235
0.019308028
0.019307631
0.019306947
0.019306918
0.019308118
0.019311963
0.019319742
0.019364203
0.01943806
0.019374911
0.019365684
0.019361615
0.019358371
0.019357344
0.019358189
0.019358682
0.019358964
0.019359079
0.019359079
0.019358964
0.019358682
0.019358189
0.019357344
0.019358371
0.019361615
0.019365684
0.019374911
0.01943806
0.019567772
0.019478124
0.019463625
0.019459701
0.019453331
0.019450953
0.019451981
0.01945259
0.019452493
0.01945266
0.01945266
0.019452493
0.019452591
0.019451982
0.019450953
0.019453331
0.019459701
0.019463626
0.019478124
0.019567773
0.019782713
0.019655789
0.019630743
0.019626412
0.019615911
0.01961214
0.019613354
0.019614075
0.019613045
0.019613318
0.019613319
0.019613045
0.019614076
0.019613355
0.019612141
0.019615911
0.019626413
0.019630744
0.01965579
0.019782715
0.020099836
0.019921783
0.019879496
0.019871666
0.019856299
0.019851333
0.019853057
0.019854821
0.019852369
0.019851548
0.019851548
0.019852369
0.019854822
0.019853058
0.019851334
0.0198563
0.019871667
0.019879497
0.019921784
0.020099838
0.020534082
0.020283415
0.020214298
0.020197998
0.020177241
0.020171859
0.020175253
0.020177399
0.020173019
0.020169324
0.020169324
0.02017302
0.0201774
0.020175254
0.020171861
0.020177242
0.020197999
0.0202143
0.020283416
0.020534084
0.021208014
0.020849736
0.020739004
0.020707825
0.020677261
0.020672346
0.020677437
0.020679616
0.020673261
0.02066553
0.02066553
0.020673262
0.020679617
0.020677438
0.020672348
0.020677263
0.020707827
0.020739006
0.020849738
0.021208016
0.022271873
0.021746008
0.021566716
0.021512212
0.02146258
0.021456239
0.021461293
0.021463423
0.021454731
0.021442531
0.021442531
0.021454732
0.021463424
0.021461294
0.021456241
0.021462582
0.021512214
0.021566718
0.02174601
0.022271874
0.024028501
0.023218881
0.022917969
0.022825447
0.022738709
0.022725372
0.022727584
0.022729502
0.02271377
0.022696709
0.02269671
0.022713771
0.022729503
0.022727586
0.022725373
0.022738711
0.02282545
0.022917971
0.023218883
0.024028501
0.027051553
0.025759772
0.025234752
0.025067713
0.024907684
0.02487361
0.024869974
0.024871564
0.024842026
0.024819116
0.024819116
0.024842027
0.024871566
0.024869976
0.024873612
0.024907686
0.025067716
0.025234755
0.025759774
0.027051549
0.032391358
0.030225806
0.02927324
0.028927332
0.028656067
0.028594584
0.028582198
0.028583881
0.028535138
0.028505269
0.028505269
0.028535139
0.028583882
0.0285822
0.028594586
0.02865607
0.028927335
0.029273242
0.030225805
0.032391345
0.024
0.024
0.024
0.024
0.024
0.024
0.024
0.024
0.024
0.024
0.024
0.024
0.024
0.024
0.024
0.024
0.024
0.024
0.024
0.024
0.024
0.024
0.024
0.024
0.024
0.024
0.024
0.024
0.024
0.024
0.024
0.024
0.024
0.024
0.024
0.024
0.024
0.024
0.024
0.024
0.024
0.024
0.024
0.024
0.024
0.024
0.024
0.024
0.024
0.024
0.024
0.024
0.024
0.024
0.024
0.024
0.024
0.024
0.024
0.024
0.024
0.024
0.024
0.024
0.024
0.024
0.024
0.024
0.024
0.024
0.024
0.024
0.024
0.024
0.024
0.024
0.024
0.024
0.024
0.024
0.024
0.024
0.024
0.024
0.024
0.024
0.024
0.024
0.024
0.024
0.024
0.024
0.024
0.024
0.024
0.024
0.024
0.024
0.024
0.024
0.024
0.024
0.024
0.024
0.024
0.024
0.024
0.024
0.024
0.024
0.024
0.024
0.024
0.024
0.024
0.024
0.024
0.024
0.024
0.024
0.024
0.024
0.024
0.024
0.024
0.024
0.024
0.024
0.024
0.024
0.024
0.024
0.024
0.024
0.024
0.024
0.024
0.024
0.024
0.024
0.024
0.024
0.024
0.024
0.024
0.024
0.024
0.024
0.024
0.024
0.024
0.024
0.024
0.024
0.024
0.024
0.024
0.024
0.024
0.024
0.024
0.024
0.024
0.024
0.024
0.024
0.024
0.024
0.024
0.024
0.024
0.024
0.024
0.024
0.024
0.024
0.024
0.024
0.024
0.024
0.024
0.024
0.024
0.024
0.024
0.024
0.024
0.024
0.024
0.024
0.024
0.024
0.024
0.024
0.024
0.024
0.024
0.024
0.024
0.024
0.024
0.024
0.024
0.024
0.024
0.024
0.024
0.024
0.024
0.024
0.024
0.024
0.024
0.024
0.024
0.024
0.024
0.024
0.024
0.024
0.024
0.024
0.024
0.024
0.024
0.024
0.024
0.024
0.024
0.024
0.024
0.024
0.024
0.024
0.024
0.024
0.024
0.024
0.024
0.024
0.024
0.024
0.024
0.024
0.024
0.024
0.024
0.024
0.024
0.024
0.024
0.024
0.024
0.024
0.024
0.024
0.024
0.024
0.024
0.024
0.024
0.024
0.024
0.024
0.024
0.024
0.024
0.024
0.024
0.024
0.024
0.024
0.024
0.024
0.024
0.024
0.024
0.024
0.024
0.024
0.024
0.024
0.024
0.024
0.024
0.024
0.024
0.024
0.024
0.024
0.024
0.024
0.024
0.024
0.024
0.024
0.024
0.024
0.024
0.024
0.024
0.024
0.024
0.024
0.024
0.024
0.024
0.024
0.024
0.024
0.024
0.024
0.024
0.024
0.024
0.024
0.024
0.024
0.024
0.024
0.024
0.024
0.024
0.024
0.024
0.024
0.024
0.024
0.024
0.024
0.024
0.024
0.024
0.024
0.024
0.024
0.024
0.024
0.024
0.024
0.024
0.024
0.024
0.024
0.024
0.024
0.024
0.024
0.024
0.024
0.024
0.024
0.024
0.024
0.024
0.024
0.024
0.024
0.024
0.024
0.024
0.024
0.024
0.024
0.024
0.024
0.024
0.024
0.024
0.024
0.024
0.024
0.024
0.024
0.024
0.024
0.024
0.024
0.024
0.024
)
;

boundaryField
{
    Wall
    {
        type            calculated;
        value           uniform 0.024;
    }
    frontAndBack
    {
        type            empty;
    }
    atmosphere
    {
        type            calculated;
        value           uniform 0.024;
    }
}


// ************************************************************************* //
