/*--------------------------------*- C++ -*----------------------------------*\
| =========                 |                                                 |
| \\      /  F ield         | OpenFOAM: The Open Source CFD Toolbox           |
|  \\    /   O peration     | Version:  3.0.1                                 |
|   \\  /    A nd           | Web:      www.OpenFOAM.org                      |
|    \\/     M anipulation  |                                                 |
\*---------------------------------------------------------------------------*/
FoamFile
{
    version     2.0;
    format      ascii;
    class       volScalarField;
    location    "28";
    object      thermalDiffusivity;
}
// * * * * * * * * * * * * * * * * * * * * * * * * * * * * * * * * * * * * * //

dimensions      [0 2 -1 0 0 0 0];

internalField   nonuniform List<scalar> 
800
(
1.3514079e-07
1.351478e-07
1.3514887e-07
1.3514893e-07
1.3514889e-07
1.3514886e-07
1.3514886e-07
1.3514886e-07
1.3514886e-07
1.3514886e-07
1.3514886e-07
1.3514886e-07
1.3514886e-07
1.3514886e-07
1.3514886e-07
1.3514889e-07
1.3514893e-07
1.3514887e-07
1.351478e-07
1.3514079e-07
1.3369984e-07
1.3378319e-07
1.3380109e-07
1.3380415e-07
1.3380375e-07
1.3380293e-07
1.3380235e-07
1.3380204e-07
1.338019e-07
1.3380186e-07
1.3380185e-07
1.338019e-07
1.3380204e-07
1.3380235e-07
1.3380293e-07
1.3380375e-07
1.3380415e-07
1.3380108e-07
1.3378319e-07
1.3369984e-07
1.3226162e-07
1.3238963e-07
1.324279e-07
1.3243518e-07
1.3243533e-07
1.3243427e-07
1.3243342e-07
1.3243295e-07
1.3243275e-07
1.3243268e-07
1.3243268e-07
1.3243275e-07
1.3243295e-07
1.3243342e-07
1.3243427e-07
1.3243533e-07
1.3243518e-07
1.3242789e-07
1.3238962e-07
1.3226161e-07
1.3102428e-07
1.3117733e-07
1.3123074e-07
1.3124089e-07
1.3124139e-07
1.3124021e-07
1.3123924e-07
1.3123873e-07
1.3123852e-07
1.3123847e-07
1.3123846e-07
1.3123852e-07
1.3123873e-07
1.3123924e-07
1.312402e-07
1.3124139e-07
1.3124089e-07
1.3123073e-07
1.3117732e-07
1.3102427e-07
1.3012226e-07
1.3027614e-07
1.3033746e-07
1.3035011e-07
1.3035052e-07
1.3034919e-07
1.3034819e-07
1.3034773e-07
1.3034758e-07
1.3034756e-07
1.3034755e-07
1.3034758e-07
1.3034773e-07
1.3034819e-07
1.3034919e-07
1.3035052e-07
1.3035011e-07
1.3033745e-07
1.3027614e-07
1.3012225e-07
1.2962317e-07
1.297539e-07
1.2981472e-07
1.2982976e-07
1.2982967e-07
1.2982818e-07
1.2982724e-07
1.298269e-07
1.2982686e-07
1.298269e-07
1.298269e-07
1.2982686e-07
1.298269e-07
1.2982724e-07
1.2982818e-07
1.2982967e-07
1.2982975e-07
1.2981471e-07
1.297539e-07
1.2962317e-07
1.2953661e-07
1.2962581e-07
1.2967412e-07
1.29691e-07
1.2969021e-07
1.2968861e-07
1.2968785e-07
1.2968771e-07
1.2968783e-07
1.2968796e-07
1.2968796e-07
1.2968783e-07
1.2968771e-07
1.2968785e-07
1.2968861e-07
1.2969021e-07
1.29691e-07
1.2967412e-07
1.2962581e-07
1.2953661e-07
1.298306e-07
1.2986806e-07
1.2988807e-07
1.2990559e-07
1.2990419e-07
1.2990268e-07
1.2990226e-07
1.2990241e-07
1.2990277e-07
1.2990301e-07
1.2990301e-07
1.2990277e-07
1.2990242e-07
1.2990226e-07
1.2990268e-07
1.299042e-07
1.2990559e-07
1.2988806e-07
1.2986807e-07
1.298306e-07
1.3043462e-07
1.3042099e-07
1.3039307e-07
1.3040916e-07
1.3040941e-07
1.3040833e-07
1.3040844e-07
1.3040901e-07
1.3040967e-07
1.3041005e-07
1.3041004e-07
1.3040967e-07
1.3040901e-07
1.3040844e-07
1.3040833e-07
1.3040941e-07
1.3040916e-07
1.3039307e-07
1.30421e-07
1.3043462e-07
1.3124836e-07
1.3120013e-07
1.3110054e-07
1.3111136e-07
1.3111764e-07
1.3111962e-07
1.3112049e-07
1.311216e-07
1.3112262e-07
1.3112317e-07
1.3112316e-07
1.3112262e-07
1.311216e-07
1.3112049e-07
1.3111962e-07
1.3111764e-07
1.3111137e-07
1.3110054e-07
1.3120014e-07
1.3124837e-07
1.3214702e-07
1.321e-07
1.3190331e-07
1.3190141e-07
1.319208e-07
1.3193076e-07
1.3193261e-07
1.3193438e-07
1.3193588e-07
1.3193663e-07
1.3193662e-07
1.3193588e-07
1.3193438e-07
1.3193261e-07
1.3193077e-07
1.319208e-07
1.3190141e-07
1.3190331e-07
1.321e-07
1.3214702e-07
1.3298895e-07
1.3300183e-07
1.3267458e-07
1.3264909e-07
1.3269101e-07
1.3271389e-07
1.3271694e-07
1.3271945e-07
1.3272132e-07
1.3272225e-07
1.3272225e-07
1.3272132e-07
1.3271945e-07
1.3271695e-07
1.3271389e-07
1.3269101e-07
1.3264909e-07
1.3267458e-07
1.3300184e-07
1.3298895e-07
1.3363553e-07
1.3377895e-07
1.3324814e-07
1.3320809e-07
1.3328204e-07
1.3332066e-07
1.3332514e-07
1.3332829e-07
1.3333434e-07
1.333355e-07
1.333355e-07
1.3333434e-07
1.3332829e-07
1.3332514e-07
1.3332066e-07
1.3328204e-07
1.3320809e-07
1.3324814e-07
1.3377896e-07
1.3363553e-07
1.338983e-07
1.3412337e-07
1.333875e-07
1.3340525e-07
1.3351739e-07
1.3357179e-07
1.3357828e-07
1.3358249e-07
1.3359651e-07
1.3359737e-07
1.3359736e-07
1.3359651e-07
1.3358249e-07
1.3357828e-07
1.3357179e-07
1.3351738e-07
1.3340524e-07
1.3338749e-07
1.3412338e-07
1.338983e-07
1.3367528e-07
1.3363548e-07
1.3314071e-07
1.3324837e-07
1.3340083e-07
1.3346891e-07
1.3347581e-07
1.3347366e-07
1.3349726e-07
1.3350661e-07
1.3350661e-07
1.3349727e-07
1.3347366e-07
1.3347581e-07
1.334689e-07
1.3340083e-07
1.3324836e-07
1.3314071e-07
1.3363548e-07
1.3367528e-07
1.3323159e-07
1.3268876e-07
1.3277887e-07
1.3293108e-07
1.3311739e-07
1.3319049e-07
1.3318794e-07
1.3318488e-07
1.3321879e-07
1.3324754e-07
1.3324753e-07
1.3321879e-07
1.3318488e-07
1.3318794e-07
1.3319048e-07
1.3311739e-07
1.3293107e-07
1.3277886e-07
1.3268875e-07
1.3323159e-07
1.3369104e-07
1.3205337e-07
1.3235181e-07
1.325084e-07
1.3271569e-07
1.3276633e-07
1.3274511e-07
1.3273879e-07
1.3277394e-07
1.328225e-07
1.328225e-07
1.3277394e-07
1.3273879e-07
1.3274511e-07
1.3276633e-07
1.3271568e-07
1.3250839e-07
1.323518e-07
1.3205335e-07
1.3369102e-07
1.4285568e-07
1.3601376e-07
1.351119e-07
1.349447e-07
1.3500167e-07
1.3493268e-07
1.3484546e-07
1.3480001e-07
1.3477962e-07
1.3482336e-07
1.3482335e-07
1.3477962e-07
1.3479999e-07
1.3484544e-07
1.3493266e-07
1.3500165e-07
1.3494467e-07
1.3511186e-07
1.360137e-07
1.4285551e-07
2.3089763e-07
1.8201162e-07
1.6878704e-07
1.6507053e-07
1.6299997e-07
1.618238e-07
1.6109894e-07
1.6070319e-07
1.6028646e-07
1.6016608e-07
1.6016606e-07
1.602864e-07
1.6070311e-07
1.6109882e-07
1.6182365e-07
1.6299979e-07
1.6507031e-07
1.6878675e-07
1.8201103e-07
2.308958e-07
1.6796036e-06
8.2788426e-07
6.1216946e-07
5.5112977e-07
5.1318598e-07
4.9505363e-07
4.8519952e-07
4.7967891e-07
4.7431495e-07
4.7196054e-07
4.719603e-07
4.7431414e-07
4.7967767e-07
4.851978e-07
4.9505143e-07
5.1318304e-07
5.5112616e-07
6.1216471e-07
8.2787371e-07
1.6795607e-06
5.2935486e-05
2.4078598e-05
1.6146686e-05
1.3545461e-05
1.209684e-05
1.1388531e-05
1.0974153e-05
1.0738224e-05
1.0523327e-05
1.0425477e-05
1.0425466e-05
1.0523292e-05
1.0738169e-05
1.0974077e-05
1.1388434e-05
1.2096722e-05
1.3545317e-05
1.6146477e-05
2.407819e-05
5.2934335e-05
0.0002641588
0.0002642281
0.0002643934
0.00026456754
0.00026472768
0.00026486033
0.00026496354
0.00026503968
0.00026509136
0.00026511709
0.00026511708
0.00026509136
0.00026503968
0.00026496353
0.00026486032
0.00026472767
0.00026456753
0.00026439339
0.00026422809
0.00026415878
0.00026057547
0.00026066708
0.00026081397
0.00026097356
0.00026112272
0.00026124944
0.00026134998
0.00026142459
0.00026147431
0.0002614991
0.0002614991
0.0002614743
0.00026142458
0.00026134998
0.00026124943
0.00026112271
0.00026097355
0.00026081397
0.00026066708
0.00026057546
0.00025724954
0.00025737864
0.00025753707
0.00025769694
0.00025784353
0.00025796838
0.00025806774
0.0002581414
0.00025819008
0.00025821428
0.00025821428
0.00025819007
0.0002581414
0.00025806774
0.00025796838
0.00025784353
0.00025769693
0.00025753706
0.00025737863
0.00025724953
0.00025417924
0.0002543519
0.00025454428
0.00025472234
0.00025487659
0.00025500385
0.00025510377
0.00025517718
0.00025522539
0.00025524925
0.00025524925
0.00025522539
0.00025517718
0.00025510377
0.00025500384
0.00025487659
0.00025472234
0.00025454428
0.00025435189
0.00025417924
0.0002513807
0.00025158511
0.00025181395
0.00025201899
0.00025218959
0.00025232553
0.00025242943
0.00025250433
0.00025255281
0.00025257662
0.00025257662
0.00025255281
0.00025250433
0.00025242943
0.00025232553
0.00025218959
0.00025201898
0.00025181395
0.00025158511
0.0002513807
0.00024885693
0.00024907702
0.00024933299
0.00024956365
0.00024975329
0.00024990162
0.0002500128
0.00025009159
0.00025014192
0.00025016643
0.00025016643
0.00025014192
0.00025009159
0.0002500128
0.00024990162
0.00024975329
0.00024956364
0.00024933299
0.00024907701
0.00024885693
0.00024659768
0.00024681999
0.00024709018
0.00024733914
0.00024754534
0.00024770629
0.00024782611
0.0002479103
0.00024796365
0.0002479895
0.0002479895
0.00024796365
0.0002479103
0.00024782611
0.00024770629
0.00024754534
0.00024733914
0.00024709018
0.00024681999
0.00024659767
0.0002445848
0.00024480033
0.00024507289
0.00024533089
0.00024554815
0.00024571923
0.00024584703
0.00024593683
0.00024599365
0.00024602113
0.00024602113
0.00024599365
0.00024593683
0.00024584703
0.00024571923
0.00024554815
0.00024533089
0.00024507289
0.00024480033
0.0002445848
0.00024279733
0.00024300086
0.00024326673
0.00024352506
0.0002437469
0.00024392408
0.0002440577
0.00024415214
0.00024421211
0.00024424116
0.00024424116
0.00024421211
0.00024415214
0.0002440577
0.00024392408
0.00024374691
0.00024352506
0.00024326673
0.00024300086
0.00024279733
0.00024121463
0.00024140348
0.0002416565
0.00024190806
0.00024212836
0.00024230712
0.0002424436
0.00024254096
0.00024260315
0.0002426334
0.0002426334
0.00024260315
0.00024254096
0.00024244361
0.00024230712
0.00024212837
0.00024190807
0.0002416565
0.00024140348
0.00024121464
0.00023981811
0.00023999107
0.00024022739
0.00024046697
0.00024068056
0.00024085663
0.00024099284
0.00024109101
0.00024115419
0.00024118506
0.00024118506
0.00024115419
0.00024109101
0.00024099284
0.00024085663
0.00024068057
0.00024046697
0.0002402274
0.00023999107
0.00023981811
0.00023859199
0.00023874868
0.00023896607
0.00023919007
0.00023939299
0.00023956273
0.00023969575
0.00023979263
0.00023985547
0.00023988631
0.00023988631
0.00023985547
0.00023979263
0.00023969575
0.00023956273
0.00023939299
0.00023919007
0.00023896608
0.00023874869
0.00023859199
0.00023752373
0.00023766416
0.00023786145
0.00023806757
0.00023825696
0.00023841755
0.00023854494
0.00023863866
0.00023869992
0.00023873012
0.00023873012
0.00023869992
0.00023863867
0.00023854494
0.00023841756
0.00023825697
0.00023806757
0.00023786145
0.00023766417
0.00023752373
0.00023660422
0.00023672859
0.00023690527
0.0002370922
0.00023726622
0.00023741565
0.00023753556
0.00023762464
0.00023768329
0.00023771234
0.00023771234
0.0002376833
0.00023762464
0.00023753556
0.00023741565
0.00023726622
0.0002370922
0.00023690527
0.00023672859
0.00023660422
0.00023582803
0.00023593661
0.00023609265
0.00023625984
0.00023641752
0.00023655461
0.00023666586
0.00023674929
0.00023680462
0.00023683214
0.00023683214
0.00023680462
0.00023674929
0.00023666586
0.00023655461
0.00023641752
0.00023625985
0.00023609265
0.00023593661
0.00023582803
0.00023519362
0.00023528679
0.00023542262
0.00023557029
0.00023571153
0.00023583594
0.00023593806
0.00023601538
0.00023606701
0.00023609281
0.00023609281
0.00023606701
0.00023601538
0.00023593806
0.00023583594
0.00023571153
0.0002355703
0.00023542262
0.00023528679
0.00023519362
0.00023470362
0.00023478208
0.00023489882
0.00023502815
0.00023515391
0.00023526628
0.00023535964
0.00023543102
0.00023547903
0.00023550311
0.00023550311
0.00023547903
0.00023543102
0.00023535965
0.00023526628
0.00023515391
0.00023502815
0.00023489883
0.00023478208
0.00023470362
0.00023436501
0.0002344303
0.00023453048
0.00023464418
0.00023475689
0.00023485917
0.00023494519
0.00023501156
0.0002350565
0.00023507914
0.00023507914
0.0002350565
0.00023501156
0.00023494519
0.00023485917
0.0002347569
0.00023464419
0.00023453048
0.0002344303
0.00023436501
0.00023418886
0.00023424473
0.00023433373
0.00023443725
0.00023454165
0.00023463759
0.00023471903
0.0002347823
0.00023482534
0.00023484708
0.00023484708
0.00023482534
0.0002347823
0.00023471903
0.00023463759
0.00023454165
0.00023443725
0.00023433373
0.00023424473
0.00023418886
)
;

boundaryField
{
    Wall
    {
        type            calculated;
        value           uniform 4e-05;
    }
    frontAndBack
    {
        type            empty;
    }
    atmosphere
    {
        type            calculated;
        value           uniform 4e-05;
    }
}


// ************************************************************************* //
