/*--------------------------------*- C++ -*----------------------------------*\
| =========                 |                                                 |
| \\      /  F ield         | OpenFOAM: The Open Source CFD Toolbox           |
|  \\    /   O peration     | Version:  3.0.1                                 |
|   \\  /    A nd           | Web:      www.OpenFOAM.org                      |
|    \\/     M anipulation  |                                                 |
\*---------------------------------------------------------------------------*/
FoamFile
{
    version     2.0;
    format      ascii;
    class       volScalarField;
    location    "28";
    object      thermalDiff_gas;
}
// * * * * * * * * * * * * * * * * * * * * * * * * * * * * * * * * * * * * * //

dimensions      [0 2 -1 0 0 0 0];

internalField   nonuniform List<scalar> 
800
(
0.00030531894
0.00030533107
0.00030533357
0.00030533393
0.00030533398
0.00030533401
0.00030533405
0.0003053341
0.00030533414
0.00030533415
0.00030533415
0.00030533414
0.0003053341
0.00030533405
0.00030533401
0.00030533398
0.00030533393
0.00030533357
0.00030533107
0.00030531894
0.00030353724
0.0003036317
0.000303657
0.0003036625
0.00030366279
0.00030366203
0.00030366131
0.00030366085
0.00030366061
0.00030366051
0.00030366051
0.00030366061
0.00030366085
0.00030366131
0.00030366203
0.00030366279
0.00030366249
0.00030365699
0.0003036317
0.00030353723
0.0003019682
0.0003021153
0.00030216312
0.00030217444
0.0003021758
0.00030217487
0.00030217382
0.0003021731
0.00030217271
0.00030217254
0.00030217254
0.00030217271
0.0003021731
0.00030217381
0.00030217487
0.0003021758
0.00030217444
0.00030216312
0.0003021153
0.00030196819
0.00030071734
0.00030090307
0.00030096897
0.00030098492
0.00030098708
0.00030098605
0.00030098478
0.00030098391
0.00030098343
0.00030098322
0.00030098322
0.00030098343
0.00030098391
0.00030098478
0.00030098605
0.00030098708
0.00030098491
0.00030096896
0.00030090306
0.00030071733
0.00029985156
0.00030005957
0.00030014008
0.00030015943
0.00030016196
0.00030016068
0.00030015917
0.00030015814
0.00030015758
0.00030015735
0.00030015735
0.00030015758
0.00030015814
0.00030015916
0.00030016067
0.00030016195
0.00030015943
0.00030014007
0.00030005956
0.00029985155
0.00029941784
0.00029963009
0.00029972292
0.00029974479
0.00029974726
0.00029974551
0.00029974366
0.00029974242
0.00029974176
0.00029974148
0.00029974148
0.00029974176
0.00029974242
0.00029974366
0.0002997455
0.00029974725
0.00029974479
0.00029972291
0.00029963009
0.00029941783
0.0002994449
0.00029964487
0.0002997471
0.00029977102
0.00029977318
0.00029977074
0.00029976842
0.00029976687
0.00029976604
0.00029976568
0.00029976568
0.00029976604
0.00029976687
0.00029976842
0.00029977074
0.00029977318
0.00029977102
0.0002997471
0.00029964487
0.0002994449
0.00029994164
0.00030011766
0.00030022398
0.00030025009
0.00030025199
0.00030024871
0.00030024577
0.00030024377
0.0003002427
0.00030024222
0.00030024222
0.0003002427
0.00030024377
0.00030024577
0.00030024871
0.00030025199
0.00030025009
0.00030022398
0.00030011766
0.00029994164
0.00030089417
0.00030104281
0.00030114558
0.00030117488
0.00030117679
0.00030117267
0.00030116896
0.00030116637
0.00030116497
0.00030116431
0.00030116431
0.00030116497
0.00030116638
0.00030116897
0.00030117267
0.0003011768
0.00030117488
0.00030114559
0.00030104282
0.00030089418
0.00030226347
0.00030239215
0.00030248318
0.00030251802
0.00030252077
0.0003025158
0.00030251119
0.00030250788
0.00030250607
0.00030250519
0.00030250519
0.00030250607
0.00030250788
0.00030251119
0.0003025158
0.00030252078
0.00030251803
0.00030248319
0.00030239216
0.00030226348
0.000303979
0.00030410904
0.0003041823
0.00030422706
0.0003042322
0.00030422658
0.00030422111
0.00030421705
0.00030421486
0.00030421375
0.00030421375
0.00030421487
0.00030421705
0.00030422111
0.00030422659
0.0003042322
0.00030422707
0.00030418231
0.00030410906
0.00030397902
0.00030592703
0.00030608967
0.00030615199
0.00030621398
0.00030621712
0.00030621172
0.00030620586
0.0003062013
0.00030619916
0.00030619789
0.00030619789
0.00030619916
0.00030620131
0.00030620587
0.00030621173
0.00030621713
0.00030621399
0.00030615201
0.00030608969
0.00030592704
0.00030793011
0.00030816001
0.0003082448
0.00030832459
0.00030831702
0.00030831396
0.00030830913
0.00030830501
0.0003083041
0.00030830306
0.00030830306
0.00030830411
0.00030830501
0.00030830913
0.00030831397
0.00030831703
0.00030832461
0.00030824481
0.00030816003
0.00030793013
0.00030970281
0.00031005854
0.00031021495
0.00031031031
0.00031029059
0.00031029425
0.0003102938
0.00031029214
0.00031027835
0.00031027811
0.00031027811
0.00031027835
0.00031029214
0.00031029381
0.00031029425
0.0003102906
0.00031031033
0.00031021497
0.00031005856
0.00030970283
0.00031080378
0.00031139322
0.00031166447
0.00031178665
0.00031177033
0.00031178961
0.00031180295
0.00031180784
0.0003117637
0.00031176485
0.00031176485
0.0003117637
0.00031180785
0.00031180295
0.00031178962
0.00031177034
0.00031178667
0.00031166449
0.00031139324
0.0003108038
0.00031063177
0.00031161326
0.00031203475
0.00031221663
0.00031223646
0.00031229125
0.00031229108
0.00031230881
0.00031224016
0.00031224456
0.00031224456
0.00031224016
0.00031230881
0.00031229108
0.00031229125
0.00031223647
0.00031221664
0.00031203477
0.00031161328
0.00031063178
0.00030837296
0.0003099477
0.00031057221
0.00031086389
0.00031096138
0.00031100625
0.00031098399
0.00031102427
0.00031098063
0.00031099422
0.00031099422
0.00031098063
0.00031102427
0.00031098399
0.00031100625
0.00031096139
0.0003108639
0.00031057222
0.00030994772
0.00030837298
0.00030305678
0.00030527075
0.00030619715
0.000306653
0.00030691188
0.00030697306
0.00030697898
0.00030704957
0.00030696706
0.0003069941
0.0003069941
0.00030696706
0.00030704957
0.00030697898
0.00030697307
0.00030691189
0.00030665302
0.00030619717
0.00030527077
0.00030305682
0.00029311435
0.00029617534
0.00029755346
0.00029822157
0.00029859563
0.00029876867
0.00029886523
0.00029897171
0.00029892755
0.00029897016
0.00029897016
0.00029892755
0.00029897171
0.00029886523
0.00029876869
0.00029859564
0.00029822159
0.00029755348
0.00029617537
0.00029311441
0.00027871713
0.00028167844
0.00028338271
0.00028437469
0.0002847353
0.00028501754
0.00028520199
0.00028533483
0.00028540334
0.00028545622
0.00028545622
0.00028540335
0.00028533484
0.00028520201
0.00028501755
0.00028473532
0.00028437471
0.00028338273
0.00028167847
0.00027871717
0.00026980783
0.00027027023
0.00027072856
0.00027100467
0.00027123264
0.00027139792
0.00027151721
0.00027160216
0.00027166701
0.00027169764
0.00027169764
0.00027166701
0.00027160215
0.00027151721
0.00027139791
0.00027123263
0.00027100466
0.00027072855
0.00027027022
0.00026980782
0.0002641588
0.0002642281
0.0002643934
0.00026456754
0.00026472768
0.00026486033
0.00026496354
0.00026503968
0.00026509136
0.00026511709
0.00026511708
0.00026509136
0.00026503968
0.00026496353
0.00026486032
0.00026472767
0.00026456753
0.00026439339
0.00026422809
0.00026415878
0.00026057547
0.00026066708
0.00026081397
0.00026097356
0.00026112272
0.00026124944
0.00026134998
0.00026142459
0.00026147431
0.0002614991
0.0002614991
0.0002614743
0.00026142458
0.00026134998
0.00026124943
0.00026112271
0.00026097355
0.00026081397
0.00026066708
0.00026057546
0.00025724954
0.00025737864
0.00025753707
0.00025769694
0.00025784353
0.00025796838
0.00025806774
0.0002581414
0.00025819008
0.00025821428
0.00025821428
0.00025819007
0.0002581414
0.00025806774
0.00025796838
0.00025784353
0.00025769693
0.00025753706
0.00025737863
0.00025724953
0.00025417924
0.0002543519
0.00025454428
0.00025472234
0.00025487659
0.00025500385
0.00025510377
0.00025517718
0.00025522539
0.00025524925
0.00025524925
0.00025522539
0.00025517718
0.00025510377
0.00025500384
0.00025487659
0.00025472234
0.00025454428
0.00025435189
0.00025417924
0.0002513807
0.00025158511
0.00025181395
0.00025201899
0.00025218959
0.00025232553
0.00025242943
0.00025250433
0.00025255281
0.00025257662
0.00025257662
0.00025255281
0.00025250433
0.00025242943
0.00025232553
0.00025218959
0.00025201898
0.00025181395
0.00025158511
0.0002513807
0.00024885693
0.00024907702
0.00024933299
0.00024956365
0.00024975329
0.00024990162
0.0002500128
0.00025009159
0.00025014192
0.00025016643
0.00025016643
0.00025014192
0.00025009159
0.0002500128
0.00024990162
0.00024975329
0.00024956364
0.00024933299
0.00024907701
0.00024885693
0.00024659768
0.00024681999
0.00024709018
0.00024733914
0.00024754534
0.00024770629
0.00024782611
0.0002479103
0.00024796365
0.0002479895
0.0002479895
0.00024796365
0.0002479103
0.00024782611
0.00024770629
0.00024754534
0.00024733914
0.00024709018
0.00024681999
0.00024659767
0.0002445848
0.00024480033
0.00024507289
0.00024533089
0.00024554815
0.00024571923
0.00024584703
0.00024593683
0.00024599365
0.00024602113
0.00024602113
0.00024599365
0.00024593683
0.00024584703
0.00024571923
0.00024554815
0.00024533089
0.00024507289
0.00024480033
0.0002445848
0.00024279733
0.00024300086
0.00024326673
0.00024352506
0.0002437469
0.00024392408
0.0002440577
0.00024415214
0.00024421211
0.00024424116
0.00024424116
0.00024421211
0.00024415214
0.0002440577
0.00024392408
0.00024374691
0.00024352506
0.00024326673
0.00024300086
0.00024279733
0.00024121463
0.00024140348
0.0002416565
0.00024190806
0.00024212836
0.00024230712
0.0002424436
0.00024254096
0.00024260315
0.0002426334
0.0002426334
0.00024260315
0.00024254096
0.00024244361
0.00024230712
0.00024212837
0.00024190807
0.0002416565
0.00024140348
0.00024121464
0.00023981811
0.00023999107
0.00024022739
0.00024046697
0.00024068056
0.00024085663
0.00024099284
0.00024109101
0.00024115419
0.00024118506
0.00024118506
0.00024115419
0.00024109101
0.00024099284
0.00024085663
0.00024068057
0.00024046697
0.0002402274
0.00023999107
0.00023981811
0.00023859199
0.00023874868
0.00023896607
0.00023919007
0.00023939299
0.00023956273
0.00023969575
0.00023979263
0.00023985547
0.00023988631
0.00023988631
0.00023985547
0.00023979263
0.00023969575
0.00023956273
0.00023939299
0.00023919007
0.00023896608
0.00023874869
0.00023859199
0.00023752373
0.00023766416
0.00023786145
0.00023806757
0.00023825696
0.00023841755
0.00023854494
0.00023863866
0.00023869992
0.00023873012
0.00023873012
0.00023869992
0.00023863867
0.00023854494
0.00023841756
0.00023825697
0.00023806757
0.00023786145
0.00023766417
0.00023752373
0.00023660422
0.00023672859
0.00023690527
0.0002370922
0.00023726622
0.00023741565
0.00023753556
0.00023762464
0.00023768329
0.00023771234
0.00023771234
0.0002376833
0.00023762464
0.00023753556
0.00023741565
0.00023726622
0.0002370922
0.00023690527
0.00023672859
0.00023660422
0.00023582803
0.00023593661
0.00023609265
0.00023625984
0.00023641752
0.00023655461
0.00023666586
0.00023674929
0.00023680462
0.00023683214
0.00023683214
0.00023680462
0.00023674929
0.00023666586
0.00023655461
0.00023641752
0.00023625985
0.00023609265
0.00023593661
0.00023582803
0.00023519362
0.00023528679
0.00023542262
0.00023557029
0.00023571153
0.00023583594
0.00023593806
0.00023601538
0.00023606701
0.00023609281
0.00023609281
0.00023606701
0.00023601538
0.00023593806
0.00023583594
0.00023571153
0.0002355703
0.00023542262
0.00023528679
0.00023519362
0.00023470362
0.00023478208
0.00023489882
0.00023502815
0.00023515391
0.00023526628
0.00023535964
0.00023543102
0.00023547903
0.00023550311
0.00023550311
0.00023547903
0.00023543102
0.00023535965
0.00023526628
0.00023515391
0.00023502815
0.00023489883
0.00023478208
0.00023470362
0.00023436501
0.0002344303
0.00023453048
0.00023464418
0.00023475689
0.00023485917
0.00023494519
0.00023501156
0.0002350565
0.00023507914
0.00023507914
0.0002350565
0.00023501156
0.00023494519
0.00023485917
0.0002347569
0.00023464419
0.00023453048
0.0002344303
0.00023436501
0.00023418886
0.00023424473
0.00023433373
0.00023443725
0.00023454165
0.00023463759
0.00023471903
0.0002347823
0.00023482534
0.00023484708
0.00023484708
0.00023482534
0.0002347823
0.00023471903
0.00023463759
0.00023454165
0.00023443725
0.00023433373
0.00023424473
0.00023418886
)
;

boundaryField
{
    Wall
    {
        type            calculated;
        value           uniform 0.1;
    }
    frontAndBack
    {
        type            empty;
    }
    atmosphere
    {
        type            calculated;
        value           uniform 0.1;
    }
}


// ************************************************************************* //
