/*--------------------------------*- C++ -*----------------------------------*\
| =========                 |                                                 |
| \\      /  F ield         | OpenFOAM: The Open Source CFD Toolbox           |
|  \\    /   O peration     | Version:  3.0.1                                 |
|   \\  /    A nd           | Web:      www.OpenFOAM.org                      |
|    \\/     M anipulation  |                                                 |
\*---------------------------------------------------------------------------*/
FoamFile
{
    version     2.0;
    format      ascii;
    class       volScalarField;
    location    "28";
    object      thermalDiff_foam;
}
// * * * * * * * * * * * * * * * * * * * * * * * * * * * * * * * * * * * * * //

dimensions      [0 2 -1 0 0 0 0];

internalField   nonuniform List<scalar> 
800
(
1.3514079e-07
1.351478e-07
1.3514887e-07
1.3514893e-07
1.3514889e-07
1.3514886e-07
1.3514886e-07
1.3514886e-07
1.3514886e-07
1.3514886e-07
1.3514886e-07
1.3514886e-07
1.3514886e-07
1.3514886e-07
1.3514886e-07
1.3514889e-07
1.3514893e-07
1.3514887e-07
1.351478e-07
1.3514079e-07
1.3369984e-07
1.3378319e-07
1.3380108e-07
1.3380415e-07
1.3380375e-07
1.3380293e-07
1.3380235e-07
1.3380203e-07
1.3380189e-07
1.3380184e-07
1.3380184e-07
1.3380189e-07
1.3380203e-07
1.3380234e-07
1.3380293e-07
1.3380375e-07
1.3380415e-07
1.3380108e-07
1.3378319e-07
1.3369984e-07
1.3224015e-07
1.3237027e-07
1.3240917e-07
1.324166e-07
1.3241676e-07
1.3241568e-07
1.3241479e-07
1.324143e-07
1.3241408e-07
1.32414e-07
1.32414e-07
1.3241408e-07
1.324143e-07
1.3241479e-07
1.3241567e-07
1.3241676e-07
1.324166e-07
1.3240916e-07
1.3237026e-07
1.3224014e-07
1.3092812e-07
1.3109084e-07
1.3114715e-07
1.3115789e-07
1.3115843e-07
1.3115712e-07
1.3115602e-07
1.311554e-07
1.3115513e-07
1.3115503e-07
1.3115503e-07
1.3115513e-07
1.311554e-07
1.3115602e-07
1.3115712e-07
1.3115843e-07
1.3115788e-07
1.3114714e-07
1.3109084e-07
1.3092811e-07
1.2986431e-07
1.3004449e-07
1.3011387e-07
1.3012799e-07
1.3012845e-07
1.3012677e-07
1.3012541e-07
1.3012466e-07
1.3012433e-07
1.3012422e-07
1.3012422e-07
1.3012433e-07
1.3012466e-07
1.3012541e-07
1.3012677e-07
1.3012845e-07
1.3012799e-07
1.3011386e-07
1.3004448e-07
1.298643e-07
1.2908331e-07
1.2926937e-07
1.2934814e-07
1.2936609e-07
1.2936597e-07
1.2936367e-07
1.2936195e-07
1.2936102e-07
1.293606e-07
1.2936046e-07
1.2936046e-07
1.293606e-07
1.2936102e-07
1.2936195e-07
1.2936367e-07
1.2936596e-07
1.2936609e-07
1.2934814e-07
1.2926937e-07
1.290833e-07
1.2856422e-07
1.2875304e-07
1.2883644e-07
1.2885832e-07
1.2885715e-07
1.2885398e-07
1.2885176e-07
1.2885055e-07
1.2884999e-07
1.2884979e-07
1.2884979e-07
1.2884999e-07
1.2885054e-07
1.2885175e-07
1.2885398e-07
1.2885715e-07
1.2885832e-07
1.2883643e-07
1.2875303e-07
1.2856421e-07
1.2824869e-07
1.2844695e-07
1.2853005e-07
1.2855562e-07
1.2855302e-07
1.285487e-07
1.285458e-07
1.2854419e-07
1.2854343e-07
1.2854315e-07
1.2854315e-07
1.2854343e-07
1.2854419e-07
1.285458e-07
1.285487e-07
1.2855302e-07
1.2855561e-07
1.2853004e-07
1.2844694e-07
1.2824869e-07
1.2804527e-07
1.2827046e-07
1.2834926e-07
1.2837802e-07
1.2837555e-07
1.2836983e-07
1.2836607e-07
1.2836394e-07
1.283629e-07
1.2836249e-07
1.2836249e-07
1.283629e-07
1.2836394e-07
1.2836606e-07
1.2836983e-07
1.2837555e-07
1.2837802e-07
1.2834926e-07
1.2827046e-07
1.2804526e-07
1.278386e-07
1.2812189e-07
1.2819385e-07
1.2822529e-07
1.2822634e-07
1.2822122e-07
1.2821642e-07
1.2821367e-07
1.2821228e-07
1.2821171e-07
1.2821171e-07
1.2821228e-07
1.2821366e-07
1.2821642e-07
1.2822122e-07
1.2822634e-07
1.2822528e-07
1.2819385e-07
1.2812189e-07
1.278386e-07
1.2749444e-07
1.2788016e-07
1.2794812e-07
1.2798177e-07
1.2799228e-07
1.2799203e-07
1.2798604e-07
1.2798257e-07
1.2798075e-07
1.2797998e-07
1.2797998e-07
1.2798074e-07
1.2798256e-07
1.2798604e-07
1.2799203e-07
1.2799228e-07
1.2798177e-07
1.2794812e-07
1.2788016e-07
1.2749444e-07
1.2686383e-07
1.2740224e-07
1.2748167e-07
1.2751677e-07
1.2754477e-07
1.2755365e-07
1.2754635e-07
1.2754209e-07
1.2753965e-07
1.2753866e-07
1.2753866e-07
1.2753965e-07
1.2754208e-07
1.2754634e-07
1.2755365e-07
1.2754477e-07
1.2751677e-07
1.2748167e-07
1.2740224e-07
1.2686382e-07
1.2578592e-07
1.2652692e-07
1.2664843e-07
1.2668139e-07
1.2673498e-07
1.2675501e-07
1.2674635e-07
1.2674122e-07
1.2674204e-07
1.2674063e-07
1.2674063e-07
1.2674204e-07
1.2674122e-07
1.2674635e-07
1.2675501e-07
1.2673498e-07
1.2668139e-07
1.2664842e-07
1.2652692e-07
1.2578591e-07
1.2407864e-07
1.2507523e-07
1.252758e-07
1.2531062e-07
1.253952e-07
1.2542562e-07
1.2541583e-07
1.2541001e-07
1.2541832e-07
1.2541611e-07
1.2541611e-07
1.2541832e-07
1.2541e-07
1.2541582e-07
1.2542562e-07
1.2539519e-07
1.2531061e-07
1.2527579e-07
1.2507522e-07
1.2407863e-07
1.2172534e-07
1.2302337e-07
1.2334029e-07
1.2339935e-07
1.235156e-07
1.2355326e-07
1.2354019e-07
1.235268e-07
1.2354541e-07
1.2355163e-07
1.2355163e-07
1.235454e-07
1.235268e-07
1.2354018e-07
1.2355326e-07
1.2351559e-07
1.2339935e-07
1.2334028e-07
1.2302336e-07
1.2172532e-07
1.187884e-07
1.204458e-07
1.2092077e-07
1.2103397e-07
1.2117877e-07
1.2121643e-07
1.2119267e-07
1.2117766e-07
1.2120831e-07
1.212342e-07
1.2123419e-07
1.2120831e-07
1.2117766e-07
1.2119267e-07
1.2121642e-07
1.2117876e-07
1.2103396e-07
1.2092076e-07
1.2044579e-07
1.1878839e-07
1.1478668e-07
1.168367e-07
1.1750503e-07
1.1769634e-07
1.1788523e-07
1.1791573e-07
1.1788414e-07
1.1787063e-07
1.1791005e-07
1.1795809e-07
1.1795809e-07
1.1791005e-07
1.1787063e-07
1.1788413e-07
1.1791572e-07
1.1788522e-07
1.1769633e-07
1.1750502e-07
1.1683669e-07
1.1478667e-07
1.0956545e-07
1.1199873e-07
1.1289191e-07
1.1317033e-07
1.1342675e-07
1.1345971e-07
1.1343343e-07
1.1342237e-07
1.1346755e-07
1.1353112e-07
1.1353111e-07
1.1346755e-07
1.1342236e-07
1.1343343e-07
1.134597e-07
1.1342674e-07
1.1317032e-07
1.128919e-07
1.1199871e-07
1.0956545e-07
1.030519e-07
1.0578456e-07
1.0691088e-07
1.0727054e-07
1.0761368e-07
1.0766696e-07
1.0765811e-07
1.0765045e-07
1.0771342e-07
1.0778194e-07
1.0778194e-07
1.0771342e-07
1.0765044e-07
1.0765811e-07
1.0766696e-07
1.0761367e-07
1.0727053e-07
1.0691087e-07
1.0578455e-07
1.030519e-07
9.5652437e-08
9.8371011e-08
9.9648096e-08
1.0007838e-07
1.0050217e-07
1.005939e-07
1.0060373e-07
1.0059943e-07
1.0067941e-07
1.0074173e-07
1.0074173e-07
1.0067941e-07
1.0059943e-07
1.0060372e-07
1.005939e-07
1.0050217e-07
1.0007838e-07
9.9648089e-08
9.8371008e-08
9.5652443e-08
8.8584101e-08
9.0838209e-08
9.2060477e-08
9.2546338e-08
9.2944483e-08
9.3036902e-08
9.305562e-08
9.3053075e-08
9.3127043e-08
9.3172627e-08
9.3172627e-08
9.3127042e-08
9.3053073e-08
9.3055618e-08
9.30369e-08
9.294448e-08
9.2546334e-08
9.2060474e-08
9.0838211e-08
8.8584113e-08
0.0002641588
0.0002642281
0.0002643934
0.00026456754
0.00026472768
0.00026486033
0.00026496354
0.00026503968
0.00026509136
0.00026511709
0.00026511708
0.00026509136
0.00026503968
0.00026496353
0.00026486032
0.00026472767
0.00026456753
0.00026439339
0.00026422809
0.00026415878
0.00026057547
0.00026066708
0.00026081397
0.00026097356
0.00026112272
0.00026124944
0.00026134998
0.00026142459
0.00026147431
0.0002614991
0.0002614991
0.0002614743
0.00026142458
0.00026134998
0.00026124943
0.00026112271
0.00026097355
0.00026081397
0.00026066708
0.00026057546
0.00025724954
0.00025737864
0.00025753707
0.00025769694
0.00025784353
0.00025796838
0.00025806774
0.0002581414
0.00025819008
0.00025821428
0.00025821428
0.00025819007
0.0002581414
0.00025806774
0.00025796838
0.00025784353
0.00025769693
0.00025753706
0.00025737863
0.00025724953
0.00025417924
0.0002543519
0.00025454428
0.00025472234
0.00025487659
0.00025500385
0.00025510377
0.00025517718
0.00025522539
0.00025524925
0.00025524925
0.00025522539
0.00025517718
0.00025510377
0.00025500384
0.00025487659
0.00025472234
0.00025454428
0.00025435189
0.00025417924
0.0002513807
0.00025158511
0.00025181395
0.00025201899
0.00025218959
0.00025232553
0.00025242943
0.00025250433
0.00025255281
0.00025257662
0.00025257662
0.00025255281
0.00025250433
0.00025242943
0.00025232553
0.00025218959
0.00025201898
0.00025181395
0.00025158511
0.0002513807
0.00024885693
0.00024907702
0.00024933299
0.00024956365
0.00024975329
0.00024990162
0.0002500128
0.00025009159
0.00025014192
0.00025016643
0.00025016643
0.00025014192
0.00025009159
0.0002500128
0.00024990162
0.00024975329
0.00024956364
0.00024933299
0.00024907701
0.00024885693
0.00024659768
0.00024681999
0.00024709018
0.00024733914
0.00024754534
0.00024770629
0.00024782611
0.0002479103
0.00024796365
0.0002479895
0.0002479895
0.00024796365
0.0002479103
0.00024782611
0.00024770629
0.00024754534
0.00024733914
0.00024709018
0.00024681999
0.00024659767
0.0002445848
0.00024480033
0.00024507289
0.00024533089
0.00024554815
0.00024571923
0.00024584703
0.00024593683
0.00024599365
0.00024602113
0.00024602113
0.00024599365
0.00024593683
0.00024584703
0.00024571923
0.00024554815
0.00024533089
0.00024507289
0.00024480033
0.0002445848
0.00024279733
0.00024300086
0.00024326673
0.00024352506
0.0002437469
0.00024392408
0.0002440577
0.00024415214
0.00024421211
0.00024424116
0.00024424116
0.00024421211
0.00024415214
0.0002440577
0.00024392408
0.00024374691
0.00024352506
0.00024326673
0.00024300086
0.00024279733
0.00024121463
0.00024140348
0.0002416565
0.00024190806
0.00024212836
0.00024230712
0.0002424436
0.00024254096
0.00024260315
0.0002426334
0.0002426334
0.00024260315
0.00024254096
0.00024244361
0.00024230712
0.00024212837
0.00024190807
0.0002416565
0.00024140348
0.00024121464
0.00023981811
0.00023999107
0.00024022739
0.00024046697
0.00024068056
0.00024085663
0.00024099284
0.00024109101
0.00024115419
0.00024118506
0.00024118506
0.00024115419
0.00024109101
0.00024099284
0.00024085663
0.00024068057
0.00024046697
0.0002402274
0.00023999107
0.00023981811
0.00023859199
0.00023874868
0.00023896607
0.00023919007
0.00023939299
0.00023956273
0.00023969575
0.00023979263
0.00023985547
0.00023988631
0.00023988631
0.00023985547
0.00023979263
0.00023969575
0.00023956273
0.00023939299
0.00023919007
0.00023896608
0.00023874869
0.00023859199
0.00023752373
0.00023766416
0.00023786145
0.00023806757
0.00023825696
0.00023841755
0.00023854494
0.00023863866
0.00023869992
0.00023873012
0.00023873012
0.00023869992
0.00023863867
0.00023854494
0.00023841756
0.00023825697
0.00023806757
0.00023786145
0.00023766417
0.00023752373
0.00023660422
0.00023672859
0.00023690527
0.0002370922
0.00023726622
0.00023741565
0.00023753556
0.00023762464
0.00023768329
0.00023771234
0.00023771234
0.0002376833
0.00023762464
0.00023753556
0.00023741565
0.00023726622
0.0002370922
0.00023690527
0.00023672859
0.00023660422
0.00023582803
0.00023593661
0.00023609265
0.00023625984
0.00023641752
0.00023655461
0.00023666586
0.00023674929
0.00023680462
0.00023683214
0.00023683214
0.00023680462
0.00023674929
0.00023666586
0.00023655461
0.00023641752
0.00023625985
0.00023609265
0.00023593661
0.00023582803
0.00023519362
0.00023528679
0.00023542262
0.00023557029
0.00023571153
0.00023583594
0.00023593806
0.00023601538
0.00023606701
0.00023609281
0.00023609281
0.00023606701
0.00023601538
0.00023593806
0.00023583594
0.00023571153
0.0002355703
0.00023542262
0.00023528679
0.00023519362
0.00023470362
0.00023478208
0.00023489882
0.00023502815
0.00023515391
0.00023526628
0.00023535964
0.00023543102
0.00023547903
0.00023550311
0.00023550311
0.00023547903
0.00023543102
0.00023535965
0.00023526628
0.00023515391
0.00023502815
0.00023489883
0.00023478208
0.00023470362
0.00023436501
0.0002344303
0.00023453048
0.00023464418
0.00023475689
0.00023485917
0.00023494519
0.00023501156
0.0002350565
0.00023507914
0.00023507914
0.0002350565
0.00023501156
0.00023494519
0.00023485917
0.0002347569
0.00023464419
0.00023453048
0.0002344303
0.00023436501
0.00023418886
0.00023424473
0.00023433373
0.00023443725
0.00023454165
0.00023463759
0.00023471903
0.0002347823
0.00023482534
0.00023484708
0.00023484708
0.00023482534
0.0002347823
0.00023471903
0.00023463759
0.00023454165
0.00023443725
0.00023433373
0.00023424473
0.00023418886
)
;

boundaryField
{
    Wall
    {
        type            calculated;
        value           uniform 4e-05;
    }
    frontAndBack
    {
        type            empty;
    }
    atmosphere
    {
        type            calculated;
        value           uniform 4e-05;
    }
}


// ************************************************************************* //
