/*--------------------------------*- C++ -*----------------------------------*\
| =========                 |                                                 |
| \\      /  F ield         | OpenFOAM: The Open Source CFD Toolbox           |
|  \\    /   O peration     | Version:  3.0.1                                 |
|   \\  /    A nd           | Web:      www.OpenFOAM.org                      |
|    \\/     M anipulation  |                                                 |
\*---------------------------------------------------------------------------*/
FoamFile
{
    version     2.0;
    format      ascii;
    class       volScalarField;
    location    "28";
    object      TS;
}
// * * * * * * * * * * * * * * * * * * * * * * * * * * * * * * * * * * * * * //

dimensions      [0 0 0 1 0 0 0];

internalField   nonuniform List<scalar> 
800
(
348.57417
348.58185
348.58344
348.58367
348.5837
348.58372
348.58375
348.58378
348.5838
348.58381
348.58381
348.5838
348.58378
348.58375
348.58372
348.5837
348.58367
348.58344
348.58185
348.57417
347.45731
347.51685
347.53284
347.53633
347.53653
347.53605
347.5356
347.53531
347.53516
347.53509
347.53509
347.53516
347.53531
347.5356
347.53605
347.53653
347.53633
347.53284
347.51685
347.4573
346.47212
346.56494
346.59519
346.60238
346.60326
346.60268
346.60201
346.60156
346.60131
346.6012
346.6012
346.60131
346.60156
346.60201
346.60268
346.60326
346.60238
346.59519
346.56494
346.47211
345.68555
345.80285
345.84456
345.8547
345.8561
345.85546
345.85465
345.8541
345.8538
345.85367
345.85367
345.8538
345.8541
345.85465
345.85545
345.85609
345.8547
345.84456
345.80284
345.68554
345.14033
345.27181
345.32279
345.33509
345.33672
345.33592
345.33497
345.33432
345.33397
345.33382
345.33382
345.33397
345.33432
345.33497
345.33592
345.33671
345.33509
345.32278
345.2718
345.14032
344.86673
345.00096
345.05971
345.0736
345.0752
345.07411
345.07295
345.07217
345.07175
345.07157
345.07157
345.07175
345.07217
345.07295
345.07411
345.0752
345.0736
345.0597
345.00095
344.86673
344.8835
345.00992
345.07458
345.08976
345.09116
345.08963
345.08817
345.0872
345.08668
345.08645
345.08645
345.08668
345.0872
345.08817
345.08963
345.09116
345.08976
345.07458
345.00992
344.8835
345.19685
345.30793
345.37513
345.39165
345.39287
345.39082
345.38897
345.38771
345.38704
345.38673
345.38673
345.38704
345.38771
345.38897
345.39082
345.39287
345.39165
345.37513
345.30793
345.19685
345.79864
345.89195
345.95684
345.97531
345.97653
345.97394
345.97161
345.96998
345.96909
345.96868
345.96868
345.96909
345.96998
345.97161
345.97394
345.97653
345.97531
345.95685
345.89195
345.79864
346.66496
346.74482
346.80222
346.82406
346.82578
346.82265
346.81975
346.81767
346.81653
346.81598
346.81598
346.81653
346.81767
346.81975
346.82265
346.82578
346.82407
346.80223
346.74483
346.66497
347.7524
347.83175
347.87777
347.90569
347.90884
347.9053
347.90184
347.89929
347.89791
347.89721
347.89721
347.89791
347.89929
347.90185
347.9053
347.90885
347.90569
347.87778
347.83176
347.75241
348.99109
349.08911
349.12772
349.16619
349.16814
349.16468
349.16097
349.15809
349.15673
349.15593
349.15593
349.15673
349.15809
349.16097
349.16469
349.16814
349.1662
349.12773
349.08912
348.9911
350.2725
350.41055
350.46203
350.51155
350.50689
350.50482
350.50169
350.49905
350.49841
350.49773
350.49773
350.49841
350.49905
350.5017
350.50482
350.5069
350.51156
350.46204
350.41056
350.27251
351.42281
351.63675
351.73141
351.79062
351.77826
351.78023
351.77973
351.77853
351.77009
351.76989
351.76989
351.77009
351.77853
351.77973
351.78024
351.77827
351.79063
351.73143
351.63676
351.42283
352.17295
352.52894
352.69391
352.76951
352.75868
352.77011
352.77787
352.7806
352.75345
352.75408
352.75408
352.75345
352.7806
352.77787
352.77011
352.75868
352.76952
352.69392
352.52895
352.17296
352.15584
352.75207
353.0097
353.12166
353.1323
353.16519
353.16494
353.17544
353.13249
353.13507
353.13507
353.13249
353.17544
353.16494
353.1652
353.1323
353.12167
353.00971
352.75208
352.15585
350.87247
351.83553
352.21846
352.39786
352.4557
352.48314
352.46877
352.49303
352.46368
352.4718
352.4718
352.46368
352.49303
352.46877
352.48315
352.4557
352.39787
352.21847
351.83554
350.87248
347.7197
349.08666
349.65639
349.93797
350.09421
350.13035
350.13154
350.17461
350.12138
350.13781
350.13781
350.12138
350.17461
350.13154
350.13035
350.09421
349.93798
349.6564
349.08668
347.71972
341.70247
343.61558
344.46925
344.8858
345.11362
345.21721
345.27366
345.33956
345.3072
345.33357
345.33357
345.3072
345.33957
345.27367
345.21721
345.11363
344.88581
344.46926
343.6156
341.70251
332.56746
334.58783
335.70512
336.3412
336.57144
336.75202
336.8691
336.95466
336.99477
337.02899
337.02899
336.99477
336.95467
336.86911
336.75203
336.57145
336.34121
335.70514
334.58785
332.5675
326.28672
326.59105
326.88597
327.06035
327.20524
327.31274
327.39067
327.44632
327.48828
327.50845
327.50845
327.48828
327.44632
327.39067
327.31274
327.20524
327.06035
326.88596
326.59104
326.28672
322.50644
322.55572
322.66553
322.779
322.88349
322.97072
323.03889
323.08926
323.12342
323.14047
323.14047
323.12342
323.08926
323.03889
322.97072
322.88349
322.77899
322.66552
322.55571
322.50643
320.16353
320.22252
320.31768
320.42107
320.51821
320.60127
320.66745
320.71665
320.74946
320.76584
320.76584
320.74946
320.71665
320.66745
320.60127
320.51821
320.42106
320.31767
320.22252
320.16352
317.97688
318.05851
318.16025
318.26397
318.3596
318.44143
318.50678
318.55531
318.58739
318.60335
318.60335
318.58739
318.5553
318.50678
318.44143
318.3596
318.26397
318.16024
318.0585
317.97687
315.9497
316.06053
316.1844
316.29997
316.40062
316.48401
316.54971
316.59809
316.62988
316.64563
316.64563
316.62988
316.59809
316.54971
316.48401
316.40061
316.29997
316.1844
316.06053
315.94969
314.09601
314.22902
314.37754
314.51088
314.62222
314.71122
314.77942
314.82867
314.8606
314.87629
314.87629
314.8606
314.82867
314.77942
314.71121
314.62222
314.51087
314.37754
314.22902
314.09601
312.4201
312.56464
312.73212
312.88299
313.0071
313.10426
313.17719
313.22893
313.26201
313.27813
313.27813
313.26201
313.22893
313.17719
313.10426
313.0071
312.88299
312.73212
312.56464
312.4201
310.91686
311.06391
311.24197
311.40569
311.54114
311.64682
311.72551
311.78081
311.81586
311.83285
311.83285
311.81586
311.78081
311.72551
311.64682
311.54114
311.40568
311.24196
311.06391
310.91686
309.57569
309.71887
309.89937
310.06983
310.21312
310.32582
310.40995
310.46904
310.50642
310.52451
310.52451
310.50642
310.46904
310.40995
310.32582
310.21312
310.06983
309.89937
309.71887
309.57569
308.38311
308.51873
308.69546
308.86679
309.01366
309.13078
309.21901
309.28132
309.32086
309.34002
309.34002
309.32087
309.28132
309.21901
309.13078
309.01366
308.86679
308.69546
308.51873
308.38311
307.3259
307.45201
307.62069
307.78808
307.93441
308.05296
308.14336
308.20779
308.24892
308.26891
308.26891
308.24892
308.20779
308.14336
308.05296
307.93441
307.78808
307.62069
307.45201
307.3259
306.39209
306.5078
306.66571
306.82554
306.96782
307.08493
307.17542
307.24057
307.28247
307.30293
307.30293
307.28247
307.24057
307.17542
307.08493
306.96782
306.82554
306.66571
306.50781
306.39209
305.5715
305.67648
305.822
305.97176
306.10725
306.22044
306.30904
306.37351
306.4153
306.43579
306.43579
306.4153
306.37351
306.30904
306.22044
306.10725
305.97176
305.822
305.67648
305.5715
304.856
304.9502
305.08246
305.22051
305.34722
305.45454
305.53959
305.60211
305.64294
305.66306
305.66306
305.64294
305.60211
305.53959
305.45455
305.34723
305.22052
305.08246
304.95021
304.856
304.23973
304.32323
304.44182
304.5672
304.68381
304.78386
304.86407
304.92362
304.9628
304.9822
304.9822
304.9628
304.92362
304.86407
304.78386
304.68382
304.5672
304.44182
304.32324
304.23973
303.71921
303.79217
303.89701
304.00928
304.11509
304.20701
304.28155
304.33742
304.37445
304.39286
304.39286
304.37445
304.33742
304.28155
304.20701
304.11509
304.00929
303.89701
303.79217
303.71921
303.29356
303.35621
303.44754
303.5468
303.64168
303.7252
303.79372
303.84557
303.88018
303.89747
303.89747
303.88018
303.84557
303.79372
303.7252
303.64168
303.5468
303.44754
303.35621
303.29356
302.96468
303.01746
303.09601
303.183
303.26755
303.34306
303.40577
303.4537
303.48592
303.50208
303.50208
303.48592
303.4537
303.40578
303.34307
303.26755
303.183
303.09601
303.01746
302.96468
302.73735
302.78129
302.84872
302.92524
303.00106
303.06984
303.12766
303.17227
303.20245
303.21766
303.21766
303.20246
303.17227
303.12766
303.06984
303.00107
302.92524
302.84873
302.78129
302.73735
302.61908
302.65669
302.71661
302.78629
302.85655
302.92109
302.97586
303.0184
303.04733
303.06194
303.06194
303.04733
303.0184
302.97586
302.92109
302.85655
302.78629
302.71661
302.6567
302.61908
)
;

boundaryField
{
    Wall
    {
        type            zeroGradient;
    }
    frontAndBack
    {
        type            empty;
    }
    atmosphere
    {
        type            zeroGradient;
    }
}


// ************************************************************************* //
