/*--------------------------------*- C++ -*----------------------------------*\
| =========                 |                                                 |
| \\      /  F ield         | OpenFOAM: The Open Source CFD Toolbox           |
|  \\    /   O peration     | Version:  3.0.1                                 |
|   \\  /    A nd           | Web:      www.OpenFOAM.org                      |
|    \\/     M anipulation  |                                                 |
\*---------------------------------------------------------------------------*/
FoamFile
{
    version     2.0;
    format      ascii;
    class       volVectorField;
    location    "28";
    object      U;
}
// * * * * * * * * * * * * * * * * * * * * * * * * * * * * * * * * * * * * * //

dimensions      [0 1 -1 0 0 0 0];

internalField   nonuniform List<vector> 
800
(
(7.5460252e-06 0.00026172393 0)
(9.9326917e-06 0.00026444013 0)
(1.1594615e-05 0.00026605275 0)
(1.0951236e-05 0.00026688651 0)
(9.4467318e-06 0.00026722807 0)
(7.7271761e-06 0.00026732349 0)
(5.9649025e-06 0.00026731743 0)
(4.2219169e-06 0.00026728419 0)
(2.5140819e-06 0.00026725534 0)
(8.3249853e-07 0.00026724027 0)
(-8.4001235e-07 0.00026724024 0)
(-2.5214313e-06 0.00026725525 0)
(-4.2289605e-06 0.00026728405 0)
(-5.9715003e-06 0.00026731724 0)
(-7.7332249e-06 0.00026732333 0)
(-9.452119e-06 0.00026722789 0)
(-1.0955782e-05 0.00026688628 0)
(-1.159834e-05 0.00026605255 0)
(-9.9353199e-06 0.00026444003 0)
(-7.5480824e-06 0.00026172295 0)
(4.8729734e-06 0.00045561742 0)
(7.0574378e-06 0.00046236124 0)
(1.0080707e-05 0.00046599965 0)
(1.0085629e-05 0.00046780193 0)
(8.9858704e-06 0.00046858984 0)
(7.509136e-06 0.0004688712 0)
(5.87583e-06 0.00046892925 0)
(4.1938042e-06 0.00046890999 0)
(2.5099039e-06 0.00046887853 0)
(8.338123e-07 0.00046885913 0)
(-8.3898244e-07 0.00046885902 0)
(-2.5149716e-06 0.0004688782 0)
(-4.1986805e-06 0.00046890944 0)
(-5.8803685e-06 0.00046892857 0)
(-7.5132993e-06 0.00046887033 0)
(-8.9896251e-06 0.00046858884 0)
(-1.0088793e-05 0.00046780075 0)
(-1.0083219e-05 0.00046599824 0)
(-7.0591613e-06 0.00046235949 0)
(-4.874121e-06 0.00045561429 0)
(6.3193816e-06 0.00082903162 0)
(8.3423383e-06 0.00084074305 0)
(1.0154458e-05 0.00084717756 0)
(9.8515904e-06 0.00085044338 0)
(8.7308201e-06 0.00085194791 0)
(7.3036195e-06 0.00085254047 0)
(5.7294419e-06 0.00085271095 0)
(4.0994029e-06 0.00085271815 0)
(2.4576831e-06 0.00085268361 0)
(8.1754729e-07 0.0008526576 0)
(-8.2114562e-07 0.00085265745 0)
(-2.4612263e-06 0.00085268316 0)
(-4.102781e-06 0.00085271741 0)
(-5.7326303e-06 0.00085270997 0)
(-7.3065507e-06 0.00085253926 0)
(-8.7334116e-06 0.00085194647 0)
(-9.85375e-06 0.00085044169 0)
(-1.0156034e-05 0.00084717551 0)
(-8.3432277e-06 0.00084074039 0)
(-6.3196714e-06 0.0008290278 0)
(6.619041e-06 0.0011868073 0)
(8.5234724e-06 0.001201205 0)
(1.0106191e-05 0.0012094895 0)
(9.6758905e-06 0.0012138051 0)
(8.5181033e-06 0.0012158334 0)
(7.1026787e-06 0.0012166602 0)
(5.565252e-06 0.0012169216 0)
(3.98164e-06 0.0012169556 0)
(2.3879276e-06 0.0012169242 0)
(7.9478986e-07 0.0012168964 0)
(-7.9748582e-07 0.0012168962 0)
(-2.390597e-06 0.0012169237 0)
(-3.9842131e-06 0.0012169548 0)
(-5.5676099e-06 0.0012169204 0)
(-7.1048437e-06 0.0012166587 0)
(-8.5200671e-06 0.0012158315 0)
(-9.677462e-06 0.001213803 0)
(-1.0107275e-05 0.0012094868 0)
(-8.5240945e-06 0.0012012015 0)
(-6.619108e-06 0.0011868026 0)
(6.365288e-06 0.0015391384 0)
(8.2336198e-06 0.0015573671 0)
(9.9257086e-06 0.0015677469 0)
(9.4766411e-06 0.0015731128 0)
(8.3063796e-06 0.0015756189 0)
(6.9044814e-06 0.0015766429 0)
(5.3997446e-06 0.001576974 0)
(3.8594792e-06 0.0015770249 0)
(2.3137555e-06 0.0015769925 0)
(7.701651e-07 0.0015769612 0)
(-7.7226109e-07 0.001576961 0)
(-2.3158088e-06 0.0015769919 0)
(-3.8614624e-06 0.001577024 0)
(-5.4016055e-06 0.0015769727 0)
(-6.9061815e-06 0.0015766412 0)
(-8.3078756e-06 0.0015756169 0)
(-9.4777872e-06 0.0015731104 0)
(-9.9264465e-06 0.0015677439 0)
(-8.2340887e-06 0.0015573633 0)
(-6.3652658e-06 0.0015391335 0)
(6.3703862e-06 0.0018972074 0)
(8.240525e-06 0.0019196937 0)
(9.8822419e-06 0.0019323235 0)
(9.3484751e-06 0.0019387707 0)
(8.1337785e-06 0.00194174 0)
(6.7290257e-06 0.0019429374 0)
(5.2462463e-06 0.0019433189 0)
(3.7422757e-06 0.001943374 0)
(2.2409341e-06 0.0019433332 0)
(7.4567285e-07 0.0019432954 0)
(-7.4730706e-07 0.0019432952 0)
(-2.2425404e-06 0.0019433326 0)
(-3.7437819e-06 0.0019433728 0)
(-5.2476269e-06 0.0019433173 0)
(-6.7302865e-06 0.0019429355 0)
(-8.1348627e-06 0.0019417377 0)
(-9.3492608e-06 0.0019387679 0)
(-9.8826601e-06 0.0019323201 0)
(-8.2407844e-06 0.0019196896 0)
(-6.3702441e-06 0.0018972024 0)
(6.5851938e-06 0.0022617007 0)
(8.453588e-06 0.0022883378 0)
(9.9695557e-06 0.0023031728 0)
(9.2992166e-06 0.0023106568 0)
(8.0058776e-06 0.0023140413 0)
(6.5806978e-06 0.0023153735 0)
(5.1090339e-06 0.0023157796 0)
(3.6338765e-06 0.0023158231 0)
(2.1721392e-06 0.0023157651 0)
(7.2229841e-07 0.0023157165 0)
(-7.234827e-07 0.0023157162 0)
(-2.1733026e-06 0.0023157643 0)
(-3.6349716e-06 0.0023158219 0)
(-5.1100266e-06 0.0023157779 0)
(-6.5815741e-06 0.0023153714 0)
(-8.006586e-06 0.0023140387 0)
(-9.2996524e-06 0.0023106537 0)
(-9.9696648e-06 0.0023031692 0)
(-8.453615e-06 0.0022883335 0)
(-6.5848802e-06 0.0022616957 0)
(6.9054867e-06 0.0026327006 0)
(8.7684474e-06 0.0026634958 0)
(1.0136992e-05 0.0026804944 0)
(9.2936448e-06 0.002688951 0)
(7.8981261e-06 0.0026926924 0)
(6.4457719e-06 0.0026941115 0)
(4.9817235e-06 0.002694512 0)
(3.5312245e-06 0.0026945256 0)
(2.1058846e-06 0.0026944393 0)
(6.9962292e-07 0.0026943749 0)
(-7.0033449e-07 0.0026943747 0)
(-2.1065732e-06 0.0026944386 0)
(-3.5318571e-06 0.0026945243 0)
(-4.9822806e-06 0.0026945102 0)
(-6.4462276e-06 0.0026941092 0)
(-7.8984344e-06 0.0026926896 0)
(-9.2936976e-06 0.0026889478 0)
(-1.0136738e-05 0.0026804907 0)
(-8.7681562e-06 0.0026634915 0)
(-6.904914e-06 0.0026326957 0)
(7.307237e-06 0.0030118518 0)
(9.1629287e-06 0.0030469226 0)
(1.0345482e-05 0.0030660408 0)
(9.2980641e-06 0.0030753966 0)
(7.7841996e-06 0.0030794421 0)
(6.3026817e-06 0.0030809122 0)
(4.8515838e-06 0.0030812806 0)
(3.4270217e-06 0.0030812469 0)
(2.0381739e-06 0.003081121 0)
(6.763514e-07 0.0030810351 0)
(-6.7657016e-07 0.0030810348 0)
(-2.0383706e-06 0.0030811202 0)
(-3.4271758e-06 0.0030812455 0)
(-4.8516797e-06 0.0030812787 0)
(-6.3027028e-06 0.0030809098 0)
(-7.7840937e-06 0.0030794391 0)
(-9.2977447e-06 0.0030753932 0)
(-1.0344974e-05 0.0030660368 0)
(-9.1624538e-06 0.0030469182 0)
(-7.3064832e-06 0.0030118474 0)
(7.8026926e-06 0.0034016032 0)
(9.6220693e-06 0.0034411143 0)
(1.0532404e-05 0.0034622773 0)
(9.2717751e-06 0.003472438 0)
(7.6478734e-06 0.0034767369 0)
(6.1406463e-06 0.0034782387 0)
(4.705346e-06 0.0034785524 0)
(3.3101376e-06 0.0034784537 0)
(1.961679e-06 0.0034782734 0)
(6.5001304e-07 0.0034781589 0)
(-6.4972953e-07 0.0034781586 0)
(-1.9613754e-06 0.0034782725 0)
(-3.3098072e-06 0.0034784522 0)
(-4.7049839e-06 0.0034785504 0)
(-6.1402438e-06 0.0034782361 0)
(-7.6473972e-06 0.0034767338 0)
(-9.2712015e-06 0.0034724343 0)
(-1.0531695e-05 0.0034622731 0)
(-9.6214895e-06 0.0034411097 0)
(-7.8019661e-06 0.003401599 0)
(8.4020565e-06 0.0038047922 0)
(1.011668e-05 0.0038489461 0)
(1.0606303e-05 0.0038720662 0)
(9.1579838e-06 0.0038828967 0)
(7.4673652e-06 0.0038873803 0)
(5.9417327e-06 0.0038888763 0)
(4.5186418e-06 0.0038890998 0)
(3.1582456e-06 0.0038889136 0)
(1.8605665e-06 0.0038886588 0)
(6.155233e-07 0.0038885047 0)
(-6.1477776e-07 0.0038885044 0)
(-1.8598064e-06 0.0038886579 0)
(-3.1574734e-06 0.0038889121 0)
(-4.5178613e-06 0.0038890977 0)
(-5.9409693e-06 0.0038888736 0)
(-7.4666099e-06 0.003887377 0)
(-9.1572009e-06 0.0038828929 0)
(-1.0605641e-05 0.003872062 0)
(-1.0116264e-05 0.0038489418 0)
(-8.4013684e-06 0.0038047885 0)
(9.0695193e-06 0.0042244692 0)
(1.0600204e-05 0.004273492 0)
(1.0446231e-05 0.0042984358 0)
(8.8505577e-06 0.0043096758 0)
(7.1670704e-06 0.004314195 0)
(5.6359828e-06 0.0043155922 0)
(4.2355549e-06 0.0043156713 0)
(2.9301781e-06 0.0043153859 0)
(1.7055613e-06 0.0043150795 0)
(5.6237104e-07 0.004314874 0)
(-5.6124274e-07 0.0043148737 0)
(-1.7044212e-06 0.0043150786 0)
(-2.929035e-06 0.0043153844 0)
(-4.2344324e-06 0.0043156692 0)
(-5.6349572e-06 0.0043155895 0)
(-7.1660001e-06 0.0043141918 0)
(-8.849507e-06 0.004309672 0)
(-1.0445419e-05 0.0042984317 0)
(-1.0599694e-05 0.0042734879 0)
(-9.0688594e-06 0.0042244659 0)
(9.6695828e-06 0.0046642671 0)
(1.0943616e-05 0.0047182755 0)
(9.7854509e-06 0.0047447372 0)
(8.0777919e-06 0.0047560112 0)
(6.5557693e-06 0.0047603114 0)
(5.0907531e-06 0.0047614527 0)
(3.7898883e-06 0.0047613272 0)
(2.6288247e-06 0.0047609217 0)
(1.5030128e-06 0.0047606193 0)
(4.779034e-07 0.0047603323 0)
(-4.7647574e-07 0.004760332 0)
(-1.5015883e-06 0.0047606185 0)
(-2.6274172e-06 0.0047609202 0)
(-3.7885318e-06 0.0047613251 0)
(-5.0894326e-06 0.0047614501 0)
(-6.5546341e-06 0.0047603083 0)
(-8.0767822e-06 0.0047560078 0)
(-9.7845504e-06 0.0047447333 0)
(-1.0943195e-05 0.0047182718 0)
(-9.6690863e-06 0.0046642641 0)
(9.7846449e-06 0.005131874 0)
(1.0735632e-05 0.0051909801 0)
(8.2075945e-06 0.0052184561 0)
(6.4944413e-06 0.0052293929 0)
(5.3498239e-06 0.0052330884 0)
(4.1256881e-06 0.0052337728 0)
(3.0791249e-06 0.0052333421 0)
(2.214609e-06 0.0052326547 0)
(1.2206883e-06 0.0052324086 0)
(3.2467184e-07 0.005232097 0)
(-3.2308314e-07 0.0052320968 0)
(-1.2191084e-06 0.0052324078 0)
(-2.2130262e-06 0.0052326534 0)
(-3.077599e-06 0.0052333402 0)
(-4.1243946e-06 0.0052337705 0)
(-5.3483341e-06 0.0052330855 0)
(-6.4931021e-06 0.0052293897 0)
(-8.2068069e-06 0.0052184526 0)
(-1.0735315e-05 0.0051909766 0)
(-9.7843221e-06 0.0051318714 0)
(9.0994872e-06 0.0056386139 0)
(9.6402532e-06 0.0057030333 0)
(5.3052121e-06 0.0057308831 0)
(3.7371045e-06 0.0057409942 0)
(3.177096e-06 0.0057435213 0)
(2.509172e-06 0.0057434738 0)
(1.8391155e-06 0.0057425535 0)
(1.5120691e-06 0.0057416049 0)
(9.0538183e-07 0.0057414677 0)
(1.5863128e-07 0.0057413013 0)
(-1.568841e-07 0.0057413012 0)
(-9.0361103e-07 0.0057414668 0)
(-1.5104093e-06 0.0057416037 0)
(-1.8375438e-06 0.0057425518 0)
(-2.5077267e-06 0.0057434717 0)
(-3.1758779e-06 0.0057435189 0)
(-3.7360864e-06 0.0057409911 0)
(-5.3044689e-06 0.00573088 0)
(-9.6398843e-06 0.0057030304 0)
(-9.0990805e-06 0.0056386112 0)
(7.1598331e-06 0.0061912822 0)
(7.1933846e-06 0.0062607733 0)
(4.655563e-07 0.0062882652 0)
(-8.0762488e-07 0.0062969486 0)
(-5.1280478e-07 0.0062979251 0)
(-1.0895137e-07 0.0062968837 0)
(2.3617131e-08 0.0062953091 0)
(5.9933971e-07 0.0062941828 0)
(6.0876378e-07 0.0062941125 0)
(5.5557276e-08 0.0062941976 0)
(-5.3926822e-08 0.0062941974 0)
(-6.0715249e-07 0.0062941117 0)
(-5.9752987e-07 0.0062941815 0)
(-2.2005172e-08 0.0062953075 0)
(1.1037604e-07 0.0062968817 0)
(5.1406253e-07 0.0062979227 0)
(8.0876649e-07 0.006296946 0)
(-4.6459118e-07 0.0062882627 0)
(-7.1931695e-06 0.006260771 0)
(-7.1596065e-06 0.006191281 0)
(3.0883561e-06 0.006789386 0)
(2.5954759e-06 0.0068624617 0)
(-6.9414829e-06 0.0068886826 0)
(-7.5314119e-06 0.0068952236 0)
(-5.9578726e-06 0.0068946644 0)
(-3.914432e-06 0.0068926575 0)
(-2.4698417e-06 0.0068904541 0)
(-6.8974911e-07 0.0068890935 0)
(1.6696663e-07 0.0068890561 0)
(-2.8697906e-08 0.0068893549 0)
(3.0229689e-08 0.0068893547 0)
(-1.654155e-07 0.0068890556 0)
(6.9129575e-07 0.0068890926 0)
(2.4713474e-06 0.0068904525 0)
(3.9158382e-06 0.0068926557 0)
(5.9590843e-06 0.0068946623 0)
(7.5325023e-06 0.0068952213 0)
(6.9422844e-06 0.0068886805 0)
(-2.5947359e-06 0.0068624599 0)
(-3.0877263e-06 0.0067893848 0)
(-4.5624668e-06 0.0074305236 0)
(-5.7709698e-06 0.007505147 0)
(-1.7569982e-05 0.0075289472 0)
(-1.6633931e-05 0.0075324873 0)
(-1.2899505e-05 0.0075312256 0)
(-8.605157e-06 0.0075285419 0)
(-5.5497746e-06 0.0075259679 0)
(-2.4194813e-06 0.0075244026 0)
(-5.5737555e-07 0.0075245486 0)
(-2.080392e-07 0.0075249899 0)
(2.0942023e-07 0.0075249897 0)
(5.5878703e-07 0.0075245481 0)
(2.4207538e-06 0.0075244017 0)
(5.5511118e-06 0.0075259667 0)
(8.606485e-06 0.0075285402 0)
(1.2900512e-05 0.0075312237 0)
(1.6635176e-05 0.0075324854 0)
(1.7571059e-05 0.0075289455 0)
(5.7710405e-06 0.0075051459 0)
(4.5624072e-06 0.0074305232 0)
(-1.6025582e-05 0.0081086967 0)
(-1.8994464e-05 0.0081825905 0)
(-3.1953343e-05 0.008203046 0)
(-2.7746316e-05 0.0082037639 0)
(-2.0506682e-05 0.0082039668 0)
(-1.3651366e-05 0.0082015251 0)
(-8.7709523e-06 0.0081989863 0)
(-4.186415e-06 0.0081973572 0)
(-1.3425798e-06 0.008197446 0)
(-4.9998592e-07 0.0081979362 0)
(5.0112508e-07 0.008197936 0)
(1.3437046e-06 0.0081974455 0)
(4.1875823e-06 0.0081973564 0)
(8.7721234e-06 0.0081989853 0)
(1.3652367e-05 0.0082015236 0)
(2.0507743e-05 0.0082039652 0)
(2.7747543e-05 0.0082037623 0)
(3.1954427e-05 0.0082030448 0)
(1.8995316e-05 0.00818259 0)
(1.6026287e-05 0.0081086978 0)
(-3.1545626e-05 0.008813494 0)
(-3.868437e-05 0.0088788203 0)
(-4.8955432e-05 0.0088957176 0)
(-3.8446063e-05 0.0088986574 0)
(-2.6552653e-05 0.0089004345 0)
(-1.7927778e-05 0.0088984496 0)
(-1.1645869e-05 0.0088963067 0)
(-5.9672618e-06 0.0088948091 0)
(-2.3659938e-06 0.0088937395 0)
(-9.0865134e-07 0.0088941437 0)
(9.0960357e-07 0.0088941436 0)
(2.3669224e-06 0.0088937391 0)
(5.9682299e-06 0.0088948083 0)
(1.1646833e-05 0.0088963056 0)
(1.7928742e-05 0.0088984483 0)
(2.6553619e-05 0.008900433 0)
(3.8447401e-05 0.0088986556 0)
(4.8956771e-05 0.0088957156 0)
(3.8685258e-05 0.008878819 0)
(3.1546381e-05 0.0088134936 0)
(-5.7795277e-05 0.009446077 0)
(-7.2749012e-05 0.0095456658 0)
(-6.3362903e-05 0.0095733575 0)
(-4.4433746e-05 0.0095815974 0)
(-3.1826724e-05 0.0095851373 0)
(-2.1384161e-05 0.009585273 0)
(-1.3821405e-05 0.0095850292 0)
(-8.2420182e-06 0.0095852305 0)
(-4.2961179e-06 0.0095862609 0)
(-1.4594249e-06 0.0095874487 0)
(1.4601195e-06 0.0095874485 0)
(4.2968346e-06 0.0095862603 0)
(8.2427184e-06 0.0095852297 0)
(1.3822264e-05 0.009585028 0)
(2.1385122e-05 0.0095852716 0)
(3.1827487e-05 0.0095851356 0)
(4.4434366e-05 0.0095815954 0)
(6.3363566e-05 0.0095733559 0)
(7.274912e-05 0.0095456649 0)
(5.7795223e-05 0.009446078 0)
(1.8587153e-05 0.010083954 0)
(3.0594612e-06 0.01016215 0)
(-3.1112046e-05 0.010167209 0)
(-2.8636272e-05 0.010162521 0)
(-2.4131949e-05 0.010159356 0)
(-1.5665728e-05 0.010158629 0)
(-9.7968036e-06 0.010158469 0)
(-4.8014701e-06 0.010159585 0)
(-2.2694812e-06 0.010162553 0)
(-1.1527105e-06 0.010164397 0)
(1.1533173e-06 0.010164397 0)
(2.2700957e-06 0.010162552 0)
(4.8022664e-06 0.010159583 0)
(9.7976244e-06 0.010158467 0)
(1.5666454e-05 0.010158626 0)
(2.4132354e-05 0.010159354 0)
(2.8637654e-05 0.010162518 0)
(3.1113812e-05 0.010167207 0)
(-3.0584881e-06 0.010162148 0)
(-1.85858e-05 0.010083955 0)
(0.00055074384 0.009964472 0)
(0.00058816329 0.010479861 0)
(0.00034540923 0.010533275 0)
(0.00019262923 0.010527206 0)
(0.00011031651 0.010526899 0)
(6.8812534e-05 0.010533522 0)
(4.4927645e-05 0.010538701 0)
(2.9573545e-05 0.010544345 0)
(1.6636671e-05 0.010550707 0)
(4.8864144e-06 0.010554565 0)
(-4.8854686e-06 0.010554565 0)
(-1.6635706e-05 0.010550707 0)
(-2.9572649e-05 0.010544345 0)
(-4.4927106e-05 0.0105387 0)
(-6.8812567e-05 0.010533521 0)
(-0.00011031613 0.010526898 0)
(-0.00019262838 0.010527205 0)
(-0.00034540829 0.010533275 0)
(-0.00058816011 0.010479864 0)
(-0.00055073725 0.0099644863 0)
(0.0011079523 0.0081095757 0)
(0.0018947592 0.010110648 0)
(0.0016941699 0.010356897 0)
(0.0012661653 0.010358573 0)
(0.00091730134 0.010305009 0)
(0.00064939044 0.010277554 0)
(0.00044115409 0.010260304 0)
(0.00028400739 0.010250253 0)
(0.00015753129 0.010245453 0)
(5.0892052e-05 0.010243364 0)
(-5.0891074e-05 0.010243365 0)
(-0.00015752906 0.010245455 0)
(-0.0002840053 0.010250256 0)
(-0.00044115463 0.010260308 0)
(-0.000649391 0.010277561 0)
(-0.00091730356 0.010305016 0)
(-0.0012661648 0.010358575 0)
(-0.001694167 0.010356897 0)
(-0.0018947605 0.01011066 0)
(-0.0011079531 0.0081096027 0)
(0.00090815304 0.0063993067 0)
(0.0019175713 0.0096110499 0)
(0.002077214 0.010427647 0)
(0.0018133189 0.010561418 0)
(0.0014493919 0.010505742 0)
(0.001108335 0.010410536 0)
(0.00080137782 0.010331526 0)
(0.0005371123 0.010274275 0)
(0.00030733813 0.010240085 0)
(0.000101118 0.010223061 0)
(-0.00010111878 0.010223062 0)
(-0.00030733862 0.010240086 0)
(-0.00053711293 0.010274276 0)
(-0.00080137931 0.010331529 0)
(-0.0011083364 0.01041054 0)
(-0.0014493881 0.010505746 0)
(-0.0018133164 0.01056142 0)
(-0.0020772141 0.010427646 0)
(-0.001917571 0.0096110551 0)
(-0.00090815465 0.0063993217 0)
(0.00058589566 0.0051362092 0)
(0.0015173915 0.0090044052 0)
(0.0018508772 0.010373893 0)
(0.0017860254 0.010779076 0)
(0.0015564407 0.010826504 0)
(0.0012572992 0.010741347 0)
(0.00094806049 0.010631487 0)
(0.00065480369 0.010537249 0)
(0.0003824132 0.010472444 0)
(0.00012735178 0.01043902 0)
(-0.00012735421 0.010439021 0)
(-0.00038241541 0.010472444 0)
(-0.00065480581 0.010537249 0)
(-0.00094806281 0.010631488 0)
(-0.0012572992 0.010741349 0)
(-0.0015564382 0.010826507 0)
(-0.0017860217 0.010779072 0)
(-0.001850873 0.010373891 0)
(-0.0015173901 0.0090044124 0)
(-0.00058589577 0.0051362254 0)
(0.00032606398 0.0042261987 0)
(0.0010360906 0.0083579056 0)
(0.00144649 0.010152815 0)
(0.0015359062 0.010860475 0)
(0.0014233842 0.011054536 0)
(0.0012057307 0.011029873 0)
(0.00094335762 0.01093256 0)
(0.00066943709 0.010830462 0)
(0.00039806187 0.010753135 0)
(0.00013387968 0.010711838 0)
(-0.00013388244 0.010711838 0)
(-0.00039806451 0.010753135 0)
(-0.00066943973 0.010830462 0)
(-0.00094336023 0.010932561 0)
(-0.0012057301 0.011029874 0)
(-0.001423382 0.011054536 0)
(-0.0015359046 0.010860473 0)
(-0.0014464839 0.010152814 0)
(-0.0010360866 0.0083579118 0)
(-0.00032606517 0.0042262149 0)
(0.00018072927 0.0036527995 0)
(0.00068194231 0.0078280368 0)
(0.001065056 0.0099046112 0)
(0.0012147578 0.010834721 0)
(0.0011884459 0.011175592 0)
(0.0010507914 0.011233947 0)
(0.00085010055 0.011175908 0)
(0.00061838517 0.011087981 0)
(0.00037379418 0.011013294 0)
(0.00012672687 0.010971684 0)
(-0.00012672891 0.010971684 0)
(-0.00037379641 0.011013294 0)
(-0.00061838736 0.011087981 0)
(-0.00085010272 0.011175908 0)
(-0.001050791 0.011233947 0)
(-0.001188444 0.011175591 0)
(-0.0012147577 0.01083472 0)
(-0.0010650552 0.0099046125 0)
(-0.00068194407 0.0078280409 0)
(-0.00018073182 0.0036528144 0)
(9.9318348e-05 0.00334647 0)
(0.00042963378 0.007455353 0)
(0.00074505948 0.0096685544 0)
(0.00090781307 0.010757268 0)
(0.00093373988 0.011224635 0)
(0.00085879721 0.011368938 0)
(0.00071641075 0.011362757 0)
(0.00053307177 0.011302808 0)
(0.00032707528 0.011241478 0)
(0.00011160898 0.011205245 0)
(-0.00011161052 0.011205245 0)
(-0.00032707685 0.011241477 0)
(-0.00053307297 0.011302807 0)
(-0.00071641232 0.011362757 0)
(-0.0008587964 0.011368937 0)
(-0.00093373858 0.011224633 0)
(-0.00090781376 0.010757268 0)
(-0.00074506041 0.009668557 0)
(-0.00042963733 0.0074553608 0)
(-9.9320878e-05 0.003346485 0)
(5.5108957e-05 0.0031638786 0)
(0.00026393233 0.0071916459 0)
(0.00050246142 0.009469639 0)
(0.00065086014 0.010663617 0)
(0.00070150007 0.011230143 0)
(0.00066930326 0.01145204 0)
(0.00057438668 0.011499855 0)
(0.00043637575 0.01147407 0)
(0.00027141351 0.011432112 0)
(9.3108914e-05 0.011404689 0)
(-9.310992e-05 0.011404689 0)
(-0.00027141467 0.011432111 0)
(-0.00043637661 0.011474069 0)
(-0.00057438797 0.011499853 0)
(-0.00066930414 0.011452039 0)
(-0.00070149889 0.011230141 0)
(-0.00065086013 0.010663616 0)
(-0.00050246352 0.0094696428 0)
(-0.00026393543 0.0071916537 0)
(-5.511115e-05 0.0031638895 0)
(3.0969846e-05 0.0030550618 0)
(0.00015974516 0.0070127709 0)
(0.00032944817 0.0093149037 0)
(0.00045153753 0.010573468 0)
(0.0005085601 0.011212307 0)
(0.00050224679 0.011498254 0)
(0.00044255997 0.011595704 0)
(0.00034278133 0.011604578 0)
(0.00021588947 0.011584025 0)
(7.4395013e-05 0.011566829 0)
(-7.4395601e-05 0.011566828 0)
(-0.00021589019 0.011584024 0)
(-0.00034278202 0.011604576 0)
(-0.00044256097 0.011595702 0)
(-0.00050224757 0.011498254 0)
(-0.00050856054 0.011212306 0)
(-0.0004515371 0.010573468 0)
(-0.00032944951 0.0093149067 0)
(-0.00015974849 0.0070127786 0)
(-3.0970873e-05 0.0030550699 0)
(1.7520972e-05 0.0029904946 0)
(9.5551162e-05 0.0068955591 0)
(0.00021083132 0.0092014782 0)
(0.00030451722 0.010496538 0)
(0.00035761005 0.011184989 0)
(0.00036492604 0.011520408 0)
(0.00032970063 0.011659894 0)
(0.0002600488 0.011700366 0)
(0.00016570997 0.011700459 0)
(5.7332093e-05 0.011693421 0)
(-5.7332255e-05 0.01169342 0)
(-0.00016571024 0.011700458 0)
(-0.00026004897 0.011700364 0)
(-0.00032970097 0.011659893 0)
(-0.00036492649 0.011520407 0)
(-0.00035761086 0.011184989 0)
(-0.00030451877 0.01049654 0)
(-0.00021083233 0.0092014808 0)
(-9.5552539e-05 0.0068955654 0)
(-1.7522153e-05 0.0029905002 0)
(9.8480722e-06 0.0029524874 0)
(5.6338855e-05 0.0068209744 0)
(0.00013180348 0.0091221197 0)
(0.00019997186 0.010435875 0)
(0.00024447039 0.01115652 0)
(0.00025749724 0.011528226 0)
(0.00023832079 0.011701225 0)
(0.00019127338 0.011768477 0)
(0.00012324981 0.011786848 0)
(4.2803225e-05 0.011788994 0)
(-4.2803103e-05 0.011788994 0)
(-0.00012324984 0.011786847 0)
(-0.00019127332 0.011768476 0)
(-0.00023832082 0.011701224 0)
(-0.00025749762 0.011528225 0)
(-0.00024447133 0.011156521 0)
(-0.00019997384 0.010435877 0)
(-0.00013180603 0.0091221243 0)
(-5.6341802e-05 0.0068209795 0)
(-9.8494822e-06 0.0029524915 0)
(5.3919055e-06 0.002930456 0)
(3.2478483e-05 0.0067748097 0)
(8.0264779e-05 0.0090686627 0)
(0.00012775759 0.010390629 0)
(0.00016252872 0.011131105 0)
(0.00017664769 0.011528282 0)
(0.00016742826 0.011726752 0)
(0.00013668441 0.011815499 0)
(8.9034373e-05 0.011849081 0)
(3.1036877e-05 0.011859002 0)
(-3.1036708e-05 0.011859002 0)
(-8.903435e-05 0.01184908 0)
(-0.00013668425 0.011815498 0)
(-0.00016742813 0.011726751 0)
(-0.00017664795 0.011528282 0)
(-0.00016252967 0.011131106 0)
(-0.00012775926 0.010390632 0)
(-8.0266772e-05 0.0090686681 0)
(-3.2480773e-05 0.0067748155 0)
(-5.392899e-06 0.002930459 0)
(2.7866286e-06 0.002918044 0)
(1.8046462e-05 0.0067470706 0)
(4.7308567e-05 0.0090338668 0)
(7.9154453e-05 0.010358362 0)
(0.00010492813 0.011110362 0)
(0.00011777165 0.011524697 0)
(0.0001143527 0.01174175 0)
(9.4966611e-05 0.011846999 0)
(6.253284e-05 0.011892645 0)
(2.1883936e-05 0.011908828 0)
(-2.1883704e-05 0.011908828 0)
(-6.2532692e-05 0.011892644 0)
(-9.4966587e-05 0.011846999 0)
(-0.00011435276 0.011741749 0)
(-0.00011777188 0.011524698 0)
(-0.00010492886 0.011110364 0)
(-7.9155568e-05 0.010358365 0)
(-4.7310084e-05 0.009033872 0)
(-1.8048088e-05 0.0067470756 0)
(-2.7871978e-06 0.0029180449 0)
(1.2901327e-06 0.0029113991 0)
(9.4511903e-06 0.0067310292 0)
(2.6699593e-05 0.0090120039 0)
(4.7284591e-05 0.010336242 0)
(6.5571732e-05 0.011094461 0)
(7.6173781e-05 0.011519891 0)
(7.5863046e-05 0.011750003 0)
(6.4130522e-05 0.011867443 0)
(4.2700574e-05 0.011922272 0)
(1.5006759e-05 0.011943294 0)
(-1.5006722e-05 0.011943294 0)
(-4.2700442e-05 0.011922271 0)
(-6.4130526e-05 0.011867442 0)
(-7.5863222e-05 0.011750003 0)
(-7.617396e-05 0.011519892 0)
(-6.5572214e-05 0.011094463 0)
(-4.7285486e-05 0.010336246 0)
(-2.6700794e-05 0.0090120088 0)
(-9.4524097e-06 0.0067310335 0)
(-1.2906379e-06 0.0029113987 0)
(4.700724e-07 0.0029081524 0)
(4.4881029e-06 0.0067222254 0)
(1.4188657e-05 0.0089987954 0)
(2.7001606e-05 0.010321639 0)
(3.9476301e-05 0.011082862 0)
(4.766277e-05 0.011515164 0)
(4.8800076e-05 0.011754132 0)
(4.2044365e-05 0.011880262 0)
(2.8326488e-05 0.011941835 0)
(1.0002024e-05 0.011966459 0)
(-1.0002003e-05 0.011966459 0)
(-2.8326393e-05 0.011941834 0)
(-4.2044489e-05 0.011880262 0)
(-4.8800281e-05 0.011754132 0)
(-4.7663019e-05 0.011515165 0)
(-3.9476696e-05 0.011082865 0)
(-2.7002162e-05 0.010321643 0)
(-1.4189508e-05 0.0089988004 0)
(-4.489113e-06 0.0067222296 0)
(-4.7053282e-07 0.0029081513 0)
(6.1454833e-08 0.0029067527 0)
(1.7869489e-06 0.0067176743 0)
(6.9352683e-06 0.0089911308 0)
(1.4594585e-05 0.010312329 0)
(2.2784811e-05 0.011074739 0)
(2.8771807e-05 0.011511096 0)
(3.038352e-05 0.011755856 0)
(2.6725378e-05 0.011887971 0)
(1.8235023e-05 0.011954324 0)
(6.4726382e-06 0.01198154 0)
(-6.4729824e-06 0.01198154 0)
(-1.8235419e-05 0.011954324 0)
(-2.6725639e-05 0.011887971 0)
(-3.038371e-05 0.011755856 0)
(-2.8772034e-05 0.011511097 0)
(-2.2785202e-05 0.011074742 0)
(-1.45951e-05 0.010312333 0)
(-6.9361407e-06 0.0089911361 0)
(-1.7881169e-06 0.0067176787 0)
(-6.192765e-08 0.002906751 0)
(-8.5922065e-08 0.0029058613 0)
(5.0777557e-07 0.0067150737 0)
(3.076345e-06 0.0089865123 0)
(7.4704205e-06 0.010306265 0)
(1.2637328e-05 0.011068949 0)
(1.6787167e-05 0.011507596 0)
(1.8330504e-05 0.011756039 0)
(1.6480222e-05 0.011892173 0)
(1.1394153e-05 0.011961832 0)
(4.0671179e-06 0.011990867 0)
(-4.0678706e-06 0.011990867 0)
(-1.1394665e-05 0.011961831 0)
(-1.6480662e-05 0.011892173 0)
(-1.8330879e-05 0.01175604 0)
(-1.6787436e-05 0.011507598 0)
(-1.2637726e-05 0.011068952 0)
(-7.4709764e-06 0.010306269 0)
(-3.0769432e-06 0.0089865181 0)
(-5.0865423e-07 0.0067150787 0)
(8.5517243e-08 0.0029058594 0)
(-7.2675624e-08 0.002906317 0)
(1.0212303e-07 0.0067143067 0)
(1.3913206e-06 0.0089841415 0)
(3.9154764e-06 0.010302588 0)
(7.1284342e-06 0.011065118 0)
(9.8981487e-06 0.011505139 0)
(1.1124982e-05 0.011756141 0)
(1.0193724e-05 0.011895241 0)
(7.1304607e-06 0.011967422 0)
(2.5582267e-06 0.011997873 0)
(-2.5595173e-06 0.011997873 0)
(-7.1313098e-06 0.011967422 0)
(-1.0194476e-05 0.011895241 0)
(-1.1125546e-05 0.011756141 0)
(-9.8983536e-06 0.011505141 0)
(-7.1287549e-06 0.011065121 0)
(-3.9158798e-06 0.010302592 0)
(-1.391562e-06 0.0089841477 0)
(-1.0265888e-07 0.0067143111 0)
(7.2381777e-08 0.0029063146 0)
)
;

boundaryField
{
    Wall
    {
        type            fixedValue;
        value           uniform (0 0 0);
    }
    frontAndBack
    {
        type            empty;
    }
    atmosphere
    {
        type            pressureInletOutletVelocity;
        value           nonuniform List<vector> 
20
(
(-7.2675624e-08 0.002906317 0)
(1.0212303e-07 0.0067143067 0)
(1.3913206e-06 0.0089841415 0)
(3.9154764e-06 0.010302588 0)
(7.1284342e-06 0.011065118 0)
(9.8981487e-06 0.011505139 0)
(1.1124982e-05 0.011756141 0)
(1.0193724e-05 0.011895241 0)
(7.1304607e-06 0.011967422 0)
(2.5582267e-06 0.011997873 0)
(-2.5595173e-06 0.011997873 0)
(-7.1313098e-06 0.011967422 0)
(-1.0194476e-05 0.011895241 0)
(-1.1125546e-05 0.011756141 0)
(-9.8983536e-06 0.011505141 0)
(-7.1287549e-06 0.011065121 0)
(-3.9158798e-06 0.010302592 0)
(-1.391562e-06 0.0089841477 0)
(-1.0265888e-07 0.0067143111 0)
(7.2381777e-08 0.0029063146 0)
)
;
    }
}


// ************************************************************************* //
