/*--------------------------------*- C++ -*----------------------------------*\
| =========                 |                                                 |
| \\      /  F ield         | OpenFOAM: The Open Source CFD Toolbox           |
|  \\    /   O peration     | Version:  3.0.1                                 |
|   \\  /    A nd           | Web:      www.OpenFOAM.org                      |
|    \\/     M anipulation  |                                                 |
\*---------------------------------------------------------------------------*/
FoamFile
{
    version     2.0;
    format      ascii;
    class       volScalarField;
    location    "28";
    object      wBA_l_0;
}
// * * * * * * * * * * * * * * * * * * * * * * * * * * * * * * * * * * * * * //

dimensions      [0 0 0 0 0 0 0];

internalField   nonuniform List<scalar> 
800
(
0.047421885
0.047419742
0.047419398
0.047419364
0.047419363
0.047419361
0.047419355
0.047419348
0.047419343
0.047419341
0.047419341
0.047419343
0.047419348
0.047419355
0.047419361
0.047419363
0.047419364
0.047419398
0.047419742
0.047421885
0.048130552
0.04810264
0.048096415
0.048095064
0.048094909
0.048094973
0.048095024
0.048095035
0.048095025
0.048095016
0.048095016
0.048095025
0.048095035
0.048095024
0.048094973
0.04809491
0.048095064
0.048096416
0.048102641
0.048130554
0.048390318
0.048357227
0.048348939
0.048347154
0.048346814
0.048346738
0.048346665
0.048346575
0.048346497
0.048346453
0.048346452
0.048346497
0.048346575
0.048346665
0.048346738
0.048346814
0.048347154
0.048348939
0.048357228
0.048390319
0.048235047
0.048210162
0.048203532
0.048202297
0.048201961
0.048201699
0.048201414
0.048201155
0.048200962
0.048200862
0.048200862
0.048200962
0.048201154
0.048201413
0.048201698
0.048201961
0.048202296
0.048203531
0.048210161
0.048235046
0.047706887
0.047702438
0.047700076
0.047699942
0.047699701
0.047699203
0.047698641
0.047698163
0.047697823
0.047697652
0.047697652
0.047697823
0.047698162
0.04769864
0.047699201
0.047699699
0.047699941
0.047700074
0.047702436
0.047706884
0.046857002
0.046882928
0.046886666
0.046887965
0.046887806
0.046887005
0.046886109
0.046885372
0.046884863
0.046884611
0.04688461
0.046884862
0.046885371
0.046886107
0.046887003
0.046887804
0.046887962
0.046886662
0.046882925
0.046856997
0.045741224
0.045805156
0.045816553
0.04581946
0.045819269
0.045818071
0.045816786
0.045815762
0.045815068
0.04581473
0.045814729
0.045815067
0.04581576
0.045816784
0.045818069
0.045819265
0.045819456
0.045816549
0.045805151
0.045741218
0.044415149
0.044522689
0.044543311
0.044547889
0.044547543
0.044545833
0.044544111
0.044542783
0.044541898
0.044541471
0.044541471
0.044541896
0.044542781
0.044544108
0.04454583
0.044547539
0.044547885
0.044543306
0.044522684
0.044415142
0.042931943
0.043086996
0.043118516
0.043124813
0.043124145
0.0431219
0.043119713
0.043118079
0.043117002
0.043116488
0.043116487
0.043117001
0.043118077
0.04311971
0.043121896
0.04312414
0.043124808
0.043118511
0.043086991
0.042931936
0.041338695
0.04154401
0.041588376
0.041596539
0.041595509
0.041592714
0.041590077
0.041588155
0.041586885
0.041586283
0.041586282
0.041586883
0.041588152
0.041590074
0.04159271
0.041595504
0.041596534
0.041588371
0.041544004
0.041338688
0.039673797
0.039931792
0.03999131
0.040001742
0.040000497
0.039997161
0.039994112
0.039991928
0.03999045
0.039989756
0.039989755
0.039990448
0.039991926
0.039994109
0.039997157
0.040000492
0.040001736
0.039991305
0.039931786
0.039673791
0.037965266
0.038279276
0.038356533
0.038370104
0.038369138
0.03836535
0.038361919
0.038359498
0.038357898
0.038357096
0.038357095
0.038357897
0.038359496
0.038361916
0.038365346
0.038369134
0.0383701
0.038356528
0.038279271
0.03796526
0.036229393
0.036604687
0.03670296
0.036721752
0.03672191
0.036717841
0.036714022
0.036711387
0.036709625
0.03670868
0.036708679
0.036709623
0.036711384
0.036714018
0.036717837
0.036721905
0.036721747
0.036702954
0.036604682
0.036229388
0.034475019
0.034919136
0.035044011
0.035071245
0.035073661
0.035069535
0.035065218
0.035062334
0.035060592
0.035059648
0.035059647
0.035060591
0.035062331
0.035065215
0.035069532
0.035073657
0.035071241
0.035044006
0.034919131
0.034475015
0.032687514
0.033209733
0.033369969
0.033410033
0.033416281
0.033412405
0.033407535
0.033404543
0.033403133
0.033402087
0.033402087
0.033403132
0.03340454
0.033407532
0.033412402
0.033416277
0.033410029
0.033369965
0.033209728
0.032687511
0.030844024
0.031454773
0.031662985
0.031722561
0.031735248
0.031732304
0.031727072
0.031723508
0.031722448
0.031721265
0.031721264
0.031722447
0.031723506
0.031727069
0.031732301
0.031735245
0.031722557
0.031662981
0.031454769
0.030844021
0.028932029
0.029646787
0.029922139
0.030012208
0.030035509
0.030034736
0.030028957
0.030024308
0.030023491
0.030022136
0.030022136
0.03002349
0.030024305
0.030028954
0.030034733
0.030035506
0.030012205
0.029922135
0.029646784
0.028932028
0.026900645
0.027741277
0.028111787
0.028249594
0.028291438
0.028294667
0.028287968
0.028281517
0.028280125
0.02827841
0.02827841
0.028280123
0.028281515
0.028287965
0.028294665
0.028291436
0.028249591
0.028111784
0.027741275
0.026900646
0.02466431
0.025666127
0.026173373
0.026385657
0.026459365
0.026470338
0.026462685
0.026453438
0.026450335
0.02644781
0.026447809
0.026450334
0.026453436
0.026462683
0.026470336
0.026459363
0.026385656
0.026173371
0.025666127
0.024664315
0.022062326
0.023285644
0.023994631
0.024324935
0.02445412
0.024482254
0.024474799
0.024461365
0.02445551
0.024451311
0.02445131
0.024455509
0.024461363
0.024474798
0.024482253
0.024454119
0.024324934
0.023994631
0.023285647
0.022062337
0.018928416
0.020387336
0.021376812
0.021892358
0.02211519
0.022173322
0.022168162
0.022147927
0.022136954
0.022129029
0.022129028
0.022136953
0.022147925
0.022168161
0.022173322
0.02211519
0.021892359
0.021376813
0.020387343
0.018928432
0.015307554
0.017113813
0.018506525
0.019306337
0.019677882
0.01978885
0.019786538
0.0197524
0.01972657
0.019710268
0.019710267
0.019726569
0.019752398
0.019786537
0.01978885
0.019677882
0.019306338
0.018506528
0.017113824
0.015307579
0.010778845
0.013132211
0.015035134
0.016251786
0.016883856
0.017102656
0.017117481
0.017064098
0.017015917
0.016986198
0.016986197
0.017015916
0.017064096
0.017117481
0.017102658
0.016883858
0.016251789
0.01503514
0.013132226
0.010778877
0.0060315669
0.0091792744
0.011470393
0.013030114
0.013928739
0.014292743
0.014331767
0.014250651
0.014164254
0.01411151
0.014111509
0.014164252
0.01425065
0.014331769
0.014292744
0.013928739
0.013030115
0.011470398
0.0091792881
0.0060315966
0.0024652625
0.005938428
0.0084291049
0.010181341
0.01123369
0.011684193
0.01174255
0.011633395
0.011510977
0.011434549
0.011434548
0.011510975
0.011633393
0.01174255
0.011684194
0.011233691
0.010181341
0.0084291087
0.0059384388
0.0024652801
0.00072631218
0.0035977292
0.0060223887
0.0077975214
0.0088985541
0.0093842921
0.0094459008
0.0093139133
0.0091615452
0.0090652134
0.0090652115
0.009161542
0.0093139097
0.0094458994
0.0093842917
0.0088985534
0.0077975216
0.0060223914
0.0035977366
0.00072631928
0.0001609039
0.0020428664
0.0041823691
0.0058605307
0.0069264225
0.0074065913
0.0074683991
0.0073310467
0.0071679904
0.0070637294
0.0070637271
0.0071679863
0.0073310419
0.0074683961
0.0074065894
0.0069264204
0.0058605298
0.0041823708
0.0020428715
0.00016090601
2.8722088e-05
0.00108195
0.0028179879
0.0043068674
0.0052815138
0.0057295291
0.0057915624
0.0056646298
0.0055093887
0.0054090127
0.0054090102
0.005509384
0.0056646241
0.0057915582
0.005729526
0.0052815109
0.0043068656
0.0028179883
0.0010819527
2.8722583e-05
4.4494699e-06
0.00053416798
0.0018327242
0.0030816619
0.0039313248
0.0043317149
0.0043945861
0.0042886795
0.0041540853
0.0040660737
0.0040660712
0.0041540804
0.0042886734
0.0043945813
0.0043317111
0.0039313216
0.0030816598
0.0018327242
0.00053416935
4.4495628e-06
6.3059432e-07
0.00024697939
0.001146101
0.0021389719
0.0028480439
0.0031929566
0.0032561823
0.0031757812
0.0030678941
0.0029964461
0.0029964438
0.0030678894
0.0031757753
0.0032561774
0.0031929528
0.002848041
0.0021389701
0.0011461009
0.00024698012
6.3060906e-07
8.4819667e-08
0.00010780359
0.00068776449
0.001436522
0.0020037259
0.002290538
0.0023522103
0.0022966404
0.0022159191
0.0021616079
0.0021616058
0.0022159149
0.0022966351
0.0023522058
0.0022905345
0.0020037235
0.0014365207
0.00068776442
0.00010780396
8.4821784e-08
1.1072774e-08
4.4776264e-05
0.00039598667
0.0009322253
0.0013672139
0.001597273
0.0016547278
0.0016200547
0.0015633397
0.0015243805
0.0015243788
0.0015633361
0.0016200501
0.001654724
0.0015972701
0.0013672121
0.00093222451
0.00039598672
4.4776452e-05
1.1073057e-08
1.4205109e-09
1.7812586e-05
0.00021899339
0.00058435051
0.00090422457
0.0010820195
0.001132772
0.0011137236
0.0010761756
0.0010496628
0.0010496614
0.0010761727
0.0011137199
0.0011327689
0.0010820172
0.00090422325
0.00058435011
0.00021899349
1.7812673e-05
1.4205473e-09
1.801897e-10
6.8195373e-06
0.00011653158
0.00035392309
0.00057959408
0.00071186941
0.00075431086
0.0007457241
0.00072227232
0.00070509347
0.00070509242
0.00072227008
0.0007457212
0.00075430846
0.00071186772
0.00057959319
0.00035392293
0.0001165317
6.8195758e-06
1.8019424e-10
2.2676307e-11
2.5211786e-06
5.9777661e-05
0.00020727338
0.00036016487
0.00045488091
0.00048852666
0.00048616126
0.00047235841
0.00046173637
0.0004617356
0.00047235674
0.00048615909
0.00048852487
0.0004548797
0.00036016429
0.00020727333
5.977776e-05
2.5211951e-06
2.2676949e-11
2.9124951e-12
9.0220043e-07
2.96143e-05
0.0001174858
0.00021708421
0.00028238284
0.00030773625
0.00030854627
0.00030092317
0.00029464862
0.00029464808
0.00030092198
0.00030854472
0.00030773497
0.00028238201
0.00021708384
0.00011748581
2.9614366e-05
9.022071e-07
2.9125376e-12
5.8600519e-13
3.1302991e-07
1.419181e-05
6.4517359e-05
0.00012699288
0.00017036927
0.00018858468
0.00019063633
0.00018672198
0.00018318101
0.00018318064
0.00018672116
0.00019063525
0.0001885838
0.00017036871
0.00012699265
6.4517379e-05
1.4191849e-05
3.130325e-07
5.8606062e-13
4.7332491e-13
1.0544028e-07
6.5881991e-06
3.4360354e-05
7.2153065e-05
9.9945021e-05
0.00011246077
0.00011468328
0.00011284996
0.00011094325
0.00011094301
0.00011284942
0.00011468256
0.00011246018
9.9944653e-05
7.2152918e-05
3.4360373e-05
6.5882209e-06
1.0544125e-07
4.7224243e-13
4.641775e-13
3.4521633e-08
2.9663744e-06
1.7764312e-05
3.9843763e-05
5.7038982e-05
6.5286385e-05
6.7190824e-05
6.6441242e-05
6.5464493e-05
6.5464337e-05
6.6440891e-05
6.7190356e-05
6.5286005e-05
5.7038749e-05
3.9843673e-05
1.7764325e-05
2.966386e-06
3.4522014e-08
4.6375739e-13
2.2195129e-13
1.1002146e-08
1.2968396e-06
8.9235779e-06
2.1399067e-05
3.1684981e-05
3.6910516e-05
3.8350642e-05
3.8116277e-05
3.7642957e-05
3.7642861e-05
3.8116058e-05
3.8350349e-05
3.6910278e-05
3.1684838e-05
2.1399013e-05
8.9235864e-06
1.2968456e-06
1.1002309e-08
2.2189948e-13
)
;

boundaryField
{
    Wall
    {
        type            zeroGradient;
    }
    frontAndBack
    {
        type            empty;
    }
    atmosphere
    {
        type            zeroGradient;
    }
}


// ************************************************************************* //
