/*--------------------------------*- C++ -*----------------------------------*\
| =========                 |                                                 |
| \\      /  F ield         | OpenFOAM: The Open Source CFD Toolbox           |
|  \\    /   O peration     | Version:  3.0.1                                 |
|   \\  /    A nd           | Web:      www.OpenFOAM.org                      |
|    \\/     M anipulation  |                                                 |
\*---------------------------------------------------------------------------*/
FoamFile
{
    version     2.0;
    format      ascii;
    class       volScalarField;
    location    "28";
    object      wBA_l;
}
// * * * * * * * * * * * * * * * * * * * * * * * * * * * * * * * * * * * * * //

dimensions      [0 0 0 0 0 0 0];

internalField   nonuniform List<scalar> 
800
(
0.047363802
0.047361654
0.047361308
0.047361273
0.047361273
0.04736127
0.047361264
0.047361258
0.047361253
0.04736125
0.04736125
0.047361253
0.047361258
0.047361264
0.04736127
0.047361272
0.047361273
0.047361308
0.047361654
0.047363802
0.04807078
0.048042862
0.048036625
0.048035267
0.04803511
0.048035172
0.048035224
0.048035235
0.048035227
0.048035217
0.048035217
0.048035227
0.048035236
0.048035224
0.048035173
0.04803511
0.048035268
0.048036626
0.048042863
0.048070781
0.048332777
0.048299589
0.048291259
0.048289459
0.048289116
0.048289041
0.04828897
0.048288882
0.048288805
0.048288761
0.048288761
0.048288805
0.048288882
0.04828897
0.048289041
0.048289117
0.048289459
0.048291259
0.04829959
0.048332778
0.048183084
0.04815794
0.048151231
0.048149977
0.048149642
0.048149384
0.048149103
0.048148847
0.048148657
0.048148558
0.048148558
0.048148657
0.048148847
0.048149103
0.048149383
0.048149641
0.048149977
0.04815123
0.04815794
0.048183083
0.047663119
0.047658205
0.047655729
0.047655579
0.047655344
0.047654856
0.047654302
0.04765383
0.047653493
0.047653324
0.047653324
0.047653493
0.047653829
0.047654301
0.047654855
0.047655342
0.047655577
0.047655727
0.047658203
0.047663116
0.046823255
0.046848494
0.046852091
0.046853381
0.046853239
0.046852455
0.046851571
0.046850843
0.046850338
0.046850088
0.046850088
0.046850337
0.046850842
0.04685157
0.046852453
0.046853237
0.046853378
0.046852088
0.04684849
0.046823251
0.045718603
0.045781619
0.045792855
0.045795764
0.045795603
0.045794432
0.045793164
0.04579215
0.045791462
0.045791126
0.045791126
0.045791461
0.045792149
0.045793162
0.045794429
0.0457956
0.04579576
0.04579285
0.045781614
0.045718597
0.044404146
0.04451055
0.044530987
0.044535583
0.044535283
0.044533609
0.044531909
0.044530593
0.044529714
0.044529291
0.04452929
0.044529713
0.044530591
0.044531906
0.044533605
0.044535279
0.044535578
0.044530982
0.044510545
0.044404139
0.042932595
0.043086293
0.043117595
0.043123924
0.043123318
0.043121116
0.043118956
0.043117336
0.043116266
0.043115754
0.043115754
0.043116264
0.043117333
0.043118953
0.043121112
0.043123313
0.043123919
0.043117589
0.043086287
0.042932588
0.041350777
0.041554509
0.041598603
0.041606807
0.041605851
0.041603106
0.041600496
0.041598588
0.041597326
0.041596727
0.041596726
0.041597324
0.041598586
0.041600493
0.041603102
0.041605846
0.041606801
0.041598597
0.041554503
0.04135077
0.039697012
0.039953161
0.040012322
0.040022786
0.040021619
0.040018336
0.040015315
0.040013144
0.040011674
0.040010983
0.040010982
0.040011672
0.040013142
0.040015311
0.040018332
0.040021614
0.040022781
0.040012316
0.039953155
0.039697006
0.037999429
0.038311253
0.038388022
0.038401589
0.038400686
0.038396948
0.038393543
0.038391134
0.038389541
0.038388741
0.038388741
0.038389539
0.038391131
0.03839354
0.038396944
0.038400681
0.038401584
0.038388016
0.038311247
0.037999424
0.036274619
0.036647259
0.036744839
0.036763528
0.036763711
0.036759682
0.036755886
0.036753261
0.036751506
0.036750566
0.036750565
0.036751505
0.036753258
0.036755883
0.036759678
0.036763707
0.036763524
0.036744834
0.036647254
0.036274614
0.034531831
0.034972658
0.035096473
0.035123431
0.035125801
0.035121696
0.035117402
0.03511452
0.035112779
0.035111837
0.035111837
0.035112777
0.035114517
0.035117399
0.035121692
0.035125798
0.035123427
0.035096468
0.034972653
0.034531826
0.032757263
0.033275414
0.033433984
0.033473473
0.03347956
0.033475674
0.033470822
0.033467837
0.033466414
0.033465377
0.033465376
0.033466413
0.033467834
0.033470819
0.03347567
0.033479556
0.033473469
0.033433979
0.033275409
0.032757259
0.030928345
0.031533996
0.031739559
0.031798055
0.031810391
0.031807379
0.031802158
0.031798615
0.03179754
0.031796367
0.031796366
0.031797539
0.031798613
0.031802155
0.031807375
0.031810387
0.031798052
0.031739555
0.031533992
0.030928343
0.029034024
0.02974225
0.030013386
0.030101493
0.030124108
0.030123173
0.030117414
0.030112812
0.030111989
0.030110645
0.030110644
0.030111988
0.030112809
0.030117411
0.03012317
0.030124105
0.03010149
0.030013382
0.029742247
0.029034022
0.027025699
0.027857615
0.028221419
0.028355781
0.028396295
0.028399198
0.02839253
0.028386171
0.028384833
0.028383142
0.028383141
0.028384831
0.028386168
0.028392527
0.028399196
0.028396292
0.028355778
0.028221416
0.027857613
0.0270257
0.024822514
0.025811894
0.026308432
0.026514786
0.026585991
0.026596259
0.026588599
0.026579507
0.026576516
0.026574044
0.026574043
0.026576514
0.026579504
0.026588597
0.026596257
0.026585989
0.026514785
0.02630843
0.025811893
0.024822518
0.022273714
0.023478523
0.024170166
0.024490582
0.024614618
0.024641102
0.024633408
0.02462019
0.024614318
0.024610233
0.024610232
0.024614317
0.024620187
0.024633406
0.024641101
0.024614617
0.024490581
0.024170166
0.023478527
0.022273725
0.0191939
0.020638901
0.021609435
0.022111086
0.022326936
0.022382939
0.022377814
0.022358289
0.022345057
0.022337578
0.022337577
0.022345056
0.022358287
0.022377814
0.022382939
0.022326937
0.022111087
0.021609437
0.020638907
0.019193916
0.01565197
0.017421257
0.018770914
0.019541784
0.019897923
0.02000318
0.020000319
0.019967356
0.019942794
0.019927224
0.019927223
0.019942792
0.019967354
0.020000318
0.02000318
0.019897924
0.019541786
0.018770917
0.017421267
0.015651995
0.011202821
0.013498959
0.015365165
0.016541607
0.017152244
0.01736331
0.01737747
0.017326813
0.017281929
0.017253989
0.017253988
0.017281928
0.017326811
0.01737747
0.017363311
0.017152245
0.01654161
0.015365172
0.013498975
0.011202853
0.0064337072
0.0095098226
0.0117808
0.013318816
0.014198474
0.014553577
0.014592935
0.014515003
0.01443246
0.014381883
0.014381881
0.014432458
0.014515002
0.014592936
0.014553578
0.014198475
0.013318818
0.011780805
0.0095098369
0.0064337379
0.0027105651
0.0061948377
0.0086827933
0.01043986
0.011487883
0.011938627
0.011998539
0.011892286
0.011772549
0.011697804
0.011697803
0.011772547
0.011892284
0.01199854
0.011938629
0.011487883
0.010439861
0.0086827972
0.0061948489
0.0027105841
0.0008214018
0.0037761066
0.0062263603
0.0080104424
0.0091193588
0.0096106624
0.0096757245
0.0095459456
0.0093951135
0.0092996541
0.0092996522
0.0093951104
0.0095459422
0.0096757233
0.0096106622
0.0091193584
0.0080104431
0.0062263628
0.0037761144
0.00082140969
0.00018614561
0.0021596852
0.0043362871
0.006036021
0.0071167446
0.0076055546
0.0076708204
0.0075338699
0.0073703317
0.0072656262
0.0072656239
0.0073703277
0.0075338652
0.0076708176
0.0076055529
0.0071167427
0.0060360204
0.0043362893
0.0021596908
0.00018614806
3.3615752e-05
0.0011513307
0.0029333896
0.004450899
0.0054442778
0.0059024094
0.0059674287
0.0058393516
0.0056819397
0.0055800334
0.0055800309
0.0056819351
0.005839346
0.0059674247
0.0059024064
0.005444275
0.0044508973
0.00293339
0.0011513336
3.3616329e-05
5.2552956e-06
0.00057262223
0.0019170069
0.0031975903
0.0040677407
0.004478641
0.0045439708
0.0044359539
0.0042982043
0.0042080308
0.0042080283
0.0042981994
0.0044359479
0.0045439661
0.0044786374
0.0040677375
0.0031975883
0.0019170068
0.0005726237
5.2554053e-06
7.4863389e-07
0.00026660386
0.0012052358
0.0022295296
0.0029591847
0.0033143568
0.0033796684
0.0032968104
0.0031854739
0.003111683
0.0031116806
0.0031854691
0.0032968045
0.0033796636
0.003314353
0.0029591818
0.0022295277
0.0012052356
0.00026660463
7.4865146e-07
1.0094723e-07
0.00011710723
0.00072733014
0.0015046789
0.002091268
0.002387695
0.0024512784
0.0023934016
0.0023094531
0.0022529525
0.0022529504
0.0023094488
0.0023933963
0.0024512739
0.0023876915
0.0020912655
0.0015046775
0.00072733007
0.00011710763
1.0094977e-07
1.3192414e-08
4.8921797e-05
0.00042116119
0.00098144736
0.001433661
0.0016724061
0.0017317181
0.0016951834
0.0016357621
0.0015949572
0.0015949554
0.0016357584
0.0016951788
0.0017317142
0.0016724031
0.0014336591
0.00098144652
0.00042116124
4.8922001e-05
1.3192755e-08
1.6933246e-09
1.9566413e-05
0.00023423731
0.00061841264
0.00095275832
0.0011380984
0.0011906709
0.0011703065
0.0011306792
0.0011027302
0.0011027287
0.0011306762
0.0011703027
0.0011906677
0.0011380961
0.00095275694
0.0006184122
0.0002342374
1.9566508e-05
1.6933685e-09
2.1489938e-10
7.5293724e-06
0.00012533877
0.00037651876
0.00061370555
0.00075226218
0.00079643016
0.00078703353
0.00076210073
0.00074387702
0.00074387594
0.00076209841
0.00078703054
0.00079642767
0.00075226044
0.00061370461
0.00037651858
0.00012533889
7.5294145e-06
2.1490486e-10
2.7058967e-11
2.7974639e-06
6.4647585e-05
0.00022166161
0.00038325166
0.00048296908
0.0005181691
0.00051538868
0.00050060192
0.00048926354
0.00048926274
0.00050060019
0.00051538643
0.00051816725
0.00048296782
0.00038325105
0.00022166156
6.4647688e-05
2.7974819e-06
2.705972e-11
3.4606552e-12
1.0059783e-06
3.2199152e-05
0.00012629574
0.00023214753
0.00030125323
0.00032792658
0.00032858791
0.00032035399
0.00031361432
0.00031361375
0.00032035274
0.00032858628
0.00032792525
0.00030125235
0.00023214714
0.00012629574
3.2199222e-05
1.0059857e-06
3.4607143e-12
6.5042479e-13
3.50737e-07
1.5512226e-05
6.971391e-05
0.0001364799
0.00018262867
0.00020190214
0.00020395915
0.00019969123
0.00019586344
0.00019586305
0.00019969036
0.00020395802
0.00020190121
0.00018262808
0.00013647965
6.971393e-05
1.5512268e-05
3.5073987e-07
6.5047984e-13
4.7644234e-13
1.1871481e-07
7.2387952e-06
3.7318354e-05
7.7928188e-05
0.00010765427
0.00012097305
0.00012327274
0.00012125005
0.00011917518
0.00011917492
0.00012124947
0.00012327198
0.00012097243
0.00010765388
7.7928032e-05
3.7318374e-05
7.2388188e-06
1.187159e-07
4.7539134e-13
4.644305e-13
3.9054638e-08
3.2761511e-06
1.9391818e-05
4.3246009e-05
6.1736141e-05
7.0562815e-05
7.2564536e-05
7.1722782e-05
7.0652352e-05
7.0652186e-05
7.1722408e-05
7.2564039e-05
7.0562412e-05
6.1735894e-05
4.3245914e-05
1.9391833e-05
3.2761638e-06
3.905506e-08
4.6399207e-13
2.2865097e-13
1.2505137e-08
1.4395974e-06
9.7903628e-06
2.3341073e-05
3.4460524e-05
4.0084706e-05
4.1614918e-05
4.134151e-05
4.0818741e-05
4.0818638e-05
4.1341276e-05
4.1614605e-05
4.0084452e-05
3.4460372e-05
2.3341016e-05
9.7903721e-06
1.4396039e-06
1.2505315e-08
2.2858896e-13
)
;

boundaryField
{
    Wall
    {
        type            zeroGradient;
    }
    frontAndBack
    {
        type            empty;
    }
    atmosphere
    {
        type            zeroGradient;
    }
}


// ************************************************************************* //
