/*--------------------------------*- C++ -*----------------------------------*\
| =========                 |                                                 |
| \\      /  F ield         | OpenFOAM: The Open Source CFD Toolbox           |
|  \\    /   O peration     | Version:  3.0.1                                 |
|   \\  /    A nd           | Web:      www.OpenFOAM.org                      |
|    \\/     M anipulation  |                                                 |
\*---------------------------------------------------------------------------*/
FoamFile
{
    version     2.0;
    format      ascii;
    class       volScalarField;
    location    "28";
    object      wBA_g;
}
// * * * * * * * * * * * * * * * * * * * * * * * * * * * * * * * * * * * * * //

dimensions      [0 0 0 0 0 0 0];

internalField   nonuniform List<scalar> 
800
(
0.048684962
0.048686641
0.048687086
0.04868722
0.048687296
0.048687354
0.048687399
0.048687433
0.048687455
0.048687466
0.048687466
0.048687455
0.048687433
0.048687399
0.048687354
0.048687296
0.04868722
0.048687086
0.048686641
0.048684962
0.052146202
0.052088788
0.05207407
0.052070208
0.052069227
0.052069059
0.052069059
0.052069059
0.052069043
0.05206903
0.05206903
0.052069044
0.052069059
0.052069059
0.05206906
0.052069228
0.052070209
0.052074072
0.05208879
0.052146207
0.054409116
0.054333328
0.05432534
0.054319167
0.054317175
0.054316524
0.054316254
0.054316102
0.054315999
0.054315944
0.054315944
0.054315998
0.054316102
0.054316253
0.054316523
0.054317175
0.054319166
0.05432534
0.054333329
0.054409119
0.055571109
0.055496727
0.05550269
0.055496455
0.055494322
0.055493492
0.05549303
0.055492776
0.055492603
0.055492522
0.055492522
0.055492602
0.055492774
0.055493028
0.055493489
0.055494319
0.055496452
0.055502687
0.055496724
0.055571106
0.05576412
0.05571311
0.055728723
0.055731284
0.055729333
0.055728489
0.055727913
0.055727634
0.055727431
0.055727351
0.05572735
0.055727429
0.055727631
0.055727908
0.055728483
0.055729326
0.055731276
0.055728715
0.055713101
0.055764109
0.055166969
0.055160025
0.055174817
0.055192321
0.055190072
0.055189059
0.05518832
0.055188035
0.055187817
0.055187758
0.055187757
0.055187814
0.05518803
0.055188313
0.05518905
0.055190061
0.055192309
0.055174804
0.055160012
0.055166951
0.053992161
0.054043058
0.054047272
0.054078952
0.054075076
0.054073352
0.054072216
0.054071839
0.054071566
0.054071523
0.054071522
0.054071562
0.054071832
0.054072207
0.05407334
0.054075062
0.054078936
0.054047255
0.054043039
0.053992138
0.052470924
0.052575681
0.052569011
0.052607861
0.052600347
0.052596974
0.052594998
0.052594305
0.052593862
0.052593792
0.052593791
0.052593858
0.052594297
0.052594987
0.05259696
0.05260033
0.052607842
0.052568991
0.052575659
0.052470897
0.050827801
0.05096816
0.050954104
0.050989304
0.050982549
0.050976346
0.050972856
0.050971464
0.05097064
0.05097045
0.050970449
0.050970635
0.050971456
0.050972843
0.05097633
0.05098253
0.050989282
0.050954081
0.050968135
0.050827772
0.049246893
0.049411501
0.049386949
0.049405966
0.049408641
0.04940602
0.049400055
0.049397365
0.049395811
0.049395341
0.049395339
0.049395806
0.049397356
0.049400042
0.049406003
0.049408621
0.049405943
0.049386924
0.049411475
0.049246863
0.047860342
0.048050738
0.048011324
0.048000846
0.048026293
0.048038765
0.048028784
0.048023828
0.048020984
0.048019967
0.048019966
0.048020979
0.04802382
0.048028771
0.048038748
0.048026272
0.048000822
0.048011298
0.048050711
0.047860313
0.046757383
0.046987213
0.046931651
0.046875919
0.046953247
0.046988251
0.046971914
0.046963186
0.046958057
0.046956056
0.046956054
0.046958053
0.046963178
0.046971902
0.046988235
0.046953226
0.046875896
0.046931627
0.046987186
0.046757354
0.045995986
0.046291263
0.046220268
0.046110661
0.046267368
0.046322262
0.046296231
0.046280868
0.046283844
0.046279467
0.046279465
0.04628384
0.046280861
0.04629622
0.046322247
0.046267349
0.046110639
0.046220245
0.046291237
0.045995959
0.04560005
0.045989987
0.045918287
0.045773198
0.04600904
0.046071362
0.046030995
0.046005337
0.046044077
0.04603596
0.046035959
0.046044074
0.046005331
0.046030985
0.046071348
0.046009023
0.045773177
0.045918265
0.045989963
0.045600024
0.04556359
0.046073759
0.046032796
0.045874321
0.046154992
0.046204803
0.046133052
0.04609199
0.046185513
0.04620602
0.046206019
0.04618551
0.046091985
0.046133043
0.046204791
0.046154975
0.045874301
0.046032775
0.046073735
0.045563565
0.045803002
0.046474417
0.046507349
0.046385991
0.046656004
0.046651934
0.046547134
0.0464858
0.046624827
0.046711647
0.046711646
0.046624824
0.046485795
0.046547126
0.046651922
0.046655988
0.046385972
0.046507328
0.046474393
0.045802976
0.04623618
0.047094085
0.047240099
0.047170172
0.047463597
0.047401542
0.047266016
0.047177805
0.047290456
0.047445336
0.047445335
0.047290452
0.047177799
0.047266007
0.04740153
0.047463582
0.047170154
0.047240078
0.04709406
0.046236151
0.046537491
0.047788573
0.048098377
0.048037514
0.048427026
0.048302087
0.048129668
0.048013996
0.048092555
0.048287779
0.048287778
0.048092551
0.04801399
0.048129658
0.048302074
0.04842701
0.048037495
0.048098356
0.047788547
0.04653746
0.045477484
0.047650634
0.04830307
0.048235551
0.048871543
0.048685197
0.048478783
0.048345997
0.048382828
0.048585002
0.048585001
0.048382825
0.048345992
0.048478775
0.048685186
0.04887153
0.048235536
0.048303052
0.047650613
0.045477465
0.038210974
0.042694318
0.044374881
0.044785473
0.045677947
0.045802095
0.045626325
0.045517711
0.045535861
0.04573001
0.04573001
0.045535861
0.045517711
0.045626325
0.045802094
0.045677946
0.044785471
0.044374881
0.042694324
0.038210999
0.02373159
0.027499445
0.02984432
0.030991961
0.031866861
0.032055159
0.031959507
0.031903072
0.032464987
0.032638656
0.032638656
0.032464988
0.031903074
0.031959509
0.03205516
0.031866863
0.030991962
0.029844321
0.02749945
0.023731608
0.014432466
0.017097533
0.018558949
0.019162794
0.019854631
0.019990859
0.019945824
0.019919542
0.020114399
0.020251889
0.020251889
0.0201144
0.019919543
0.019945825
0.01999086
0.019854632
0.019162795
0.018558951
0.017097541
0.014432486
0.0080700232
0.0099969558
0.011120469
0.011551232
0.01202422
0.012116365
0.012099149
0.012086538
0.012157633
0.012253749
0.012253749
0.012157635
0.012086541
0.012099152
0.012116368
0.012024223
0.011551234
0.011120474
0.0099969655
0.008070044
0.0038294577
0.0055260485
0.0064612661
0.0068388627
0.0071311508
0.0071955887
0.0071790378
0.0071602058
0.0071879228
0.0072429283
0.0072429288
0.0071879241
0.0071602084
0.0071790411
0.0071955921
0.0071311535
0.0068388647
0.0064612688
0.0055260558
0.0038294741
0.0014148994
0.0028688136
0.0036775128
0.0040402443
0.0042368108
0.0042743382
0.0042499527
0.0042204221
0.004224771
0.0042495986
0.004249599
0.0042247721
0.0042204239
0.0042499552
0.0042743413
0.0042368128
0.0040402454
0.0036775145
0.0028688187
0.0014149083
0.00039776411
0.0013932153
0.0020467441
0.0023686531
0.0025223292
0.0025506357
0.0025245192
0.0024902477
0.0024795952
0.0024851394
0.0024851397
0.0024795959
0.0024902488
0.0025245209
0.0025506375
0.0025223303
0.0023686538
0.0020467452
0.0013932185
0.00039776758
8.7344846e-05
0.00063480982
0.0011083304
0.001375983
0.001502273
0.001529498
0.00150938
0.0014788924
0.0014631986
0.0014597709
0.001459771
0.0014631989
0.001478893
0.0015093808
0.0015294988
0.0015022733
0.0013759833
0.0011083312
0.00063481171
8.7345908e-05
1.5713778e-05
0.00027218763
0.00058584622
0.00079005214
0.00089173114
0.00091852213
0.0009063563
0.00088332243
0.00086850333
0.00086235787
0.00086235791
0.00086850344
0.00088332258
0.00090635658
0.00091852239
0.0008917311
0.0007900521
0.00058584656
0.00027218848
1.5714033e-05
2.4832881e-06
0.00011081743
0.0003025663
0.00044778487
0.00052597381
0.00055047334
0.00054482298
0.00052925897
0.00051763155
0.0005117492
0.00051174918
0.00051763153
0.00052925892
0.00054482298
0.00055047333
0.00052597363
0.00044778473
0.00030256646
0.0001108178
2.4833378e-06
3.60243e-07
4.3165896e-05
0.00015293325
0.00025050039
0.00030776393
0.00032840691
0.00032694444
0.00031728553
0.00030909564
0.00030450292
0.00030450288
0.00030909557
0.0003172854
0.00032694434
0.00032840679
0.00030776374
0.00025050026
0.00015293333
4.3166058e-05
3.602513e-07
4.9550166e-08
1.6224975e-05
7.5799905e-05
0.00013834991
0.00017846721
0.00019468898
0.00019542498
0.00018985317
0.00018449597
0.00018128147
0.00018128143
0.00018449588
0.00018985304
0.00019542485
0.00019468885
0.00017846707
0.00013834982
7.5799943e-05
1.6225044e-05
4.955142e-08
6.6019811e-09
5.9288169e-06
3.6900678e-05
7.544608e-05
0.00010247799
0.00011452229
0.00011612766
0.00011313607
0.0001098248
0.00010773047
0.00010773044
0.00010982471
0.00011313595
0.00011612754
0.00011452219
0.0001024779
7.5446029e-05
3.69007e-05
5.9288459e-06
6.602158e-09
8.6309354e-10
2.1175161e-06
1.7663668e-05
4.061659e-05
5.8218581e-05
6.6754504e-05
6.8483254e-05
6.700386e-05
6.505205e-05
6.3757717e-05
6.375769e-05
6.5051984e-05
6.700377e-05
6.8483166e-05
6.6754428e-05
5.8218525e-05
4.0616567e-05
1.7663681e-05
2.1175277e-06
8.6311746e-10
1.1149831e-10
7.4168426e-07
8.3182827e-06
2.1575255e-05
3.2690909e-05
3.850768e-05
4.001462e-05
3.936185e-05
3.8259913e-05
3.7493171e-05
3.7493151e-05
3.8259864e-05
3.9361785e-05
4.0014559e-05
3.8507631e-05
3.2690879e-05
2.1575248e-05
8.3182929e-06
7.4168874e-07
1.115014e-10
1.428279e-11
2.5522127e-07
3.8538417e-06
1.1299422e-05
1.8124105e-05
2.1954666e-05
2.3129618e-05
2.2895443e-05
2.2299012e-05
2.186106e-05
2.1861046e-05
2.2298978e-05
2.2895397e-05
2.3129577e-05
2.1954636e-05
1.812409e-05
1.1299422e-05
3.8538489e-06
2.5522301e-07
1.4283181e-11
1.8194433e-12
8.634191e-08
1.7559232e-06
5.8291506e-06
9.9097697e-06
1.2355777e-05
1.3207075e-05
1.3164593e-05
1.2855747e-05
1.2613777e-05
1.2613768e-05
1.2855724e-05
1.3164562e-05
1.3207048e-05
1.2355759e-05
9.9097631e-06
5.8291529e-06
1.7559276e-06
8.634257e-08
1.819488e-12
2.4009925e-13
2.8717672e-08
7.8637076e-07
2.9593403e-06
5.3379999e-06
6.8558908e-06
7.4398294e-06
7.4716171e-06
7.319463e-06
7.1899771e-06
7.189971e-06
7.319448e-06
7.4715974e-06
7.4398128e-06
6.8558805e-06
5.3379973e-06
2.9593429e-06
7.8637327e-07
2.8717918e-08
2.4010515e-13
5.2183242e-14
9.3878843e-09
3.4593227e-07
1.477224e-06
2.8299366e-06
3.7467113e-06
4.1298772e-06
4.1804284e-06
4.1098885e-06
4.0427803e-06
4.0427764e-06
4.1098789e-06
4.1804159e-06
4.129867e-06
3.7467056e-06
2.8299357e-06
1.477226e-06
3.4593362e-07
9.3879746e-09
5.2100956e-14
3.1904655e-14
3.0151742e-09
1.4939655e-07
7.2449105e-07
1.4753482e-06
2.0148305e-06
2.2568714e-06
2.3033878e-06
2.2732678e-06
2.2396298e-06
2.2396273e-06
2.2732618e-06
2.3033802e-06
2.2568653e-06
2.0148273e-06
1.475348e-06
7.2449241e-07
1.4939726e-07
3.0152075e-09
3.1865696e-14
1.5133756e-14
9.5121389e-10
6.3307518e-08
3.488906e-07
7.5584872e-07
1.0653902e-06
1.2131902e-06
1.2487764e-06
1.2374921e-06
1.2212302e-06
1.2212288e-06
1.2374886e-06
1.2487718e-06
1.2131867e-06
1.0653884e-06
7.5584875e-07
3.4889144e-07
6.3307874e-08
9.5122651e-10
1.5123185e-14
)
;

boundaryField
{
    Wall
    {
        type            zeroGradient;
    }
    frontAndBack
    {
        type            empty;
    }
    atmosphere
    {
        type            zeroGradient;
    }
}


// ************************************************************************* //
