/*--------------------------------*- C++ -*----------------------------------*\
| =========                 |                                                 |
| \\      /  F ield         | OpenFOAM: The Open Source CFD Toolbox           |
|  \\    /   O peration     | Version:  3.0.1                                 |
|   \\  /    A nd           | Web:      www.OpenFOAM.org                      |
|    \\/     M anipulation  |                                                 |
\*---------------------------------------------------------------------------*/
FoamFile
{
    version     2.0;
    format      ascii;
    class       volScalarField;
    location    "28";
    object      wCO2_l;
}
// * * * * * * * * * * * * * * * * * * * * * * * * * * * * * * * * * * * * * //

dimensions      [0 0 0 0 0 0 0];

internalField   nonuniform List<scalar> 
800
(
0.0036176067
0.0036178456
0.0036178953
0.0036179023
0.0036179034
0.0036179042
0.0036179053
0.0036179063
0.0036179071
0.0036179076
0.0036179076
0.0036179071
0.0036179063
0.0036179053
0.0036179042
0.0036179034
0.0036179023
0.0036178953
0.0036178456
0.0036176067
0.0035881019
0.0035900243
0.0035908627
0.0035911321
0.0035911815
0.0035911534
0.003591109
0.003591071
0.0035910457
0.0035910332
0.0035910332
0.0035910456
0.003591071
0.0035911089
0.0035911533
0.0035911814
0.003591132
0.0035908624
0.003590024
0.0035881014
0.0036462184
0.003647093
0.003647355
0.0036476822
0.0036477679
0.0036477525
0.0036477083
0.0036476656
0.0036476353
0.0036476198
0.0036476198
0.0036476353
0.0036476656
0.0036477083
0.0036477525
0.0036477679
0.0036476821
0.0036473549
0.0036470927
0.0036462179
0.0037923203
0.0037893243
0.0037883601
0.0037886138
0.0037887021
0.0037887129
0.0037886914
0.0037886627
0.00378864
0.0037886275
0.0037886275
0.0037886401
0.0037886628
0.0037886914
0.003788713
0.0037887022
0.0037886139
0.0037883601
0.0037893243
0.0037923201
0.0040340778
0.004023523
0.0040209581
0.0040205693
0.0040206312
0.0040206777
0.0040206936
0.0040206907
0.0040206839
0.0040206782
0.0040206782
0.004020684
0.0040206909
0.0040206939
0.004020678
0.0040206315
0.0040205697
0.0040209585
0.0040235234
0.0040340782
0.0043844328
0.0043613882
0.0043569528
0.0043553037
0.0043553287
0.0043554239
0.0043554923
0.0043555245
0.0043555393
0.0043555426
0.0043555427
0.0043555395
0.0043555249
0.0043554928
0.0043554246
0.0043553295
0.0043553046
0.0043569537
0.0043613891
0.0043844339
0.0048601091
0.0048183583
0.0048115041
0.0048082162
0.0048082427
0.0048084174
0.0048085589
0.0048086359
0.0048086774
0.0048086909
0.0048086911
0.0048086778
0.0048086366
0.0048085598
0.0048084185
0.0048082439
0.0048082176
0.0048115056
0.0048183598
0.0048601108
0.0054783769
0.00541146
0.0054004273
0.0053954729
0.0053956529
0.0053959719
0.0053962167
0.0053963484
0.0053964214
0.0053964457
0.0053964459
0.005396422
0.0053963494
0.005396218
0.0053959734
0.0053956547
0.0053954748
0.0054004293
0.0054114621
0.0054783792
0.0062560731
0.0061580467
0.0061398899
0.0061336142
0.0061336235
0.0061342265
0.0061346095
0.0061348041
0.0061349147
0.0061349497
0.00613495
0.0061349155
0.0061348053
0.0061346112
0.0061342286
0.0061336259
0.0061336168
0.0061398926
0.0061580494
0.0062560762
0.0072088025
0.0070738165
0.0070453432
0.007038494
0.0070375992
0.0070379669
0.0070385072
0.0070387692
0.0070389293
0.0070389765
0.0070389768
0.0070389302
0.0070387707
0.0070385093
0.0070379694
0.0070376022
0.0070384972
0.0070453465
0.00707382
0.0072088063
0.008348968
0.0081719093
0.0081299359
0.0081236979
0.008120523
0.0081194443
0.0081201572
0.0081204948
0.0081207383
0.0081208056
0.008120806
0.0081207394
0.0081204966
0.0081201597
0.0081194473
0.0081205265
0.0081237018
0.0081299399
0.0081719136
0.0083489727
0.0096821467
0.0094588021
0.0094019745
0.0093981063
0.0093882812
0.0093845847
0.0093855191
0.009385949
0.0093864341
0.0093865389
0.0093865393
0.0093864353
0.009385951
0.0093855218
0.0093845881
0.0093882851
0.0093981108
0.0094019793
0.0094588072
0.0096821524
0.011202355
0.010929427
0.010861125
0.010859594
0.010837373
0.010830688
0.010831985
0.010832545
0.010832144
0.01083233
0.010832331
0.010832145
0.010832547
0.010831987
0.010830691
0.010837377
0.010859599
0.01086113
0.010929433
0.011202362
0.012888112
0.012569745
0.012495396
0.012493518
0.012456572
0.012447659
0.012449577
0.012450383
0.012442871
0.012443415
0.012443416
0.012442872
0.012450385
0.01244958
0.012447662
0.012456576
0.012493523
0.012495402
0.012569751
0.012888119
0.01464055
0.014299461
0.014221154
0.014216642
0.014169199
0.014159983
0.014163705
0.014166618
0.014145801
0.014144345
0.014144345
0.014145802
0.01416662
0.014163707
0.014159986
0.014169203
0.014216647
0.01422116
0.014299467
0.014640556
0.016308793
0.0159821
0.015897856
0.015891926
0.015843583
0.015837694
0.015835097
0.015839932
0.015807219
0.015800823
0.015800823
0.015807219
0.015839933
0.015835099
0.015837697
0.015843586
0.01589193
0.015897861
0.015982105
0.016308798
0.017832136
0.01757061
0.017483684
0.017482571
0.017439091
0.017423533
0.017411666
0.017418899
0.017385456
0.017373592
0.017373592
0.017385457
0.0174189
0.017411667
0.017423535
0.017439094
0.017482574
0.017483688
0.017570614
0.017832139
0.019058725
0.018891681
0.018820007
0.018833274
0.018796852
0.01877575
0.018766781
0.018777228
0.018729019
0.018713878
0.018713878
0.018729019
0.018777228
0.018766781
0.01877575
0.018796853
0.018833275
0.018820009
0.018891683
0.019058727
0.01967958
0.019716873
0.019701517
0.019738226
0.019670238
0.01966552
0.01967487
0.019688683
0.019652444
0.019637343
0.019637343
0.019652444
0.019688683
0.01967487
0.01966552
0.019670239
0.019738226
0.019701518
0.019716874
0.019679583
0.019216181
0.019632498
0.019761079
0.019827559
0.019750438
0.019771377
0.0198029
0.019818425
0.019826645
0.019814008
0.019814008
0.019826645
0.019818425
0.0198029
0.019771377
0.019750437
0.019827558
0.019761079
0.0196325
0.019216186
0.016734588
0.017772137
0.018227454
0.018360802
0.018430787
0.018476295
0.018520108
0.018533886
0.018575402
0.018565937
0.018565937
0.018575402
0.018533886
0.018520108
0.018476295
0.018430786
0.018360802
0.018227454
0.017772139
0.016734597
0.012066608
0.013341874
0.014058516
0.014353905
0.014501478
0.014557259
0.014593988
0.014599349
0.014641446
0.01463365
0.01463365
0.014641446
0.01459935
0.014593988
0.014557259
0.014501479
0.014353905
0.014058517
0.01334188
0.012066623
0.0078618042
0.0093124436
0.010242111
0.010680491
0.010896617
0.010966952
0.010993743
0.010988703
0.011017935
0.011010121
0.011010122
0.011017936
0.010988704
0.010993745
0.010966954
0.010896619
0.010680493
0.010242116
0.0093124528
0.0078618241
0.0042928362
0.0060646781
0.007143588
0.007702868
0.0079714998
0.008058172
0.0080672972
0.0080433182
0.0080462321
0.0080322911
0.0080322913
0.0080462328
0.00804332
0.0080672997
0.0080581744
0.0079715015
0.0077028698
0.0071435912
0.0060646865
0.0042928546
0.0018091888
0.0036915764
0.0048403928
0.0054850433
0.0057903919
0.0058830848
0.0058763474
0.005832734
0.0058109197
0.0057892785
0.0057892787
0.0058109205
0.0058327353
0.0058763494
0.0058830871
0.0057903933
0.0054850444
0.0048403952
0.003691583
0.0018092003
0.00057543815
0.0021079952
0.0031981589
0.0038483772
0.0041714518
0.0042706279
0.0042554577
0.0041989751
0.004158385
0.0041297459
0.004129746
0.0041583854
0.0041989757
0.0042554589
0.0042706293
0.0041714526
0.0038483781
0.0031981605
0.0021079997
0.0005754432
0.00014207938
0.0011337241
0.0020545399
0.0026603952
0.0029757445
0.0030785705
0.0030646702
0.0030069897
0.0029590112
0.0029279209
0.0029279208
0.0029590111
0.0030069897
0.0030646705
0.0030785709
0.0029757444
0.0026603954
0.0020545413
0.0011337272
0.0001420811
2.8640334e-05
0.00057380916
0.0012855044
0.0018070803
0.0020944414
0.0021956318
0.0021880702
0.0021375031
0.0020912674
0.0020619528
0.0020619525
0.002091267
0.0021375026
0.0021880699
0.0021956315
0.0020944409
0.0018070799
0.001285505
0.00057381076
2.8640796e-05
5.0572669e-06
0.00027447042
0.00078195172
0.0012027444
0.0014496524
0.0015437152
0.0015434137
0.001503759
0.0014644781
0.001439561
0.0014395607
0.0014644775
0.0015037582
0.0015434131
0.0015437146
0.0014496517
0.0012027439
0.00078195196
0.00027447121
5.0573672e-06
8.1825731e-07
0.00012461284
0.00046179943
0.00078282463
0.00098436871
0.0010672137
0.0010727307
0.001044343
0.0010138375
0.00099427928
0.00099427898
0.0010138369
0.0010443422
0.00107273
0.001067213
0.00098436804
0.00078282416
0.00046179955
0.00012461325
8.1827584e-07
1.2534155e-07
5.4059232e-05
0.00026466754
0.00049759787
0.00065473111
0.0007241744
0.00073323463
0.00071453501
0.00069245865
0.0006780596
0.00067805931
0.00069245804
0.0007145342
0.00073323388
0.00072417375
0.00065473058
0.00049759754
0.00026466761
5.4059434e-05
1.2534464e-07
1.8566797e-08
2.255781e-05
0.00014725261
0.00030867818
0.00042614002
0.00048176439
0.00049219795
0.0004808831
0.00046583022
0.00045578452
0.00045578428
0.00046582969
0.00048088241
0.00049219731
0.00048176387
0.00042613965
0.000308678
0.00014725267
2.255791e-05
1.8567277e-08
2.6929792e-09
9.1029675e-06
7.9599229e-05
0.00018683102
0.00027126975
0.00031399146
0.00032417164
0.00031796974
0.00030823753
0.00030154966
0.00030154946
0.00030823709
0.00031796918
0.00032417113
0.00031399107
0.00027126951
0.00018683094
7.9599287e-05
9.1030135e-06
2.6930506e-09
3.8504471e-10
3.5664807e-06
4.1851599e-05
0.00011034709
0.00016886227
0.00020041515
0.00020935844
0.00020639702
0.00020041143
0.00019614256
0.00019614242
0.0002004111
0.00020639658
0.00020935806
0.00020041488
0.00016886213
0.00011034708
4.1851652e-05
3.5665012e-06
3.8505486e-10
5.4455582e-11
1.3603524e-06
2.1426872e-05
6.3618993e-05
0.000102794
0.00012526021
0.00013253722
0.00013144709
0.0001279427
0.00012532194
0.00012532183
0.00012794245
0.00013144677
0.00013253694
0.00012526003
0.00010279393
6.3619005e-05
2.1426913e-05
1.3603614e-06
5.4457026e-11
7.6624055e-12
5.0607599e-07
1.0693005e-05
3.581972e-05
6.1205723e-05
7.6661211e-05
8.2233542e-05
8.2106838e-05
8.0157418e-05
7.860689e-05
7.8606813e-05
8.0157239e-05
8.2106609e-05
8.2233352e-05
7.6661091e-05
6.1205684e-05
3.581974e-05
1.0693033e-05
5.0607978e-07
7.6625783e-12
1.173219e-12
1.8385333e-07
5.2063563e-06
1.9705395e-05
3.5655696e-05
4.5948884e-05
5.0005092e-05
5.0293425e-05
4.9268578e-05
4.8383725e-05
4.8383672e-05
4.9268454e-05
5.0293266e-05
5.0004963e-05
4.5948808e-05
3.5655678e-05
1.9705415e-05
5.2063733e-06
1.8385488e-07
1.1732627e-12
3.7679464e-13
6.5282649e-08
2.4751833e-06
1.0597387e-05
2.0329328e-05
2.6977292e-05
2.9803407e-05
3.0208188e-05
2.9704656e-05
2.92176e-05
2.9217564e-05
2.9704572e-05
3.0208081e-05
2.9803322e-05
2.6977244e-05
2.0329319e-05
1.0597402e-05
2.475193e-06
6.5283271e-08
3.761675e-13
2.8950106e-13
2.2673194e-08
1.1497943e-06
5.5741835e-06
1.1348242e-05
1.5518589e-05
1.7412714e-05
1.7792617e-05
1.75667e-05
1.7308417e-05
1.7308393e-05
1.7566645e-05
1.7792546e-05
1.7412659e-05
1.551856e-05
1.1348239e-05
5.5741939e-06
1.1497997e-06
2.2673444e-08
2.8921504e-13
1.4626708e-13
7.7081668e-09
5.2219765e-07
2.8690578e-06
6.2044097e-06
8.7488815e-06
9.9746679e-06
1.0277996e-05
1.0190413e-05
1.0058812e-05
1.0058797e-05
1.0190379e-05
1.0277951e-05
9.9746333e-06
8.7488637e-06
6.2044082e-06
2.8690645e-06
5.2220052e-07
7.708271e-09
1.4620969e-13
)
;

boundaryField
{
    Wall
    {
        type            zeroGradient;
    }
    frontAndBack
    {
        type            empty;
    }
    atmosphere
    {
        type            zeroGradient;
    }
}


// ************************************************************************* //
