/*--------------------------------*- C++ -*----------------------------------*\
| =========                 |                                                 |
| \\      /  F ield         | OpenFOAM: The Open Source CFD Toolbox           |
|  \\    /   O peration     | Version:  3.0.1                                 |
|   \\  /    A nd           | Web:      www.OpenFOAM.org                      |
|    \\/     M anipulation  |                                                 |
\*---------------------------------------------------------------------------*/
FoamFile
{
    version     2.0;
    format      ascii;
    class       volScalarField;
    location    "28";
    object      wCO2_g;
}
// * * * * * * * * * * * * * * * * * * * * * * * * * * * * * * * * * * * * * //

dimensions      [0 0 0 0 0 0 0];

internalField   nonuniform List<scalar> 
800
(
0.014544178
0.014544915
0.014545052
0.014545087
0.014545108
0.014545125
0.014545138
0.014545148
0.014545155
0.014545158
0.014545158
0.014545155
0.014545148
0.014545138
0.014545125
0.014545108
0.014545087
0.014545052
0.014544915
0.014544178
0.014675222
0.014678717
0.014679384
0.014679411
0.014679308
0.01467922
0.014679164
0.014679135
0.01467912
0.014679115
0.014679115
0.01467912
0.014679135
0.014679164
0.01467922
0.014679308
0.01467941
0.014679384
0.014678717
0.014675222
0.014813486
0.014817588
0.014819368
0.014819404
0.014819237
0.014819102
0.014819026
0.014818992
0.014818979
0.014818975
0.014818975
0.014818979
0.014818992
0.014819026
0.014819102
0.014819237
0.014819404
0.014819367
0.014817588
0.014813485
0.014971754
0.014974386
0.014977206
0.014977249
0.014977033
0.014976883
0.014976812
0.014976794
0.014976795
0.014976799
0.014976799
0.014976795
0.014976794
0.014976812
0.014976883
0.014977033
0.014977249
0.014977205
0.014974386
0.014971754
0.01515604
0.015155554
0.015158988
0.015159328
0.015159032
0.015158862
0.015158799
0.015158803
0.015158822
0.015158837
0.015158837
0.015158822
0.015158803
0.015158799
0.015158861
0.015159032
0.015159328
0.015158988
0.015155554
0.01515604
0.015365385
0.015361236
0.015364796
0.015365748
0.015365307
0.01536508
0.015365009
0.015365025
0.015365057
0.015365082
0.015365082
0.015365057
0.015365025
0.015365009
0.01536508
0.015365307
0.015365749
0.015364796
0.015361236
0.015365385
0.015592176
0.015585472
0.015588443
0.015590177
0.015589505
0.015589164
0.015589047
0.015589052
0.015589084
0.015589111
0.015589111
0.015589084
0.015589052
0.015589047
0.015589164
0.015589505
0.015590178
0.015588443
0.015585472
0.015592176
0.015823948
0.015817593
0.015819295
0.015821789
0.015820826
0.015820293
0.015820075
0.015820033
0.015820043
0.015820064
0.015820064
0.015820043
0.015820033
0.015820075
0.015820293
0.015820826
0.015821789
0.015819296
0.015817593
0.015823948
0.016043232
0.016042256
0.016042253
0.01604532
0.016044449
0.016043671
0.016043283
0.016043146
0.016043108
0.016043109
0.016043109
0.016043108
0.016043146
0.016043283
0.016043672
0.016044449
0.01604532
0.016042253
0.016042256
0.016043231
0.016228029
0.016240486
0.016238651
0.016242005
0.016242111
0.016241572
0.016240927
0.01624064
0.016240521
0.016240487
0.016240487
0.016240521
0.01624064
0.016240927
0.016241571
0.016242111
0.016242005
0.016238651
0.016240486
0.016228028
0.016351738
0.016388914
0.016386311
0.016389612
0.016392225
0.016392969
0.016391965
0.016391466
0.016391226
0.016391139
0.016391139
0.016391226
0.016391466
0.016391965
0.016392968
0.016392224
0.016389612
0.016386311
0.016388913
0.016351737
0.016383151
0.016458362
0.016458818
0.016461595
0.016468946
0.016472023
0.016470547
0.016469765
0.016469395
0.016469231
0.016469231
0.016469395
0.016469764
0.016470547
0.016472022
0.016468945
0.016461594
0.016458817
0.016458361
0.016383149
0.016286426
0.016413808
0.016424527
0.016425996
0.016440423
0.016446297
0.016444241
0.016443074
0.016443467
0.016443153
0.016443153
0.016443466
0.016443073
0.01644424
0.016446296
0.016440422
0.016425995
0.016424526
0.016413806
0.016286424
0.016020931
0.016216
0.016246189
0.01624753
0.0162705
0.016278864
0.016276142
0.016274523
0.016276968
0.016276493
0.016276493
0.016276968
0.016274522
0.016276141
0.016278863
0.016270498
0.016247529
0.016246187
0.016215998
0.016020928
0.015574844
0.015851909
0.015911392
0.015918009
0.015949449
0.01595929
0.015955207
0.015951614
0.01595717
0.015958775
0.015958775
0.015957169
0.015951613
0.015955206
0.015959289
0.015949447
0.015918007
0.015911389
0.015851907
0.01557484
0.014965043
0.015340897
0.015441052
0.01546067
0.015499371
0.015508555
0.015501406
0.015496828
0.015505958
0.015512606
0.015512606
0.015505957
0.015496827
0.015501404
0.015508553
0.015499369
0.015460667
0.015441049
0.015340893
0.014965039
0.014072953
0.014562223
0.014714215
0.014753582
0.014802932
0.014809655
0.01479998
0.014795142
0.014806669
0.014819302
0.014819301
0.014806668
0.01479514
0.014799978
0.014809653
0.014802929
0.014753579
0.014714211
0.014562219
0.014072949
0.012840031
0.013452264
0.01366821
0.013731151
0.013797656
0.013803966
0.013794749
0.013789974
0.013802868
0.013820075
0.013820075
0.013802868
0.013789972
0.013794747
0.013803964
0.013797653
0.013731148
0.013668207
0.01345226
0.012840028
0.011198335
0.0119358
0.01222713
0.012315189
0.012406337
0.012417016
0.012411629
0.012407414
0.012424609
0.012443893
0.012443892
0.012424608
0.012407413
0.012411627
0.012417014
0.012406334
0.012315186
0.012227127
0.011935797
0.011198334
0.0091223351
0.0099493876
0.010316139
0.010434379
0.010554991
0.010578678
0.010578956
0.010575937
0.010598866
0.010617679
0.010617679
0.010598865
0.010575936
0.010578954
0.010578676
0.010554989
0.010434377
0.010316137
0.0099493866
0.0091223374
0.0067857052
0.0075914003
0.0079971838
0.0081525053
0.0082840938
0.00831349
0.0083184832
0.0083168039
0.0083428609
0.0083586188
0.0083586186
0.0083428607
0.0083168033
0.0083184825
0.0083134891
0.0082840927
0.008152504
0.0079971826
0.0075914006
0.006785709
0.0046057257
0.005264316
0.0056337216
0.0057819333
0.0058923673
0.0059195868
0.0059264852
0.0059257695
0.0059470997
0.0059576752
0.0059576752
0.0059470997
0.0059257693
0.0059264851
0.0059195865
0.0058923669
0.0057819327
0.0056337214
0.0052643177
0.0046057316
0.0028492472
0.0034391073
0.0038036318
0.0039618321
0.0040587858
0.0040855667
0.0040918047
0.0040900924
0.0041048389
0.0041107346
0.0041107346
0.0041048391
0.0040900927
0.0040918052
0.0040855672
0.0040587861
0.0039618325
0.003803633
0.0034391104
0.0028492543
0.001483199
0.002111168
0.0024782294
0.0026519647
0.0027397038
0.002765245
0.00276566
0.0027584257
0.0027627298
0.0027632969
0.002763297
0.0027627301
0.0027584263
0.0027656608
0.0027652458
0.0027397043
0.0026519651
0.0024782303
0.0021111707
0.0014832053
0.00059725752
0.0012130384
0.0015750575
0.0017624289
0.0018472626
0.0018688089
0.001863056
0.0018495517
0.0018449445
0.0018412067
0.0018412068
0.0018449448
0.0018495522
0.0018630567
0.0018688098
0.0018472631
0.0017624292
0.0015750581
0.0012130405
0.00059726127
0.00018179261
0.00065221767
0.00097671958
0.0011574081
0.0012410862
0.0012618666
0.001253145
0.0012359053
0.0012251547
0.0012184007
0.0012184008
0.0012251549
0.0012359056
0.0012531455
0.0012618672
0.0012410865
0.0011574084
0.00097672004
0.00065221908
0.0001817942
4.2962083e-05
0.0003290601
0.00058828905
0.00074993319
0.00082841112
0.00084962579
0.00084180099
0.00082485099
0.00081210103
0.00080439273
0.00080439274
0.00081210109
0.00082485107
0.00084180119
0.000849626
0.00082841114
0.00074993324
0.00058828944
0.00032906103
4.2962606e-05
8.2757153e-06
0.00015575515
0.00034468111
0.00047772597
0.00054676869
0.00056774385
0.00056256973
0.00054838825
0.00053650363
0.00052933359
0.00052933357
0.0005365036
0.00054838819
0.00056256973
0.00056774386
0.00054676858
0.00047772589
0.00034468127
0.00015575561
8.2758495e-06
1.3925991e-06
6.9532946e-05
0.00019613834
0.00029827746
0.00035538201
0.00037482461
0.00037241504
0.0003618309
0.00035217593
0.00034629381
0.00034629377
0.00035217585
0.00036183077
0.00037241494
0.00037482452
0.00035538184
0.00029827734
0.00019613842
6.9533165e-05
1.392627e-06
2.1387339e-07
2.9419784e-05
0.00010829232
0.00018215068
0.00022681575
0.00024367824
0.00024336915
0.00023615611
0.00022901819
0.00022460153
0.00022460148
0.00022901809
0.00023615596
0.00024336901
0.00024367811
0.0002268156
0.00018215058
0.00010829236
2.9419888e-05
2.1387831e-07
3.0943543e-08
1.1879214e-05
5.8001616e-05
0.00010864192
0.00014186683
0.00015563165
0.00015658852
0.00015205428
0.00014714612
0.00014404837
0.00014404833
0.00014714602
0.00015205414
0.00015658839
0.00015563152
0.00014186672
0.00010864185
5.800164e-05
1.1879263e-05
3.0944325e-08
4.3052159e-09
4.6082222e-06
3.0148525e-05
6.3233878e-05
8.684524e-05
9.7489542e-05
9.9008325e-05
9.6377056e-05
9.319991e-05
9.1145383e-05
9.1145345e-05
9.3199823e-05
9.6376939e-05
9.9008213e-05
9.7489446e-05
8.6845166e-05
6.323384e-05
3.0148543e-05
4.6082443e-06
4.305331e-09
5.8302483e-10
1.7266225e-06
1.5220109e-05
3.5901223e-05
5.1989143e-05
5.982984e-05
6.1432437e-05
6.0035775e-05
5.8086399e-05
5.6787819e-05
5.6787791e-05
5.8086331e-05
6.0035685e-05
6.1432352e-05
5.9829771e-05
5.1989098e-05
3.5901207e-05
1.5220121e-05
1.7266319e-06
5.8304095e-10
7.7359759e-11
6.272858e-07
7.4697612e-06
1.9881003e-05
3.0421773e-05
3.5947816e-05
3.7369661e-05
3.6709486e-05
3.5571816e-05
3.4785651e-05
3.478563e-05
3.5571766e-05
3.670942e-05
3.7369601e-05
3.5947771e-05
3.042175e-05
1.9881e-05
7.4697715e-06
6.2728963e-07
7.7361901e-11
1.009087e-11
2.2156435e-07
3.5673305e-06
1.0739694e-05
1.7397176e-05
2.1137027e-05
2.2271903e-05
2.2013983e-05
2.1381828e-05
2.0924462e-05
2.0924448e-05
2.1381793e-05
2.2013937e-05
2.2271862e-05
2.1136999e-05
1.7397165e-05
1.0739696e-05
3.5673379e-06
2.2156589e-07
1.0091148e-11
1.2981544e-12
7.6223115e-08
1.6592186e-06
5.6608673e-06
9.7228045e-06
1.2160329e-05
1.2999885e-05
1.2939314e-05
1.2605367e-05
1.234917e-05
1.234916e-05
1.2605343e-05
1.2939283e-05
1.2999858e-05
1.2160312e-05
9.7227999e-06
5.660871e-06
1.6592232e-06
7.6223715e-08
1.2981854e-12
1.7265806e-13
2.5571875e-08
7.5217806e-07
2.9124536e-06
5.310964e-06
6.844725e-06
7.4297289e-06
7.4516262e-06
7.2846684e-06
7.1463596e-06
7.1463531e-06
7.2846528e-06
7.4516061e-06
7.4297124e-06
6.8447155e-06
5.3109624e-06
2.9124569e-06
7.5218067e-07
2.5572102e-08
1.7266178e-13
4.0079513e-14
8.3735617e-09
3.325734e-07
1.4631403e-06
2.8360307e-06
3.7696643e-06
4.1574336e-06
4.2036576e-06
4.1253998e-06
4.0534405e-06
4.0534364e-06
4.1253899e-06
4.2036449e-06
4.1574235e-06
3.7696589e-06
2.8360305e-06
1.4631427e-06
3.3257481e-07
8.373645e-09
4.0005666e-14
2.654434e-14
2.6782159e-09
1.4350377e-07
7.1802212e-07
1.480862e-06
2.0316351e-06
2.2777679e-06
2.3227748e-06
2.2890301e-06
2.2529858e-06
2.2529832e-06
2.289024e-06
2.322767e-06
2.2777619e-06
2.0316322e-06
1.4808621e-06
7.1802368e-07
1.4350449e-07
2.6782465e-09
2.6509078e-14
1.2686385e-14
8.3732928e-10
6.0461713e-08
3.4434119e-07
7.5632263e-07
1.0716855e-06
1.2219998e-06
1.2571933e-06
1.2443666e-06
1.2270259e-06
1.2270244e-06
1.244363e-06
1.2571887e-06
1.2219963e-06
1.0716839e-06
7.5632285e-07
3.4434213e-07
6.0462074e-08
8.3734076e-10
1.2676283e-14
)
;

boundaryField
{
    Wall
    {
        type            zeroGradient;
    }
    frontAndBack
    {
        type            empty;
    }
    atmosphere
    {
        type            zeroGradient;
    }
}


// ************************************************************************* //
