/*--------------------------------*- C++ -*----------------------------------*\
| =========                 |                                                 |
| \\      /  F ield         | OpenFOAM: The Open Source CFD Toolbox           |
|  \\    /   O peration     | Version:  3.0.1                                 |
|   \\  /    A nd           | Web:      www.OpenFOAM.org                      |
|    \\/     M anipulation  |                                                 |
\*---------------------------------------------------------------------------*/
FoamFile
{
    version     2.0;
    format      ascii;
    class       volScalarField;
    location    "28";
    object      weight0;
}
// * * * * * * * * * * * * * * * * * * * * * * * * * * * * * * * * * * * * * //

dimensions      [0 0 0 0 0 0 0];

internalField   nonuniform List<scalar> 
800
(
9.985997e+09
9.9866158e+09
9.986782e+09
9.9868215e+09
9.9868387e+09
9.9868521e+09
9.9868636e+09
9.9868727e+09
9.9868789e+09
9.9868821e+09
9.9868821e+09
9.9868789e+09
9.9868727e+09
9.9868636e+09
9.9868521e+09
9.9868387e+09
9.9868215e+09
9.986782e+09
9.9866158e+09
9.9859971e+09
7.7174346e+09
7.9083442e+09
7.938355e+09
7.9430931e+09
7.9434937e+09
7.9438296e+09
7.9445292e+09
7.9453401e+09
7.9459975e+09
7.9463565e+09
7.9463563e+09
7.9459973e+09
7.9453398e+09
7.9445286e+09
7.9438287e+09
7.9434928e+09
7.9430923e+09
7.9383538e+09
7.9083429e+09
7.7174313e+09
7.0144654e+09
7.2233993e+09
7.2862737e+09
7.295984e+09
7.2990939e+09
7.3011881e+09
7.3031083e+09
7.3047505e+09
7.305929e+09
7.3065417e+09
7.3065414e+09
7.3059287e+09
7.30475e+09
7.3031076e+09
7.3011871e+09
7.299093e+09
7.2959832e+09
7.2862729e+09
7.2233983e+09
7.0144624e+09
6.5849644e+09
6.8018839e+09
6.8807821e+09
6.8937927e+09
6.8989025e+09
6.9019999e+09
6.9043535e+09
6.9061574e+09
6.9073872e+09
6.9080128e+09
6.9080124e+09
6.9073866e+09
6.9061563e+09
6.9043519e+09
6.9019978e+09
6.8989002e+09
6.8937903e+09
6.8807794e+09
6.8018807e+09
6.5849586e+09
4.9739258e+09
5.2895822e+09
5.3848045e+09
5.3999388e+09
5.4073834e+09
5.4109358e+09
5.4130134e+09
5.4143873e+09
5.4152692e+09
5.4157093e+09
5.4157086e+09
5.4152675e+09
5.4143843e+09
5.4130092e+09
5.4109304e+09
5.407377e+09
5.3999314e+09
5.3847963e+09
5.2895727e+09
4.9739118e+09
7.1638223e+08
1.3467352e+09
1.4842703e+09
1.4952079e+09
1.5081916e+09
1.5133464e+09
1.5154674e+09
1.5165159e+09
1.5170941e+09
1.5173695e+09
1.517368e+09
1.51709e+09
1.5165088e+09
1.5154576e+09
1.5133338e+09
1.508177e+09
1.4951914e+09
1.4842523e+09
1.3467156e+09
7.1635485e+08
1.3790682e+08
90627447
82793691
83103301
82270207
81929757
81802134
81747176
81721846
81710145
81710238
81722133
81747642
81802773
81930557
82271128
83104321
82794743
90628600
1.3790871e+08
2.1372159e+09
1.7637424e+09
1.6901924e+09
1.7006976e+09
1.6922636e+09
1.6878715e+09
1.685739e+09
1.6845703e+09
1.683957e+09
1.6836549e+09
1.6836557e+09
1.6839596e+09
1.6845744e+09
1.6857445e+09
1.6878782e+09
1.6922711e+09
1.7007057e+09
1.6902002e+09
1.7637502e+09
2.1372263e+09
9.6403762e+09
8.6899393e+09
8.4331036e+09
8.4839238e+09
8.4885021e+09
8.4673427e+09
8.4539137e+09
8.4455794e+09
8.4409307e+09
8.4385845e+09
8.4385868e+09
8.4409377e+09
8.4455907e+09
8.4539285e+09
8.4673602e+09
8.48852e+09
8.4839433e+09
8.4331208e+09
8.689955e+09
9.640397e+09
2.4532085e+10
2.3432279e+10
2.2886766e+10
2.3013603e+10
2.3137231e+10
2.3142147e+10
2.3095017e+10
2.3064905e+10
2.3047961e+10
2.3039279e+10
2.3039282e+10
2.3047972e+10
2.3064923e+10
2.309504e+10
2.3142174e+10
2.3137257e+10
2.3013632e+10
2.2886789e+10
2.3432302e+10
2.453212e+10
4.5699434e+10
4.5327212e+10
4.4622053e+10
4.4877016e+10
4.5280606e+10
4.540894e+10
4.5294967e+10
4.522181e+10
4.518118e+10
4.5159937e+10
4.5159941e+10
4.5181195e+10
4.5221834e+10
4.5295001e+10
4.5408979e+10
4.5280646e+10
4.4877067e+10
4.4622094e+10
4.5327256e+10
4.569951e+10
7.2742615e+10
7.3493662e+10
7.3187886e+10
7.3695764e+10
7.4442351e+10
7.4672835e+10
7.4452055e+10
7.4308456e+10
7.4230936e+10
7.4188962e+10
7.4188968e+10
7.4230958e+10
7.4308489e+10
7.4452111e+10
7.4672902e+10
7.4442428e+10
7.3695866e+10
7.3187972e+10
7.3493762e+10
7.2742775e+10
1.0829207e+11
1.0992025e+11
1.1083332e+11
1.1179463e+11
1.1270839e+11
1.1287257e+11
1.124941e+11
1.1223691e+11
1.1219302e+11
1.121148e+11
1.121148e+11
1.1219305e+11
1.1223696e+11
1.1249419e+11
1.1287269e+11
1.1270853e+11
1.1179482e+11
1.1083349e+11
1.0992045e+11
1.0829236e+11
1.5732718e+11
1.594951e+11
1.6241393e+11
1.6438126e+11
1.65165e+11
1.6508172e+11
1.6447468e+11
1.6404121e+11
1.6388116e+11
1.6375114e+11
1.6375114e+11
1.6388121e+11
1.6404128e+11
1.6447482e+11
1.6508191e+11
1.6516524e+11
1.6438157e+11
1.6241422e+11
1.5949544e+11
1.5732765e+11
2.1094988e+11
2.1413999e+11
2.1942052e+11
2.2251264e+11
2.2308377e+11
2.2273004e+11
2.2185708e+11
2.2154478e+11
2.210225e+11
2.2082281e+11
2.2082282e+11
2.2102255e+11
2.2154486e+11
2.2185727e+11
2.227303e+11
2.230841e+11
2.2251307e+11
2.1942091e+11
2.1414046e+11
2.1095051e+11
2.68338e+11
2.7153882e+11
2.7935066e+11
2.8457221e+11
2.851695e+11
2.8467675e+11
2.8343431e+11
2.8252978e+11
2.8138921e+11
2.8083999e+11
2.8084e+11
2.8138926e+11
2.8252985e+11
2.8343453e+11
2.8467706e+11
2.851699e+11
2.8457274e+11
2.7935115e+11
2.715394e+11
2.6833877e+11
3.7275843e+11
3.7381387e+11
3.8559507e+11
3.9472138e+11
3.9555072e+11
3.9482498e+11
3.9272136e+11
3.9075619e+11
3.8844325e+11
3.8707794e+11
3.8707793e+11
3.884433e+11
3.9075625e+11
3.9272161e+11
3.9482537e+11
3.9555123e+11
3.9472206e+11
3.8559571e+11
3.7381463e+11
3.7275938e+11
5.5337299e+11
5.5327738e+11
5.7303596e+11
5.8949748e+11
5.9092276e+11
5.8956808e+11
5.8570834e+11
5.8267983e+11
5.7802278e+11
5.7566394e+11
5.756639e+11
5.780228e+11
5.8267984e+11
5.857086e+11
5.8956854e+11
5.9092339e+11
5.8949832e+11
5.7303676e+11
5.5327834e+11
5.5337409e+11
8.0052323e+11
8.114009e+11
8.4658641e+11
8.7504453e+11
8.779218e+11
8.7577773e+11
8.6977326e+11
8.6580828e+11
8.5808395e+11
8.5514296e+11
8.5514289e+11
8.5808391e+11
8.6580822e+11
8.6977349e+11
8.757782e+11
8.7792246e+11
8.7504542e+11
8.4658727e+11
8.1140197e+11
8.0052444e+11
1.030578e+12
1.0759722e+12
1.1366426e+12
1.1811386e+12
1.1885091e+12
1.1864522e+12
1.1791294e+12
1.1743061e+12
1.1644931e+12
1.1614644e+12
1.1614643e+12
1.164493e+12
1.1743059e+12
1.1791295e+12
1.1864526e+12
1.1885096e+12
1.1811393e+12
1.1366434e+12
1.0759733e+12
1.0305793e+12
1.1508389e+12
1.2524445e+12
1.3526217e+12
1.420631e+12
1.4402565e+12
1.4417203e+12
1.4341384e+12
1.4280936e+12
1.4173022e+12
1.4142682e+12
1.4142681e+12
1.417302e+12
1.4280933e+12
1.4341385e+12
1.4417206e+12
1.4402569e+12
1.4206316e+12
1.3526224e+12
1.2524456e+12
1.1508405e+12
0
0
0
0
0
0
0
0
0
0
0
0
0
0
0
0
0
0
0
0
0
0
0
0
0
0
0
0
0
0
0
0
0
0
0
0
0
0
0
0
0
0
0
0
0
0
0
0
0
0
0
0
0
0
0
0
0
0
0
0
0
0
0
0
0
0
0
0
0
0
0
0
0
0
0
0
0
0
0
0
0
0
0
0
0
0
0
0
0
0
0
0
0
0
0
0
0
0
0
0
0
0
0
0
0
0
0
0
0
0
0
0
0
0
0
0
0
0
0
0
0
0
0
0
0
0
0
0
0
0
0
0
0
0
0
0
0
0
0
0
0
0
0
0
0
0
0
0
0
0
0
0
0
0
0
0
0
0
0
0
0
0
0
0
0
0
0
0
0
0
0
0
0
0
0
0
0
0
0
0
0
0
0
0
0
0
0
0
0
0
0
0
0
0
0
0
0
0
0
0
0
0
0
0
0
0
0
0
0
0
0
0
0
0
0
0
0
0
0
0
0
0
0
0
0
0
0
0
0
0
0
0
0
0
0
0
0
0
0
0
0
0
0
0
0
0
0
0
0
0
0
0
0
0
0
0
0
0
0
0
0
0
0
0
0
0
0
0
0
0
0
0
0
0
0
0
0
0
0
0
0
0
0
0
0
0
0
0
0
0
0
0
0
0
0
0
0
0
0
0
0
0
0
0
0
0
0
0
0
0
0
0
0
0
0
0
0
0
0
0
0
0
0
0
0
0
0
0
0
0
0
0
0
0
0
0
0
0
0
0
0
0
0
0
0
0
0
0
0
0
0
0
0
0
0
0
0
0
0
0
0
0
0
0
0
0
0
0
0
0
0
0
0
0
0
0
0
0
0
0
)
;

boundaryField
{
    Wall
    {
        type            zeroGradient;
    }
    frontAndBack
    {
        type            empty;
    }
    atmosphere
    {
        type            zeroGradient;
    }
}


// ************************************************************************* //
