/*--------------------------------*- C++ -*----------------------------------*\
| =========                 |                                                 |
| \\      /  F ield         | OpenFOAM: The Open Source CFD Toolbox           |
|  \\    /   O peration     | Version:  3.0.1                                 |
|   \\  /    A nd           | Web:      www.OpenFOAM.org                      |
|    \\/     M anipulation  |                                                 |
\*---------------------------------------------------------------------------*/
FoamFile
{
    version     2.0;
    format      ascii;
    class       volScalarField;
    location    "28";
    object      weight1;
}
// * * * * * * * * * * * * * * * * * * * * * * * * * * * * * * * * * * * * * //

dimensions      [0 0 0 0 0 0 0];

internalField   nonuniform List<scalar> 
800
(
9.990014e+12
9.9900134e+12
9.9900132e+12
9.9900132e+12
9.9900132e+12
9.9900131e+12
9.9900131e+12
9.9900131e+12
9.9900131e+12
9.9900131e+12
9.9900131e+12
9.9900131e+12
9.9900131e+12
9.9900131e+12
9.9900131e+12
9.9900132e+12
9.9900132e+12
9.9900132e+12
9.9900134e+12
9.990014e+12
9.9922826e+12
9.9920917e+12
9.9920616e+12
9.9920569e+12
9.9920565e+12
9.9920562e+12
9.9920555e+12
9.9920547e+12
9.992054e+12
9.9920536e+12
9.9920536e+12
9.992054e+12
9.9920547e+12
9.9920555e+12
9.9920562e+12
9.9920565e+12
9.9920569e+12
9.9920616e+12
9.9920917e+12
9.9922826e+12
9.9010082e+12
9.9030939e+12
9.9039295e+12
9.9041735e+12
9.9042075e+12
9.9041821e+12
9.904148e+12
9.9041211e+12
9.9041039e+12
9.9040958e+12
9.9040958e+12
9.9041038e+12
9.904121e+12
9.9041479e+12
9.904182e+12
9.9042074e+12
9.9041733e+12
9.9039293e+12
9.9030936e+12
9.9010078e+12
9.734596e+12
9.7408975e+12
9.74305e+12
9.7436353e+12
9.7437167e+12
9.7436496e+12
9.7435625e+12
9.7434936e+12
9.7434493e+12
9.7434284e+12
9.7434283e+12
9.7434492e+12
9.7434934e+12
9.7435623e+12
9.7436493e+12
9.7437164e+12
9.7436349e+12
9.7430495e+12
9.7408969e+12
9.7345952e+12
9.5096529e+12
9.5215727e+12
9.525276e+12
9.5262348e+12
9.5263497e+12
9.5262197e+12
9.5260631e+12
9.5259404e+12
9.5258614e+12
9.5258239e+12
9.5258238e+12
9.5258612e+12
9.5259402e+12
9.5260627e+12
9.5262193e+12
9.5263491e+12
9.5262342e+12
9.5252753e+12
9.5215718e+12
9.5096517e+12
9.2410227e+12
9.259398e+12
9.2647702e+12
9.2661175e+12
9.2662366e+12
9.266021e+12
9.2657802e+12
9.2655944e+12
9.2654752e+12
9.2654187e+12
9.2654186e+12
9.265475e+12
9.2655941e+12
9.2657797e+12
9.2660204e+12
9.2662359e+12
9.2661166e+12
9.2647692e+12
9.2593969e+12
9.2410212e+12
8.9338775e+12
8.9605677e+12
8.967874e+12
8.9696062e+12
8.9697126e+12
8.9693965e+12
8.9690628e+12
8.9688086e+12
8.9686467e+12
8.9685699e+12
8.9685699e+12
8.9686464e+12
8.9688081e+12
8.9690622e+12
8.9693957e+12
8.9697117e+12
8.9696051e+12
8.9678728e+12
8.9605664e+12
8.933876e+12
8.5990238e+12
8.6344347e+12
8.6436919e+12
8.6457772e+12
8.645818e+12
8.6453793e+12
8.6449455e+12
8.6446209e+12
8.6444158e+12
8.6443187e+12
8.6443186e+12
8.6444155e+12
8.6446204e+12
8.6449448e+12
8.6453784e+12
8.645817e+12
8.6457761e+12
8.6436907e+12
8.6344334e+12
8.5990223e+12
8.241483e+12
8.2865443e+12
8.2980377e+12
8.300461e+12
8.3003944e+12
8.2998261e+12
8.2993019e+12
8.2989167e+12
8.2986733e+12
8.2985584e+12
8.2985582e+12
8.2986729e+12
8.2989161e+12
8.2993012e+12
8.2998252e+12
8.3003934e+12
8.3004599e+12
8.2980365e+12
8.2865432e+12
8.2414817e+12
7.8655407e+12
7.9205036e+12
7.9346056e+12
7.9373955e+12
7.9371228e+12
7.9363928e+12
7.9358133e+12
7.9353914e+12
7.9351207e+12
7.9349935e+12
7.9349934e+12
7.9351204e+12
7.9353908e+12
7.9358125e+12
7.9363919e+12
7.9371218e+12
7.9373945e+12
7.9346045e+12
7.9205026e+12
7.8655395e+12
7.4767445e+12
7.5414575e+12
7.5584691e+12
7.5617165e+12
7.5611249e+12
7.5601785e+12
7.5595972e+12
7.5591729e+12
7.5588869e+12
7.5587542e+12
7.5587541e+12
7.5588865e+12
7.5591723e+12
7.5595964e+12
7.5601777e+12
7.561124e+12
7.5617156e+12
7.5584681e+12
7.5414565e+12
7.4767435e+12
7.0783362e+12
7.1531965e+12
7.1732259e+12
7.1770599e+12
7.1762015e+12
7.1751172e+12
7.1745935e+12
7.1742083e+12
7.1739068e+12
7.1737761e+12
7.173776e+12
7.1739065e+12
7.1742077e+12
7.1745928e+12
7.1751164e+12
7.1762006e+12
7.177059e+12
7.173225e+12
7.1531956e+12
7.0783352e+12
6.6690569e+12
6.7552323e+12
6.7784277e+12
6.7830372e+12
6.7822729e+12
6.7812789e+12
6.7808743e+12
6.7805863e+12
6.7802062e+12
6.7800904e+12
6.7800903e+12
6.7802059e+12
6.7805857e+12
6.7808736e+12
6.7812781e+12
6.7822721e+12
6.7830364e+12
6.7784267e+12
6.7552314e+12
6.6690558e+12
6.243693e+12
6.3427002e+12
6.3696115e+12
6.3750923e+12
6.3749938e+12
6.3743345e+12
6.3741207e+12
6.3740006e+12
6.3737153e+12
6.3736052e+12
6.373605e+12
6.373715e+12
6.374e+12
6.37412e+12
6.3743337e+12
6.374993e+12
6.3750914e+12
6.3696104e+12
6.3426991e+12
6.2436917e+12
5.8111656e+12
5.9239056e+12
5.9560426e+12
5.9632872e+12
5.9643376e+12
5.9641167e+12
5.9640976e+12
5.963813e+12
5.9638914e+12
5.9638147e+12
5.9638146e+12
5.963891e+12
5.9638124e+12
5.9640969e+12
5.9641159e+12
5.9643367e+12
5.9632862e+12
5.9560414e+12
5.9239044e+12
5.8111642e+12
5.3700724e+12
5.4994258e+12
5.5392419e+12
5.5487933e+12
5.5513479e+12
5.5515363e+12
5.5517903e+12
5.5519973e+12
5.5527051e+12
5.5529528e+12
5.5529527e+12
5.5527047e+12
5.5519967e+12
5.5517895e+12
5.5515355e+12
5.551347e+12
5.5487922e+12
5.5392407e+12
5.4994246e+12
5.370071e+12
4.8729732e+12
5.0234814e+12
5.0732268e+12
5.0856192e+12
5.090452e+12
5.0913995e+12
5.0923966e+12
5.0934447e+12
5.095266e+12
5.0962839e+12
5.0962838e+12
5.0952657e+12
5.0934441e+12
5.0923959e+12
5.0913986e+12
5.090451e+12
5.0856181e+12
5.0732255e+12
5.0234801e+12
4.872972e+12
4.2828069e+12
4.4569773e+12
4.5178762e+12
4.5330692e+12
4.5413323e+12
4.5438932e+12
4.5464865e+12
4.5482038e+12
4.5522679e+12
4.5541783e+12
4.5541782e+12
4.5522676e+12
4.5482033e+12
4.5464858e+12
4.5438923e+12
4.5413313e+12
4.533068e+12
4.5178748e+12
4.456976e+12
4.2828059e+12
3.5976054e+12
3.7884424e+12
3.8603584e+12
3.8787317e+12
3.892188e+12
3.8972991e+12
3.9018155e+12
3.9037981e+12
3.910612e+12
3.9128849e+12
3.9128848e+12
3.9106118e+12
3.9037976e+12
3.9018149e+12
3.8972983e+12
3.892187e+12
3.8787305e+12
3.8603571e+12
3.7884413e+12
3.597605e+12
2.8843753e+12
3.0757757e+12
3.1590253e+12
3.1840475e+12
3.2040698e+12
3.2122253e+12
3.2178562e+12
3.219613e+12
3.2277078e+12
3.2296148e+12
3.2296147e+12
3.2277076e+12
3.2196127e+12
3.2178557e+12
3.2122247e+12
3.204069e+12
3.1840466e+12
3.1590244e+12
3.0757751e+12
2.8843757e+12
2.2093127e+12
2.3922294e+12
2.4879399e+12
2.5240757e+12
2.5495294e+12
2.5598738e+12
2.565861e+12
2.5671926e+12
2.5747543e+12
2.5758289e+12
2.5758288e+12
2.5747542e+12
2.5671924e+12
2.5658607e+12
2.5598735e+12
2.5495289e+12
2.5240752e+12
2.4879395e+12
2.3922295e+12
2.209314e+12
0
0
0
0
0
0
0
0
0
0
0
0
0
0
0
0
0
0
0
0
0
0
0
0
0
0
0
0
0
0
0
0
0
0
0
0
0
0
0
0
0
0
0
0
0
0
0
0
0
0
0
0
0
0
0
0
0
0
0
0
0
0
0
0
0
0
0
0
0
0
0
0
0
0
0
0
0
0
0
0
0
0
0
0
0
0
0
0
0
0
0
0
0
0
0
0
0
0
0
0
0
0
0
0
0
0
0
0
0
0
0
0
0
0
0
0
0
0
0
0
0
0
0
0
0
0
0
0
0
0
0
0
0
0
0
0
0
0
0
0
0
0
0
0
0
0
0
0
0
0
0
0
0
0
0
0
0
0
0
0
0
0
0
0
0
0
0
0
0
0
0
0
0
0
0
0
0
0
0
0
0
0
0
0
0
0
0
0
0
0
0
0
0
0
0
0
0
0
0
0
0
0
0
0
0
0
0
0
0
0
0
0
0
0
0
0
0
0
0
0
0
0
0
0
0
0
0
0
0
0
0
0
0
0
0
0
0
0
0
0
0
0
0
0
0
0
0
0
0
0
0
0
0
0
0
0
0
0
0
0
0
0
0
0
0
0
0
0
0
0
0
0
0
0
0
0
0
0
0
0
0
0
0
0
0
0
0
0
0
0
0
0
0
0
0
0
0
0
0
0
0
0
0
0
0
0
0
0
0
0
0
0
0
0
0
0
0
0
0
0
0
0
0
0
0
0
0
0
0
0
0
0
0
0
0
0
0
0
0
0
0
0
0
0
0
0
0
0
0
0
0
0
0
0
0
0
0
0
0
0
0
0
0
0
0
0
0
0
0
0
0
0
0
0
0
0
0
0
0
0
)
;

boundaryField
{
    Wall
    {
        type            zeroGradient;
    }
    frontAndBack
    {
        type            empty;
    }
    atmosphere
    {
        type            zeroGradient;
    }
}


// ************************************************************************* //
