/*--------------------------------*- C++ -*----------------------------------*\
| =========                 |                                                 |
| \\      /  F ield         | OpenFOAM: The Open Source CFD Toolbox           |
|  \\    /   O peration     | Version:  3.0.1                                 |
|   \\  /    A nd           | Web:      www.OpenFOAM.org                      |
|    \\/     M anipulation  |                                                 |
\*---------------------------------------------------------------------------*/
FoamFile
{
    version     2.0;
    format      ascii;
    class       volScalarField;
    location    "28";
    object      XOH;
}
// * * * * * * * * * * * * * * * * * * * * * * * * * * * * * * * * * * * * * //

dimensions      [0 0 0 0 0 0 0];

internalField   nonuniform List<scalar> 
800
(
0.17099467
0.17101003
0.1710126
0.17101294
0.17101301
0.17101307
0.17101315
0.17101322
0.17101326
0.17101329
0.17101329
0.17101326
0.17101321
0.17101315
0.17101308
0.17101301
0.17101294
0.1710126
0.17101003
0.17099467
0.16507939
0.16529693
0.16534462
0.16535463
0.16535545
0.16535464
0.16535399
0.16535371
0.16535366
0.16535367
0.16535367
0.16535366
0.16535371
0.16535399
0.16535464
0.16535545
0.16535462
0.16534461
0.16529692
0.16507938
0.15977354
0.16011583
0.16020902
0.16023052
0.16023384
0.16023322
0.16023238
0.16023198
0.1602319
0.16023191
0.16023191
0.16023189
0.16023198
0.16023238
0.16023322
0.16023383
0.16023051
0.16020901
0.16011582
0.15977351
0.1550465
0.1554972
0.15562694
0.15565715
0.15566223
0.15566163
0.1556606
0.15566006
0.15565991
0.15565991
0.15565991
0.15565991
0.15566005
0.15566059
0.15566163
0.15566223
0.15565714
0.15562693
0.15549719
0.15504647
0.15085628
0.15140152
0.15156355
0.15160084
0.15160689
0.1516059
0.15160449
0.15160369
0.15160344
0.1516034
0.1516034
0.15160344
0.15160369
0.15160448
0.15160589
0.15160688
0.15160083
0.15156354
0.15140151
0.15085626
0.1471338
0.1477632
0.14795709
0.14800105
0.14800757
0.14800584
0.14800387
0.14800269
0.14800226
0.14800213
0.14800213
0.14800226
0.14800269
0.14800386
0.14800584
0.14800756
0.14800104
0.14795708
0.14776318
0.14713378
0.14378495
0.14449701
0.1447234
0.14477447
0.14478127
0.14477856
0.14477585
0.14477418
0.1447735
0.14477327
0.14477327
0.1447735
0.14477417
0.14477584
0.14477855
0.14478127
0.14477446
0.14472339
0.144497
0.14378494
0.14069261
0.14149682
0.14175647
0.14181599
0.1418231
0.14181928
0.14181574
0.14181351
0.14181255
0.14181218
0.14181218
0.14181255
0.1418135
0.14181574
0.14181927
0.1418231
0.14181598
0.14175647
0.14149682
0.1406926
0.13771515
0.1386331
0.13892769
0.13899801
0.13900598
0.13900102
0.1389967
0.13899391
0.13899268
0.13899216
0.13899216
0.13899267
0.13899391
0.13899669
0.13900101
0.13900598
0.13899801
0.13892769
0.1386331
0.13771515
0.13468357
0.13574996
0.13608363
0.13616833
0.13617841
0.13617274
0.13616793
0.13616477
0.13616332
0.1361627
0.1361627
0.13616332
0.13616476
0.13616793
0.13617274
0.13617841
0.13616833
0.13608363
0.13574996
0.13468357
0.13139461
0.13265815
0.1330395
0.13314374
0.13315862
0.13315361
0.13314906
0.13314595
0.13314446
0.13314383
0.13314383
0.13314445
0.13314595
0.13314905
0.13315361
0.13315862
0.13314375
0.1330395
0.13265816
0.13139461
0.12760047
0.12912145
0.12956822
0.12969949
0.12972142
0.12971951
0.12971662
0.12971449
0.12971323
0.12971279
0.12971279
0.12971323
0.12971449
0.12971662
0.12971951
0.12972142
0.1296995
0.12956823
0.12912146
0.12760048
0.12299667
0.12484348
0.12538596
0.12555026
0.12558185
0.12558658
0.12558765
0.12558841
0.12558995
0.12559034
0.12559034
0.12558995
0.12558841
0.12558765
0.12558658
0.12558185
0.12555027
0.12538597
0.12484348
0.12299667
0.11720334
0.11945496
0.12012948
0.12033253
0.12038036
0.12039635
0.12040507
0.12041175
0.12041863
0.12042014
0.12042014
0.12041862
0.12041174
0.12040506
0.12039635
0.12038036
0.12033253
0.12012948
0.11945496
0.11720334
0.1098241
0.11256044
0.11340227
0.11365147
0.11372684
0.11376035
0.1137849
0.11380113
0.11381912
0.11382288
0.11382288
0.11381911
0.11380113
0.11378489
0.11376035
0.11372684
0.11365147
0.11340227
0.11256044
0.10982409
0.10044348
0.10372781
0.10477172
0.10507439
0.10518897
0.10525156
0.10530764
0.10533715
0.10537852
0.10538647
0.10538647
0.10537851
0.10533715
0.10530764
0.10525156
0.10518896
0.10507439
0.10477171
0.10372781
0.10044347
0.088681201
0.092535422
0.093820041
0.094175276
0.094334922
0.094456647
0.094565324
0.094610752
0.094696449
0.094711831
0.09471183
0.094696445
0.094610746
0.094565318
0.094456641
0.094334916
0.09417527
0.093820034
0.092535415
0.088681197
0.074186191
0.078639873
0.080198356
0.080585225
0.080796529
0.081003237
0.081170995
0.081230474
0.081430713
0.081454369
0.081454368
0.08143071
0.081230469
0.08117099
0.081003231
0.080796522
0.080585218
0.080198348
0.078639867
0.074186194
0.056985624
0.061875236
0.063715771
0.064085639
0.064517396
0.064783502
0.064982187
0.065046805
0.065362603
0.065390872
0.065390871
0.065362602
0.065046802
0.064982182
0.064783497
0.064517389
0.064085632
0.063715764
0.061875232
0.056985632
0.037548851
0.042515252
0.044593251
0.044886967
0.045836729
0.046075549
0.04624734
0.046301356
0.046615445
0.046640256
0.046640255
0.046615444
0.046301352
0.046247336
0.046075543
0.045836722
0.044886959
0.044593243
0.042515248
0.037548857
0.01518149
0.02029605
0.022683491
0.023979863
0.024632648
0.024760373
0.024852145
0.024881028
0.025058381
0.025071952
0.025071951
0.025058379
0.024881025
0.02485214
0.024760367
0.024632641
0.023979856
0.022683484
0.020296046
0.015181491
1e-150
1e-150
1e-150
1e-150
1e-150
1e-150
1e-150
1e-150
1e-150
1e-150
1e-150
1e-150
1e-150
1e-150
1e-150
1e-150
1e-150
1e-150
1e-150
1e-150
1e-150
1e-150
1e-150
1e-150
1e-150
1e-150
1e-150
1e-150
1e-150
1e-150
1e-150
1e-150
1e-150
1e-150
1e-150
1e-150
1e-150
1e-150
1e-150
1e-150
1e-150
1e-150
1e-150
1e-150
1e-150
1e-150
1e-150
1e-150
1e-150
1e-150
1e-150
1e-150
1e-150
1e-150
1e-150
1e-150
1e-150
1e-150
1e-150
1e-150
1e-150
1e-150
1e-150
1e-150
1e-150
1e-150
1e-150
1e-150
1e-150
1e-150
1e-150
1e-150
1e-150
1e-150
1e-150
1e-150
1e-150
1e-150
1e-150
1e-150
1e-150
1e-150
1e-150
1e-150
1e-150
1e-150
1e-150
1e-150
1e-150
1e-150
1e-150
1e-150
1e-150
1e-150
1e-150
1e-150
1e-150
1e-150
1e-150
1e-150
1e-150
1e-150
1e-150
1e-150
1e-150
1e-150
1e-150
1e-150
1e-150
1e-150
1e-150
1e-150
1e-150
1e-150
1e-150
1e-150
1e-150
1e-150
1e-150
1e-150
1e-150
1e-150
1e-150
1e-150
1e-150
1e-150
1e-150
1e-150
1e-150
1e-150
1e-150
1e-150
1e-150
1e-150
1e-150
1e-150
1e-150
1e-150
1e-150
1e-150
1e-150
1e-150
1e-150
1e-150
1e-150
1e-150
1e-150
1e-150
1e-150
1e-150
1e-150
1e-150
1e-150
1e-150
1e-150
1e-150
1e-150
1e-150
1e-150
1e-150
1e-150
1e-150
1e-150
1e-150
1e-150
1e-150
1e-150
1e-150
1e-150
1e-150
1e-150
1e-150
1e-150
1e-150
1e-150
1e-150
1e-150
1e-150
1e-150
1e-150
1e-150
1e-150
1e-150
1e-150
1e-150
1e-150
1e-150
1e-150
1e-150
1e-150
1e-150
1e-150
1e-150
1e-150
1e-150
1e-150
1e-150
1e-150
1e-150
1e-150
1e-150
1e-150
1e-150
1e-150
1e-150
1e-150
1e-150
1e-150
1e-150
1e-150
1e-150
1e-150
1e-150
1e-150
1e-150
1e-150
1e-150
1e-150
1e-150
1e-150
1e-150
1e-150
1e-150
1e-150
1e-150
1e-150
1e-150
1e-150
1e-150
1e-150
1e-150
1e-150
1e-150
1e-150
1e-150
1e-150
1e-150
1e-150
1e-150
1e-150
1e-150
1e-150
1e-150
1e-150
1e-150
1e-150
1e-150
1e-150
1e-150
1e-150
1e-150
1e-150
1e-150
1e-150
1e-150
1e-150
1e-150
1e-150
1e-150
1e-150
1e-150
1e-150
1e-150
1e-150
1e-150
1e-150
1e-150
1e-150
1e-150
1e-150
1e-150
1e-150
1e-150
1e-150
1e-150
1e-150
1e-150
1e-150
1e-150
1e-150
1e-150
1e-150
1e-150
1e-150
1e-150
1e-150
1e-150
1e-150
1e-150
1e-150
1e-150
1e-150
1e-150
1e-150
1e-150
1e-150
1e-150
1e-150
1e-150
1e-150
1e-150
1e-150
1e-150
1e-150
1e-150
1e-150
1e-150
1e-150
1e-150
1e-150
1e-150
1e-150
1e-150
1e-150
1e-150
1e-150
1e-150
1e-150
1e-150
1e-150
1e-150
1e-150
1e-150
1e-150
1e-150
1e-150
1e-150
1e-150
1e-150
1e-150
1e-150
1e-150
1e-150
1e-150
1e-150
1e-150
1e-150
1e-150
1e-150
1e-150
1e-150
1e-150
1e-150
1e-150
1e-150
1e-150
1e-150
1e-150
1e-150
1e-150
1e-150
1e-150
1e-150
1e-150
1e-150
1e-150
1e-150
1e-150
1e-150
1e-150
1e-150
1e-150
1e-150
1e-150
1e-150
1e-150
1e-150
1e-150
1e-150
1e-150
1e-150
1e-150
1e-150
1e-150
1e-150
1e-150
1e-150
1e-150
1e-150
1e-150
)
;

boundaryField
{
    Wall
    {
        type            zeroGradient;
    }
    frontAndBack
    {
        type            empty;
    }
    atmosphere
    {
        type            zeroGradient;
    }
}


// ************************************************************************* //
