/*--------------------------------*- C++ -*----------------------------------*\
| =========                 |                                                 |
| \\      /  F ield         | OpenFOAM: The Open Source CFD Toolbox           |
|  \\    /   O peration     | Version:  3.0.1                                 |
|   \\  /    A nd           | Web:      www.OpenFOAM.org                      |
|    \\/     M anipulation  |                                                 |
\*---------------------------------------------------------------------------*/
FoamFile
{
    version     2.0;
    format      ascii;
    class       volScalarField;
    location    "28";
    object      XW;
}
// * * * * * * * * * * * * * * * * * * * * * * * * * * * * * * * * * * * * * //

dimensions      [0 0 0 0 0 0 0];

internalField   nonuniform List<scalar> 
800
(
0.68109306
0.68112462
0.6811298
0.68113048
0.68113063
0.68113075
0.6811309
0.68113103
0.68113113
0.68113117
0.68113117
0.68113113
0.68113103
0.6811309
0.68113076
0.68113063
0.68113048
0.68112981
0.68112462
0.68109306
0.66745348
0.6679508
0.6680586
0.66808152
0.66808373
0.66808221
0.66808098
0.66808054
0.66808053
0.66808061
0.66808061
0.66808053
0.66808053
0.66808098
0.66808221
0.66808372
0.66808151
0.66805859
0.66795078
0.66745345
0.65456172
0.65537893
0.65559851
0.65564984
0.65565835
0.65565742
0.65565581
0.6556551
0.65565503
0.65565512
0.65565512
0.65565502
0.65565509
0.6556558
0.65565741
0.65565834
0.65564983
0.65559849
0.6553789
0.65456167
0.64236684
0.6434954
0.64381231
0.64388708
0.64390046
0.64389961
0.64389742
0.64389629
0.64389603
0.64389607
0.64389607
0.64389603
0.64389628
0.64389741
0.64389959
0.64390044
0.64388706
0.64381229
0.64349536
0.64236677
0.63078058
0.63221832
0.63262816
0.6327239
0.63274051
0.63273869
0.63273541
0.63273349
0.63273285
0.63273274
0.63273274
0.63273285
0.63273348
0.63273539
0.63273867
0.63274049
0.63272387
0.63262813
0.63221828
0.63078052
0.61963466
0.62138875
0.62189589
0.62201305
0.62203192
0.62202823
0.62202329
0.62202022
0.622019
0.62201862
0.62201862
0.62201899
0.6220202
0.62202327
0.62202821
0.6220319
0.62201303
0.62189585
0.62138871
0.6196346
0.60868083
0.61078232
0.61139561
0.61153664
0.61155733
0.61155106
0.61154399
0.61153943
0.61153746
0.61153674
0.61153674
0.61153746
0.61153942
0.61154397
0.61155104
0.61155731
0.61153661
0.61139558
0.61078228
0.60868078
0.59759409
0.60010315
0.6008368
0.60100605
0.60102835
0.60101902
0.60100952
0.6010033
0.60100048
0.60099936
0.60099936
0.60100047
0.60100328
0.6010095
0.601019
0.60102833
0.60100603
0.60083677
0.60010312
0.59759405
0.5859671
0.58897597
0.58985249
0.5900567
0.59008159
0.59006875
0.59005687
0.59004905
0.59004541
0.59004391
0.59004391
0.5900454
0.59004904
0.59005685
0.59006874
0.59008157
0.59005668
0.58985247
0.58897595
0.58596707
0.57329517
0.57693298
0.57798672
0.57823528
0.57826538
0.57824995
0.57823653
0.57822766
0.57822338
0.57822162
0.57822161
0.57822337
0.57822764
0.57823651
0.57824993
0.57826536
0.57823527
0.5779867
0.57693297
0.57329515
0.55895389
0.56339093
0.56467205
0.56497792
0.56501954
0.56500523
0.56499245
0.56498383
0.56497929
0.56497752
0.56497751
0.56497928
0.56498381
0.56499243
0.56500521
0.56501952
0.56497791
0.56467203
0.56339093
0.55895388
0.54217093
0.54762189
0.54919914
0.54958069
0.54964741
0.54964114
0.54963302
0.54962731
0.54962286
0.5496216
0.5496216
0.54962284
0.54962729
0.549633
0.54964112
0.54964739
0.54958067
0.54919912
0.54762188
0.54217091
0.52198709
0.52871706
0.53067419
0.53115587
0.53127113
0.53128293
0.53128588
0.53128879
0.53129137
0.53129237
0.53129237
0.53129136
0.53128877
0.53128586
0.53128291
0.53127111
0.53115585
0.53067417
0.52871705
0.52198707
0.4971831
0.50550766
0.50793951
0.50855467
0.50875096
0.50879376
0.50881816
0.50883885
0.50887436
0.50887793
0.50887792
0.50887434
0.50883882
0.50881813
0.50879373
0.50875093
0.50855465
0.50793949
0.50550763
0.49718306
0.46645818
0.47669497
0.47971935
0.48050086
0.48081145
0.48090261
0.48097072
0.48101973
0.48113446
0.48114436
0.48114436
0.48113444
0.4810197
0.48097069
0.48090257
0.48081141
0.48050083
0.47971932
0.47669493
0.46645812
0.42829156
0.4407169
0.44449662
0.44546373
0.44590942
0.44608108
0.44628641
0.44637527
0.44661995
0.44664312
0.44664311
0.44661994
0.44637524
0.44628637
0.44608105
0.44590938
0.44546369
0.44449657
0.44071685
0.4282915
0.38100925
0.39580455
0.40056149
0.40170058
0.40228256
0.40271089
0.40316494
0.40330244
0.40372541
0.40377255
0.40377254
0.40372539
0.40330242
0.40316491
0.40271085
0.40228252
0.40170053
0.40056144
0.39580449
0.38100921
0.32245275
0.34009205
0.34607064
0.34731061
0.34803511
0.34884937
0.34956442
0.34974791
0.35069787
0.35077354
0.35077353
0.35069786
0.34974789
0.34956439
0.34884933
0.34803507
0.34731056
0.34607059
0.340092
0.32245273
0.25150869
0.27166959
0.27907376
0.28026832
0.2819851
0.2830624
0.28389985
0.28410463
0.28557083
0.28566496
0.28566496
0.28557082
0.28410461
0.28389982
0.28306237
0.28198506
0.28026828
0.27907371
0.27166955
0.2515087
0.16835133
0.18980442
0.19864879
0.19960891
0.20379609
0.20477318
0.20549234
0.20566841
0.20710744
0.20719312
0.20719311
0.20710743
0.2056684
0.20549231
0.20477315
0.20379605
0.19960886
0.19864875
0.18980439
0.16835135
0.068755523
0.091692473
0.10233858
0.10810342
0.11100616
0.11152814
0.1119099
0.11200415
0.11281207
0.11285952
0.11285952
0.11281206
0.11200413
0.11190988
0.11152811
0.11100613
0.10810338
0.10233855
0.09169245
0.068755524
1e-150
1e-150
1e-150
1e-150
1e-150
1e-150
1e-150
1e-150
1e-150
1e-150
1e-150
1e-150
1e-150
1e-150
1e-150
1e-150
1e-150
1e-150
1e-150
1e-150
1e-150
1e-150
1e-150
1e-150
1e-150
1e-150
1e-150
1e-150
1e-150
1e-150
1e-150
1e-150
1e-150
1e-150
1e-150
1e-150
1e-150
1e-150
1e-150
1e-150
1e-150
1e-150
1e-150
1e-150
1e-150
1e-150
1e-150
1e-150
1e-150
1e-150
1e-150
1e-150
1e-150
1e-150
1e-150
1e-150
1e-150
1e-150
1e-150
1e-150
1e-150
1e-150
1e-150
1e-150
1e-150
1e-150
1e-150
1e-150
1e-150
1e-150
1e-150
1e-150
1e-150
1e-150
1e-150
1e-150
1e-150
1e-150
1e-150
1e-150
1e-150
1e-150
1e-150
1e-150
1e-150
1e-150
1e-150
1e-150
1e-150
1e-150
1e-150
1e-150
1e-150
1e-150
1e-150
1e-150
1e-150
1e-150
1e-150
1e-150
1e-150
1e-150
1e-150
1e-150
1e-150
1e-150
1e-150
1e-150
1e-150
1e-150
1e-150
1e-150
1e-150
1e-150
1e-150
1e-150
1e-150
1e-150
1e-150
1e-150
1e-150
1e-150
1e-150
1e-150
1e-150
1e-150
1e-150
1e-150
1e-150
1e-150
1e-150
1e-150
1e-150
1e-150
1e-150
1e-150
1e-150
1e-150
1e-150
1e-150
1e-150
1e-150
1e-150
1e-150
1e-150
1e-150
1e-150
1e-150
1e-150
1e-150
1e-150
1e-150
1e-150
1e-150
1e-150
1e-150
1e-150
1e-150
1e-150
1e-150
1e-150
1e-150
1e-150
1e-150
1e-150
1e-150
1e-150
1e-150
1e-150
1e-150
1e-150
1e-150
1e-150
1e-150
1e-150
1e-150
1e-150
1e-150
1e-150
1e-150
1e-150
1e-150
1e-150
1e-150
1e-150
1e-150
1e-150
1e-150
1e-150
1e-150
1e-150
1e-150
1e-150
1e-150
1e-150
1e-150
1e-150
1e-150
1e-150
1e-150
1e-150
1e-150
1e-150
1e-150
1e-150
1e-150
1e-150
1e-150
1e-150
1e-150
1e-150
1e-150
1e-150
1e-150
1e-150
1e-150
1e-150
1e-150
1e-150
1e-150
1e-150
1e-150
1e-150
1e-150
1e-150
1e-150
1e-150
1e-150
1e-150
1e-150
1e-150
1e-150
1e-150
1e-150
1e-150
1e-150
1e-150
1e-150
1e-150
1e-150
1e-150
1e-150
1e-150
1e-150
1e-150
1e-150
1e-150
1e-150
1e-150
1e-150
1e-150
1e-150
1e-150
1e-150
1e-150
1e-150
1e-150
1e-150
1e-150
1e-150
1e-150
1e-150
1e-150
1e-150
1e-150
1e-150
1e-150
1e-150
1e-150
1e-150
1e-150
1e-150
1e-150
1e-150
1e-150
1e-150
1e-150
1e-150
1e-150
1e-150
1e-150
1e-150
1e-150
1e-150
1e-150
1e-150
1e-150
1e-150
1e-150
1e-150
1e-150
1e-150
1e-150
1e-150
1e-150
1e-150
1e-150
1e-150
1e-150
1e-150
1e-150
1e-150
1e-150
1e-150
1e-150
1e-150
1e-150
1e-150
1e-150
1e-150
1e-150
1e-150
1e-150
1e-150
1e-150
1e-150
1e-150
1e-150
1e-150
1e-150
1e-150
1e-150
1e-150
1e-150
1e-150
1e-150
1e-150
1e-150
1e-150
1e-150
1e-150
1e-150
1e-150
1e-150
1e-150
1e-150
1e-150
1e-150
1e-150
1e-150
1e-150
1e-150
1e-150
1e-150
1e-150
1e-150
1e-150
1e-150
1e-150
1e-150
1e-150
1e-150
1e-150
1e-150
1e-150
1e-150
1e-150
1e-150
1e-150
1e-150
1e-150
1e-150
1e-150
1e-150
1e-150
1e-150
1e-150
1e-150
1e-150
1e-150
1e-150
1e-150
1e-150
1e-150
1e-150
1e-150
1e-150
1e-150
1e-150
1e-150
)
;

boundaryField
{
    Wall
    {
        type            zeroGradient;
    }
    frontAndBack
    {
        type            empty;
    }
    atmosphere
    {
        type            zeroGradient;
    }
}


// ************************************************************************* //
