/*--------------------------------*- C++ -*----------------------------------*\
| =========                 |                                                 |
| \\      /  F ield         | OpenFOAM: The Open Source CFD Toolbox           |
|  \\    /   O peration     | Version:  3.0.1                                 |
|   \\  /    A nd           | Web:      www.OpenFOAM.org                      |
|    \\/     M anipulation  |                                                 |
\*---------------------------------------------------------------------------*/
FoamFile
{
    version     2.0;
    format      ascii;
    class       volScalarField;
    location    "14";
    object      alpha.gas;
}
// * * * * * * * * * * * * * * * * * * * * * * * * * * * * * * * * * * * * * //

dimensions      [0 0 0 0 0 0 0];

internalField   nonuniform List<scalar> 
800
(
1.9923201e-28
2.3355863e-25
4.4936696e-22
8.7268207e-22
1.7122634e-24
1.0797606e-21
9.3640475e-22
5.4390196e-23
4.1915455e-26
1.003303e-29
3.0671097e-23
2.9922966e-23
7.8133693e-26
6.9500508e-23
6.8722775e-23
9.9825865e-28
3.0786892e-32
5.2791535e-36
1.0424198e-39
1.9371356e-43
5.5829333e-12
1.2629468e-12
9.320536e-11
3.2959126e-11
1.2103731e-12
4.3998423e-11
3.4485946e-11
4.1553978e-11
8.4501386e-11
2.1212321e-10
1.0653447e-10
1.0614144e-10
5.7431698e-11
3.4018807e-11
3.2211345e-11
6.284578e-12
8.3810746e-17
4.7375255e-14
1.7931316e-11
2.4333297e-14
0.00046037001
0.00044246741
0.00044164295
0.00044212311
0.00044251255
0.00044281945
0.00044306386
0.00044325269
0.00044338105
0.00044344569
0.00044344557
0.00044338092
0.00044325244
0.00044306349
0.00044281897
0.000442512
0.00044212239
0.0004416422
0.00044246668
0.00046036933
0.0040507498
0.0037518151
0.003725851
0.0037275876
0.00373287
0.0037379683
0.00374245
0.0037458248
0.0037480982
0.0037492225
0.0037492217
0.0037480961
0.0037458212
0.0037424449
0.0037379616
0.0037328625
0.0037275788
0.0037258423
0.0037518056
0.0040507377
0.054422289
0.047329429
0.046533975
0.046461941
0.046562617
0.046695604
0.046805519
0.046897281
0.046955
0.046984753
0.046984737
0.046954958
0.046897206
0.046805414
0.046695467
0.04656246
0.046461762
0.04653378
0.047329225
0.054422014
0.53993182
0.50675136
0.50256414
0.50227791
0.50283212
0.50354794
0.50411982
0.50459288
0.50488578
0.50504278
0.5050427
0.50488559
0.50459254
0.50411932
0.50354729
0.50283135
0.502277
0.50256321
0.50675037
0.5399307
0.9494359
0.94006136
0.93873024
0.93872852
0.93893174
0.93916182
0.93933856
0.93947733
0.9395629
0.93960992
0.9396099
0.93956286
0.93947724
0.93933843
0.93916165
0.93893153
0.93872826
0.93872999
0.94006109
0.94943564
0.99907146
0.99863586
0.9985456
0.99855169
0.99856678
0.99858124
0.99859176
0.99859903
0.9986035
0.99860594
0.99860594
0.9986035
0.99859903
0.99859176
0.99858123
0.99856678
0.99855168
0.99854559
0.99863585
0.99907146
0.99999838
0.99999581
0.99999494
0.99999497
0.99999511
0.99999524
0.99999534
0.99999541
0.99999545
0.99999547
0.99999547
0.99999545
0.99999541
0.99999534
0.99999524
0.99999511
0.99999497
0.99999494
0.99999581
0.99999838
1
1
1
1
1
1
1
1
1
1
1
1
1
1
1
1
1
1
1
1
1
1
1
1
1
1
1
1
1
1
1
1
1
1
1
1
1
1
1
1
1
1
1
1
1
1
1
1
1
1
1
1
1
1
1
1
1
1
1
1
1
1
1
1
1
1
1
1
1
1
1
1
1
1
1
1
1
1
1
1
1
1
1
1
1
1
1
1
1
1
1
1
1
1
1
1
1
1
1
1
1
1
1
1
1
1
1
1
1
1
1
1
1
1
1
1
1
1
1
1
1
1
1
1
1
1
1
1
1
1
1
1
1
1
1
1
1
1
1
1
1
1
1
1
1
1
1
1
1
1
1
1
1
1
1
1
1
1
1
1
1
1
1
1
1
1
1
1
1
1
1
1
1
1
1
1
1
1
1
1
1
1
1
1
1
1
1
1
1
1
1
1
1
1
1
1
1
1
1
1
1
1
1
1
1
1
1
1
1
1
1
1
1
1
1
1
1
1
1
1
1
1
1
1
1
1
1
1
1
1
1
1
1
1
1
1
1
1
1
1
1
1
1
1
1
1
1
1
1
1
1
1
1
1
1
1
1
1
1
1
1
1
1
1
1
1
1
1
1
1
1
1
1
1
1
1
1
1
1
1
1
1
1
1
1
1
1
1
1
1
1
1
1
1
1
1
1
1
1
1
1
1
1
1
1
1
1
1
1
1
1
1
1
1
1
1
1
1
1
1
1
1
1
1
1
1
1
1
1
1
1
1
1
1
1
1
1
1
1
1
1
1
1
1
1
1
1
1
1
1
1
1
1
1
1
1
1
1
1
1
1
1
1
1
1
1
1
1
1
1
1
1
1
1
1
1
1
1
1
1
1
1
1
1
1
1
1
1
1
1
1
1
1
1
1
1
1
1
1
1
1
1
1
1
1
1
1
1
1
1
1
1
1
1
1
1
1
1
1
1
1
1
1
1
1
1
1
1
1
1
1
1
1
1
1
1
1
1
1
1
1
1
1
1
1
1
1
1
1
1
1
1
1
1
1
1
1
1
1
1
1
1
1
1
1
1
1
1
1
1
1
1
1
1
1
1
1
1
1
1
1
1
1
1
1
1
1
1
1
1
1
1
1
1
1
1
1
1
1
1
1
1
1
1
1
1
1
1
1
1
1
1
1
1
1
1
1
1
1
1
1
1
1
1
1
1
1
1
1
1
1
1
1
1
1
1
1
1
1
1
1
1
1
1
1
1
1
1
1
1
1
1
1
1
1
1
1
1
1
1
1
1
1
1
1
1
1
1
1
1
1
1
1
1
1
1
1
1
1
1
1
1
1
1
1
1
1
1
1
1
1
1
1
1
1
1
1
1
1
1
1
1
1
1
1
1
1
1
1
1
1
1
1
1
1
1
1
1
1
1
)
;

boundaryField
{
    Wall
    {
        type            zeroGradient;
    }
    frontAndBack
    {
        type            empty;
    }
    atmosphere
    {
        type            zeroGradient;
    }
}


// ************************************************************************* //
