/*--------------------------------*- C++ -*----------------------------------*\
| =========                 |                                                 |
| \\      /  F ield         | OpenFOAM: The Open Source CFD Toolbox           |
|  \\    /   O peration     | Version:  3.0.1                                 |
|   \\  /    A nd           | Web:      www.OpenFOAM.org                      |
|    \\/     M anipulation  |                                                 |
\*---------------------------------------------------------------------------*/
FoamFile
{
    version     2.0;
    format      ascii;
    class       volScalarField;
    location    "14";
    object      M0;
}
// * * * * * * * * * * * * * * * * * * * * * * * * * * * * * * * * * * * * * //

dimensions      [0 0 0 0 0 0 0];

internalField   nonuniform List<scalar> 
800
(
2.2200395e+12
2.2200709e+12
2.2200923e+12
2.2201042e+12
2.220113e+12
2.22012e+12
2.2201253e+12
2.2201292e+12
2.2201317e+12
2.2201329e+12
2.2201329e+12
2.2201317e+12
2.2201292e+12
2.2201253e+12
2.22012e+12
2.220113e+12
2.2201042e+12
2.2200923e+12
2.2200709e+12
2.2200395e+12
2.4835797e+12
2.4769964e+12
2.4763223e+12
2.4761385e+12
2.4759786e+12
2.4758447e+12
2.4757383e+12
2.4756613e+12
2.4756123e+12
2.4755884e+12
2.4755884e+12
2.4756123e+12
2.4756613e+12
2.4757383e+12
2.4758447e+12
2.4759786e+12
2.4761385e+12
2.4763222e+12
2.4769963e+12
2.4835797e+12
2.7222975e+12
2.7144615e+12
2.7117109e+12
2.7113317e+12
2.711034e+12
2.7107958e+12
2.7106133e+12
2.7104835e+12
2.7104012e+12
2.7103612e+12
2.7103612e+12
2.7104012e+12
2.7104835e+12
2.7106133e+12
2.7107958e+12
2.711034e+12
2.7113317e+12
2.7117109e+12
2.7144615e+12
2.7222975e+12
2.8036048e+12
2.7956754e+12
2.794234e+12
2.7936911e+12
2.7932809e+12
2.7929646e+12
2.7927295e+12
2.7925649e+12
2.7924608e+12
2.7924104e+12
2.7924104e+12
2.7924608e+12
2.792565e+12
2.7927297e+12
2.7929647e+12
2.793281e+12
2.7936912e+12
2.7942341e+12
2.7956755e+12
2.803605e+12
2.8135874e+12
2.8064467e+12
2.8059233e+12
2.8052174e+12
2.8046015e+12
2.8041168e+12
2.803758e+12
2.8035068e+12
2.8033478e+12
2.8032707e+12
2.8032707e+12
2.803348e+12
2.803507e+12
2.8037583e+12
2.8041171e+12
2.8046018e+12
2.8052178e+12
2.8059237e+12
2.8064471e+12
2.8135879e+12
2.7412847e+12
2.7761862e+12
2.7835293e+12
2.7841631e+12
2.7834267e+12
2.7825198e+12
2.7818179e+12
2.7812529e+12
2.7809041e+12
2.780729e+12
2.7807291e+12
2.7809043e+12
2.7812533e+12
2.7818184e+12
2.7825204e+12
2.7834274e+12
2.7841638e+12
2.7835301e+12
2.776187e+12
2.7412859e+12
2.0457155e+12
2.1614914e+12
2.1961335e+12
2.2035771e+12
2.2038414e+12
2.2024375e+12
2.2011964e+12
2.200252e+12
2.1996537e+12
2.1992943e+12
2.1992944e+12
2.1996538e+12
2.2002521e+12
2.2011969e+12
2.202438e+12
2.2038422e+12
2.2035784e+12
2.1961345e+12
2.1614925e+12
2.0457174e+12
1.0959887e+12
1.3009289e+12
1.3761426e+12
1.3964477e+12
1.3985598e+12
1.3962385e+12
1.3933971e+12
1.3918291e+12
1.3906986e+12
1.3899994e+12
1.3899992e+12
1.3906984e+12
1.3918283e+12
1.393397e+12
1.3962387e+12
1.3985601e+12
1.3964491e+12
1.3761428e+12
1.3009299e+12
1.0959908e+12
3.8072908e+11
6.2825502e+11
7.2550822e+11
7.5639023e+11
7.6042447e+11
7.5672196e+11
7.5175074e+11
7.4869737e+11
7.4658173e+11
7.4545639e+11
7.4545581e+11
7.4658124e+11
7.4869568e+11
7.5174978e+11
7.567217e+11
7.6042399e+11
7.5639078e+11
7.2550765e+11
6.2825512e+11
3.8073041e+11
8.4474272e+10
2.5014885e+11
3.354555e+11
3.6811204e+11
3.7463298e+11
3.7190551e+11
3.6709274e+11
3.6366797e+11
3.6129812e+11
3.6010152e+11
3.6010096e+11
3.6129747e+11
3.6366625e+11
3.6709153e+11
3.7190491e+11
3.7463198e+11
3.6811184e+11
3.3545468e+11
2.5014838e+11
8.4474698e+10
1.2927092e+10
8.4400098e+10
1.3930607e+11
1.6476463e+11
1.7162927e+11
1.7067575e+11
1.6757888e+11
1.6504644e+11
1.6326307e+11
1.6237391e+11
1.6237355e+11
1.6326248e+11
1.6504521e+11
1.6757786e+11
1.7067512e+11
1.7162824e+11
1.647641e+11
1.3930543e+11
8.4399627e+10
1.2927171e+10
1.5011574e+09
2.4828187e+10
5.2876793e+10
6.8632198e+10
7.3866713e+10
7.3953577e+10
7.2441208e+10
7.1007424e+10
6.9972878e+10
6.9457467e+10
6.945728e+10
6.9972461e+10
7.1006705e+10
7.244053e+10
7.3953088e+10
7.3865975e+10
6.8631712e+10
5.2876413e+10
2.4827926e+10
1.5011666e+09
1.4420467e+08
6.5599438e+09
1.8595815e+10
2.6791444e+10
2.9985744e+10
3.0356019e+10
2.9762184e+10
2.9089356e+10
2.8589042e+10
2.8338743e+10
2.8338654e+10
2.8588799e+10
2.9088986e+10
2.9761797e+10
3.0355703e+10
2.9985324e+10
2.6791127e+10
1.8595624e+10
6.5598397e+09
1.4420536e+08
12292334
1.6000477e+09
6.1223167e+09
9.8464859e+09
1.1502231e+10
1.1812619e+10
1.1624183e+10
1.135147e+10
1.1140755e+10
1.1034519e+10
1.1034479e+10
1.1140633e+10
1.1351298e+10
1.1623987e+10
1.1812441e+10
1.1502027e+10
9.8463198e+09
6.1222318e+09
1.6000139e+09
12292341
983391.11
3.6801104e+08
1.9013139e+09
3.4184505e+09
4.1742006e+09
4.3584014e+09
4.3133605e+09
4.2158071e+09
4.1365449e+09
4.096103e+09
4.0960856e+09
4.1364905e+09
4.2157317e+09
4.31327e+09
4.3583122e+09
4.1741131e+09
3.4183758e+09
1.9012798e+09
3.6800157e+08
983383.91
77239.589
80896923
5.5984701e+08
1.1239145e+09
1.4347915e+09
1.5251284e+09
1.5199593e+09
1.4888505e+09
1.4618156e+09
1.4477807e+09
1.4477736e+09
1.4617934e+09
1.4888195e+09
1.519921e+09
1.5250882e+09
1.4347569e+09
1.1238846e+09
5.5983455e+08
80894492
77238.095
6151.2903
17111350
1.5682158e+08
3.5064919e+08
4.6772216e+08
5.0646365e+08
5.0866355e+08
4.9980889e+08
4.9136931e+08
4.8688241e+08
4.8687962e+08
4.9136085e+08
4.9979689e+08
5.0864849e+08
5.0644719e+08
4.6770927e+08
3.5063831e+08
1.5681742e+08
17110767
6151.0765
503.92158
3490774.7
41879524
1.0399647e+08
1.4481262e+08
1.5976219e+08
1.6175592e+08
1.5952703e+08
1.5710197e+08
1.5577137e+08
1.5577035e+08
1.5709895e+08
1.5952265e+08
1.6175039e+08
1.5975603e+08
1.4480802e+08
1.039928e+08
41878234
3490642.5
503.89607
42.317988
686857.6
10679118
29369798
42652768
47933766
48928844
48446985
47803638
47435888
47435542
47802620
48445479
48926940
47931637
42651197
29368642
10678742
686828.86
42.315277
3.5926319
130263.25
2603658.2
7911287.9
11971836
13699770
14097314
14015425
13857766
13762731
13762619
13857441
14014936
14096699
13699085
11971324
7910943.8
2603555.2
130257.28
3.5923641
0.3036233
23797
607726.24
2036066.8
3207927.6
3736127.9
3874938.1
3867980.3
3832383
3809367.9
3809333.7
3832284.4
3867830.4
3874750.2
3735921.3
3207768.9
2035969.4
607699.35
23795.809
0.30359828
0.025240115
4186.656
135982.31
501505.11
822098.31
973953.46
1017882.7
1020025.6
1012676.3
1007446.5
1007436.6
1012648.1
1019982.2
1017828.4
973894.57
822051.8
501478.76
135975.65
4186.427
0.025237887
0.0020481142
709.47443
29207.995
118422.36
201853.32
243134.52
255981.02
257476.61
256113.25
254997.93
254995.25
256105.53
257464.66
255966.1
243118.55
201840.43
118415.53
29206.423
709.43211
0.0020479241
0.00016153633
115.86678
6030.77
26852.845
47568.51
58226.902
61740.219
62319.984
62102.073
61879.16
61878.462
62100.064
62316.859
61736.322
58222.768
47565.13
26851.142
6030.4151
115.85928
0.00016152071
1.2358067e-05
18.250238
1198.6824
5856.6177
10777.216
13400.618
14306.6
14488.867
14462.486
14420.893
14420.719
14461.986
14488.088
14305.629
13399.595
10776.374
5856.2095
1198.6054
18.248963
1.2356828e-05
9.1639581e-07
2.7750383
229.66593
1230.4883
2351.2419
2968.7618
3190.3874
3241.0963
3240.2213
3233.0356
3232.9938
3240.102
3240.9104
3190.1558
2968.5192
2351.0419
1230.3941
229.64985
2.77483
9.1630083e-07
6.5869556e-08
0.40775861
42.47521
249.41637
494.71814
634.1107
685.78323
698.71891
699.52871
698.39886
698.38928
699.50142
698.67637
685.73027
634.0554
494.67267
249.39545
42.471972
0.40772577
6.5862522e-08
4.5914913e-09
0.057960488
7.5925201
48.842621
100.53539
130.78144
142.30757
145.38981
145.74932
145.59385
145.59175
145.74332
145.38045
142.29591
130.76929
100.52545
48.838147
7.591889
0.057955469
4.5909827e-09
3.1062965e-10
0.0079784841
1.3133761
9.2528592
19.759513
26.081486
28.548971
29.242687
29.350305
29.333603
29.333161
29.349034
29.240701
28.546496
26.07891
19.757422
9.2519373
1.3132566
0.0079777385
3.1055224e-10
2.0440531e-11
0.0010646994
0.22012073
1.6978526
3.7608922
5.0361698
5.5444771
5.6930674
5.7203436
5.719666
5.7195762
5.7200835
5.6926603
5.5439699
5.0356415
3.760467
1.6976687
0.22009878
0.0010645913
2.0401778e-11
1.3179381e-12
0.00013787933
0.035784249
0.30212304
0.69405046
0.94273839
1.0437314
1.0741841
1.0804314
1.0807441
1.0807265
1.08038
1.0741035
1.0436308
0.94263349
0.69396673
0.30208752
0.035780324
0.00013786399
1.3027759e-12
8.5006124e-14
1.7344786e-05
0.0056486836
0.052192834
0.1243293
0.17128221
0.19067384
0.19666975
0.19800004
0.19813052
0.19812715
0.1979902
0.19665425
0.19065449
0.171262
0.1243133
0.052186179
0.0056480008
1.7342655e-05
8.0930032e-14
5.7240819e-15
2.1215422e-06
0.0008666983
0.0087626761
0.021642398
0.030237062
0.033841666
0.034979465
0.035246895
0.035281956
0.035281328
0.035245067
0.034976579
0.033838055
0.030233281
0.02163943
0.0087614644
0.00086658253
2.121251e-06
4.8950335e-15
4.2535086e-16
2.5254863e-07
0.00012938133
0.0014311702
0.0036645988
0.005191827
0.0058415053
0.0060501407
0.0061013743
0.00610931
0.0061091963
0.0061010437
0.0060496181
0.0058408501
0.0051911397
0.0036640631
0.0014309557
0.00012936219
2.5250957e-07
2.8851449e-16
3.5773357e-17
2.9283897e-08
1.8808492e-05
0.00022760413
0.00060415801
0.00086790903
0.00098160485
0.0010186525
0.0010280652
0.0010296902
0.00102967
0.0010280071
0.0010185605
0.00098148921
0.00086778761
0.00060406384
0.00022756714
1.8805409e-05
2.9278754e-08
1.6584225e-17
3.2868885e-18
3.3102874e-09
2.6649555e-06
3.5276579e-05
9.7066146e-05
0.00014138295
0.00016072683
0.00016710919
0.00016877508
0.00016908528
0.00016908182
0.00016876512
0.0001670934
0.00016070694
0.00014136204
9.7050021e-05
3.5270367e-05
2.6644712e-06
3.3096239e-09
9.3041318e-19
3.0926274e-19
3.6509073e-10
3.6832813e-07
5.3330125e-06
1.5210595e-05
2.2462661e-05
2.5665942e-05
2.6734342e-05
2.7019333e-05
2.7075416e-05
2.7074839e-05
2.7017668e-05
2.6731702e-05
2.5662604e-05
2.2459151e-05
1.52079e-05
5.3319954e-06
3.6825399e-07
3.6500693e-10
5.0984057e-20
2.8277882e-20
3.9315419e-11
4.9696483e-08
7.8701191e-07
2.3266627e-06
3.4835195e-06
4.0003567e-06
4.1743856e-06
4.2216368e-06
4.2313323e-06
4.2312383e-06
4.221365e-06
4.173955e-06
3.99981e-06
3.4829442e-06
2.3262229e-06
7.8684947e-07
4.9685424e-08
3.9305063e-11
2.7307507e-21
2.4423509e-21
4.1368005e-12
6.550613e-09
1.1345858e-07
3.4766282e-07
5.2771604e-07
6.0904383e-07
6.3666073e-07
6.4426942e-07
6.4588208e-07
6.4586714e-07
6.4422612e-07
6.3659203e-07
6.0895635e-07
5.2762395e-07
3.4759276e-07
1.1343326e-07
6.549005e-09
4.1355504e-12
1.4366665e-22
1.9737345e-22
4.2560255e-13
8.4412742e-10
1.5990017e-08
5.0784606e-08
7.8148656e-08
9.0640797e-08
9.491513e-08
9.610717e-08
9.6366357e-08
9.6364036e-08
9.6100421e-08
9.490441e-08
9.0627111e-08
7.8134241e-08
5.0773712e-08
1.5986165e-08
8.4389952e-10
4.254552e-13
7.6054775e-24
)
;

boundaryField
{
    Wall
    {
        type            zeroGradient;
    }
    frontAndBack
    {
        type            empty;
    }
    atmosphere
    {
        type            zeroGradient;
    }
}


// ************************************************************************* //
