/*--------------------------------*- C++ -*----------------------------------*\
| =========                 |                                                 |
| \\      /  F ield         | OpenFOAM: The Open Source CFD Toolbox           |
|  \\    /   O peration     | Version:  3.0.1                                 |
|   \\  /    A nd           | Web:      www.OpenFOAM.org                      |
|    \\/     M anipulation  |                                                 |
\*---------------------------------------------------------------------------*/
FoamFile
{
    version     2.0;
    format      ascii;
    class       volScalarField;
    location    "14";
    object      M1;
}
// * * * * * * * * * * * * * * * * * * * * * * * * * * * * * * * * * * * * * //

dimensions      [0 0 0 0 0 0 0];

internalField   nonuniform List<scalar> 
800
(
0.77799605
0.77799291
0.77799077
0.77798958
0.7779887
0.777988
0.77798747
0.77798708
0.77798683
0.77798671
0.77798671
0.77798683
0.77798708
0.77798747
0.777988
0.7779887
0.77798958
0.77799077
0.77799291
0.77799605
0.75164203
0.75230036
0.75236777
0.75238615
0.75240214
0.75241553
0.75242617
0.75243387
0.75243877
0.75244116
0.75244116
0.75243877
0.75243387
0.75242617
0.75241553
0.75240214
0.75238615
0.75236778
0.75230037
0.75164203
0.70108604
0.70214546
0.70247638
0.70252211
0.70255493
0.70258089
0.7026005
0.70261422
0.70262282
0.70262697
0.70262697
0.70262282
0.70261422
0.7026005
0.70258089
0.70255492
0.70252211
0.70247638
0.70214546
0.70108604
0.63519897
0.63698484
0.63724091
0.63730717
0.63735083
0.63738248
0.63740427
0.63741837
0.63742678
0.63743071
0.63743071
0.63742678
0.63741837
0.63740427
0.63738248
0.63735083
0.63730717
0.63724092
0.63698485
0.63519897
0.53172574
0.53598716
0.5363249
0.53643506
0.53649126
0.53652378
0.53653978
0.53654698
0.53655008
0.53655117
0.53655118
0.53655008
0.53654698
0.53653979
0.5365238
0.53649128
0.53643509
0.53632493
0.53598719
0.53172576
0.35704195
0.36311109
0.36369377
0.36390803
0.36398097
0.36399933
0.36399807
0.36398469
0.36397529
0.36396969
0.36396969
0.36397529
0.3639847
0.36399809
0.36399937
0.36398102
0.36390808
0.36369383
0.36311116
0.35704201
0.19410571
0.20195498
0.20320006
0.20345998
0.2034761
0.20341649
0.2033613
0.20330919
0.20327734
0.20325565
0.20325566
0.20327735
0.2033092
0.20336134
0.20341654
0.20347618
0.2034601
0.20320016
0.20195509
0.19410582
0.080307881
0.090862387
0.093256724
0.093551439
0.093406149
0.093206115
0.09303677
0.092940091
0.092875377
0.092835038
0.092835028
0.092875374
0.092940062
0.093036783
0.093206162
0.093406217
0.093551567
0.093256799
0.09086249
0.080307998
0.022543374
0.034005707
0.037247428
0.03786766
0.037705936
0.037396486
0.037113822
0.036942092
0.036830641
0.036771929
0.036771907
0.036830625
0.036942034
0.037113804
0.037396509
0.037705965
0.037867741
0.037247462
0.034005757
0.022543439
0.0041724738
0.01063639
0.01329491
0.0140797
0.014101562
0.013897731
0.013669431
0.013514592
0.013412028
0.0133603
0.013360282
0.013412011
0.013514542
0.013669405
0.013897734
0.014101562
0.014079734
0.013294918
0.010636402
0.0041724922
0.00054315418
0.0028243218
0.004293784
0.0048825087
0.0049881953
0.0049091319
0.0047884461
0.0046975211
0.0046354111
0.0046043688
0.0046043592
0.0046353985
0.0046974909
0.0047884268
0.0049091275
0.0049881857
0.0048825173
0.0042937839
0.0028243216
0.0005431575
5.4032418e-05
0.00065086191
0.00127088
0.0015917315
0.0016812727
0.0016634338
0.0016144699
0.0015732499
0.0015441868
0.0015296595
0.0015296553
0.0015441798
0.0015732355
0.001614459
0.0016634292
0.0016812646
0.0015917314
0.0012708788
0.00065086051
5.4032846e-05
4.4194839e-06
0.00013359871
0.00034946724
0.00049113257
0.00054187835
0.00054234357
0.00052599554
0.00051030313
0.00049887484
0.00049314203
0.00049314044
0.00049887147
0.00051029713
0.00052599038
0.00054234065
0.00054187389
0.0004911311
0.00034946645
0.00013359807
4.4195295e-06
3.1404113e-07
2.5101822e-05
9.0488365e-05
0.00014435094
0.00016746425
0.00017036396
0.00016576531
0.0001605248
0.00015657056
0.00015457573
0.00015457516
0.00015656915
0.00016052254
0.00016576312
0.00017036246
0.00016746228
0.00014434994
9.0488009e-05
2.5101631e-05
3.1404519e-07
2.0151498e-08
4.4289448e-06
2.2330883e-05
4.0645327e-05
4.9742815e-05
5.1601989e-05
5.0528785e-05
4.8957171e-05
4.7720443e-05
4.7091428e-05
4.7091239e-05
4.7719909e-05
4.8956374e-05
5.0527936e-05
5.1601312e-05
4.974207e-05
4.0644868e-05
2.2330745e-05
4.4288992e-06
2.0151814e-08
1.2021632e-09
7.4991383e-07
5.3029661e-06
1.1013428e-05
1.4228202e-05
1.5078888e-05
1.4890337e-05
1.4461969e-05
1.410651e-05
1.3923598e-05
1.3923536e-05
1.4106323e-05
1.44617e-05
1.489003e-05
1.5078614e-05
1.4227947e-05
1.1013252e-05
5.3029183e-06
7.4990409e-07
1.2021846e-09
6.8436712e-11
1.2388781e-07
1.2198798e-06
2.8806884e-06
3.9243118e-06
4.252102e-06
4.2394722e-06
4.1329305e-06
4.0380707e-06
3.9884474e-06
3.9884272e-06
4.0380091e-06
4.1328432e-06
4.2393682e-06
4.2520003e-06
3.92423e-06
2.8806292e-06
1.2198647e-06
1.2388585e-07
6.8437906e-11
3.8224047e-12
2.018342e-08
2.7287289e-07
7.2866187e-07
1.044586e-06
1.1571982e-06
1.1654566e-06
1.1413671e-06
1.1177159e-06
1.1050585e-06
1.1050522e-06
1.1176967e-06
1.1413398e-06
1.1654231e-06
1.1571635e-06
1.0445608e-06
7.2864369e-07
2.7286843e-07
2.018304e-08
3.8224551e-12
2.1595402e-13
3.2586756e-09
5.944855e-08
1.7840435e-07
2.6848878e-07
3.0394407e-07
3.0921824e-07
3.043408e-07
2.9881334e-07
2.9576269e-07
2.957608e-07
2.9880763e-07
3.0433258e-07
3.0920798e-07
3.0393313e-07
2.684812e-07
1.7839914e-07
5.9447317e-08
3.2586019e-09
2.1595483e-13
1.2699578e-14
5.2151108e-10
1.2615912e-08
4.2295154e-08
6.6661542e-08
7.70544e-08
7.9164797e-08
7.8315141e-08
7.7103302e-08
7.6406379e-08
7.640583e-08
7.7101672e-08
7.8312758e-08
7.9161814e-08
7.7051169e-08
6.6659329e-08
4.2293739e-08
1.2615592e-08
5.2149702e-10
1.2699434e-14
7.9063612e-16
8.250692e-11
2.6063204e-09
9.7103096e-09
1.5993588e-08
1.8858716e-08
1.9558086e-08
1.9445664e-08
1.9196871e-08
1.9045707e-08
1.9045555e-08
1.9196426e-08
1.9445002e-08
1.9557257e-08
1.8857817e-08
1.5992962e-08
9.7099421e-09
2.6062409e-09
8.2504294e-11
7.9061252e-16
5.202637e-17
1.2854213e-11
5.2372913e-10
2.1590845e-09
3.7094808e-09
4.4576012e-09
4.6642884e-09
4.6598723e-09
4.6122924e-09
4.581144e-09
4.5811038e-09
4.6121759e-09
4.6596962e-09
4.6640681e-09
4.4573642e-09
3.7093108e-09
2.1589927e-09
5.237104e-10
1.2853733e-11
5.2023882e-17
3.5596927e-18
1.9646508e-12
1.0228987e-10
4.6501976e-10
8.3212545e-10
1.0181152e-09
1.0743303e-09
1.0781965e-09
1.0698147e-09
1.0637201e-09
1.06371e-09
1.0697854e-09
1.0781516e-09
1.0742743e-09
1.0180555e-09
8.320813e-10
4.6499764e-10
1.0228566e-10
1.964566e-12
3.5594699e-18
2.4804517e-19
2.9367662e-13
1.9408183e-11
9.7042741e-11
1.8064413e-10
2.2484807e-10
2.3915651e-10
2.4103509e-10
2.3970689e-10
2.3857643e-10
2.3857397e-10
2.396998e-10
2.4102413e-10
2.3914285e-10
2.2483364e-10
1.806332e-10
9.7037576e-11
1.9407278e-11
2.9366219e-13
2.480269e-19
1.7299733e-20
4.2838351e-14
3.5765211e-12
1.9630168e-11
3.7975555e-11
4.8051964e-11
5.1495189e-11
5.2103587e-11
5.1924908e-11
5.1726809e-11
5.1726231e-11
5.1923252e-11
5.210102e-11
5.1491992e-11
4.8048614e-11
3.7972969e-11
1.9629001e-11
3.5763333e-12
4.2835992e-14
1.7298317e-20
1.1935524e-21
6.0891351e-15
6.401271e-13
3.8510657e-12
7.736472e-12
9.9454671e-12
1.0734233e-11
1.0900471e-11
1.0883804e-11
1.0851213e-11
1.0851082e-11
1.0883432e-11
1.0899893e-11
1.0733513e-11
9.9447182e-12
7.7358865e-12
3.8508103e-12
6.4008958e-13
6.0887637e-15
1.1934472e-21
8.0890214e-23
8.4274059e-16
1.1130028e-13
7.3315677e-13
1.5285269e-12
1.9953096e-12
2.1681665e-12
2.2091229e-12
2.2095623e-12
2.2045875e-12
2.2045591e-12
2.2094817e-12
2.2089974e-12
2.1680106e-12
1.9951481e-12
1.5283997e-12
7.3310271e-13
1.1129304e-13
8.4268408e-16
8.0882695e-23
5.3645896e-24
1.1352927e-16
1.8806761e-14
1.3553781e-13
2.9311575e-13
3.8837596e-13
4.2475196e-13
4.3411679e-13
4.3488374e-13
4.3419577e-13
4.3418986e-13
4.3486689e-13
4.3409051e-13
4.2471932e-13
3.8834226e-13
2.9308917e-13
1.3552675e-13
1.8805405e-14
1.1352093e-16
5.3640641e-24
3.475255e-25
1.4886815e-17
3.0898076e-15
2.4348752e-14
5.4599833e-14
7.3406857e-14
8.0779627e-14
8.2797986e-14
8.3062004e-14
8.2980575e-14
8.2979386e-14
8.3058601e-14
8.2792663e-14
8.0773017e-14
7.3400041e-14
5.4594468e-14
2.4346563e-14
3.0895605e-15
1.4885615e-17
3.4743965e-25
2.2006564e-26
1.9005462e-18
4.9384837e-16
4.2536282e-15
9.8873522e-15
1.3484748e-14
1.4927521e-14
1.5341466e-14
1.5410195e-14
1.5403402e-14
1.5403171e-14
1.5409529e-14
1.5340422e-14
1.4926225e-14
1.3483412e-14
9.886305e-15
4.2532082e-15
4.9380454e-16
1.9003775e-18
2.1960811e-26
1.3722213e-27
2.3632286e-19
7.6836367e-17
7.2314611e-16
1.7420158e-15
2.4095818e-15
2.6827379e-15
2.7640388e-15
2.7796706e-15
2.7797896e-15
2.7797462e-15
2.7795441e-15
2.7638405e-15
2.6824914e-15
2.4093274e-15
1.7418176e-15
7.2306785e-16
7.6828785e-17
2.3629957e-19
1.354275e-27
8.6285872e-29
2.8634768e-20
1.1644732e-17
1.1972708e-16
2.9884629e-16
4.1917235e-16
4.6929522e-16
4.8465695e-16
4.8791826e-16
4.8815081e-16
4.8814283e-16
4.8789499e-16
4.8462034e-16
4.6924967e-16
4.1912524e-16
2.9880986e-16
1.1971292e-16
1.1643453e-17
2.8631614e-20
8.1491688e-29
5.7535144e-30
3.3828152e-21
1.7201479e-18
1.931838e-17
4.9957318e-17
7.1046512e-17
7.9974243e-17
8.2776229e-17
8.3414782e-17
8.3487066e-17
8.3485637e-17
8.3410623e-17
8.2769663e-17
7.9966056e-17
7.1038022e-17
4.9950801e-17
1.9315886e-17
1.7199373e-18
3.3823944e-21
4.7864501e-30
4.3268928e-31
3.8986168e-22
2.4783389e-19
3.0399547e-18
8.1438121e-18
1.1741571e-17
1.3287235e-17
1.3781936e-17
1.3900773e-17
1.3917705e-17
1.3917455e-17
1.3900047e-17
1.3780789e-17
1.3285802e-17
1.1740081e-17
8.1426765e-18
3.039527e-18
2.4780002e-19
3.8980646e-22
2.7453837e-31
3.7345565e-32
4.3858013e-23
3.4849529e-20
4.6685307e-19
1.2955224e-18
1.8934936e-18
2.1539192e-18
2.2386448e-18
2.2598338e-18
2.2633053e-18
2.2632625e-18
2.2597106e-18
2.2384496e-18
2.1536749e-18
1.8932393e-18
1.2953294e-18
4.6678151e-19
3.4844216e-20
4.3850891e-23
1.5385272e-32
3.5120768e-33
4.8189705e-24
4.7857784e-21
7.0016436e-20
2.0125692e-19
2.981699e-19
3.4091815e-19
3.5501961e-19
3.5865893e-19
3.593136e-19
3.593065e-19
3.586385e-19
3.5498721e-19
3.4087748e-19
2.9812751e-19
2.0122489e-19
7.0004762e-20
4.7849641e-21
4.8180694e-24
8.4286508e-34
3.3471071e-34
5.1747084e-25
6.4224314e-22
1.0261421e-20
3.0551624e-20
4.5879781e-20
5.272282e-20
5.5007108e-20
5.5611578e-20
5.5727778e-20
5.5726629e-20
5.5608267e-20
5.500186e-20
5.2716205e-20
4.5872878e-20
3.0546429e-20
1.0259561e-20
6.4212135e-22
5.1735913e-25
4.5165451e-35
3.0722731e-35
5.4337458e-26
8.4275626e-23
1.4705309e-21
4.5349572e-21
6.902708e-21
7.971929e-21
8.3325463e-21
8.4299187e-21
8.4495801e-21
8.4493983e-21
8.429394e-21
8.331715e-21
7.9708767e-21
6.9016089e-21
4.534133e-21
1.4702415e-21
8.4257862e-23
5.4323893e-26
2.3686223e-36
2.6493882e-36
5.5827001e-27
1.0819735e-23
2.0618735e-22
6.5861936e-22
1.0160839e-21
1.1792893e-21
1.2348348e-21
1.2500821e-21
1.2532783e-21
1.2532502e-21
1.2500008e-21
1.2347058e-21
1.1791255e-21
1.0159127e-21
6.5849157e-22
2.0614333e-22
1.0817207e-23
5.5810897e-27
1.2225888e-37
2.1314958e-37
5.6151964e-28
1.3598541e-24
2.8302438e-23
9.3642873e-23
1.4642372e-22
1.7077847e-22
1.7913444e-22
1.8145955e-22
1.8196137e-22
1.8195711e-22
1.8144721e-22
1.7911483e-22
1.7075351e-22
1.4639761e-22
9.3623494e-23
2.8295896e-23
1.3595029e-24
5.6133276e-28
6.3963532e-39
)
;

boundaryField
{
    Wall
    {
        type            zeroGradient;
    }
    frontAndBack
    {
        type            empty;
    }
    atmosphere
    {
        type            zeroGradient;
    }
}


// ************************************************************************* //
