/*--------------------------------*- C++ -*----------------------------------*\
| =========                 |                                                 |
| \\      /  F ield         | OpenFOAM: The Open Source CFD Toolbox           |
|  \\    /   O peration     | Version:  3.0.1                                 |
|   \\  /    A nd           | Web:      www.OpenFOAM.org                      |
|    \\/     M anipulation  |                                                 |
\*---------------------------------------------------------------------------*/
FoamFile
{
    version     2.0;
    format      ascii;
    class       volScalarField;
    location    "14";
    object      mOne;
}
// * * * * * * * * * * * * * * * * * * * * * * * * * * * * * * * * * * * * * //

dimensions      [0 0 0 0 0 0 0];

internalField   nonuniform List<scalar> 
800
(
3.5044244
3.5043607
3.5043173
3.5042932
3.5042753
3.5042611
3.5042502
3.5042424
3.5042373
3.5042348
3.5042349
3.5042373
3.5042424
3.5042502
3.5042611
3.5042753
3.5042932
3.5043173
3.5043607
3.5044244
3.0264462
3.0371476
3.0382466
3.0385463
3.0388072
3.0390255
3.0391991
3.0393247
3.0394048
3.0394437
3.0394437
3.0394048
3.0393247
3.0391991
3.0390256
3.0388072
3.0385464
3.0382467
3.0371477
3.0264462
2.3454443
2.3573435
2.3610777
2.3615944
2.3619652
2.3622588
2.3624804
2.3626356
2.3627328
2.3627797
2.3627797
2.3627328
2.3626355
2.3624804
2.3622587
2.3619652
2.3615944
2.3610777
2.3573435
2.3454442
1.7412204
1.7547059
1.7566504
1.757154
1.757486
1.7577266
1.7578924
1.7579997
1.7580636
1.7580935
1.7580935
1.7580636
1.7579996
1.7578924
1.7577266
1.757486
1.7571541
1.7566505
1.7547059
1.7412203
1.1355007
1.1551128
1.1566825
1.1571951
1.1574566
1.157608
1.1576825
1.157716
1.1577304
1.1577355
1.1577355
1.1577304
1.157716
1.1576825
1.1576081
1.1574567
1.1571952
1.1566827
1.1551129
1.1355008
0.55531143
0.57013253
0.57157034
0.57209971
0.57228001
0.57232539
0.57232228
0.57228918
0.57226596
0.57225211
0.57225212
0.57226597
0.57228921
0.57232232
0.57232548
0.57228012
0.57209982
0.5715705
0.5701327
0.55531157
0.24085753
0.25306213
0.25502018
0.2554297
0.25545511
0.25536116
0.25527419
0.25519209
0.25514191
0.25510774
0.25510775
0.25514192
0.25519211
0.25527425
0.25536124
0.25545523
0.25542989
0.25502034
0.25306231
0.24085771
0.087320398
0.099943491
0.10284799
0.10320656
0.10302976
0.10278644
0.10258053
0.10246301
0.10238436
0.10233534
0.10233533
0.10238436
0.10246298
0.10258055
0.1027865
0.10302984
0.10320672
0.10284808
0.099943616
0.087320535
0.023063299
0.035202803
0.038688474
0.039358058
0.039183382
0.038849314
0.03854435
0.038359159
0.038239008
0.038175724
0.0381757
0.038238991
0.038359097
0.038544331
0.038849339
0.039183413
0.039358145
0.038688511
0.035202857
0.023063366
0.0041899562
0.010750739
0.013474046
0.014280769
0.01430326
0.0140936
0.013858874
0.013699738
0.013594356
0.013541215
0.013541197
0.013594338
0.013699687
0.013858847
0.014093603
0.01430326
0.014280804
0.013474054
0.010750752
0.0041899749
0.00054344936
0.0028323211
0.0043123001
0.0049064645
0.0050132021
0.0049333503
0.0048114856
0.0047196919
0.0046569982
0.0046256671
0.0046256574
0.0046569855
0.0047196615
0.0048114661
0.0049333459
0.0050131924
0.0049064732
0.0043123
0.002832321
0.00054345268
5.4035337e-05
0.0006512858
0.0012724972
0.0015942691
0.0016841041
0.0016662054
0.0016170806
0.0015757289
0.001546575
0.001532003
0.0015319988
0.0015465679
0.0015757145
0.0016170697
0.0016662008
0.001684096
0.0015942691
0.001272496
0.0006512844
5.4035766e-05
4.4195035e-06
0.00013361656
0.00034958941
0.0004913739
0.00054217214
0.00054263787
0.00052627236
0.00051056367
0.00049912384
0.00049338534
0.00049338374
0.00049912046
0.00051055767
0.00052626719
0.00054263494
0.00054216768
0.00049137242
0.00034958862
0.00013361593
4.419549e-06
3.1404123e-07
2.5102452e-05
9.0496554e-05
0.00014437178
0.0001674923
0.00017039299
0.0001657928
0.00016055057
0.00015659508
0.00015459962
0.00015459906
0.00015659367
0.00016054831
0.0001657906
0.00017039149
0.00016749033
0.00014437078
9.0496198e-05
2.5102261e-05
3.1404529e-07
2.0151499e-08
4.4289644e-06
2.2331381e-05
4.064698e-05
4.9745289e-05
5.1604652e-05
5.0531338e-05
4.8959568e-05
4.772272e-05
4.7093646e-05
4.7093457e-05
4.7722186e-05
4.8958771e-05
5.0530489e-05
5.1603975e-05
4.9744545e-05
4.064652e-05
2.2331244e-05
4.4289188e-06
2.0151814e-08
1.2021632e-09
7.4991439e-07
5.3029942e-06
1.101355e-05
1.4228404e-05
1.5079115e-05
1.4890558e-05
1.4462178e-05
1.4106709e-05
1.3923792e-05
1.3923729e-05
1.4106522e-05
1.4461909e-05
1.4890252e-05
1.5078841e-05
1.422815e-05
1.1013373e-05
5.3029464e-06
7.4990466e-07
1.2021846e-09
6.8436712e-11
1.2388782e-07
1.2198813e-06
2.8806967e-06
3.9243272e-06
4.25212e-06
4.2394902e-06
4.1329476e-06
4.038087e-06
3.9884633e-06
3.9884431e-06
4.0380254e-06
4.1328603e-06
4.2393862e-06
4.2520183e-06
3.9242454e-06
2.8806375e-06
1.2198661e-06
1.2388587e-07
6.8437906e-11
3.8224047e-12
2.018342e-08
2.7287296e-07
7.286624e-07
1.0445871e-06
1.1571995e-06
1.165458e-06
1.1413684e-06
1.1177171e-06
1.1050598e-06
1.1050535e-06
1.1176979e-06
1.1413411e-06
1.1654245e-06
1.1571649e-06
1.0445619e-06
7.2864422e-07
2.7286851e-07
2.0183041e-08
3.8224551e-12
2.1595402e-13
3.2586756e-09
5.9448554e-08
1.7840438e-07
2.6848885e-07
3.0394416e-07
3.0921833e-07
3.0434089e-07
2.9881343e-07
2.9576277e-07
2.9576088e-07
2.9880772e-07
3.0433267e-07
3.0920808e-07
3.0393322e-07
2.6848128e-07
1.7839917e-07
5.9447321e-08
3.2586019e-09
2.1595483e-13
1.2699578e-14
5.2151108e-10
1.2615913e-08
4.2295156e-08
6.6661546e-08
7.7054406e-08
7.9164803e-08
7.8315147e-08
7.7103308e-08
7.6406385e-08
7.6405836e-08
7.7101678e-08
7.8312764e-08
7.916182e-08
7.7051175e-08
6.6659334e-08
4.2293741e-08
1.2615592e-08
5.2149702e-10
1.2699434e-14
7.9063612e-16
8.250692e-11
2.6063204e-09
9.7103097e-09
1.5993588e-08
1.8858716e-08
1.9558086e-08
1.9445665e-08
1.9196871e-08
1.9045707e-08
1.9045555e-08
1.9196426e-08
1.9445003e-08
1.9557257e-08
1.8857817e-08
1.5992963e-08
9.7099422e-09
2.6062409e-09
8.2504294e-11
7.9061252e-16
5.202637e-17
1.2854213e-11
5.2372914e-10
2.1590845e-09
3.7094808e-09
4.4576012e-09
4.6642884e-09
4.6598723e-09
4.6122924e-09
4.5811441e-09
4.5811038e-09
4.6121759e-09
4.6596962e-09
4.6640681e-09
4.4573643e-09
3.7093109e-09
2.1589927e-09
5.237104e-10
1.2853733e-11
5.2023882e-17
3.5596927e-18
1.9646508e-12
1.0228987e-10
4.6501976e-10
8.3212545e-10
1.0181152e-09
1.0743303e-09
1.0781965e-09
1.0698147e-09
1.0637201e-09
1.06371e-09
1.0697854e-09
1.0781517e-09
1.0742743e-09
1.0180555e-09
8.320813e-10
4.6499764e-10
1.0228566e-10
1.964566e-12
3.5594699e-18
2.4804517e-19
2.9367662e-13
1.9408183e-11
9.7042741e-11
1.8064413e-10
2.2484807e-10
2.3915651e-10
2.4103509e-10
2.3970689e-10
2.3857643e-10
2.3857397e-10
2.396998e-10
2.4102413e-10
2.3914285e-10
2.2483364e-10
1.806332e-10
9.7037576e-11
1.9407278e-11
2.9366219e-13
2.480269e-19
1.7299733e-20
4.2838351e-14
3.5765211e-12
1.9630168e-11
3.7975555e-11
4.8051964e-11
5.1495189e-11
5.2103587e-11
5.1924908e-11
5.1726809e-11
5.1726231e-11
5.1923252e-11
5.210102e-11
5.1491992e-11
4.8048614e-11
3.7972969e-11
1.9629001e-11
3.5763333e-12
4.2835992e-14
1.7298317e-20
1.1935524e-21
6.0891351e-15
6.401271e-13
3.8510657e-12
7.736472e-12
9.9454671e-12
1.0734233e-11
1.0900471e-11
1.0883804e-11
1.0851213e-11
1.0851082e-11
1.0883432e-11
1.0899893e-11
1.0733513e-11
9.9447182e-12
7.7358865e-12
3.8508103e-12
6.4008958e-13
6.0887637e-15
1.1934472e-21
8.0890214e-23
8.4274059e-16
1.1130028e-13
7.3315677e-13
1.5285269e-12
1.9953096e-12
2.1681665e-12
2.2091229e-12
2.2095623e-12
2.2045875e-12
2.2045591e-12
2.2094817e-12
2.2089974e-12
2.1680106e-12
1.9951481e-12
1.5283997e-12
7.3310271e-13
1.1129304e-13
8.4268408e-16
8.0882695e-23
5.3645896e-24
1.1352927e-16
1.8806761e-14
1.3553781e-13
2.9311575e-13
3.8837596e-13
4.2475196e-13
4.3411679e-13
4.3488374e-13
4.3419577e-13
4.3418986e-13
4.3486689e-13
4.3409051e-13
4.2471932e-13
3.8834226e-13
2.9308917e-13
1.3552675e-13
1.8805405e-14
1.1352093e-16
5.3640641e-24
3.475255e-25
1.4886815e-17
3.0898076e-15
2.4348752e-14
5.4599833e-14
7.3406857e-14
8.0779627e-14
8.2797986e-14
8.3062004e-14
8.2980575e-14
8.2979386e-14
8.3058601e-14
8.2792663e-14
8.0773017e-14
7.3400041e-14
5.4594468e-14
2.4346563e-14
3.0895605e-15
1.4885615e-17
3.4743965e-25
2.2006564e-26
1.9005462e-18
4.9384837e-16
4.2536282e-15
9.8873522e-15
1.3484748e-14
1.4927521e-14
1.5341466e-14
1.5410195e-14
1.5403402e-14
1.5403171e-14
1.5409529e-14
1.5340422e-14
1.4926225e-14
1.3483412e-14
9.886305e-15
4.2532082e-15
4.9380454e-16
1.9003775e-18
2.1960811e-26
1.3722213e-27
2.3632286e-19
7.6836367e-17
7.2314611e-16
1.7420158e-15
2.4095818e-15
2.6827379e-15
2.7640388e-15
2.7796706e-15
2.7797896e-15
2.7797462e-15
2.7795441e-15
2.7638405e-15
2.6824914e-15
2.4093274e-15
1.7418176e-15
7.2306785e-16
7.6828785e-17
2.3629957e-19
1.354275e-27
8.6285872e-29
2.8634768e-20
1.1644732e-17
1.1972708e-16
2.9884629e-16
4.1917235e-16
4.6929522e-16
4.8465695e-16
4.8791826e-16
4.8815081e-16
4.8814283e-16
4.8789499e-16
4.8462034e-16
4.6924967e-16
4.1912524e-16
2.9880986e-16
1.1971292e-16
1.1643453e-17
2.8631614e-20
8.1491688e-29
5.7535144e-30
3.3828152e-21
1.7201479e-18
1.931838e-17
4.9957318e-17
7.1046512e-17
7.9974243e-17
8.2776229e-17
8.3414782e-17
8.3487066e-17
8.3485637e-17
8.3410623e-17
8.2769663e-17
7.9966056e-17
7.1038022e-17
4.9950801e-17
1.9315886e-17
1.7199373e-18
3.3823944e-21
4.7864501e-30
4.3268928e-31
3.8986168e-22
2.4783389e-19
3.0399547e-18
8.1438121e-18
1.1741571e-17
1.3287235e-17
1.3781936e-17
1.3900773e-17
1.3917705e-17
1.3917455e-17
1.3900047e-17
1.3780789e-17
1.3285802e-17
1.1740081e-17
8.1426765e-18
3.039527e-18
2.4780002e-19
3.8980646e-22
2.7453837e-31
3.7345565e-32
4.3858013e-23
3.4849529e-20
4.6685307e-19
1.2955224e-18
1.8934936e-18
2.1539192e-18
2.2386448e-18
2.2598338e-18
2.2633053e-18
2.2632625e-18
2.2597106e-18
2.2384496e-18
2.1536749e-18
1.8932393e-18
1.2953294e-18
4.6678151e-19
3.4844216e-20
4.3850891e-23
1.5385272e-32
3.5120768e-33
4.8189705e-24
4.7857784e-21
7.0016436e-20
2.0125692e-19
2.981699e-19
3.4091815e-19
3.5501961e-19
3.5865893e-19
3.593136e-19
3.593065e-19
3.586385e-19
3.5498721e-19
3.4087748e-19
2.9812751e-19
2.0122489e-19
7.0004762e-20
4.7849641e-21
4.8180694e-24
8.4286508e-34
3.3471071e-34
5.1747084e-25
6.4224314e-22
1.0261421e-20
3.0551624e-20
4.5879781e-20
5.272282e-20
5.5007108e-20
5.5611578e-20
5.5727778e-20
5.5726629e-20
5.5608267e-20
5.500186e-20
5.2716205e-20
4.5872878e-20
3.0546429e-20
1.0259561e-20
6.4212135e-22
5.1735913e-25
4.5165451e-35
3.0722731e-35
5.4337458e-26
8.4275626e-23
1.4705309e-21
4.5349572e-21
6.902708e-21
7.971929e-21
8.3325463e-21
8.4299187e-21
8.4495801e-21
8.4493983e-21
8.429394e-21
8.331715e-21
7.9708767e-21
6.9016089e-21
4.534133e-21
1.4702415e-21
8.4257862e-23
5.4323893e-26
2.3686223e-36
2.6493882e-36
5.5827001e-27
1.0819735e-23
2.0618735e-22
6.5861936e-22
1.0160839e-21
1.1792893e-21
1.2348348e-21
1.2500821e-21
1.2532783e-21
1.2532502e-21
1.2500008e-21
1.2347058e-21
1.1791255e-21
1.0159127e-21
6.5849157e-22
2.0614333e-22
1.0817207e-23
5.5810897e-27
1.2225888e-37
2.1314958e-37
5.6151964e-28
1.3598541e-24
2.8302438e-23
9.3642873e-23
1.4642372e-22
1.7077847e-22
1.7913444e-22
1.8145955e-22
1.8196137e-22
1.8195711e-22
1.8144721e-22
1.7911483e-22
1.7075351e-22
1.4639761e-22
9.3623494e-23
2.8295896e-23
1.3595029e-24
5.6133276e-28
6.3963532e-39
)
;

boundaryField
{
    Wall
    {
        type            zeroGradient;
    }
    frontAndBack
    {
        type            empty;
    }
    atmosphere
    {
        type            zeroGradient;
    }
}


// ************************************************************************* //
