/*--------------------------------*- C++ -*----------------------------------*\
| =========                 |                                                 |
| \\      /  F ield         | OpenFOAM: The Open Source CFD Toolbox           |
|  \\    /   O peration     | Version:  3.0.1                                 |
|   \\  /    A nd           | Web:      www.OpenFOAM.org                      |
|    \\/     M anipulation  |                                                 |
\*---------------------------------------------------------------------------*/
FoamFile
{
    version     2.0;
    format      ascii;
    class       volScalarField;
    location    "14";
    object      mThree;
}
// * * * * * * * * * * * * * * * * * * * * * * * * * * * * * * * * * * * * * //

dimensions      [0 0 0 0 0 0 0];

internalField   nonuniform List<scalar> 
800
(
2.3942998e-25
2.3943214e-25
2.3942717e-25
2.3942401e-25
2.3942167e-25
2.3941979e-25
2.3941836e-25
2.3941732e-25
2.3941665e-25
2.3941631e-25
2.3941632e-25
2.3941665e-25
2.3941732e-25
2.3941836e-25
2.3941979e-25
2.3942167e-25
2.3942402e-25
2.3942717e-25
2.3943214e-25
2.3942998e-25
1.6931517e-25
1.7089842e-25
1.7106166e-25
1.7109402e-25
1.711237e-25
1.7114976e-25
1.7117118e-25
1.7118689e-25
1.7119691e-25
1.7120178e-25
1.7120178e-25
1.7119691e-25
1.7118688e-25
1.7117118e-25
1.7114977e-25
1.711237e-25
1.7109403e-25
1.7106168e-25
1.7089843e-25
1.6931518e-25
9.5535545e-26
9.6756581e-26
9.7348312e-26
9.7396167e-26
9.7432282e-26
9.7461901e-26
9.7484942e-26
9.7501342e-26
9.7511704e-26
9.7516725e-26
9.7516725e-26
9.7511701e-26
9.7501338e-26
9.7484939e-26
9.7461901e-26
9.7432283e-26
9.7396171e-26
9.7348318e-26
9.6756587e-26
9.5535541e-26
5.6729178e-26
5.773192e-26
5.7914817e-26
5.795894e-26
5.7990102e-26
5.8013717e-26
5.8030828e-26
5.8042418e-26
5.8049559e-26
5.8052963e-26
5.8052963e-26
5.8049556e-26
5.8042414e-26
5.8030825e-26
5.8013715e-26
5.79901e-26
5.795894e-26
5.7914819e-26
5.7731921e-26
5.6729172e-26
2.7926428e-26
2.8952353e-26
2.9043658e-26
2.9078824e-26
2.9100748e-26
2.9115686e-26
2.9125177e-26
2.9131021e-26
2.9134419e-26
2.9135984e-26
2.9135984e-26
2.9134417e-26
2.9131019e-26
2.9125175e-26
2.9115685e-26
2.9100748e-26
2.9078824e-26
2.904366e-26
2.8952355e-26
2.7926425e-26
6.3833577e-27
6.6970586e-27
6.7251444e-27
6.7383452e-27
6.7457396e-27
6.7502301e-27
6.7527858e-27
6.7541707e-27
6.7549307e-27
6.7552681e-27
6.755268e-27
6.7549301e-27
6.75417e-27
6.7527852e-27
6.7502299e-27
6.7457397e-27
6.7383453e-27
6.7251451e-27
6.6970595e-27
6.3833573e-27
1.2082502e-27
1.2968763e-27
1.3058021e-27
1.308931e-27
1.3104329e-27
1.3111555e-27
1.3114759e-27
1.3115641e-27
1.3116045e-27
1.3115864e-27
1.3115864e-27
1.3116044e-27
1.3115639e-27
1.3114758e-27
1.3111556e-27
1.3104332e-27
1.3089314e-27
1.3058024e-27
1.2968768e-27
1.2082503e-27
1.7837311e-28
2.0578639e-28
2.0856652e-28
2.0838027e-28
2.0810323e-28
2.0790565e-28
2.0775245e-28
2.0766049e-28
2.0759983e-28
2.075577e-28
2.0755768e-28
2.0759979e-28
2.0766042e-28
2.0775242e-28
2.0790569e-28
2.0810332e-28
2.0838041e-28
2.085666e-28
2.0578652e-28
1.7837317e-28
1.7925849e-29
2.7315855e-29
2.878202e-29
2.8698386e-29
2.8409292e-29
2.8159872e-29
2.7978254e-29
2.786374e-29
2.7795677e-29
2.7761827e-29
2.7761817e-29
2.7795661e-29
2.786371e-29
2.7978236e-29
2.8159879e-29
2.8409306e-29
2.8698412e-29
2.8782033e-29
2.7315875e-29
1.7925856e-29
1.1564534e-30
2.9113953e-30
3.4138233e-30
3.4767679e-30
3.4256359e-30
3.3579297e-30
3.3007301e-30
3.2611615e-30
3.2368303e-30
3.2250815e-30
3.2250789e-30
3.236826e-30
3.2611539e-30
3.3007246e-30
3.3579294e-30
3.4256372e-30
3.4767713e-30
3.4138245e-30
2.911397e-30
1.1564534e-30
4.9992857e-32
2.4633231e-31
3.4327275e-31
3.6841056e-31
3.6595857e-31
3.5582388e-31
3.4560913e-31
3.3795365e-31
3.3307466e-31
3.30711e-31
3.3071057e-31
3.3307386e-31
3.379523e-31
3.4560803e-31
3.5582358e-31
3.6595851e-31
3.6841084e-31
3.4327284e-31
2.4633235e-31
4.9992823e-32
1.558621e-33
1.6743601e-32
2.9213359e-32
3.4001935e-32
3.4565457e-32
3.3554126e-32
3.2266524e-32
3.1224668e-32
3.0538899e-32
3.0203849e-32
3.0203794e-32
3.0538784e-32
3.1224486e-32
3.2266363e-32
3.3554054e-32
3.4565424e-32
3.4001948e-32
2.921336e-32
1.6743594e-32
1.5586181e-33
3.7644256e-35
9.347426e-34
2.1182093e-33
2.7349947e-33
2.8837938e-33
2.8153481e-33
2.6898895e-33
2.5798574e-33
2.5051992e-33
2.4683717e-33
2.4683656e-33
2.505186e-33
2.5798374e-33
2.6898713e-33
2.8153376e-33
2.883788e-33
2.7349949e-33
2.1182093e-33
9.3474195e-34
3.7644161e-35
7.4416888e-37
4.3874621e-35
1.3220888e-34
1.9249125e-34
2.127612e-34
2.1027315e-34
2.0039382e-34
1.9090484e-34
1.8426793e-34
1.8096127e-34
1.8096072e-34
1.8426671e-34
1.9090301e-34
2.003921e-34
2.1027203e-34
2.1276053e-34
1.9249118e-34
1.3220889e-34
4.3874589e-35
7.4416667e-37
1.2492591e-38
1.7665889e-36
7.1798344e-36
1.1919017e-35
1.3917732e-35
1.3999133e-35
1.3355643e-35
1.2667162e-35
1.2170086e-35
1.1919833e-35
1.1919792e-35
1.2169992e-35
1.266702e-35
1.3355505e-35
1.3999038e-35
1.3917675e-35
1.1919009e-35
7.1798374e-36
1.7665888e-36
1.2492553e-38
1.8228498e-40
6.1968828e-38
3.4250411e-37
6.5298131e-37
8.0989645e-37
8.3246026e-37
7.974345e-37
7.5459301e-37
7.2258849e-37
7.0629723e-37
7.0629454e-37
7.2258219e-37
7.5458337e-37
7.9742496e-37
8.3245352e-37
8.0989246e-37
6.5298072e-37
3.4250452e-37
6.1968908e-38
1.8228467e-40
2.3458699e-42
1.9152681e-39
1.4463805e-38
3.1814006e-38
4.2066959e-38
4.4315674e-38
4.2724842e-38
4.0408517e-38
3.8612411e-38
3.7687387e-38
3.7687232e-38
3.8612041e-38
4.0407943e-38
4.2724269e-38
4.4315261e-38
4.2066722e-38
3.1813981e-38
1.4463842e-38
1.9152744e-39
2.3458688e-42
2.6874132e-44
5.2577624e-41
5.4397054e-40
1.3844037e-39
1.9563081e-39
2.1166104e-39
2.0574381e-39
1.9476245e-39
1.8588972e-39
1.8126302e-39
1.8126224e-39
1.8588779e-39
1.9475943e-39
2.0574079e-39
2.1165885e-39
1.9562961e-39
1.3844031e-39
5.4397288e-40
5.2577943e-41
2.6874188e-44
2.7569741e-46
1.2892887e-42
1.8302098e-41
5.3990934e-41
8.1665855e-41
9.0877833e-41
8.91806e-41
8.4586382e-41
8.0700514e-41
7.864733e-41
7.8646992e-41
8.0699636e-41
8.4584987e-41
8.9179177e-41
9.0876811e-41
8.1665314e-41
5.399095e-41
1.8302212e-41
1.2893007e-42
2.7569908e-46
2.5425363e-48
2.8352015e-44
5.5268376e-43
1.8919787e-42
3.0664108e-42
3.513081e-42
3.4836136e-42
3.3132643e-42
3.1616024e-42
3.08034e-42
3.0803259e-42
3.1615658e-42
3.3132066e-42
3.4835547e-42
3.513039e-42
3.0663901e-42
1.8919812e-42
5.5268852e-43
2.8352387e-44
2.5425639e-48
2.1128982e-50
5.6058684e-46
1.5013389e-44
5.9681622e-44
1.0371401e-43
1.2241138e-43
1.2273693e-43
1.1712404e-43
1.1182952e-43
1.0895029e-43
1.0894977e-43
1.1182815e-43
1.1712191e-43
1.2273477e-43
1.2240984e-43
1.037133e-43
5.9681757e-44
1.5013558e-44
5.6059654e-46
2.1129322e-50
1.5843461e-52
9.982221e-48
3.6737779e-46
1.6966188e-45
3.1626149e-45
3.8472133e-45
3.902166e-45
3.7376356e-45
3.5718991e-45
3.4803433e-45
3.480326e-45
3.5718541e-45
3.7375654e-45
3.9020944e-45
3.8471638e-45
3.1625935e-45
1.6966244e-45
3.6738299e-46
9.9824386e-48
1.5843808e-52
1.0725226e-54
1.6020478e-49
8.103347e-48
4.3487036e-47
8.6976183e-47
1.0907837e-46
1.1195289e-46
1.076636e-46
1.0300454e-46
1.0038767e-46
1.0038716e-46
1.0300321e-46
1.0766151e-46
1.1195075e-46
1.0907691e-46
8.6975598e-47
4.3487225e-47
8.1034849e-48
1.6020902e-49
1.0725526e-54
6.553433e-57
2.3174609e-51
1.6111209e-49
1.0048848e-48
2.1567672e-48
2.7890577e-48
2.8971978e-48
2.7979303e-48
2.6802443e-48
2.6129696e-48
2.6129562e-48
2.6802087e-48
2.797874e-48
2.8971402e-48
2.7890187e-48
2.1567526e-48
1.0048901e-48
1.6111528e-49
2.3175335e-51
6.5536593e-57
3.6114484e-59
3.0197629e-53
2.8855106e-51
2.0919123e-50
4.818541e-50
6.4258845e-50
6.7566798e-50
6.5534833e-50
6.2864211e-50
6.1308874e-50
6.1308552e-50
6.2863345e-50
6.5533469e-50
6.7565392e-50
6.4257898e-50
4.8185086e-50
2.0919253e-50
2.885575e-51
3.0198719e-53
3.6115978e-59
1.7923284e-61
3.5400391e-55
4.6493397e-53
3.9180199e-52
9.6859789e-52
1.3321428e-51
1.4179649e-51
1.3814015e-51
1.3270089e-51
1.2947009e-51
1.2946937e-51
1.32699e-51
1.3813715e-51
1.417934e-51
1.3321221e-51
9.6859104e-52
3.9180453e-52
4.6494547e-53
3.5401855e-55
1.7924147e-61
7.9941162e-64
3.7262999e-57
6.7265106e-55
6.5891641e-54
1.7483153e-53
2.4798778e-53
2.6722632e-53
2.6149961e-53
2.5157422e-53
2.4555439e-53
2.4555295e-53
2.515705e-53
2.6149374e-53
2.6722025e-53
2.4798368e-53
1.7483019e-53
6.5892084e-54
6.7266933e-55
3.7264728e-57
7.9945667e-64
3.1954275e-66
3.5125811e-59
8.7148837e-57
9.9236357e-56
2.8260051e-55
4.1342003e-55
4.5100884e-55
4.4332969e-55
4.2714383e-55
4.1710742e-55
4.1710492e-55
4.2713725e-55
4.433193e-55
4.5099808e-55
4.1341274e-55
2.8259814e-55
9.9237026e-56
8.7151402e-57
3.5127627e-59
3.1956318e-66
1.1406057e-68
2.9549039e-61
1.0076192e-58
1.3337484e-57
4.0764726e-57
6.150497e-57
6.7928528e-57
6.7073375e-57
6.4722589e-57
6.3230347e-57
6.3229951e-57
6.4721559e-57
6.7071729e-57
6.792682e-57
6.1503798e-57
4.0764333e-57
1.3337574e-57
1.0076511e-58
2.955073e-61
1.1406885e-68
3.6193195e-71
2.2085381e-63
1.0350739e-60
1.5926276e-59
5.2242777e-59
8.1293315e-59
9.0896043e-59
9.0157388e-59
8.7130133e-59
8.5160007e-59
8.5159465e-59
8.7128685e-59
9.0155072e-59
9.0893643e-59
8.1291651e-59
5.2242208e-59
1.5926375e-59
1.0351084e-60
2.2086758e-63
3.6196118e-71
1.0151885e-73
1.4584386e-65
9.3943027e-63
1.6802302e-61
5.9152599e-61
9.4928978e-61
1.0745691e-60
1.0706527e-60
1.0362814e-60
1.0133122e-60
1.0133057e-60
1.0362635e-60
1.070624e-60
1.0745394e-60
9.4926896e-61
5.915185e-61
1.6802389e-61
9.3946261e-63
1.4585359e-65
1.0152789e-73
2.4993264e-76
8.449843e-68
7.4805353e-65
1.5552265e-63
5.8760131e-63
9.7251643e-63
1.1144829e-62
1.1154329e-62
1.0812697e-62
1.0577854e-62
1.0577785e-62
1.0812505e-62
1.115402e-62
1.1144508e-62
9.7249354e-63
5.8759289e-63
1.5552333e-63
7.4807998e-65
8.4504402e-68
2.4995671e-76
5.3528884e-79
4.2573844e-70
5.180043e-67
1.2518322e-65
5.0758674e-65
8.6637486e-65
1.0051207e-64
1.0105106e-64
9.8105044e-65
9.6017889e-65
9.6017261e-65
9.8103233e-65
1.0104814e-64
1.0050903e-64
8.6635297e-65
5.0757847e-65
1.251836e-65
5.1802257e-67
4.2576971e-70
5.3534365e-79
9.860852e-82
1.8444311e-72
3.084317e-69
8.6640115e-68
3.7700686e-67
6.6361863e-67
7.7940146e-67
7.8710526e-67
7.6531671e-67
7.4937361e-67
7.4936856e-67
7.6530224e-67
7.8708181e-67
7.7937684e-67
6.6360063e-67
3.7700003e-67
8.6640217e-68
3.0844232e-69
1.8445692e-72
9.861903e-82
1.5395739e-84
6.7705439e-75
1.5560621e-71
5.0807714e-70
2.3725625e-69
4.306784e-69
5.1205953e-69
5.1944214e-69
5.0582613e-69
4.9551143e-69
4.955079e-69
5.0581618e-69
5.1942605e-69
5.1204263e-69
4.3066589e-69
2.3725135e-69
5.0807647e-70
1.5561126e-71
6.7710475e-75
1.5397418e-84
1.997585e-87
2.0649012e-77
6.5224456e-74
2.4754375e-72
1.2404803e-71
2.3221176e-71
2.7949294e-71
2.8479273e-71
2.77745e-71
2.7220293e-71
2.7220087e-71
2.7773942e-71
2.8478364e-71
2.7948339e-71
2.322046e-71
1.2404519e-71
2.4754268e-72
6.5226342e-74
2.0650482e-77
1.9977993e-87
2.0959624e-90
5.0916247e-80
2.2104357e-76
9.7511253e-75
5.2436731e-74
1.0122369e-73
1.2333406e-73
1.2623461e-73
1.2329538e-73
1.2088882e-73
1.2088791e-73
1.2329283e-73
1.2623047e-73
1.2332967e-73
1.0122038e-73
5.243538e-74
9.75105e-75
2.2104896e-76
5.0919625e-80
2.0961784e-90
1.7087339e-93
9.7531392e-83
5.81942e-79
2.9839354e-77
1.7218961e-76
3.4276757e-76
4.2277557e-76
4.3464931e-76
4.2516348e-76
4.1704894e-76
4.1704562e-76
4.2515426e-76
4.3463445e-76
4.2275972e-76
3.4275563e-76
1.721846e-76
2.9838996e-77
5.8195294e-79
9.7537228e-83
1.7088978e-93
1.0155395e-96
1.3617316e-85
1.1167215e-81
6.6555827e-80
4.1213077e-79
8.4599638e-79
1.0562903e-78
1.0907936e-78
1.0685771e-78
1.0486422e-78
1.0486335e-78
1.0685533e-78
1.090755e-78
1.0562484e-78
8.459647e-79
4.1211718e-79
6.6554679e-80
1.1167349e-81
1.3618003e-85
1.0156284e-96
3.9140408e-100
1.2327725e-88
1.3895045e-84
9.6256834e-83
6.395981e-82
1.353869e-81
1.7111652e-81
1.7749161e-81
1.7413462e-81
1.7096047e-81
1.7095904e-81
1.7413063e-81
1.7748516e-81
1.711094e-81
1.3538146e-81
6.3957473e-82
9.6254604e-83
1.3895087e-84
1.2328199e-88
3.9143419e-100
)
;

boundaryField
{
    Wall
    {
        type            zeroGradient;
    }
    frontAndBack
    {
        type            empty;
    }
    atmosphere
    {
        type            zeroGradient;
    }
}


// ************************************************************************* //
