/*--------------------------------*- C++ -*----------------------------------*\
| =========                 |                                                 |
| \\      /  F ield         | OpenFOAM: The Open Source CFD Toolbox           |
|  \\    /   O peration     | Version:  3.0.1                                 |
|   \\  /    A nd           | Web:      www.OpenFOAM.org                      |
|    \\/     M anipulation  |                                                 |
\*---------------------------------------------------------------------------*/
FoamFile
{
    version     2.0;
    format      ascii;
    class       volScalarField;
    location    "14";
    object      mTwo;
}
// * * * * * * * * * * * * * * * * * * * * * * * * * * * * * * * * * * * * * //

dimensions      [0 0 0 0 0 0 0];

internalField   nonuniform List<scalar> 
800
(
1.2255848e-12
1.22554e-12
1.2255096e-12
1.2254927e-12
1.2254802e-12
1.2254702e-12
1.2254627e-12
1.2254572e-12
1.2254536e-12
1.2254519e-12
1.2254519e-12
1.2254536e-12
1.2254572e-12
1.2254627e-12
1.2254703e-12
1.2254802e-12
1.2254927e-12
1.2255096e-12
1.22554e-12
1.2255848e-12
9.3009324e-13
9.3620728e-13
9.3683319e-13
9.3699478e-13
9.3713812e-13
9.3725949e-13
9.3735662e-13
9.3742715e-13
9.3747211e-13
9.3749395e-13
9.3749395e-13
9.374721e-13
9.3742714e-13
9.3735663e-13
9.3725951e-13
9.3713814e-13
9.3699482e-13
9.3683325e-13
9.3620733e-13
9.3009324e-13
6.2259271e-13
6.2823651e-13
6.3007745e-13
6.3032446e-13
6.3050908e-13
6.3065694e-13
6.3076976e-13
6.3084934e-13
6.3089945e-13
6.309237e-13
6.309237e-13
6.3089943e-13
6.3084931e-13
6.3076973e-13
6.3065693e-13
6.3050907e-13
6.3032446e-13
6.3007746e-13
6.2823652e-13
6.2259267e-13
4.1226457e-13
4.1745082e-13
4.1827531e-13
4.1850822e-13
4.1867117e-13
4.1879299e-13
4.1887997e-13
4.1893835e-13
4.189741e-13
4.189911e-13
4.189911e-13
4.1897409e-13
4.1893833e-13
4.1887995e-13
4.1879297e-13
4.1867116e-13
4.1850822e-13
4.1827531e-13
4.1745082e-13
4.1226453e-13
2.3689752e-13
2.4275386e-13
2.4328654e-13
2.4349108e-13
2.4361563e-13
2.4369884e-13
2.4375045e-13
2.437816e-13
2.4379943e-13
2.4380756e-13
2.4380756e-13
2.4379942e-13
2.4378159e-13
2.4375044e-13
2.4369884e-13
2.4361563e-13
2.4349109e-13
2.4328655e-13
2.4275388e-13
2.3689751e-13
9.3854595e-14
9.7010777e-14
9.7318449e-14
9.7457328e-14
9.7526719e-14
9.7563949e-14
9.7583487e-14
9.7591691e-14
9.7596075e-14
9.759775e-14
9.759775e-14
9.7596071e-14
9.7591686e-14
9.7583483e-14
9.7563952e-14
9.7526725e-14
9.7457334e-14
9.7318463e-14
9.7010792e-14
9.3854598e-14
3.3854718e-14
3.5685969e-14
3.5925527e-14
3.5989375e-14
3.6008453e-14
3.6009944e-14
3.6007936e-14
3.600316e-14
3.6000311e-14
3.599764e-14
3.599764e-14
3.6000309e-14
3.6003158e-14
3.6007938e-14
3.6009949e-14
3.6008463e-14
3.5989391e-14
3.5925541e-14
3.5685986e-14
3.3854729e-14
1.0473249e-14
1.1913031e-14
1.2170782e-14
1.2183248e-14
1.2159672e-14
1.2135596e-14
1.2116646e-14
1.2105791e-14
1.2098697e-14
1.2094127e-14
1.2094126e-14
1.2098695e-14
1.2105786e-14
1.2116646e-14
1.2135601e-14
1.2159679e-14
1.2183262e-14
1.217079e-14
1.1913042e-14
1.0473259e-14
2.4168623e-15
3.6195393e-15
3.9119851e-15
3.947262e-15
3.9190388e-15
3.8835489e-15
3.8540231e-15
3.8359817e-15
3.8246167e-15
3.8186895e-15
3.8186874e-15
3.8246147e-15
3.835976e-15
3.854021e-15
3.8835512e-15
3.9190419e-15
3.9472696e-15
3.9119885e-15
3.6195437e-15
2.4168667e-15
3.9145539e-16
9.6570351e-16
1.1787264e-15
1.2311279e-15
1.2252829e-15
1.2044409e-15
1.1836113e-15
1.1695475e-15
1.1604402e-15
1.1558759e-15
1.1558745e-15
1.1604386e-15
1.1695435e-15
1.1836093e-15
1.2044414e-15
1.2252834e-15
1.231131e-15
1.1787274e-15
9.6570466e-16
3.914565e-16
4.6012461e-17
2.2390587e-16
3.2851481e-16
3.6623571e-16
3.7054542e-16
3.6297247e-16
3.5323692e-16
3.4603711e-16
3.4120826e-16
3.3880106e-16
3.3880039e-16
3.4120738e-16
3.4603505e-16
3.5323567e-16
3.6297235e-16
3.7054513e-16
3.6623669e-16
3.2851506e-16
2.2390601e-16
4.6012646e-17
4.1956316e-18
4.544436e-17
8.4563028e-17
1.0338233e-16
1.0787002e-16
1.0602678e-16
1.0248542e-16
9.9612294e-17
9.7617792e-17
9.6621105e-17
9.6620844e-17
9.7617384e-17
9.9611433e-17
1.0248482e-16
1.060266e-16
1.0786971e-16
1.0338254e-16
8.4563067e-17
4.5444339e-17
4.1956545e-18
3.1709609e-19
8.2139628e-18
2.0229793e-17
2.7702817e-17
3.016448e-17
2.9954174e-17
2.8879769e-17
2.7910675e-17
2.7214811e-17
2.6865422e-17
2.6865334e-17
2.7214647e-17
2.791036e-17
2.8879525e-17
2.9954069e-17
3.0164315e-17
2.7702831e-17
2.0229796e-17
8.2139484e-18
3.1709859e-19
2.088728e-20
1.3501848e-18
4.5421786e-18
7.0736034e-18
8.1070201e-18
8.1793479e-18
7.8997379e-18
7.6114541e-18
7.3970794e-18
7.2888171e-18
7.2887899e-18
7.3970207e-18
7.6113503e-18
7.8996483e-18
8.1792996e-18
8.1069517e-18
7.0735901e-18
4.5421774e-18
1.3501808e-18
2.0887512e-20
1.2397644e-21
2.0603748e-19
9.6760564e-19
1.7300284e-18
2.0983637e-18
2.1599164e-18
2.0974588e-18
2.0199961e-18
1.9601204e-18
1.9296673e-18
1.9296595e-18
1.960101e-18
2.0199644e-18
2.0974286e-18
2.159897e-18
2.09834e-18
1.7300198e-18
9.6760482e-19
2.0603668e-19
1.2397836e-21
6.7762262e-23
2.9732217e-20
1.9755396e-19
4.073988e-19
5.2435604e-19
5.5216412e-19
5.4063104e-19
5.2157644e-19
5.0615892e-19
4.9824577e-19
4.9824358e-19
5.0615294e-19
5.2156723e-19
5.4062151e-19
5.5215703e-19
5.2434876e-19
4.0739527e-19
1.9755362e-19
2.9732084e-20
6.7763687e-23
3.4634821e-24
4.1228567e-21
3.898623e-20
9.2780276e-20
1.2678583e-19
1.3679249e-19
1.3529325e-19
1.3097521e-19
1.2727526e-19
1.2535299e-19
1.2535239e-19
1.2727351e-19
1.3097264e-19
1.3529041e-19
1.3679009e-19
1.2678376e-19
9.2779118e-20
3.8986107e-20
4.1228373e-21
3.4635748e-24
1.6768349e-25
5.5688076e-22
7.4848779e-21
2.0502073e-20
2.9714431e-20
3.2866801e-20
3.2869745e-20
3.1968034e-20
3.1134612e-20
3.0694407e-20
3.0694247e-20
3.1134128e-20
3.1967338e-20
3.2868937e-20
3.2866057e-20
2.9713872e-20
2.0501738e-20
7.4848388e-21
5.5687801e-22
1.6768894e-25
7.7900162e-27
7.4071171e-23
1.4041881e-21
4.4056469e-21
6.758374e-21
7.6624806e-21
7.75166e-21
7.5793408e-21
7.4023775e-21
7.3067867e-21
7.3067449e-21
7.4022494e-21
7.5791579e-21
7.7514398e-21
7.6622643e-21
6.7582269e-21
4.4055581e-21
1.4041768e-21
7.4070737e-23
7.7903086e-27
3.5256048e-28
9.7773264e-24
2.5808032e-22
9.2186555e-22
1.4929375e-21
1.7339172e-21
1.7742026e-21
1.7446401e-21
1.7091469e-21
1.689385e-21
1.6893742e-21
1.7091142e-21
1.7445933e-21
1.7741452e-21
1.7338584e-21
1.4928997e-21
9.2184345e-22
2.5807735e-22
9.777252e-24
3.5257459e-28
1.5841343e-29
1.286313e-24
4.652274e-23
1.8796352e-22
3.2047791e-22
3.8091652e-22
3.9408727e-22
3.8975243e-22
3.8302842e-22
3.7912904e-22
3.7912635e-22
3.8302039e-22
3.897408e-22
3.9407288e-22
3.8090146e-22
3.2046837e-22
1.8795827e-22
4.6522006e-23
1.2862995e-24
1.5841944e-29
7.2292179e-31
1.6885393e-25
8.2264666e-24
3.7356406e-23
6.6878505e-23
8.1259843e-23
8.4956385e-23
8.4494835e-23
8.329464e-23
8.2559282e-23
8.2558638e-23
8.3292745e-23
8.4492039e-23
8.4952905e-23
8.1256182e-23
6.6876153e-23
3.7355207e-23
8.2262977e-24
1.6885146e-25
7.2294333e-31
3.4296412e-32
2.2086996e-26
1.4262834e-24
7.2377068e-24
1.3572652e-23
1.6838409e-23
1.7779466e-23
1.7777925e-23
1.757729e-23
1.7444712e-23
1.7444564e-23
1.7576857e-23
1.7777275e-23
1.7778656e-23
1.6837558e-23
1.357209e-23
7.2374419e-24
1.4262468e-24
2.2086558e-26
3.4296937e-32
1.720062e-33
2.8709869e-27
2.4229545e-25
1.3671599e-24
2.6797658e-24
3.3906331e-24
3.613529e-24
3.63147e-24
3.6004396e-24
3.5776061e-24
3.577573e-24
3.6003436e-24
3.631324e-24
3.6133473e-24
3.3904429e-24
2.6796363e-24
1.367103e-24
2.4228792e-25
2.8709129e-27
1.7200558e-33
9.1510042e-35
3.6965376e-28
4.0302091e-26
2.5180853e-25
5.1494944e-25
6.6379076e-25
7.1360905e-25
7.2052116e-25
7.1619355e-25
7.1244457e-25
7.124374e-25
7.1617291e-25
7.2048954e-25
7.1356971e-25
6.6374984e-25
5.1492078e-25
2.5179662e-25
4.0300601e-26
3.6964188e-28
9.1507891e-35
5.1123732e-36
4.7000368e-29
6.5598944e-27
4.5230551e-26
9.6353953e-26
1.2641576e-25
1.370161e-25
1.3894356e-25
1.3843262e-25
1.3784808e-25
1.3784657e-25
1.3842833e-25
1.3893694e-25
1.3700787e-25
1.2640726e-25
9.6347848e-26
4.5228124e-26
6.5596117e-27
4.6998552e-29
5.1121626e-36
2.9482667e-37
5.8862333e-30
1.044404e-27
7.9252293e-27
1.7564304e-26
2.34349e-26
2.559521e-26
2.6058911e-26
2.6018388e-26
2.5932431e-26
2.5932125e-26
2.6017523e-26
2.6057569e-26
2.5593547e-26
2.3433193e-26
1.7563052e-26
7.9247484e-27
1.0443523e-27
5.8859667e-30
2.9481045e-37
1.725735e-38
7.2468172e-31
1.6260462e-28
1.3550225e-27
3.1209124e-27
4.2315844e-27
4.655111e-27
4.7568383e-27
4.7586008e-27
4.7468297e-27
4.7467702e-27
4.7584316e-27
4.7565751e-27
4.6547851e-27
4.2312514e-27
3.1206652e-27
1.3549299e-27
1.6259543e-28
7.2464386e-31
1.7256204e-38
1.0122027e-39
8.7581737e-32
2.4754145e-29
2.2614908e-28
5.4083311e-28
7.4475404e-28
8.2489697e-28
8.4576747e-28
8.4755464e-28
8.4609126e-28
8.4608001e-28
8.4752257e-28
8.457174e-28
8.24835e-28
7.4469089e-28
5.4078591e-28
2.2613179e-28
2.4752554e-29
8.7576506e-32
1.0119846e-39
5.9070894e-41
1.0380504e-32
3.6849225e-30
3.6858103e-29
9.1458157e-29
1.2784517e-28
1.4252154e-28
1.4658176e-28
1.4712241e-28
1.4696701e-28
1.4696496e-28
1.471165e-28
1.4657251e-28
1.425101e-28
1.2783353e-28
9.1449434e-29
3.6854961e-29
3.684654e-30
1.0379797e-32
5.8944481e-41
3.4411518e-42
1.2058696e-33
5.3645593e-31
5.8687978e-30
1.5101036e-29
2.141926e-29
2.4025877e-29
2.4781359e-29
2.490807e-29
2.4896713e-29
2.489635e-29
2.4907011e-29
2.47797e-29
2.4023825e-29
2.141717e-29
1.5099472e-29
5.868242e-30
5.3641164e-31
1.2057755e-33
3.3915376e-42
2.0526958e-43
1.3725086e-34
7.6394049e-32
9.1335414e-31
2.4359153e-30
3.5047165e-30
3.95452e-30
4.0897522e-30
4.1159417e-30
4.1162759e-30
4.1162127e-30
4.1157576e-30
4.0894626e-30
3.9541613e-30
3.5043507e-30
2.4356426e-30
9.1325845e-31
7.638691e-32
1.3723858e-34
1.9214506e-43
1.3314029e-44
1.5304015e-35
1.0644498e-32
1.3899641e-31
3.8408843e-31
5.6040264e-31
6.3593266e-31
6.5931707e-31
6.6431191e-31
6.6468517e-31
6.6467444e-31
6.6428071e-31
6.5926785e-31
6.3587159e-31
5.603402e-31
3.8404213e-31
1.3898035e-31
1.0643373e-32
1.5302429e-35
1.0698656e-44
1.0068626e-45
1.6717721e-36
1.4516777e-33
2.0694013e-32
5.9231318e-32
8.7620774e-32
9.997855e-32
1.0389708e-31
1.0479519e-31
1.0489919e-31
1.0489741e-31
1.0479002e-31
1.0388892e-31
9.9968405e-32
8.7610374e-32
5.9223648e-32
2.0691383e-32
1.4515039e-33
1.6715704e-36
5.848533e-46
8.9138379e-47
1.7892949e-37
1.9384164e-34
3.0155408e-33
8.9382882e-33
1.3403689e-32
1.5376046e-32
1.6013913e-32
1.6168006e-32
1.6190302e-32
1.6190012e-32
1.6167172e-32
1.6012592e-32
1.5374401e-32
1.3402e-32
8.9370465e-33
3.0151202e-33
1.9381543e-34
1.7890423e-37
3.1372881e-47
8.5684001e-48
1.8767424e-38
2.5352309e-35
4.3029503e-34
1.320582e-33
2.0072107e-33
2.3146055e-33
2.4156697e-33
2.4410895e-33
2.4453051e-33
2.4452592e-33
2.4409577e-33
2.4154608e-33
2.3143446e-33
2.0069422e-33
1.3203856e-33
4.3022932e-34
2.5348441e-35
1.876432e-38
1.6510573e-48
8.2441346e-49
1.9295397e-39
3.2489945e-36
6.0151603e-35
1.9111871e-34
2.944045e-34
3.4122841e-34
3.5683907e-34
3.6089153e-34
3.616282e-34
3.6162111e-34
3.6087114e-34
3.5680677e-34
3.4118789e-34
2.9436275e-34
1.9108825e-34
6.0141558e-35
3.2484363e-36
1.9291655e-39
8.5245012e-50
7.5652032e-50
1.945154e-40
4.0814277e-37
8.2414532e-36
2.7106901e-35
4.2315679e-35
4.9292425e-35
5.164633e-35
5.2272949e-35
5.2394569e-35
5.2393496e-35
5.226986e-35
5.1641437e-35
4.9286258e-35
4.2309315e-35
2.7102272e-35
8.2399507e-36
4.080641e-37
1.9447117e-40
4.3184808e-51
6.4861345e-51
1.9232765e-41
5.0278125e-38
1.1072064e-36
3.7696487e-36
5.9631758e-36
6.9807681e-36
7.3276637e-36
7.4218988e-36
7.4410991e-36
7.4409401e-36
7.4214401e-36
7.3269361e-36
6.9798478e-36
5.9622253e-36
3.7689596e-36
1.1069863e-36
5.0267287e-38
1.9227646e-41
2.1608688e-52
5.1733219e-52
1.8657852e-42
6.0760685e-39
1.4591848e-37
5.1423937e-37
8.2428862e-37
9.6967495e-37
1.0196877e-36
1.0335002e-36
1.0364205e-36
1.0363974e-36
1.0334333e-36
1.0195816e-36
9.6954022e-37
8.2414925e-37
5.1413886e-37
1.4588692e-37
6.0746093e-39
1.8652055e-42
1.1093814e-53
)
;

boundaryField
{
    Wall
    {
        type            zeroGradient;
    }
    frontAndBack
    {
        type            empty;
    }
    atmosphere
    {
        type            zeroGradient;
    }
}


// ************************************************************************* //
