/*--------------------------------*- C++ -*----------------------------------*\
| =========                 |                                                 |
| \\      /  F ield         | OpenFOAM: The Open Source CFD Toolbox           |
|  \\    /   O peration     | Version:  3.0.1                                 |
|   \\  /    A nd           | Web:      www.OpenFOAM.org                      |
|    \\/     M anipulation  |                                                 |
\*---------------------------------------------------------------------------*/
FoamFile
{
    version     2.0;
    format      ascii;
    class       volScalarField;
    location    "14";
    object      mZero;
}
// * * * * * * * * * * * * * * * * * * * * * * * * * * * * * * * * * * * * * //

dimensions      [0 0 0 0 0 0 0];

internalField   nonuniform List<scalar> 
800
(
1e+13
1e+13
1e+13
1e+13
1e+13
1e+13
1e+13
1e+13
1e+13
1e+13
1e+13
1e+13
1e+13
1e+13
1e+13
1e+13
1e+13
1e+13
1e+13
1e+13
1e+13
1e+13
1e+13
1e+13
1e+13
1e+13
1e+13
1e+13
1e+13
1e+13
1e+13
1e+13
1e+13
1e+13
1e+13
1e+13
1e+13
1e+13
1e+13
1e+13
9.1072947e+12
9.1133795e+12
9.1142709e+12
9.1143976e+12
9.1144019e+12
9.1143968e+12
9.1143841e+12
9.1143683e+12
9.1143549e+12
9.1143477e+12
9.1143477e+12
9.1143549e+12
9.1143683e+12
9.114384e+12
9.1143968e+12
9.1144019e+12
9.1143975e+12
9.1142708e+12
9.1133794e+12
9.1072946e+12
7.6852986e+12
7.7012635e+12
7.7027264e+12
7.7026367e+12
7.702433e+12
7.7022329e+12
7.7020476e+12
7.701893e+12
7.7017845e+12
7.701729e+12
7.701729e+12
7.7017846e+12
7.7018932e+12
7.7020478e+12
7.7022332e+12
7.7024333e+12
7.7026371e+12
7.7027269e+12
7.701264e+12
7.6852991e+12
6.0084177e+12
6.0482092e+12
6.0514859e+12
6.0514013e+12
6.050806e+12
6.0501849e+12
6.0496196e+12
6.0491714e+12
6.048869e+12
6.0487168e+12
6.0487169e+12
6.0488692e+12
6.0491719e+12
6.0496202e+12
6.0501858e+12
6.050807e+12
6.0514024e+12
6.051487e+12
6.0482104e+12
6.008419e+12
4.2635514e+12
4.3589802e+12
4.374512e+12
4.376982e+12
4.3763262e+12
4.3750266e+12
4.3739143e+12
4.3729339e+12
4.3723209e+12
4.372007e+12
4.3720072e+12
4.3723213e+12
4.3729346e+12
4.3739152e+12
4.3750278e+12
4.3763276e+12
4.3769835e+12
4.3745137e+12
4.3589819e+12
4.2635536e+12
2.5384415e+12
2.708483e+12
2.7561919e+12
2.7664362e+12
2.7668239e+12
2.7648545e+12
2.763105e+12
2.7617389e+12
2.7608776e+12
2.7603512e+12
2.7603514e+12
2.7608777e+12
2.7617391e+12
2.7631058e+12
2.7648553e+12
2.7668252e+12
2.7664382e+12
2.7561935e+12
2.7084848e+12
2.5384442e+12
1.1916909e+12
1.4309483e+12
1.5176761e+12
1.5405703e+12
1.5426531e+12
1.5397528e+12
1.5363326e+12
1.5344401e+12
1.5330844e+12
1.5322455e+12
1.5322452e+12
1.5330842e+12
1.5344392e+12
1.5363324e+12
1.5397531e+12
1.5426536e+12
1.540572e+12
1.5176764e+12
1.4309495e+12
1.1916934e+12
3.8950994e+11
6.5037136e+11
7.5357702e+11
7.8616028e+11
7.9022048e+11
7.8612009e+11
7.8072648e+11
7.7741677e+11
7.7513028e+11
7.7391473e+11
7.739141e+11
7.7512976e+11
7.7741497e+11
7.8072548e+11
7.8611983e+11
7.9022e+11
7.8616091e+11
7.5357646e+11
6.5037149e+11
3.8951134e+11
8.4828215e+10
2.5283813e+11
3.3997544e+11
3.7336896e+11
3.7999146e+11
3.77147e+11
3.7218023e+11
3.6865013e+11
3.6620973e+11
3.6497773e+11
3.6497716e+11
3.6620907e+11
3.6864837e+11
3.72179e+11
3.7714639e+11
3.7999044e+11
3.7336877e+11
3.3997461e+11
2.5283766e+11
8.4828645e+10
1.2934117e+10
8.4639146e+10
1.399068e+11
1.6557304e+11
1.7248968e+11
1.7151776e+11
1.6838518e+11
1.6582541e+11
1.6402339e+11
1.6312499e+11
1.6312463e+11
1.6402279e+11
1.6582417e+11
1.6838416e+11
1.7151712e+11
1.7248865e+11
1.6557251e+11
1.3990616e+11
8.4638674e+10
1.2934196e+10
1.5012385e+09
2.4844357e+10
5.2944079e+10
6.8741616e+10
7.3991112e+10
7.4076799e+10
7.2558352e+10
7.1119312e+10
7.0081097e+10
6.9563877e+10
6.9563688e+10
7.0080678e+10
7.1118591e+10
7.2557671e+10
7.4076309e+10
7.3990373e+10
6.874113e+10
5.2943698e+10
2.4844096e+10
1.5012477e+09
1.4420531e+08
6.5608203e+09
1.8602315e+10
2.6804609e+10
3.0002002e+10
3.0372491e+10
2.9777847e+10
2.9104208e+10
2.8603312e+10
2.8352725e+10
2.8352636e+10
2.8603069e+10
2.9103838e+10
2.977746e+10
3.0372175e+10
3.0001581e+10
2.6804292e+10
1.8602125e+10
6.5607162e+09
1.4420599e+08
12292338
1.6000878e+09
6.1228708e+09
9.8479074e+09
1.1504157e+10
1.1814632e+10
1.1626111e+10
1.1353293e+10
1.1142499e+10
1.1036225e+10
1.1036185e+10
1.1142378e+10
1.135312e+10
1.1625914e+10
1.1814454e+10
1.1503953e+10
9.8477413e+09
6.1227859e+09
1.6000541e+09
12292345
983391.13
3.6801267e+08
1.9013563e+09
3.4185895e+09
4.1744082e+09
4.3586263e+09
4.3135784e+09
4.2160135e+09
4.1367423e+09
4.0962959e+09
4.0962785e+09
4.1366879e+09
4.2159381e+09
4.3134879e+09
4.3585371e+09
4.1743207e+09
3.4185148e+09
1.9013222e+09
3.680032e+08
983383.93
77239.59
80896983
5.5984998e+08
1.1239268e+09
1.4348119e+09
1.5251514e+09
1.519982e+09
1.488872e+09
1.4618363e+09
1.4478009e+09
1.4477937e+09
1.461814e+09
1.4888411e+09
1.5199437e+09
1.5251112e+09
1.4347774e+09
1.123897e+09
5.5983752e+08
80894553
77238.095
6151.2903
17111352
1.5682177e+08
3.506502e+08
4.67724e+08
5.0646581e+08
5.0866571e+08
4.9981096e+08
4.913713e+08
4.8688435e+08
4.8688156e+08
4.9136284e+08
4.9979895e+08
5.0865065e+08
5.0644934e+08
4.677111e+08
3.5063932e+08
1.5681761e+08
17110769
6151.0765
503.92158
3490774.7
41879535
1.0399654e+08
1.4481277e+08
1.5976238e+08
1.6175611e+08
1.5952722e+08
1.5710214e+08
1.5577154e+08
1.5577053e+08
1.5709912e+08
1.5952283e+08
1.6175058e+08
1.5975622e+08
1.4480818e+08
1.0399288e+08
41878245
3490642.6
503.89607
42.317988
686857.6
10679118
29369803
42652780
47933780
48928860
48447000
47803653
47435903
47435556
47802634
48445494
48926955
47931652
42651209
29368647
10678743
686828.86
42.315277
3.5926319
130263.25
2603658.2
7911288.2
11971837
13699771
14097316
14015426
13857767
13762732
13762620
13857442
14014937
14096700
13699086
11971325
7910944.1
2603555.2
130257.28
3.5923641
0.3036233
23797
607726.24
2036066.8
3207927.6
3736128
3874938.2
3867980.3
3832383.1
3809368
3809333.8
3832284.5
3867830.5
3874750.2
3735921.3
3207769
2035969.4
607699.35
23795.809
0.30359828
0.025240115
4186.656
135982.31
501505.11
822098.31
973953.47
1017882.7
1020025.6
1012676.3
1007446.5
1007436.6
1012648.1
1019982.2
1017828.4
973894.58
822051.81
501478.76
135975.65
4186.427
0.025237887
0.0020481142
709.47443
29207.995
118422.36
201853.32
243134.52
255981.02
257476.61
256113.25
254997.93
254995.25
256105.53
257464.66
255966.1
243118.55
201840.43
118415.53
29206.423
709.43211
0.0020479241
0.00016153633
115.86678
6030.77
26852.845
47568.51
58226.902
61740.219
62319.984
62102.073
61879.16
61878.462
62100.064
62316.859
61736.322
58222.768
47565.13
26851.142
6030.4151
115.85928
0.00016152071
1.2358067e-05
18.250238
1198.6824
5856.6177
10777.216
13400.618
14306.6
14488.867
14462.486
14420.893
14420.719
14461.986
14488.088
14305.629
13399.595
10776.374
5856.2095
1198.6054
18.248963
1.2356828e-05
9.1639581e-07
2.7750383
229.66593
1230.4883
2351.2419
2968.7618
3190.3874
3241.0963
3240.2213
3233.0356
3232.9938
3240.102
3240.9104
3190.1558
2968.5192
2351.0419
1230.3941
229.64985
2.77483
9.1630083e-07
6.5869556e-08
0.40775861
42.47521
249.41637
494.71814
634.1107
685.78323
698.71891
699.52871
698.39886
698.38928
699.50142
698.67637
685.73027
634.0554
494.67267
249.39545
42.471972
0.40772577
6.5862522e-08
4.5914913e-09
0.057960488
7.5925201
48.842621
100.53539
130.78144
142.30757
145.38981
145.74932
145.59385
145.59175
145.74332
145.38045
142.29591
130.76929
100.52545
48.838147
7.591889
0.057955469
4.5909827e-09
3.1062965e-10
0.0079784841
1.3133761
9.2528592
19.759513
26.081486
28.548971
29.242687
29.350305
29.333603
29.333161
29.349034
29.240701
28.546496
26.07891
19.757422
9.2519373
1.3132566
0.0079777385
3.1055224e-10
2.0440531e-11
0.0010646994
0.22012073
1.6978526
3.7608922
5.0361698
5.5444771
5.6930674
5.7203436
5.719666
5.7195762
5.7200835
5.6926603
5.5439699
5.0356415
3.760467
1.6976687
0.22009878
0.0010645913
2.0401778e-11
1.3179381e-12
0.00013787933
0.035784249
0.30212304
0.69405046
0.94273839
1.0437314
1.0741841
1.0804314
1.0807441
1.0807265
1.08038
1.0741035
1.0436308
0.94263349
0.69396673
0.30208752
0.035780324
0.00013786399
1.3027759e-12
8.5006124e-14
1.7344786e-05
0.0056486836
0.052192834
0.1243293
0.17128221
0.19067384
0.19666975
0.19800004
0.19813052
0.19812715
0.1979902
0.19665425
0.19065449
0.171262
0.1243133
0.052186179
0.0056480008
1.7342655e-05
8.0930032e-14
5.7240819e-15
2.1215422e-06
0.0008666983
0.0087626761
0.021642398
0.030237062
0.033841666
0.034979465
0.035246895
0.035281956
0.035281328
0.035245067
0.034976579
0.033838055
0.030233281
0.02163943
0.0087614644
0.00086658253
2.121251e-06
4.8950335e-15
4.2535086e-16
2.5254863e-07
0.00012938133
0.0014311702
0.0036645988
0.005191827
0.0058415053
0.0060501407
0.0061013743
0.00610931
0.0061091963
0.0061010437
0.0060496181
0.0058408501
0.0051911397
0.0036640631
0.0014309557
0.00012936219
2.5250957e-07
2.8851449e-16
3.5773357e-17
2.9283897e-08
1.8808492e-05
0.00022760413
0.00060415801
0.00086790903
0.00098160485
0.0010186525
0.0010280652
0.0010296902
0.00102967
0.0010280071
0.0010185605
0.00098148921
0.00086778761
0.00060406384
0.00022756714
1.8805409e-05
2.9278754e-08
1.6584225e-17
3.2868885e-18
3.3102874e-09
2.6649555e-06
3.5276579e-05
9.7066146e-05
0.00014138295
0.00016072683
0.00016710919
0.00016877508
0.00016908528
0.00016908182
0.00016876512
0.0001670934
0.00016070694
0.00014136204
9.7050021e-05
3.5270367e-05
2.6644712e-06
3.3096239e-09
9.3041318e-19
3.0926274e-19
3.6509073e-10
3.6832813e-07
5.3330125e-06
1.5210595e-05
2.2462661e-05
2.5665942e-05
2.6734342e-05
2.7019333e-05
2.7075416e-05
2.7074839e-05
2.7017668e-05
2.6731702e-05
2.5662604e-05
2.2459151e-05
1.52079e-05
5.3319954e-06
3.6825399e-07
3.6500693e-10
5.0984057e-20
2.8277882e-20
3.9315419e-11
4.9696483e-08
7.8701191e-07
2.3266627e-06
3.4835195e-06
4.0003567e-06
4.1743856e-06
4.2216368e-06
4.2313323e-06
4.2312383e-06
4.221365e-06
4.173955e-06
3.99981e-06
3.4829442e-06
2.3262229e-06
7.8684947e-07
4.9685424e-08
3.9305063e-11
2.7307507e-21
2.4423509e-21
4.1368005e-12
6.550613e-09
1.1345858e-07
3.4766282e-07
5.2771604e-07
6.0904383e-07
6.3666073e-07
6.4426942e-07
6.4588208e-07
6.4586714e-07
6.4422612e-07
6.3659203e-07
6.0895635e-07
5.2762395e-07
3.4759276e-07
1.1343326e-07
6.549005e-09
4.1355504e-12
1.4366665e-22
1.9737345e-22
4.2560255e-13
8.4412742e-10
1.5990017e-08
5.0784606e-08
7.8148656e-08
9.0640797e-08
9.491513e-08
9.610717e-08
9.6366357e-08
9.6364036e-08
9.6100421e-08
9.490441e-08
9.0627111e-08
7.8134241e-08
5.0773712e-08
1.5986165e-08
8.4389952e-10
4.254552e-13
7.6054775e-24
)
;

boundaryField
{
    Wall
    {
        type            zeroGradient;
    }
    frontAndBack
    {
        type            empty;
    }
    atmosphere
    {
        type            zeroGradient;
    }
}


// ************************************************************************* //
