/*--------------------------------*- C++ -*----------------------------------*\
| =========                 |                                                 |
| \\      /  F ield         | OpenFOAM: The Open Source CFD Toolbox           |
|  \\    /   O peration     | Version:  3.0.1                                 |
|   \\  /    A nd           | Web:      www.OpenFOAM.org                      |
|    \\/     M anipulation  |                                                 |
\*---------------------------------------------------------------------------*/
FoamFile
{
    version     2.0;
    format      ascii;
    class       surfaceScalarField;
    location    "14";
    object      phi;
}
// * * * * * * * * * * * * * * * * * * * * * * * * * * * * * * * * * * * * * //

dimensions      [0 3 -1 0 0 0 0];

internalField   nonuniform List<scalar> 
1540
(
1.9757316e-10
2.5537452e-08
1.5754901e-10
2.5799938e-08
1.3889392e-10
2.5784038e-08
1.1977064e-10
2.5785773e-08
1.0456286e-10
2.5783153e-08
8.8530835e-11
2.5784826e-08
6.9719617e-11
2.5788158e-08
4.8132285e-11
2.5791292e-08
2.4563709e-11
2.5793491e-08
-2.3392642e-15
2.5794593e-08
-2.4568088e-11
2.5794593e-08
-4.8135339e-11
2.5793491e-08
-6.9720908e-11
2.5791292e-08
-8.8531001e-11
2.5788158e-08
-1.0456301e-10
2.5784826e-08
-1.1977202e-10
2.5783153e-08
-1.3889685e-10
2.5785774e-08
-1.5755313e-10
2.578404e-08
-1.9757619e-10
2.579994e-08
2.553745e-08
7.5022059e-11
5.22169e-08
5.3114002e-11
5.2505872e-08
8.0259861e-11
5.2460267e-08
8.5728925e-11
5.2479085e-08
8.3931274e-11
5.2480687e-08
7.4869887e-11
5.2487051e-08
6.0387116e-11
5.2493828e-08
4.2173819e-11
5.2499272e-08
2.1651444e-11
5.2502872e-08
-3.3951357e-15
5.2504661e-08
-2.1657793e-11
5.2504661e-08
-4.2179054e-11
5.2502871e-08
-6.0390815e-11
5.2499271e-08
-7.4872735e-11
5.2493827e-08
-8.3933888e-11
5.248705e-08
-8.5731792e-11
5.2480687e-08
-8.0263273e-11
5.2479086e-08
-5.3116223e-11
5.2460268e-08
-7.5022444e-11
5.2505874e-08
5.2216898e-08
6.8139184e-11
7.9448605e-08
-1.037908e-12
7.987239e-08
4.1866152e-11
8.0034144e-08
7.490627e-11
8.0056982e-08
8.091748e-11
8.0079203e-08
7.3737944e-11
8.009474e-08
5.9545888e-11
8.0105893e-08
4.1403385e-11
8.0113524e-08
2.1152362e-11
8.0118146e-08
-2.6171844e-15
8.0120318e-08
-2.1157233e-11
8.0120318e-08
-4.1407203e-11
8.0118146e-08
-5.954847e-11
8.0113524e-08
-7.3739539e-11
8.0105893e-08
-8.0918669e-11
8.0094742e-08
-7.4907527e-11
8.0079206e-08
-4.1867221e-11
8.0056986e-08
1.0370349e-12
8.0034149e-08
-6.8138095e-11
7.9872395e-08
7.9448608e-08
3.0899774e-11
1.0276909e-07
2.0508228e-11
1.033609e-07
8.0455971e-11
1.0354653e-07
1.0020757e-10
1.0360523e-07
9.9777481e-11
1.0364454e-07
8.7068909e-11
1.0367015e-07
6.8265448e-11
1.0368586e-07
4.6510484e-11
1.036955e-07
2.3501565e-11
1.0370082e-07
-8.8297092e-16
1.0370323e-07
-2.3503008e-11
1.0370323e-07
-4.6510886e-11
1.0370082e-07
-6.8264454e-11
1.036955e-07
-8.7066851e-11
1.0368586e-07
-9.9774893e-11
1.0367015e-07
-1.0020524e-10
1.0364454e-07
-8.0453599e-11
1.0360524e-07
-2.0506151e-11
1.0354654e-07
-3.0898047e-11
1.033609e-07
1.027691e-07
1.1251068e-10
1.2687402e-07
1.1863636e-10
1.2732276e-07
1.6685966e-10
1.2749188e-07
1.6994263e-10
1.2759603e-07
1.5136302e-10
1.2765756e-07
1.231296e-10
1.2769392e-07
9.2088292e-11
1.2771411e-07
6.099368e-11
1.2772502e-07
3.0369316e-11
1.277308e-07
3.7645614e-16
1.2773347e-07
-3.0368079e-11
1.2773347e-07
-6.0990679e-11
1.277308e-07
-9.2082909e-11
1.2772502e-07
-1.2312313e-10
1.2771411e-07
-1.5135594e-10
1.2769392e-07
-1.6993713e-10
1.2765756e-07
-1.6685458e-10
1.2759604e-07
-1.1863321e-10
1.2749188e-07
-1.1251071e-10
1.2732277e-07
1.2687402e-07
6.2908503e-10
1.3104807e-07
5.7734478e-10
1.3300087e-07
4.484109e-10
1.3336284e-07
3.4968958e-10
1.334461e-07
2.689457e-10
1.3347785e-07
2.0137924e-10
1.3348503e-07
1.4328887e-10
1.3348297e-07
9.2052666e-11
1.3347666e-07
4.4116778e-11
1.3347263e-07
-3.9831138e-17
1.3346792e-07
-4.4116046e-11
1.3346792e-07
-9.2047423e-11
1.3347263e-07
-1.4327725e-10
1.3347666e-07
-2.0136476e-10
1.3348298e-07
-2.6892815e-10
1.3348504e-07
-3.4967583e-10
1.3347788e-07
-4.4841258e-10
1.3344615e-07
-5.7734134e-10
1.3336287e-07
-6.2908735e-10
1.3300091e-07
1.3104809e-07
4.5434068e-09
1.2447825e-07
3.411291e-09
1.3203658e-07
2.1727596e-09
1.325047e-07
1.4352225e-09
1.3208481e-07
9.8248612e-10
1.3183051e-07
6.7929026e-10
1.3168757e-07
4.6467181e-10
1.3159676e-07
2.8893927e-10
1.3155177e-07
1.3821305e-10
1.3152287e-07
-9.4275184e-15
1.3150571e-07
-1.3822271e-10
1.3150571e-07
-2.8894456e-10
1.3152287e-07
-4.6465845e-10
1.3155175e-07
-6.7926334e-10
1.3159675e-07
-9.8246759e-10
1.3168759e-07
-1.4352102e-09
1.3183054e-07
-2.1727496e-09
1.3208485e-07
-3.4112814e-09
1.3250472e-07
-4.543399e-09
1.3203661e-07
1.2447826e-07
2.181427e-08
1.0248294e-07
2.0598025e-08
1.3303007e-07
1.5962474e-08
1.369142e-07
1.1617889e-08
1.3620402e-07
8.2708142e-09
1.3495303e-07
5.7895612e-09
1.3394504e-07
3.913518e-09
1.3324958e-07
2.4280294e-09
1.3281451e-07
1.1643325e-09
1.3256413e-07
-7.5525683e-14
1.3244785e-07
-1.1644872e-09
1.3244783e-07
-2.4281419e-09
1.3256408e-07
-3.9135635e-09
1.3281445e-07
-5.7895611e-09
1.3324953e-07
-8.2707895e-09
1.3394504e-07
-1.1617862e-08
1.3495305e-07
-1.5962442e-08
1.3620405e-07
-2.0598008e-08
1.3691421e-07
-2.1814247e-08
1.3303009e-07
1.0248295e-07
2.4482341e-08
7.7999134e-08
3.1574091e-08
1.2593563e-07
2.9389516e-08
1.3909587e-07
2.419976e-08
1.4139093e-07
1.8681882e-08
1.4046812e-07
1.3763811e-08
1.3886034e-07
9.6027715e-09
1.3740792e-07
6.0636844e-09
1.363509e-07
2.933423e-09
1.3569171e-07
-1.6868441e-13
1.3537881e-07
-2.9337941e-09
1.3537876e-07
-6.0639719e-09
1.3569162e-07
-9.6029797e-09
1.3635076e-07
-1.376396e-08
1.3740779e-07
-1.868195e-08
1.3886029e-07
-2.4199824e-08
1.4046811e-07
-2.9389572e-08
1.4139093e-07
-3.1574133e-08
1.3909589e-07
-2.4482382e-08
1.2593564e-07
7.7999143e-08
1.6987848e-08
6.1011196e-08
2.6908138e-08
1.1601523e-07
2.8612644e-08
1.3739123e-07
2.5815911e-08
1.4418752e-07
2.1252744e-08
1.4503116e-07
1.637681e-08
1.4373614e-07
1.1777068e-08
1.4200756e-07
7.5808518e-09
1.4054701e-07
3.7064124e-09
1.3956607e-07
-1.9015416e-13
1.3908529e-07
-3.7067563e-09
1.3908523e-07
-7.5811624e-09
1.3956595e-07
-1.1777324e-08
1.4054682e-07
-1.6377e-08
1.4200737e-07
-2.1252852e-08
1.4373605e-07
-2.5815985e-08
1.450311e-07
-2.8612695e-08
1.441875e-07
-2.6908185e-08
1.3739122e-07
-1.6987883e-08
1.1601522e-07
6.1011187e-08
1.0396724e-08
5.0614374e-08
1.934667e-08
1.070652e-07
2.2860709e-08
1.338771e-07
2.2237344e-08
1.448108e-07
1.935089e-08
1.4791754e-07
1.5534383e-08
1.4755257e-07
1.1503166e-08
1.4603866e-07
7.550468e-09
1.4449964e-07
3.732767e-09
1.4338369e-07
-1.041003e-13
1.4281809e-07
-3.7329774e-09
1.4281804e-07
-7.5506407e-09
1.4338354e-07
-1.1503296e-08
1.4449945e-07
-1.5534477e-08
1.4603846e-07
-1.9350912e-08
1.4755243e-07
-2.223736e-08
1.4791745e-07
-2.286072e-08
1.4481078e-07
-1.9346678e-08
1.338771e-07
-1.0396766e-08
1.0706519e-07
5.0614375e-08
6.0505776e-09
4.4563763e-08
1.2873987e-08
1.0024174e-07
1.6603043e-08
1.3014796e-07
1.7214771e-08
1.4419906e-07
1.572891e-08
1.4940335e-07
1.3107603e-08
1.5017385e-07
9.9789316e-09
1.4916731e-07
6.6754604e-09
1.4780307e-07
3.3365237e-09
1.467226e-07
-8.6927402e-15
1.4615458e-07
-3.3365161e-09
1.4615452e-07
-6.6754483e-09
1.4672243e-07
-9.9789157e-09
1.4780284e-07
-1.3107567e-08
1.4916708e-07
-1.5728844e-08
1.5017364e-07
-1.7214685e-08
1.4940322e-07
-1.6602991e-08
1.4419899e-07
-1.2873955e-08
1.3014794e-07
-6.0505803e-09
1.0024173e-07
4.4563751e-08
3.4696112e-09
4.1094109e-08
8.2560628e-09
9.545525e-08
1.1458042e-08
1.2694595e-07
1.2547943e-08
1.4310913e-07
1.1969515e-08
1.4998176e-07
1.0318817e-08
1.5182452e-07
8.0602834e-09
1.5142582e-07
5.4891873e-09
1.5037417e-07
2.7724414e-09
1.4943934e-07
8.5090863e-14
1.4892694e-07
-2.7722739e-09
1.4892688e-07
-5.4890224e-09
1.4943919e-07
-8.0601217e-09
1.5037395e-07
-1.0318643e-08
1.5142559e-07
-1.1969346e-08
1.5182432e-07
-1.2547775e-08
1.4998165e-07
-1.1457926e-08
1.4310908e-07
-8.2559803e-09
1.2694598e-07
-3.4696032e-09
9.5455248e-08
4.1094132e-08
2.0156051e-09
3.9078518e-08
5.233302e-09
9.2237524e-08
7.7078784e-09
1.2447142e-07
8.8403669e-09
1.4197664e-07
8.7561413e-09
1.5006601e-07
7.7806992e-09
1.5279996e-07
6.2210695e-09
1.5298552e-07
4.3066106e-09
1.5228861e-07
2.1962176e-09
1.5154974e-07
1.3911671e-13
1.5112305e-07
-2.1959323e-09
1.5112299e-07
-4.3063334e-09
1.5154961e-07
-6.2207798e-09
1.5228842e-07
-7.7804387e-09
1.5298531e-07
-8.7558807e-09
1.5279977e-07
-8.840145e-09
1.5006589e-07
-7.7077022e-09
1.4197661e-07
-5.2331907e-09
1.2447145e-07
-2.0155761e-09
9.2237583e-08
3.9078537e-08
1.2011693e-09
3.787735e-08
3.3261477e-09
9.0112572e-08
5.1324238e-09
1.2266517e-07
6.1161092e-09
1.4099301e-07
6.2564327e-09
1.4992572e-07
5.7088623e-09
1.5334759e-07
4.6597566e-09
1.5403465e-07
3.2733545e-09
1.5367504e-07
1.6838583e-09
1.5313929e-07
1.7109512e-13
1.5280675e-07
-1.6835011e-09
1.528067e-07
-3.273029e-09
1.5313916e-07
-4.6594371e-09
1.5367487e-07
-5.708538e-09
1.5403445e-07
-6.2561558e-09
1.5334742e-07
-6.1158489e-09
1.4992561e-07
-5.1322271e-09
1.4099296e-07
-3.3260262e-09
1.2266526e-07
-1.2011138e-09
9.0112676e-08
3.7877403e-08
7.3524493e-10
3.7142149e-08
2.1328457e-09
8.8714998e-08
3.4114326e-09
1.213866e-07
4.1941541e-09
1.402103e-07
4.4085914e-09
1.4971132e-07
4.1154406e-09
1.5364078e-07
3.4199172e-09
1.5473024e-07
2.4333211e-09
1.5466168e-07
1.2613321e-09
1.5431133e-07
1.6741917e-13
1.5406796e-07
-1.2609729e-09
1.5406793e-07
-2.4329788e-09
1.5431121e-07
-3.4195751e-09
1.5466149e-07
-4.1151394e-09
1.5473005e-07
-4.4083043e-09
1.5364058e-07
-4.1939007e-09
1.4971123e-07
-3.4112348e-09
1.4021032e-07
-2.132703e-09
1.2138674e-07
-7.3519791e-10
8.8715155e-08
3.7142203e-08
4.6046674e-10
3.6681721e-08
1.3819273e-09
8.7793566e-08
2.2726073e-09
1.2049596e-07
2.8656188e-09
1.3961735e-07
3.0809686e-09
1.4949603e-07
2.9321416e-09
1.5378964e-07
2.4741458e-09
1.5518829e-07
1.7798358e-09
1.5535605e-07
9.286881e-10
1.5516252e-07
1.6099762e-13
1.5499657e-07
-9.2836987e-10
1.5499654e-07
-1.7795101e-09
1.5516241e-07
-2.4738134e-09
1.5535588e-07
-2.9318563e-09
1.551881e-07
-3.0806968e-09
1.5378949e-07
-2.86539e-09
1.4949596e-07
-2.2724356e-09
1.3961739e-07
-1.3818008e-09
1.2049615e-07
-4.6041248e-10
8.7793785e-08
3.6681784e-08
2.934822e-10
3.6388247e-08
9.0406038e-10
8.7183029e-08
1.5196463e-09
1.1988042e-07
1.9559321e-09
1.391811e-07
2.1424817e-09
1.493095e-07
2.0721785e-09
1.5385996e-07
1.7711816e-09
1.5548931e-07
1.2860665e-09
1.5584119e-07
6.7484754e-10
1.5577377e-07
1.3875149e-13
1.5567132e-07
-6.7456732e-10
1.5567129e-07
-1.2857915e-09
1.557737e-07
-1.7709288e-09
1.5584105e-07
-2.0719354e-09
1.5548915e-07
-2.1422532e-09
1.5385984e-07
-1.9557175e-09
1.4930944e-07
-1.5194988e-09
1.3918119e-07
-9.0395355e-10
1.1988063e-07
-2.9343563e-10
8.7183255e-08
3.6388344e-08
1.8938301e-10
3.6198888e-08
5.9614168e-10
8.677629e-08
1.0200862e-09
1.1945648e-07
1.3350717e-09
1.388661e-07
1.4851769e-09
1.4915938e-07
1.4559169e-09
1.5388923e-07
1.2579433e-09
1.556873e-07
9.2055518e-10
1.5617856e-07
4.8536544e-10
1.5620903e-07
9.8191988e-14
1.5615659e-07
-4.8514665e-10
1.5615656e-07
-9.2034543e-10
1.5620894e-07
-1.257734e-09
1.5617845e-07
-1.4557225e-09
1.5568717e-07
-1.485027e-09
1.5388914e-07
-1.3348995e-09
1.4915937e-07
-1.0199682e-09
1.3886621e-07
-5.9605682e-10
1.1945671e-07
-1.8932934e-10
8.677655e-08
3.6198978e-08
1.2318461e-10
3.6075716e-08
3.9548087e-10
8.6503976e-08
6.8700545e-10
1.1916496e-07
9.1178039e-10
1.3864134e-07
1.0273524e-09
1.4904381e-07
1.018441e-09
1.5389816e-07
8.8789419e-10
1.5581781e-07
6.5407485e-10
1.564124e-07
3.4622676e-10
1.5651684e-07
6.7180664e-14
1.5650273e-07
-3.4607242e-10
1.5650271e-07
-6.5390827e-10
1.5651676e-07
-8.8776399e-10
1.5641231e-07
-1.0183161e-09
1.5581774e-07
-1.027254e-09
1.5389811e-07
-9.1169391e-10
1.4904383e-07
-6.8693335e-10
1.3864149e-07
-3.9544384e-10
1.1916521e-07
-1.2315224e-10
8.6504268e-08
3.6075826e-08
8.0496909e-11
3.5995203e-08
2.6346297e-10
8.6320968e-08
4.6387571e-10
1.1896455e-07
6.2299131e-10
1.3848225e-07
7.0953529e-10
1.4895724e-07
7.099847e-10
1.538977e-07
6.2365855e-10
1.5590414e-07
4.619439e-10
1.5657409e-07
2.4534781e-10
1.567334e-07
7.0123759e-14
1.5674801e-07
-2.452284e-10
1.5674798e-07
-4.6182127e-10
1.5673337e-07
-6.2354144e-10
1.5657402e-07
-7.0988541e-10
1.5590404e-07
-7.0947891e-10
1.5389766e-07
-6.2292599e-10
1.4895726e-07
-4.6382889e-10
1.3848238e-07
-2.6345359e-10
1.1896481e-07
-8.0489091e-11
8.6321271e-08
3.5995346e-08
5.2703431e-11
3.5942482e-08
1.7600318e-10
8.6197619e-08
3.1377061e-10
1.1882677e-07
4.2576044e-10
1.3837022e-07
4.8938435e-10
1.4889362e-07
4.9354905e-10
1.5389358e-07
4.3627291e-10
1.5596141e-07
3.2463717e-10
1.5668571e-07
1.7291059e-10
1.5688515e-07
3.4362594e-14
1.5692087e-07
-1.7284847e-10
1.5692084e-07
-3.2457638e-10
1.5688508e-07
-4.3620028e-10
1.5668563e-07
-4.9349142e-10
1.559613e-07
-4.8935392e-10
1.538935e-07
-4.257293e-10
1.4889361e-07
-3.1373821e-10
1.3837036e-07
-1.7598241e-10
1.1882705e-07
-5.2677903e-11
8.6197971e-08
3.5942642e-08
3.449328e-11
3.5907965e-08
1.1773768e-10
8.6114374e-08
2.1243535e-10
1.1873207e-07
2.9096458e-10
1.3829167e-07
3.3711087e-10
1.4884743e-07
3.4225809e-10
1.5388843e-07
3.0415149e-10
1.5599949e-07
2.2722511e-10
1.5676265e-07
1.2130021e-10
1.5699103e-07
2.806755e-15
1.5704214e-07
-1.2126876e-10
1.5704212e-07
-2.2719834e-10
1.5699099e-07
-3.0413797e-10
1.5676256e-07
-3.422368e-10
1.5599938e-07
-3.3710135e-10
1.5388835e-07
-2.909425e-10
1.4884742e-07
-2.1241371e-10
1.382918e-07
-1.1771165e-10
1.1873233e-07
-3.4491377e-11
8.6114698e-08
3.5908108e-08
2.255011e-11
3.5885397e-08
7.8809078e-11
8.6058105e-08
1.4386167e-10
1.1866699e-07
1.987541e-10
1.3823677e-07
2.3192133e-10
1.4881424e-07
2.3683205e-10
1.538835e-07
2.1143806e-10
1.5602486e-07
1.5847638e-10
1.5681559e-07
8.4776441e-11
1.5706474e-07
-1.7763105e-14
1.5712689e-07
-8.4775935e-11
1.5712687e-07
-1.5848076e-10
1.5706467e-07
-2.1143624e-10
1.568155e-07
-2.3681906e-10
1.5602474e-07
-2.3192529e-10
1.538834e-07
-1.987605e-10
1.4881422e-07
-1.4386081e-10
1.3823687e-07
-7.8763596e-11
1.1866724e-07
-2.2547446e-11
8.605846e-08
3.5885569e-08
1.4699534e-11
3.5870673e-08
5.270638e-11
8.6020078e-08
9.7401519e-11
1.1862227e-07
1.3566909e-10
1.381985e-07
1.5932982e-10
1.4879057e-07
1.6353371e-10
1.5387929e-07
1.4658372e-10
1.5604179e-07
1.1017938e-10
1.5685197e-07
5.901851e-11
1.5711586e-07
-3.8988917e-14
1.5718593e-07
-5.9092457e-11
1.5718589e-07
-1.1022303e-10
1.571158e-07
-1.4661738e-10
1.5685187e-07
-1.635514e-10
1.5604166e-07
-1.5934624e-10
1.5387917e-07
-1.3566941e-10
1.4879053e-07
-9.7370723e-11
1.3819856e-07
-5.2659142e-11
1.1862252e-07
-1.4675116e-11
8.6020447e-08
3.5870863e-08
9.5459633e-12
3.5861125e-08
3.5203205e-11
8.5994382e-08
6.5882486e-11
1.1859155e-07
9.2523624e-11
1.3817185e-07
1.0929425e-10
1.4877378e-07
1.1268755e-10
1.5387585e-07
1.0136905e-10
1.560531e-07
7.6384325e-11
1.5687696e-07
4.0972393e-11
1.5715129e-07
-5.5987317e-14
1.5722694e-07
-4.1063647e-11
1.5722692e-07
-7.6468698e-11
1.5715122e-07
-1.0143608e-10
1.5687686e-07
-1.127588e-10
1.5605296e-07
-1.0933076e-10
1.5387573e-07
-9.2514125e-11
1.4877368e-07
-6.5859271e-11
1.3817189e-07
-3.5151674e-11
1.185918e-07
-9.5070624e-12
8.5994737e-08
3.5861315e-08
6.1453394e-12
3.585498e-08
2.3445327e-11
8.597702e-08
4.4504544e-11
1.1857049e-07
6.2998673e-11
1.3815336e-07
7.4867238e-11
1.4876192e-07
7.7516873e-11
1.5387318e-07
6.9948183e-11
1.5606065e-07
5.2806282e-11
1.5689409e-07
2.8336819e-11
1.5717574e-07
-6.6958501e-14
1.5725535e-07
-2.8495883e-11
1.5725532e-07
-5.2925064e-11
1.5717566e-07
-7.0061012e-11
1.5689396e-07
-7.7612437e-11
1.560605e-07
-7.492273e-11
1.5387302e-07
-6.301328e-11
1.4876179e-07
-4.4513488e-11
1.3815335e-07
-2.3455936e-11
1.1857072e-07
-6.1337886e-12
8.5977409e-08
3.5855185e-08
3.9224939e-12
3.5851032e-08
1.559882e-11
8.5965333e-08
3.0014195e-11
1.1855607e-07
4.2857641e-11
1.381405e-07
5.1166257e-11
1.4875354e-07
5.3221853e-11
1.5387112e-07
4.815052e-11
1.5606569e-07
3.6419811e-11
1.569058e-07
1.9551395e-11
1.5719257e-07
-9.7949371e-14
1.5727498e-07
-1.9746609e-11
1.5727495e-07
-3.6608683e-11
1.571925e-07
-4.8325967e-11
1.5690566e-07
-5.3365668e-11
1.5606553e-07
-5.1303078e-11
1.5387094e-07
-4.2891588e-11
1.4875339e-07
-3.0045195e-11
1.3814047e-07
-1.5604457e-11
1.1855625e-07
-3.9277685e-12
8.5965724e-08
3.5851263e-08
2.4577431e-12
3.5848555e-08
1.033089e-11
8.5957475e-08
2.0197739e-11
1.1854616e-07
2.9067741e-11
1.3813157e-07
3.4923235e-11
1.4874767e-07
3.6455618e-11
1.5386959e-07
3.3090303e-11
1.5606907e-07
2.5054618e-11
1.5691382e-07
1.343435e-11
1.5720418e-07
-1.3458492e-13
1.5728852e-07
-1.3694296e-11
1.5728851e-07
-2.5291784e-11
1.5720409e-07
-3.3324295e-11
1.5691365e-07
-3.6674968e-11
1.5606887e-07
-3.5106009e-11
1.5386938e-07
-2.9199783e-11
1.4874748e-07
-2.0287033e-11
1.3813152e-07
-1.0348384e-11
1.1854633e-07
-2.4904385e-12
8.5957816e-08
3.5848776e-08
1.5246429e-12
3.5846991e-08
6.8027668e-12
8.5952165e-08
1.3559368e-11
1.1853938e-07
1.9708154e-11
1.3812543e-07
2.3820277e-11
1.4874353e-07
2.4939693e-11
1.5386842e-07
2.2690234e-11
1.560713e-07
1.7200898e-11
1.5691927e-07
9.1978719e-12
1.5721215e-07
-1.4766149e-13
1.5729786e-07
-9.5134772e-12
1.5729784e-07
-1.7512337e-11
1.5721207e-07
-2.2991189e-11
1.5691911e-07
-2.5250324e-11
1.560711e-07
-2.4063757e-11
1.5386821e-07
-1.9915623e-11
1.4874332e-07
-1.3694927e-11
1.3812532e-07
-6.8806061e-12
1.1853947e-07
-1.552953e-12
8.5952457e-08
3.5847188e-08
9.3112812e-13
3.5846032e-08
4.475299e-12
8.5948612e-08
9.082302e-12
1.1853469e-07
1.336168e-11
1.3812114e-07
1.6254782e-11
1.4874063e-07
1.7078007e-11
1.5386756e-07
1.5551731e-11
1.5607278e-07
1.179414e-11
1.5692303e-07
6.2829974e-12
1.5721765e-07
-1.803603e-13
1.5730432e-07
-6.6502352e-12
1.5730428e-07
-1.2160686e-11
1.5721758e-07
-1.593544e-11
1.5692287e-07
-1.7423662e-11
1.5607258e-07
-1.6554321e-11
1.5386733e-07
-1.3625753e-11
1.4874037e-07
-9.286571e-12
1.3812099e-07
-4.6069957e-12
1.1853475e-07
-9.9145207e-13
8.5948849e-08
3.5846218e-08
5.5553603e-13
3.5845447e-08
2.9140367e-12
8.5946189e-08
6.111013e-12
1.185315e-07
9.0878327e-12
1.3811814e-07
1.111342e-11
1.4873855e-07
1.1722714e-11
1.5386692e-07
1.0677897e-11
1.5607379e-07
8.0770421e-12
1.5692559e-07
4.2609697e-12
1.5722145e-07
-2.2031434e-13
1.5730876e-07
-4.705646e-12
1.5730875e-07
-8.5135388e-12
1.5722136e-07
-1.1124572e-11
1.5692544e-07
-1.2123421e-11
1.560736e-07
-1.1508719e-11
1.5386667e-07
-9.427107e-12
1.487383e-07
-6.3976752e-12
1.3811792e-07
-3.0983844e-12
1.1853145e-07
-6.1142538e-13
8.5946329e-08
3.5845572e-08
3.3479156e-13
3.5845109e-08
1.9511759e-12
8.5944549e-08
4.1764594e-12
1.1852923e-07
6.2610719e-12
1.38116e-07
7.6894514e-12
1.4873711e-07
8.1255844e-12
1.5386648e-07
7.4021399e-12
1.5607449e-07
5.5714308e-12
1.5692741e-07
2.886535e-12
1.5722413e-07
-2.4720218e-13
1.5731192e-07
-3.3995886e-12
1.5731189e-07
-6.058486e-12
1.5722406e-07
-7.8962368e-12
1.5692727e-07
-8.5904171e-12
1.560743e-07
-8.1659542e-12
1.5386621e-07
-6.6869918e-12
1.4873683e-07
-4.5125581e-12
1.3811577e-07
-2.1432847e-12
1.1852907e-07
-4.0673223e-13
8.5944555e-08
3.5845166e-08
2.0655554e-13
3.5844857e-08
1.3637755e-12
8.5943384e-08
2.9776517e-12
1.1852759e-07
4.4763978e-12
1.3811448e-07
5.4822422e-12
1.4873606e-07
5.7702913e-12
1.5386616e-07
5.2396472e-12
1.5607502e-07
3.8973942e-12
1.5692872e-07
1.9723387e-12
1.5722604e-07
-2.7884604e-13
1.5731417e-07
-2.5036161e-12
1.5731412e-07
-4.4339162e-12
1.5722597e-07
-5.7787852e-12
1.5692856e-07
-6.2978222e-12
1.5607481e-07
-6.0031079e-12
1.538659e-07
-4.9504352e-12
1.4873576e-07
-3.3456573e-12
1.3811416e-07
-1.6008279e-12
1.1852735e-07
-2.9328245e-13
8.594325e-08
3.584485e-08
1.8569579e-13
3.5844683e-08
1.0829201e-12
8.5942448e-08
2.3149056e-12
1.1852635e-07
3.4374898e-12
1.3811333e-07
4.164361e-12
1.4873534e-07
4.2986882e-12
1.53866e-07
3.8378403e-12
1.5607546e-07
2.8130886e-12
1.5692971e-07
1.3761573e-12
1.5722747e-07
-2.9965988e-13
1.5731582e-07
-1.9643705e-12
1.5731579e-07
-3.4116721e-12
1.572274e-07
-4.4336501e-12
1.569296e-07
-4.8937167e-12
1.5607525e-07
-4.7066164e-12
1.5386573e-07
-3.9533065e-12
1.48735e-07
-2.7310502e-12
1.3811294e-07
-1.34951e-12
1.1852596e-07
-2.6878074e-13
8.5942154e-08
3.584458e-08
1.7664804e-13
3.5844488e-08
1.0520652e-12
8.5941598e-08
2.1212371e-12
1.1852527e-07
2.9998055e-12
1.3811245e-07
3.4907243e-12
1.4873486e-07
3.4825721e-12
1.5386597e-07
3.0138449e-12
1.5607592e-07
2.1780506e-12
1.5693058e-07
9.8854744e-13
1.5722863e-07
-3.0861719e-13
1.5731713e-07
-1.6387762e-12
1.5731709e-07
-2.8065024e-12
1.5722854e-07
-3.6643826e-12
1.5693044e-07
-4.108828e-12
1.5607572e-07
-4.0744767e-12
1.5386568e-07
-3.525185e-12
1.4873446e-07
-2.5338177e-12
1.3811196e-07
-1.3267487e-12
1.1852471e-07
-2.9003932e-13
8.5941118e-08
3.5844285e-08
2.4322291e-13
3.5844261e-08
1.2183369e-12
8.5940607e-08
2.2875639e-12
1.185242e-07
3.0209838e-12
1.381117e-07
3.3188694e-12
1.4873455e-07
3.1689392e-12
1.5386613e-07
2.632238e-12
1.5607644e-07
1.7993016e-12
1.5693139e-07
7.6431878e-13
1.5722965e-07
-3.3960386e-13
1.5731827e-07
-1.4678757e-12
1.5731822e-07
-2.474472e-12
1.5722956e-07
-3.3113642e-12
1.5693124e-07
-3.8256982e-12
1.5607621e-07
-3.9322398e-12
1.5386581e-07
-3.5846626e-12
1.487341e-07
-2.7213472e-12
1.3811111e-07
-1.48905e-12
1.1852353e-07
-3.3283298e-13
8.5939962e-08
3.5843954e-08
3.3341962e-13
3.5843923e-08
1.5778589e-12
8.5939345e-08
2.7468429e-12
1.1852302e-07
3.4136816e-12
1.3811102e-07
3.5366383e-12
1.4873442e-07
3.175445e-12
1.5386648e-07
2.5091275e-12
1.5607713e-07
1.6323983e-12
1.5693229e-07
6.6122181e-13
1.5723063e-07
-3.7454726e-13
1.5731929e-07
-1.3908731e-12
1.5731925e-07
-2.3653677e-12
1.5723053e-07
-3.2089765e-12
1.5693209e-07
-3.8502356e-12
1.5607683e-07
-4.1676121e-12
1.5386609e-07
-3.9797753e-12
1.487339e-07
-3.1946613e-12
1.3811032e-07
-1.8569563e-12
1.1852219e-07
-4.3857817e-13
8.5938525e-08
3.5843535e-08
7.0439848e-13
3.5843203e-08
2.1323721e-12
8.593793e-08
3.3106788e-12
1.1852184e-07
3.8926426e-12
1.3811043e-07
3.8457669e-12
1.4873448e-07
3.3079881e-12
1.5386702e-07
2.480561e-12
1.5607794e-07
1.5403928e-12
1.5693321e-07
5.6292416e-13
1.572316e-07
-4.1070364e-13
1.5732026e-07
-1.3796567e-12
1.5732023e-07
-2.3550161e-12
1.5723148e-07
-3.26052e-12
1.5693302e-07
-4.0335406e-12
1.5607761e-07
-4.5125896e-12
1.5386656e-07
-4.5037254e-12
1.4873387e-07
-3.7852257e-12
1.3810961e-07
-2.4363015e-12
1.1852082e-07
-8.0345215e-13
8.5936895e-08
3.5842703e-08
1.0869591e-12
2.4218603e-12
3.4733601e-12
3.9315677e-12
3.8128653e-12
3.2193359e-12
2.3522586e-12
1.4165968e-12
4.9588558e-13
-4.3737377e-13
-1.359566e-12
-2.26984e-12
-3.2168551e-12
-4.0019262e-12
-4.5180789e-12
-4.55748e-12
-3.9274917e-12
-2.7598684e-12
-1.1958143e-12
)
;

boundaryField
{
    Wall
    {
        type            calculated;
        value           uniform 0;
    }
    frontAndBack
    {
        type            empty;
        value           nonuniform 0();
    }
    atmosphere
    {
        type            calculated;
        value           nonuniform List<scalar> 
20
(
3.5842126e-08
8.5936579e-08
1.185208e-07
1.3810996e-07
1.487346e-07
1.5386761e-07
1.5607877e-07
1.5693416e-07
1.5723254e-07
1.5732115e-07
1.5732112e-07
1.5723241e-07
1.5693393e-07
1.5607841e-07
1.5386707e-07
1.4873388e-07
1.38109e-07
1.1851958e-07
8.5935351e-08
3.5841504e-08
)
;
    }
}


// ************************************************************************* //
