/*--------------------------------*- C++ -*----------------------------------*\
| =========                 |                                                 |
| \\      /  F ield         | OpenFOAM: The Open Source CFD Toolbox           |
|  \\    /   O peration     | Version:  3.0.1                                 |
|   \\  /    A nd           | Web:      www.OpenFOAM.org                      |
|    \\/     M anipulation  |                                                 |
\*---------------------------------------------------------------------------*/
FoamFile
{
    version     2.0;
    format      ascii;
    class       volScalarField;
    location    "14";
    object      Psi2;
}
// * * * * * * * * * * * * * * * * * * * * * * * * * * * * * * * * * * * * * //

dimensions      [0 -2 2 0 0 0 0];

internalField   nonuniform List<scalar> 
800
(
0.0024664157
0.0024664513
0.002466475
0.0024664882
0.002466498
0.0024665057
0.0024665117
0.0024665159
0.0024665187
0.0024665201
0.0024665201
0.0024665187
0.0024665159
0.0024665117
0.0024665057
0.002466498
0.0024664882
0.002466475
0.0024664513
0.0024664157
0.0027595958
0.0027523056
0.0027515564
0.002751351
0.0027511722
0.002751023
0.0027509047
0.0027508191
0.0027507645
0.002750738
0.002750738
0.0027507645
0.0027508191
0.0027509047
0.002751023
0.0027511722
0.002751351
0.0027515564
0.0027523055
0.0027595958
0.0033202001
0.0033085151
0.0033050898
0.0033045828
0.0033042178
0.00330393
0.0033037132
0.0033035617
0.0033034668
0.003303421
0.003303421
0.0033034668
0.0033035617
0.0033037132
0.00330393
0.0033042178
0.0033045828
0.0033050898
0.0033085151
0.0033202002
0.0040488132
0.0040290939
0.0040263995
0.0040256697
0.0040251907
0.0040248441
0.0040246059
0.0040244522
0.0040243607
0.0040243179
0.0040243179
0.0040243607
0.0040244522
0.0040246059
0.0040248441
0.0040251907
0.0040256697
0.0040263994
0.0040290938
0.0040488133
0.0052000124
0.005152678
0.0051490233
0.0051478182
0.0051472085
0.0051468585
0.0051466891
0.0051466148
0.0051465839
0.0051465734
0.0051465734
0.0051465839
0.0051466148
0.005146689
0.0051468583
0.0051472083
0.005147818
0.005149023
0.0051526777
0.0052000122
0.0071215343
0.007054655
0.0070482701
0.0070459358
0.0070451642
0.0070449904
0.0070450237
0.007045186
0.0070452979
0.0070453639
0.0070453638
0.0070452979
0.0070451858
0.0070450234
0.00704499
0.0070451637
0.0070459353
0.0070482693
0.0070546542
0.0071215336
0.0088963512
0.0088106104
0.0087969393
0.008794123
0.0087939868
0.0087946756
0.0087953015
0.0087958851
0.0087962412
0.0087964833
0.0087964832
0.0087962412
0.008795885
0.0087953011
0.0087946751
0.0087939859
0.0087941217
0.0087969382
0.0088106092
0.0088963499
0.010119208
0.010004455
0.0099783615
0.0099751074
0.0099766982
0.0099788968
0.0099807632
0.0099818229
0.009982534
0.0099829769
0.009982977
0.009982534
0.0099818232
0.0099807631
0.0099788963
0.0099766975
0.009975106
0.0099783607
0.010004454
0.010119207
0.010730603
0.010608329
0.010573468
0.01056667
0.010568335
0.010571632
0.010574668
0.010576509
0.010577709
0.010578341
0.010578341
0.010577709
0.01057651
0.010574668
0.010571632
0.010568335
0.010566669
0.010573467
0.010608329
0.010730602
0.010921621
0.010853915
0.010825749
0.010817336
0.01081704
0.010819168
0.010821575
0.010823206
0.01082429
0.010824837
0.010824837
0.01082429
0.010823207
0.010821575
0.010819168
0.01081704
0.010817335
0.010825749
0.010853915
0.010921621
0.010958777
0.010935205
0.010919816
0.010913595
0.010912453
0.010913264
0.01091452
0.010915467
0.010916115
0.010916439
0.010916439
0.010916115
0.010915467
0.01091452
0.010913264
0.010912454
0.010913595
0.010919816
0.010935205
0.010958777
0.010963721
0.010957616
0.010951183
0.010947828
0.010946883
0.010947061
0.010947565
0.01094799
0.010948291
0.010948441
0.010948441
0.010948291
0.01094799
0.010947565
0.010947061
0.010946883
0.010947828
0.010951183
0.010957616
0.010963721
0.010964217
0.010962906
0.010960683
0.010959214
0.010958685
0.010958677
0.010958844
0.010959005
0.010959122
0.010959181
0.010959181
0.010959122
0.010959005
0.010958844
0.010958678
0.010958685
0.010959214
0.010960683
0.010962906
0.010964217
0.010964258
0.010964008
0.010963339
0.010962784
0.010962545
0.010962514
0.010962561
0.010962614
0.010962654
0.010962675
0.010962675
0.010962654
0.010962614
0.010962561
0.010962514
0.010962545
0.010962784
0.010963339
0.010964008
0.010964258
0.010964261
0.010964216
0.010964034
0.010963847
0.010963753
0.010963734
0.010963745
0.010963761
0.010963773
0.01096378
0.01096378
0.010963773
0.010963761
0.010963745
0.010963734
0.010963753
0.010963847
0.010964034
0.010964216
0.010964261
0.010964261
0.010964253
0.010964207
0.010964149
0.010964116
0.010964108
0.010964109
0.010964114
0.010964117
0.010964119
0.010964119
0.010964117
0.010964114
0.010964109
0.010964108
0.010964116
0.010964149
0.010964207
0.010964253
0.010964261
0.010964261
0.01096426
0.010964249
0.010964232
0.010964221
0.010964218
0.010964218
0.010964219
0.01096422
0.010964221
0.010964221
0.01096422
0.010964219
0.010964218
0.010964218
0.010964221
0.010964232
0.010964249
0.01096426
0.010964261
0.010964261
0.010964261
0.010964258
0.010964254
0.01096425
0.010964249
0.010964249
0.010964249
0.01096425
0.01096425
0.01096425
0.01096425
0.010964249
0.010964249
0.010964249
0.01096425
0.010964254
0.010964258
0.010964261
0.010964261
0.010964261
0.010964261
0.01096426
0.010964259
0.010964258
0.010964258
0.010964258
0.010964258
0.010964258
0.010964258
0.010964258
0.010964258
0.010964258
0.010964258
0.010964258
0.010964258
0.010964259
0.01096426
0.010964261
0.010964261
0.010964261
0.010964261
0.010964261
0.010964261
0.01096426
0.01096426
0.01096426
0.01096426
0.01096426
0.01096426
0.01096426
0.01096426
0.01096426
0.01096426
0.01096426
0.01096426
0.010964261
0.010964261
0.010964261
0.010964261
0.010964261
0.010964261
0.010964261
0.010964261
0.010964261
0.010964261
0.010964261
0.010964261
0.010964261
0.010964261
0.010964261
0.010964261
0.010964261
0.010964261
0.010964261
0.010964261
0.010964261
0.010964261
0.010964261
0.010964261
0.010964261
0.010964261
0.010964261
0.010964261
0.010964261
0.010964261
0.010964261
0.010964261
0.010964261
0.010964261
0.010964261
0.010964261
0.010964261
0.010964261
0.010964261
0.010964261
0.010964261
0.010964261
0.010964261
0.010964261
0.010964261
0.010964261
0.010964261
0.010964261
0.010964261
0.010964261
0.010964261
0.010964261
0.010964261
0.010964261
0.010964261
0.010964261
0.010964261
0.010964261
0.010964261
0.010964261
0.010964261
0.010964261
0.010964261
0.010964261
0.010964261
0.010964261
0.010964261
0.010964261
0.010964261
0.010964261
0.010964261
0.010964261
0.010964261
0.010964261
0.010964261
0.010964261
0.010964261
0.010964261
0.010964261
0.010964261
0.010964261
0.010964261
0.010964261
0.010964261
0.010964261
0.010964261
0.010964261
0.010964261
0.010964261
0.010964261
0.010964261
0.010964261
0.010964261
0.010964261
0.010964261
0.010964261
0.010964261
0.010964261
0.010964261
0.010964261
0.010964261
0.010964261
0.010964261
0.010964261
0.010964261
0.010964261
0.010964261
0.010964261
0.010964261
0.010964261
0.010964261
0.010964261
0.010964261
0.010964261
0.010964261
0.010964261
0.010964261
0.010964261
0.010964261
0.010964261
0.010964261
0.010964261
0.010964261
0.010964261
0.010964261
0.010964261
0.010964261
0.010964261
0.010964261
0.010964261
0.010964261
0.010964261
0.010964261
0.010964261
0.010964261
0.010964261
0.010964261
0.010964261
0.010964261
0.010964261
0.010964261
0.010964261
0.010964261
0.010964261
0.010964261
0.010964261
0.010964261
0.010964261
0.010964261
0.010964261
0.010964261
0.010964261
0.010964261
0.010964261
0.010964261
0.010964261
0.010964261
0.010964261
0.010964261
0.010964261
0.010964261
0.010964261
0.010964261
0.010964261
0.010964261
0.010964261
0.010964261
0.010964261
0.010964261
0.010964261
0.010964261
0.010964261
0.010964261
0.010964261
0.010964261
0.010964261
0.010964261
0.010964261
0.010964261
0.010964261
0.010964261
0.010964261
0.010964261
0.010964261
0.010964261
0.010964261
0.010964261
0.010964261
0.010964261
0.010964261
0.010964261
0.010964261
0.010964261
0.010964261
0.010964261
0.010964261
0.010964261
0.010964261
0.010964261
0.010964261
0.010964261
0.010964261
0.010964261
0.010964261
0.010964261
0.010964261
0.010964261
0.010964261
0.010964261
0.010964261
0.010964261
0.010964261
0.010964261
0.010964261
0.010964261
0.010964261
0.010964261
0.010964261
0.010964261
0.010964261
0.010964261
0.010964261
0.010964261
0.010964261
0.010964261
0.010964261
0.010964261
0.010964261
0.010964261
0.010964261
0.010964261
0.010964261
0.010964261
0.010964261
0.010964261
0.010964261
0.010964261
0.010964261
0.010964261
0.010964261
0.010964261
0.010964261
0.010964261
0.010964261
0.010964261
0.010964261
0.010964261
0.010964261
0.010964261
0.010964261
0.010964261
0.010964261
0.010964261
0.010964261
0.010964261
0.010964261
0.010964261
0.010964261
0.010964261
0.010964261
0.010964261
0.010964261
0.010964261
0.010964261
0.010964261
0.010964261
0.010964261
0.010964261
0.010964261
0.010964261
0.010964261
0.010964261
0.010964261
0.010964261
0.010964261
0.010964261
0.010964261
0.010964261
0.010964261
0.010964261
0.010964261
0.010964261
0.010964261
0.010964261
0.010964261
0.010964261
0.010964261
0.010964261
0.010964261
0.010964261
0.010964261
0.010964261
0.010964261
0.010964261
0.010964261
0.010964261
0.010964261
0.010964261
0.010964261
0.010964261
0.010964261
0.010964261
0.010964261
0.010964261
0.010964261
0.010964261
0.010964261
0.010964261
0.010964261
0.010964261
0.010964261
0.010964261
0.010964261
0.010964261
0.010964261
0.010964261
0.010964261
0.010964261
0.010964261
0.010964261
0.010964261
0.010964261
0.010964261
0.010964261
0.010964261
0.010964261
0.010964261
0.010964261
0.010964261
0.010964261
0.010964261
0.010964261
0.010964261
0.010964261
0.010964261
0.010964261
0.010964261
0.010964261
0.010964261
0.010964261
0.010964261
0.010964261
0.010964261
0.010964261
0.010964261
0.010964261
0.010964261
0.010964261
0.010964261
0.010964261
0.010964261
0.010964261
0.010964261
0.010964261
0.010964261
0.010964261
0.010964261
0.010964261
0.010964261
0.010964261
0.010964261
0.010964261
0.010964261
0.010964261
0.010964261
0.010964261
0.010964261
0.010964261
0.010964261
0.010964261
0.010964261
0.010964261
0.010964261
0.010964261
0.010964261
0.010964261
0.010964261
0.010964261
0.010964261
0.010964261
0.010964261
0.010964261
0.010964261
0.010964261
0.010964261
0.010964261
0.010964261
0.010964261
0.010964261
0.010964261
0.010964261
0.010964261
0.010964261
0.010964261
0.010964261
0.010964261
0.010964261
0.010964261
0.010964261
0.010964261
0.010964261
0.010964261
0.010964261
0.010964261
)
;

boundaryField
{
    Wall
    {
        type            calculated;
        value           nonuniform List<scalar> 
100
(
9.9999998e-21
9.9999998e-21
9.9999998e-21
9.9999998e-21
9.9999999e-21
1e-20
1e-20
1e-20
1e-20
1e-20
1e-20
1e-20
1e-20
1e-20
1e-20
1e-20
1e-20
1e-20
1e-20
1e-20
1e-20
1e-20
1e-20
1e-20
1e-20
1e-20
1e-20
1e-20
1e-20
1e-20
1e-20
1e-20
1e-20
1e-20
1e-20
1e-20
1e-20
1e-20
1e-20
1e-20
9.9999998e-21
9.9999998e-21
9.9999998e-21
9.9999998e-21
9.9999999e-21
1e-20
1e-20
1e-20
1e-20
1e-20
1e-20
1e-20
1e-20
1e-20
1e-20
1e-20
1e-20
1e-20
1e-20
1e-20
1e-20
1e-20
1e-20
1e-20
1e-20
1e-20
1e-20
1e-20
1e-20
1e-20
1e-20
1e-20
1e-20
1e-20
1e-20
1e-20
1e-20
1e-20
1e-20
1e-20
9.9999998e-21
9.9999998e-21
9.9999998e-21
9.9999998e-21
9.9999998e-21
9.9999998e-21
9.9999998e-21
9.9999998e-21
9.9999998e-21
9.9999998e-21
9.9999998e-21
9.9999998e-21
9.9999998e-21
9.9999998e-21
9.9999998e-21
9.9999998e-21
9.9999998e-21
9.9999998e-21
9.9999998e-21
9.9999998e-21
)
;
    }
    frontAndBack
    {
        type            empty;
    }
    atmosphere
    {
        type            calculated;
        value           uniform 1e-20;
    }
}


// ************************************************************************* //
