/*--------------------------------*- C++ -*----------------------------------*\
| =========                 |                                                 |
| \\      /  F ield         | OpenFOAM: The Open Source CFD Toolbox           |
|  \\    /   O peration     | Version:  3.0.1                                 |
|   \\  /    A nd           | Web:      www.OpenFOAM.org                      |
|    \\/     M anipulation  |                                                 |
\*---------------------------------------------------------------------------*/
FoamFile
{
    version     2.0;
    format      ascii;
    class       volScalarField;
    location    "14";
    object      rho_foam;
}
// * * * * * * * * * * * * * * * * * * * * * * * * * * * * * * * * * * * * * //

dimensions      [1 -3 0 0 0 0 0];

internalField   nonuniform List<scalar> 
800
(
246.64158
246.64513
246.64751
246.64883
246.6498
246.65058
246.65117
246.6516
246.65187
246.65201
246.65201
246.65187
246.6516
246.65117
246.65058
246.6498
246.64882
246.64751
246.64513
246.64157
275.95959
275.23056
275.15565
275.13511
275.11723
275.1023
275.09047
275.08191
275.07646
275.07381
275.07381
275.07646
275.08191
275.09047
275.1023
275.11723
275.1351
275.15564
275.23056
275.95959
332.02001
330.85152
330.50899
330.45828
330.42178
330.393
330.37132
330.35617
330.34668
330.34211
330.34211
330.34669
330.35618
330.37133
330.39301
330.42179
330.45828
330.50899
330.85152
332.02002
404.88133
402.9094
402.63995
402.56698
402.51907
402.48441
402.4606
402.44522
402.43607
402.4318
402.4318
402.43608
402.44523
402.4606
402.48441
402.51907
402.56697
402.63995
402.90939
404.88133
520.00125
515.26781
514.90234
514.78183
514.72086
514.68585
514.66891
514.66149
514.6584
514.65735
514.65735
514.6584
514.66149
514.66891
514.68583
514.72084
514.7818
514.90231
515.26777
520.00123
712.15343
705.4655
704.82701
704.59359
704.51642
704.49904
704.50237
704.5186
704.52979
704.53639
704.53638
704.52979
704.51859
704.50235
704.499
704.51637
704.59353
704.82694
705.46542
712.15337
889.63512
881.06104
879.69393
879.4123
879.39868
879.46757
879.53015
879.58851
879.62412
879.64833
879.64832
879.62412
879.5885
879.53011
879.46751
879.39859
879.41217
879.69382
881.06092
889.63499
1011.9208
1000.4455
997.83615
997.51074
997.66982
997.88968
998.07632
998.18229
998.2534
998.29769
998.2977
998.2534
998.18232
998.07631
997.88963
997.66975
997.5106
997.83607
1000.4454
1011.9207
1073.0603
1060.8329
1057.3468
1056.667
1056.8335
1057.1632
1057.4668
1057.651
1057.7709
1057.8341
1057.8341
1057.7709
1057.651
1057.4668
1057.1632
1056.8335
1056.6669
1057.3467
1060.8329
1073.0602
1092.1621
1085.3915
1082.5749
1081.7336
1081.704
1081.9168
1082.1575
1082.3206
1082.429
1082.4837
1082.4837
1082.429
1082.3207
1082.1575
1081.9168
1081.704
1081.7335
1082.5749
1085.3915
1092.1621
1095.8777
1093.5205
1091.9816
1091.3595
1091.2453
1091.3264
1091.452
1091.5467
1091.6115
1091.6439
1091.6439
1091.6115
1091.5467
1091.452
1091.3264
1091.2454
1091.3595
1091.9816
1093.5205
1095.8777
1096.3721
1095.7616
1095.1183
1094.7828
1094.6883
1094.7061
1094.7565
1094.799
1094.8291
1094.8441
1094.8441
1094.8291
1094.799
1094.7565
1094.7061
1094.6883
1094.7828
1095.1183
1095.7616
1096.3721
1096.4217
1096.2906
1096.0683
1095.9214
1095.8685
1095.8677
1095.8844
1095.9005
1095.9122
1095.9181
1095.9181
1095.9122
1095.9005
1095.8844
1095.8678
1095.8685
1095.9214
1096.0683
1096.2906
1096.4217
1096.4258
1096.4008
1096.3339
1096.2784
1096.2545
1096.2514
1096.2561
1096.2614
1096.2654
1096.2675
1096.2675
1096.2654
1096.2614
1096.2561
1096.2514
1096.2545
1096.2784
1096.3339
1096.4008
1096.4258
1096.4261
1096.4216
1096.4034
1096.3847
1096.3753
1096.3734
1096.3745
1096.3761
1096.3773
1096.378
1096.378
1096.3773
1096.3761
1096.3745
1096.3734
1096.3753
1096.3847
1096.4034
1096.4216
1096.4261
1096.4261
1096.4253
1096.4207
1096.4149
1096.4116
1096.4108
1096.4109
1096.4114
1096.4117
1096.4119
1096.4119
1096.4117
1096.4114
1096.4109
1096.4108
1096.4116
1096.4149
1096.4207
1096.4253
1096.4261
1096.4261
1096.426
1096.4249
1096.4232
1096.4221
1096.4218
1096.4218
1096.4219
1096.422
1096.4221
1096.4221
1096.422
1096.4219
1096.4218
1096.4218
1096.4221
1096.4232
1096.4249
1096.426
1096.4261
1096.4261
1096.4261
1096.4258
1096.4254
1096.425
1096.4249
1096.4249
1096.4249
1096.425
1096.425
1096.425
1096.425
1096.4249
1096.4249
1096.4249
1096.425
1096.4254
1096.4258
1096.4261
1096.4261
1096.4261
1096.4261
1096.426
1096.4259
1096.4258
1096.4258
1096.4258
1096.4258
1096.4258
1096.4258
1096.4258
1096.4258
1096.4258
1096.4258
1096.4258
1096.4258
1096.4259
1096.426
1096.4261
1096.4261
1096.4261
1096.4261
1096.4261
1096.4261
1096.426
1096.426
1096.426
1096.426
1096.426
1096.426
1096.426
1096.426
1096.426
1096.426
1096.426
1096.426
1096.4261
1096.4261
1096.4261
1096.4261
1096.4261
1096.4261
1096.4261
1096.4261
1096.4261
1096.4261
1096.4261
1096.4261
1096.4261
1096.4261
1096.4261
1096.4261
1096.4261
1096.4261
1096.4261
1096.4261
1096.4261
1096.4261
1096.4261
1096.4261
1096.4261
1096.4261
1096.4261
1096.4261
1096.4261
1096.4261
1096.4261
1096.4261
1096.4261
1096.4261
1096.4261
1096.4261
1096.4261
1096.4261
1096.4261
1096.4261
1096.4261
1096.4261
1096.4261
1096.4261
1096.4261
1096.4261
1096.4261
1096.4261
1096.4261
1096.4261
1096.4261
1096.4261
1096.4261
1096.4261
1096.4261
1096.4261
1096.4261
1096.4261
1096.4261
1096.4261
1096.4261
1096.4261
1096.4261
1096.4261
1096.4261
1096.4261
1096.4261
1096.4261
1096.4261
1096.4261
1096.4261
1096.4261
1096.4261
1096.4261
1096.4261
1096.4261
1096.4261
1096.4261
1096.4261
1096.4261
1096.4261
1096.4261
1096.4261
1096.4261
1096.4261
1096.4261
1096.4261
1096.4261
1096.4261
1096.4261
1096.4261
1096.4261
1096.4261
1096.4261
1096.4261
1096.4261
1096.4261
1096.4261
1096.4261
1096.4261
1096.4261
1096.4261
1096.4261
1096.4261
1096.4261
1096.4261
1096.4261
1096.4261
1096.4261
1096.4261
1096.4261
1096.4261
1096.4261
1096.4261
1096.4261
1096.4261
1096.4261
1096.4261
1096.4261
1096.4261
1096.4261
1096.4261
1096.4261
1096.4261
1096.4261
1096.4261
1096.4261
1096.4261
1096.4261
1096.4261
1096.4261
1096.4261
1096.4261
1096.4261
1096.4261
1096.4261
1096.4261
1096.4261
1096.4261
1096.4261
1096.4261
1096.4261
1096.4261
1096.4261
1096.4261
1096.4261
1096.4261
1096.4261
1096.4261
1096.4261
1096.4261
1096.4261
1096.4261
1096.4261
1096.4261
1096.4261
1096.4261
1096.4261
1096.4261
1096.4261
1096.4261
1096.4261
1096.4261
1096.4261
1096.4261
1096.4261
1096.4261
1096.4261
1096.4261
1096.4261
1096.4261
1096.4261
1096.4261
1096.4261
1096.4261
1096.4261
1096.4261
1096.4261
1096.4261
1096.4261
1096.4261
1096.4261
1096.4261
1096.4261
1096.4261
1096.4261
1096.4261
1096.4261
1096.4261
1096.4261
1096.4261
1096.4261
1096.4261
1096.4261
1096.4261
1096.4261
1096.4261
1096.4261
1096.4261
1096.4261
1096.4261
1096.4261
1096.4261
1096.4261
1096.4261
1096.4261
1096.4261
1096.4261
1096.4261
1096.4261
1096.4261
1096.4261
1096.4261
1096.4261
1096.4261
1096.4261
1096.4261
1096.4261
1096.4261
1096.4261
1096.4261
1096.4261
1096.4261
1096.4261
1096.4261
1096.4261
1096.4261
1096.4261
1096.4261
1096.4261
1096.4261
1096.4261
1096.4261
1096.4261
1096.4261
1096.4261
1096.4261
1096.4261
1096.4261
1096.4261
1096.4261
1096.4261
1096.4261
1096.4261
1096.4261
1096.4261
1096.4261
1096.4261
1096.4261
1096.4261
1096.4261
1096.4261
1096.4261
1096.4261
1096.4261
1096.4261
1096.4261
1096.4261
1096.4261
1096.4261
1096.4261
1096.4261
1096.4261
1096.4261
1096.4261
1096.4261
1096.4261
1096.4261
1096.4261
1096.4261
1096.4261
1096.4261
1096.4261
1096.4261
1096.4261
1096.4261
1096.4261
1096.4261
1096.4261
1096.4261
1096.4261
1096.4261
1096.4261
1096.4261
1096.4261
1096.4261
1096.4261
1096.4261
1096.4261
1096.4261
1096.4261
1096.4261
1096.4261
1096.4261
1096.4261
1096.4261
1096.4261
1096.4261
1096.4261
1096.4261
1096.4261
1096.4261
1096.4261
1096.4261
1096.4261
1096.4261
1096.4261
1096.4261
1096.4261
1096.4261
1096.4261
1096.4261
1096.4261
1096.4261
1096.4261
1096.4261
1096.4261
1096.4261
1096.4261
1096.4261
1096.4261
1096.4261
1096.4261
1096.4261
1096.4261
1096.4261
1096.4261
1096.4261
1096.4261
1096.4261
1096.4261
1096.4261
1096.4261
1096.4261
1096.4261
1096.4261
1096.4261
1096.4261
1096.4261
1096.4261
1096.4261
1096.4261
1096.4261
1096.4261
1096.4261
1096.4261
1096.4261
1096.4261
1096.4261
1096.4261
1096.4261
1096.4261
1096.4261
1096.4261
1096.4261
1096.4261
1096.4261
1096.4261
1096.4261
1096.4261
1096.4261
1096.4261
1096.4261
1096.4261
1096.4261
1096.4261
1096.4261
1096.4261
1096.4261
1096.4261
1096.4261
1096.4261
1096.4261
1096.4261
1096.4261
1096.4261
1096.4261
1096.4261
1096.4261
1096.4261
1096.4261
1096.4261
1096.4261
1096.4261
1096.4261
1096.4261
1096.4261
1096.4261
1096.4261
1096.4261
1096.4261
1096.4261
1096.4261
1096.4261
1096.4261
1096.4261
1096.4261
1096.4261
1096.4261
1096.4261
1096.4261
1096.4261
1096.4261
1096.4261
)
;

boundaryField
{
    Wall
    {
        type            zeroGradient;
    }
    frontAndBack
    {
        type            empty;
    }
    atmosphere
    {
        type            zeroGradient;
    }
}


// ************************************************************************* //
