/*--------------------------------*- C++ -*----------------------------------*\
| =========                 |                                                 |
| \\      /  F ield         | OpenFOAM: The Open Source CFD Toolbox           |
|  \\    /   O peration     | Version:  3.0.1                                 |
|   \\  /    A nd           | Web:      www.OpenFOAM.org                      |
|    \\/     M anipulation  |                                                 |
\*---------------------------------------------------------------------------*/
FoamFile
{
    version     2.0;
    format      ascii;
    class       volScalarField;
    location    "14";
    object      thermalDiff_foam;
}
// * * * * * * * * * * * * * * * * * * * * * * * * * * * * * * * * * * * * * //

dimensions      [0 2 -1 0 0 0 0];

internalField   nonuniform List<scalar> 
800
(
8.5018679e-08
8.5018471e-08
8.5018335e-08
8.501826e-08
8.5018204e-08
8.501816e-08
8.5018126e-08
8.5018101e-08
8.5018085e-08
8.5018078e-08
8.5018078e-08
8.5018085e-08
8.5018101e-08
8.5018126e-08
8.501816e-08
8.5018204e-08
8.501826e-08
8.5018335e-08
8.5018471e-08
8.5018679e-08
8.3670145e-08
8.3696308e-08
8.3699023e-08
8.3699773e-08
8.3700426e-08
8.3700969e-08
8.3701399e-08
8.370171e-08
8.3701908e-08
8.3702004e-08
8.3702004e-08
8.3701908e-08
8.370171e-08
8.3701399e-08
8.3700969e-08
8.3700426e-08
8.3699773e-08
8.3699024e-08
8.3696308e-08
8.3670145e-08
8.2474925e-08
8.2486046e-08
8.2489189e-08
8.2489691e-08
8.2490054e-08
8.2490339e-08
8.2490554e-08
8.2490704e-08
8.2490798e-08
8.2490843e-08
8.2490843e-08
8.2490798e-08
8.2490704e-08
8.2490554e-08
8.2490339e-08
8.2490054e-08
8.2489691e-08
8.2489189e-08
8.2486046e-08
8.2474925e-08
8.2560965e-08
8.2542052e-08
8.2539636e-08
8.2538956e-08
8.2538512e-08
8.2538192e-08
8.2537972e-08
8.2537831e-08
8.2537747e-08
8.2537708e-08
8.2537708e-08
8.2537747e-08
8.2537831e-08
8.2537972e-08
8.2538192e-08
8.2538512e-08
8.2538956e-08
8.2539636e-08
8.2542052e-08
8.2560965e-08
8.4704087e-08
8.4585016e-08
8.4576132e-08
8.4573179e-08
8.4571697e-08
8.4570853e-08
8.4570452e-08
8.4570282e-08
8.4570213e-08
8.4570191e-08
8.4570191e-08
8.4570213e-08
8.4570282e-08
8.4570452e-08
8.4570853e-08
8.4571696e-08
8.4573178e-08
8.4576132e-08
8.4585015e-08
8.4704087e-08
0.00023504569
0.00023504354
0.00023504567
0.00023504979
0.0002350546
0.00023505934
0.00023506351
0.00023506682
0.00023506911
0.00023507027
0.00023507027
0.00023506911
0.00023506682
0.00023506351
0.00023505933
0.0002350546
0.00023504979
0.00023504567
0.00023504353
0.00023504569
0.00023430164
0.00023430323
0.00023430681
0.00023431156
0.00023431666
0.00023432151
0.00023432572
0.00023432903
0.0002343313
0.00023433245
0.00023433245
0.0002343313
0.00023432903
0.00023432572
0.00023432151
0.00023431666
0.00023431156
0.00023430681
0.00023430323
0.00023430164
0.00023359734
0.00023360193
0.00023360783
0.00023361402
0.00023361996
0.00023362527
0.00023362971
0.00023363312
0.00023363542
0.00023363658
0.00023363658
0.00023363542
0.00023363312
0.0002336297
0.00023362527
0.00023361996
0.00023361402
0.00023360782
0.00023360193
0.00023359734
0.0002329361
0.0002329447
0.00023295387
0.00023296223
0.00023296947
0.0002329755
0.00023298029
0.00023298386
0.00023298623
0.00023298741
0.00023298741
0.00023298623
0.00023298386
0.00023298029
0.0002329755
0.00023296947
0.00023296223
0.00023295387
0.0002329447
0.00023293609
0.00023232286
0.00023233475
0.0002323475
0.00023235856
0.00023236753
0.00023237457
0.00023237989
0.00023238372
0.0002323862
0.00023238741
0.00023238741
0.0002323862
0.00023238372
0.00023237989
0.00023237457
0.00023236753
0.00023235856
0.0002323475
0.00023233475
0.00023232286
0.000231761
0.0002317747
0.00023179024
0.00023180384
0.00023181468
0.00023182292
0.00023182895
0.00023183315
0.00023183581
0.0002318371
0.0002318371
0.00023183581
0.00023183315
0.00023182895
0.00023182292
0.00023181468
0.00023180383
0.00023179024
0.0002317747
0.000231761
0.00023125104
0.00023126531
0.00023128246
0.00023129792
0.00023131037
0.00023131978
0.00023132658
0.00023133124
0.00023133415
0.00023133555
0.00023133555
0.00023133415
0.00023133124
0.00023132658
0.00023131978
0.00023131037
0.00023129792
0.00023128246
0.00023126531
0.00023125103
0.00023079138
0.00023080543
0.00023082313
0.00023083963
0.00023085318
0.00023086352
0.00023087101
0.00023087613
0.00023087931
0.00023088084
0.00023088084
0.00023087931
0.00023087613
0.00023087101
0.00023086352
0.00023085318
0.00023083963
0.00023082313
0.00023080543
0.00023079138
0.00023037921
0.00023039257
0.00023041005
0.00023042684
0.00023044092
0.00023045184
0.00023045983
0.00023046533
0.00023046876
0.0002304704
0.0002304704
0.00023046876
0.00023046533
0.00023045983
0.00023045184
0.00023044092
0.00023042683
0.00023041005
0.00023039257
0.00023037921
0.00023001101
0.00023002347
0.00023004022
0.0002300567
0.00023007082
0.00023008196
0.00023009022
0.00023009596
0.00023009955
0.00023010128
0.00023010128
0.00023009955
0.00023009596
0.00023009022
0.00023008196
0.00023007082
0.0002300567
0.00023004022
0.00023002347
0.00023001101
0.00022968304
0.0002296945
0.00022971022
0.000229726
0.00022973976
0.00022975079
0.00022975909
0.00022976491
0.00022976859
0.00022977037
0.00022977037
0.00022976859
0.00022976491
0.00022975908
0.00022975079
0.00022973976
0.000229726
0.00022971022
0.0002296945
0.00022968304
0.00022939155
0.000229402
0.00022941654
0.00022943136
0.00022944449
0.00022945516
0.00022946328
0.00022946905
0.00022947273
0.00022947451
0.00022947451
0.00022947273
0.00022946905
0.00022946328
0.00022945516
0.00022944449
0.00022943136
0.00022941654
0.000229402
0.00022939155
0.00022913297
0.00022914243
0.00022915574
0.00022916946
0.00022918177
0.0002291919
0.00022919969
0.00022920529
0.00022920887
0.00022921062
0.00022921062
0.00022920887
0.00022920529
0.00022919969
0.0002291919
0.00022918177
0.00022916946
0.00022915574
0.00022914243
0.00022913297
0.00022890395
0.00022891247
0.00022892455
0.00022893713
0.00022894852
0.00022895798
0.00022896534
0.00022897066
0.00022897409
0.00022897577
0.00022897577
0.00022897409
0.00022897066
0.00022896534
0.00022895798
0.00022894852
0.00022893713
0.00022892455
0.00022891247
0.00022890395
0.00022870145
0.00022870908
0.00022871998
0.0002287314
0.00022874183
0.00022875057
0.00022875741
0.0002287624
0.00022876564
0.00022876722
0.00022876722
0.00022876564
0.0002287624
0.00022875741
0.00022875057
0.00022874183
0.0002287314
0.00022871998
0.00022870908
0.00022870145
0.00022852269
0.0002285295
0.00022853927
0.00022854958
0.00022855904
0.00022856703
0.00022857332
0.00022857794
0.00022858094
0.00022858242
0.00022858242
0.00022858094
0.00022857794
0.00022857332
0.00022856703
0.00022855904
0.00022854958
0.00022853927
0.0002285295
0.00022852269
0.00022836517
0.00022837123
0.00022837995
0.00022838919
0.00022839772
0.00022840495
0.00022841069
0.00022841491
0.00022841767
0.00022841903
0.00022841903
0.00022841767
0.00022841491
0.00022841069
0.00022840495
0.00022839772
0.00022838919
0.00022837995
0.00022837123
0.00022836517
0.00022822664
0.00022823201
0.00022823976
0.000228248
0.00022825563
0.00022826214
0.00022826732
0.00022827115
0.00022827366
0.0002282749
0.0002282749
0.00022827366
0.00022827115
0.00022826732
0.00022826214
0.00022825563
0.000228248
0.00022823976
0.00022823201
0.00022822664
0.00022810506
0.0002281098
0.00022811666
0.00022812398
0.00022813078
0.00022813659
0.00022814124
0.00022814468
0.00022814694
0.00022814807
0.00022814807
0.00022814694
0.00022814468
0.00022814124
0.00022813659
0.00022813078
0.00022812398
0.00022811666
0.0002281098
0.00022810506
0.0002279986
0.00022800278
0.00022800883
0.00022801529
0.00022802132
0.00022802648
0.00022803062
0.0002280337
0.00022803573
0.00022803673
0.00022803673
0.00022803573
0.0002280337
0.00022803062
0.00022802648
0.00022802132
0.00022801529
0.00022800883
0.00022800278
0.0002279986
0.00022790562
0.00022790928
0.0002279146
0.00022792029
0.0002279256
0.00022793017
0.00022793384
0.00022793657
0.00022793837
0.00022793927
0.00022793927
0.00022793837
0.00022793657
0.00022793384
0.00022793017
0.0002279256
0.00022792029
0.0002279146
0.00022790928
0.00022790562
0.00022782463
0.00022782783
0.00022783248
0.00022783747
0.00022784214
0.00022784616
0.00022784939
0.0002278518
0.00022785339
0.00022785419
0.00022785419
0.00022785339
0.0002278518
0.00022784939
0.00022784616
0.00022784214
0.00022783747
0.00022783248
0.00022782783
0.00022782463
0.00022775428
0.00022775707
0.00022776113
0.00022776549
0.00022776957
0.00022777309
0.00022777592
0.00022777804
0.00022777944
0.00022778014
0.00022778014
0.00022777944
0.00022777804
0.00022777592
0.00022777309
0.00022776957
0.00022776549
0.00022776113
0.00022775707
0.00022775428
0.00022769339
0.00022769581
0.00022769934
0.00022770313
0.00022770668
0.00022770975
0.00022771223
0.00022771408
0.0002277153
0.00022771591
0.00022771591
0.0002277153
0.00022771408
0.00022771223
0.00022770975
0.00022770668
0.00022770313
0.00022769934
0.00022769581
0.00022769339
0.00022764089
0.00022764298
0.00022764603
0.00022764931
0.00022765239
0.00022765506
0.00022765721
0.00022765882
0.00022765989
0.00022766042
0.00022766042
0.00022765989
0.00022765882
0.00022765721
0.00022765506
0.00022765239
0.00022764931
0.00022764603
0.00022764298
0.00022764089
0.00022759581
0.00022759761
0.00022760024
0.00022760307
0.00022760573
0.00022760804
0.0002276099
0.00022761129
0.00022761222
0.00022761268
0.00022761268
0.00022761222
0.00022761129
0.0002276099
0.00022760804
0.00022760573
0.00022760307
0.00022760024
0.00022759761
0.00022759581
0.00022755735
0.00022755889
0.00022756114
0.00022756357
0.00022756586
0.00022756784
0.00022756944
0.00022757064
0.00022757144
0.00022757184
0.00022757184
0.00022757144
0.00022757064
0.00022756944
0.00022756784
0.00022756586
0.00022756357
0.00022756114
0.00022755889
0.00022755735
0.00022752476
0.00022752607
0.00022752799
0.00022753006
0.00022753202
0.00022753371
0.00022753509
0.00022753612
0.00022753681
0.00022753715
0.00022753715
0.00022753681
0.00022753612
0.00022753509
0.00022753371
0.00022753202
0.00022753006
0.00022752799
0.00022752607
0.00022752476
0.00022749743
0.00022749853
0.00022750016
0.00022750191
0.00022750357
0.00022750502
0.00022750619
0.00022750708
0.00022750766
0.00022750796
0.00022750796
0.00022750766
0.00022750708
0.00022750619
0.00022750502
0.00022750357
0.00022750191
0.00022750016
0.00022749853
0.00022749743
0.00022747483
0.00022747575
0.00022747712
0.0002274786
0.00022748
0.00022748122
0.00022748222
0.00022748297
0.00022748348
0.00022748373
0.00022748373
0.00022748348
0.00022748297
0.00022748222
0.00022748122
0.00022748
0.0002274786
0.00022747712
0.00022747575
0.00022747483
0.00022745654
0.0002274573
0.00022745843
0.00022745967
0.00022746085
0.00022746188
0.00022746273
0.00022746337
0.0002274638
0.00022746402
0.00022746402
0.0002274638
0.00022746337
0.00022746273
0.00022746188
0.00022746085
0.00022745967
0.00022745843
0.0002274573
0.00022745654
0.00022744222
0.00022744284
0.00022744377
0.0002274448
0.00022744579
0.00022744666
0.00022744738
0.00022744793
0.0002274483
0.00022744849
0.00022744849
0.0002274483
0.00022744793
0.00022744738
0.00022744666
0.00022744579
0.0002274448
0.00022744377
0.00022744284
0.00022744222
0.00022743163
0.00022743213
0.00022743289
0.00022743374
0.00022743458
0.00022743532
0.00022743594
0.00022743642
0.00022743674
0.0002274369
0.0002274369
0.00022743674
0.00022743642
0.00022743594
0.00022743532
0.00022743458
0.00022743374
0.00022743289
0.00022743213
0.00022743163
0.00022742461
0.00022742501
0.00022742564
0.00022742636
0.00022742708
0.00022742773
0.00022742828
0.00022742871
0.00022742899
0.00022742914
0.00022742914
0.00022742899
0.00022742871
0.00022742828
0.00022742773
0.00022742708
0.00022742636
0.00022742564
0.00022742501
0.00022742461
0.0002274211
0.00022742144
0.00022742199
0.00022742263
0.00022742328
0.00022742388
0.00022742439
0.00022742479
0.00022742506
0.0002274252
0.0002274252
0.00022742506
0.00022742479
0.00022742439
0.00022742388
0.00022742328
0.00022742263
0.00022742199
0.00022742144
0.0002274211
)
;

boundaryField
{
    Wall
    {
        type            calculated;
        value           uniform 4e-05;
    }
    frontAndBack
    {
        type            empty;
    }
    atmosphere
    {
        type            calculated;
        value           uniform 4e-05;
    }
}


// ************************************************************************* //
