/*--------------------------------*- C++ -*----------------------------------*\
| =========                 |                                                 |
| \\      /  F ield         | OpenFOAM: The Open Source CFD Toolbox           |
|  \\    /   O peration     | Version:  3.0.1                                 |
|   \\  /    A nd           | Web:      www.OpenFOAM.org                      |
|    \\/     M anipulation  |                                                 |
\*---------------------------------------------------------------------------*/
FoamFile
{
    version     2.0;
    format      ascii;
    class       volScalarField;
    location    "14";
    object      TS;
}
// * * * * * * * * * * * * * * * * * * * * * * * * * * * * * * * * * * * * * //

dimensions      [0 0 0 1 0 0 0];

internalField   nonuniform List<scalar> 
800
(
318.47074
318.47187
318.47195
318.47196
318.47197
318.47197
318.47197
318.47197
318.47197
318.47197
318.47197
318.47197
318.47197
318.47197
318.47197
318.47197
318.47196
318.47195
318.47187
318.47074
313.84453
313.91599
313.9256
313.92745
313.9289
313.93015
313.9312
313.93197
313.93247
313.93271
313.93271
313.93247
313.93197
313.9312
313.93015
313.9289
313.92745
313.9256
313.91599
313.84453
310.36804
310.47768
310.49792
310.50155
310.50279
310.50363
310.50434
310.50488
310.50525
310.50543
310.50543
310.50525
310.50488
310.50434
310.50364
310.50279
310.50155
310.49793
310.47768
310.36804
307.04672
307.18241
307.21424
307.22147
307.22338
307.22393
307.22433
307.2245
307.22466
307.22473
307.22473
307.22466
307.2245
307.22433
307.22393
307.22338
307.22147
307.21424
307.18242
307.04673
304.07241
304.06586
304.06919
304.07265
304.07614
304.07943
304.08226
304.08449
304.08601
304.08678
304.08678
304.08601
304.08449
304.08226
304.07943
304.07614
304.07265
304.06919
304.06586
304.07241
303.13604
303.13473
303.13621
303.13894
303.1421
303.1452
303.14794
303.15011
303.15161
303.15237
303.15237
303.15161
303.15011
303.14794
303.1452
303.1421
303.13894
303.13621
303.13473
303.13604
302.6455
302.64657
302.64896
302.65209
302.65545
302.65864
302.6614
302.66358
302.66507
302.66583
302.66583
302.66507
302.66358
302.6614
302.65864
302.65545
302.65209
302.64896
302.64657
302.6455
302.18058
302.18359
302.18748
302.19156
302.19547
302.19897
302.20189
302.20413
302.20565
302.20642
302.20642
302.20565
302.20413
302.20189
302.19897
302.19547
302.19156
302.18748
302.18359
302.18058
301.74341
301.74907
301.7551
301.7606
301.76538
301.76935
301.77251
301.77487
301.77644
301.77722
301.77722
301.77644
301.77487
301.77251
301.76935
301.76538
301.7606
301.7551
301.74906
301.74341
301.33726
301.34511
301.35352
301.36082
301.36675
301.3714
301.37492
301.37745
301.37909
301.37989
301.37989
301.37909
301.37745
301.37492
301.3714
301.36675
301.36082
301.35352
301.34511
301.33726
300.96447
300.97355
300.98384
300.99285
301.00003
301.00548
301.00948
301.01227
301.01403
301.01488
301.01488
301.01403
301.01227
301.00948
301.00548
301.00003
300.99285
300.98384
300.97355
300.96447
300.62556
300.63505
300.64644
300.65671
300.66498
300.67122
300.67574
300.67884
300.68077
300.6817
300.6817
300.68077
300.67884
300.67574
300.67122
300.66498
300.65671
300.64644
300.63505
300.62556
300.31964
300.32899
300.34078
300.35177
300.36079
300.36767
300.37265
300.37606
300.37818
300.37919
300.37919
300.37818
300.37606
300.37265
300.36767
300.36079
300.35177
300.34078
300.32899
300.31964
300.04497
300.05388
300.06555
300.07674
300.08614
300.09342
300.09875
300.10241
300.1047
300.10579
300.10579
300.1047
300.10241
300.09875
300.09342
300.08614
300.07674
300.06555
300.05388
300.04496
299.79934
299.80767
299.81886
299.82987
299.8393
299.84674
299.85226
299.85609
299.85849
299.85965
299.85965
299.85849
299.85609
299.85226
299.84674
299.8393
299.82987
299.81886
299.80767
299.79934
299.58036
299.58803
299.59855
299.6091
299.61831
299.62569
299.63123
299.63513
299.63759
299.63878
299.63878
299.63759
299.63513
299.63123
299.62568
299.61831
299.6091
299.59855
299.58803
299.58036
299.38561
299.3926
299.40234
299.41226
299.42105
299.4282
299.43364
299.4375
299.43996
299.44115
299.44115
299.43996
299.4375
299.43364
299.4282
299.42105
299.41226
299.40234
299.3926
299.3856
299.21274
299.21907
299.22799
299.23719
299.24544
299.25223
299.25745
299.2612
299.26361
299.26478
299.26478
299.26361
299.2612
299.25745
299.25223
299.24544
299.23719
299.22799
299.21907
299.21274
299.05956
299.06527
299.07337
299.08181
299.08945
299.0958
299.10073
299.1043
299.1066
299.10773
299.10773
299.1066
299.1043
299.10073
299.0958
299.08945
299.08181
299.07337
299.06527
299.05956
298.92407
298.92919
298.9365
298.94417
298.95116
298.95703
298.96162
298.96497
298.96714
298.96821
298.96821
298.96714
298.96497
298.96162
298.95703
298.95116
298.94417
298.9365
298.92919
298.92407
298.80442
298.809
298.81555
298.82247
298.82883
298.83419
298.83842
298.84152
298.84354
298.84453
298.84453
298.84354
298.84152
298.83842
298.83419
298.82883
298.82247
298.81555
298.809
298.80442
298.69896
298.70303
298.70888
298.71508
298.72081
298.72568
298.72953
298.73237
298.73422
298.73514
298.73514
298.73422
298.73237
298.72953
298.72568
298.72081
298.71508
298.70888
298.70302
298.69896
298.60617
298.60978
298.61498
298.62052
298.62565
298.63003
298.63351
298.63608
298.63777
298.63861
298.63861
298.63777
298.63608
298.63351
298.63003
298.62565
298.62052
298.61498
298.60978
298.60617
298.52472
298.5279
298.53251
298.53743
298.542
298.54591
298.54903
298.55135
298.55287
298.55363
298.55363
298.55287
298.55135
298.54903
298.54591
298.542
298.53743
298.53251
298.5279
298.52472
298.45337
298.45617
298.46024
298.46459
298.46864
298.47212
298.4749
298.47697
298.47834
298.47901
298.47901
298.47834
298.47697
298.4749
298.47212
298.46864
298.46459
298.46024
298.45617
298.45337
298.39103
298.39349
298.39706
298.40089
298.40447
298.40754
298.41001
298.41185
298.41306
298.41367
298.41367
298.41306
298.41185
298.41001
298.40754
298.40447
298.40089
298.39706
298.39349
298.39103
298.3367
298.33886
298.34199
298.34534
298.34848
298.35119
298.35337
298.35499
298.35607
298.3566
298.3566
298.35607
298.35499
298.35337
298.35119
298.34848
298.34534
298.34199
298.33886
298.3367
298.28951
298.29138
298.29411
298.29704
298.29979
298.30216
298.30408
298.3055
298.30645
298.30692
298.30692
298.30645
298.3055
298.30408
298.30216
298.29979
298.29704
298.29411
298.29138
298.28951
298.24864
298.25026
298.25264
298.25519
298.25758
298.25965
298.26132
298.26257
298.2634
298.26381
298.26381
298.2634
298.26257
298.26132
298.25965
298.25758
298.25519
298.25264
298.25026
298.24864
298.21338
298.21479
298.21684
298.21905
298.22113
298.22293
298.22438
298.22546
298.22619
298.22654
298.22654
298.22619
298.22546
298.22438
298.22293
298.22113
298.21905
298.21684
298.21479
298.21338
298.18311
298.18432
298.18609
298.188
298.18979
298.19134
298.1926
298.19354
298.19417
298.19448
298.19448
298.19417
298.19354
298.1926
298.19134
298.18979
298.188
298.18609
298.18432
298.18311
298.15726
298.1583
298.15982
298.16145
298.16299
298.16433
298.16541
298.16623
298.16677
298.16703
298.16703
298.16677
298.16623
298.16541
298.16433
298.16299
298.16145
298.15982
298.1583
298.15726
298.13536
298.13624
298.13753
298.13893
298.14025
298.14139
298.14232
298.14302
298.14348
298.14371
298.14371
298.14348
298.14302
298.14232
298.14139
298.14025
298.13893
298.13753
298.13624
298.13536
298.11698
298.11773
298.11882
298.12001
298.12113
298.1221
298.12289
298.12349
298.12389
298.12409
298.12409
298.12389
298.12349
298.12289
298.1221
298.12113
298.12001
298.11882
298.11773
298.11698
298.10178
298.10241
298.10332
298.10432
298.10527
298.1061
298.10677
298.10728
298.10762
298.10779
298.10779
298.10762
298.10728
298.10677
298.1061
298.10527
298.10432
298.10332
298.10241
298.10178
298.08948
298.08999
298.09076
298.09159
298.09239
298.09309
298.09366
298.09409
298.09438
298.09453
298.09453
298.09438
298.09409
298.09366
298.09309
298.09239
298.09159
298.09076
298.08999
298.08948
298.07984
298.08026
298.08089
298.08158
298.08225
298.08284
298.08333
298.0837
298.08395
298.08408
298.08408
298.08395
298.0837
298.08333
298.08284
298.08225
298.08158
298.08089
298.08026
298.07984
298.07272
298.07305
298.07357
298.07414
298.07471
298.07521
298.07563
298.07595
298.07617
298.07628
298.07628
298.07617
298.07595
298.07563
298.07521
298.07471
298.07414
298.07357
298.07305
298.07272
298.06799
298.06827
298.06869
298.06918
298.06966
298.0701
298.07047
298.07076
298.07096
298.07105
298.07105
298.07096
298.07076
298.07047
298.0701
298.06966
298.06918
298.06869
298.06827
298.06799
298.06563
298.06586
298.06623
298.06666
298.0671
298.06751
298.06786
298.06812
298.06831
298.0684
298.0684
298.06831
298.06812
298.06785
298.06751
298.0671
298.06666
298.06623
298.06586
298.06563
)
;

boundaryField
{
    Wall
    {
        type            zeroGradient;
    }
    frontAndBack
    {
        type            empty;
    }
    atmosphere
    {
        type            zeroGradient;
    }
}


// ************************************************************************* //
