/*--------------------------------*- C++ -*----------------------------------*\
| =========                 |                                                 |
| \\      /  F ield         | OpenFOAM: The Open Source CFD Toolbox           |
|  \\    /   O peration     | Version:  3.0.1                                 |
|   \\  /    A nd           | Web:      www.OpenFOAM.org                      |
|    \\/     M anipulation  |                                                 |
\*---------------------------------------------------------------------------*/
FoamFile
{
    version     2.0;
    format      ascii;
    class       volVectorField;
    location    "14";
    object      U;
}
// * * * * * * * * * * * * * * * * * * * * * * * * * * * * * * * * * * * * * //

dimensions      [0 1 -1 0 0 0 0];

internalField   nonuniform List<vector> 
800
(
(3.3578372e-06 0.00037552973 0)
(3.8529072e-06 0.00037848477 0)
(2.9381294e-06 0.00037859308 0)
(2.5681402e-06 0.00037863583 0)
(2.2516032e-06 0.00037863468 0)
(1.9433958e-06 0.00037869871 0)
(1.5933275e-06 0.00037878532 0)
(1.1871105e-06 0.00037886227 0)
(7.3246598e-07 0.00037891608 0)
(2.4744825e-07 0.00037894368 0)
(-2.4754187e-07 0.00037894368 0)
(-7.3254151e-07 0.00037891608 0)
(-1.1871529e-06 0.00037886227 0)
(-1.59334e-06 0.00037878531 0)
(-1.9433959e-06 0.00037869871 0)
(-2.2516167e-06 0.00037863469 0)
(-2.5681839e-06 0.00037863587 0)
(-2.9382013e-06 0.00037859314 0)
(-3.8530006e-06 0.00037848483 0)
(-3.3579155e-06 0.00037552972 0)
(1.3592782e-06 0.00071987281 0)
(1.2248267e-06 0.00072541087 0)
(1.1134703e-06 0.00072454404 0)
(1.7488386e-06 0.00072465212 0)
(1.7358644e-06 0.00072457655 0)
(1.6119403e-06 0.00072461262 0)
(1.3681189e-06 0.00072468568 0)
(1.0357316e-06 0.00072475364 0)
(6.4389115e-07 0.000724801 0)
(2.1825497e-07 0.00072482482 0)
(-2.1838889e-07 0.00072482481 0)
(-6.4400833e-07 0.00072480099 0)
(-1.0358209e-06 0.00072475362 0)
(-1.368183e-06 0.00072468565 0)
(-1.6119924e-06 0.00072461259 0)
(-1.7359203e-06 0.00072457654 0)
(-1.7489015e-06 0.00072465211 0)
(-1.1135245e-06 0.00072454405 0)
(-1.2248736e-06 0.00072541088 0)
(-1.3593085e-06 0.00071987275 0)
(1.6370766e-06 0.0013298139 0)
(4.1248949e-07 0.0013377934 0)
(-2.2433416e-07 0.0013389934 0)
(1.5805999e-06 0.0013393903 0)
(1.6184679e-06 0.0013396266 0)
(1.576709e-06 0.0013398479 0)
(1.3497321e-06 0.0013400324 0)
(1.0188231e-06 0.0013401687 0)
(6.3022188e-07 0.0013402547 0)
(2.1290136e-07 0.001340296 0)
(-2.1300466e-07 0.001340296 0)
(-6.3031004e-07 0.0013402547 0)
(-1.0188875e-06 0.0013401687 0)
(-1.3497725e-06 0.0013400324 0)
(-1.5767331e-06 0.0013398479 0)
(-1.6184949e-06 0.0013396266 0)
(-1.5806315e-06 0.0013393904 0)
(2.2432906e-07 0.0013389934 0)
(-4.1248515e-07 0.0013377935 0)
(-1.6370733e-06 0.0013298139 0)
(4.7234295e-07 0.0018450674 0)
(3.6496385e-07 0.0018555492 0)
(7.6034187e-07 0.0018589686 0)
(1.9865811e-06 0.0018597828 0)
(2.068772e-06 0.0018603973 0)
(1.8988405e-06 0.0018608221 0)
(1.5659698e-06 0.0018611028 0)
(1.1533665e-06 0.0018612856 0)
(7.0237976e-07 0.0018613909 0)
(2.3556427e-07 0.0018614396 0)
(-2.35599e-07 0.0018614396 0)
(-7.0239927e-07 0.0018613909 0)
(-1.1533615e-06 0.0018612856 0)
(-1.5659365e-06 0.0018611028 0)
(-1.898786e-06 0.0018608221 0)
(-2.0687262e-06 0.0018603974 0)
(-1.986542e-06 0.0018597829 0)
(-7.6028311e-07 0.0018589687 0)
(-3.6492932e-07 0.0018555493 0)
(-4.7233398e-07 0.0018450675 0)
(1.1240704e-06 0.0022699532 0)
(2.4634906e-06 0.002284584 0)
(3.0105824e-06 0.0022887 0)
(3.4732408e-06 0.0022903143 0)
(3.2730158e-06 0.0022912106 0)
(2.7606407e-06 0.0022917099 0)
(2.1488292e-06 0.002291969 0)
(1.5298792e-06 0.0022920942 0)
(9.1296839e-07 0.0022921527 0)
(3.0335209e-07 0.0022921756 0)
(-3.0333709e-07 0.0022921756 0)
(-9.1293043e-07 0.0022921527 0)
(-1.5297989e-06 0.0022920943 0)
(-2.1486912e-06 0.0022919691 0)
(-2.760474e-06 0.00229171 0)
(-3.2729032e-06 0.0022912108 0)
(-3.4731527e-06 0.0022903145 0)
(-3.0104665e-06 0.0022887003 0)
(-2.4634688e-06 0.0022845842 0)
(-1.1241086e-06 0.0022699535 0)
(9.337508e-06 0.0025812047 0)
(1.4338061e-05 0.0025974648 0)
(9.9609404e-06 0.0026011094 0)
(7.8806418e-06 0.0026032163 0)
(6.0784421e-06 0.0026043214 0)
(4.6048989e-06 0.0026048846 0)
(3.346622e-06 0.0026051545 0)
(2.2884794e-06 0.0026052675 0)
(1.3491109e-06 0.0026053151 0)
(4.4389992e-07 0.0026053249 0)
(-4.4390297e-07 0.0026053249 0)
(-1.3490568e-06 0.002605315 0)
(-2.2883139e-06 0.0026052675 0)
(-3.3463386e-06 0.0026051546 0)
(-4.6045549e-06 0.0026048847 0)
(-6.0783114e-06 0.0026043216 0)
(-7.8805467e-06 0.0026032165 0)
(-9.9607409e-06 0.0026011097 0)
(-1.4338083e-05 0.0025974651 0)
(-9.3375938e-06 0.0025812049 0)
(6.5637633e-05 0.0027168413 0)
(9.2410904e-05 0.0027764972 0)
(5.584174e-05 0.0027799319 0)
(3.6242872e-05 0.0027797677 0)
(2.4295158e-05 0.0027798707 0)
(1.6724698e-05 0.0027799805 0)
(1.1442527e-05 0.0027799891 0)
(7.5064078e-06 0.0027800116 0)
(4.3042256e-06 0.0027800164 0)
(1.3937866e-06 0.0027799831 0)
(-1.3942025e-06 0.0027799831 0)
(-4.3044747e-06 0.0027800163 0)
(-7.5062926e-06 0.0027800115 0)
(-1.1442175e-05 0.0027799892 0)
(-1.6724161e-05 0.0027799808 0)
(-2.4294834e-05 0.0027798712 0)
(-3.624273e-05 0.0027797684 0)
(-5.5841455e-05 0.0027799323 0)
(-9.2410743e-05 0.0027764979 0)
(-6.5637572e-05 0.0027168417 0)
(0.00028778807 0.0023443681 0)
(0.0004709177 0.0027189057 0)
(0.00037774183 0.0027360705 0)
(0.00027717847 0.002715107 0)
(0.00019782602 0.0027001178 0)
(0.00013920579 0.0026914466 0)
(9.5869656e-05 0.0026864903 0)
(6.2668482e-05 0.0026839749 0)
(3.5509282e-05 0.0026826482 0)
(1.1521533e-05 0.0026820459 0)
(-1.1524693e-05 0.0026820457 0)
(-3.551205e-05 0.002682648 0)
(-6.2670037e-05 0.0026839743 0)
(-9.5870091e-05 0.0026864901 0)
(-0.00013920546 0.0026914472 0)
(-0.00019782543 0.0027001185 0)
(-0.00027717797 0.002715108 0)
(-0.00037774133 0.0027360709 0)
(-0.00047091719 0.0027189063 0)
(-0.00028778784 0.0023443685 0)
(0.0003008455 0.0017684018 0)
(0.00061876712 0.0025882442 0)
(0.000633606 0.0027570024 0)
(0.00054319211 0.0027620445 0)
(0.00042878968 0.0027328661 0)
(0.00032190542 0.0027030933 0)
(0.00023093132 0.0026802733 0)
(0.00015464806 0.0026651357 0)
(8.8760482e-05 0.0026561308 0)
(2.9021247e-05 0.002651931 0)
(-2.9028483e-05 0.0026519303 0)
(-8.8767273e-05 0.0026561295 0)
(-0.00015465308 0.0026651336 0)
(-0.00023093483 0.0026802716 0)
(-0.00032190761 0.002703093 0)
(-0.00042879085 0.0027328664 0)
(-0.00054319328 0.0027620449 0)
(-0.00063360705 0.0027570027 0)
(-0.0006187679 0.0025882445 0)
(-0.00030084599 0.0017684019 0)
(0.00019257799 0.0013673111 0)
(0.00048028127 0.0024172142 0)
(0.00058246829 0.0027700923 0)
(0.00055775958 0.0028597912 0)
(0.00047490857 0.0028553322 0)
(0.00037598327 0.0028230469 0)
(0.00027980745 0.0027890384 0)
(0.00019194374 0.0027625817 0)
(0.00011175502 0.0027455019 0)
(3.6812962e-05 0.0027372649 0)
(-3.6820298e-05 0.0027372638 0)
(-0.00011176175 0.0027454998 0)
(-0.00019194947 0.0027625783 0)
(-0.00027981179 0.0027890351 0)
(-0.0003759864 0.0028230455 0)
(-0.00047491024 0.0028553316 0)
(-0.00055776071 0.0028597911 0)
(-0.00058246934 0.0027700923 0)
(-0.00048028202 0.0024172142 0)
(-0.00019257838 0.001367311 0)
(0.00010671615 0.0010995965 0)
(0.00031845322 0.0022259372 0)
(0.00044497676 0.0027177961 0)
(0.00046596494 0.0028984715 0)
(0.00042276412 0.0029376142 0)
(0.00035088104 0.0029193645 0)
(0.00027030143 0.0028852374 0)
(0.00018990199 0.0028539333 0)
(0.00011222555 0.0028321429 0)
(3.7240335e-05 0.002821291 0)
(-3.7244546e-05 0.0028212899 0)
(-0.00011222956 0.0028321402 0)
(-0.00018990506 0.0028539293 0)
(-0.00027030345 0.0028852335 0)
(-0.0003508825 0.002919362 0)
(-0.00042276454 0.0029376126 0)
(-0.00046596498 0.002898471 0)
(-0.00044497697 0.0027177959 0)
(-0.00031845372 0.0022259368 0)
(-0.0001067166 0.0010995964 0)
(5.5816503e-05 0.00094065345 0)
(0.00019640321 0.002065171 0)
(0.00031088254 0.0026401125 0)
(0.0003512432 0.0028944224 0)
(0.00033679926 0.0029789654 0)
(0.00029169505 0.002982783 0)
(0.0002320836 0.0029567321 0)
(0.00016684496 0.0029268216 0)
(0.00010006375 0.0029042194 0)
(3.3436922e-05 0.0028925616 0)
(-3.3437116e-05 0.0028925605 0)
(-0.00010006367 0.0029042162 0)
(-0.00016684473 0.0029268172 0)
(-0.00023208284 0.0029567276 0)
(-0.00029169426 0.0029827793 0)
(-0.00033679781 0.0029789631 0)
(-0.00035124155 0.0028944214 0)
(-0.0003108817 0.0026401122 0)
(-0.00019640296 0.0020651706 0)
(-5.5816569e-05 0.00094065326 0)
(2.8908782e-05 0.00085001616 0)
(0.00011767797 0.0019496831 0)
(0.00020728532 0.0025682606 0)
(0.000250003 0.002874243 0)
(0.00025169375 0.0029969926 0)
(0.00022652507 0.003023697 0)
(0.00018568696 0.0030094893 0)
(0.00013640118 0.0029849265 0)
(8.296282e-05 0.002964406 0)
(2.7903204e-05 0.0029533992 0)
(-2.7899772e-05 0.0029533979 0)
(-8.2959558e-05 0.0029644028 0)
(-0.00013639796 0.0029849218 0)
(-0.0001856834 0.0030094846 0)
(-0.00022652177 0.0030236927 0)
(-0.00025169045 0.0029969901 0)
(-0.00024999996 0.0028742417 0)
(-0.0002072833 0.0025682606 0)
(-0.00011767713 0.0019496828 0)
(-2.8908786e-05 0.0008500162 0)
(1.5379387e-05 0.00079796274 0)
(7.0530913e-05 0.0018715755 0)
(0.00013535306 0.0025112209 0)
(0.00017245877 0.0028506689 0)
(0.0001811506 0.0030021167 0)
(0.00016871404 0.0030487489 0)
(0.00014208475 0.0030468604 0)
(0.00010645211 0.0030293183 0)
(6.5594171e-05 0.0030124482 0)
(2.2193085e-05 0.003002967 0)
(-2.2187365e-05 0.0030029658 0)
(-6.5588561e-05 0.0030124454 0)
(-0.00010644653 0.0030293141 0)
(-0.00014207911 0.003046856 0)
(-0.00016870883 0.0030487449 0)
(-0.00018114585 0.0030021144 0)
(-0.00017245467 0.0028506679 0)
(-0.00013535012 0.0025112215 0)
(-7.0529617e-05 0.001871576 0)
(-1.5379238e-05 0.00079796312 0)
(8.54444e-06 0.00076736688 0)
(4.293324e-05 0.0018198536 0)
(8.7914124e-05 0.0024688706 0)
(0.00011714823 0.0028290114 0)
(0.00012759013 0.0030006647 0)
(0.00012244237 0.0030630827 0)
(0.00010561236 0.0030722173 0)
(8.0533357e-05 0.0030617949 0)
(5.0208817e-05 0.003049072 0)
(1.7078748e-05 0.0030414707 0)
(-1.7071677e-05 0.0030414696 0)
(-5.0201988e-05 0.0030490694 0)
(-8.0526954e-05 0.0030617914 0)
(-0.00010560588 0.0030722132 0)
(-0.00012243625 0.0030630791 0)
(-0.00012758477 0.0030006623 0)
(-0.00011714365 0.0028290106 0)
(-8.7910842e-05 0.0024688718 0)
(-4.293154e-05 0.0018198553 0)
(-8.5440027e-06 0.00076736761 0)
(4.9553204e-06 0.00074888287 0)
(2.6657729e-05 0.0017858444 0)
(5.7263426e-05 0.0024385968 0)
(7.9091001e-05 0.0028112362 0)
(8.8796222e-05 0.0029966053 0)
(8.7431923e-05 0.0030708452 0)
(7.6993869e-05 0.0030890437 0)
(5.9623464e-05 0.0030849904 0)
(3.755844e-05 0.003076235 0)
(1.283586e-05 0.0030705143 0)
(-1.2828839e-05 0.0030705134 0)
(-3.7551381e-05 0.0030762325 0)
(-5.9616681e-05 0.0030849869 0)
(-7.6987447e-05 0.0030890397 0)
(-8.7425865e-05 0.0030708415 0)
(-8.8790813e-05 0.0029966032 0)
(-7.9086488e-05 0.0028112359 0)
(-5.7259888e-05 0.0024385991 0)
(-2.6655963e-05 0.001785847 0)
(-4.9550367e-06 0.00074888397 0)
(2.9748958e-06 0.00073743127 0)
(1.6861128e-05 0.0017634763 0)
(3.7531117e-05 0.0024174201 0)
(5.3334267e-05 0.0027975507 0)
(6.1404235e-05 0.0029920573 0)
(6.1789418e-05 0.0030748529 0)
(5.5381628e-05 0.003100123 0)
(4.3460396e-05 0.0031013584 0)
(2.762261e-05 0.0030960553 0)
(9.4787792e-06 0.0030920212 0)
(-9.4723063e-06 0.0030920205 0)
(-2.7616118e-05 0.0030960531 0)
(-4.3453838e-05 0.0031013548 0)
(-5.5375499e-05 0.0031001192 0)
(-6.1783668e-05 0.0030748494 0)
(-6.1399223e-05 0.0029920556 0)
(-5.3330368e-05 0.0027975513 0)
(-3.7528023e-05 0.0024174234 0)
(-1.6859412e-05 0.0017634801 0)
(-2.9745107e-06 0.00073743247 0)
(1.8300675e-06 0.00073019058 0)
(1.0826604e-05 0.0017487003 0)
(2.4768954e-05 0.0024027646 0)
(3.60064e-05 0.0027873936 0)
(4.2322758e-05 0.0029879403 0)
(4.3370209e-05 0.0030768003 0)
(3.9453363e-05 0.0031074005 0)
(3.1312316e-05 0.0031128188 0)
(2.005408e-05 0.0031103448 0)
(6.9057961e-06 0.0031077239 0)
(-6.9001809e-06 0.0031077232 0)
(-2.0048493e-05 0.003110343 0)
(-3.1307033e-05 0.0031128157 0)
(-3.9448464e-05 0.0031073971 0)
(-4.336534e-05 0.0030767976 0)
(-4.2318275e-05 0.002987939 0)
(-3.6002901e-05 0.0027873949 0)
(-2.4766366e-05 0.0024027686 0)
(-1.0825089e-05 0.0017487048 0)
(-1.8296913e-06 0.00073019221 0)
(1.1428772e-06 0.00072554383 0)
(7.0303086e-06 0.0017388839 0)
(1.6449125e-05 0.002392669 0)
(2.4356017e-05 0.0027800175 0)
(2.9122594e-05 0.0029845509 0)
(3.0298732e-05 0.0030776563 0)
(2.7905895e-05 0.0031121806 0)
(2.2359591e-05 0.0031207981 0)
(1.4412807e-05 0.0031205488 0)
(4.9778553e-06 0.0031190581 0)
(-4.9737071e-06 0.0031190576 0)
(-1.4408456e-05 0.0031205472 0)
(-2.2355402e-05 0.0031207956 0)
(-2.7901919e-05 0.0031121778 0)
(-3.0295181e-05 0.0030776543 0)
(-2.9119296e-05 0.0029845503 0)
(-2.4353204e-05 0.0027800195 0)
(-1.6447083e-05 0.0023926734 0)
(-7.0289628e-06 0.0017388888 0)
(-1.1424874e-06 0.00072554572 0)
(7.1901444e-07 0.00072253205 0)
(4.6003608e-06 0.0017323275 0)
(1.0979029e-05 0.0023857271 0)
(1.6508529e-05 0.0027747356 0)
(2.0022109e-05 0.002981904 0)
(2.1094275e-05 0.0030779599 0)
(1.9629651e-05 0.003115326 0)
(1.5855053e-05 0.0031263326 0)
(1.0275713e-05 0.0031277813 0)
(3.5576794e-06 0.0031271653 0)
(-3.5548786e-06 0.003127165 0)
(-1.0272469e-05 0.0031277796 0)
(-1.5852064e-05 0.0031263306 0)
(-1.9627129e-05 0.0031153241 0)
(-2.109202e-05 0.0030779586 0)
(-2.0020208e-05 0.0029819041 0)
(-1.6506961e-05 0.0027747382 0)
(-1.097789e-05 0.0023857319 0)
(-4.5997075e-06 0.0017323331 0)
(-7.1880686e-07 0.00072253408 0)
(4.5311322e-07 0.00072056774 0)
(3.0249983e-06 0.0017279294 0)
(7.355538e-06 0.0023809567 0)
(1.1208429e-05 0.0027709887 0)
(1.3757691e-05 0.0029799033 0)
(1.4647293e-05 0.0030780016 0)
(1.3748669e-05 0.0031174022 0)
(1.1179828e-05 0.0031301614 0)
(7.2785567e-06 0.0031328779 0)
(2.5255591e-06 0.0031329228 0)
(-2.5230313e-06 0.0031329224 0)
(-7.2760944e-06 0.0031328767 0)
(-1.1177419e-05 0.0031301598 0)
(-1.3746548e-05 0.0031174005 0)
(-1.4645733e-05 0.0030780007 0)
(-1.3756433e-05 0.0029799037 0)
(-1.1207351e-05 0.0027709915 0)
(-7.3549734e-06 0.0023809619 0)
(-3.0248542e-06 0.0017279354 0)
(-4.5311124e-07 0.00072057028 0)
(2.845371e-07 0.00071928257 0)
(1.9943604e-06 0.001724969 0)
(4.9407071e-06 0.0023776786 0)
(7.6188265e-06 0.0027683467 0)
(9.4480365e-06 0.0029784236 0)
(1.0148584e-05 0.0030779328 0)
(9.5954021e-06 0.0031187772 0)
(7.8465056e-06 0.0031328051 0)
(5.1279034e-06 0.0031364532 0)
(1.7824111e-06 0.0031369878 0)
(-1.7810767e-06 0.0031369872 0)
(-5.1266248e-06 0.0031364523 0)
(-7.8452151e-06 0.0031328037 0)
(-9.594112e-06 0.0031187752 0)
(-1.0147695e-05 0.0030779317 0)
(-9.4474238e-06 0.0029784238 0)
(-7.6181908e-06 0.0027683494 0)
(-4.9401484e-06 0.002377684 0)
(-1.993946e-06 0.0017249756 0)
(-2.8436843e-07 0.00071928559 0)
(1.7725017e-07 0.00071844129 0)
(1.3158445e-06 0.0017229723 0)
(3.3234789e-06 0.0023754257 0)
(5.1820635e-06 0.0027664918 0)
(6.484346e-06 0.0029773455 0)
(7.0181697e-06 0.0030778284 0)
(6.6767377e-06 0.0031196905 0)
(5.4859798e-06 0.003134628 0)
(3.596728e-06 0.0031389517 0)
(1.2517805e-06 0.0031398438 0)
(-1.2514169e-06 0.0031398432 0)
(-3.5961474e-06 0.0031389506 0)
(-5.4855712e-06 0.0031346264 0)
(-6.6764088e-06 0.0031196883 0)
(-7.0178986e-06 0.0030778268 0)
(-6.4840269e-06 0.0029773454 0)
(-5.181626e-06 0.0027664944 0)
(-3.3229513e-06 0.002375431 0)
(-1.3155902e-06 0.0017229791 0)
(-1.7731842e-07 0.0007184443 0)
(1.0923837e-07 0.00071789113 0)
(8.679803e-07 0.0017216241 0)
(2.2370356e-06 0.0023738777 0)
(3.5248241e-06 0.002765194 0)
(4.446631e-06 0.0029765681 0)
(4.8448931e-06 0.0030777219 0)
(4.6339698e-06 0.0031202983 0)
(3.822998e-06 0.003135883 0)
(2.5132409e-06 0.0031406919 0)
(8.7565656e-07 0.0031418422 0)
(-8.7605078e-07 0.0031418417 0)
(-2.513285e-06 0.0031406907 0)
(-3.8230354e-06 0.0031358812 0)
(-4.6338443e-06 0.003120296 0)
(-4.8448452e-06 0.0030777201 0)
(-4.4467643e-06 0.002976568 0)
(-3.5248543e-06 0.0027651964 0)
(-2.2364717e-06 0.0023738827 0)
(-8.6750731e-07 0.0017216308 0)
(-1.0928228e-07 0.00071789427 0)
(6.6233673e-08 0.00071753206 0)
(5.7138355e-07 0.0017207129 0)
(1.5053434e-06 0.0023728142 0)
(2.3967727e-06 0.0027642887 0)
(3.0461873e-06 0.0029760124 0)
(3.3386635e-06 0.0030776277 0)
(3.2082774e-06 0.0031207034 0)
(2.6561252e-06 0.0031367456 0)
(1.7499465e-06 0.0031419004 0)
(6.1002533e-07 0.0031432356 0)
(-6.1148383e-07 0.003143235 0)
(-1.7511585e-06 0.0031418991 0)
(-2.6569137e-06 0.0031367437 0)
(-3.2088045e-06 0.003120701 0)
(-3.3390564e-06 0.0030776256 0)
(-3.0463949e-06 0.0029760119 0)
(-2.3964351e-06 0.0027642904 0)
(-1.5044582e-06 0.0023728192 0)
(-5.7060608e-07 0.0017207202 0)
(-6.5998323e-08 0.00071753567 0)
(3.9258262e-08 0.00071729864 0)
(3.7506443e-07 0.0017200974 0)
(1.0120154e-06 0.0023720838 0)
(1.6284728e-06 0.0027636583 0)
(2.0844055e-06 0.0029756176 0)
(2.2966093e-06 0.0030775501 0)
(2.2160953e-06 0.0031209738 0)
(1.840406e-06 0.0031373379 0)
(1.2149477e-06 0.0031427377 0)
(4.2359319e-07 0.0031442044 0)
(-4.2566399e-07 0.0031442037 0)
(-1.216747e-06 0.0031427365 0)
(-1.841963e-06 0.0031373359 0)
(-2.2174861e-06 0.0031209711 0)
(-2.2977492e-06 0.0030775478 0)
(-2.0847144e-06 0.0029756163 0)
(-1.6280755e-06 0.0027636594 0)
(-1.0111562e-06 0.0023720888 0)
(-3.7412332e-07 0.0017201047 0)
(-3.8887918e-08 0.00071730245 0)
(2.2307975e-08 0.00071714797 0)
(2.4484258e-07 0.0017196816 0)
(6.7916551e-07 0.0023715827 0)
(1.104953e-06 0.0027632204 0)
(1.4242691e-06 0.0029753383 0)
(1.5773675e-06 0.0030774887 0)
(1.5277435e-06 0.0031211544 0)
(1.2720319e-06 0.0031377442 0)
(8.4082521e-07 0.0031433166 0)
(2.9298917e-07 0.003144876 0)
(-2.9587842e-07 0.0031448754 0)
(-8.4364425e-07 0.0031433152 0)
(-1.2743839e-06 0.003137742 0)
(-1.5298555e-06 0.0031211515 0)
(-1.5789379e-06 0.003077486 0)
(-1.4249985e-06 0.0029753361 0)
(-1.1051164e-06 0.0027632207 0)
(-6.7925592e-07 0.0023715875 0)
(-2.4476122e-07 0.0017196891 0)
(-2.2184477e-08 0.00071715196 0)
(1.1926429e-08 0.00071705128 0)
(1.5919518e-07 0.0017194013 0)
(4.5516309e-07 0.0023712394 0)
(7.4892265e-07 0.0027629163 0)
(9.7166069e-07 0.0029751412 0)
(1.0811495e-06 0.0030774415 0)
(1.0509593e-06 0.0031212749 0)
(8.7707115e-07 0.0031380222 0)
(5.8050287e-07 0.0031437155 0)
(2.0180724e-07 0.0031453405 0)
(-2.0573004e-07 0.0031453399 0)
(-5.8438743e-07 0.003143714 0)
(-8.807451e-07 0.0031380196 0)
(-1.0541794e-06 0.0031212717 0)
(-1.0840075e-06 0.0030774382 0)
(-9.7339475e-07 0.0029751384 0)
(-7.4953361e-07 0.002762916 0)
(-4.5546631e-07 0.0023712437 0)
(-1.5924157e-07 0.0017194092 0)
(-1.1973551e-08 0.0007170557 0)
(5.4478904e-09 0.00071698989 0)
(1.0241225e-07 0.0017192128 0)
(3.0412046e-07 0.0023710042 0)
(5.0628981e-07 0.0027627052 0)
(6.6157373e-07 0.0029750026 0)
(7.3972694e-07 0.0030774059 0)
(7.2152254e-07 0.0031213553 0)
(6.0350419e-07 0.0031382124 0)
(3.9956627e-07 0.00314399 0)
(1.3813571e-07 0.003145661 0)
(-1.4344255e-07 0.0031456605 0)
(-4.0456606e-07 0.0031439884 0)
(-6.0825164e-07 0.0031382092 0)
(-7.2609603e-07 0.0031213518 0)
(-7.4379565e-07 0.003077402 0)
(-6.6474973e-07 0.0029749992 0)
(-5.0854103e-07 0.0027627044 0)
(-3.0516185e-07 0.0023710078 0)
(-1.028286e-07 0.0017192203 0)
(-5.7532589e-09 0.00071699449 0)
(1.9098427e-09 0.00071695143 0)
(6.5268754e-08 0.001719086 0)
(2.0246494e-07 0.0023708429 0)
(3.4192816e-07 0.0027625591 0)
(4.5021376e-07 0.0029749053 0)
(5.0563514e-07 0.0030773791 0)
(4.9454887e-07 0.0031214089 0)
(4.1440749e-07 0.0031383421 0)
(2.7432205e-07 0.003144179 0)
(9.4115127e-08 0.0031458819 0)
(-1.0026475e-07 0.0031458816 0)
(-2.8060872e-07 0.0031441771 0)
(-4.2054516e-07 0.0031383386 0)
(-5.0069446e-07 0.003121405 0)
(-5.1124054e-07 0.0030773748 0)
(-4.5479472e-07 0.0029749013 0)
(-3.4540945e-07 0.0027625576 0)
(-2.0462487e-07 0.0023708456 0)
(-6.6210085e-08 0.0017190924 0)
(-2.0734982e-09 0.00071695568 0)
(-5.9910866e-11 0.00071692754 0)
(4.1272391e-08 0.0017190006 0)
(1.3452038e-07 0.0023707321 0)
(2.3071033e-07 0.0027624581 0)
(3.0649846e-07 0.0029748369 0)
(3.459181e-07 0.003077359 0)
(3.3905238e-07 0.0031214444 0)
(2.843418e-07 0.0031384306 0)
(1.8805358e-07 0.0031443089 0)
(6.3553949e-08 0.0031460343 0)
(-7.0880631e-08 0.0031460337 0)
(-1.9539707e-07 0.0031443072 0)
(-2.9186632e-07 0.0031384274 0)
(-3.4640821e-07 0.0031214404 0)
(-3.5241474e-07 0.0030773545 0)
(-3.1220336e-07 0.0029748321 0)
(-2.3550646e-07 0.0027624556 0)
(-1.3798131e-07 0.0023707337 0)
(-4.3124894e-08 0.001719006 0)
(-4.4634568e-10 0.00071693144 0)
(-1.0453868e-09 0.00071691301 0)
(2.5561635e-08 0.0017189432 0)
(8.9323861e-08 0.002370656 0)
(1.562759e-07 0.0027623876 0)
(2.0921814e-07 0.0029747885 0)
(2.3717897e-07 0.0030773442 0)
(2.3296849e-07 0.0031214681 0)
(1.9520678e-07 0.0031384914 0)
(1.2851533e-07 0.0031443984 0)
(4.2181553e-08 0.0031461394 0)
(-5.10667e-08 0.0031461389 0)
(-1.3730456e-07 0.0031443968 0)
(-2.0406821e-07 0.0031384883 0)
(-2.414841e-07 0.0031214641 0)
(-2.4519513e-07 0.0030773393 0)
(-2.1666077e-07 0.0029747834 0)
(-1.6268533e-07 0.0027623839 0)
(-9.4213616e-08 0.0023706562 0)
(-2.780673e-08 0.0017189471 0)
(7.3479564e-10 0.00071691621 0)
(-1.3654886e-09 0.00071690445 0)
(1.6274502e-08 0.0017189042 0)
(6.0501804e-08 0.0023706033 0)
(1.073472e-07 0.0027623378 0)
(1.4460696e-07 0.0029747542 0)
(1.6440768e-07 0.0030773335 0)
(1.6161323e-07 0.0031214843 0)
(1.3513525e-07 0.0031385335 0)
(8.8210895e-08 0.0031444608 0)
(2.7646847e-08 0.0031462127 0)
(-3.7743974e-08 0.0031462123 0)
(-9.8182398e-08 0.0031444592 0)
(-1.4495723e-07 0.0031385305 0)
(-1.7124492e-07 0.0031214804 0)
(-1.7387068e-07 0.0030773282 0)
(-1.537511e-07 0.0029747489 0)
(-1.1519253e-07 0.0027623333 0)
(-6.6020321e-08 0.0023706013 0)
(-1.879704e-08 0.0017189058 0)
(8.4705503e-10 0.00071690633 0)
(-1.4180198e-09 0.00071689901 0)
(1.0824428e-08 0.0017188774 0)
(4.28579e-08 0.0023705657 0)
(7.6743377e-08 0.0027623024 0)
(1.0331049e-07 0.00297473 0)
(1.1703315e-07 0.0030773259 0)
(1.1462547e-07 0.003121496 0)
(9.5210753e-08 0.0031385635 0)
(6.1255101e-08 0.0031445049 0)
(1.7819326e-08 0.0031462648 0)
(-2.8729337e-08 0.0031462641 0)
(-7.1922183e-08 0.0031445036 0)
(-1.059718e-07 0.0031385605 0)
(-1.2532871e-07 0.003121492 0)
(-1.2757576e-07 0.0030773206 0)
(-1.1342027e-07 0.0029747242 0)
(-8.5419043e-08 0.0027622969 0)
(-4.9140482e-08 0.0023705618 0)
(-1.3974915e-08 0.0017188762 0)
(7.0775609e-10 0.00071689954 0)
(-8.8560483e-10 0.00071689489 0)
(8.9512496e-09 0.001718857 0)
(3.3724805e-08 0.0023705376 0)
(5.9340767e-08 0.0027622763 0)
(7.8898748e-08 0.0029747125 0)
(8.8004376e-08 0.0030773207 0)
(8.4661471e-08 0.0031215049 0)
(6.9238601e-08 0.0031385854 0)
(4.3702969e-08 0.0031445368 0)
(1.1374544e-08 0.0031463022 0)
(-2.3262986e-08 0.0031463014 0)
(-5.5542013e-08 0.0031445355 0)
(-8.1203574e-08 0.0031385827 0)
(-9.6608348e-08 0.0031215007 0)
(-9.9452707e-08 0.0030773155 0)
(-8.9653679e-08 0.0029747061 0)
(-6.8925067e-08 0.0027622691 0)
(-4.0793752e-08 0.0023705313 0)
(-1.2366574e-08 0.0017188527 0)
(2.0940399e-10 0.00071689381 0)
(-7.5954268e-10 0.00071689211 0)
(9.1375598e-09 0.0017188404 0)
(3.1889642e-08 0.0023705155 0)
(5.3001418e-08 0.0027622569 0)
(6.7397364e-08 0.002974701 0)
(7.237825e-08 0.003077319 0)
(6.7394638e-08 0.0031215138 0)
(5.3863998e-08 0.0031386036 0)
(3.2916285e-08 0.0031445622 0)
(7.2315493e-09 0.0031463311 0)
(-1.9907974e-08 0.0031463304 0)
(-4.5697884e-08 0.0031445607 0)
(-6.6681941e-08 0.0031386011 0)
(-8.022164e-08 0.0031215097 0)
(-8.4555351e-08 0.0030773135 0)
(-7.8653772e-08 0.0029746936 0)
(-6.2667744e-08 0.0027622481 0)
(-3.9001021e-08 0.002370506 0)
(-1.2898121e-08 0.0017188327 0)
(-1.831379e-10 0.00071688905 0)
(-4.1553773e-10 0.00071689425 0)
(1.1498013e-08 0.0017188309 0)
(3.5839084e-08 0.0023705023 0)
(5.5193157e-08 0.0027622481 0)
(6.5805879e-08 0.0029747001 0)
(6.7126657e-08 0.0030773272 0)
(5.9821042e-08 0.0031215303 0)
(4.564517e-08 0.0031386269 0)
(2.646461e-08 0.0031445905 0)
(4.5151477e-09 0.0031463619 0)
(-1.8364422e-08 0.003146361 0)
(-4.0266388e-08 0.0031445887 0)
(-5.9230639e-08 0.0031386241 0)
(-7.3239077e-08 0.003121526 0)
(-7.9899772e-08 0.0030773211 0)
(-7.7741662e-08 0.0029746917 0)
(-6.5447338e-08 0.0027622374 0)
(-4.312645e-08 0.00237049 0)
(-1.492387e-08 0.0017188196 0)
(-2.1833598e-10 0.00071688915 0)
(-1.491548e-10 0.00071687937 0)
(1.5692403e-08 0.0017188009 0)
(4.48056e-08 0.0023704739 0)
(6.4269473e-08 0.0027622277 0)
(7.2070679e-08 0.0029746892 0)
(6.9126081e-08 0.0030773251 0)
(5.8196999e-08 0.0031215348 0)
(4.2245388e-08 0.0031386362 0)
(2.3380553e-08 0.0031446027 0)
(2.9850062e-09 0.0031463757 0)
(-1.7814458e-08 0.0031463748 0)
(-3.8035611e-08 0.0031446007 0)
(-5.6621406e-08 0.0031386328 0)
(-7.2004581e-08 0.0031215296 0)
(-8.2265019e-08 0.0030773181 0)
(-8.4197758e-08 0.0029746795 0)
(-7.4667354e-08 0.0027622149 0)
(-5.2278254e-08 0.0023704589 0)
(-1.9377322e-08 0.0017187864 0)
(-7.0861483e-10 0.00071687248 0)
(4.5291132e-09 0.00071680467 0)
(2.5855771e-08 0.0017186875 0)
(5.6624427e-08 0.0023703701 0)
(7.5137755e-08 0.0027621394 0)
(8.0127387e-08 0.0029746143 0)
(7.3410511e-08 0.0030772597 0)
(5.8864883e-08 0.0031214747 0)
(4.0605373e-08 0.0031385787 0)
(2.1148706e-08 0.0031445459 0)
(1.5428871e-09 0.0031463192 0)
(-1.7941056e-08 0.0031463184 0)
(-3.7506382e-08 0.0031445437 0)
(-5.6644646e-08 0.0031385748 0)
(-7.4012654e-08 0.0031214684 0)
(-8.7405361e-08 0.0030772512 0)
(-9.3056722e-08 0.002974603 0)
(-8.625859e-08 0.0027621241 0)
(-6.4595268e-08 0.0023703514 0)
(-2.9647285e-08 0.0017186688 0)
(-5.2389231e-09 0.00071679568 0)
(1.0097653e-08 0.00071683331 0)
(3.4363353e-08 0.0017187227 0)
(6.1316787e-08 0.0023704077 0)
(7.7270114e-08 0.0027621911 0)
(8.0256058e-08 0.0029746843 0)
(7.2082328e-08 0.0030773446 0)
(5.6444171e-08 0.003121568 0)
(3.7804464e-08 0.0031386755 0)
(1.9032278e-08 0.003144643 0)
(5.32902e-10 0.0031464159 0)
(-1.791204e-08 0.0031464153 0)
(-3.6265745e-08 0.0031446408 0)
(-5.5096853e-08 0.0031386712 0)
(-7.3033885e-08 0.0031215605 0)
(-8.7048805e-08 0.0030773338 0)
(-9.3693824e-08 0.0029746699 0)
(-8.8331767e-08 0.0027621723 0)
(-6.9449885e-08 0.0023703838 0)
(-3.8585207e-08 0.0017186981 0)
(-1.0887728e-08 0.00071682094 0)
)
;

boundaryField
{
    Wall
    {
        type            fixedValue;
        value           uniform (0 0 0);
    }
    frontAndBack
    {
        type            empty;
    }
    atmosphere
    {
        type            pressureInletOutletVelocity;
        value           nonuniform List<vector> 
20
(
(1.0097653e-08 0.00071683331 0)
(3.4363353e-08 0.0017187227 0)
(6.1316787e-08 0.0023704077 0)
(7.7270114e-08 0.0027621911 0)
(8.0256058e-08 0.0029746843 0)
(7.2082328e-08 0.0030773446 0)
(5.6444171e-08 0.003121568 0)
(3.7804464e-08 0.0031386755 0)
(1.9032278e-08 0.003144643 0)
(5.32902e-10 0.0031464159 0)
(-1.791204e-08 0.0031464153 0)
(-3.6265745e-08 0.0031446408 0)
(-5.5096853e-08 0.0031386712 0)
(-7.3033885e-08 0.0031215605 0)
(-8.7048805e-08 0.0030773338 0)
(-9.3693824e-08 0.0029746699 0)
(-8.8331767e-08 0.0027621723 0)
(-6.9449885e-08 0.0023703838 0)
(-3.8585207e-08 0.0017186981 0)
(-1.0887728e-08 0.00071682094 0)
)
;
    }
}


// ************************************************************************* //
