/*--------------------------------*- C++ -*----------------------------------*\
| =========                 |                                                 |
| \\      /  F ield         | OpenFOAM: The Open Source CFD Toolbox           |
|  \\    /   O peration     | Version:  3.0.1                                 |
|   \\  /    A nd           | Web:      www.OpenFOAM.org                      |
|    \\/     M anipulation  |                                                 |
\*---------------------------------------------------------------------------*/
FoamFile
{
    version     2.0;
    format      ascii;
    class       volScalarField;
    location    "14";
    object      wBA_l_0;
}
// * * * * * * * * * * * * * * * * * * * * * * * * * * * * * * * * * * * * * //

dimensions      [0 0 0 0 0 0 0];

internalField   nonuniform List<scalar> 
800
(
0.056220565
0.056220357
0.056220327
0.056220326
0.056220322
0.056220321
0.056220322
0.056220322
0.056220323
0.056220323
0.056220323
0.056220323
0.056220322
0.056220322
0.056220321
0.056220322
0.056220326
0.056220327
0.056220357
0.056220564
0.056334111
0.056331358
0.056329948
0.056329326
0.056328885
0.05632856
0.05632832
0.056328151
0.056328043
0.05632799
0.05632799
0.056328043
0.056328151
0.056328321
0.05632856
0.056328885
0.056329326
0.056329948
0.056331358
0.056334111
0.051377013
0.051411512
0.051412281
0.051412361
0.05141201
0.051411713
0.051411446
0.051411219
0.051411056
0.051410972
0.051410972
0.051411056
0.051411219
0.051411445
0.051411713
0.05141201
0.051412361
0.05141228
0.051411512
0.051377012
0.043319053
0.043418455
0.043426348
0.043425461
0.043423958
0.04342257
0.043421332
0.043420324
0.043419623
0.043419267
0.043419267
0.043419624
0.043420325
0.043421334
0.043422572
0.04342396
0.043425464
0.043426351
0.043418458
0.043319056
0.033674436
0.033921263
0.033944912
0.033945412
0.033942027
0.033938283
0.033934873
0.033932147
0.033930311
0.033929386
0.033929387
0.033930312
0.03393215
0.033934876
0.033938288
0.033942033
0.033945419
0.033944919
0.03392127
0.033674443
0.023691195
0.024234153
0.024328138
0.024344769
0.024341882
0.024334746
0.024328429
0.024322898
0.024319418
0.024317629
0.02431763
0.02431942
0.024322901
0.024328434
0.024334753
0.024341889
0.024344777
0.024328147
0.024234163
0.023691208
0.013913807
0.014849649
0.015115947
0.015175216
0.015178363
0.01516774
0.015158016
0.015150408
0.015145559
0.015142608
0.015142609
0.015145559
0.015150409
0.015158021
0.015167744
0.01517837
0.015175227
0.015115955
0.014849658
0.013913822
0.0063655648
0.0076516118
0.0081173881
0.0082408215
0.0082521898
0.0082363798
0.0082178162
0.0082074538
0.0082000174
0.0081954469
0.0081954451
0.008200016
0.0082074485
0.0082178151
0.008236381
0.0082521921
0.0082408307
0.0081173899
0.0076516183
0.0063655785
0.0019889705
0.0033541487
0.0038919216
0.0040610168
0.0040812462
0.0040588613
0.0040299442
0.0040122278
0.0039999985
0.0039935075
0.0039935041
0.0039999955
0.004012218
0.0040299386
0.0040588597
0.0040812434
0.0040610202
0.0038919186
0.0033541496
0.001988978
0.00040404958
0.0012406323
0.0016782215
0.0018459571
0.0018784989
0.0018632709
0.0018374352
0.0018192009
0.0018065915
0.0018002366
0.0018002335
0.001806588
0.0018191917
0.0018374286
0.0018632676
0.0018784935
0.0018459561
0.0016782172
0.00124063
0.00040405178
5.6098107e-05
0.00038896771
0.00065287311
0.00077639837
0.00080939256
0.00080424522
0.0007886707
0.0007760668
0.00076718764
0.00076277239
0.00076277057
0.00076718466
0.00077606055
0.00078866556
0.00080424201
0.00080938739
0.00077639581
0.00065286996
0.00038896553
5.6098494e-05
5.800775e-06
0.00010525832
0.00023099134
0.00030291383
0.00032680281
0.00032702485
0.00031989719
0.00031321136
0.00030838776
0.00030599212
0.00030599122
0.0003083858
0.00031320794
0.00031989397
0.00032702254
0.00032679931
0.00030291156
0.00023098958
0.00010525718
5.8008186e-06
4.8688733e-07
2.5271776e-05
7.5086692e-05
0.00010998138
0.00012367128
0.0001252126
0.00012260777
0.00011968279
0.0001175108
0.00011642776
0.00011642737
0.00011750973
0.00011968117
0.00012260606
0.00012521122
0.0001236694
0.00010997998
7.5085879e-05
2.5271357e-05
4.8689069e-07
3.5656203e-08
5.5407225e-06
2.2641987e-05
3.7283323e-05
4.3875352e-05
4.5103229e-05
4.4342001e-05
4.3245595e-05
4.2400696e-05
4.1976187e-05
4.1976026e-05
4.24002e-05
4.3244896e-05
4.4341199e-05
4.5102511e-05
4.387451e-05
3.7282644e-05
2.2641653e-05
5.5405997e-06
3.5656328e-08
2.4160633e-09
1.1352482e-06
6.3825274e-06
1.1834648e-05
1.460007e-05
1.5275137e-05
1.5110185e-05
1.4750929e-05
1.4459977e-05
1.4312055e-05
1.4311991e-05
1.4459774e-05
1.475065e-05
1.5109847e-05
1.5274806e-05
1.459974e-05
1.1834368e-05
6.382405e-06
1.1352175e-06
2.416054e-09
1.5897879e-10
2.2057678e-07
1.6908608e-06
3.5256596e-06
4.5602907e-06
4.8628385e-06
4.8466948e-06
4.7428598e-06
4.6528482e-06
4.6062825e-06
4.6062586e-06
4.6527727e-06
4.7427557e-06
4.8465648e-06
4.8627019e-06
4.5601729e-06
3.5255579e-06
1.6908202e-06
2.2056983e-07
1.5897628e-10
1.0522042e-11
4.0926095e-08
4.2236759e-07
9.8755467e-07
1.3383175e-06
1.455544e-06
1.4627722e-06
1.4362965e-06
1.4110564e-06
1.3976758e-06
1.3976674e-06
1.4110307e-06
1.4362602e-06
1.4627262e-06
1.4554934e-06
1.3382783e-06
9.8752151e-07
4.2235543e-07
4.0924636e-08
1.052171e-11
7.1149209e-13
7.264935e-09
9.9677283e-08
2.6049011e-07
3.6947053e-07
4.0989986e-07
4.154921e-07
4.0960256e-07
4.0315473e-07
3.996217e-07
3.9961895e-07
4.0314653e-07
4.095907e-07
4.1547704e-07
4.0988291e-07
3.6945814e-07
2.6048019e-07
9.9673941e-08
7.2646475e-09
7.1145822e-13
4.893905e-14
1.2330979e-09
2.2253052e-08
6.4798595e-08
9.6087117e-08
1.0871593e-07
1.1115548e-07
1.1005047e-07
1.0854638e-07
1.0768557e-07
1.0768474e-07
1.0854394e-07
1.1004686e-07
1.1115089e-07
1.0871075e-07
9.6083379e-08
6.4795844e-08
2.2252199e-08
1.233044e-09
4.8936075e-14
3.3710428e-15
1.9986904e-10
4.7047526e-09
1.5223972e-08
2.3577127e-08
2.7192273e-08
2.8040311e-08
2.7882992e-08
2.7562709e-08
2.7368665e-08
2.7368428e-08
2.7562027e-08
2.7881964e-08
2.8039013e-08
2.7190816e-08
2.357606e-08
1.5223258e-08
4.7045501e-09
1.998595e-10
3.3708053e-15
2.2868215e-16
3.0904499e-11
9.4298569e-10
3.3833438e-09
5.4673401e-09
6.4239405e-09
6.6794893e-09
6.6706181e-09
6.6085961e-09
6.5680631e-09
6.5680007e-09
6.6084168e-09
6.6703444e-09
6.6791456e-09
6.4235604e-09
5.4670528e-09
3.3831694e-09
9.4294037e-10
3.0902895e-11
2.2866452e-16
1.5086509e-17
4.5561896e-12
1.7938999e-10
7.1237584e-10
1.2002224e-09
1.4357743e-09
1.504921e-09
1.5091554e-09
1.498338e-09
1.4904877e-09
1.4904723e-09
1.4982939e-09
1.5090872e-09
1.5048356e-09
1.4356816e-09
1.2001499e-09
7.1233559e-10
1.7938044e-10
4.5559324e-12
1.5085279e-17
9.6034361e-19
6.4045496e-13
3.243085e-11
1.4233658e-10
2.4985764e-10
3.0412546e-10
3.2124454e-10
3.2341668e-10
3.2175435e-10
3.2034533e-10
3.2034176e-10
3.217441e-10
3.2340073e-10
3.2122463e-10
3.0410416e-10
2.4984052e-10
1.4232777e-10
3.2428956e-11
6.4041569e-13
9.602625e-19
5.8733121e-20
8.5874231e-14
5.5789775e-12
2.7031173e-11
4.94087e-11
6.1158775e-11
6.5082342e-11
6.5765034e-11
6.5552019e-11
6.5318191e-11
6.5317409e-11
6.5549773e-11
6.5761524e-11
6.507797e-11
6.115415e-11
4.9404918e-11
2.7029334e-11
5.578622e-12
8.5868539e-14
5.8728042e-20
3.4440406e-21
1.0990771e-14
9.1446744e-13
4.8869394e-12
9.2962675e-12
1.169629e-11
1.2535501e-11
1.2710878e-11
1.2692105e-11
1.2656416e-11
1.2656254e-11
1.2691639e-11
1.271015e-11
1.2534595e-11
1.1695339e-11
9.2954837e-12
4.886574e-12
9.1440396e-13
1.0989987e-14
3.4437379e-21
1.9349027e-22
1.3438956e-15
1.430143e-13
8.4235069e-13
1.6668468e-12
2.1307829e-12
2.2992994e-12
2.3390052e-12
2.3393422e-12
2.3343872e-12
2.334355e-12
2.3392507e-12
2.3388622e-12
2.2991214e-12
2.1305973e-12
1.6666937e-12
8.4228141e-13
1.4300352e-13
1.3437932e-15
1.9347307e-22
1.0414818e-23
1.5714492e-16
2.1367701e-14
1.3863243e-13
2.8524702e-13
3.7035442e-13
4.0227091e-13
4.104517e-13
4.1111999e-13
4.1050875e-13
4.1050275e-13
4.1110292e-13
4.1042506e-13
4.0223778e-13
3.7031999e-13
2.8521873e-13
1.3861992e-13
2.1365955e-14
1.5713216e-16
1.0413888e-23
5.3730248e-25
1.7590535e-17
3.0539039e-15
2.1814905e-14
4.6656073e-14
6.1508042e-14
6.7231068e-14
6.8791535e-14
6.8996765e-14
6.893356e-14
6.8932502e-14
6.8993739e-14
6.8786814e-14
6.7225195e-14
6.1501951e-14
4.6651111e-14
2.1812754e-14
3.053633e-15
1.7589011e-17
5.3725399e-25
2.6585194e-26
1.8869206e-18
4.1802514e-16
3.2864459e-15
7.3037573e-15
9.7744654e-15
1.0749085e-14
1.1027584e-14
1.107412e-14
1.1069665e-14
1.1069487e-14
1.107361e-14
1.1026786e-14
1.0748091e-14
9.773436e-15
7.3029276e-15
3.2860936e-15
4.1798474e-16
1.8867456e-18
2.6582128e-26
1.2629038e-27
1.9416513e-19
5.4866194e-17
4.7459191e-16
1.0956989e-15
1.4882432e-15
1.6462939e-15
1.6931337e-15
1.7021913e-15
1.7022912e-15
1.7022628e-15
1.702109e-15
1.6930048e-15
1.6461335e-15
1.4880769e-15
1.0955664e-15
4.7453669e-16
5.4860403e-17
1.9414572e-19
1.2622973e-27
5.7756204e-29
1.9185275e-20
6.9126341e-18
6.5771794e-17
1.577124e-16
2.1737594e-16
2.4183851e-16
2.4930086e-16
2.5089241e-16
2.510109e-16
2.5100656e-16
2.5087971e-16
2.4928096e-16
2.4181372e-16
2.1735019e-16
1.576921e-16
6.5763507e-17
6.9118347e-18
1.9183189e-20
5.7575417e-29
2.5651223e-30
1.8220706e-21
8.369018e-19
8.7570918e-18
2.1805274e-17
3.0493581e-17
3.4114477e-17
3.5245102e-17
3.5503613e-17
3.5533565e-17
3.5532924e-17
3.5501739e-17
3.5242155e-17
3.41108e-17
3.0489756e-17
2.1802291e-17
8.7558996e-18
8.3679557e-19
1.8218531e-21
2.5244416e-30
1.1334198e-31
1.6648194e-22
9.746066e-20
1.1213178e-18
2.8989449e-18
4.1127807e-18
4.6262301e-18
4.7896469e-18
4.8289806e-18
4.8346686e-18
4.8345777e-18
4.8287151e-18
4.7892279e-18
4.6257065e-18
4.1122346e-18
2.8985233e-18
1.1211529e-18
9.7447044e-20
1.6645987e-22
1.0648655e-31
5.2404499e-33
1.4647401e-23
1.0927392e-20
1.3821911e-19
3.7096656e-19
5.3386826e-19
6.0372689e-19
6.2631664e-19
6.3197017e-19
6.329054e-19
6.3289294e-19
6.3193394e-19
6.2625935e-19
6.0365515e-19
5.337933e-19
3.7090917e-19
1.3819715e-19
1.0925708e-20
1.4645225e-23
4.3248154e-33
2.7056417e-34
1.2419801e-24
1.180654e-21
1.6416322e-20
4.5735499e-20
6.6760251e-20
7.5892653e-20
7.8885479e-20
7.9657505e-20
7.9797218e-20
7.9795567e-20
7.9652744e-20
7.8877935e-20
7.5883189e-20
6.6750356e-20
4.5727964e-20
1.6413503e-20
1.1804531e-21
1.2417716e-24
1.6924545e-34
1.5975997e-35
1.0157367e-25
1.2303075e-22
1.8803012e-21
5.4372492e-21
8.0496331e-21
9.1981381e-21
9.5788395e-21
9.6794195e-21
9.6988165e-21
9.6986069e-21
9.6788157e-21
9.5778816e-21
9.1969335e-21
8.0483728e-21
5.4362953e-21
1.8799522e-21
1.230076e-22
1.0155431e-25
6.3865446e-36
1.0269957e-36
8.0185344e-27
1.237474e-23
2.0786307e-22
6.2383986e-22
9.3664312e-22
1.0757519e-21
1.1223201e-21
1.1348614e-21
1.1373959e-21
1.1373703e-21
1.1347874e-21
1.1222028e-21
1.0756038e-21
9.3648815e-22
6.2372313e-22
2.0782134e-22
1.2372165e-23
8.0167937e-27
2.3255527e-37
6.6751712e-38
6.1146951e-28
1.2023142e-24
2.2195274e-23
6.9131382e-23
1.0525835e-22
1.2150249e-22
1.2698757e-22
1.2848793e-22
1.2880212e-22
1.2879909e-22
1.2847917e-22
1.2697369e-22
1.2148489e-22
1.0523993e-22
6.9117573e-23
2.2190455e-23
1.2020378e-24
6.1131798e-28
8.1770709e-39
4.1674385e-39
4.507371e-29
1.1291985e-25
2.2908346e-24
7.404687e-24
1.1432679e-23
1.3263174e-23
1.3886025e-23
1.4058586e-23
1.4095733e-23
1.4095387e-23
1.4057584e-23
1.3884435e-23
1.3261152e-23
1.1430563e-23
7.4031088e-24
2.2902966e-24
1.1289122e-25
4.5060955e-29
2.7792729e-40
2.4383268e-40
3.2138771e-30
1.0258611e-26
2.2870571e-25
7.6713354e-25
1.2010333e-24
1.4002597e-24
1.4685174e-24
1.4876295e-24
1.4918341e-24
1.4917959e-24
1.4875184e-24
1.468341e-24
1.4000348e-24
1.200798e-24
7.6695925e-25
2.2864769e-25
1.0255748e-26
3.212839e-30
9.1729462e-42
)
;

boundaryField
{
    Wall
    {
        type            zeroGradient;
    }
    frontAndBack
    {
        type            empty;
    }
    atmosphere
    {
        type            zeroGradient;
    }
}


// ************************************************************************* //
