/*--------------------------------*- C++ -*----------------------------------*\
| =========                 |                                                 |
| \\      /  F ield         | OpenFOAM: The Open Source CFD Toolbox           |
|  \\    /   O peration     | Version:  3.0.1                                 |
|   \\  /    A nd           | Web:      www.OpenFOAM.org                      |
|    \\/     M anipulation  |                                                 |
\*---------------------------------------------------------------------------*/
FoamFile
{
    version     2.0;
    format      ascii;
    class       volScalarField;
    location    "14";
    object      wBA_l;
}
// * * * * * * * * * * * * * * * * * * * * * * * * * * * * * * * * * * * * * //

dimensions      [0 0 0 0 0 0 0];

internalField   nonuniform List<scalar> 
800
(
0.056214025
0.05621382
0.056213792
0.056213792
0.056213788
0.056213787
0.056213788
0.056213789
0.056213789
0.05621379
0.05621379
0.056213789
0.056213789
0.056213788
0.056213787
0.056213788
0.056213792
0.056213792
0.05621382
0.056214025
0.056331014
0.056328217
0.056326795
0.056326174
0.056325734
0.056325409
0.056325168
0.056324999
0.05632489
0.056324838
0.056324838
0.05632489
0.056324999
0.056325169
0.056325409
0.056325734
0.056326174
0.056326795
0.056328217
0.056331014
0.051423267
0.051457649
0.05145859
0.051458673
0.05145832
0.051458027
0.051457766
0.051457546
0.051457386
0.051457305
0.051457305
0.051457386
0.051457546
0.051457766
0.051458027
0.05145832
0.051458673
0.05145859
0.051457649
0.051423267
0.043440464
0.043539535
0.043547489
0.04354665
0.043545198
0.043543852
0.043542647
0.043541664
0.043540979
0.04354063
0.04354063
0.043540979
0.043541665
0.043542649
0.043543854
0.0435452
0.043546652
0.043547492
0.043539538
0.043440467
0.033863911
0.034109124
0.034132807
0.034133394
0.034130118
0.034126465
0.034123125
0.03412045
0.034118645
0.034117735
0.034117736
0.034118646
0.034120453
0.034123129
0.03412647
0.034130123
0.0341334
0.034132813
0.034109131
0.033863918
0.023930428
0.024466913
0.02455954
0.024575977
0.024573192
0.024566207
0.024559997
0.024554555
0.024551126
0.024549362
0.024549363
0.024551128
0.024554558
0.024560002
0.024566213
0.024573199
0.024575985
0.024559549
0.024466923
0.023930441
0.014157907
0.015086612
0.015349817
0.015408299
0.015411372
0.015400853
0.015391212
0.015383645
0.015378824
0.015375894
0.015375895
0.015378824
0.015383646
0.015391217
0.015400858
0.015411378
0.01540831
0.015349826
0.015086622
0.014157923
0.0065444699
0.0078272428
0.008292145
0.0084148574
0.0084260335
0.0084102149
0.0083917485
0.0083813828
0.0083739686
0.0083694135
0.0083694118
0.0083739673
0.0083813776
0.0083917474
0.0084102163
0.008426036
0.0084148666
0.008292147
0.0078272495
0.0065444837
0.0020743634
0.0034566275
0.0039988322
0.0041684586
0.0041883177
0.0041654728
0.0041362614
0.0041183407
0.0041060141
0.004099468
0.0040994647
0.004106011
0.0041183309
0.0041362559
0.0041654712
0.0041883151
0.0041684621
0.0039988293
0.0034566285
0.002074371
0.00042758547
0.0012886009
0.0017346025
0.00190467
0.0019372472
0.0019213773
0.0018948728
0.0018761711
0.0018632736
0.0018567707
0.0018567677
0.00186327
0.0018761617
0.0018948662
0.001921374
0.0019372419
0.0019046691
0.0017345983
0.0012885987
0.00042758775
6.0139783e-05
0.00040712005
0.00067872137
0.00080522139
0.00083877281
0.00083324467
0.00081707132
0.00080400666
0.00079481873
0.00079024736
0.00079024549
0.00079481571
0.00080400029
0.0008170661
0.00083324143
0.00083876764
0.00080521886
0.00067871818
0.00040711787
6.0140189e-05
6.2854515e-06
0.00011092678
0.00024143618
0.00031574037
0.00034031488
0.00034043018
0.00033294856
0.00032595749
0.00032091827
0.0003184137
0.00031841278
0.00032091626
0.00032595398
0.00033294528
0.00034042783
0.00034031133
0.0003157381
0.0002414344
0.00011092562
6.2854985e-06
5.3197185e-07
2.6781911e-05
7.8871435e-05
0.0001152019
0.00012941648
0.00013097908
0.00012821576
0.00012513308
0.00012284499
0.00012170309
0.00012170268
0.00012284389
0.0001251314
0.000128214
0.00013097766
0.00012941456
0.00011520048
7.8870599e-05
2.6781478e-05
5.3197554e-07
3.9186504e-08
5.8971877e-06
2.3892465e-05
3.9242559e-05
4.6142775e-05
4.7416755e-05
4.659947e-05
4.5435216e-05
4.4538349e-05
4.4087326e-05
4.4087157e-05
4.4537835e-05
4.5434486e-05
4.6598638e-05
4.7416014e-05
4.6141902e-05
3.924186e-05
2.3892121e-05
5.8970596e-06
3.9186657e-08
2.663369e-09
1.2123522e-06
6.7645133e-06
1.2517205e-05
1.5433255e-05
1.6142058e-05
1.5961775e-05
1.5577407e-05
1.5266327e-05
1.5108043e-05
1.5107976e-05
1.5266115e-05
1.5577115e-05
1.5961422e-05
1.6141714e-05
1.5432909e-05
1.2516914e-05
6.7643862e-06
1.2123199e-06
2.6633608e-09
1.7525528e-10
2.3623813e-07
1.7998312e-06
3.747506e-06
4.8460363e-06
5.1665728e-06
5.1476937e-06
5.0357379e-06
4.9388212e-06
4.8886554e-06
4.8886302e-06
4.9387417e-06
5.0356284e-06
5.1475573e-06
5.1664302e-06
4.8459124e-06
3.7473995e-06
1.7997889e-06
2.3623078e-07
1.7525274e-10
1.1571826e-11
4.3956812e-08
4.5158238e-07
1.0550622e-06
1.4299615e-06
1.5551418e-06
1.5624529e-06
1.5336717e-06
1.5063043e-06
1.4917938e-06
1.4917849e-06
1.5062769e-06
1.5336332e-06
1.5624044e-06
1.5550885e-06
1.42992e-06
1.0550273e-06
4.5156961e-07
4.3955266e-08
1.1571481e-11
7.800056e-13
7.8271617e-09
1.070641e-07
2.7976974e-07
3.9700511e-07
4.4049907e-07
4.4643236e-07
4.3997157e-07
4.3293038e-07
4.2907378e-07
4.2907086e-07
4.3292163e-07
4.3995895e-07
4.4641635e-07
4.404811e-07
3.9699194e-07
2.7975922e-07
1.0706057e-07
7.8268562e-09
7.7996976e-13
5.3529073e-14
1.333172e-09
2.4017754e-08
6.997577e-08
1.0385045e-07
1.1753483e-07
1.2016404e-07
1.1893841e-07
1.1728385e-07
1.1633791e-07
1.1633702e-07
1.1728123e-07
1.1893454e-07
1.2015913e-07
1.175293e-07
1.0384646e-07
6.9972834e-08
2.4016849e-08
1.3331146e-09
5.3525897e-14
3.6850853e-15
2.1693424e-10
5.1035098e-09
1.6533252e-08
2.5634797e-08
2.9580064e-08
3.0503727e-08
3.0326193e-08
2.9971194e-08
2.9756491e-08
2.9756237e-08
2.9970458e-08
3.0325086e-08
3.0502329e-08
2.9578498e-08
2.5633654e-08
1.6532486e-08
5.1032934e-09
2.1692402e-10
3.6848297e-15
2.5026477e-16
3.3686715e-11
1.0282841e-09
3.6956647e-09
5.9809715e-09
7.032322e-09
7.3131322e-09
7.3022941e-09
7.2330024e-09
7.1878355e-09
7.187768e-09
7.2328078e-09
7.3019974e-09
7.3127599e-09
7.0319103e-09
5.9806621e-09
3.6954765e-09
1.0282354e-09
3.3684991e-11
2.502457e-16
1.655027e-17
4.9891582e-12
1.9667887e-10
7.8276399e-10
1.3211951e-09
1.5819048e-09
1.6585052e-09
1.6630151e-09
1.6508273e-09
1.6420155e-09
1.6419986e-09
1.6507792e-09
1.6629407e-09
1.6584121e-09
1.5818037e-09
1.3211166e-09
7.8272027e-10
1.9666856e-10
4.9888804e-12
1.6548933e-17
1.0570078e-18
7.0471089e-13
3.5754773e-11
1.5734905e-10
2.767918e-10
3.3727822e-10
3.5639003e-10
3.5878789e-10
3.5689734e-10
3.5530385e-10
3.5529992e-10
3.5688606e-10
3.5877037e-10
3.5636814e-10
3.3725482e-10
2.7677311e-10
1.5733942e-10
3.5752714e-11
7.0466832e-13
1.0569192e-18
6.4896841e-20
9.4966159e-14
6.185877e-12
3.0066425e-11
5.5088245e-11
6.8276713e-11
7.2690181e-11
7.3454694e-11
7.3209597e-11
7.2943124e-11
7.2942257e-11
7.3207109e-11
7.3450808e-11
7.2685341e-11
6.8271596e-11
5.5084085e-11
3.0064406e-11
6.1854881e-12
9.495995e-14
6.4891267e-20
3.8217783e-21
1.2217645e-14
1.019841e-12
5.4696628e-12
1.043262e-11
1.3145326e-11
1.409637e-11
1.4294825e-11
1.4272765e-11
1.4231774e-11
1.4231593e-11
1.4272245e-11
1.4294013e-11
1.4095359e-11
1.3144267e-11
1.0431751e-11
5.4692591e-12
1.0197712e-12
1.2216786e-14
3.8214448e-21
2.1568907e-22
1.5018796e-15
1.6043579e-13
9.4875887e-13
1.8829548e-12
2.4110075e-12
2.6033933e-12
2.6487323e-12
2.6490196e-12
2.6432829e-12
2.6432468e-12
2.6489167e-12
2.6485717e-12
2.6031935e-12
2.4107993e-12
1.8827838e-12
9.4868186e-13
1.6042385e-13
1.5017667e-15
2.1567005e-22
1.1664752e-23
1.7657429e-16
2.4114152e-14
1.5714336e-13
3.2437814e-13
4.2192616e-13
4.5863154e-13
4.6805179e-13
4.6881101e-13
4.6809751e-13
4.6809073e-13
4.6879168e-13
4.6802164e-13
4.5859405e-13
4.2188726e-13
3.2434628e-13
1.5712937e-13
2.4112208e-14
1.7656014e-16
1.1663718e-23
6.0472894e-25
1.9874853e-17
3.4673117e-15
2.4887374e-14
5.3413259e-14
7.0555605e-14
7.7185593e-14
7.8997016e-14
7.9234436e-14
7.916001e-14
7.9158803e-14
7.9230986e-14
7.8991632e-14
7.71789e-14
7.0548675e-14
5.340763e-14
2.488495e-14
3.4670083e-15
1.9873155e-17
6.0467482e-25
3.0071098e-26
2.1439333e-18
4.7751959e-16
3.7737317e-15
8.4182111e-15
1.1289973e-14
1.2427304e-14
1.2753139e-14
1.2807579e-14
1.2802273e-14
1.2802069e-14
1.2806993e-14
1.2752222e-14
1.2426164e-14
1.1288793e-14
8.4172632e-15
3.7733318e-15
4.7747407e-16
2.1437374e-18
3.0067744e-26
1.4357293e-27
2.2186707e-19
6.3062415e-17
5.4853754e-16
1.2715048e-15
1.7309821e-15
1.9167665e-15
1.9719915e-15
1.982687e-15
1.982801e-15
1.9827681e-15
1.9825917e-15
1.9718423e-15
1.916581e-15
1.7307901e-15
1.2713523e-15
5.4847446e-16
6.3055854e-17
2.2184522e-19
1.435107e-27
6.5981018e-29
2.2048645e-20
7.994851e-18
7.652245e-17
1.842746e-16
2.5460488e-16
2.8356995e-16
2.924355e-16
2.9433104e-16
2.9447266e-16
2.944676e-16
2.9431623e-16
2.924123e-16
2.8354107e-16
2.5457496e-16
1.8425108e-16
7.6512918e-17
7.9939397e-18
2.2046285e-20
6.5797371e-29
2.9417768e-30
2.1061905e-21
9.740139e-19
1.0256354e-17
2.5653871e-17
3.5968114e-17
4.028677e-17
4.1640191e-17
4.1950611e-17
4.1986769e-17
4.1986016e-17
4.1948411e-17
4.1636731e-17
4.0282457e-17
3.5963637e-17
2.565039e-17
1.0254973e-17
9.7389207e-19
2.1059432e-21
2.9001419e-30
1.3007402e-31
1.9357213e-22
1.1414733e-19
1.3221046e-18
3.434325e-18
4.8855777e-18
5.5024472e-18
5.6995432e-18
5.7471531e-18
5.7540778e-18
5.7539703e-18
5.746839e-18
5.6990478e-18
5.5018287e-18
4.8849341e-18
3.4338298e-18
1.3219123e-18
1.1413161e-19
1.9354691e-22
1.229878e-31
5.9781756e-33
1.7131804e-23
1.2880117e-20
1.6406985e-19
4.4255199e-19
6.3870839e-19
7.2325256e-19
7.50703e-19
7.5759989e-19
7.5874762e-19
7.5873278e-19
7.5755674e-19
7.5063479e-19
7.2316724e-19
6.3861942e-19
4.4248412e-19
1.6404408e-19
1.2878161e-20
1.7129302e-23
5.0220069e-33
3.044803e-34
1.4613243e-24
1.4005977e-21
1.9619113e-20
5.4945094e-20
8.0443621e-20
9.1576909e-20
9.5241025e-20
9.619016e-20
9.6362968e-20
9.6360988e-20
9.618445e-20
9.5231977e-20
9.1565572e-20
8.0431794e-20
5.4936126e-20
1.9615782e-20
1.4003628e-21
1.4610832e-24
1.9760443e-34
1.7713383e-35
1.2023319e-25
1.468967e-22
2.2625213e-21
6.5783729e-21
9.769489e-21
1.1179929e-20
1.164952e-20
1.1774128e-20
1.1798306e-20
1.1798053e-20
1.1773399e-20
1.1648364e-20
1.1178476e-20
9.7679724e-21
6.5772297e-21
2.2621061e-21
1.4686945e-22
1.2021067e-25
7.4979389e-36
1.1290115e-36
9.549284e-27
1.4871741e-23
2.5183902e-22
7.6014051e-22
1.1450094e-21
1.3171049e-21
1.3749777e-21
1.3906342e-21
1.3938177e-21
1.3937865e-21
1.3905442e-21
1.3748351e-21
1.316925e-21
1.1448217e-21
7.5999967e-22
2.5178904e-22
1.4868689e-23
9.5472463e-27
2.7455145e-37
7.3304624e-38
7.3266252e-28
1.4544224e-24
2.7077291e-23
8.4838951e-23
1.2961277e-22
1.4985766e-22
1.5672553e-22
1.5861291e-22
1.5901058e-22
1.5900686e-22
1.5860218e-22
1.5670853e-22
1.4983614e-22
1.295903e-22
8.4822175e-23
2.7071478e-23
1.4540927e-24
7.3248407e-28
9.7082631e-39
4.5945231e-39
5.4340833e-29
1.3750202e-25
2.8142063e-24
9.1525875e-24
1.4181196e-23
1.6479479e-23
1.7265226e-23
1.7483958e-23
1.7531334e-23
1.7530907e-23
1.7482721e-23
1.7263264e-23
1.6476988e-23
1.4178595e-23
9.1506563e-24
2.8135529e-24
1.3746762e-25
5.4325718e-29
3.3183166e-40
2.7060743e-40
3.8987581e-30
1.2575137e-26
2.8292755e-25
9.5508769e-25
1.5007588e-24
1.7527653e-24
1.8395247e-24
1.8639357e-24
1.8693391e-24
1.8692916e-24
1.8637976e-24
1.8393056e-24
1.7524862e-24
1.5004675e-24
9.5487281e-25
2.8285658e-25
1.2571672e-26
3.89752e-30
1.1006904e-41
)
;

boundaryField
{
    Wall
    {
        type            zeroGradient;
    }
    frontAndBack
    {
        type            empty;
    }
    atmosphere
    {
        type            zeroGradient;
    }
}


// ************************************************************************* //
