/*--------------------------------*- C++ -*----------------------------------*\
| =========                 |                                                 |
| \\      /  F ield         | OpenFOAM: The Open Source CFD Toolbox           |
|  \\    /   O peration     | Version:  3.0.1                                 |
|   \\  /    A nd           | Web:      www.OpenFOAM.org                      |
|    \\/     M anipulation  |                                                 |
\*---------------------------------------------------------------------------*/
FoamFile
{
    version     2.0;
    format      ascii;
    class       volScalarField;
    location    "14";
    object      wBA_g;
}
// * * * * * * * * * * * * * * * * * * * * * * * * * * * * * * * * * * * * * //

dimensions      [0 0 0 0 0 0 0];

internalField   nonuniform List<scalar> 
800
(
0.021514657
0.021517175
0.021517474
0.021517571
0.02151764
0.021517692
0.021517731
0.021517758
0.021517775
0.021517784
0.021517784
0.021517775
0.021517758
0.021517731
0.021517692
0.02151764
0.021517571
0.021517474
0.021517175
0.021514657
0.018479652
0.018614833
0.018625428
0.01862678
0.018628164
0.018629544
0.018630753
0.01863166
0.018632241
0.018632522
0.018632522
0.01863224
0.01863166
0.018630753
0.018629544
0.018628164
0.018626781
0.018625428
0.018614834
0.018479652
0.0087491548
0.0088605251
0.0090401306
0.00904292
0.0090449649
0.0090467893
0.0090482603
0.0090493152
0.0090499777
0.0090502978
0.0090502977
0.0090499774
0.0090493147
0.0090482599
0.009046789
0.0090449646
0.00904292
0.0090401308
0.0088605252
0.008749154
0.0032654964
0.0033263331
0.0033537377
0.0033558267
0.0033573938
0.0033586208
0.0033595205
0.0033601316
0.0033605047
0.0033606819
0.0033606819
0.0033605045
0.0033601312
0.0033595201
0.0033586205
0.0033573935
0.0033558265
0.0033537376
0.0033263329
0.0032654958
0.0014788642
0.001510724
0.0015159763
0.0015174578
0.0015184593
0.0015191789
0.00151966
0.0015199678
0.0015201494
0.001520234
0.001520234
0.0015201493
0.0015199676
0.0015196598
0.0015191787
0.0015184591
0.0015174577
0.0015159763
0.0015107239
0.0014788639
0.00070070167
0.00071903576
0.00072172903
0.00072283751
0.00072340342
0.00072372026
0.00072390296
0.00072399018
0.00072404031
0.00072406097
0.00072406096
0.00072404026
0.00072399011
0.0007239029
0.00072372024
0.00072340342
0.00072283751
0.0007217291
0.00071903582
0.00070070165
0.00029969967
0.00031411796
0.0003169217
0.00031766668
0.00031785617
0.00031785136
0.00031782002
0.00031777037
0.00031773994
0.00031771299
0.00031771299
0.00031773991
0.00031777035
0.00031782004
0.0003178514
0.00031785626
0.00031766684
0.00031692183
0.00031411811
0.00029969981
0.00010672955
0.00012184763
0.00012555796
0.0001261174
0.00012597572
0.00012572352
0.00012550191
0.00012537704
0.00012529231
0.00012523797
0.00012523796
0.00012529229
0.00012537698
0.00012550191
0.00012572357
0.00012597579
0.00012611756
0.00012555805
0.00012184775
0.0001067297
2.7307647e-05
4.1833591e-05
4.6078468e-05
4.6930348e-05
4.6747609e-05
4.6360736e-05
4.6003274e-05
4.5787031e-05
4.5646301e-05
4.5571922e-05
4.5571894e-05
4.5646275e-05
4.5786949e-05
4.6003242e-05
4.6360755e-05
4.6747635e-05
4.6930442e-05
4.6078501e-05
4.1833647e-05
2.7307725e-05
4.6904909e-06
1.2302514e-05
1.5512893e-05
1.6478934e-05
1.6514958e-05
1.6272819e-05
1.5998673e-05
1.5813477e-05
1.5690453e-05
1.5628396e-05
1.5628374e-05
1.569043e-05
1.5813413e-05
1.5998637e-05
1.6272818e-05
1.6514953e-05
1.6478972e-05
1.5512898e-05
1.2302526e-05
4.6905123e-06
5.6061928e-07
3.0725862e-06
4.7445775e-06
5.4255467e-06
5.5506058e-06
5.4616217e-06
5.3236298e-06
5.2201049e-06
5.1491471e-06
5.1137232e-06
5.1137117e-06
5.149132e-06
5.2200685e-06
5.3236057e-06
5.4616146e-06
5.5505923e-06
5.4255549e-06
4.7445753e-06
3.0725853e-06
5.6062295e-07
5.0158423e-08
6.5850123e-07
1.3212556e-06
1.6713171e-06
1.7702514e-06
1.7516497e-06
1.6986515e-06
1.6541737e-06
1.6227051e-06
1.607009e-06
1.6070043e-06
1.6226972e-06
1.6541573e-06
1.6986388e-06
1.7516439e-06
1.7702414e-06
1.6713163e-06
1.3212535e-06
6.5849952e-07
5.0158867e-08
3.6142944e-09
1.2389257e-07
3.3827792e-07
4.8295256e-07
5.3544848e-07
5.3627714e-07
5.1971984e-07
5.0381515e-07
4.9219811e-07
4.8638738e-07
4.863857e-07
4.9219453e-07
5.0380875e-07
5.1971423e-07
5.3627385e-07
5.3544337e-07
4.8295068e-07
3.3827687e-07
1.2389187e-07
3.6143369e-09
2.2213014e-10
2.1051534e-08
8.0652065e-08
1.3158521e-07
1.5379107e-07
1.5669283e-07
1.5240204e-07
1.4746705e-07
1.4373524e-07
1.4185885e-07
1.4185831e-07
1.4373385e-07
1.4746481e-07
1.5239984e-07
1.5669129e-07
1.53789e-07
1.3158411e-07
8.0651659e-08
2.1051344e-08
2.2213347e-10
1.2135932e-11
3.323312e-09
1.8137359e-08
3.3996293e-08
4.2030589e-08
4.3711981e-08
4.2809262e-08
4.145027e-08
4.0379e-08
3.9836e-08
3.9835833e-08
4.037851e-08
4.1449551e-08
4.2808479e-08
4.3711351e-08
4.2029872e-08
3.3995836e-08
1.813722e-08
3.3232713e-09
1.213615e-11
6.0906526e-13
4.9965281e-10
3.8886954e-09
8.3699068e-09
1.0952365e-08
1.1649242e-08
1.1512701e-08
1.1176789e-08
1.0897342e-08
1.0753992e-08
1.0753942e-08
1.0897186e-08
1.1176568e-08
1.1512444e-08
1.164901e-08
1.0952144e-08
8.3697495e-09
3.8886527e-09
4.9964512e-10
6.0907736e-13
2.8993401e-14
7.292137e-11
8.0095616e-10
1.9707917e-09
2.7256555e-09
2.967248e-09
2.9626713e-09
2.8879172e-09
2.8209741e-09
2.7860305e-09
2.7860158e-09
2.8209277e-09
2.8878526e-09
2.9625927e-09
2.9671698e-09
2.7255924e-09
1.9707447e-09
8.0094413e-10
7.2920016e-11
2.8993925e-14
1.3579078e-15
1.0455729e-11
1.5919118e-10
4.4480854e-10
6.4858306e-10
7.226277e-10
7.2924037e-10
7.1434646e-10
6.9952597e-10
6.9159616e-10
6.9159202e-10
6.9951306e-10
7.1432834e-10
7.2921776e-10
7.2260386e-10
6.4856585e-10
4.4479581e-10
1.5918805e-10
1.04555e-11
1.3579225e-15
6.5142447e-17
1.4802282e-12
3.0588396e-11
9.6348669e-11
1.4768975e-10
1.6830261e-10
1.7164547e-10
1.6904032e-10
1.6599874e-10
1.6431468e-10
1.6431357e-10
1.6599536e-10
1.6903547e-10
1.7163934e-10
1.6829593e-10
1.4768521e-10
9.6345471e-11
3.058764e-11
1.4801894e-12
6.5142266e-17
3.3088079e-18
2.0679808e-13
5.6835551e-12
2.0040485e-11
3.2203223e-11
3.7497853e-11
3.8633858e-11
3.8254807e-11
3.7676059e-11
3.7340348e-11
3.7340062e-11
3.7675211e-11
3.8253566e-11
3.8632289e-11
3.7496123e-11
3.2202059e-11
2.0039728e-11
5.6833844e-12
2.0679168e-13
3.3087369e-18
1.7990168e-19
2.8407005e-14
1.0205789e-12
4.0038968e-12
6.7275993e-12
7.995306e-12
8.3174789e-12
8.2796747e-12
8.1778804e-12
8.1149821e-12
8.1149131e-12
8.1776782e-12
8.2793728e-12
8.3170992e-12
7.994888e-12
6.727312e-12
4.0037266e-12
1.0205424e-12
2.8405975e-14
1.7989434e-19
1.0323117e-20
3.8192607e-15
1.7695978e-13
7.6854093e-13
1.3473793e-12
1.6323651e-12
1.7136522e-12
1.7144798e-12
1.6980561e-12
1.6869814e-12
1.6869655e-12
1.6980104e-12
1.7144102e-12
1.7135648e-12
1.6322702e-12
1.3473115e-12
7.6850433e-13
1.7695243e-13
3.8190999e-15
1.0322531e-20
6.0912687e-22
5.0049941e-16
2.9606935e-14
1.4177124e-13
2.5886445e-13
3.1934446e-13
3.3811739e-13
3.3987453e-13
3.3748321e-13
3.3565314e-13
3.356497e-13
3.3747332e-13
3.3985928e-13
3.380983e-13
3.1932404e-13
2.5884927e-13
1.417637e-13
2.9605528e-14
5.0047524e-16
6.0908526e-22
3.6090836e-23
6.372503e-17
4.7775612e-15
2.514342e-14
4.7744353e-14
5.9913108e-14
6.3943682e-14
6.4555219e-14
6.4252397e-14
6.396942e-14
6.396871e-14
6.4250359e-14
6.4552045e-14
6.3939725e-14
5.9908924e-14
4.7741142e-14
2.5141926e-14
4.7773047e-15
6.3721542e-17
3.6088081e-23
2.1124878e-24
7.8658322e-18
7.4342923e-16
4.2894764e-15
8.4601801e-15
1.0789547e-14
1.1601863e-14
1.1759411e-14
1.1729381e-14
1.1688657e-14
1.1688517e-14
1.1728978e-14
1.1758784e-14
1.1601081e-14
1.078873e-14
8.4595383e-15
4.2891916e-15
7.4338453e-16
7.8653513e-18
2.1123147e-24
1.2097594e-25
9.3997148e-19
1.1156504e-16
7.0436511e-16
1.4414703e-15
1.8669131e-15
2.021607e-15
2.056497e-15
2.0552173e-15
2.0498171e-15
2.0497905e-15
2.0551416e-15
2.0563787e-15
2.0214599e-15
1.8667603e-15
1.4413488e-15
7.0431286e-16
1.1155758e-16
9.3990805e-19
1.209655e-25
6.7421252e-27
1.086669e-19
1.6150669e-17
1.1140482e-16
2.3635924e-16
3.1068e-16
3.3865149e-16
3.4563612e-16
3.4602096e-16
3.4537402e-16
3.4536923e-16
3.4600733e-16
3.4561483e-16
3.3862503e-16
3.1065265e-16
2.3633735e-16
1.1139562e-16
1.6149476e-17
1.0865886e-19
6.7415198e-27
3.6464201e-28
1.2149546e-20
2.2563503e-18
1.6983976e-17
3.7329921e-17
4.9773419e-17
5.459374e-17
5.5888038e-17
5.6037131e-17
5.5970208e-17
5.5969386e-17
5.6034783e-17
5.588437e-17
5.4589182e-17
4.9768718e-17
3.7326165e-17
1.6982421e-17
2.2561662e-18
1.2148565e-20
3.6460787e-28
1.9112528e-29
1.3137135e-21
3.0436643e-19
2.4976337e-18
5.6837451e-18
7.6841146e-18
8.4781852e-18
8.7031846e-18
8.738497e-18
8.733292e-18
8.7331569e-18
8.7381098e-18
8.7025783e-18
8.4774319e-18
7.6833379e-18
5.6831281e-18
2.4973819e-18
3.0433895e-19
1.3135975e-21
1.9109757e-29
9.7082767e-31
1.3740521e-22
3.9664993e-20
3.545671e-19
8.3497689e-19
1.1442094e-18
1.2695649e-18
1.3065703e-18
1.3134958e-18
1.3134075e-18
1.3133863e-18
1.3134343e-18
1.306474e-18
1.2694452e-18
1.1440859e-18
8.3487957e-19
3.5452789e-19
3.9661029e-20
1.3739188e-22
9.7000891e-31
4.7951837e-32
1.390621e-23
4.9968836e-21
4.8626318e-20
1.1845034e-19
1.6448227e-19
1.8348591e-19
1.8927775e-19
1.9049191e-19
1.9056779e-19
1.9056459e-19
1.9048254e-19
1.8926306e-19
1.8346762e-19
1.6446336e-19
1.1843556e-19
4.8620437e-20
4.9963295e-21
1.3904716e-23
4.7677643e-32
2.3346424e-33
1.3623707e-24
6.0889143e-22
6.4470926e-21
1.6239318e-20
2.2845645e-20
2.5617162e-20
2.6483487e-20
2.6679909e-20
2.6701478e-20
2.6701008e-20
2.6678536e-20
2.6481325e-20
2.5614466e-20
2.2842851e-20
1.6237152e-20
6.4462426e-21
6.0881649e-22
1.3622076e-24
2.2694271e-33
1.1621008e-34
1.292599e-25
7.1812227e-23
8.2695901e-22
2.1532926e-21
3.0683822e-21
3.4578394e-21
3.5820795e-21
3.611891e-21
3.6161179e-21
3.6160514e-21
3.6116966e-21
3.5817725e-21
3.4574559e-21
3.0679833e-21
2.1529859e-21
8.2684029e-22
7.1802395e-23
1.2924248e-25
1.0463953e-34
6.3082195e-36
1.1883099e-26
8.2024155e-24
1.0269043e-22
2.7635174e-22
3.9881418e-22
4.5161654e-22
4.6874312e-22
4.7303007e-22
4.7373515e-22
4.73726e-22
4.7300345e-22
4.6870098e-22
4.5156377e-22
3.9875912e-22
2.7630966e-22
1.026744e-22
8.2011648e-24
1.1881281e-26
4.6753509e-36
3.9440448e-37
1.0590494e-27
9.0788895e-25
1.2353499e-23
3.4351912e-23
5.0199956e-23
5.71154e-23
5.9389485e-23
5.9977376e-23
6.0083856e-23
6.0082633e-23
5.9973846e-23
5.9383883e-23
5.7108371e-23
5.0192611e-23
3.434632e-23
1.2351401e-23
9.0773485e-25
1.0588645e-27
2.0251644e-37
2.7901135e-38
9.1548308e-29
9.7437997e-26
1.4405937e-24
4.1386712e-24
6.1236229e-24
6.9994598e-24
7.2908102e-24
7.3680434e-24
7.3829997e-24
7.3828423e-24
7.3675895e-24
7.2900894e-24
6.9985522e-24
6.122673e-24
4.1379506e-24
1.4403278e-24
9.7419567e-26
9.1530009e-29
8.5082474e-39
2.0710719e-39
7.6799733e-30
1.0145625e-26
1.6294894e-25
4.8358234e-25
7.2438843e-25
8.317579e-25
8.678262e-25
8.7757894e-25
8.795613e-25
8.7954166e-25
8.7752225e-25
8.677362e-25
8.3164418e-25
7.2426925e-25
4.8349216e-25
1.6291623e-25
1.0143489e-26
7.6782125e-30
3.4687226e-40
1.5069785e-40
6.2556183e-31
1.0254794e-27
1.7888599e-26
5.4833348e-26
8.3150365e-26
9.5902117e-26
1.0022205e-25
1.0140884e-25
1.0165897e-25
1.016566e-25
1.0140197e-25
1.0021115e-25
9.5888277e-26
8.3135847e-26
5.4822391e-26
1.7884695e-26
1.0252397e-27
6.2539723e-31
1.372995e-41
1.0352014e-41
4.9499896e-32
1.0067185e-28
1.9070495e-27
6.0372225e-27
9.2671219e-27
1.0735491e-26
1.1236609e-26
1.1376058e-26
1.1406275e-26
1.1405996e-26
1.1375249e-26
1.1235324e-26
1.0733854e-26
9.2654042e-27
6.0359303e-27
1.9065975e-27
1.0064578e-28
4.9484964e-32
5.2849503e-43
6.6104843e-43
3.8069811e-33
9.6039589e-30
1.9753536e-28
6.4578746e-28
1.003367e-27
1.1674232e-27
1.2237772e-27
1.2396248e-27
1.2431337e-27
1.2431019e-27
1.2395322e-27
1.2236301e-27
1.1672351e-27
1.0031695e-27
6.4563959e-28
1.974846e-28
9.6012119e-30
3.805667e-33
1.9990177e-44
)
;

boundaryField
{
    Wall
    {
        type            zeroGradient;
    }
    frontAndBack
    {
        type            empty;
    }
    atmosphere
    {
        type            zeroGradient;
    }
}


// ************************************************************************* //
