/*--------------------------------*- C++ -*----------------------------------*\
| =========                 |                                                 |
| \\      /  F ield         | OpenFOAM: The Open Source CFD Toolbox           |
|  \\    /   O peration     | Version:  3.0.1                                 |
|   \\  /    A nd           | Web:      www.OpenFOAM.org                      |
|    \\/     M anipulation  |                                                 |
\*---------------------------------------------------------------------------*/
FoamFile
{
    version     2.0;
    format      ascii;
    class       volScalarField;
    location    "14";
    object      wCO2_l;
}
// * * * * * * * * * * * * * * * * * * * * * * * * * * * * * * * * * * * * * //

dimensions      [0 0 0 0 0 0 0];

internalField   nonuniform List<scalar> 
800
(
0.0030292384
0.0030291994
0.0030292015
0.0030292053
0.0030292079
0.0030292102
0.0030292121
0.0030292135
0.0030292144
0.0030292148
0.0030292148
0.0030292144
0.0030292135
0.0030292121
0.0030292102
0.0030292079
0.0030292052
0.0030292015
0.0030291994
0.0030292384
0.0033132215
0.0033047008
0.0033041786
0.0033040196
0.0033038767
0.0033037623
0.0033036751
0.0033036135
0.0033035748
0.0033035561
0.0033035561
0.0033035748
0.0033036135
0.0033036751
0.0033037623
0.0033038768
0.0033040196
0.0033041786
0.0033047008
0.0033132216
0.0045641484
0.0045456291
0.0045412401
0.0045409617
0.0045407557
0.0045405914
0.0045404738
0.0045403962
0.0045403502
0.0045403286
0.0045403286
0.0045403503
0.0045403963
0.0045404739
0.0045405915
0.0045407559
0.004540962
0.0045412403
0.0045456293
0.0045641487
0.0059503725
0.0059353633
0.005934649
0.0059343796
0.0059341175
0.0059339123
0.0059337736
0.0059336838
0.0059336315
0.005933607
0.0059336071
0.0059336316
0.0059336839
0.0059337739
0.0059339126
0.0059341178
0.00593438
0.0059346493
0.0059353636
0.0059503729
0.0065563979
0.0065909178
0.0065933975
0.0065940056
0.0065941344
0.0065941256
0.0065940545
0.0065939721
0.0065939115
0.0065938792
0.0065938792
0.0065939116
0.0065939722
0.0065940547
0.0065941259
0.0065941348
0.0065940061
0.006593398
0.0065909184
0.0065563985
0.0040094191
0.0041123881
0.0041219311
0.0041246097
0.0041249783
0.0041246347
0.0041242091
0.0041237327
0.004123433
0.0041232722
0.0041232722
0.0041234331
0.004123733
0.0041242095
0.0041246354
0.0041249791
0.0041246106
0.0041219323
0.0041123893
0.0040094204
0.0020106467
0.0021338451
0.0021568519
0.0021616023
0.0021617216
0.0021605962
0.0021596003
0.0021587591
0.0021582376
0.0021579034
0.0021579035
0.0021582377
0.0021587592
0.0021596009
0.0021605969
0.0021617226
0.0021616039
0.0021568532
0.0021338466
0.0020106485
0.00081058084
0.00094839762
0.00098716298
0.00099485898
0.00099429274
0.00099210133
0.00099002661
0.00098884727
0.00098803718
0.00098753677
0.00098753662
0.00098803711
0.00098884685
0.00099002668
0.00099210175
0.00099429337
0.00099486037
0.00098716366
0.00094839869
0.00081058234
0.00023264335
0.00036957725
0.0004152213
0.00042688137
0.00042668964
0.00042361654
0.0004204441
0.00041851152
0.00041722635
0.00041654598
0.00041654569
0.00041722612
0.00041851072
0.00042044376
0.00042361664
0.00042668975
0.0004268821
0.00041522143
0.00036957766
0.00023264413
4.4876958e-05
0.00012415758
0.00016089129
0.00017343247
0.00017499921
0.00017297464
0.00017032569
0.00016850083
0.00016726937
0.00016664747
0.00016664722
0.0001672691
0.0001685001
0.00017032525
0.00017297452
0.000174999
0.00017343268
0.00016089118
0.00012415759
4.4877185e-05
6.0577795e-06
3.5901447e-05
5.7225956e-05
6.6548681e-05
6.8693102e-05
6.7934955e-05
6.6441136e-05
6.5280119e-05
6.4475021e-05
6.4072996e-05
6.4072852e-05
6.4474812e-05
6.5279648e-05
6.644079e-05
6.7934791e-05
6.8692824e-05
6.654864e-05
5.7225825e-05
3.5901357e-05
6.0578205e-06
6.18003e-07
9.0620495e-06
1.8771147e-05
2.4092081e-05
2.5743158e-05
2.5629445e-05
2.4980634e-05
2.4406048e-05
2.399575e-05
2.3791053e-05
2.3790985e-05
2.3995619e-05
2.4405802e-05
2.4980423e-05
2.5629317e-05
2.5742954e-05
2.4091988e-05
1.8771064e-05
9.0619916e-06
6.1800816e-07
5.1501586e-08
2.047256e-06
5.7318508e-06
8.242816e-06
9.1941079e-06
9.2641027e-06
9.0345158e-06
8.7963321e-06
8.6208273e-06
8.5329735e-06
8.5329452e-06
8.6207582e-06
8.7962195e-06
9.0344064e-06
9.2640234e-06
9.1939959e-06
8.2427469e-06
5.7318101e-06
2.0472332e-06
5.150208e-08
3.7355902e-09
4.2586493e-07
1.6457769e-06
2.6725284e-06
3.1265651e-06
3.2009317e-06
3.1340597e-06
3.0481143e-06
2.982423e-06
2.9493314e-06
2.9493203e-06
2.9823915e-06
3.0480675e-06
3.1340094e-06
3.2008901e-06
3.1265142e-06
2.6724919e-06
1.6457598e-06
4.2585804e-07
3.7356265e-09
2.4787343e-10
8.3613069e-08
4.4802721e-07
8.2311382e-07
1.0118573e-06
1.0552151e-06
1.0398838e-06
1.0123437e-06
9.902977e-07
9.7908237e-07
9.7907819e-07
9.9028487e-07
1.0123256e-06
1.0398628e-06
1.0551958e-06
1.0118372e-06
8.2309812e-07
4.4802078e-07
8.3611318e-08
2.4787525e-10
1.5701077e-11
1.5762961e-08
1.1626391e-07
2.411997e-07
3.1153899e-07
3.3140701e-07
3.2922522e-07
3.213175e-07
3.1458657e-07
3.1111198e-07
3.1111045e-07
3.145818e-07
3.2131087e-07
3.2921716e-07
3.3139895e-07
3.1153179e-07
2.4119381e-07
1.1626172e-07
1.576256e-08
1.5701095e-11
9.865127e-13
2.878982e-09
2.883903e-08
6.7302335e-08
9.1232821e-08
9.905766e-08
9.927895e-08
9.7242854e-08
9.5357081e-08
9.4363123e-08
9.4362589e-08
9.5355436e-08
9.7240543e-08
9.9276078e-08
9.9054607e-08
9.1230406e-08
6.7300362e-08
2.8838355e-08
2.8788965e-09
9.8650248e-13
6.3331426e-14
5.106145e-10
6.8437833e-09
1.7888824e-08
2.5411293e-08
2.8162178e-08
2.848398e-08
2.8017889e-08
2.7530741e-08
2.7266519e-08
2.7266343e-08
2.753021e-08
2.8017128e-08
2.8483023e-08
2.8161128e-08
2.5410521e-08
1.7888217e-08
6.8435903e-09
5.1059727e-10
6.3329781e-14
4.2077106e-15
8.7804324e-11
1.5536992e-09
4.5304002e-09
6.7335222e-09
7.6144847e-09
7.7719658e-09
7.6794815e-09
7.5632053e-09
7.4976806e-09
7.4976261e-09
7.5630439e-09
7.6792456e-09
7.7716672e-09
7.6141527e-09
6.7332853e-09
4.5302265e-09
1.5536479e-09
8.7800987e-11
4.207533e-15
2.8756666e-16
1.4594124e-11
3.3732846e-10
1.0935457e-09
1.6983059e-09
1.9585619e-09
2.0169619e-09
2.0021466e-09
1.9765116e-09
1.9613177e-09
1.9613018e-09
1.9764651e-09
2.0020774e-09
2.0168746e-09
1.9584648e-09
1.6982364e-09
1.093499e-09
3.3731569e-10
1.4593507e-11
2.8755041e-16
1.9870036e-17
2.337642e-12
7.0027299e-11
2.5171315e-10
4.0800938e-10
4.7955278e-10
4.9812947e-10
4.9670873e-10
4.9150509e-10
4.8820703e-10
4.8820265e-10
4.9149242e-10
4.966896e-10
4.9810546e-10
4.795263e-10
4.0798996e-10
2.5170127e-10
7.0024299e-11
2.3375333e-12
1.98687e-17
1.3629451e-18
3.6003126e-13
1.39009e-11
5.5291061e-11
9.3456851e-11
1.1187574e-10
1.1717801e-10
1.1735208e-10
1.1638695e-10
1.1571661e-10
1.1571548e-10
1.163837e-10
1.1734709e-10
1.1717176e-10
1.1186896e-10
9.3451716e-11
5.5288188e-11
1.3900234e-11
3.6001286e-13
1.3628435e-18
9.1527684e-20
5.3244152e-14
2.6396149e-12
1.1600377e-11
2.0431783e-11
2.4895313e-11
2.6283722e-11
2.6431311e-11
2.6270412e-11
2.6142918e-11
2.6142641e-11
2.6269617e-11
2.6430082e-11
2.6282187e-11
2.4893669e-11
2.0430502e-11
1.1599715e-11
2.6394751e-12
5.3241178e-14
9.1520428e-20
5.965277e-21
7.5563355e-15
4.7976668e-13
2.3270342e-12
4.2683799e-12
5.2907373e-12
5.6286214e-12
5.6821681e-12
5.658941e-12
5.6362963e-12
5.6362322e-12
5.6587569e-12
5.6818815e-12
5.6282643e-12
5.2903591e-12
4.2680792e-12
2.3268882e-12
4.7973878e-13
7.5558766e-15
5.9647859e-21
3.75502e-22
1.0290693e-15
8.3533811e-14
4.4681681e-13
8.5312358e-13
1.0752138e-12
1.1522892e-12
1.1674706e-12
1.1648627e-12
1.1611224e-12
1.1611082e-12
1.164822e-12
1.1674073e-12
1.1522103e-12
1.075131e-12
8.5305696e-13
4.4678595e-13
8.3528499e-14
1.0290019e-15
3.754704e-22
2.2775628e-23
1.3453354e-16
1.3945767e-14
8.2215695e-14
1.6333985e-13
2.0923109e-13
2.2581203e-13
2.2956223e-13
2.2944149e-13
2.2887162e-13
2.2886862e-13
2.2943294e-13
2.295489e-13
2.2579546e-13
2.0921382e-13
1.6332587e-13
8.2209447e-14
1.3944801e-14
1.345241e-16
2.2773687e-23
1.3298602e-24
1.6894277e-17
2.2346425e-15
1.4514001e-14
2.9994491e-14
3.9037263e-14
4.2416839e-14
4.3257759e-14
4.3302807e-14
4.3224008e-14
4.3223406e-14
4.3301094e-14
4.3255088e-14
4.241352e-14
3.9033821e-14
2.9991701e-14
1.4512789e-14
2.2344745e-15
1.6893011e-17
1.3297464e-24
7.4743422e-26
2.0394412e-18
3.4404292e-16
2.4611139e-15
5.2891845e-15
6.9921454e-15
7.6472016e-15
7.8219058e-15
7.841281e-15
7.8317409e-15
7.8316259e-15
7.8409528e-15
7.8213939e-15
7.6465658e-15
6.9914882e-15
5.2886544e-15
2.460889e-15
3.4401482e-16
2.0392783e-18
7.4736978e-26
4.0451051e-27
2.3687745e-19
5.0946339e-17
4.0131257e-16
8.9670266e-16
1.2038076e-15
1.3249172e-15
1.3589519e-15
1.3641048e-15
1.3631898e-15
1.3631688e-15
1.3640447e-15
1.358858e-15
1.3248006e-15
1.2036871e-15
8.9660632e-16
4.0127259e-16
5.0941801e-17
2.3685722e-19
4.04465e-27
2.1099218e-28
2.6495626e-20
7.263751e-18
6.2996985e-17
1.4632472e-16
1.9945039e-16
2.2086344e-16
2.2712994e-16
2.2826501e-16
2.2822442e-16
2.2822076e-16
2.2825443e-16
2.271134e-16
2.208429e-16
1.9942919e-16
1.4630793e-16
6.2990158e-17
7.2630444e-18
2.6493189e-20
2.1089007e-28
1.0633959e-29
2.8567024e-21
9.9815514e-19
9.5302582e-18
2.3007723e-17
3.1837293e-17
3.5465866e-17
3.6562406e-17
3.6785648e-17
3.6795475e-17
3.6794864e-17
3.6783863e-17
3.6559611e-17
3.5462392e-17
3.1833705e-17
2.3004911e-17
9.5291374e-18
9.980487e-19
2.8564169e-21
1.0601462e-29
5.2196519e-31
2.9716352e-22
1.3232805e-19
1.3908505e-18
3.4895761e-18
4.9015015e-18
5.4919571e-18
5.6750719e-18
5.715524e-18
5.7193487e-18
5.7192495e-18
5.7152347e-18
5.6746171e-18
5.4913913e-18
4.9009163e-18
3.4891223e-18
1.3906734e-18
1.3231256e-19
2.9713094e-22
5.1420886e-31
2.5478337e-32
2.985083e-23
1.6940824e-20
1.9600666e-19
5.1103406e-19
7.2854852e-19
8.2096965e-19
8.5024657e-19
8.571123e-19
8.5799782e-19
8.5798232e-19
8.5706707e-19
8.5017531e-19
8.2088085e-19
7.2845646e-19
5.1096344e-19
1.9597964e-19
1.693864e-20
2.9847195e-23
2.4083322e-32
1.2904215e-33
2.8981903e-24
2.0962396e-21
2.669809e-20
7.2330134e-20
1.0465159e-19
1.1858784e-19
1.2308115e-19
1.241835e-19
1.2435286e-19
1.2435051e-19
1.2417668e-19
1.2307037e-19
1.1857438e-19
1.0463762e-19
7.2319512e-20
2.6694115e-20
2.0959411e-21
2.8977942e-24
1.0900221e-33
7.1749922e-35
2.7219027e-25
2.5092801e-22
3.5179862e-21
9.9031743e-21
1.4540887e-20
1.6568113e-20
1.7231528e-20
1.7400068e-20
1.7429042e-20
1.7428696e-20
1.7399073e-20
1.7229952e-20
1.6566143e-20
1.4538839e-20
9.9016287e-21
3.5174201e-21
2.5088855e-22
2.7214818e-25
4.7712231e-35
4.5059351e-36
2.4748272e-26
2.9081744e-23
4.4882788e-22
1.3127713e-21
1.9560171e-21
2.2408398e-21
2.335241e-21
2.3598933e-21
2.3644743e-21
2.3644254e-21
2.3597526e-21
2.3350183e-21
2.2405605e-21
1.9557267e-21
1.3125536e-21
4.4874986e-22
2.9076682e-23
2.4743919e-26
2.0212745e-36
3.0927387e-37
2.1801205e-27
3.2658734e-24
5.548645e-23
1.6862354e-22
2.5494728e-22
2.936419e-22
3.0660854e-22
3.1007027e-22
3.1075097e-22
3.1074429e-22
3.10051e-22
3.0657803e-22
2.9360353e-22
2.5490736e-22
1.6859378e-22
5.547603e-23
3.2652443e-24
2.1796829e-27
8.2935005e-38
2.1758156e-38
1.8620936e-28
3.5564309e-25
6.6519385e-24
2.1003849e-23
3.2222925e-23
3.7311266e-23
3.9032866e-23
3.9500802e-23
3.9596815e-23
3.9595928e-23
3.9498243e-23
3.9028817e-23
3.7306151e-23
3.2217603e-23
2.09999e-23
6.6505889e-24
3.5556737e-25
1.8616662e-28
3.2981675e-39
1.4905364e-39
1.5431759e-29
3.7581895e-26
7.7389228e-25
2.5389343e-24
3.9522093e-24
4.6004891e-24
4.821708e-24
4.8827275e-24
4.8956653e-24
4.8955513e-24
4.8823976e-24
4.8211852e-24
4.5998267e-24
3.9515202e-24
2.5384262e-24
7.7372265e-25
3.7573061e-26
1.5427708e-29
1.2727803e-40
9.6758766e-41
1.2417007e-30
3.8564834e-27
8.7435082e-26
2.9804415e-25
4.7074154e-25
5.5083358e-25
5.783738e-25
5.8606366e-25
5.8773665e-25
5.877224e-25
5.860223e-25
5.7830824e-25
5.5075024e-25
4.7065484e-25
2.9798067e-25
8.7414395e-26
3.8554842e-27
1.241328e-30
4.7925182e-42
)
;

boundaryField
{
    Wall
    {
        type            zeroGradient;
    }
    frontAndBack
    {
        type            empty;
    }
    atmosphere
    {
        type            zeroGradient;
    }
}


// ************************************************************************* //
