/*--------------------------------*- C++ -*----------------------------------*\
| =========                 |                                                 |
| \\      /  F ield         | OpenFOAM: The Open Source CFD Toolbox           |
|  \\    /   O peration     | Version:  3.0.1                                 |
|   \\  /    A nd           | Web:      www.OpenFOAM.org                      |
|    \\/     M anipulation  |                                                 |
\*---------------------------------------------------------------------------*/
FoamFile
{
    version     2.0;
    format      ascii;
    class       volScalarField;
    location    "14";
    object      wCO2_g;
}
// * * * * * * * * * * * * * * * * * * * * * * * * * * * * * * * * * * * * * //

dimensions      [0 0 0 0 0 0 0];

internalField   nonuniform List<scalar> 
800
(
0.0051018818
0.0051020694
0.0051020973
0.0051021129
0.005102124
0.0051021324
0.0051021387
0.0051021431
0.005102146
0.0051021473
0.0051021473
0.005102146
0.0051021431
0.0051021387
0.0051021324
0.005102124
0.0051021129
0.0051020974
0.0051020694
0.0051018818
0.0045660463
0.0045807354
0.0045821066
0.0045824868
0.0045828225
0.0045831049
0.0045833292
0.0045834914
0.0045835947
0.0045836448
0.0045836448
0.0045835947
0.0045834914
0.0045833292
0.0045831049
0.0045828225
0.0045824868
0.0045821067
0.0045807354
0.0045660463
0.0036186457
0.0036359547
0.0036413309
0.0036420526
0.003642577
0.0036429937
0.0036433078
0.0036435272
0.0036436642
0.0036437303
0.0036437303
0.0036436642
0.0036435271
0.0036433077
0.0036429936
0.003642577
0.0036420526
0.0036413308
0.0036359547
0.0036186455
0.0027102072
0.0027308513
0.0027336336
0.0027343518
0.0027348266
0.0027351707
0.0027354056
0.0027355562
0.0027356451
0.0027356865
0.0027356865
0.0027356451
0.0027355562
0.0027354056
0.0027351707
0.0027348266
0.0027343519
0.0027336337
0.0027308514
0.0027102071
0.0017637886
0.0017951038
0.0017975541
0.0017983262
0.0017987023
0.0017989095
0.0017990025
0.0017990369
0.0017990477
0.0017990498
0.0017990498
0.0017990477
0.001799037
0.0017990026
0.0017989096
0.0017987024
0.0017983263
0.0017975543
0.0017951041
0.0017637888
0.00084408124
0.00086720313
0.00086941326
0.0008702305
0.00087050525
0.00087057074
0.00087055937
0.00087050474
0.00087046578
0.00087044287
0.00087044289
0.0008704658
0.00087050478
0.00087055944
0.00087057088
0.00087050543
0.00087023069
0.00086941351
0.0008672034
0.00084408147
0.00035622864
0.00037444897
0.00037731198
0.00037793181
0.00037797806
0.00037784323
0.00037771344
0.00037759023
0.00037751426
0.00037746319
0.0003774632
0.00037751427
0.00037759025
0.00037771352
0.00037784335
0.00037797825
0.00037793208
0.00037731221
0.00037444924
0.00035622891
0.00012453748
0.00014244316
0.00014648614
0.00014696708
0.0001467145
0.00014637071
0.00014608208
0.00014591459
0.00014580293
0.00014573367
0.00014573366
0.00014580292
0.00014591454
0.0001460821
0.00014637079
0.00014671462
0.0001469673
0.00014648628
0.00014244335
0.00012453768
3.1308761e-05
4.7958314e-05
5.2653899e-05
5.3520729e-05
5.3261265e-05
5.279607e-05
5.2377522e-05
5.2123162e-05
5.1958718e-05
5.1872178e-05
5.1872147e-05
5.1958693e-05
5.2123078e-05
5.2377496e-05
5.2796104e-05
5.3261309e-05
5.352085e-05
5.2653951e-05
4.7958391e-05
3.1308854e-05
5.2957038e-06
1.3854899e-05
1.7395446e-05
1.8428876e-05
1.8444217e-05
1.8161942e-05
1.7850746e-05
1.7640656e-05
1.7501727e-05
1.7431746e-05
1.7431722e-05
1.7501702e-05
1.7640588e-05
1.785071e-05
1.8161944e-05
1.8444217e-05
1.8428923e-05
1.7395457e-05
1.3854918e-05
5.2957282e-06
6.2472137e-07
3.4078615e-06
5.2358631e-06
5.9690937e-06
6.0971863e-06
5.9948083e-06
5.8412134e-06
5.7262965e-06
5.6477966e-06
5.6086301e-06
5.6086176e-06
5.6477806e-06
5.7262578e-06
5.8411884e-06
5.9948021e-06
6.0971736e-06
5.9691046e-06
5.2358623e-06
3.4078615e-06
6.2472541e-07
5.5288643e-08
7.2183534e-07
1.4405396e-06
1.8166316e-06
1.9212317e-06
1.8996271e-06
1.8414922e-06
1.7928941e-06
1.7585964e-06
1.7414926e-06
1.7414875e-06
1.7585879e-06
1.7928767e-06
1.8414789e-06
1.8996212e-06
1.9212215e-06
1.8166313e-06
1.4405376e-06
7.2183366e-07
5.5289122e-08
3.9505859e-09
1.3488425e-07
3.6629375e-07
5.2139519e-07
5.7726785e-07
5.7781695e-07
5.5984444e-07
5.4265415e-07
5.3011999e-07
5.2385073e-07
5.2384893e-07
5.3011617e-07
5.4264733e-07
5.5983848e-07
5.7781348e-07
5.772625e-07
5.2139327e-07
3.6629265e-07
1.3488352e-07
3.9506309e-09
2.4155712e-10
2.2915253e-08
8.7297799e-08
1.4196899e-07
1.6570126e-07
1.6875729e-07
1.641316e-07
1.5882934e-07
1.5482376e-07
1.5280959e-07
1.5280901e-07
1.5482226e-07
1.5882695e-07
1.6412924e-07
1.6875564e-07
1.6569905e-07
1.419678e-07
8.7297349e-08
2.2915043e-08
2.4156058e-10
1.3197213e-11
3.6480326e-09
1.976811e-08
3.6894141e-08
4.5536806e-08
4.7343275e-08
4.6374869e-08
4.4916493e-08
4.3766902e-08
4.3184072e-08
4.3183891e-08
4.3766371e-08
4.4915713e-08
4.6374017e-08
4.7342582e-08
4.5536027e-08
3.6893636e-08
1.9767949e-08
3.6479857e-09
1.3197433e-11
6.6816317e-13
5.5867473e-10
4.2994746e-09
9.1938705e-09
1.2000795e-08
1.2759416e-08
1.2614564e-08
1.2253003e-08
1.1951777e-08
1.179716e-08
1.1797105e-08
1.1951605e-08
1.225276e-08
1.261428e-08
1.2759155e-08
1.200055e-08
9.1936927e-09
4.2994229e-09
5.5866538e-10
6.6817468e-13
3.2576441e-14
8.3901146e-11
9.0439098e-10
2.2032516e-09
3.0356943e-09
3.302589e-09
3.2989435e-09
3.2179795e-09
3.145187e-09
3.107138e-09
3.1071214e-09
3.1451348e-09
3.2179066e-09
3.2988547e-09
3.3024995e-09
3.0356223e-09
2.2031973e-09
9.0437597e-10
8.3899402e-11
3.2576858e-14
1.5995831e-15
1.2484983e-11
1.8456225e-10
5.0837154e-10
7.3724318e-10
8.2048764e-10
8.2831587e-10
8.1205796e-10
7.9574396e-10
7.869924e-10
7.869876e-10
7.957291e-10
8.1203699e-10
8.2828966e-10
8.2045976e-10
7.3722295e-10
5.0835639e-10
1.8455824e-10
1.2484669e-11
1.5995854e-15
8.2727438e-17
1.8444391e-12
3.6550635e-11
1.1294781e-10
1.7187085e-10
1.9551849e-10
1.994479e-10
1.9658594e-10
1.9318754e-10
1.9129769e-10
1.9129637e-10
1.9318354e-10
1.9658017e-10
1.994406e-10
1.955105e-10
1.7186533e-10
1.1294389e-10
3.6549638e-11
1.8443833e-12
8.2726076e-17
4.6249418e-18
2.6948378e-13
7.0150214e-12
2.4150728e-11
3.8451204e-11
4.4663709e-11
4.6016881e-11
4.5601827e-11
4.4944343e-11
4.456036e-11
4.456001e-11
4.4943312e-11
4.5600309e-11
4.6014964e-11
4.4661589e-11
3.8449745e-11
2.4149772e-11
7.0147903e-12
2.6947417e-13
4.6247684e-18
2.7772794e-19
3.8696852e-14
1.3023166e-12
4.9665548e-12
8.2534811e-12
9.7775326e-12
1.0168793e-11
1.0129708e-11
1.0012056e-11
9.9386161e-12
9.9385294e-12
1.0011803e-11
1.0129328e-11
1.0168316e-11
9.7770075e-12
8.2531101e-12
4.9663333e-12
1.3022659e-12
3.8695253e-14
2.7771233e-19
1.7409772e-20
5.427681e-15
2.3344106e-13
9.8180753e-13
1.6996403e-12
2.0511209e-12
2.1520724e-12
2.1543483e-12
2.1350537e-12
2.1218431e-12
2.1218227e-12
2.1349949e-12
2.1542585e-12
2.1519597e-12
2.0509986e-12
1.6995503e-12
9.8175845e-13
2.3343056e-13
5.4274239e-15
1.7408555e-20
1.1052445e-21
7.3998921e-16
4.0347592e-14
1.8652009e-13
3.3583654e-13
4.124199e-13
4.3630203e-13
4.3875581e-13
4.3591005e-13
4.3367957e-13
4.3367502e-13
4.3589698e-13
4.387356e-13
4.3627675e-13
4.1239285e-13
3.3581589e-13
1.8650968e-13
4.0345532e-14
7.3994953e-16
1.105157e-21
6.9545281e-23
9.7732979e-17
6.7183894e-15
3.4052767e-14
6.3692899e-14
7.9519357e-14
8.477656e-14
8.5610484e-14
8.5248939e-14
8.4896741e-14
8.4895778e-14
8.5246171e-14
8.5606169e-14
8.4771181e-14
7.9513668e-14
6.3688432e-14
3.4050647e-14
6.7180044e-15
9.772711e-17
6.9539332e-23
4.2833429e-24
1.2478255e-17
1.0773277e-15
5.9759983e-15
1.1600005e-14
1.4711801e-14
1.5798542e-14
1.6015011e-14
1.5980246e-14
1.5928558e-14
1.5928362e-14
1.5979686e-14
1.6014136e-14
1.5797452e-14
1.4710659e-14
1.1599093e-14
5.9755834e-15
1.077259e-15
1.2477427e-17
4.2829562e-24
2.565388e-25
1.5384103e-18
1.6636186e-16
1.0085241e-15
2.0300053e-15
2.6136458e-15
2.8259166e-15
2.8746366e-15
2.8737108e-15
2.8667395e-15
2.8667015e-15
2.8736027e-15
2.8744677e-15
2.8257065e-15
2.613427e-15
2.0298287e-15
1.0084461e-15
1.6635013e-16
1.5382986e-18
2.5651463e-25
1.4892948e-26
1.8305953e-19
2.4745144e-17
1.6376724e-16
3.415989e-16
4.4624939e-16
4.856072e-16
4.9555278e-16
4.9621494e-16
4.9537001e-16
4.9536302e-16
4.9619501e-16
4.9552167e-16
4.855685e-16
4.4620928e-16
3.415664e-16
1.6375318e-16
2.4743223e-17
1.8304507e-19
1.4891494e-26
8.3682919e-28
2.1023309e-20
3.5468797e-18
2.560478e-17
5.5316159e-17
7.328911e-17
8.0240691e-17
8.2122675e-17
8.2354282e-17
8.2266992e-17
8.2265762e-17
8.235077e-17
8.2117189e-17
8.023387e-17
7.3282052e-17
5.5310462e-17
2.5602353e-17
3.5465768e-18
2.1021507e-20
8.3674414e-28
4.5489942e-29
2.3308153e-21
4.9019421e-19
3.8572929e-18
8.6269286e-18
1.158832e-17
1.2761299e-17
1.309555e-17
1.3149871e-17
1.3143414e-17
1.3143207e-17
1.3149279e-17
1.3094623e-17
1.2760146e-17
1.1587127e-17
8.6259729e-18
3.8568915e-18
4.9014806e-19
2.3305979e-21
4.5483055e-29
2.3935742e-30
2.4957377e-22
6.5363343e-20
5.603256e-19
1.2968477e-18
1.7656664e-18
1.9551993e-18
2.0113641e-18
2.0221003e-18
2.0221225e-18
2.0220894e-18
2.0220043e-18
2.0112137e-18
1.9550122e-18
1.7654726e-18
1.2966937e-18
5.6026184e-19
6.5356557e-20
2.495483e-22
2.391654e-30
1.2232451e-31
2.582304e-23
8.4147923e-21
7.8546966e-20
1.880663e-19
2.5946937e-19
2.8885577e-19
2.9783403e-19
2.9974224e-19
2.998782e-19
2.998731e-19
2.997273e-19
2.978106e-19
2.8882657e-19
2.5943907e-19
1.8804244e-19
7.8537221e-20
8.4138259e-21
2.5820134e-23
1.2168755e-31
6.1454177e-33
2.5834091e-24
1.0466549e-21
1.0633699e-20
2.6331688e-20
3.68066e-20
4.1186221e-20
4.2557182e-20
4.2870901e-20
4.2907092e-20
4.2906328e-20
4.2868668e-20
4.2553665e-20
4.118183e-20
3.6802032e-20
2.6328119e-20
1.0632265e-20
1.0465219e-21
2.5830862e-24
5.9933084e-33
3.1304139e-34
2.5005222e-25
1.2587078e-22
1.3913502e-21
3.5623846e-21
5.0441598e-21
5.6725399e-21
5.8731348e-21
5.9215702e-21
5.9286148e-21
5.9285044e-21
5.9212477e-21
5.8726255e-21
5.6719029e-21
5.0434949e-21
3.5618694e-21
1.3911462e-21
1.2585304e-22
2.5001716e-25
2.858719e-34
1.70772e-35
2.3431511e-26
1.4645881e-23
1.7608003e-22
4.6605377e-22
6.6838108e-22
7.5529618e-22
7.8349041e-22
7.905777e-22
7.9176074e-22
7.9174527e-22
7.905327e-22
7.8341916e-22
7.5520686e-22
6.6828758e-22
4.6598177e-22
1.76052e-22
1.4643587e-23
2.3427796e-26
1.3212767e-35
1.0501714e-36
2.1270755e-27
1.6499764e-24
2.1568562e-23
5.9005367e-23
8.5697231e-23
9.7300598e-23
1.0111506e-22
1.0210395e-22
1.0228469e-22
1.0228259e-22
1.0209787e-22
1.0110541e-22
9.7288481e-23
8.5684532e-23
5.8995625e-23
2.1564832e-23
1.6496894e-24
2.1266919e-27
5.9207622e-37
7.2473325e-38
1.8717878e-28
1.8009717e-25
2.559032e-24
7.2347295e-24
1.0639923e-23
1.2136725e-23
1.2634327e-23
1.2766473e-23
1.2792208e-23
1.2791932e-23
1.2765677e-23
1.2633064e-23
1.2135133e-23
1.0638252e-23
7.2334523e-24
2.5585513e-24
1.8006233e-25
1.8714024e-28
2.5737816e-38
5.2830977e-39
1.5976961e-29
1.9058527e-26
2.942857e-25
8.5966824e-25
1.28011e-24
1.4668643e-24
1.5295458e-24
1.5465126e-24
1.5499734e-24
1.5499384e-24
1.5464116e-24
1.5293854e-24
1.4666614e-24
1.2798968e-24
8.5950577e-25
2.9422564e-25
1.905443e-26
1.5973199e-29
1.0859876e-39
3.8140245e-40
1.3236138e-30
1.9565997e-27
3.282358e-26
9.9062055e-26
1.493441e-25
1.7190194e-25
1.7953601e-25
1.8163436e-25
1.8207752e-25
1.8207321e-25
1.8162191e-25
1.7951626e-25
1.7187685e-25
1.4931771e-25
9.9042001e-26
3.2816305e-26
1.9561335e-27
1.3232571e-30
4.4502352e-41
2.6192352e-41
1.0649163e-31
1.9498979e-28
3.5530346e-27
1.107719e-26
1.6906072e-26
1.9546115e-26
2.0446057e-26
2.0696519e-26
2.075085e-26
2.0750337e-26
2.0695031e-26
2.0443693e-26
1.9543102e-26
1.6902903e-26
1.1074789e-26
3.5521802e-27
1.9493841e-28
1.0645881e-31
1.7737055e-42
1.67966e-42
8.3254264e-33
1.8874556e-29
3.7348427e-28
1.2027181e-27
1.8581499e-27
2.1577538e-27
2.2605416e-27
2.2894423e-27
2.2958439e-27
2.2957845e-27
2.2892695e-27
2.2602669e-27
2.1574025e-27
1.8577801e-27
1.2024394e-27
3.7338699e-28
1.8869073e-29
8.3224994e-33
6.9331964e-44
)
;

boundaryField
{
    Wall
    {
        type            zeroGradient;
    }
    frontAndBack
    {
        type            empty;
    }
    atmosphere
    {
        type            zeroGradient;
    }
}


// ************************************************************************* //
