/*--------------------------------*- C++ -*----------------------------------*\
| =========                 |                                                 |
| \\      /  F ield         | OpenFOAM: The Open Source CFD Toolbox           |
|  \\    /   O peration     | Version:  3.0.1                                 |
|   \\  /    A nd           | Web:      www.OpenFOAM.org                      |
|    \\/     M anipulation  |                                                 |
\*---------------------------------------------------------------------------*/
FoamFile
{
    version     2.0;
    format      ascii;
    class       volScalarField;
    location    "1";
    object      M2;
}
// * * * * * * * * * * * * * * * * * * * * * * * * * * * * * * * * * * * * * //

dimensions      [0 0 0 0 0 0 0];

internalField   nonuniform List<scalar> 
800
(
2.7885501e-22
2.7885501e-22
2.7885501e-22
2.7885501e-22
2.7885501e-22
2.7885501e-22
2.7885501e-22
2.7885501e-22
2.7885501e-22
2.7885501e-22
2.7885501e-22
2.7885501e-22
2.7885501e-22
2.7885501e-22
2.7885501e-22
2.7885501e-22
2.7885501e-22
2.7885501e-22
2.7885501e-22
2.7885501e-22
2.7885501e-22
2.7885501e-22
2.7885501e-22
2.7885501e-22
2.7885501e-22
2.7885501e-22
2.7885501e-22
2.7885501e-22
2.7885501e-22
2.7885501e-22
2.7885501e-22
2.7885501e-22
2.7885501e-22
2.7885501e-22
2.7885501e-22
2.7885501e-22
2.7885501e-22
2.7885501e-22
2.7885501e-22
2.7885501e-22
9.4121358e-25
9.5818533e-25
9.5872337e-25
9.5875082e-25
9.5875049e-25
9.587483e-25
9.587462e-25
9.5874393e-25
9.5874295e-25
9.5874229e-25
9.5874259e-25
9.5874261e-25
9.5874435e-25
9.5874599e-25
9.5874769e-25
9.5875041e-25
9.5875048e-25
9.5872266e-25
9.5818458e-25
9.4121418e-25
2.5160415e-27
3.1713259e-27
3.2286517e-27
3.2300824e-27
3.2286648e-27
3.227772e-27
3.2272623e-27
3.226965e-27
3.2267962e-27
3.2267296e-27
3.2267314e-27
3.2268007e-27
3.2269699e-27
3.2272656e-27
3.2277702e-27
3.2286577e-27
3.2300675e-27
3.2286323e-27
3.1712979e-27
2.516023e-27
6.0318328e-30
9.9663734e-30
1.0369265e-29
1.0378787e-29
1.0367763e-29
1.036064e-29
1.0356471e-29
1.035401e-29
1.03526e-29
1.0352027e-29
1.0352041e-29
1.0352634e-29
1.0354039e-29
1.0356491e-29
1.0360629e-29
1.0367699e-29
1.0378681e-29
1.0369127e-29
9.966167e-30
6.0317034e-30
1.0325615e-32
2.2179571e-32
2.3565447e-32
2.3600031e-32
2.3560002e-32
2.3532835e-32
2.3516278e-32
2.3506275e-32
2.3500491e-32
2.3497969e-32
2.3498035e-32
2.3500557e-32
2.3506397e-32
2.3516379e-32
2.3532806e-32
2.3559758e-32
2.3599641e-32
2.3564889e-32
2.2178806e-32
1.0325193e-32
1.2867525e-35
3.5750019e-35
3.8783765e-35
3.8871748e-35
3.878571e-35
3.8723981e-35
3.8685056e-35
3.8660847e-35
3.8646607e-35
3.864018e-35
3.8640382e-35
3.8646755e-35
3.8661056e-35
3.8685257e-35
3.872405e-35
3.8785233e-35
3.8870914e-35
3.878255e-35
3.5748331e-35
1.2866801e-35
1.2183841e-38
4.3675812e-38
4.8377899e-38
4.8537169e-38
4.8411522e-38
4.8316813e-38
4.8255073e-38
4.821557e-38
4.81921e-38
4.8181228e-38
4.8181408e-38
4.8192231e-38
4.8215828e-38
4.8255221e-38
4.8316818e-38
4.8410916e-38
4.8535977e-38
4.8376111e-38
4.3673499e-38
1.2183046e-38
9.0070161e-42
4.1616134e-41
4.7064471e-41
4.7275228e-41
4.7141066e-41
4.7035356e-41
4.696446e-41
4.6918107e-41
4.6890106e-41
4.6877038e-41
4.6877166e-41
4.6890274e-41
4.691838e-41
4.6964531e-41
4.7035294e-41
4.7140387e-41
4.7274043e-41
4.706264e-41
4.1613805e-41
9.0064282e-42
5.2857864e-45
3.146976e-44
3.6336919e-44
3.654687e-44
3.6437573e-44
3.6347973e-44
3.6286482e-44
3.6245691e-44
3.622068e-44
3.6208835e-44
3.6208947e-44
3.6220608e-44
3.6245679e-44
3.62863e-44
3.6347674e-44
3.6436891e-44
3.6546e-44
3.6335621e-44
3.1468216e-44
5.2854787e-45
2.4859141e-48
1.9073947e-47
2.2486303e-47
2.2647177e-47
2.2577529e-47
2.2518308e-47
2.2477029e-47
2.2449252e-47
2.2432047e-47
2.2423888e-47
2.2423909e-47
2.2431894e-47
2.2449101e-47
2.2476754e-47
2.2517957e-47
2.2576918e-47
2.2646532e-47
2.2485445e-47
1.9073082e-47
2.4857932e-48
9.4051855e-52
9.3040353e-51
1.1198793e-50
1.1294865e-50
1.125975e-50
1.1228883e-50
1.1207095e-50
1.1192275e-50
1.1183029e-50
1.1178609e-50
1.1178627e-50
1.118291e-50
1.1192111e-50
1.1206853e-50
1.1228647e-50
1.125938e-50
1.129452e-50
1.1198332e-50
9.3035997e-51
9.404744e-52
2.8587792e-55
3.6482629e-54
4.4834204e-54
4.5284456e-54
4.5143793e-54
4.501604e-54
4.4925021e-54
4.4862641e-54
4.4823535e-54
4.4804748e-54
4.4804741e-54
4.4822898e-54
4.4861747e-54
4.4923709e-54
4.5014672e-54
4.5141719e-54
4.5282497e-54
4.4831915e-54
3.6480641e-54
2.8586267e-55
6.9348534e-59
1.1424663e-57
1.4334781e-57
1.4500047e-57
1.4455409e-57
1.4413617e-57
1.4383587e-57
1.4362898e-57
1.434989e-57
1.4343597e-57
1.4343599e-57
1.4349635e-57
1.4362532e-57
1.4383101e-57
1.4413077e-57
1.4454608e-57
1.4499243e-57
1.4333855e-57
1.1423871e-57
6.9343691e-59
1.3251707e-62
2.820399e-61
3.6131382e-61
3.660233e-61
3.6491353e-61
3.6384221e-61
3.6306744e-61
3.6253156e-61
3.6219415e-61
3.6203003e-61
3.620298e-61
3.621867e-61
3.6252182e-61
3.6305355e-61
3.6382581e-61
3.6488917e-61
3.6599856e-61
3.6128496e-61
2.8201545e-61
1.3250492e-62
1.9517803e-66
5.3710357e-65
7.0252358e-65
7.1274746e-65
7.1062851e-65
7.0851909e-65
7.0698634e-65
7.0592341e-65
7.0525328e-65
7.0492626e-65
7.0492683e-65
7.0523867e-65
7.0590418e-65
7.0695857e-65
7.0848471e-65
7.1057639e-65
7.1269311e-65
7.0246023e-65
5.3704853e-65
1.951564e-66
2.1388076e-70
7.616592e-69
1.0171758e-68
1.0335335e-68
1.0305312e-68
1.0274502e-68
1.0252037e-68
1.023641e-68
1.022653e-68
1.0221744e-68
1.0221741e-68
1.0226338e-68
1.0236127e-68
1.025159e-68
1.0273963e-68
1.0304499e-68
1.0334485e-68
1.0170769e-68
7.6157409e-69
2.1385465e-70
1.6426146e-74
7.5765612e-73
1.0331023e-72
1.0513041e-72
1.0483304e-72
1.0451814e-72
1.0428785e-72
1.0412742e-72
1.0402605e-72
1.0397681e-72
1.0397669e-72
1.0402382e-72
1.0412446e-72
1.0428331e-72
1.0451246e-72
1.0482446e-72
1.0512162e-72
1.0330003e-72
7.575696e-73
1.6424077e-74
7.8919909e-79
4.7191657e-77
6.5701393e-77
6.696038e-77
6.6776375e-77
6.6575359e-77
6.6427967e-77
6.6325104e-77
6.6260007e-77
6.6228337e-77
6.6228197e-77
6.6258356e-77
6.632305e-77
6.6424977e-77
6.6571641e-77
6.6771039e-77
6.6954856e-77
6.5694887e-77
4.7186095e-77
7.8909645e-79
1.7856086e-83
1.3855108e-81
1.9695303e-81
2.0103155e-81
2.0049671e-81
1.9989185e-81
1.9944772e-81
1.9913726e-81
1.9894068e-81
1.9884479e-81
1.9884477e-81
1.9893536e-81
1.9913075e-81
1.9943855e-81
1.9988118e-81
2.0048073e-81
2.0101538e-81
1.9693348e-81
1.3853452e-81
1.7853697e-83
9.0446991e-151
9.0446991e-151
9.0446991e-151
9.0446991e-151
9.0446991e-151
9.0446991e-151
9.0446991e-151
9.0446991e-151
9.0446991e-151
9.0446991e-151
9.0446991e-151
9.0446991e-151
9.0446991e-151
9.0446991e-151
9.0446991e-151
9.0446991e-151
9.0446991e-151
8.5834094e-93
9.0446991e-151
9.0446991e-151
9.0446991e-151
9.0446991e-151
9.0446991e-151
9.0446991e-151
9.0446991e-151
9.0446991e-151
9.0446991e-151
9.0446991e-151
9.0446991e-151
9.0446991e-151
9.0446991e-151
9.0446991e-151
9.0446991e-151
9.0446991e-151
9.0446991e-151
9.0446991e-151
9.0446991e-151
9.0446991e-151
9.0446991e-151
9.0446991e-151
9.0446991e-151
9.0446991e-151
9.0446991e-151
9.0446991e-151
9.0446991e-151
9.0446991e-151
9.0446991e-151
9.0446991e-151
9.0446991e-151
9.0446991e-151
9.0446991e-151
9.0446991e-151
9.0446991e-151
9.0446991e-151
9.0446991e-151
9.0446991e-151
9.0446991e-151
9.0446991e-151
9.0446991e-151
9.0446991e-151
9.0446991e-151
9.0446991e-151
9.0446991e-151
9.0446991e-151
9.0446991e-151
9.0446991e-151
9.0446991e-151
9.0446991e-151
9.0446991e-151
9.0446991e-151
9.0446991e-151
9.0446991e-151
9.0446991e-151
9.0446991e-151
9.0446991e-151
9.0446991e-151
9.0446991e-151
9.0446991e-151
9.0446991e-151
9.0446991e-151
9.0446991e-151
9.0446991e-151
9.0446991e-151
9.0446991e-151
9.0446991e-151
9.0446991e-151
9.0446991e-151
9.0446991e-151
9.0446991e-151
9.0446991e-151
9.0446991e-151
9.0446991e-151
9.0446991e-151
9.0446991e-151
9.0446991e-151
9.0446991e-151
9.0446991e-151
9.0446991e-151
9.0446991e-151
9.0446991e-151
9.0446991e-151
9.0446991e-151
9.0446991e-151
9.0446991e-151
9.0446991e-151
9.0446991e-151
9.0446991e-151
9.0446991e-151
9.0446991e-151
9.0446991e-151
9.0446991e-151
9.0446991e-151
9.0446991e-151
9.0446991e-151
9.0446991e-151
9.0446991e-151
9.0446991e-151
9.0446991e-151
9.0446991e-151
9.0446991e-151
9.0446991e-151
9.0446991e-151
9.0446991e-151
9.0446991e-151
9.0446991e-151
9.0446991e-151
9.0446991e-151
9.0446991e-151
9.0446991e-151
9.0446991e-151
9.0446991e-151
9.0446991e-151
9.0446991e-151
9.0446991e-151
9.0446991e-151
9.0446991e-151
9.0446991e-151
9.0446991e-151
9.0446991e-151
9.0446991e-151
9.0446991e-151
9.0446991e-151
9.0446991e-151
9.0446991e-151
9.0446991e-151
9.0446991e-151
9.0446991e-151
9.0446991e-151
9.0446991e-151
9.0446991e-151
9.0446991e-151
9.0446991e-151
9.0446991e-151
9.0446991e-151
9.0446991e-151
9.0446991e-151
9.0446991e-151
9.0446991e-151
9.0446991e-151
9.0446991e-151
9.0446991e-151
9.0446991e-151
9.0446991e-151
9.0446991e-151
9.0446991e-151
9.0446991e-151
9.0446991e-151
9.0446991e-151
9.0446991e-151
9.0446991e-151
9.0446991e-151
9.0446991e-151
9.0446991e-151
9.0446991e-151
9.0446991e-151
9.0446991e-151
9.0446991e-151
9.0446991e-151
9.0446991e-151
9.0446991e-151
9.0446991e-151
9.0446991e-151
9.0446991e-151
9.0446991e-151
9.0446991e-151
9.0446991e-151
9.0446991e-151
9.0446991e-151
9.0446991e-151
9.0446991e-151
9.0446991e-151
9.0446991e-151
9.0446991e-151
9.0446991e-151
9.0446991e-151
9.0446991e-151
9.0446991e-151
9.0446991e-151
9.0446991e-151
9.0446991e-151
9.0446991e-151
9.0446991e-151
9.0446991e-151
9.0446991e-151
9.0446991e-151
9.0446991e-151
9.0446991e-151
9.0446991e-151
9.0446991e-151
9.0446991e-151
9.0446991e-151
9.0446991e-151
9.0446991e-151
9.0446991e-151
9.0446991e-151
9.0446991e-151
9.0446991e-151
9.0446991e-151
9.0446991e-151
9.0446991e-151
9.0446991e-151
9.0446991e-151
9.0446991e-151
9.0446991e-151
9.0446991e-151
9.0446991e-151
9.0446991e-151
9.0446991e-151
9.0446991e-151
9.0446991e-151
9.0446991e-151
9.0446991e-151
9.0446991e-151
9.0446991e-151
9.0446991e-151
9.0446991e-151
9.0446991e-151
9.0446991e-151
9.0446991e-151
9.0446991e-151
9.0446991e-151
9.0446991e-151
9.0446991e-151
9.0446991e-151
9.0446991e-151
9.0446991e-151
9.0446991e-151
9.0446991e-151
9.0446991e-151
9.0446991e-151
9.0446991e-151
9.0446991e-151
9.0446991e-151
9.0446991e-151
9.0446991e-151
9.0446991e-151
9.0446991e-151
9.0446991e-151
9.0446991e-151
9.0446991e-151
9.0446991e-151
9.0446991e-151
9.0446991e-151
9.0446991e-151
9.0446991e-151
9.0446991e-151
9.0446991e-151
9.0446991e-151
9.0446991e-151
9.0446991e-151
9.0446991e-151
9.0446991e-151
9.0446991e-151
9.0446991e-151
9.0446991e-151
9.0446991e-151
9.0446991e-151
9.0446991e-151
9.0446991e-151
9.0446991e-151
9.0446991e-151
9.0446991e-151
9.0446991e-151
9.0446991e-151
9.0446991e-151
9.0446991e-151
9.0446991e-151
9.0446991e-151
9.0446991e-151
9.0446991e-151
9.0446991e-151
9.0446991e-151
9.0446991e-151
9.0446991e-151
9.0446991e-151
9.0446991e-151
9.0446991e-151
9.0446991e-151
9.0446991e-151
9.0446991e-151
9.0446991e-151
9.0446991e-151
9.0446991e-151
9.0446991e-151
9.0446991e-151
9.0446991e-151
9.0446991e-151
9.0446991e-151
9.0446991e-151
9.0446991e-151
9.0446991e-151
9.0446991e-151
9.0446991e-151
9.0446991e-151
9.0446991e-151
9.0446991e-151
9.0446991e-151
9.0446991e-151
9.0446991e-151
9.0446991e-151
9.0446991e-151
9.0446991e-151
9.0446991e-151
9.0446991e-151
9.0446991e-151
9.0446991e-151
9.0446991e-151
9.0446991e-151
9.0446991e-151
9.0446991e-151
9.0446991e-151
9.0446991e-151
9.0446991e-151
9.0446991e-151
9.0446991e-151
9.0446991e-151
9.0446991e-151
9.0446991e-151
9.0446991e-151
9.0446991e-151
9.0446991e-151
9.0446991e-151
9.0446991e-151
9.0446991e-151
9.0446991e-151
9.0446991e-151
9.0446991e-151
9.0446991e-151
9.0446991e-151
9.0446991e-151
9.0446991e-151
9.0446991e-151
9.0446991e-151
9.0446991e-151
9.0446991e-151
9.0446991e-151
9.0446991e-151
9.0446991e-151
9.0446991e-151
9.0446991e-151
9.0446991e-151
9.0446991e-151
9.0446991e-151
9.0446991e-151
9.0446991e-151
9.0446991e-151
9.0446991e-151
9.0446991e-151
9.0446991e-151
9.0446991e-151
9.0446991e-151
9.0446991e-151
9.0446991e-151
9.0446991e-151
9.0446991e-151
9.0446991e-151
9.0446991e-151
9.0446991e-151
9.0446991e-151
9.0446991e-151
9.0446991e-151
9.0446991e-151
9.0446991e-151
9.0446991e-151
9.0446991e-151
9.0446991e-151
9.0446991e-151
9.0446991e-151
9.0446991e-151
9.0446991e-151
9.0446991e-151
9.0446991e-151
9.0446991e-151
9.0446991e-151
9.0446991e-151
9.0446991e-151
9.0446991e-151
9.0446991e-151
9.0446991e-151
9.0446991e-151
)
;

boundaryField
{
    Wall
    {
        type            zeroGradient;
    }
    frontAndBack
    {
        type            empty;
    }
    atmosphere
    {
        type            zeroGradient;
    }
}


// ************************************************************************* //
