/*--------------------------------*- C++ -*----------------------------------*\
| =========                 |                                                 |
| \\      /  F ield         | OpenFOAM: The Open Source CFD Toolbox           |
|  \\    /   O peration     | Version:  3.0.1                                 |
|   \\  /    A nd           | Web:      www.OpenFOAM.org                      |
|    \\/     M anipulation  |                                                 |
\*---------------------------------------------------------------------------*/
FoamFile
{
    version     2.0;
    format      ascii;
    class       volScalarField;
    location    "1";
    object      mOne;
}
// * * * * * * * * * * * * * * * * * * * * * * * * * * * * * * * * * * * * * //

dimensions      [0 0 0 0 0 0 0];

internalField   nonuniform List<scalar> 
800
(
0.00026763605
0.00026763605
0.00026763605
0.00026763605
0.00026763605
0.00026763605
0.00026763605
0.00026763605
0.00026763605
0.00026763605
0.00026763605
0.00026763605
0.00026763605
0.00026763605
0.00026763605
0.00026763605
0.00026763605
0.00026763605
0.00026763605
0.00026763605
0.00026763605
0.00026763605
0.00026763605
0.00026763605
0.00026763605
0.00026763605
0.00026763605
0.00026763605
0.00026763605
0.00026763605
0.00026763605
0.00026763605
0.00026763605
0.00026763605
0.00026763605
0.00026763605
0.00026763605
0.00026763605
0.00026763605
0.00026763605
9.031416e-07
9.1938797e-07
9.1990131e-07
9.1992764e-07
9.1992743e-07
9.1992539e-07
9.199234e-07
9.1992125e-07
9.1992032e-07
9.1991969e-07
9.1991998e-07
9.1992e-07
9.1992166e-07
9.199232e-07
9.199248e-07
9.1992735e-07
9.1992731e-07
9.1990072e-07
9.1938725e-07
9.0314218e-07
2.7070214e-09
3.3805229e-09
3.4382511e-09
3.4395022e-09
3.4379834e-09
3.4370385e-09
3.4365004e-09
3.4361871e-09
3.4360089e-09
3.435939e-09
3.4359408e-09
3.4360139e-09
3.4361922e-09
3.4365043e-09
3.4370369e-09
3.4379761e-09
3.4394862e-09
3.4382311e-09
3.3804931e-09
2.7070015e-09
8.0192404e-12
1.2970262e-11
1.3467222e-11
1.3477402e-11
1.3462987e-11
1.3453767e-11
1.3448381e-11
1.3445205e-11
1.3443383e-11
1.3442646e-11
1.3442663e-11
1.3443428e-11
1.3445241e-11
1.3448408e-11
1.3453754e-11
1.3462904e-11
1.3477265e-11
1.3467046e-11
1.2969993e-11
8.0190682e-12
1.8538006e-14
3.8539804e-14
4.0832435e-14
4.0883452e-14
4.0813644e-14
4.0766657e-14
4.0738058e-14
4.0720794e-14
4.0710807e-14
4.0706455e-14
4.0706568e-14
4.0710921e-14
4.0721003e-14
4.0738242e-14
4.0766613e-14
4.0813223e-14
4.0882774e-14
4.083148e-14
3.8538474e-14
1.8537245e-14
3.4123381e-17
9.0737394e-17
9.8090485e-17
9.8286941e-17
9.8068004e-17
9.7912096e-17
9.7813903e-17
9.7752868e-17
9.7716953e-17
9.7700745e-17
9.7701259e-17
9.7717331e-17
9.7753385e-17
9.7814438e-17
9.7912299e-17
9.8066804e-17
9.8284826e-17
9.8087444e-17
9.0733104e-17
3.4121454e-17
5.2183532e-20
1.7701322e-19
1.952456e-19
1.958273e-19
1.9531706e-19
1.9493534e-19
1.9468677e-19
1.9452776e-19
1.944333e-19
1.9438952e-19
1.9439023e-19
1.9443383e-19
1.9452878e-19
1.9468741e-19
1.9493541e-19
1.9531465e-19
1.9582248e-19
1.9523845e-19
1.7700385e-19
5.2180109e-20
6.8219882e-23
2.9480113e-22
3.3176377e-22
3.3312924e-22
3.3217731e-22
3.3143314e-22
3.3093455e-22
3.3060863e-22
3.3041174e-22
3.3031983e-22
3.303207e-22
3.3041296e-22
3.3061056e-22
3.3093516e-22
3.3143282e-22
3.3217258e-22
3.3312088e-22
3.3175099e-22
2.9478461e-22
6.8215411e-23
7.776558e-26
4.2781731e-25
4.9121327e-25
4.9384771e-25
4.9235957e-25
4.9115002e-25
4.903207e-25
4.8977072e-25
4.8943345e-25
4.8927364e-25
4.8927513e-25
4.8943246e-25
4.8977051e-25
4.9031839e-25
4.9114611e-25
4.9235045e-25
4.9383598e-25
4.9119597e-25
4.2779638e-25
7.7761043e-26
7.842547e-29
5.4911173e-28
6.4323655e-28
6.4753554e-28
6.4552721e-28
6.4383556e-28
6.4265759e-28
6.4186508e-28
6.4137412e-28
6.4114128e-28
6.4114179e-28
6.4136973e-28
6.4186069e-28
6.4264995e-28
6.4382567e-28
6.4550981e-28
6.4751706e-28
6.4321224e-28
5.4908691e-28
7.8421663e-29
7.0740482e-32
6.3035965e-31
7.5332343e-31
7.5938603e-31
7.5700257e-31
7.5492928e-31
7.5346737e-31
7.5247312e-31
7.518527e-31
7.5155604e-31
7.5155721e-31
7.5184474e-31
7.5246195e-31
7.5345131e-31
7.5491371e-31
7.5697784e-31
7.593629e-31
7.5329279e-31
6.3033025e-31
7.0737177e-32
5.7553754e-35
6.5278054e-34
7.9584659e-34
8.0336584e-34
8.008435e-34
7.9857922e-34
7.9696779e-34
7.9586357e-34
7.9517122e-34
7.9483853e-34
7.948383e-34
7.9515991e-34
7.9584761e-34
7.9694476e-34
7.985552e-34
8.0080675e-34
8.0333104e-34
7.9580633e-34
6.5274511e-34
5.7550704e-35
4.2513535e-38
6.1390421e-37
7.6351581e-37
7.7181321e-37
7.6940819e-37
7.6718585e-37
7.6559074e-37
7.6449195e-37
7.6380103e-37
7.6346665e-37
7.6346669e-37
7.6378743e-37
7.6447232e-37
7.6556511e-37
7.6715738e-37
7.6936569e-37
7.7177038e-37
7.6346682e-37
6.1386176e-37
4.2510578e-38
2.8659249e-41
5.2706518e-40
6.6869083e-40
6.7691727e-40
6.7483663e-40
6.7285728e-40
6.7142751e-40
6.7043873e-40
6.6981611e-40
6.6951311e-40
6.6951259e-40
6.6980227e-40
6.7042063e-40
6.7140206e-40
6.7282716e-40
6.7479161e-40
6.7687148e-40
6.6863771e-40
5.2701956e-40
2.8656627e-41
1.7702642e-44
4.1480419e-43
5.3683149e-43
5.4421177e-43
5.4256876e-43
5.4095972e-43
5.3979199e-43
5.3898233e-43
5.3847182e-43
5.3822255e-43
5.3822294e-43
5.3846062e-43
5.3896757e-43
5.3977102e-43
5.4093368e-43
5.4252905e-43
5.4417026e-43
5.3678338e-43
4.1476172e-43
1.7700682e-44
1.0050999e-47
3.0021233e-46
3.9632394e-46
4.0234827e-46
4.0115913e-46
3.9996092e-46
3.9908838e-46
3.9848154e-46
3.9809777e-46
3.9791184e-46
3.9791164e-46
3.9809029e-46
3.9847044e-46
3.9907112e-46
3.9994008e-46
4.0112752e-46
4.0231515e-46
3.9628562e-46
3.0017881e-46
1.0049772e-47
5.2579268e-51
2.0030059e-49
2.6972789e-49
2.7422157e-49
2.7343076e-49
2.7261021e-49
2.7201095e-49
2.7159355e-49
2.7132977e-49
2.7120159e-49
2.7120123e-49
2.7132394e-49
2.7158579e-49
2.7199925e-49
2.7259549e-49
2.7340839e-49
2.7419863e-49
2.6970141e-49
2.0027775e-49
5.2572648e-51
2.5386986e-54
1.2341989e-52
1.6953004e-52
1.7260272e-52
1.7211806e-52
1.7160046e-52
1.7122148e-52
1.7095702e-52
1.7078963e-52
1.7070816e-52
1.7070777e-52
1.7078535e-52
1.709517e-52
1.7121384e-52
1.7159093e-52
1.7210434e-52
1.7258847e-52
1.6951336e-52
1.2340536e-52
2.5383685e-54
1.132661e-57
7.0317277e-56
9.8524197e-56
1.0045433e-55
1.0018059e-55
9.9878671e-56
9.9657319e-56
9.95026e-56
9.9404622e-56
9.93568e-56
9.9356786e-56
9.9401946e-56
9.949933e-56
9.9652777e-56
9.9873379e-56
1.0017263e-55
1.0044626e-55
9.8514473e-56
7.0308884e-56
1.1325095e-57
4.6725055e-61
3.7068377e-59
5.297953e-59
5.4095428e-59
5.3952376e-59
5.3789571e-59
5.3670065e-59
5.3586442e-59
5.3533498e-59
5.3507608e-59
5.3507558e-59
5.3532051e-59
5.3584748e-59
5.3667717e-59
5.3786858e-59
5.3948104e-59
5.409093e-59
5.2974185e-59
3.7063949e-59
4.6718684e-61
1.7824065e-64
1.808328e-62
2.6363963e-62
2.695815e-62
2.6889107e-62
2.6807973e-62
2.6748359e-62
2.6706537e-62
2.668011e-62
2.6667095e-62
2.6667094e-62
2.6679386e-62
2.6705692e-62
2.6747139e-62
2.6806617e-62
2.6886952e-62
2.6955905e-62
2.6361265e-62
1.8081078e-62
1.7821602e-64
6.2848732e-68
8.1606871e-66
1.2136636e-65
1.2428155e-65
1.2397367e-65
1.2359964e-65
1.2332463e-65
1.231314e-65
1.2300932e-65
1.2294915e-65
1.2294905e-65
1.2300567e-65
1.2312714e-65
1.2331854e-65
1.2359319e-65
1.2396309e-65
1.2427063e-65
1.2135343e-65
8.1596725e-66
6.283966e-68
2.0465185e-71
3.4038288e-69
5.1640346e-69
5.2957513e-69
5.2830963e-69
5.2671628e-69
5.255427e-69
5.2471781e-69
5.2419719e-69
5.2393971e-69
5.239387e-69
5.2417974e-69
5.2469853e-69
5.2551417e-69
5.2668525e-69
5.2826007e-69
5.295245e-69
5.1634612e-69
3.4033941e-69
2.046213e-71
6.1449868e-75
1.3103079e-72
2.027959e-72
2.0827082e-72
2.0779159e-72
2.0716526e-72
2.067033e-72
2.0637864e-72
2.0617366e-72
2.0607223e-72
2.0607183e-72
2.0616668e-72
2.0637028e-72
2.0669116e-72
2.0715214e-72
2.0777076e-72
2.0824958e-72
2.0277247e-72
1.3101351e-72
6.1440298e-75
1.6978734e-78
4.6456819e-76
7.3352623e-76
7.5442886e-76
7.527596e-76
7.5049273e-76
7.4882013e-76
7.4764361e-76
7.4690237e-76
7.4653379e-76
7.4653246e-76
7.4687544e-76
7.4761289e-76
7.4877459e-76
7.5044418e-76
7.5268147e-76
7.5435019e-76
7.3344068e-76
4.6450552e-76
1.6975992e-78
4.3048966e-82
1.5128688e-79
2.4370647e-79
2.51017e-79
2.5048401e-79
2.4973139e-79
2.4917459e-79
2.4878347e-79
2.4853674e-79
2.4841448e-79
2.4841399e-79
2.485287e-79
2.4877377e-79
2.4916003e-79
2.4971516e-79
2.5045834e-79
2.5099091e-79
2.4367744e-79
1.5126572e-79
4.3041722e-82
9.9800881e-86
4.5089884e-83
7.4107887e-83
7.6442782e-83
7.6287458e-83
7.6058481e-83
7.5888986e-83
7.5769929e-83
7.5694849e-83
7.5657678e-83
7.5657696e-83
7.5692709e-83
7.5767421e-83
7.5885051e-83
7.6054052e-83
7.6279772e-83
7.6434954e-83
7.409889e-83
4.5083368e-83
9.9783674e-86
2.1058914e-89
1.2243405e-86
2.0531962e-86
2.1209994e-86
2.1168817e-86
2.1105403e-86
2.1058433e-86
2.1025422e-86
2.100462e-86
2.0994328e-86
2.0994344e-86
2.1004107e-86
2.1024835e-86
2.1057497e-86
2.1104387e-86
2.1166824e-86
2.1207887e-86
2.0529544e-86
1.2241664e-86
2.1055279e-89
4.021159e-93
3.0113005e-90
5.1528721e-90
5.3308874e-90
5.321035e-90
5.3051365e-90
5.2933535e-90
5.2850587e-90
5.279838e-90
5.2772598e-90
5.2772714e-90
5.2797359e-90
5.2849354e-90
5.2931658e-90
5.3049492e-90
5.3206068e-90
5.3304401e-90
5.1523379e-90
3.01091e-90
4.0204961e-93
6.8972216e-97
6.6592411e-94
1.1628179e-93
1.2047752e-93
1.2026599e-93
1.1990752e-93
1.1964184e-93
1.1945478e-93
1.1933695e-93
1.1927863e-93
1.1927916e-93
1.1933485e-93
1.1945266e-93
1.1963899e-93
1.1990527e-93
1.2025846e-93
1.2046985e-93
1.1627284e-93
6.6585473e-94
6.8962284e-97
1.0526225e-100
1.3115107e-97
2.3370949e-97
2.4250235e-97
2.4209963e-97
2.4138118e-97
2.4084759e-97
2.4047166e-97
2.4023514e-97
2.401178e-97
2.4011912e-97
2.4023191e-97
2.4046938e-97
2.4084504e-97
2.4138095e-97
2.4209102e-97
2.4249502e-97
2.3369953e-97
1.3114247e-97
1.0525069e-100
1.4116338e-104
2.2717022e-101
4.1314026e-101
4.293246e-101
4.2865365e-101
4.2738714e-101
4.26446e-101
4.2578223e-101
4.2536565e-101
4.2515959e-101
4.2516343e-101
4.253633e-101
4.2578427e-101
4.2644964e-101
4.2739841e-101
4.2865383e-101
4.2933e-101
4.1314265e-101
2.2716643e-101
1.4115413e-104
1.6356675e-108
3.4025653e-105
6.3156684e-105
6.5729448e-105
6.5633435e-105
6.5440484e-105
6.5296974e-105
6.519576e-105
6.5132446e-105
6.5101205e-105
6.5101957e-105
6.5132607e-105
6.519704e-105
6.5298968e-105
6.5444486e-105
6.5636186e-105
6.5733856e-105
6.316104e-105
3.4027321e-105
1.635654e-108
1.5991943e-112
4.3033151e-109
8.1527809e-109
8.4977e-109
8.4862142e-109
8.4614197e-109
8.442966e-109
8.4299496e-109
8.421818e-109
8.4178246e-109
8.4179479e-109
8.421905e-109
8.4302381e-109
8.4434244e-109
8.4622328e-109
8.4869908e-109
8.4988472e-109
8.1539864e-109
4.3038911e-109
1.5993056e-112
1.2736071e-116
4.4357535e-113
8.5778696e-113
8.9543531e-113
8.9432654e-113
8.9173596e-113
8.8980439e-113
8.8843868e-113
8.8758809e-113
8.8717013e-113
8.8718554e-113
8.876021e-113
8.8847761e-113
8.8986716e-113
8.9185112e-113
8.9445792e-113
8.9562374e-113
8.579933e-113
4.4367852e-113
1.2738106e-116
7.8033112e-121
3.5185705e-117
6.9454703e-117
7.2613992e-117
7.2533279e-117
7.2325505e-117
7.2169967e-117
7.2059793e-117
7.1991145e-117
7.1957322e-117
7.1958565e-117
7.1992201e-117
7.2063154e-117
7.2175805e-117
7.2336636e-117
7.254771e-117
7.2635541e-117
6.9479087e-117
3.5198032e-117
7.8053644e-121
3.3041395e-125
1.9285732e-121
3.8859479e-121
4.0689609e-121
4.0650587e-121
4.0535779e-121
4.0449237e-121
4.0387614e-121
4.0349073e-121
4.0330051e-121
4.033071e-121
4.0349459e-121
4.0389158e-121
4.0452227e-121
4.0542341e-121
4.0660418e-121
4.0705777e-121
3.8878279e-121
1.9295082e-121
3.3053735e-125
7.39078e-130
5.5765805e-126
1.1469013e-125
1.2027834e-125
1.2018661e-125
1.1985427e-125
1.1959901e-125
1.1941593e-125
1.1930092e-125
1.1924397e-125
1.1924548e-125
1.1930095e-125
1.1941833e-125
1.1960426e-125
1.1987021e-125
1.2021858e-125
1.2034171e-125
1.1476649e-125
5.5802122e-126
7.3943953e-130
9.0476194e-151
9.0476194e-151
9.0476194e-151
9.0476194e-151
9.0476194e-151
9.0476193e-151
9.0476193e-151
9.0476193e-151
9.0476193e-151
9.0476193e-151
9.0476193e-151
9.0476193e-151
9.0476192e-151
9.0476193e-151
9.0476193e-151
9.0476193e-151
1.6433711e-145
3.8821222e-135
2.5109668e-146
9.0476194e-151
)
;

boundaryField
{
    Wall
    {
        type            zeroGradient;
    }
    frontAndBack
    {
        type            empty;
    }
    atmosphere
    {
        type            zeroGradient;
    }
}


// ************************************************************************* //
