/*--------------------------------*- C++ -*----------------------------------*\
| =========                 |                                                 |
| \\      /  F ield         | OpenFOAM: The Open Source CFD Toolbox           |
|  \\    /   O peration     | Version:  3.0.1                                 |
|   \\  /    A nd           | Web:      www.OpenFOAM.org                      |
|    \\/     M anipulation  |                                                 |
\*---------------------------------------------------------------------------*/
FoamFile
{
    version     2.0;
    format      ascii;
    class       volScalarField;
    location    "1";
    object      mZero;
}
// * * * * * * * * * * * * * * * * * * * * * * * * * * * * * * * * * * * * * //

dimensions      [0 0 0 0 0 0 0];

internalField   nonuniform List<scalar> 
800
(
1e+13
1e+13
1e+13
1e+13
1e+13
1e+13
1e+13
1e+13
1e+13
1e+13
1e+13
1e+13
1e+13
1e+13
1e+13
1e+13
1e+13
1e+13
1e+13
1e+13
1e+13
1e+13
1e+13
1e+13
1e+13
1e+13
1e+13
1e+13
1e+13
1e+13
1e+13
1e+13
1e+13
1e+13
1e+13
1e+13
1e+13
1e+13
1e+13
1e+13
3.374514e+10
3.4352172e+10
3.4371352e+10
3.4372336e+10
3.4372328e+10
3.4372252e+10
3.4372178e+10
3.4372098e+10
3.4372063e+10
3.4372039e+10
3.437205e+10
3.4372051e+10
3.4372113e+10
3.437217e+10
3.437223e+10
3.4372325e+10
3.4372324e+10
3.4371327e+10
3.4352145e+10
3.3745161e+10
1.0114584e+08
1.2631068e+08
1.2846764e+08
1.2851439e+08
1.2845764e+08
1.2842233e+08
1.2840223e+08
1.2839052e+08
1.2838386e+08
1.2838125e+08
1.2838132e+08
1.2838405e+08
1.2839071e+08
1.2840237e+08
1.2842227e+08
1.2845736e+08
1.2851379e+08
1.2846687e+08
1.2630956e+08
1.011451e+08
299633.81
484625.07
503193.6
503573.98
503035.38
502690.87
502489.63
502370.98
502302.89
502275.34
502275.98
502304.58
502372.31
502490.66
502690.39
503032.29
503568.86
503186.93
484615.04
299627.38
692.66285
1440.0172
1525.6797
1527.5859
1524.9776
1523.222
1522.1534
1521.5083
1521.1352
1520.9726
1520.9768
1521.1394
1521.5161
1522.1602
1523.2203
1524.9619
1527.5606
1525.6437
1439.9675
692.63442
1.2750059
3.3903575
3.6651014
3.6724418
3.6642613
3.6584359
3.654767
3.6524864
3.6511445
3.6505389
3.6505581
3.6511586
3.6525058
3.654787
3.6584435
3.6642165
3.6723628
3.6649867
3.3901973
1.274934
0.0019498216
0.0066140264
0.0072952701
0.007317005
0.0072979402
0.0072836771
0.0072743893
0.0072684482
0.0072649186
0.007263283
0.0072633094
0.0072649384
0.0072684864
0.0072744133
0.0072836797
0.00729785
0.0073168247
0.0072950004
0.0066136763
0.0019496937
2.5490221e-06
1.1015149e-05
1.2396243e-05
1.2447263e-05
1.2411694e-05
1.2383889e-05
1.2365259e-05
1.2353081e-05
1.2345724e-05
1.234229e-05
1.2342323e-05
1.234577e-05
1.2353153e-05
1.2365282e-05
1.2383877e-05
1.2411518e-05
1.2446951e-05
1.2395761e-05
1.1014532e-05
2.5488551e-06
2.9057033e-09
1.5985293e-08
1.8354063e-08
1.8452497e-08
1.8396893e-08
1.8351699e-08
1.8320711e-08
1.8300162e-08
1.8287559e-08
1.8281588e-08
1.8281644e-08
1.8287523e-08
1.8300154e-08
1.8320625e-08
1.8351553e-08
1.8396553e-08
1.8452059e-08
1.8353409e-08
1.5984512e-08
2.9055337e-09
2.9303678e-12
2.0517479e-11
2.403443e-11
2.419506e-11
2.4120019e-11
2.4056811e-11
2.4012796e-11
2.3983184e-11
2.3964839e-11
2.3956139e-11
2.3956159e-11
2.3964676e-11
2.398302e-11
2.4012511e-11
2.4056441e-11
2.4119369e-11
2.419437e-11
2.4033511e-11
2.0516551e-11
2.9302256e-12
2.6432252e-15
2.3553349e-14
2.8147872e-14
2.8374399e-14
2.8285341e-14
2.8207873e-14
2.8153249e-14
2.8116099e-14
2.8092917e-14
2.8081832e-14
2.8081876e-14
2.8092619e-14
2.8115682e-14
2.8152649e-14
2.8207291e-14
2.8284418e-14
2.8373535e-14
2.8146714e-14
2.3552251e-14
2.6431017e-15
2.1505073e-18
2.439116e-17
2.9736813e-17
3.0017768e-17
2.9923521e-17
2.9838917e-17
2.9778705e-17
2.9737446e-17
2.9711577e-17
2.9699146e-17
2.9699137e-17
2.9711154e-17
2.973685e-17
2.9777845e-17
2.9838019e-17
2.9922148e-17
3.0016468e-17
2.9735294e-17
2.4389836e-17
2.1503933e-18
1.5885305e-21
2.2938596e-20
2.8528836e-20
2.8838868e-20
2.8749005e-20
2.8665967e-20
2.8606365e-20
2.8565309e-20
2.8539492e-20
2.8526998e-20
2.8527e-20
2.8538984e-20
2.8564576e-20
2.8605408e-20
2.8664903e-20
2.8747417e-20
2.8837268e-20
2.8526991e-20
2.293701e-20
1.58842e-21
1.0708637e-24
1.969389e-23
2.4985748e-23
2.5293129e-23
2.5215386e-23
2.5141427e-23
2.5088003e-23
2.5051057e-23
2.5027793e-23
2.5016471e-23
2.5016452e-23
2.5027276e-23
2.5050381e-23
2.5087052e-23
2.5140301e-23
2.5213703e-23
2.5291418e-23
2.4983749e-23
1.9692186e-23
1.0707657e-24
6.6146752e-28
1.5499272e-26
2.0058845e-26
2.033461e-26
2.0273219e-26
2.0213097e-26
2.0169464e-26
2.0139211e-26
2.0120136e-26
2.0110821e-26
2.0110836e-26
2.0119717e-26
2.0138659e-26
2.0168681e-26
2.0212124e-26
2.0271735e-26
2.0333059e-26
2.0057035e-26
1.5497685e-26
6.6139425e-28
3.7556117e-31
1.121754e-29
1.4808777e-29
1.5033878e-29
1.4989445e-29
1.4944674e-29
1.4912071e-29
1.4889396e-29
1.4875056e-29
1.4868109e-29
1.4868101e-29
1.4874777e-29
1.4888981e-29
1.4911426e-29
1.4943895e-29
1.4988264e-29
1.503264e-29
1.4807336e-29
1.1216288e-29
3.7551533e-31
1.9646581e-34
7.4843189e-33
1.0078495e-32
1.0246403e-32
1.0216854e-32
1.0186194e-32
1.0163802e-32
1.0148206e-32
1.013835e-32
1.013356e-32
1.0133547e-32
1.0138132e-32
1.0147916e-32
1.0163365e-32
1.0185644e-32
1.0216018e-32
1.0245546e-32
1.0077499e-32
7.4834657e-33
1.9644107e-34
9.4860314e-38
4.6116484e-36
6.3345744e-36
6.4493863e-36
6.431277e-36
6.4119365e-36
6.3977757e-36
6.3878941e-36
6.3816395e-36
6.3785953e-36
6.3785808e-36
6.3814796e-36
6.3876952e-36
6.3974903e-36
6.4115803e-36
6.4307641e-36
6.4488541e-36
6.3339467e-36
4.6111054e-36
9.4847982e-38
4.2322796e-41
2.6274473e-39
3.6814138e-39
3.7535344e-39
3.7433059e-39
3.7320244e-39
3.7237534e-39
3.7179723e-39
3.7143113e-39
3.7125244e-39
3.7125238e-39
3.7142113e-39
3.7178501e-39
3.7235837e-39
3.7318267e-39
3.7430082e-39
3.7532327e-39
3.6810477e-39
2.6271337e-39
4.2317134e-41
1.7459233e-44
1.3850852e-42
1.9796152e-42
2.0213114e-42
2.0159662e-42
2.0098828e-42
2.0054174e-42
2.0022928e-42
2.0003145e-42
1.9993471e-42
1.9993453e-42
2.0002605e-42
2.0022295e-42
2.0053297e-42
2.0097815e-42
2.0158065e-42
2.0211434e-42
1.9794139e-42
1.3849197e-42
1.7456853e-44
6.6601351e-48
6.756956e-46
9.8510911e-46
1.0073113e-45
1.0047314e-45
1.0016998e-45
9.9947231e-46
9.9790958e-46
9.9692213e-46
9.964358e-46
9.9643578e-46
9.9689508e-46
9.9787802e-46
9.9942672e-46
1.0016492e-45
1.0046509e-45
1.0072274e-45
9.8500746e-46
6.756133e-46
6.6592148e-48
2.348409e-51
3.0493099e-49
4.5349544e-49
4.6438826e-49
4.6323783e-49
4.6184024e-49
4.6081265e-49
4.6009065e-49
4.5963449e-49
4.5940964e-49
4.5940929e-49
4.5962084e-49
4.6007474e-49
4.6078991e-49
4.6181616e-49
4.6319831e-49
4.6434748e-49
4.5344672e-49
3.0489307e-49
2.3480701e-51
7.647048e-55
1.2718723e-52
1.9295885e-52
1.9788056e-52
1.9740769e-52
1.9681232e-52
1.963738e-52
1.9606558e-52
1.9587104e-52
1.9577483e-52
1.9577445e-52
1.9586452e-52
1.9605837e-52
1.9636314e-52
1.9680073e-52
1.9738917e-52
1.9786164e-52
1.9293724e-52
1.2717099e-52
7.6459066e-55
2.2961488e-58
4.8960981e-56
7.5776705e-56
7.7822458e-56
7.764339e-56
7.7409353e-56
7.7236738e-56
7.7115428e-56
7.7038833e-56
7.7000933e-56
7.7000782e-56
7.7036226e-56
7.7112302e-56
7.7232201e-56
7.7404451e-56
7.7635607e-56
7.7814521e-56
7.5767869e-56
4.8954527e-56
2.2957912e-58
6.3443232e-62
1.73591e-59
2.7408999e-59
2.8190047e-59
2.8127673e-59
2.8042969e-59
2.798047e-59
2.7936509e-59
2.7908811e-59
2.7895039e-59
2.7894989e-59
2.7907805e-59
2.7935361e-59
2.7978769e-59
2.8041155e-59
2.8124754e-59
2.8187107e-59
2.7405772e-59
1.7356759e-59
6.3432987e-62
1.6085836e-65
5.6530134e-63
9.1063761e-63
9.3795418e-63
9.3596262e-63
9.3315039e-63
9.310698e-63
9.2960837e-63
9.2868643e-63
9.2822959e-63
9.2822777e-63
9.2865638e-63
9.2957212e-63
9.3101541e-63
9.3308971e-63
9.3586671e-63
9.3785672e-63
9.1052805e-63
5.6522225e-63
1.6083129e-65
3.7292045e-69
1.6848407e-66
2.7691339e-66
2.85638e-66
2.8505762e-66
2.8420202e-66
2.8356868e-66
2.8312381e-66
2.8284326e-66
2.8270437e-66
2.8270444e-66
2.8283526e-66
2.8311444e-66
2.8355398e-66
2.8418547e-66
2.850289e-66
2.8560876e-66
2.7687942e-66
1.6845972e-66
3.7285615e-69
7.8689848e-73
4.5749145e-70
7.6720426e-70
7.9253982e-70
7.9100116e-70
7.886316e-70
7.8687652e-70
7.8564302e-70
7.8486573e-70
7.8448114e-70
7.8448174e-70
7.8484657e-70
7.8562109e-70
7.8684157e-70
7.8859366e-70
7.9092669e-70
7.9246108e-70
7.6711283e-70
4.5742638e-70
7.8676266e-73
1.5025707e-76
1.125216e-73
1.9254443e-73
1.9919622e-73
1.9882807e-73
1.98234e-73
1.9779371e-73
1.9748376e-73
1.9728869e-73
1.9719235e-73
1.9719278e-73
1.9728487e-73
1.9747916e-73
1.977867e-73
1.98227e-73
1.9881207e-73
1.9917951e-73
1.9252418e-73
1.1250701e-73
1.502323e-76
2.5772632e-80
2.4883278e-77
4.3450459e-77
4.5018256e-77
4.4939217e-77
4.480527e-77
4.4705994e-77
4.4636095e-77
4.4592065e-77
4.4570276e-77
4.4570473e-77
4.4591281e-77
4.4635302e-77
4.4704929e-77
4.4804429e-77
4.49364e-77
4.501539e-77
4.3447042e-77
2.4880686e-77
2.5768921e-80
3.9333099e-84
4.9006734e-81
8.7329327e-81
9.0614919e-81
9.0464437e-81
9.0195976e-81
8.9996593e-81
8.985612e-81
8.9767742e-81
8.9723896e-81
8.9724389e-81
8.9766534e-81
8.9855269e-81
8.9995641e-81
9.0195889e-81
9.046122e-81
9.0612182e-81
8.7325446e-81
4.9003521e-81
3.932878e-84
5.2748308e-88
8.4886074e-85
1.5437694e-84
1.6042449e-84
1.6017378e-84
1.5970053e-84
1.5934885e-84
1.5910082e-84
1.5894516e-84
1.5886816e-84
1.588696e-84
1.5894428e-84
1.5910158e-84
1.5935021e-84
1.5970474e-84
1.6017385e-84
1.6042651e-84
1.5437751e-84
8.4884657e-85
5.2744851e-88
6.1119878e-92
1.2714306e-88
2.3599641e-88
2.4561001e-88
2.4525123e-88
2.4453024e-88
2.4399399e-88
2.4361578e-88
2.433792e-88
2.4326246e-88
2.4326527e-88
2.433798e-88
2.4362056e-88
2.4400144e-88
2.4454519e-88
2.4526151e-88
2.4562648e-88
2.3601213e-88
1.271493e-88
6.1119376e-92
5.9757124e-96
1.6080167e-92
3.0464431e-92
3.1753287e-92
3.1710368e-92
3.1617718e-92
3.1548762e-92
3.1500124e-92
3.1469739e-92
3.1454817e-92
3.1455278e-92
3.1470064e-92
3.1501202e-92
3.1550476e-92
3.1620757e-92
3.171327e-92
3.1757573e-92
3.0468851e-92
1.6082319e-92
5.9761283e-96
4.7591017e-100
1.6575097e-96
3.2052951e-96
3.3459757e-96
3.3418326e-96
3.3321524e-96
3.3249346e-96
3.3198314e-96
3.316653e-96
3.3150912e-96
3.3151488e-96
3.3167054e-96
3.3199769e-96
3.3251692e-96
3.3325827e-96
3.3423235e-96
3.3466799e-96
3.2060553e-96
1.6578952e-96
4.7598619e-100
2.9158791e-104
1.3147896e-100
2.5953241e-100
2.7133777e-100
2.7103617e-100
2.7025978e-100
2.6967857e-100
2.6926689e-100
2.6901037e-100
2.6888398e-100
2.6888863e-100
2.6901431e-100
2.6927945e-100
2.6970039e-100
2.7030137e-100
2.7109009e-100
2.7141829e-100
2.596224e-100
1.3152502e-100
2.9166464e-104
1.2346679e-108
7.206553e-105
1.4520728e-104
1.5204598e-104
1.5190016e-104
1.5147116e-104
1.5114777e-104
1.509175e-104
1.5077349e-104
1.5070241e-104
1.5070487e-104
1.5077493e-104
1.5092327e-104
1.5115894e-104
1.5149567e-104
1.519369e-104
1.5210639e-104
1.4527663e-104
7.2100467e-105
1.235129e-108
2.7617437e-113
2.0838242e-109
4.2856741e-109
4.4944912e-109
4.4910634e-109
4.4786447e-109
4.4691062e-109
4.4622651e-109
4.4579673e-109
4.4558394e-109
4.4558958e-109
4.4579684e-109
4.4623546e-109
4.4693025e-109
4.4792402e-109
4.4922578e-109
4.4968592e-109
4.2884776e-109
2.0851812e-109
2.7630947e-113
8.571429e-151
8.571429e-151
8.571429e-151
8.571429e-151
8.571429e-151
8.5714289e-151
8.5714289e-151
8.5714288e-151
8.5714289e-151
8.5714289e-151
8.5714288e-151
8.5714288e-151
8.5714288e-151
8.5714289e-151
8.5714289e-151
8.5714289e-151
8.5714289e-151
8.5714289e-151
8.571429e-151
8.571429e-151
)
;

boundaryField
{
    Wall
    {
        type            zeroGradient;
    }
    frontAndBack
    {
        type            empty;
    }
    atmosphere
    {
        type            zeroGradient;
    }
}


// ************************************************************************* //
