/*--------------------------------*- C++ -*----------------------------------*\
| =========                 |                                                 |
| \\      /  F ield         | OpenFOAM: The Open Source CFD Toolbox           |
|  \\    /   O peration     | Version:  3.0.1                                 |
|   \\  /    A nd           | Web:      www.OpenFOAM.org                      |
|    \\/     M anipulation  |                                                 |
\*---------------------------------------------------------------------------*/
FoamFile
{
    version     2.0;
    format      ascii;
    class       surfaceScalarField;
    location    "1";
    object      phi;
}
// * * * * * * * * * * * * * * * * * * * * * * * * * * * * * * * * * * * * * //

dimensions      [0 3 -1 0 0 0 0];

internalField   nonuniform List<scalar> 
1540
(
-1.9640039e-13
7.2831322e-10
-1.3628522e-13
7.2869619e-10
-4.4385205e-14
7.2879438e-10
-9.630344e-15
7.2882303e-10
1.6416467e-15
7.2883309e-10
4.5136957e-15
7.2883657e-10
4.235072e-15
7.2883769e-10
3.0075426e-15
7.2883802e-10
1.530433e-15
7.2883808e-10
2.1672132e-17
7.2883808e-10
-1.4688579e-15
7.2883808e-10
-2.929546e-15
7.2883808e-10
-4.1663809e-15
7.2883801e-10
-4.4376128e-15
7.2883771e-10
-1.5647133e-15
7.2883657e-10
9.6995237e-15
7.2883309e-10
4.4446588e-14
7.2882302e-10
1.3631707e-13
7.2879436e-10
1.9640706e-13
7.2869617e-10
7.2831321e-10
1.4706859e-13
7.1051111e-10
1.007619e-13
7.298372e-10
3.958214e-14
7.3093441e-10
2.6305721e-14
7.3101258e-10
1.8846105e-14
7.3101253e-10
1.3577113e-14
7.3100813e-10
9.4908423e-15
7.3100471e-10
6.0260137e-15
7.3100237e-10
2.9635099e-15
7.3100095e-10
1.762484e-17
7.3100034e-10
-2.8799328e-15
7.3100037e-10
-5.973314e-15
7.3100098e-10
-9.4125774e-15
7.3100242e-10
-1.350996e-14
7.3100473e-10
-1.878336e-14
7.310081e-10
-2.6221478e-14
7.3101246e-10
-3.9499682e-14
7.3101244e-10
-1.0068103e-13
7.3093421e-10
-1.4699617e-13
7.2983693e-10
7.1051095e-10
3.4834426e-13
1.1235814e-09
3.5057417e-13
1.5513515e-09
2.4872842e-13
1.6100961e-09
1.8613018e-13
1.6146711e-09
1.3881458e-13
1.6142751e-09
1.0194887e-13
1.6138306e-09
7.1903315e-14
1.6135645e-09
4.6113126e-14
1.61341e-09
2.2736261e-14
1.6133228e-09
4.8486903e-16
1.6132868e-09
-2.180426e-14
1.6132873e-09
-4.5192969e-14
1.6133251e-09
-7.0998037e-14
1.6134117e-09
-1.0113818e-13
1.6135661e-09
-1.3805588e-13
1.6138307e-09
-1.8541531e-13
1.6142715e-09
-2.4810189e-13
1.6146646e-09
-3.5009993e-13
1.6100877e-09
-3.4803542e-13
1.5513398e-09
1.1235725e-09
9.1072623e-12
1.5992639e-09
1.1794591e-11
2.4687889e-09
1.0301723e-11
2.5939023e-09
8.1157185e-12
2.6039e-09
6.1713814e-12
2.6030036e-09
4.5752465e-12
2.6019494e-09
3.2440919e-12
2.601291e-09
2.0847991e-12
2.6008969e-09
1.0319385e-12
2.6006715e-09
2.2183536e-14
2.6005741e-09
-9.8608787e-13
2.6005761e-09
-2.0445118e-12
2.6006753e-09
-3.1999462e-12
2.6009001e-09
-4.5400815e-12
2.6012933e-09
-6.1367763e-12
2.6019481e-09
-8.0854517e-12
2.6029938e-09
-1.0273986e-11
2.6038858e-09
-1.1778308e-11
2.5938826e-09
-9.0954196e-12
2.4687608e-09
1.5992418e-09
6.6915883e-12
1.6737509e-09
9.7329178e-12
2.6073871e-09
9.5514343e-12
2.7440097e-09
8.1536617e-12
2.7555346e-09
6.542656e-12
2.7546446e-09
5.0142289e-12
2.7534006e-09
3.6316444e-12
2.7525617e-09
2.3623729e-12
2.7520362e-09
1.1816283e-12
2.7517295e-09
2.676936e-14
2.7515835e-09
-1.123254e-12
2.7515867e-09
-2.3118035e-12
2.7517286e-09
-3.5774073e-12
2.752042e-09
-4.9718559e-12
2.7525673e-09
-6.5010771e-12
2.7534001e-09
-8.1197902e-12
2.7546344e-09
-9.5189913e-12
2.7555174e-09
-9.7114005e-12
2.743982e-09
-6.6791901e-12
2.6073529e-09
1.6737206e-09
3.952498e-12
1.6709064e-09
6.2733684e-12
2.6072522e-09
6.8120756e-12
2.7460217e-09
6.315272e-12
2.7585085e-09
5.3738654e-12
2.7579719e-09
4.2838253e-12
2.7568152e-09
3.1876013e-12
2.7559792e-09
2.1072536e-12
2.7554222e-09
1.0618741e-12
2.7550831e-09
2.9105724e-14
2.7549198e-09
-1.0062639e-12
2.7549247e-09
-2.0540188e-12
2.7550859e-09
-3.1352809e-12
2.7554226e-09
-4.2489188e-12
2.7559811e-09
-5.3378721e-12
2.7568217e-09
-6.286663e-12
2.7579672e-09
-6.7907206e-12
2.7584954e-09
-6.2613372e-12
2.7460011e-09
-3.9480504e-12
2.6072212e-09
1.6708829e-09
2.3635124e-12
1.6686668e-09
3.9903617e-12
2.6049352e-09
4.6666837e-12
2.7446505e-09
4.6143101e-12
2.7578519e-09
4.1314989e-12
2.7577198e-09
3.4305479e-12
2.7567702e-09
2.6213248e-12
2.756017e-09
1.7648996e-12
2.755484e-09
9.032493e-13
2.7551557e-09
3.3417019e-14
2.7549924e-09
-8.400359e-13
2.7549878e-09
-1.7080641e-12
2.755153e-09
-2.5649437e-12
2.7554836e-09
-3.3906558e-12
2.7560114e-09
-4.1070491e-12
2.7567648e-09
-4.5975822e-12
2.757719e-09
-4.6562987e-12
2.7578438e-09
-3.9893958e-12
2.7446358e-09
-2.3657968e-12
2.6049215e-09
1.6686535e-09
1.478521e-12
1.6676131e-09
2.606529e-12
2.6037526e-09
3.2079436e-12
2.7439813e-09
3.3292098e-12
2.7576759e-09
3.103284e-12
2.7578972e-09
2.6605469e-12
2.7571661e-09
2.0776057e-12
2.7565333e-09
1.4249888e-12
2.7560688e-09
7.3633844e-13
2.7557648e-09
2.9604643e-14
2.7556183e-09
-6.7214211e-13
2.7556155e-09
-1.3684194e-12
2.7557664e-09
-2.0274757e-12
2.7560688e-09
-2.6196402e-12
2.7565287e-09
-3.0755448e-12
2.7571611e-09
-3.3132185e-12
2.7578917e-09
-3.200689e-12
2.7576743e-09
-2.609679e-12
2.7439769e-09
-1.4884314e-12
2.6037464e-09
1.6676142e-09
9.6143162e-13
1.6669602e-09
1.741565e-12
2.6029531e-09
2.2213157e-12
2.7434729e-09
2.3947271e-12
2.7575022e-09
2.3050853e-12
2.7579928e-09
2.0240167e-12
2.757454e-09
1.6090971e-12
2.7569466e-09
1.1188193e-12
2.7565674e-09
5.8424126e-13
2.7563101e-09
2.8003374e-14
2.7561774e-09
-5.2452072e-13
2.7561779e-09
-1.0641851e-12
2.7562952e-09
-1.5643437e-12
2.7565502e-09
-1.9840069e-12
2.7569289e-09
-2.274591e-12
2.7574348e-09
-2.3786513e-12
2.7579809e-09
-2.2197537e-12
2.7575046e-09
-1.7506104e-12
2.7434812e-09
-9.7101391e-13
2.6029709e-09
1.666972e-09
6.4510589e-13
1.6665414e-09
1.1921773e-12
2.6024219e-09
1.5568383e-12
2.7431143e-09
1.7251612e-12
2.7573635e-09
1.6996653e-12
2.7580443e-09
1.5201029e-12
2.757652e-09
1.2317487e-12
2.7572634e-09
8.6537738e-13
2.7569548e-09
4.5268193e-13
2.7567442e-09
2.4923182e-14
2.7566428e-09
-4.0488976e-13
2.7566367e-09
-8.1173084e-13
2.7567315e-09
-1.1806283e-12
2.756937e-09
-1.4770573e-12
2.7572437e-09
-1.6620505e-12
2.7576318e-09
-1.6957283e-12
2.7580222e-09
-1.5471438e-12
2.7573502e-09
-1.1919123e-12
2.7431079e-09
-6.5302635e-13
2.6024307e-09
1.6665563e-09
4.4773948e-13
1.6662737e-09
8.3448537e-13
2.6020657e-09
1.1083441e-12
2.7428591e-09
1.2425904e-12
2.7572447e-09
1.2422926e-12
2.7580684e-09
1.1317497e-12
2.7578023e-09
9.2511149e-13
2.7575078e-09
6.5384709e-13
2.7572686e-09
3.4763775e-13
2.7571037e-09
1.8192949e-14
2.7570168e-09
-3.0779342e-13
2.757018e-09
-6.0779295e-13
2.7570938e-09
-8.7979288e-13
2.7572472e-09
-1.0877311e-12
2.7574829e-09
-1.204041e-12
2.7577869e-09
-1.2085008e-12
2.7580526e-09
-1.0823444e-12
2.7572375e-09
-8.1607496e-13
2.7428508e-09
-4.4081604e-13
2.6020612e-09
1.6662754e-09
3.1239467e-13
1.6660941e-09
5.8664831e-13
2.6018269e-09
7.8550167e-13
2.7426874e-09
8.9372474e-13
2.7571809e-09
9.0852519e-13
2.7581061e-09
8.3677648e-13
2.7579234e-09
6.8655023e-13
2.7576997e-09
4.8947339e-13
2.7575169e-09
2.6320515e-13
2.757391e-09
1.6632185e-14
2.7573251e-09
-2.3043934e-13
2.7573198e-09
-4.5567679e-13
2.7573813e-09
-6.4843665e-13
2.7575027e-09
-7.8851247e-13
2.7576796e-09
-8.6596813e-13
2.7578974e-09
-8.5717111e-13
2.7580713e-09
-7.5735116e-13
2.7571457e-09
-5.6313491e-13
2.7426605e-09
-2.9753217e-13
2.6018063e-09
1.6660824e-09
2.1913591e-13
1.6659768e-09
4.1661054e-13
2.6016658e-09
5.6398469e-13
2.7425653e-09
6.4454738e-13
2.7571195e-09
6.5863684e-13
2.7581145e-09
6.1431773e-13
2.7580074e-09
5.1322464e-13
2.7578396e-09
3.7003271e-13
2.7577016e-09
2.0026849e-13
2.7576074e-09
1.5248737e-14
2.7575541e-09
-1.6679107e-13
2.7575544e-09
-3.3731214e-13
2.7575982e-09
-4.7706371e-13
2.757687e-09
-5.7544199e-13
2.7578273e-09
-6.2319936e-13
2.7579877e-09
-6.0925551e-13
2.7580894e-09
-5.3109902e-13
2.7570858e-09
-3.8925402e-13
2.7425285e-09
-2.031649e-13
2.601627e-09
1.665949e-09
1.535966e-13
1.6658827e-09
2.9649522e-13
2.6015311e-09
4.0455851e-13
2.7424576e-09
4.6619233e-13
2.7570604e-09
4.7913204e-13
2.7581082e-09
4.4860408e-13
2.7580468e-09
3.7869659e-13
2.7579222e-09
2.7749893e-13
2.7578182e-09
1.5027681e-13
2.7577484e-09
1.2950472e-14
2.7577085e-09
-1.2120286e-13
2.7577059e-09
-2.465445e-13
2.7577414e-09
-3.4181146e-13
2.7578147e-09
-4.1799987e-13
2.7579105e-09
-4.5150972e-13
2.758026e-09
-4.3931036e-13
2.7580781e-09
-3.7473386e-13
2.7570272e-09
-2.7107447e-13
2.7424166e-09
-1.4079425e-13
2.6014862e-09
1.6658466e-09
1.0783042e-13
1.6657903e-09
2.1200803e-13
2.6013952e-09
2.8725083e-13
2.742337e-09
3.3858809e-13
2.7569727e-09
3.5194074e-13
2.7580556e-09
3.2860239e-13
2.7580283e-09
2.7575678e-13
2.7579373e-09
2.0480705e-13
2.7578611e-09
1.0888562e-13
2.757809e-09
1.0675676e-14
2.7577803e-09
-8.5081507e-14
2.7577836e-09
-1.7337754e-13
2.7578091e-09
-2.4918158e-13
2.7578601e-09
-3.0338891e-13
2.7579345e-09
-3.2687264e-13
2.7580186e-09
-3.1583152e-13
2.7580385e-09
-2.7097946e-13
2.756949e-09
-1.9067582e-13
2.7423095e-09
-1.0192711e-13
2.6013549e-09
1.6657591e-09
7.597898e-14
1.6657007e-09
1.5059314e-13
2.6012632e-09
2.0760374e-13
2.7422173e-09
2.4274748e-13
2.7568746e-09
2.5075308e-13
2.7579832e-09
2.3378268e-13
2.7579871e-09
2.0246e-13
2.7579256e-09
1.5149106e-13
2.7578681e-09
8.5459419e-14
2.7578239e-09
1.2167381e-14
2.7578119e-09
-6.076946e-14
2.7578083e-09
-1.2415308e-13
2.7578292e-09
-1.798945e-13
2.7578668e-09
-2.2005643e-13
2.7579142e-09
-2.3189477e-13
2.7579761e-09
-2.2824526e-13
2.7579689e-09
-1.9481779e-13
2.7568583e-09
-1.4060515e-13
2.7421985e-09
-7.6777405e-14
2.6012398e-09
1.6656826e-09
5.5039696e-14
1.6656188e-09
1.0829949e-13
2.601137e-09
1.4707564e-13
2.7420947e-09
1.6910513e-13
2.7567706e-09
1.785194e-13
2.7579023e-09
1.7036709e-13
2.7579264e-09
1.4699456e-13
2.7578825e-09
1.1005125e-13
2.7578433e-09
6.7422994e-14
2.7578196e-09
1.3312901e-14
2.7578047e-09
-4.0538734e-14
2.7578022e-09
-9.139056e-14
2.7578127e-09
-1.2936776e-13
2.7578412e-09
-1.5620124e-13
2.7578828e-09
-1.6480205e-13
2.757921e-09
-1.6222468e-13
2.757895e-09
-1.4091351e-13
2.7567669e-09
-1.0309796e-13
2.7420907e-09
-5.7404531e-14
2.601131e-09
1.6656127e-09
3.928389e-14
1.6655589e-09
7.5339242e-14
2.6010403e-09
1.0520767e-13
2.7419909e-09
1.2420409e-13
2.7566789e-09
1.2884389e-13
2.757823e-09
1.2511965e-13
2.7578681e-09
1.0737984e-13
2.7578416e-09
8.0273441e-14
2.7578133e-09
4.8031727e-14
2.7577909e-09
1.0096014e-14
2.7577779e-09
-2.6065429e-14
2.7577752e-09
-6.2107757e-14
2.7577817e-09
-8.8078289e-14
2.7578064e-09
-1.078414e-13
2.7578375e-09
-1.1413098e-13
2.7578641e-09
-1.0878915e-13
2.757829e-09
-9.800938e-14
2.7566818e-09
-7.6748258e-14
2.7419903e-09
-4.3399498e-14
2.6010312e-09
1.6655524e-09
2.4500942e-14
1.6655091e-09
4.896634e-14
2.6009623e-09
7.4374883e-14
2.7419207e-09
9.0918362e-14
2.7566092e-09
9.9235478e-14
2.7577721e-09
9.5397259e-14
2.7578175e-09
8.4802347e-14
2.7577982e-09
5.9791937e-14
2.7577758e-09
3.3249526e-14
2.7577596e-09
5.4599367e-15
2.7577484e-09
-2.0001862e-14
2.7577536e-09
-4.164203e-14
2.7577552e-09
-5.961796e-14
2.7577712e-09
-7.426055e-14
2.7577957e-09
-7.7670647e-14
2.7578241e-09
-7.4764312e-14
2.7577733e-09
-6.9894001e-14
2.7566146e-09
-5.3852631e-14
2.7419197e-09
-2.7946517e-14
2.6009584e-09
1.6655032e-09
1.3185298e-14
1.6654741e-09
2.8229879e-14
2.6009063e-09
4.8015861e-14
2.7418718e-09
6.6906736e-14
2.7565726e-09
7.1085508e-14
2.75773e-09
6.945233e-14
2.7577832e-09
6.3174762e-14
2.7577699e-09
4.4377125e-14
2.757754e-09
2.3894191e-14
2.7577439e-09
5.0919253e-15
2.7577369e-09
-1.3648117e-14
2.7577346e-09
-2.6816024e-14
2.7577442e-09
-3.7918444e-14
2.7577572e-09
-4.3389204e-14
2.7577747e-09
-4.8255748e-14
2.7577896e-09
-4.8878591e-14
2.7577314e-09
-4.7083653e-14
2.7565652e-09
-3.6108256e-14
2.741866e-09
-1.8834625e-14
2.6009061e-09
1.6654702e-09
7.8957377e-15
1.6654543e-09
1.7104038e-14
2.6008771e-09
3.06481e-14
2.7418386e-09
4.4108478e-14
2.7565403e-09
4.7663597e-14
2.7577052e-09
4.869638e-14
2.7577692e-09
4.7336672e-14
2.7577653e-09
3.3881713e-14
2.7577502e-09
1.9768029e-14
2.7577449e-09
6.4385336e-15
2.7577338e-09
-6.7123817e-15
2.7577357e-09
-1.5447291e-14
2.757745e-09
-2.0418259e-14
2.75775e-09
-2.5364814e-14
2.7577604e-09
-3.1980293e-14
2.7577682e-09
-3.4311691e-14
2.7577028e-09
-3.116765e-14
2.7565393e-09
-2.3197965e-14
2.7418345e-09
-1.112729e-14
2.6008711e-09
1.6654515e-09
4.3251162e-15
1.6654498e-09
8.3632973e-15
2.6008628e-09
1.6602313e-14
2.7418268e-09
2.8735758e-14
2.7565379e-09
3.700321e-14
2.7577047e-09
3.7941475e-14
2.7577693e-09
3.5878846e-14
2.7577674e-09
2.740934e-14
2.7577583e-09
1.519485e-14
2.757752e-09
5.5881852e-15
2.7577483e-09
-1.3403421e-15
2.757746e-09
-7.0098597e-15
2.7577455e-09
-1.0312862e-14
2.7577501e-09
-1.3924409e-14
2.7577574e-09
-1.8192103e-14
2.7577641e-09
-1.8990149e-14
2.7576909e-09
-1.8816522e-14
2.7565254e-09
-1.3387674e-14
2.7418155e-09
-6.0626872e-15
2.6008561e-09
1.6654401e-09
2.0324799e-15
1.6654479e-09
5.0260096e-15
2.6008586e-09
9.5519437e-15
2.741824e-09
1.5688592e-14
2.7565382e-09
2.3783976e-14
2.7577147e-09
2.6998133e-14
2.7577814e-09
2.6631206e-14
2.7577748e-09
1.983632e-14
2.7577671e-09
1.2081407e-14
2.7577639e-09
3.8283405e-15
2.7577589e-09
-7.1725589e-16
2.7577554e-09
-1.5324973e-15
2.7577549e-09
-3.4508956e-15
2.7577609e-09
-8.0351319e-15
2.7577616e-09
-1.0150813e-14
2.7577626e-09
-9.2778148e-15
2.7576922e-09
-8.8483157e-15
2.7565169e-09
-5.6625644e-15
2.7418115e-09
-1.5350507e-15
2.6008498e-09
1.66544e-09
1.0950003e-15
1.6654475e-09
2.5405169e-15
2.6008588e-09
4.8004964e-15
2.7418265e-09
7.1275388e-15
2.7565391e-09
1.1959e-14
2.7577183e-09
1.6368921e-14
2.7577868e-09
1.8319072e-14
2.757784e-09
1.4652077e-14
2.7577809e-09
9.5710933e-15
2.7577772e-09
2.3987603e-15
2.7577752e-09
2.1436235e-16
2.7577748e-09
2.784159e-15
2.757776e-09
8.7530189e-16
2.7577707e-09
-3.2903448e-15
2.7577721e-09
-4.7992191e-15
2.7577742e-09
-3.4747426e-15
2.7577013e-09
-2.4043383e-15
2.7565218e-09
-8.9900884e-16
2.7418142e-09
4.0126871e-16
2.6008481e-09
1.6654373e-09
3.9643482e-17
1.6654463e-09
-5.5331835e-16
2.6008525e-09
1.4417971e-15
2.7418157e-09
5.5145939e-15
2.7565363e-09
7.4358933e-15
2.7577142e-09
1.0269877e-14
2.757786e-09
1.4007432e-14
2.7577913e-09
1.3527584e-14
2.7577898e-09
9.8279486e-15
2.7577935e-09
2.6739521e-15
2.7577899e-09
-9.3902715e-16
2.7577901e-09
2.6002636e-16
2.7577884e-09
-5.5101312e-16
2.7577882e-09
-2.1969058e-15
2.7577861e-09
-2.1243465e-15
2.7577819e-09
2.5941003e-16
2.7577053e-09
2.6717395e-15
2.7565301e-09
8.5638928e-16
2.7418123e-09
-1.4643528e-15
2.6008443e-09
1.6654373e-09
6.6291172e-16
1.6654447e-09
1.8997188e-15
2.6008456e-09
4.3305762e-15
2.7418103e-09
6.4922734e-15
2.7565223e-09
5.7973773e-15
2.7577023e-09
7.4307789e-15
2.7577844e-09
1.1239457e-14
2.7577842e-09
1.2405246e-14
2.7577881e-09
7.8996801e-15
2.7577864e-09
2.3105323e-15
2.7577908e-09
-4.2114323e-16
2.7577903e-09
-3.9466879e-16
2.7577968e-09
-1.5316367e-15
2.7577939e-09
-1.0143531e-15
2.7577911e-09
1.308124e-15
2.7577835e-09
3.6712576e-15
2.7577064e-09
3.6652363e-15
2.7565234e-09
-3.3234043e-16
2.7418034e-09
-2.8206557e-15
2.6008327e-09
1.6654341e-09
-1.7999043e-15
1.6654367e-09
-4.5102438e-17
2.6008342e-09
2.33338e-15
2.7417926e-09
5.8026622e-15
2.7565098e-09
8.0037871e-15
2.7576946e-09
9.1084488e-15
2.7577674e-09
1.1889286e-14
2.7577728e-09
1.0431146e-14
2.7577748e-09
7.2951353e-15
2.7577762e-09
4.1535645e-15
2.757779e-09
2.2409805e-15
2.7577847e-09
-8.6034745e-16
2.7577879e-09
-4.9191111e-15
2.7577908e-09
-4.2081026e-15
2.7577911e-09
-2.8759805e-16
2.7577856e-09
1.6095435e-15
2.7577003e-09
6.4064283e-16
2.7565141e-09
-1.3799004e-15
2.7417864e-09
-2.6863204e-15
2.6008226e-09
1.6654303e-09
4.5220752e-16
1.6654222e-09
7.8112996e-16
2.6008075e-09
2.7766032e-15
2.7417693e-09
6.4068917e-15
2.756488e-09
8.404769e-15
2.7576698e-09
1.0974404e-14
2.7577496e-09
1.2936898e-14
2.7577602e-09
1.1235227e-14
2.7577633e-09
8.3750674e-15
2.7577667e-09
4.8989614e-15
2.7577698e-09
4.0186545e-15
2.7577712e-09
2.2714554e-15
2.7577775e-09
-2.937331e-15
2.7577777e-09
-4.4504688e-15
2.7577809e-09
-4.5254547e-15
2.757777e-09
-5.9260419e-15
2.7576888e-09
-5.3348566e-15
2.7564971e-09
-1.7516482e-15
2.7417794e-09
-1.5020762e-16
2.6008139e-09
1.6654227e-09
1.2918331e-15
1.6654052e-09
1.8574321e-15
2.6007733e-09
5.6223949e-15
2.7417351e-09
1.1287961e-14
2.7564537e-09
1.3399372e-14
2.7576419e-09
1.4644328e-14
2.7577272e-09
1.6538422e-14
2.7577414e-09
1.5169187e-14
2.7577431e-09
1.0970069e-14
2.7577464e-09
6.9296784e-15
2.7577513e-09
8.4630044e-15
2.757755e-09
8.7179685e-15
2.7577604e-09
2.0248221e-15
2.7577559e-09
-4.6131374e-15
2.7577663e-09
-1.1292312e-14
2.7577619e-09
-1.5670519e-14
2.7576802e-09
-1.0254989e-14
2.7564962e-09
-3.2885882e-15
2.7417738e-09
-8.50093e-16
2.6008064e-09
1.665419e-09
1.4850661e-15
1.6653854e-09
4.7480727e-15
2.6007392e-09
1.1019815e-14
2.7416987e-09
1.7523498e-14
2.7564294e-09
1.8540358e-14
2.757615e-09
1.9143525e-14
2.7576988e-09
1.9874233e-14
2.7577156e-09
1.8663034e-14
2.757725e-09
1.6748906e-14
2.7577281e-09
1.339157e-14
2.7577277e-09
1.3278446e-14
2.7577336e-09
1.076733e-14
2.7577335e-09
4.3057461e-15
2.7577406e-09
-6.5819342e-15
2.7577479e-09
-1.779407e-14
2.7577438e-09
-2.2692834e-14
2.757665e-09
-1.7701942e-14
2.756486e-09
-1.1216037e-14
2.7417715e-09
-5.0972049e-15
2.6008057e-09
1.665421e-09
4.0800715e-15
1.6653621e-09
1.2744635e-14
2.6007033e-09
2.2208412e-14
2.7416654e-09
2.4038942e-14
2.7563899e-09
2.58384e-14
2.7575814e-09
2.9118991e-14
2.7576806e-09
2.8750498e-14
2.7576971e-09
2.3580592e-14
2.7577046e-09
1.9260247e-14
2.7577117e-09
1.7944916e-14
2.7577128e-09
1.5442536e-14
2.7577156e-09
1.3216425e-14
2.7577233e-09
5.341045e-15
2.7577278e-09
-7.5954988e-15
2.757734e-09
-1.7697759e-14
2.7577296e-09
-1.826144e-14
2.7576567e-09
-1.4553102e-14
2.7564819e-09
-1.2575353e-14
2.7417597e-09
-6.9719597e-15
2.6008036e-09
1.6654198e-09
7.4934099e-15
1.6653417e-09
1.8524494e-14
2.6006681e-09
2.9708742e-14
2.7416232e-09
3.5089341e-14
2.7563544e-09
4.1723412e-14
2.757553e-09
4.0661201e-14
2.7576523e-09
3.7042958e-14
2.7576777e-09
2.9116339e-14
2.7576896e-09
2.2888872e-14
2.757703e-09
2.0517467e-14
2.7577144e-09
1.8925985e-14
2.7577237e-09
1.7096356e-14
2.7577251e-09
8.5653356e-15
2.7577289e-09
-2.3343999e-15
2.7577305e-09
-1.0438343e-14
2.7577271e-09
-1.2865359e-14
2.7576528e-09
-1.3399774e-14
2.7564729e-09
-1.0736509e-14
2.7417553e-09
-6.1206271e-15
2.6007953e-09
1.6654165e-09
1.2054023e-14
1.6653157e-09
2.5542062e-14
2.6006219e-09
4.25818e-14
2.7415812e-09
5.3148932e-14
2.7563225e-09
6.2178962e-14
2.7575314e-09
6.0413511e-14
2.7576354e-09
5.1639842e-14
2.7576628e-09
4.2675841e-14
2.7576807e-09
3.2285159e-14
2.7576997e-09
2.5892588e-14
2.7577132e-09
2.0982494e-14
2.7577201e-09
1.7219661e-14
2.7577221e-09
9.1651691e-15
2.7577217e-09
-1.7633838e-15
2.7577237e-09
-9.328513e-15
2.7577306e-09
-1.3715677e-14
2.7576465e-09
-1.4596063e-14
2.7564724e-09
-1.1929639e-14
2.7417537e-09
-6.2753441e-15
2.6007925e-09
1.6654124e-09
1.9439775e-14
1.6652855e-09
4.2224888e-14
2.6005761e-09
6.7202144e-14
2.7415387e-09
7.9606594e-14
2.756283e-09
8.6600449e-14
2.7575102e-09
8.1183569e-14
2.7576234e-09
7.1893163e-14
2.7576587e-09
6.0791625e-14
2.7576816e-09
4.9600612e-14
2.7576989e-09
3.6242527e-14
2.757714e-09
2.8304812e-14
2.7577222e-09
1.8514143e-14
2.7577207e-09
1.0515397e-14
2.7577217e-09
1.9022239e-15
2.7577241e-09
-6.809186e-15
2.7577192e-09
-1.0523697e-14
2.7576474e-09
-1.348263e-14
2.7564701e-09
-1.3716493e-14
2.7417534e-09
-9.4821497e-15
2.600796e-09
1.665416e-09
3.0712488e-14
1.6652622e-09
6.5754898e-14
2.6005353e-09
9.828805e-14
2.7415002e-09
1.2266415e-13
2.7562595e-09
1.2378534e-13
2.7574977e-09
1.1323255e-13
2.7576297e-09
9.7949897e-14
2.7576727e-09
7.9994218e-14
2.7576919e-09
6.2876708e-14
2.7577107e-09
4.5098024e-14
2.7577201e-09
3.2405982e-14
2.7577273e-09
2.0201475e-14
2.7577259e-09
1.2255883e-14
2.7577186e-09
4.278078e-15
2.7577182e-09
-2.0398006e-15
2.7577203e-09
-6.657339e-15
2.7576506e-09
-1.1739244e-14
2.756467e-09
-1.219988e-14
2.7417525e-09
-8.404406e-15
2.6007914e-09
1.6654137e-09
4.4060555e-14
1.6652291e-09
9.2584154e-14
2.6004741e-09
1.4108895e-13
2.7414415e-09
1.7213822e-13
2.7562217e-09
1.7025376e-13
2.7574954e-09
1.4992634e-13
2.757647e-09
1.2295735e-13
2.757692e-09
9.9931079e-14
2.7577144e-09
7.4564598e-14
2.7577266e-09
5.2906591e-14
2.7577297e-09
3.3095506e-14
2.7577291e-09
2.046955e-14
2.757724e-09
1.3897114e-14
2.7577222e-09
6.8020178e-15
2.7577205e-09
-9.8325244e-16
2.757715e-09
-8.3274822e-15
2.7576394e-09
-1.354337e-14
2.7564591e-09
-1.3242605e-14
2.7417412e-09
-8.2127882e-15
2.6007788e-09
1.6654025e-09
6.0792717e-14
1.6651891e-09
1.3263415e-13
2.6004007e-09
2.0885706e-13
2.7413604e-09
2.4939826e-13
2.7561617e-09
2.367033e-13
2.7575051e-09
1.9158691e-13
2.7576789e-09
1.5075219e-13
2.7577237e-09
1.1274079e-13
2.7577325e-09
7.8117701e-14
2.7577269e-09
4.9808318e-14
2.7577228e-09
2.9612763e-14
2.7577198e-09
1.70208e-14
2.7577132e-09
1.075893e-14
2.7577097e-09
4.3966005e-15
2.7577054e-09
-1.526128e-15
2.7577004e-09
-8.6669366e-15
2.7576237e-09
-1.62909e-14
2.7564373e-09
-1.8233876e-14
2.7417181e-09
-1.2354726e-14
2.6007489e-09
1.6653749e-09
7.2011175e-14
1.66507e-09
1.7379459e-13
2.6002687e-09
2.9152335e-13
2.7412232e-09
3.683e-13
2.7560792e-09
3.2832844e-13
2.7575406e-09
2.4457898e-13
2.7577666e-09
1.6573195e-13
2.757784e-09
1.1102174e-13
2.7577628e-09
7.3643647e-14
2.7577376e-09
4.3838152e-14
2.757721e-09
2.3759797e-14
2.7577109e-09
1.2667874e-14
2.7577118e-09
6.5255147e-15
2.7577124e-09
2.4887248e-15
2.7577011e-09
-3.0475748e-15
2.7576879e-09
-1.3241594e-14
2.7576092e-09
-2.4174818e-14
2.7564332e-09
-3.3266196e-14
2.7417044e-09
-2.8919664e-14
2.6006997e-09
1.6652655e-09
6.5725191e-14
1.6648643e-09
1.842671e-13
2.5999408e-09
3.4152506e-13
2.7410193e-09
4.2318037e-13
2.7559916e-09
3.8782164e-13
2.7575859e-09
2.6352316e-13
2.7579015e-09
1.6192422e-13
2.7578995e-09
9.8298778e-14
2.7578414e-09
6.3761576e-14
2.7577905e-09
3.9406414e-14
2.7577619e-09
2.3369266e-14
2.7577389e-09
1.3707766e-14
2.7577364e-09
5.6729867e-15
2.7577358e-09
6.0755864e-16
2.7577292e-09
-3.5681356e-15
2.7577185e-09
-1.4508054e-14
2.7576413e-09
-3.3275878e-14
2.7564616e-09
-5.8908841e-14
2.7417074e-09
-6.1939162e-14
2.6005495e-09
1.665062e-09
4.4281866e-14
1.3776477e-13
2.6252636e-13
3.2513381e-13
3.1615361e-13
2.1155138e-13
1.188935e-13
6.8820654e-14
4.2417509e-14
2.4927171e-14
1.7457002e-14
1.3221905e-14
6.4907723e-15
7.8356974e-16
-1.7281083e-15
-9.0138201e-15
-2.5865454e-14
-5.3353872e-14
-6.0435167e-14
)
;

boundaryField
{
    Wall
    {
        type            calculated;
        value           uniform 0;
    }
    frontAndBack
    {
        type            empty;
        value           nonuniform 0();
    }
    atmosphere
    {
        type            calculated;
        value           nonuniform List<scalar> 
20
(
1.6647433e-09
2.5997634e-09
2.7408774e-09
2.7559381e-09
2.757603e-09
2.7580695e-09
2.7580635e-09
2.7579538e-09
2.7578607e-09
2.7578303e-09
2.7578114e-09
2.7578099e-09
2.7578506e-09
2.7578023e-09
2.7577609e-09
2.7576975e-09
2.7565292e-09
2.7417626e-09
2.6005005e-09
1.6649691e-09
)
;
    }
}


// ************************************************************************* //
