/*--------------------------------*- C++ -*----------------------------------*\
| =========                 |                                                 |
| \\      /  F ield         | OpenFOAM: The Open Source CFD Toolbox           |
|  \\    /   O peration     | Version:  3.0.1                                 |
|   \\  /    A nd           | Web:      www.OpenFOAM.org                      |
|    \\/     M anipulation  |                                                 |
\*---------------------------------------------------------------------------*/
FoamFile
{
    version     2.0;
    format      ascii;
    class       volVectorField;
    location    "1";
    object      U;
}
// * * * * * * * * * * * * * * * * * * * * * * * * * * * * * * * * * * * * * //

dimensions      [0 1 -1 0 0 0 0];

internalField   nonuniform List<vector> 
800
(
(-3.2705256e-09 1.3756737e-05 0)
(-4.2012102e-09 1.3770995e-05 0)
(-1.4643111e-09 1.3772701e-05 0)
(-3.8022087e-10 1.3773259e-05 0)
(-2.0163828e-11 1.3773461e-05 0)
(8.1174309e-11 1.3773532e-05 0)
(9.216193e-11 1.3773556e-05 0)
(7.3293102e-11 1.3773564e-05 0)
(4.550888e-11 1.3773566e-05 0)
(1.5523503e-11 1.3773567e-05 0)
(-1.4484365e-11 1.3773567e-05 0)
(-4.4086381e-11 1.3773566e-05 0)
(-7.1861155e-11 1.3773564e-05 0)
(-9.0720878e-11 1.3773557e-05 0)
(-7.9676158e-11 1.3773532e-05 0)
(2.161049e-11 1.3773461e-05 0)
(3.8172337e-10 1.3773259e-05 0)
(1.4653537e-09 1.3772701e-05 0)
(4.2014864e-09 1.3770995e-05 0)
(3.2705088e-09 1.3756738e-05 0)
(2.5648598e-09 1.3974975e-05 0)
(3.0389609e-09 1.3998785e-05 0)
(9.9151499e-10 1.400085e-05 0)
(6.2548414e-10 1.4001384e-05 0)
(4.4248253e-10 1.4001566e-05 0)
(3.1978738e-10 1.4001627e-05 0)
(2.2822024e-10 1.4001646e-05 0)
(1.5377176e-10 1.400165e-05 0)
(8.9170335e-11 1.4001651e-05 0)
(2.9563142e-11 1.400165e-05 0)
(-2.8389078e-11 1.400165e-05 0)
(-8.7824674e-11 1.4001651e-05 0)
(-1.5248822e-10 1.400165e-05 0)
(-2.2674035e-10 1.4001646e-05 0)
(-3.1853905e-10 1.4001627e-05 0)
(-4.4099408e-10 1.4001566e-05 0)
(-6.2373391e-10 1.4001384e-05 0)
(-9.8997588e-10 1.400085e-05 0)
(-3.0372653e-09 1.3998784e-05 0)
(-2.5637746e-09 1.3974974e-05 0)
(5.2447617e-09 1.400386e-05 0)
(8.441598e-09 1.4737484e-05 0)
(5.7521542e-09 1.4778701e-05 0)
(4.292381e-09 1.4781177e-05 0)
(3.2060637e-09 1.478095e-05 0)
(2.3769559e-09 1.4780694e-05 0)
(1.7193018e-09 1.4780529e-05 0)
(1.1678903e-09 1.4780428e-05 0)
(6.8207032e-10 1.4780368e-05 0)
(2.3050473e-10 1.4780344e-05 0)
(-2.1133956e-10 1.4780344e-05 0)
(-6.6361136e-10 1.478037e-05 0)
(-1.1496869e-09 1.4780429e-05 0)
(-1.7014938e-09 1.4780531e-05 0)
(-2.3615732e-09 1.4780694e-05 0)
(-3.191458e-09 1.4780947e-05 0)
(-4.2782476e-09 1.4781171e-05 0)
(-5.7410782e-09 1.4778695e-05 0)
(-8.4335064e-09 1.4737474e-05 0)
(-5.2406783e-09 1.4003853e-05 0)
(1.1363677e-07 3.1326892e-05 0)
(2.3935652e-07 4.7809943e-05 0)
(2.296258e-07 5.0120789e-05 0)
(1.849013e-07 5.0301178e-05 0)
(1.4189445e-07 5.0285412e-05 0)
(1.0652524e-07 5.0267796e-05 0)
(7.7546549e-08 5.025726e-05 0)
(5.2858479e-08 5.0251152e-05 0)
(3.0934783e-08 5.0247702e-05 0)
(1.0479096e-08 5.024628e-05 0)
(-9.5747855e-09 5.0246302e-05 0)
(-3.0071185e-08 5.0247795e-05 0)
(-5.2008637e-08 5.0251217e-05 0)
(-7.672648e-08 5.0257326e-05 0)
(-1.0582348e-07 5.0267797e-05 0)
(-1.4125855e-07 5.028527e-05 0)
(-1.843036e-07 5.0300924e-05 0)
(-2.2916267e-07 5.0120457e-05 0)
(-2.3904377e-07 4.780948e-05 0)
(-1.1349024e-07 3.1326539e-05 0)
(7.9302817e-08 3.3495424e-05 0)
(1.8306964e-07 5.2093878e-05 0)
(2.0081372e-07 5.479285e-05 0)
(1.7903728e-07 5.5013246e-05 0)
(1.4698946e-07 5.4993497e-05 0)
(1.1513511e-07 5.4969088e-05 0)
(8.5996616e-08 5.4953334e-05 0)
(5.9587173e-08 5.4943705e-05 0)
(3.5231883e-08 5.4938163e-05 0)
(1.2007149e-08 5.4935648e-05 0)
(-1.0915621e-08 5.4935701e-05 0)
(-3.4140913e-08 5.4938194e-05 0)
(-5.8521328e-08 5.494378e-05 0)
(-8.5026214e-08 5.4953392e-05 0)
(-1.1428422e-07 5.4969045e-05 0)
(-1.4623297e-07 5.4993255e-05 0)
(-1.7836031e-07 5.5012905e-05 0)
(-2.0025906e-07 5.4792361e-05 0)
(-1.8272691e-07 5.2093216e-05 0)
(-7.9167661e-08 3.3494879e-05 0)
(4.4452418e-08 3.3446222e-05 0)
(1.1115086e-07 5.2169015e-05 0)
(1.3651117e-07 5.4930463e-05 0)
(1.3380183e-07 5.5171464e-05 0)
(1.1777003e-07 5.5156706e-05 0)
(9.6803884e-08 5.5132118e-05 0)
(7.4684877e-08 5.5114941e-05 0)
(5.2828491e-08 5.510385e-05 0)
(3.1600113e-08 5.5097248e-05 0)
(1.0899522e-08 5.5094087e-05 0)
(-9.7163547e-09 5.5094166e-05 0)
(-3.0518057e-08 5.5097282e-05 0)
(-5.1768476e-08 5.5103929e-05 0)
(-7.3788457e-08 5.5115039e-05 0)
(-9.6078293e-08 5.5132196e-05 0)
(-1.1713547e-07 5.5156568e-05 0)
(-1.3328758e-07 5.517115e-05 0)
(-1.3616864e-07 5.4929951e-05 0)
(-1.1100779e-07 5.2168324e-05 0)
(-4.4414402e-08 3.3445659e-05 0)
(2.5614077e-08 3.3387933e-05 0)
(6.7679762e-08 5.2113839e-05 0)
(9.0060388e-08 5.4900533e-05 0)
(9.4969825e-08 5.5158198e-05 0)
(8.8589814e-08 5.5151574e-05 0)
(7.6170015e-08 5.5130343e-05 0)
(6.0744914e-08 5.5114232e-05 0)
(4.393875e-08 5.5103181e-05 0)
(2.6699554e-08 5.5096396e-05 0)
(9.3828157e-09 5.5093084e-05 0)
(-8.0461349e-09 5.5093073e-05 0)
(-2.5490166e-08 5.5096394e-05 0)
(-4.2793534e-08 5.510319e-05 0)
(-5.9784398e-08 5.5114211e-05 0)
(-7.5517631e-08 5.5130379e-05 0)
(-8.8180295e-08 5.5151551e-05 0)
(-9.4693276e-08 5.5158005e-05 0)
(-8.9945112e-08 5.4900162e-05 0)
(-6.7727604e-08 5.2113367e-05 0)
(-2.5652834e-08 3.3387551e-05 0)
(1.5641843e-08 3.3361082e-05 0)
(4.2888304e-08 5.208517e-05 0)
(6.0236734e-08 5.4885589e-05 0)
(6.6971702e-08 5.5155209e-05 0)
(6.5358884e-08 5.515638e-05 0)
(5.8264398e-08 5.5139607e-05 0)
(4.7739032e-08 5.5125699e-05 0)
(3.5198295e-08 5.5115644e-05 0)
(2.1698547e-08 5.5109249e-05 0)
(7.6753098e-09 5.510611e-05 0)
(-6.4694142e-09 5.5106052e-05 0)
(-2.0480307e-08 5.5109236e-05 0)
(-3.4122421e-08 5.5115641e-05 0)
(-4.6824303e-08 5.5125583e-05 0)
(-5.7572126e-08 5.5139498e-05 0)
(-6.4912314e-08 5.5156317e-05 0)
(-6.6737484e-08 5.5155129e-05 0)
(-6.0202576e-08 5.4885412e-05 0)
(-4.3068479e-08 5.208499e-05 0)
(-1.5791605e-08 3.3360962e-05 0)
(1.0019901e-08 3.3344888e-05 0)
(2.8099791e-08 5.2066084e-05 0)
(4.0884656e-08 5.4874083e-05 0)
(4.7284847e-08 5.5151802e-05 0)
(4.7844162e-08 5.5159198e-05 0)
(4.3884513e-08 5.5146597e-05 0)
(3.6720721e-08 5.5135224e-05 0)
(2.7481613e-08 5.5126759e-05 0)
(1.7140532e-08 5.5121132e-05 0)
(6.1507595e-09 5.5118326e-05 0)
(-5.0086648e-09 5.5118297e-05 0)
(-1.598818e-08 5.5121002e-05 0)
(-2.6487847e-08 5.51266e-05 0)
(-3.5854547e-08 5.5135022e-05 0)
(-4.3155419e-08 5.5146364e-05 0)
(-4.7363764e-08 5.5159026e-05 0)
(-4.7108922e-08 5.5151812e-05 0)
(-4.0973154e-08 5.4874159e-05 0)
(-2.8338374e-08 5.2066247e-05 0)
(-1.016989e-08 3.3345041e-05 0)
(6.6678907e-09 3.3334465e-05 0)
(1.8962266e-08 5.2053041e-05 0)
(2.8271088e-08 5.4865436e-05 0)
(3.360696e-08 5.5148535e-05 0)
(3.4882138e-08 5.5160471e-05 0)
(3.2696556e-08 5.5151298e-05 0)
(2.7884033e-08 5.5142385e-05 0)
(2.1168792e-08 5.5135541e-05 0)
(1.3292326e-08 5.5130853e-05 0)
(4.8216749e-09 5.5128503e-05 0)
(-3.8361003e-09 5.5128445e-05 0)
(-1.2269913e-08 5.5130571e-05 0)
(-2.0117431e-08 5.5135159e-05 0)
(-2.6917889e-08 5.5141994e-05 0)
(-3.1866142e-08 5.515089e-05 0)
(-3.4197145e-08 5.5160119e-05 0)
(-3.3201342e-08 5.514844e-05 0)
(-2.8170346e-08 5.4865486e-05 0)
(-1.9095786e-08 5.2053332e-05 0)
(-6.8013591e-09 3.333476e-05 0)
(4.5998299e-09 3.3327797e-05 0)
(1.3182942e-08 5.2044392e-05 0)
(1.9945583e-08 5.48594e-05 0)
(2.4035361e-08 5.5145935e-05 0)
(2.5316572e-08 5.5161117e-05 0)
(2.4141282e-08 5.5154669e-05 0)
(2.0869419e-08 5.51479e-05 0)
(1.5967577e-08 5.5142457e-05 0)
(1.0106945e-08 5.5138728e-05 0)
(3.6862813e-09 5.5136861e-05 0)
(-2.9460856e-09 5.5136805e-05 0)
(-9.2669333e-09 5.5138502e-05 0)
(-1.5058571e-08 5.5142089e-05 0)
(-1.9953134e-08 5.514746e-05 0)
(-2.3299271e-08 5.5154312e-05 0)
(-2.4581519e-08 5.5160773e-05 0)
(-2.3436136e-08 5.5145752e-05 0)
(-1.9487758e-08 5.4859269e-05 0)
(-1.2939714e-08 5.2044452e-05 0)
(-4.560918e-09 3.332798e-05 0)
(3.2038622e-09 3.3323451e-05 0)
(9.2263533e-09 5.2038626e-05 0)
(1.4061329e-08 5.4855249e-05 0)
(1.7145185e-08 5.5144158e-05 0)
(1.8372281e-08 5.5161757e-05 0)
(1.7778057e-08 5.5157353e-05 0)
(1.5471997e-08 5.5152251e-05 0)
(1.190274e-08 5.5148068e-05 0)
(7.6139004e-09 5.5145189e-05 0)
(2.8330443e-09 5.5143673e-05 0)
(-2.1677569e-09 5.5143631e-05 0)
(-6.952284e-09 5.5144988e-05 0)
(-1.1198056e-08 5.5147705e-05 0)
(-1.4593479e-08 5.515181e-05 0)
(-1.6830235e-08 5.5156945e-05 0)
(-1.7557329e-08 5.5161263e-05 0)
(-1.6511634e-08 5.5143737e-05 0)
(-1.3536424e-08 5.4854904e-05 0)
(-8.8211459e-09 5.2038379e-05 0)
(-3.055481e-09 3.3323376e-05 0)
(2.2490566e-09 3.3320593e-05 0)
(6.5250099e-09 5.203477e-05 0)
(1.0030646e-08 5.4852426e-05 0)
(1.2342191e-08 5.5142987e-05 0)
(1.3290668e-08 5.5162282e-05 0)
(1.295131e-08 5.5159443e-05 0)
(1.1457613e-08 5.5155585e-05 0)
(8.9582195e-09 5.5152422e-05 0)
(5.7793619e-09 5.5150237e-05 0)
(2.1696961e-09 5.514905e-05 0)
(-1.548321e-09 5.5149007e-05 0)
(-5.1348572e-09 5.5150032e-05 0)
(-8.2728567e-09 5.5152109e-05 0)
(-1.068912e-08 5.5155236e-05 0)
(-1.2189879e-08 5.5158973e-05 0)
(-1.2562224e-08 5.5161658e-05 0)
(-1.1658071e-08 5.5142279e-05 0)
(-9.4080413e-09 5.485177e-05 0)
(-6.0582189e-09 5.2034174e-05 0)
(-2.0815794e-09 3.332019e-05 0)
(1.5763688e-09 3.3318555e-05 0)
(4.6056374e-09 5.2031907e-05 0)
(7.1651978e-09 5.4850199e-05 0)
(8.8888507e-09 5.5141847e-05 0)
(9.6336841e-09 5.5162323e-05 0)
(9.4354372e-09 5.5160691e-05 0)
(8.4044857e-09 5.5157803e-05 0)
(6.6704213e-09 5.5155415e-05 0)
(4.3439498e-09 5.5153788e-05 0)
(1.6347485e-09 5.5152883e-05 0)
(-1.1167297e-09 5.5152854e-05 0)
(-3.7549304e-09 5.5153644e-05 0)
(-5.9944448e-09 5.5155253e-05 0)
(-7.7320656e-09 5.5157583e-05 0)
(-8.8458597e-09 5.5160295e-05 0)
(-9.0902463e-09 5.5161778e-05 0)
(-8.3315335e-09 5.5141167e-05 0)
(-6.5763963e-09 5.4849417e-05 0)
(-4.2008621e-09 5.2031046e-05 0)
(-1.4602398e-09 3.3317885e-05 0)
(1.0977343e-09 3.3316709e-05 0)
(3.262134e-09 5.2029243e-05 0)
(5.1186052e-09 5.4847965e-05 0)
(6.3931682e-09 5.5140391e-05 0)
(7.0464865e-09 5.5161728e-05 0)
(6.9347135e-09 5.5160888e-05 0)
(6.1390148e-09 5.515876e-05 0)
(4.8967816e-09 5.5156988e-05 0)
(3.1942399e-09 5.5155776e-05 0)
(1.1948376e-09 5.5155107e-05 0)
(-7.6369499e-10 5.5155103e-05 0)
(-2.6296947e-09 5.5155727e-05 0)
(-4.2996092e-09 5.5156948e-05 0)
(-5.6239411e-09 5.5158627e-05 0)
(-6.4241255e-09 5.5160591e-05 0)
(-6.5616985e-09 5.5161255e-05 0)
(-6.0062284e-09 5.5139805e-05 0)
(-4.7109941e-09 5.4847249e-05 0)
(-2.9819726e-09 5.2028352e-05 0)
(-1.0505471e-09 3.3316016e-05 0)
(7.6193592e-10 3.3314885e-05 0)
(2.3110463e-09 5.2026564e-05 0)
(3.6744052e-09 5.4845556e-05 0)
(4.5839286e-09 5.5138507e-05 0)
(5.0418342e-09 5.5160451e-05 0)
(4.9481662e-09 5.5160236e-05 0)
(4.4281236e-09 5.5158731e-05 0)
(3.6000829e-09 5.5157411e-05 0)
(2.4143932e-09 5.515646e-05 0)
(9.8508159e-10 5.5156058e-05 0)
(-4.9838634e-10 5.5156079e-05 0)
(-1.8830158e-09 5.5156522e-05 0)
(-3.1032647e-09 5.5157398e-05 0)
(-4.080168e-09 5.5158591e-05 0)
(-4.6141893e-09 5.5160014e-05 0)
(-4.7036523e-09 5.5160106e-05 0)
(-4.3252943e-09 5.5138082e-05 0)
(-3.4140487e-09 5.4845067e-05 0)
(-2.2239783e-09 5.2025922e-05 0)
(-8.088682e-10 3.3314393e-05 0)
(5.5820305e-10 3.3313162e-05 0)
(1.6670843e-09 5.2023952e-05 0)
(2.6233684e-09 5.4843052e-05 0)
(3.2230837e-09 5.5136416e-05 0)
(3.5376262e-09 5.5158853e-05 0)
(3.5492475e-09 5.5159162e-05 0)
(3.2241341e-09 5.5158129e-05 0)
(2.6148247e-09 5.5157169e-05 0)
(1.8210702e-09 5.5156495e-05 0)
(8.2291881e-10 5.5156223e-05 0)
(-2.9040279e-10 5.5156184e-05 0)
(-1.3489904e-09 5.5156483e-05 0)
(-2.2581134e-09 5.5157134e-05 0)
(-2.9165971e-09 5.5158007e-05 0)
(-3.2721244e-09 5.5158985e-05 0)
(-3.3360982e-09 5.5158652e-05 0)
(-3.0942386e-09 5.513625e-05 0)
(-2.4828342e-09 5.4842874e-05 0)
(-1.6540687e-09 5.2023671e-05 0)
(-6.1432766e-10 3.331293e-05 0)
(4.078674e-10 3.3311732e-05 0)
(1.1634882e-09 5.2021692e-05 0)
(1.8442043e-09 5.4840759e-05 0)
(2.3445294e-09 5.5134409e-05 0)
(2.5883976e-09 5.515721e-05 0)
(2.5891958e-09 5.5157913e-05 0)
(2.3657009e-09 5.5157239e-05 0)
(1.9119399e-09 5.5156587e-05 0)
(1.3094774e-09 5.5156135e-05 0)
(5.7431621e-10 5.5155872e-05 0)
(-1.7047564e-10 5.5155802e-05 0)
(-8.9087688e-10 5.5155961e-05 0)
(-1.5468663e-09 5.5156482e-05 0)
(-2.0094797e-09 5.5157189e-05 0)
(-2.2567199e-09 5.5157843e-05 0)
(-2.2608107e-09 5.515722e-05 0)
(-2.1158142e-09 5.5134453e-05 0)
(-1.7835656e-09 5.4840767e-05 0)
(-1.2419666e-09 5.2021568e-05 0)
(-4.7154084e-10 3.3311612e-05 0)
(2.482007e-10 3.3310632e-05 0)
(7.2667533e-10 5.2019944e-05 0)
(1.257081e-09 5.4839039e-05 0)
(1.7005968e-09 5.5132818e-05 0)
(1.9429687e-09 5.5155894e-05 0)
(1.9793185e-09 5.5156812e-05 0)
(1.8512079e-09 5.5156354e-05 0)
(1.4869175e-09 5.5155862e-05 0)
(9.3557645e-10 5.5155488e-05 0)
(3.7997246e-10 5.5155257e-05 0)
(-1.5819408e-10 5.5155277e-05 0)
(-6.2847235e-10 5.5155355e-05 0)
(-1.0312339e-09 5.5155748e-05 0)
(-1.3784848e-09 5.5156306e-05 0)
(-1.5433594e-09 5.5156825e-05 0)
(-1.537167e-09 5.5155965e-05 0)
(-1.4847161e-09 5.5132873e-05 0)
(-1.273148e-09 5.4839013e-05 0)
(-8.4061663e-10 5.2019817e-05 0)
(-2.9631936e-10 3.3310513e-05 0)
(1.2852776e-10 3.3309784e-05 0)
(3.8944372e-10 5.2018618e-05 0)
(7.5815935e-10 5.4837853e-05 0)
(1.1918454e-09 5.5131761e-05 0)
(1.4298878e-09 5.5154958e-05 0)
(1.4270844e-09 5.5155951e-05 0)
(1.3689106e-09 5.5155622e-05 0)
(1.1134374e-09 5.5155227e-05 0)
(6.7754971e-10 5.5154966e-05 0)
(2.9521927e-10 5.5154774e-05 0)
(-9.7654423e-11 5.5154819e-05 0)
(-4.3240684e-10 5.515493e-05 0)
(-6.5833315e-10 5.5155221e-05 0)
(-8.3421126e-10 5.5155654e-05 0)
(-9.1840728e-10 5.5156071e-05 0)
(-9.8164274e-10 5.5154986e-05 0)
(-9.9080668e-10 5.5131709e-05 0)
(-8.6168348e-10 5.4837762e-05 0)
(-5.6765331e-10 5.2018558e-05 0)
(-1.9403742e-10 3.3309694e-05 0)
(8.2852647e-11 3.3309243e-05 0)
(2.3297686e-10 5.2017765e-05 0)
(4.6363804e-10 5.4837028e-05 0)
(7.762454e-10 5.5131034e-05 0)
(9.5237806e-10 5.5154273e-05 0)
(9.7412387e-10 5.5155449e-05 0)
(1.0033469e-09 5.5155299e-05 0)
(8.482212e-10 5.5155003e-05 0)
(5.3109676e-10 5.5154837e-05 0)
(2.6372795e-10 5.5154655e-05 0)
(-1.4196504e-11 5.5154669e-05 0)
(-2.4589171e-10 5.5154838e-05 0)
(-3.6697123e-10 5.5155022e-05 0)
(-4.5502801e-10 5.5155308e-05 0)
(-5.7488746e-10 5.5155546e-05 0)
(-6.8649516e-10 5.5154292e-05 0)
(-6.6829578e-10 5.5130997e-05 0)
(-5.6405867e-10 5.4836948e-05 0)
(-3.4971338e-10 5.2017715e-05 0)
(-1.0210953e-10 3.3309174e-05 0)
(5.5689559e-11 3.3309019e-05 0)
(1.1233155e-10 5.2017348e-05 0)
(2.2220035e-10 5.4836587e-05 0)
(4.5259499e-10 5.513071e-05 0)
(6.8104717e-10 5.5154031e-05 0)
(7.7140094e-10 5.5155342e-05 0)
(7.6374478e-10 5.5155276e-05 0)
(6.5430389e-10 5.5155044e-05 0)
(4.2673976e-10 5.5154927e-05 0)
(1.8927853e-10 5.5154803e-05 0)
(3.4248875e-11 5.5154796e-05 0)
(-8.9432071e-11 5.5154888e-05 0)
(-1.8301823e-10 5.5154985e-05 0)
(-2.3627554e-10 5.5155148e-05 0)
(-3.3021557e-10 5.5155274e-05 0)
(-3.830426e-10 5.5153881e-05 0)
(-3.8750801e-10 5.5130589e-05 0)
(-3.4782252e-10 5.4836456e-05 0)
(-1.92587e-10 5.2017227e-05 0)
(-4.9920486e-11 3.330889e-05 0)
(2.5714741e-11 3.3308962e-05 0)
(5.6205062e-11 5.2017192e-05 0)
(1.451899e-10 5.4836486e-05 0)
(2.4394556e-10 5.5130754e-05 0)
(3.942423e-10 5.5154193e-05 0)
(5.3479633e-10 5.5155486e-05 0)
(5.6112938e-10 5.5155397e-05 0)
(4.8258678e-10 5.5155217e-05 0)
(3.2501881e-10 5.5155129e-05 0)
(1.4872619e-10 5.5155054e-05 0)
(4.4074269e-12 5.5154993e-05 0)
(-3.0499687e-11 5.5154971e-05 0)
(-2.8638931e-11 5.5155084e-05 0)
(-1.0939689e-10 5.5155164e-05 0)
(-2.03461e-10 5.5155235e-05 0)
(-1.9698946e-10 5.5153791e-05 0)
(-1.8040834e-10 5.5130383e-05 0)
(-1.6423151e-10 5.4836243e-05 0)
(-6.1941948e-11 5.2017035e-05 0)
(-8.6198297e-13 3.3308791e-05 0)
(1.6204361e-11 3.3308948e-05 0)
(2.8444704e-11 5.2017171e-05 0)
(7.5968783e-11 5.483651e-05 0)
(1.1043539e-10 5.5130796e-05 0)
(1.7466616e-10 5.5154336e-05 0)
(2.9338342e-10 5.5155687e-05 0)
(3.7309099e-10 5.51556e-05 0)
(3.4545834e-10 5.5155485e-05 0)
(2.5183516e-10 5.5155419e-05 0)
(1.2071337e-10 5.5155343e-05 0)
(-2.3075161e-11 5.5155298e-05 0)
(3.3108388e-11 5.5155279e-05 0)
(7.1901778e-11 5.5155299e-05 0)
(-3.6889702e-11 5.5155325e-05 0)
(-9.7989163e-11 5.5155361e-05 0)
(-8.8459164e-11 5.5153922e-05 0)
(-5.3479658e-11 5.5130381e-05 0)
(-3.9363369e-11 5.4836241e-05 0)
(3.6821219e-12 5.2016969e-05 0)
(9.8088403e-12 3.3308758e-05 0)
(9.0151241e-12 3.3308943e-05 0)
(-8.3223967e-12 5.201712e-05 0)
(-1.1151684e-11 5.4836444e-05 0)
(7.0839846e-11 5.5130767e-05 0)
(1.4275235e-10 5.5154324e-05 0)
(1.6076899e-10 5.5155765e-05 0)
(2.5171972e-10 5.5155768e-05 0)
(3.023311e-10 5.5155733e-05 0)
(2.5051441e-10 5.5155714e-05 0)
(1.3060676e-10 5.5155686e-05 0)
(-2.3648682e-11 5.5155673e-05 0)
(-1.0433541e-11 5.5155671e-05 0)
(1.9656265e-11 5.51556e-05 0)
(-3.9965734e-11 5.5155589e-05 0)
(-4.7910497e-11 5.5155565e-05 0)
(-3.2875002e-11 5.515408e-05 0)
(4.4480024e-11 5.513052e-05 0)
(5.6936738e-11 5.4836275e-05 0)
(-2.2681166e-11 5.2016919e-05 0)
(-3.2739472e-11 3.3308741e-05 0)
(5.0175339e-12 3.3308917e-05 0)
(1.9713839e-11 5.2016997e-05 0)
(5.6274914e-11 5.483627e-05 0)
(1.2165997e-10 5.5130593e-05 0)
(1.2939783e-10 5.5154182e-05 0)
(1.0249726e-10 5.5155717e-05 0)
(1.8804582e-10 5.515578e-05 0)
(2.6153245e-10 5.5155813e-05 0)
(2.2062931e-10 5.5155824e-05 0)
(1.0165131e-10 5.5155844e-05 0)
(-1.0674054e-11 5.5155844e-05 0)
(-3.5778801e-12 5.5155888e-05 0)
(-1.3513168e-11 5.515585e-05 0)
(-4.5395131e-11 5.515579e-05 0)
(3.4486641e-12 5.5155666e-05 0)
(5.1338135e-11 5.5154137e-05 0)
(9.5512167e-11 5.5130558e-05 0)
(4.4763747e-11 5.4836175e-05 0)
(-5.627363e-11 5.2016782e-05 0)
(-5.1643772e-11 3.3308718e-05 0)
(-4.2551855e-11 3.3308829e-05 0)
(-2.4693902e-11 5.2016827e-05 0)
(2.2889804e-11 5.4836051e-05 0)
(7.2146212e-11 5.513035e-05 0)
(1.5996027e-10 5.5153988e-05 0)
(1.5026138e-10 5.515553e-05 0)
(2.1407657e-10 5.5155592e-05 0)
(2.4838547e-10 5.5155645e-05 0)
(1.7716974e-10 5.5155658e-05 0)
(1.1119058e-10 5.5155713e-05 0)
(5.9138806e-11 5.5155749e-05 0)
(3.2866479e-11 5.5155834e-05 0)
(-6.7280377e-11 5.5155867e-05 0)
(-1.2135344e-10 5.5155841e-05 0)
(-4.2142919e-11 5.5155699e-05 0)
(3.0638997e-11 5.5154081e-05 0)
(2.9402316e-11 5.5130381e-05 0)
(-3.7766029e-12 5.4835896e-05 0)
(-5.1419414e-11 5.2016554e-05 0)
(-5.1380655e-11 3.3308642e-05 0)
(8.3675472e-12 3.3308607e-05 0)
(9.7207536e-12 5.2016441e-05 0)
(2.275361e-11 5.4835655e-05 0)
(9.0424837e-11 5.513e-05 0)
(1.5949167e-10 5.5153653e-05 0)
(1.766991e-10 5.5155195e-05 0)
(2.6095104e-10 5.5155338e-05 0)
(2.5652488e-10 5.5155365e-05 0)
(1.928842e-10 5.5155408e-05 0)
(1.3312463e-10 5.5155498e-05 0)
(6.5273302e-11 5.5155555e-05 0)
(9.547288e-11 5.5155659e-05 0)
(-8.2887108e-12 5.5155712e-05 0)
(-1.0341992e-10 5.5155755e-05 0)
(-7.4598835e-11 5.5155644e-05 0)
(-1.020765e-10 5.51539e-05 0)
(-1.3496518e-10 5.5130108e-05 0)
(-7.0746896e-11 5.4835645e-05 0)
(2.8386151e-13 5.201635e-05 0)
(-8.048536e-12 3.3308527e-05 0)
(2.6167156e-11 3.3308288e-05 0)
(2.2905995e-11 5.2015829e-05 0)
(5.2888529e-11 5.4835053e-05 0)
(1.7384642e-10 5.5129436e-05 0)
(2.6866382e-10 5.5153128e-05 0)
(2.7852165e-10 5.5154775e-05 0)
(3.1780745e-10 5.5155022e-05 0)
(3.3035816e-10 5.515505e-05 0)
(2.7640934e-10 5.5155119e-05 0)
(1.5227841e-10 5.5155218e-05 0)
(1.2490872e-10 5.5155289e-05 0)
(2.2131929e-10 5.5155396e-05 0)
(1.1495755e-10 5.515536e-05 0)
(-3.3964665e-11 5.5155482e-05 0)
(-1.5056083e-10 5.5155402e-05 0)
(-3.0865709e-10 5.5153683e-05 0)
(-2.9904307e-10 5.512992e-05 0)
(-1.1789846e-10 5.4835523e-05 0)
(-1.5783792e-11 5.2016187e-05 0)
(-1.7369303e-11 3.330841e-05 0)
(1.6358141e-11 3.3307914e-05 0)
(4.4293449e-11 5.2015139e-05 0)
(1.4242899e-10 5.4834357e-05 0)
(2.983636e-10 5.5128843e-05 0)
(3.8416343e-10 5.5152578e-05 0)
(3.712122e-10 5.5154269e-05 0)
(3.894909e-10 5.5154571e-05 0)
(3.9291926e-10 5.5154679e-05 0)
(3.6854087e-10 5.5154747e-05 0)
(2.8348084e-10 5.5154781e-05 0)
(2.5218197e-10 5.5154867e-05 0)
(2.6449726e-10 5.5154923e-05 0)
(1.6619594e-10 5.515493e-05 0)
(-5.3157795e-13 5.5155113e-05 0)
(-2.5581465e-10 5.5155044e-05 0)
(-4.5898698e-10 5.515344e-05 0)
(-4.25443e-10 5.5129807e-05 0)
(-2.8263468e-10 5.4835446e-05 0)
(-1.5667659e-10 5.2016115e-05 0)
(-4.7211608e-11 3.3308392e-05 0)
(2.450193e-11 3.330748e-05 0)
(1.3870093e-10 5.2014429e-05 0)
(3.8033994e-10 5.4833642e-05 0)
(4.8348592e-10 5.5128175e-05 0)
(4.9630118e-10 5.5151952e-05 0)
(5.5477518e-10 5.5153781e-05 0)
(5.9194284e-10 5.5154117e-05 0)
(5.3690958e-10 5.5154278e-05 0)
(4.1779303e-10 5.5154372e-05 0)
(3.6726661e-10 5.5154372e-05 0)
(3.3215873e-10 5.5154455e-05 0)
(2.952993e-10 5.5154536e-05 0)
(2.2042279e-10 5.5154643e-05 0)
(-6.7809904e-12 5.5154794e-05 0)
(-2.89037e-10 5.515471e-05 0)
(-4.0457861e-10 5.5153201e-05 0)
(-3.1068366e-10 5.5129671e-05 0)
(-2.7144044e-10 5.4835314e-05 0)
(-2.1680966e-10 5.2016098e-05 0)
(-6.4826899e-11 3.3308414e-05 0)
(6.5498696e-11 3.3307052e-05 0)
(2.342377e-10 5.2013721e-05 0)
(5.1032345e-10 5.4832876e-05 0)
(6.5104908e-10 5.5127429e-05 0)
(7.7491297e-10 5.5151323e-05 0)
(8.5992005e-10 5.5153303e-05 0)
(7.9026968e-10 5.5153724e-05 0)
(6.6924959e-10 5.5153922e-05 0)
(5.0876327e-10 5.5154123e-05 0)
(4.2224116e-10 5.5154246e-05 0)
(3.8738917e-10 5.5154374e-05 0)
(3.8108951e-10 5.5154447e-05 0)
(2.8742405e-10 5.5154553e-05 0)
(6.3412635e-11 5.5154627e-05 0)
(-1.5486812e-10 5.5154553e-05 0)
(-2.5659796e-10 5.5153072e-05 0)
(-2.6622824e-10 5.5129537e-05 0)
(-2.5559667e-10 5.4835142e-05 0)
(-1.8202994e-10 5.2015967e-05 0)
(-6.7703489e-11 3.3308362e-05 0)
(1.2918505e-10 3.3306578e-05 0)
(3.4335674e-10 5.2012922e-05 0)
(6.9032703e-10 5.4832071e-05 0)
(9.8176194e-10 5.5126776e-05 0)
(1.1808877e-09 5.5150849e-05 0)
(1.2663482e-09 5.5152861e-05 0)
(1.1367837e-09 5.5153373e-05 0)
(9.4869288e-10 5.5153675e-05 0)
(7.4254557e-10 5.5154003e-05 0)
(5.6922921e-10 5.515426e-05 0)
(4.4880804e-10 5.5154409e-05 0)
(4.0387276e-10 5.5154441e-05 0)
(2.9588003e-10 5.515448e-05 0)
(6.5325118e-11 5.5154539e-05 0)
(-1.3145624e-10 5.515455e-05 0)
(-2.4408688e-10 5.5152986e-05 0)
(-2.9131769e-10 5.5129448e-05 0)
(-2.8067478e-10 5.4835072e-05 0)
(-1.8743518e-10 5.2015846e-05 0)
(-6.3791102e-11 3.330828e-05 0)
(1.9910517e-10 3.3306012e-05 0)
(5.9125541e-10 5.2011995e-05 0)
(1.1207255e-09 5.4831204e-05 0)
(1.5246165e-09 5.5126046e-05 0)
(1.711801e-09 5.5150381e-05 0)
(1.7136017e-09 5.5152551e-05 0)
(1.5500511e-09 5.515318e-05 0)
(1.3376649e-09 5.5153583e-05 0)
(1.1081291e-09 5.5153956e-05 0)
(8.4383966e-10 5.5154249e-05 0)
(6.3269747e-10 5.5154395e-05 0)
(4.7387015e-10 5.5154419e-05 0)
(2.8047628e-10 5.5154413e-05 0)
(1.4013959e-10 5.5154472e-05 0)
(-6.7911007e-11 5.5154493e-05 0)
(-1.9437433e-10 5.5152944e-05 0)
(-2.2657355e-10 5.5129416e-05 0)
(-2.9979968e-10 5.4835072e-05 0)
(-2.5911335e-10 5.2015881e-05 0)
(-1.0988198e-10 3.3308286e-05 0)
(3.1338486e-10 3.3305496e-05 0)
(9.3579828e-10 5.2011142e-05 0)
(1.676249e-09 5.4830412e-05 0)
(2.2982153e-09 5.5125415e-05 0)
(2.5515313e-09 5.5150003e-05 0)
(2.4311142e-09 5.5152448e-05 0)
(2.1325032e-09 5.5153221e-05 0)
(1.7778624e-09 5.5153649e-05 0)
(1.427224e-09 5.5154045e-05 0)
(1.0630601e-09 5.5154306e-05 0)
(7.6339812e-10 5.5154464e-05 0)
(5.1396161e-10 5.5154445e-05 0)
(3.0981458e-10 5.5154377e-05 0)
(1.6853586e-10 5.5154399e-05 0)
(2.587258e-12 5.5154392e-05 0)
(-8.1724821e-11 5.5152969e-05 0)
(-1.8456874e-10 5.512937e-05 0)
(-2.7208971e-10 5.4835054e-05 0)
(-2.2547066e-10 5.2015879e-05 0)
(-1.0374535e-10 3.3308302e-05 0)
(4.5228437e-10 3.330494e-05 0)
(1.3351329e-09 5.2010155e-05 0)
(2.3869059e-09 5.4829503e-05 0)
(3.2770021e-09 5.5124847e-05 0)
(3.5707203e-09 5.5149907e-05 0)
(3.260252e-09 5.5152692e-05 0)
(2.7241983e-09 5.5153582e-05 0)
(2.2270734e-09 5.5154029e-05 0)
(1.7444376e-09 5.5154381e-05 0)
(1.2510593e-09 5.5154525e-05 0)
(8.4470573e-10 5.5154598e-05 0)
(5.0241926e-10 5.5154523e-05 0)
(3.286715e-10 5.5154426e-05 0)
(2.2346249e-10 5.5154412e-05 0)
(5.5428687e-11 5.5154373e-05 0)
(-9.4890196e-11 5.515294e-05 0)
(-2.3613575e-10 5.512929e-05 0)
(-2.927055e-10 5.483497e-05 0)
(-2.3087438e-10 5.2015754e-05 0)
(-9.3029111e-11 3.3308215e-05 0)
(6.0557827e-10 3.3304223e-05 0)
(1.8605522e-09 5.2008784e-05 0)
(3.4646233e-09 5.4828089e-05 0)
(4.8505291e-09 5.5123972e-05 0)
(5.1254015e-09 5.5150073e-05 0)
(4.3427305e-09 5.5153399e-05 0)
(3.385693e-09 5.5154389e-05 0)
(2.5979714e-09 5.5154773e-05 0)
(1.880032e-09 5.5154876e-05 0)
(1.2413431e-09 5.5154879e-05 0)
(7.7168535e-10 5.5154852e-05 0)
(4.2643271e-10 5.5154739e-05 0)
(2.6721422e-10 5.5154676e-05 0)
(1.5185527e-10 5.5154612e-05 0)
(2.4008745e-11 5.5154496e-05 0)
(-8.5832761e-11 5.5152967e-05 0)
(-2.608447e-10 5.5129297e-05 0)
(-3.7457071e-10 5.4834922e-05 0)
(-3.4366033e-10 5.2015618e-05 0)
(-1.4630451e-10 3.3308013e-05 0)
(6.6706885e-10 3.3303322e-05 0)
(2.257063e-09 5.2007266e-05 0)
(4.694034e-09 5.4826304e-05 0)
(7.0778492e-09 5.5122705e-05 0)
(7.4553186e-09 5.5149969e-05 0)
(5.7928366e-09 5.5153779e-05 0)
(3.9687994e-09 5.5154513e-05 0)
(2.6671105e-09 5.5154481e-05 0)
(1.7787988e-09 5.5154199e-05 0)
(1.135955e-09 5.5154029e-05 0)
(6.4075286e-10 5.5153898e-05 0)
(3.1924658e-10 5.5153838e-05 0)
(1.7770476e-10 5.5153805e-05 0)
(8.5180084e-11 5.5153675e-05 0)
(1.4368909e-11 5.5153492e-05 0)
(-1.362719e-10 5.5151919e-05 0)
(-3.7903364e-10 5.5128295e-05 0)
(-5.9351829e-10 5.4833838e-05 0)
(-7.3797229e-10 5.2014329e-05 0)
(-3.938759e-10 3.3306749e-05 0)
(5.1128298e-10 3.3299609e-05 0)
(2.1507754e-09 5.2003731e-05 0)
(5.3334341e-09 5.4823082e-05 0)
(8.1651968e-09 5.5120387e-05 0)
(8.6999491e-09 5.5151359e-05 0)
(6.6436154e-09 5.5155939e-05 0)
(4.0296691e-09 5.5155805e-05 0)
(2.4164753e-09 5.515492e-05 0)
(1.5335473e-09 5.5154101e-05 0)
(9.990888e-10 5.5153647e-05 0)
(5.9852327e-10 5.5153309e-05 0)
(3.4882649e-10 5.5153257e-05 0)
(1.8665114e-10 5.5153304e-05 0)
(4.0268332e-11 5.5153067e-05 0)
(-1.4534542e-11 5.515285e-05 0)
(-1.2819088e-10 5.5151322e-05 0)
(-4.4067404e-10 5.5127776e-05 0)
(-9.1268032e-10 5.4833256e-05 0)
(-1.4989353e-09 5.2012826e-05 0)
(-8.9938728e-10 3.3303893e-05 0)
(2.7715565e-10 3.3294866e-05 0)
(1.494119e-09 5.1995125e-05 0)
(4.1008902e-09 5.4817548e-05 0)
(6.1944673e-09 5.5118762e-05 0)
(7.0131228e-09 5.515206e-05 0)
(5.4361249e-09 5.5161248e-05 0)
(3.0940381e-09 5.5161127e-05 0)
(1.708251e-09 5.5159077e-05 0)
(1.0445752e-09 5.5157356e-05 0)
(6.1971733e-10 5.5156607e-05 0)
(3.773695e-10 5.5156228e-05 0)
(3.0470661e-10 5.5156198e-05 0)
(2.0845958e-10 5.515687e-05 0)
(4.4760305e-11 5.5156047e-05 0)
(-1.1759863e-11 5.515536e-05 0)
(-5.9098599e-11 5.5153951e-05 0)
(-3.0145421e-10 5.5130583e-05 0)
(-7.5239586e-10 5.483511e-05 0)
(-1.4324619e-09 5.2009867e-05 0)
(-9.0399557e-10 3.3299381e-05 0)
)
;

boundaryField
{
    Wall
    {
        type            fixedValue;
        value           uniform (0 0 0);
    }
    frontAndBack
    {
        type            empty;
    }
    atmosphere
    {
        type            pressureInletOutletVelocity;
        value           nonuniform List<vector> 
20
(
(2.7715565e-10 3.3294866e-05 0)
(1.494119e-09 5.1995125e-05 0)
(4.1008902e-09 5.4817548e-05 0)
(6.1944673e-09 5.5118762e-05 0)
(7.0131228e-09 5.515206e-05 0)
(5.4361249e-09 5.5161248e-05 0)
(3.0940381e-09 5.5161127e-05 0)
(1.708251e-09 5.5159077e-05 0)
(1.0445752e-09 5.5157356e-05 0)
(6.1971733e-10 5.5156607e-05 0)
(3.773695e-10 5.5156228e-05 0)
(3.0470661e-10 5.5156198e-05 0)
(2.0845958e-10 5.515687e-05 0)
(4.4760305e-11 5.5156047e-05 0)
(-1.1759863e-11 5.515536e-05 0)
(-5.9098599e-11 5.5153951e-05 0)
(-3.0145421e-10 5.5130583e-05 0)
(-7.5239586e-10 5.483511e-05 0)
(-1.4324619e-09 5.2009867e-05 0)
(-9.0399557e-10 3.3299381e-05 0)
)
;
    }
}


// ************************************************************************* //
