/*--------------------------------*- C++ -*----------------------------------*\
| =========                 |                                                 |
| \\      /  F ield         | OpenFOAM: The Open Source CFD Toolbox           |
|  \\    /   O peration     | Version:  3.0.1                                 |
|   \\  /    A nd           | Web:      www.OpenFOAM.org                      |
|    \\/     M anipulation  |                                                 |
\*---------------------------------------------------------------------------*/
FoamFile
{
    version     2.0;
    format      ascii;
    class       volScalarField;
    location    "1";
    object      wCO2_l;
}
// * * * * * * * * * * * * * * * * * * * * * * * * * * * * * * * * * * * * * //

dimensions      [0 0 0 0 0 0 0];

internalField   nonuniform List<scalar> 
800
(
0.00051349924
0.00051349921
0.0005134992
0.0005134992
0.0005134992
0.0005134992
0.0005134992
0.0005134992
0.0005134992
0.0005134992
0.0005134992
0.0005134992
0.0005134992
0.0005134992
0.0005134992
0.0005134992
0.0005134992
0.0005134992
0.00051349921
0.00051349924
0.00048788896
0.00048788876
0.00048788875
0.00048788877
0.00048788878
0.00048788878
0.00048788878
0.00048788878
0.00048788879
0.00048788879
0.00048788879
0.00048788879
0.00048788878
0.00048788878
0.00048788878
0.00048788878
0.00048788877
0.00048788875
0.00048788876
0.00048788896
7.502424e-07
7.6778563e-07
7.684662e-07
7.6850071e-07
7.6849848e-07
7.6849484e-07
7.6849198e-07
7.6848977e-07
7.6848855e-07
7.6848797e-07
7.6848808e-07
7.6848846e-07
7.6848994e-07
7.6849193e-07
7.6849461e-07
7.6849841e-07
7.685005e-07
7.6846585e-07
7.677852e-07
7.5024248e-07
1.3223897e-09
1.7323058e-09
1.7734623e-09
1.7752941e-09
1.7745811e-09
1.7740826e-09
1.7737945e-09
1.7736268e-09
1.7735315e-09
1.7734934e-09
1.7734943e-09
1.7735342e-09
1.7736291e-09
1.7737964e-09
1.7740821e-09
1.7745771e-09
1.7752862e-09
1.7734522e-09
1.732291e-09
1.3223793e-09
2.5162564e-12
4.4393064e-12
4.6629314e-12
4.6719528e-12
4.6673166e-12
4.6640927e-12
4.6621907e-12
4.661068e-12
4.660425e-12
4.6601611e-12
4.660167e-12
4.6604403e-12
4.6610801e-12
4.6621998e-12
4.6640888e-12
4.6672878e-12
4.6719061e-12
4.6628699e-12
4.4392161e-12
2.5162014e-12
3.8035702e-15
8.8656837e-15
9.5329481e-15
9.5591732e-15
9.5438524e-15
9.5328404e-15
9.5260921e-15
9.5220138e-15
9.5196565e-15
9.5186252e-15
9.5186507e-15
9.5196842e-15
9.5220612e-15
9.5261323e-15
9.5328306e-15
9.5437548e-15
9.5590166e-15
9.532725e-15
8.8653817e-15
3.8034147e-15
4.4422932e-18
1.3532137e-17
1.4882371e-17
1.4938141e-17
1.4906749e-17
1.4883058e-17
1.4868047e-17
1.485871e-17
1.4853219e-17
1.4850739e-17
1.4850812e-17
1.4853277e-17
1.4858788e-17
1.4868123e-17
1.4883083e-17
1.4906567e-17
1.4937823e-17
1.4881909e-17
1.3531505e-17
4.4420441e-18
4.0933185e-21
1.6211e-20
1.822827e-20
1.8318298e-20
1.8273225e-20
1.8237558e-20
1.8214207e-20
1.8199267e-20
1.819039e-20
1.8186278e-20
1.8186343e-20
1.8190441e-20
1.8199363e-20
1.8214263e-20
1.823756e-20
1.8272996e-20
1.8317851e-20
1.8227602e-20
1.6210148e-20
4.0930521e-21
3.0247047e-24
1.5538363e-23
1.7861004e-23
1.7973247e-23
1.7924819e-23
1.7884739e-23
1.7857747e-23
1.7840101e-23
1.7829441e-23
1.7824464e-23
1.7824512e-23
1.7829504e-23
1.78402e-23
1.7857773e-23
1.7884713e-23
1.7924561e-23
1.7972798e-23
1.7860316e-23
1.55375e-23
3.0245077e-24
1.8121745e-27
1.2066392e-26
1.4178225e-26
1.4288004e-26
1.4247541e-26
1.421262e-26
1.4188558e-26
1.4172593e-26
1.4162806e-26
1.4158171e-26
1.4158213e-26
1.4162779e-26
1.4172587e-26
1.4188487e-26
1.4212504e-26
1.4247274e-26
1.4287663e-26
1.4177722e-26
1.2065802e-26
1.812069e-27
8.8621674e-31
7.648711e-30
9.1870319e-30
9.2722907e-30
9.2453879e-30
9.2212273e-30
9.204315e-30
9.1929327e-30
9.1858834e-30
9.1825398e-30
9.1825478e-30
9.1858222e-30
9.1928702e-30
9.2042026e-30
9.2210837e-30
9.2451392e-30
9.2720267e-30
9.1866842e-30
7.6483641e-30
8.8617336e-31
3.5478906e-34
3.9709621e-33
4.8756466e-33
4.9286435e-33
4.9142538e-33
4.900837e-33
4.8913246e-33
4.8848531e-33
4.8808159e-33
4.8788859e-33
4.878893e-33
4.8807648e-33
4.8847817e-33
4.8912196e-33
4.9007336e-33
4.9140925e-33
4.9284917e-33
4.8754473e-33
3.9707761e-33
3.5477228e-34
1.1619105e-37
1.6876917e-36
2.1183172e-36
2.1448004e-36
2.1385777e-36
2.132553e-36
2.1282403e-36
2.1252841e-36
2.1234308e-36
2.1225405e-36
2.1225399e-36
2.1234009e-36
2.1252418e-36
2.1281785e-36
2.1324882e-36
2.13848e-36
2.1447077e-36
2.1182098e-36
1.6875997e-36
1.1618482e-37
3.0985649e-41
5.8459901e-40
7.50119e-40
7.6074129e-40
7.5856718e-40
7.5638477e-40
7.5480882e-40
7.5372277e-40
7.5303991e-40
7.5270964e-40
7.5270963e-40
7.5302666e-40
7.5370366e-40
7.5478334e-40
7.5635639e-40
7.5852532e-40
7.6069916e-40
7.5007089e-40
5.8455851e-40
3.0983479e-41
6.6679556e-45
1.6356435e-43
2.1456011e-43
2.1795914e-43
2.1734983e-43
2.1671508e-43
2.1625364e-43
2.1593438e-43
2.1573334e-43
2.1563558e-43
2.1563542e-43
2.1572894e-43
2.1592859e-43
2.1624539e-43
2.1670532e-43
2.1733539e-43
2.1794444e-43
2.1454312e-43
1.6355019e-43
6.6673451e-45
1.1407908e-48
3.642053e-47
4.8843732e-47
4.9700426e-47
4.9565215e-47
4.9418919e-47
4.9312029e-47
4.9237876e-47
4.9191118e-47
4.9168311e-47
4.9168342e-47
4.9190108e-47
4.9236535e-47
4.9310092e-47
4.9416518e-47
4.9561593e-47
4.9696645e-47
4.8839363e-47
3.6416807e-47
1.1406647e-48
1.5161175e-52
6.3063602e-51
8.6468508e-51
8.8133002e-51
8.7900653e-51
8.7639442e-51
8.7447864e-51
8.7314557e-51
8.7230264e-51
8.7189433e-51
8.7189393e-51
8.7228626e-51
8.7312135e-51
8.7444061e-51
8.7634842e-51
8.7893745e-51
8.8125772e-51
8.6460176e-51
6.305657e-51
1.5159328e-52
1.509196e-56
8.1877982e-55
1.1478268e-54
1.1718983e-54
1.168917e-54
1.1654284e-54
1.1628613e-54
1.1610723e-54
1.1599416e-54
1.1593925e-54
1.159391e-54
1.1599169e-54
1.1610392e-54
1.1628107e-54
1.165365e-54
1.1688217e-54
1.1718005e-54
1.1477146e-54
8.1868642e-55
1.5090062e-56
1.0590076e-60
7.5018957e-59
1.0752809e-58
1.0996918e-58
1.0970008e-58
1.0937209e-58
1.0913003e-58
1.0896103e-58
1.0885407e-58
1.0880203e-58
1.088018e-58
1.0885138e-58
1.0895766e-58
1.0912512e-58
1.0936599e-58
1.0969133e-58
1.0996013e-58
1.0751758e-58
7.5010127e-59
1.0588701e-60
4.6723514e-65
4.3264989e-63
6.3407836e-63
6.4957329e-63
6.4805104e-63
6.461101e-63
6.4467512e-63
6.4367157e-63
6.4303605e-63
6.427261e-63
6.4272594e-63
6.43019e-63
6.4365056e-63
6.446455e-63
6.4607557e-63
6.4799952e-63
6.4952122e-63
6.340166e-63
4.3259823e-63
4.6717273e-65
9.7511387e-70
1.1815873e-67
1.7706838e-67
1.8170414e-67
1.8129681e-67
1.8075336e-67
1.8035089e-67
1.8006912e-67
1.798907e-67
1.7980353e-67
1.7980337e-67
1.7988591e-67
1.8006344e-67
1.8034291e-67
1.8074414e-67
1.8128246e-67
1.816892e-67
1.7705115e-67
1.181446e-67
9.7498114e-70
2.684e-152
2.684e-152
2.684e-152
2.684e-152
2.684e-152
2.684e-152
2.684e-152
2.684e-152
2.684e-152
2.684e-152
2.684e-152
2.684e-152
2.684e-152
2.684e-152
2.684e-152
2.684e-152
4.2896754e-78
2.1233731e-77
2.684e-152
5.6139461e-82
2.684e-152
2.684e-152
2.684e-152
2.684e-152
2.684e-152
2.684e-152
2.684e-152
2.684e-152
2.684e-152
2.684e-152
2.684e-152
2.684e-152
2.684e-152
2.684e-152
2.684e-152
2.684e-152
2.684e-152
2.684e-152
2.684e-152
2.684e-152
2.684e-152
2.684e-152
2.684e-152
2.684e-152
2.684e-152
2.684e-152
2.684e-152
2.684e-152
2.684e-152
2.684e-152
2.684e-152
2.684e-152
2.684e-152
2.684e-152
2.684e-152
2.684e-152
2.684e-152
2.684e-152
2.684e-152
2.684e-152
2.684e-152
2.684e-152
2.684e-152
2.684e-152
2.684e-152
2.684e-152
2.684e-152
2.684e-152
2.684e-152
2.684e-152
2.684e-152
2.684e-152
2.684e-152
2.684e-152
2.684e-152
2.684e-152
2.684e-152
2.684e-152
2.684e-152
2.684e-152
2.684e-152
2.684e-152
2.684e-152
2.684e-152
2.684e-152
2.684e-152
2.684e-152
2.684e-152
2.684e-152
2.684e-152
2.684e-152
2.684e-152
2.684e-152
2.684e-152
2.684e-152
2.684e-152
2.684e-152
2.684e-152
2.684e-152
2.684e-152
2.684e-152
2.684e-152
2.684e-152
2.684e-152
2.684e-152
2.684e-152
2.684e-152
2.684e-152
2.684e-152
2.684e-152
2.684e-152
2.684e-152
2.684e-152
2.684e-152
2.684e-152
2.684e-152
2.684e-152
2.684e-152
2.684e-152
2.684e-152
2.684e-152
2.684e-152
2.684e-152
2.684e-152
2.684e-152
2.684e-152
2.684e-152
2.684e-152
2.684e-152
2.684e-152
2.684e-152
2.684e-152
2.684e-152
2.684e-152
2.684e-152
2.684e-152
2.684e-152
2.684e-152
2.684e-152
2.684e-152
2.684e-152
2.684e-152
2.684e-152
2.684e-152
2.684e-152
2.684e-152
2.684e-152
2.684e-152
2.684e-152
2.684e-152
2.684e-152
2.684e-152
2.684e-152
2.684e-152
2.684e-152
2.684e-152
2.684e-152
2.684e-152
2.684e-152
2.684e-152
2.684e-152
2.684e-152
2.684e-152
2.684e-152
2.684e-152
2.684e-152
2.684e-152
2.684e-152
2.684e-152
2.684e-152
2.684e-152
2.684e-152
2.684e-152
2.684e-152
2.684e-152
2.684e-152
2.684e-152
2.684e-152
2.684e-152
2.684e-152
2.684e-152
2.684e-152
2.684e-152
2.684e-152
2.684e-152
2.684e-152
2.684e-152
2.684e-152
2.684e-152
2.684e-152
2.684e-152
2.684e-152
2.684e-152
2.684e-152
2.684e-152
2.684e-152
2.684e-152
2.684e-152
2.684e-152
2.684e-152
2.684e-152
2.684e-152
2.684e-152
2.684e-152
2.684e-152
2.684e-152
2.684e-152
2.684e-152
2.684e-152
2.684e-152
2.684e-152
2.684e-152
2.684e-152
2.684e-152
2.684e-152
2.684e-152
2.684e-152
2.684e-152
2.684e-152
2.684e-152
2.684e-152
2.684e-152
2.684e-152
2.684e-152
2.684e-152
2.684e-152
2.684e-152
2.684e-152
2.684e-152
2.684e-152
2.684e-152
2.684e-152
2.684e-152
2.684e-152
2.684e-152
2.684e-152
2.684e-152
2.684e-152
2.684e-152
2.684e-152
2.684e-152
2.684e-152
2.684e-152
2.684e-152
2.684e-152
2.684e-152
2.684e-152
2.684e-152
2.684e-152
2.684e-152
2.684e-152
2.684e-152
2.684e-152
2.684e-152
2.684e-152
2.684e-152
2.684e-152
2.684e-152
2.684e-152
2.684e-152
2.684e-152
2.684e-152
2.684e-152
2.684e-152
2.684e-152
2.684e-152
2.684e-152
2.684e-152
2.684e-152
2.684e-152
2.684e-152
2.684e-152
2.684e-152
2.684e-152
2.684e-152
2.684e-152
2.684e-152
2.684e-152
2.684e-152
2.684e-152
2.684e-152
2.684e-152
2.684e-152
2.684e-152
2.684e-152
2.684e-152
2.684e-152
2.684e-152
2.684e-152
2.684e-152
2.684e-152
2.684e-152
2.684e-152
2.684e-152
2.684e-152
2.684e-152
2.684e-152
2.684e-152
2.684e-152
2.684e-152
2.684e-152
2.684e-152
2.684e-152
2.684e-152
2.684e-152
2.684e-152
2.684e-152
2.684e-152
2.684e-152
2.684e-152
2.684e-152
2.684e-152
2.684e-152
2.684e-152
2.684e-152
2.684e-152
2.684e-152
2.684e-152
2.684e-152
2.684e-152
2.684e-152
2.684e-152
2.684e-152
2.684e-152
2.684e-152
2.684e-152
2.684e-152
2.684e-152
2.684e-152
2.684e-152
2.684e-152
2.684e-152
2.684e-152
2.684e-152
2.684e-152
2.684e-152
2.684e-152
2.684e-152
2.684e-152
2.684e-152
2.6840001e-152
2.6840001e-152
2.684e-152
2.684e-152
2.684e-152
2.684e-152
2.684e-152
2.684e-152
2.684e-152
2.684e-152
2.684e-152
2.684e-152
2.684e-152
2.684e-152
2.684e-152
2.684e-152
2.684e-152
2.684e-152
2.6840001e-152
2.6840001e-152
2.684e-152
2.684e-152
2.684e-152
2.684e-152
2.684e-152
2.684e-152
2.684e-152
2.684e-152
2.684e-152
2.684e-152
2.684e-152
2.684e-152
2.684e-152
2.684e-152
2.684e-152
2.684e-152
2.684e-152
2.684e-152
2.684e-152
2.684e-152
)
;

boundaryField
{
    Wall
    {
        type            zeroGradient;
    }
    frontAndBack
    {
        type            empty;
    }
    atmosphere
    {
        type            zeroGradient;
    }
}


// ************************************************************************* //
