/*--------------------------------*- C++ -*----------------------------------*\
| =========                 |                                                 |
| \\      /  F ield         | OpenFOAM: The Open Source CFD Toolbox           |
|  \\    /   O peration     | Version:  3.0.1                                 |
|   \\  /    A nd           | Web:      www.OpenFOAM.org                      |
|    \\/     M anipulation  |                                                 |
\*---------------------------------------------------------------------------*/
FoamFile
{
    version     2.0;
    format      ascii;
    class       volScalarField;
    location    "34";
    object      alpha.gas;
}
// * * * * * * * * * * * * * * * * * * * * * * * * * * * * * * * * * * * * * //

dimensions      [0 0 0 0 0 0 0];

internalField   nonuniform List<scalar> 
800
(
2.0224257e-28
2.2382213e-25
4.2841669e-22
8.4691164e-22
2.5411573e-23
1.0401896e-21
9.2558084e-22
6.5524254e-23
5.8010964e-25
2.1665378e-27
3.0235073e-23
2.923941e-23
1.0131149e-24
6.8492433e-23
6.6183403e-23
1.5193274e-27
5.266036e-32
2.2784981e-35
4.489217e-39
8.3811141e-43
1.2477039e-12
2.914974e-13
1.9676745e-11
7.4687465e-12
4.4087854e-13
9.2910057e-12
7.474595e-12
8.9456741e-12
1.815121e-11
4.5651073e-11
2.2988346e-11
2.2809274e-11
1.2324112e-11
7.3312061e-12
6.8256748e-12
1.3215023e-12
1.7348087e-15
1.0943644e-13
3.8489521e-12
5.43816e-15
1.1646542e-08
1.1014807e-08
1.0649688e-08
1.0605107e-08
1.0542797e-08
1.0542097e-08
1.0547481e-08
1.0558541e-08
1.0574128e-08
1.0601996e-08
1.0582291e-08
1.0578199e-08
1.0561513e-08
1.0547402e-08
1.0540018e-08
1.0543641e-08
1.0598717e-08
1.0632903e-08
1.1018041e-08
1.1645731e-08
2.5794317e-08
2.275734e-08
2.1560628e-08
2.1148513e-08
2.0989942e-08
2.0952656e-08
2.0950808e-08
2.096316e-08
2.0979527e-08
2.1001145e-08
2.0988574e-08
2.0982156e-08
2.096511e-08
2.0950827e-08
2.0951427e-08
2.0990605e-08
2.1144561e-08
2.155007e-08
2.2759771e-08
2.5794143e-08
7.0403784e-08
6.1481658e-08
5.7819384e-08
5.6581563e-08
5.6152754e-08
5.6036523e-08
5.6027868e-08
5.6055838e-08
5.6088652e-08
5.6118474e-08
5.6107219e-08
5.6091089e-08
5.605773e-08
5.6028063e-08
5.6035666e-08
5.6153692e-08
5.6578349e-08
5.7810255e-08
6.1484705e-08
7.0404463e-08
1.4831906e-07
1.3001845e-07
1.2179065e-07
1.1924078e-07
1.1837602e-07
1.1814453e-07
1.1813483e-07
1.181951e-07
1.1825976e-07
1.1830789e-07
1.1829618e-07
1.1826241e-07
1.1819729e-07
1.1813531e-07
1.1814401e-07
1.1837748e-07
1.1923793e-07
1.2178179e-07
1.300228e-07
1.4832095e-07
2.6584317e-07
2.3389509e-07
2.1799903e-07
2.1336495e-07
2.1187542e-07
2.1148907e-07
2.1148616e-07
2.1159772e-07
2.1171088e-07
2.1178619e-07
2.1177414e-07
2.1171379e-07
2.1160027e-07
2.1148705e-07
2.1148905e-07
2.1187759e-07
2.1336273e-07
2.1799088e-07
2.3390113e-07
2.6584668e-07
4.3114985e-07
3.807875e-07
3.5286367e-07
3.4487505e-07
3.4253546e-07
3.4195484e-07
3.4197123e-07
3.4215769e-07
3.4233956e-07
3.4245248e-07
3.4244041e-07
3.4234271e-07
3.4216067e-07
3.4197267e-07
3.4195554e-07
3.4253852e-07
3.4487376e-07
3.5285686e-07
3.8079558e-07
4.3115532e-07
6.5237485e-07
5.7957243e-07
5.3334966e-07
5.1983857e-07
5.1640415e-07
5.1559912e-07
5.1565437e-07
5.1594639e-07
5.1622259e-07
5.16386e-07
5.1637406e-07
5.1622603e-07
5.1594987e-07
5.1565652e-07
5.1560071e-07
5.1640831e-07
5.1983849e-07
5.3334467e-07
5.7958296e-07
6.5238256e-07
9.3879281e-07
8.3964316e-07
7.6526975e-07
7.4424948e-07
7.3949569e-07
7.3841006e-07
7.3852982e-07
7.3897696e-07
7.3937044e-07
7.3959464e-07
7.3958287e-07
7.3937423e-07
7.3898101e-07
7.3853282e-07
7.3841279e-07
7.3950117e-07
7.4425085e-07
7.6526676e-07
8.3965642e-07
9.3880297e-07
1.2949202e-06
1.1545831e-06
1.0518014e-06
1.0232593e-06
1.0159691e-06
1.0147304e-06
1.0152763e-06
1.0158639e-06
1.016263e-06
1.0165927e-06
1.0165812e-06
1.0162673e-06
1.0158688e-06
1.0152793e-06
1.0147339e-06
1.015976e-06
1.023262e-06
1.0518006e-06
1.1545979e-06
1.2949325e-06
1.7135191e-06
1.5290705e-06
1.4249791e-06
1.3652341e-06
1.3498126e-06
1.3502558e-06
1.3494915e-06
1.3478716e-06
1.349222e-06
1.3504544e-06
1.3504429e-06
1.3492285e-06
1.3478902e-06
1.3495055e-06
1.350259e-06
1.349822e-06
1.365238e-06
1.4249816e-06
1.5290874e-06
1.7135333e-06
2.2091547e-06
2.075753e-06
1.9308825e-06
1.7551692e-06
1.7388669e-06
1.7304752e-06
1.7091694e-06
1.7239635e-06
1.7537848e-06
1.7444646e-06
1.7444555e-06
1.753689e-06
1.7238893e-06
1.7093008e-06
1.7305113e-06
1.7388812e-06
1.7551825e-06
1.9308899e-06
2.0757776e-06
2.2091715e-06
2.8190464e-06
2.8372598e-06
2.3597972e-06
2.2017849e-06
2.293112e-06
2.1681718e-06
2.3642696e-06
2.5674939e-06
2.3169258e-06
2.1980984e-06
2.1980898e-06
2.3172813e-06
2.5653209e-06
2.361749e-06
2.1677932e-06
2.2930799e-06
2.2017966e-06
2.3598152e-06
2.837285e-06
2.819064e-06
3.5301889e-06
3.0719635e-06
2.7471177e-06
2.8188072e-06
2.7598336e-06
4.423509e-06
4.9916937e-06
4.0734055e-06
2.7186515e-06
2.7139124e-06
2.7138995e-06
2.719219e-06
4.0760581e-06
4.9810483e-06
4.4229242e-06
2.7599434e-06
2.8187397e-06
2.7471225e-06
3.071976e-06
3.5302081e-06
4.5216836e-06
3.6013473e-06
3.2854419e-06
3.3274005e-06
3.9531401e-06
7.2761002e-06
7.0054018e-06
3.8454718e-06
3.1998229e-06
3.2874511e-06
3.2874389e-06
3.1991158e-06
3.8493407e-06
7.0123017e-06
7.2785282e-06
3.9526825e-06
3.3273725e-06
3.285466e-06
3.6013716e-06
4.521741e-06
5.7075758e-06
8.9332814e-06
4.876788e-06
4.7291683e-06
9.467526e-06
8.0498349e-06
4.2563612e-06
3.7288976e-06
3.9866062e-06
3.9143709e-06
3.91436e-06
3.9877382e-06
3.7300489e-06
4.274784e-06
8.0575023e-06
9.4665927e-06
4.7288833e-06
4.8767912e-06
8.9336364e-06
5.7076448e-06
1.1846466e-05
3.1886956e-05
2.3057569e-05
2.3242754e-05
2.3168385e-05
8.3900743e-06
4.3744978e-06
3.7279905e-06
4.5658583e-06
4.5905201e-06
4.5905254e-06
4.5697228e-06
3.72903e-06
4.3887397e-06
8.379813e-06
2.3168238e-05
2.3240024e-05
2.3057236e-05
3.1887345e-05
1.1846497e-05
3.2832715e-05
3.3077732e-05
3.3077922e-05
3.3077769e-05
1.832884e-05
1.4092159e-05
7.1691468e-06
4.7004832e-06
5.2118095e-06
5.2945933e-06
5.2946722e-06
5.2077394e-06
4.666021e-06
7.1238281e-06
1.406724e-05
1.8316918e-05
3.3077942e-05
3.3078096e-05
3.3077905e-05
3.2832875e-05
3.3077861e-05
3.3077864e-05
3.3077726e-05
2.641025e-05
8.298927e-06
8.4247647e-06
6.7232404e-06
6.649302e-06
5.9391876e-06
6.0267437e-06
6.0262049e-06
5.9370887e-06
6.6375862e-06
6.7161212e-06
8.4564864e-06
8.296802e-06
2.6397995e-05
3.30779e-05
3.3078037e-05
3.3078034e-05
3.307786e-05
3.3077765e-05
3.3077604e-05
9.3348822e-06
6.8622279e-06
6.8174977e-06
6.7738154e-06
6.7233126e-06
1.2885719e-05
1.0486401e-05
1.0461326e-05
1.2892441e-05
6.7161958e-06
6.7711384e-06
6.8183393e-06
6.8658527e-06
9.338796e-06
3.3077777e-05
3.3077939e-05
3.3078034e-05
3.3077699e-05
3.3077606e-05
2.3226152e-05
6.9583041e-06
6.9088333e-06
6.8622415e-06
8.4470668e-06
9.4898548e-06
1.3475878e-05
1.3463076e-05
1.3475896e-05
1.3463057e-05
9.5456855e-06
8.4654989e-06
6.8658678e-06
6.9152166e-06
6.9667994e-06
2.3234231e-05
3.307778e-05
3.3077873e-05
3.3077552e-05
3.3077449e-05
1.069773e-05
7.4344529e-06
1.5611922e-05
1.6771707e-05
1.8733216e-05
1.8731952e-05
1.1346115e-05
1.1431759e-05
1.1420736e-05
1.1361556e-05
1.873968e-05
1.8740992e-05
1.6746452e-05
1.5612852e-05
7.4405355e-06
1.0689177e-05
3.3077622e-05
3.3077726e-05
3.3077407e-05
3.2025622e-05
1.6557999e-05
1.7186403e-05
1.8731577e-05
1.8732924e-05
1.8731812e-05
1.8733038e-05
1.071814e-05
1.0593899e-05
1.0594557e-05
1.0686479e-05
1.8740815e-05
1.8739541e-05
1.8740702e-05
1.8739307e-05
1.7186196e-05
1.655941e-05
3.2024004e-05
3.3077581e-05
1.8174844e-05
1.2326414e-05
1.900405e-05
1.1283649e-05
1.8732689e-05
1.8731544e-05
1.8732909e-05
1.8731655e-05
1.8732817e-05
1.0594551e-05
1.0593893e-05
1.8740596e-05
1.8739383e-05
1.8740687e-05
1.8739273e-05
1.8740467e-05
1.1283953e-05
1.9001e-05
1.2325797e-05
1.8177079e-05
1.1284447e-05
1.1283555e-05
1.8974104e-05
1.1281828e-05
1.8731325e-05
1.8732663e-05
1.8731536e-05
1.873277e-05
1.7428935e-05
1.3400312e-05
1.3441421e-05
1.7457923e-05
1.8740548e-05
1.8739265e-05
1.874044e-05
1.8739055e-05
1.1282132e-05
1.8971815e-05
1.1283859e-05
1.1284751e-05
1.1283544e-05
1.1282687e-05
1.4981486e-05
1.1280966e-05
1.2068238e-05
1.4560832e-05
1.6472641e-05
1.2362977e-05
1.1285322e-05
1.521507e-05
1.5216497e-05
1.1285625e-05
1.232757e-05
1.6459369e-05
1.4566693e-05
1.2043142e-05
1.1281269e-05
1.4984319e-05
1.128299e-05
1.1283848e-05
1.1282686e-05
1.1281832e-05
1.1280968e-05
1.128006e-05
1.1280926e-05
1.1281748e-05
1.1282669e-05
1.1283524e-05
1.1284367e-05
1.4148691e-05
1.4139129e-05
1.128467e-05
1.1283826e-05
1.1282972e-05
1.1282051e-05
1.1281229e-05
1.1280363e-05
1.1281272e-05
1.1282135e-05
1.128299e-05
1.1282619e-05
1.1281662e-05
1.128071e-05
1.1279765e-05
1.1280435e-05
1.1281302e-05
1.1282243e-05
1.1283176e-05
1.1284119e-05
1.1285116e-05
1.1285419e-05
1.1284422e-05
1.1283479e-05
1.1282547e-05
1.1281605e-05
1.1280738e-05
1.1280068e-05
1.1281013e-05
1.1281965e-05
1.1282923e-05
1.1283332e-05
1.1282308e-05
1.1281285e-05
1.1280264e-05
1.1280825e-05
1.1281656e-05
1.1282618e-05
1.1283587e-05
1.1284585e-05
1.1285611e-05
1.1285915e-05
1.1284889e-05
1.128389e-05
1.1282921e-05
1.128196e-05
1.1281129e-05
1.1280568e-05
1.1281589e-05
1.1282612e-05
1.1283635e-05
4.6167679e-05
1.4351448e-05
1.1282305e-05
1.128127e-05
1.1281795e-05
1.1282606e-05
1.1283566e-05
1.1284539e-05
1.1285554e-05
1.1286591e-05
1.1286895e-05
1.1285858e-05
1.1284843e-05
1.128387e-05
1.128291e-05
1.1282098e-05
1.1281574e-05
1.1282608e-05
1.4350666e-05
4.6161222e-05
0.00072622316
0.00014426015
3.7152828e-05
2.3558968e-05
1.9442527e-05
1.7991774e-05
1.7468882e-05
1.7369518e-05
1.7526238e-05
1.8218711e-05
1.821703e-05
1.7525321e-05
1.7369305e-05
1.7468668e-05
1.7991528e-05
1.9442242e-05
2.3558239e-05
3.7150507e-05
0.00014424188
0.0007261055
0.025266953
0.0028101735
0.00062007566
0.00033480632
0.00024895368
0.00021829814
0.00020535623
0.00019910885
0.00019554321
0.00019546489
0.0001954596
0.00019553786
0.00019910471
0.00020535117
0.00021829165
0.0002489449
0.00033478933
0.00062002762
0.0028098031
0.025261637
0.46542917
0.099859041
0.022662075
0.010960566
0.0074192689
0.0061733809
0.0056296917
0.0053689505
0.0051894092
0.0051100252
0.005109999
0.0051893451
0.0053688159
0.0056295206
0.0061731368
0.0074189079
0.010959834
0.022660095
0.099846757
0.46539188
0.93945023
0.70523668
0.4586457
0.34570961
0.28668552
0.25877084
0.24558656
0.23899999
0.23425579
0.23189623
0.23189561
0.23425403
0.23899656
0.2455823
0.25876509
0.286678
0.34569921
0.45863086
0.70521814
0.93944012
0.99914107
0.98279217
0.93971048
0.9022902
0.87571252
0.86096716
0.85356491
0.84974682
0.84693422
0.84549807
0.84549769
0.84693313
0.8497448
0.85356246
0.86096399
0.87570874
0.90228599
0.93970643
0.98279018
0.99914083
0.99999922
0.99988663
0.99914259
0.99799545
0.9968653
0.99612767
0.99573265
0.99552455
0.99536563
0.99528191
0.99528189
0.99536557
0.99552443
0.99573252
0.9961275
0.99686512
0.99799529
0.99914249
0.99988661
0.99999922
1
0.99999996
0.99999902
0.99999655
0.99999316
0.99999057
0.99998911
0.99998834
0.99998772
0.99998739
0.99998739
0.99998772
0.99998834
0.9999891
0.99999057
0.99999316
0.99999655
0.99999902
0.99999996
1
1
1
1
1
1
1
1
1
1
1
1
1
1
1
1
1
1
1
1
1
1
1
1
1
1
1
1
1
1
1
1
1
1
1
1
1
1
1
1
1
)
;

boundaryField
{
    Wall
    {
        type            zeroGradient;
    }
    frontAndBack
    {
        type            empty;
    }
    atmosphere
    {
        type            zeroGradient;
    }
}


// ************************************************************************* //
