/*--------------------------------*- C++ -*----------------------------------*\
| =========                 |                                                 |
| \\      /  F ield         | OpenFOAM: The Open Source CFD Toolbox           |
|  \\    /   O peration     | Version:  3.0.1                                 |
|   \\  /    A nd           | Web:      www.OpenFOAM.org                      |
|    \\/     M anipulation  |                                                 |
\*---------------------------------------------------------------------------*/
FoamFile
{
    version     2.0;
    format      ascii;
    class       volScalarField;
    location    "34";
    object      g1_BA;
}
// * * * * * * * * * * * * * * * * * * * * * * * * * * * * * * * * * * * * * //

dimensions      [0 0 0 0 0 0 0];

internalField   nonuniform List<scalar> 
800
(
0.52294023
0.52292894
0.52290314
0.52289172
0.52288676
0.52288429
0.52288288
0.52288206
0.52288162
0.52288143
0.52288143
0.52288162
0.52288207
0.52288288
0.52288429
0.52288676
0.52289172
0.52290314
0.52292895
0.52294023
0.53080674
0.53053254
0.53044696
0.53042262
0.53041694
0.53041598
0.53041587
0.53041579
0.53041566
0.53041558
0.53041557
0.53041566
0.53041579
0.53041588
0.53041598
0.53041695
0.53042263
0.53044697
0.53053256
0.53080676
0.53241397
0.53210611
0.53202266
0.53200504
0.5320025
0.53200217
0.53200156
0.5320007
0.53199992
0.53199949
0.53199949
0.53199992
0.5320007
0.53200156
0.53200217
0.5320025
0.53200504
0.53202266
0.53210612
0.53241398
0.52947835
0.52931976
0.52930163
0.52931433
0.52932363
0.52932656
0.52932577
0.52932374
0.52932185
0.5293208
0.5293208
0.52932185
0.52932373
0.52932576
0.52932655
0.52932362
0.52931431
0.52930161
0.52931974
0.52947832
0.52265576
0.52280004
0.52289315
0.52295298
0.52298089
0.52298951
0.52298921
0.52298604
0.52298288
0.52298109
0.52298108
0.52298287
0.52298602
0.52298919
0.52298948
0.52298085
0.52295293
0.5228931
0.52279998
0.52265568
0.51245232
0.51301778
0.51325591
0.51337472
0.51342584
0.51344182
0.51344259
0.51343844
0.51343403
0.51343148
0.51343148
0.51343401
0.51343841
0.51344255
0.51344177
0.51342578
0.51337465
0.51325582
0.51301768
0.51245218
0.49939602
0.50047039
0.50087579
0.50106028
0.50113642
0.50116025
0.50116218
0.50115702
0.5011513
0.50114799
0.50114798
0.50115128
0.50115698
0.50116212
0.50116018
0.50113633
0.50106018
0.50087567
0.50047025
0.49939584
0.48404787
0.48568668
0.48627211
0.4865251
0.486626
0.48665712
0.48665984
0.48665347
0.48664633
0.4866422
0.48664219
0.4866463
0.48665342
0.48665977
0.48665703
0.48662589
0.48652497
0.48627196
0.4856865
0.48404765
0.46674145
0.46903965
0.4698254
0.47014901
0.47027491
0.47031303
0.47031625
0.47030846
0.47029978
0.47029476
0.47029475
0.47029974
0.4703084
0.47031616
0.47031292
0.47027477
0.47014885
0.46982522
0.46903945
0.4667412
0.4477404
0.45074216
0.45174213
0.45213518
0.45228382
0.45232779
0.452331
0.45232155
0.45231119
0.45230524
0.45230522
0.45231115
0.45232148
0.4523309
0.45232767
0.45228366
0.452135
0.45174193
0.45074194
0.44774013
0.42713438
0.43089705
0.4321457
0.43261063
0.43277983
0.43282955
0.4328341
0.43282404
0.43281258
0.432806
0.43280598
0.43281254
0.43282395
0.43283398
0.43282941
0.43277966
0.43261044
0.43214548
0.43089682
0.42713411
0.4077845
0.40972525
0.4112414
0.41177338
0.41195082
0.41199994
0.41200539
0.41199458
0.41198182
0.41197451
0.41197449
0.41198177
0.4119945
0.41200527
0.41199979
0.41195065
0.41177318
0.41124118
0.40972501
0.40778424
0.38691889
0.39184868
0.39345444
0.39403936
0.39423984
0.39429308
0.39429314
0.39427831
0.39426291
0.39425418
0.39425416
0.39426285
0.39427822
0.39429302
0.39429294
0.39423967
0.39403917
0.39345422
0.39184845
0.38691864
0.36595077
0.37152701
0.37335371
0.37400051
0.37421369
0.37426699
0.37426593
0.37424901
0.37423174
0.37422192
0.3742219
0.37423169
0.37424892
0.37426581
0.37426684
0.37421352
0.37400032
0.3733535
0.37152678
0.36595053
0.34521359
0.35141773
0.35347473
0.35418285
0.35440729
0.35445945
0.35445622
0.35443664
0.3544172
0.35440614
0.35440612
0.35441715
0.35443656
0.35445611
0.35445931
0.35440712
0.35418267
0.35347453
0.35141753
0.34521336
0.32458989
0.33141394
0.33370945
0.33448994
0.33473035
0.33478431
0.33477971
0.33475891
0.33473845
0.33472667
0.33472665
0.3347384
0.33475882
0.33477959
0.33478417
0.3347302
0.33448977
0.33370926
0.33141375
0.32458969
0.30448267
0.31191841
0.31446126
0.31531579
0.31557265
0.31562601
0.31561639
0.31559242
0.31556997
0.31555697
0.31555695
0.31556992
0.31559234
0.31561629
0.31562589
0.31557251
0.31531563
0.31446109
0.31191823
0.30448249
0.28490186
0.29293649
0.29574394
0.29668414
0.29696282
0.29701581
0.29700026
0.29697284
0.29694871
0.29693451
0.29693449
0.29694866
0.29697277
0.29700017
0.29701569
0.29696268
0.29668399
0.29574379
0.29293633
0.2849017
0.26592317
0.27454444
0.27763926
0.27868006
0.27898642
0.27903908
0.27901636
0.2789844
0.27895852
0.27894293
0.27894291
0.27895848
0.27898433
0.27901627
0.27903897
0.2789863
0.27867993
0.27763911
0.27454431
0.26592304
0.24757754
0.25677675
0.26018877
0.26135021
0.26169194
0.26174502
0.26171391
0.26167587
0.26164804
0.26163072
0.2616307
0.261648
0.26167581
0.26171383
0.26174493
0.26169183
0.2613501
0.26018865
0.25677663
0.24757743
0.22986199
0.23963638
0.24340308
0.24471118
0.24509879
0.24515401
0.24511316
0.24506693
0.24503652
0.24501699
0.24501698
0.24503649
0.24506687
0.24511309
0.24515393
0.2450987
0.24471109
0.24340298
0.23963628
0.22986191
0.21275845
0.22311205
0.22728018
0.22876857
0.2292172
0.22927829
0.22922682
0.2291703
0.22913649
0.22911426
0.22911425
0.22913646
0.22917024
0.22922675
0.22927821
0.2292171
0.22876847
0.22728007
0.22311195
0.21275837
0.1961826
0.20712331
0.21175076
0.21346079
0.21399039
0.21406252
0.21399905
0.21392901
0.21388992
0.21386404
0.21386403
0.2138899
0.21392896
0.213999
0.21406247
0.21399034
0.21346075
0.21175071
0.20712329
0.1961826
0.18006162
0.19160737
0.19675624
0.19873919
0.19937641
0.19946858
0.19939344
0.19930738
0.19926093
0.19923052
0.19923051
0.1992609
0.19930733
0.19939339
0.19946853
0.19937636
0.19873915
0.1967562
0.19160735
0.18006163
0.16432073
0.17649303
0.18223907
0.1845573
0.18533705
0.18546203
0.1853761
0.18527072
0.18521382
0.18517738
0.18517737
0.18521379
0.18527068
0.18537606
0.185462
0.18533702
0.18455728
0.18223905
0.17649304
0.16432077
0.1488429
0.16166692
0.16809571
0.1708239
0.17179145
0.17196757
0.17187346
0.17174543
0.17167427
0.1716298
0.17162979
0.17167425
0.17174539
0.17187343
0.17196754
0.17179143
0.1708239
0.16809572
0.16166696
0.14884299
0.13350914
0.14701035
0.15421798
0.15744553
0.15865907
0.15891226
0.15881533
0.15866135
0.15857123
0.15851601
0.158516
0.15857121
0.15866132
0.15881531
0.15891224
0.15865906
0.15744555
0.15421801
0.14701044
0.13350928
0.11819157
0.13238869
0.1404802
0.14431435
0.14584878
0.14621536
0.14612531
0.14594241
0.14582764
0.14575804
0.14575803
0.14582763
0.14594239
0.14612529
0.14621536
0.14584879
0.14431438
0.14048026
0.13238883
0.11819177
0.1027611
0.11765216
0.12673729
0.13130597
0.13325651
0.13378952
0.13372284
0.13350903
0.13336278
0.13327399
0.13327398
0.13336277
0.13350901
0.13372284
0.13378953
0.13325653
0.13130602
0.12673739
0.11765236
0.10276137
0.087104127
0.1026383
0.11282138
0.11827737
0.12076631
0.12153873
0.12152525
0.12128078
0.12109493
0.12098077
0.12098076
0.12109492
0.12128076
0.12152525
0.12153874
0.12076634
0.11827744
0.11282151
0.10263856
0.087104484
0.071156761
0.087183612
0.098542046
0.10506062
0.10825087
0.10936502
0.10944544
0.10918009
0.10894545
0.10879792
0.10879791
0.10894544
0.10918008
0.10944544
0.10936504
0.10825092
0.10506071
0.098542219
0.087183942
0.071157223
0.054955038
0.071159831
0.083708069
0.09147551
0.095569031
0.09717329
0.097413377
0.097139563
0.096846602
0.096655361
0.096655354
0.096846595
0.097139555
0.097413389
0.097173316
0.095569088
0.091475623
0.083708286
0.07116023
0.05495561
0.038453597
0.054490789
0.068131038
0.077321686
0.082565792
0.084870068
0.085382322
0.085114762
0.084754419
0.084505942
0.084505937
0.084754418
0.085114763
0.085382345
0.084870109
0.082565868
0.077321829
0.068131307
0.054491268
0.038454283
0.022518317
0.036632494
0.051135703
0.062010529
0.068773762
0.072078317
0.073044883
0.072866028
0.072437252
0.072117239
0.072117236
0.072437256
0.072866042
0.073044918
0.072078375
0.068773863
0.062010718
0.051136037
0.036633012
0.022518987
0
0
0.032807109
0.044779281
0.053016333
0.057712958
0.059442497
0.059495099
0.05902823
0.058631435
0.058631434
0.059028237
0.059495121
0.059442533
0.057713022
0.053016443
0.044779492
0.032807451
0
0
0
0
0
0
0
0
0
0
0
0
0
0
0
0
0
0
0
0
0
0
0
0
0
0
0
0
0
0
0
0
0
0
0
0
0
0
0
0
0
0
0
0
0
0
0
0
0
0
0
0
0
0
0
0
0
0
0
0
0
0
0
0
0
0
0
0
0
0
0
0
0
0
0
0
0
0
0
0
0
0
0
0
0
0
0
0
0
0
0
0
0
0
0
0
0
0
0
0
0
0
)
;

boundaryField
{
    Wall
    {
        type            zeroGradient;
    }
    frontAndBack
    {
        type            empty;
    }
    atmosphere
    {
        type            zeroGradient;
    }
}


// ************************************************************************* //
