/*--------------------------------*- C++ -*----------------------------------*\
| =========                 |                                                 |
| \\      /  F ield         | OpenFOAM: The Open Source CFD Toolbox           |
|  \\    /   O peration     | Version:  3.0.1                                 |
|   \\  /    A nd           | Web:      www.OpenFOAM.org                      |
|    \\/     M anipulation  |                                                 |
\*---------------------------------------------------------------------------*/
FoamFile
{
    version     2.0;
    format      ascii;
    class       volScalarField;
    location    "34";
    object      g1_CO2;
}
// * * * * * * * * * * * * * * * * * * * * * * * * * * * * * * * * * * * * * //

dimensions      [0 0 0 0 0 0 0];

internalField   nonuniform List<scalar> 
800
(
0.46305404
0.463108
0.46310402
0.46309747
0.46309359
0.46309151
0.46309041
0.46308986
0.46308962
0.46308953
0.46308953
0.46308962
0.46308986
0.46309041
0.46309151
0.46309359
0.46309748
0.46310402
0.46310801
0.46305404
0.48008808
0.47979364
0.4797621
0.47976826
0.47977671
0.47978101
0.47978198
0.47978136
0.4797804
0.47977978
0.47977978
0.4797804
0.47978135
0.47978198
0.47978101
0.4797767
0.47976826
0.4797621
0.47979363
0.48008807
0.4946978
0.49419134
0.49411587
0.49412174
0.49413334
0.49413915
0.49414007
0.49413873
0.49413702
0.49413593
0.49413593
0.49413701
0.49413873
0.49414007
0.49413915
0.49413334
0.49412173
0.49411586
0.49419133
0.49469778
0.50894549
0.50819146
0.50807673
0.50808323
0.50809743
0.50810461
0.50810556
0.50810374
0.50810148
0.50810007
0.50810007
0.50810148
0.50810374
0.50810556
0.50810461
0.50809742
0.50808321
0.50807672
0.50819143
0.50894545
0.52316398
0.52211341
0.52194861
0.52195172
0.52196789
0.52197692
0.52197849
0.52197681
0.52197441
0.52197289
0.52197289
0.52197441
0.5219768
0.52197849
0.52197692
0.52196788
0.52195171
0.52194859
0.52211338
0.52316393
0.53766541
0.53624837
0.5360085
0.53599692
0.53601214
0.53602241
0.5360247
0.53602353
0.53602132
0.53601989
0.53601989
0.53602132
0.53602353
0.5360247
0.5360224
0.53601213
0.53599691
0.53600848
0.53624834
0.53766535
0.55291926
0.55102228
0.55067061
0.55062649
0.55063498
0.55064453
0.55064695
0.55064626
0.55064433
0.55064307
0.55064307
0.55064434
0.55064626
0.55064695
0.55064453
0.55063498
0.55062648
0.55067059
0.55102225
0.55291919
0.56956014
0.56700685
0.56649215
0.56639336
0.5663875
0.56639306
0.56639425
0.56639355
0.56639173
0.56639062
0.56639062
0.56639174
0.56639355
0.56639426
0.56639307
0.5663875
0.56639335
0.56649214
0.56700681
0.56956007
0.58814284
0.58477209
0.58403863
0.58386151
0.58383296
0.58383111
0.58382922
0.58382758
0.58382546
0.58382433
0.58382434
0.58382548
0.58382759
0.58382924
0.58383113
0.58383298
0.58386151
0.58403863
0.58477207
0.58814278
0.60916943
0.60475542
0.60372659
0.60344385
0.6033797
0.60336493
0.60335702
0.60335283
0.60334968
0.60334821
0.60334822
0.6033497
0.60335286
0.60335706
0.60336496
0.60337974
0.60344387
0.6037266
0.60475542
0.60916939
0.6329632
0.62730447
0.62591306
0.62550055
0.62538463
0.62534967
0.62533328
0.62532532
0.62532077
0.6253188
0.62531881
0.6253208
0.62532536
0.62533333
0.62534972
0.62538467
0.62550059
0.62591309
0.62730448
0.63296318
0.66373919
0.65275555
0.6509157
0.65034401
0.65014527
0.65007358
0.65004406
0.65002981
0.65002301
0.65002006
0.65002008
0.65002304
0.65002985
0.65004412
0.65007365
0.65014534
0.65034407
0.65091575
0.65275559
0.66373921
0.69705877
0.68757815
0.68488703
0.68409364
0.68378658
0.68366145
0.68360273
0.68357331
0.68356048
0.6835548
0.68355482
0.68356052
0.68357338
0.68360281
0.68366155
0.68378668
0.68409374
0.68488713
0.68757824
0.69705884
0.73575724
0.72395517
0.72047656
0.71944281
0.71897358
0.71876611
0.71868105
0.7186326
0.71860884
0.71859969
0.71859971
0.7186089
0.71863268
0.71868116
0.71876624
0.71897372
0.71944295
0.72047671
0.7239553
0.73575738
0.78082811
0.76643152
0.76200802
0.76068406
0.76000305
0.75969518
0.75956995
0.75949258
0.75944397
0.7594294
0.75942942
0.75944403
0.75949268
0.75957009
0.75969534
0.76000322
0.76068424
0.76200821
0.76643173
0.78082832
0.83202099
0.81487349
0.80937701
0.80773012
0.80680883
0.80639427
0.80620833
0.80609459
0.806
0.80597818
0.80597821
0.80600006
0.8060947
0.80620848
0.80639445
0.80680902
0.80773034
0.80937724
0.81487373
0.83202127
0.88987165
0.86991963
0.86325121
0.86123003
0.86004839
0.85951032
0.85922787
0.85906414
0.85888918
0.85885571
0.85885574
0.85888925
0.85906426
0.85922803
0.85951051
0.8600486
0.86123027
0.86325147
0.86991991
0.88987197
0.9543557
0.93163136
0.92373183
0.92130212
0.91985557
0.91916973
0.91874869
0.91852199
0.91822369
0.91817509
0.91817512
0.91822376
0.91852211
0.91874885
0.91916993
0.91985581
0.9213024
0.92373213
0.93163168
0.95435605
1.0257843
1.0003985
0.9912408
0.98838784
0.98667398
0.98579794
0.98518423
0.98487842
0.98440086
0.98433594
0.98433597
0.98440093
0.98487854
0.98518439
0.98579815
0.98667422
0.98838813
0.99124111
1.0003989
1.0257847
1.1045191
1.0766996
1.0663
1.0630451
1.0610507
1.0599234
1.0590525
1.0586483
1.0579225
1.0578448
1.0578448
1.0579226
1.0586484
1.0590526
1.0599236
1.0610509
1.0630454
1.0663003
1.0766999
1.1045194
1.1909405
1.1610902
1.1495274
1.1459356
1.1436276
1.142174
1.1409752
1.1404496
1.1393963
1.1393152
1.1393152
1.1393964
1.1404497
1.1409753
1.1421742
1.1436278
1.1459358
1.1495277
1.1610905
1.1909407
1.285499
1.2542574
1.2417139
1.2378944
1.2352374
1.2333695
1.231772
1.231101
1.2296444
1.2295749
1.229575
1.2296444
1.231101
1.231772
1.2333695
1.2352375
1.2378945
1.241714
1.2542575
1.2854989
1.388393
1.3567008
1.3435389
1.3396366
1.3366273
1.3342288
1.3321394
1.3312925
1.3293774
1.3293361
1.3293361
1.3293774
1.3312925
1.3321395
1.3342289
1.3366275
1.3396367
1.3435391
1.3567009
1.388393
1.4997729
1.4690068
1.4558268
1.4520286
1.4487551
1.4456658
1.44295
1.4418966
1.4395091
1.4395134
1.4395134
1.439509
1.4418965
1.44295
1.4456658
1.4487552
1.4520286
1.4558268
1.4690067
1.4997726
1.6193315
1.5915596
1.5793508
1.5759808
1.5726315
1.5686587
1.5651398
1.5638456
1.5610207
1.561087
1.561087
1.5610206
1.5638455
1.5651397
1.5686586
1.5726314
1.5759807
1.5793507
1.5915593
1.6193311
1.7452117
1.7238475
1.7141387
1.7119281
1.7087261
1.7037461
1.6992682
1.6977032
1.6945315
1.6946751
1.6946751
1.6945314
1.697703
1.699268
1.7037459
1.7087259
1.7119279
1.7141384
1.723847
1.7452112
1.8726628
1.8636288
1.8588876
1.8592623
1.8565819
1.8505733
1.8451073
1.8432531
1.839879
1.8401123
1.8401123
1.8398789
1.8432529
1.8451071
1.850573
1.8565817
1.8592621
1.8588872
1.8636283
1.8726624
1.9913802
2.0044766
2.0091886
2.0148726
2.013378
2.0066807
2.0004446
1.9983068
1.9949178
1.9952553
1.9952552
1.9949177
1.9983066
2.0004444
2.0066805
2.0133778
2.0148723
2.0091883
2.0044764
1.9913806
2.0813245
2.1320855
2.1547141
2.1700248
2.1709434
2.1648489
2.1584082
2.1560382
2.1528488
2.1533063
2.1533063
2.1528487
2.156038
2.1584081
2.1648488
2.1709433
2.1700247
2.1547142
2.1320863
2.0813268
2.1077145
2.2175935
2.2734351
2.3048346
2.3122389
2.3081745
2.3025352
2.3000635
2.2972987
2.2978828
2.2978828
2.2972986
2.3000635
2.3025353
2.3081746
2.3122392
2.3048352
2.2734363
2.2175966
2.1077205
2.0206066
2.215297
2.3241701
2.3816035
2.4044469
2.4065029
2.4003984
2.3982495
2.3961295
2.3968108
2.3968109
2.3961297
2.3982498
2.400399
2.4065037
2.4044481
2.3816054
2.3241734
2.215304
2.0206184
1.7749474
2.064742
2.252545
2.3490764
2.3940237
2.4096394
2.4061559
2.400355
2.3990364
2.3996826
2.3996827
2.3990369
2.4003558
2.4061571
2.4096411
2.3940262
2.3490801
2.2525513
2.0647538
1.774965
1.3785028
1.7420977
2.0030858
2.1482116
2.2213334
2.2565878
2.2631266
2.2518764
2.251035
2.2512327
2.251233
2.2510358
2.2518779
2.2631287
2.2565906
2.2213373
2.1482174
2.0030948
1.7421123
1.3785199
0.86889881
1.2941384
1.5914091
1.7731677
1.8778831
1.9327432
1.9422666
1.9417317
1.9398722
1.9386997
1.9387
1.939873
1.9417333
1.9422688
1.932746
1.8778869
1.7731732
1.5914174
1.2941507
0.86891511
0
0
1.0571297
1.2805201
1.4254368
1.5039477
1.5298869
1.5354653
1.5315262
1.5283568
1.528357
1.5315268
1.5354666
1.5298884
1.5039499
1.4254399
1.280525
1.0571373
0
0
0
0
0
0
0
0
0
0
0
0
0
0
0
0
0
0
0
0
0
0
0
0
0
0
0
0
0
0
0
0
0
0
0
0
0
0
0
0
0
0
0
0
0
0
0
0
0
0
0
0
0
0
0
0
0
0
0
0
0
0
0
0
0
0
0
0
0
0
0
0
0
0
0
0
0
0
0
0
0
0
0
0
0
0
0
0
0
0
0
0
0
0
0
0
0
0
0
0
0
0
)
;

boundaryField
{
    Wall
    {
        type            zeroGradient;
    }
    frontAndBack
    {
        type            empty;
    }
    atmosphere
    {
        type            zeroGradient;
    }
}


// ************************************************************************* //
