/*--------------------------------*- C++ -*----------------------------------*\
| =========                 |                                                 |
| \\      /  F ield         | OpenFOAM: The Open Source CFD Toolbox           |
|  \\    /   O peration     | Version:  3.0.1                                 |
|   \\  /    A nd           | Web:      www.OpenFOAM.org                      |
|    \\/     M anipulation  |                                                 |
\*---------------------------------------------------------------------------*/
FoamFile
{
    version     2.0;
    format      ascii;
    class       volScalarField;
    location    "34";
    object      M1;
}
// * * * * * * * * * * * * * * * * * * * * * * * * * * * * * * * * * * * * * //

dimensions      [0 0 0 0 0 0 0];

internalField   nonuniform List<scalar> 
800
(
0.95242754
0.95243136
0.95243192
0.95243193
0.9524319
0.95243187
0.95243186
0.95243186
0.95243186
0.95243186
0.95243186
0.95243186
0.95243186
0.95243186
0.95243187
0.9524319
0.95243193
0.95243192
0.95243136
0.95242754
0.9522466
0.95227184
0.95227845
0.95228014
0.95228038
0.95228025
0.95228008
0.95227995
0.95227987
0.95227983
0.95227983
0.95227987
0.95227995
0.95228008
0.95228025
0.95228038
0.95228014
0.95227844
0.95227184
0.95224659
0.95195975
0.9520032
0.95201833
0.95202256
0.95202347
0.95202341
0.95202316
0.95202294
0.95202281
0.95202274
0.95202274
0.9520228
0.95202294
0.95202316
0.95202341
0.95202347
0.95202256
0.95201833
0.9520032
0.95195974
0.95162928
0.95168935
0.95171316
0.95172001
0.95172165
0.95172173
0.95172144
0.95172116
0.95172096
0.95172087
0.95172087
0.95172096
0.95172115
0.95172144
0.95172173
0.95172165
0.95172
0.95171315
0.95168935
0.95162927
0.95129065
0.95136449
0.95139624
0.95140556
0.95140784
0.95140802
0.9514077
0.95140736
0.95140713
0.95140702
0.95140702
0.95140713
0.95140736
0.9514077
0.95140802
0.95140784
0.95140555
0.95139624
0.95136448
0.95129064
0.95097266
0.95105618
0.95109463
0.95110608
0.95110876
0.95110895
0.95110855
0.95110815
0.95110787
0.95110774
0.95110774
0.95110787
0.95110815
0.95110855
0.95110895
0.95110876
0.95110608
0.95109463
0.95105618
0.95097265
0.95069949
0.95078799
0.95083141
0.95084453
0.95084728
0.95084731
0.95084677
0.95084627
0.95084594
0.95084578
0.95084578
0.95084594
0.95084627
0.95084676
0.95084731
0.95084727
0.95084452
0.9508314
0.95078798
0.95069948
0.95048874
0.95057773
0.95062397
0.95063821
0.95064069
0.9506404
0.95063962
0.95063898
0.95063857
0.95063838
0.95063838
0.95063857
0.95063898
0.95063961
0.95064039
0.95064069
0.95063821
0.95062397
0.95057773
0.95048873
0.95034928
0.95043546
0.95048215
0.95049693
0.95049886
0.95049807
0.95049697
0.95049614
0.95049563
0.95049539
0.95049539
0.95049562
0.95049614
0.95049696
0.95049806
0.95049885
0.95049693
0.95048215
0.95043545
0.95034927
0.95028401
0.95036547
0.95041015
0.95042491
0.95042608
0.95042467
0.95042316
0.95042209
0.95042145
0.95042116
0.95042116
0.95042145
0.95042209
0.95042315
0.95042466
0.95042608
0.9504249
0.95041014
0.95036546
0.950284
0.95028845
0.95036524
0.95040576
0.95042003
0.95042044
0.95041838
0.95041638
0.95041504
0.95041424
0.95041389
0.95041389
0.95041424
0.95041503
0.95041638
0.95041837
0.95042044
0.95042003
0.95040576
0.95036524
0.95028844
0.95036547
0.95042932
0.95046391
0.95047728
0.950477
0.95047432
0.95047176
0.95047008
0.95046911
0.95046868
0.95046868
0.95046911
0.95047008
0.95047176
0.95047431
0.950477
0.95047727
0.95046391
0.95042931
0.95036546
0.9505191
0.95058944
0.95061496
0.95062687
0.95062677
0.9506239
0.95062062
0.95061851
0.95061734
0.9506168
0.9506168
0.95061734
0.95061851
0.95062062
0.9506239
0.95062677
0.95062687
0.95061496
0.95058944
0.95051909
0.95072591
0.95080395
0.95082112
0.95083137
0.95083222
0.95082971
0.95082547
0.95082284
0.95082146
0.95082079
0.95082079
0.95082146
0.95082284
0.95082547
0.95082971
0.95083222
0.95083137
0.95082111
0.95080395
0.95072591
0.95096637
0.95105986
0.95107138
0.95107988
0.95108255
0.95108075
0.95107535
0.95107211
0.95107049
0.95106968
0.95106968
0.95107049
0.95107211
0.95107535
0.95108075
0.95108255
0.95107988
0.95107138
0.95105986
0.95096637
0.9512286
0.95134686
0.95135713
0.95136407
0.95136935
0.95136839
0.95136169
0.95135766
0.95135574
0.95135487
0.95135487
0.95135574
0.95135766
0.95136169
0.95136838
0.95136935
0.95136407
0.95135713
0.95134686
0.9512286
0.95150153
0.9516551
0.95167001
0.95167624
0.95168482
0.95168464
0.95167628
0.95167126
0.95166889
0.95166822
0.95166822
0.95166889
0.95167126
0.95167628
0.95168464
0.95168482
0.95167624
0.95167001
0.9516551
0.95150153
0.95176982
0.95197164
0.95199846
0.9520059
0.95201868
0.95201895
0.95200817
0.9520019
0.95199886
0.95199888
0.95199888
0.95199886
0.9520019
0.95200817
0.95201895
0.95201868
0.9520059
0.95199846
0.95197164
0.95176982
0.95201381
0.95227981
0.95232711
0.95233891
0.95235725
0.95235724
0.95234299
0.95233523
0.9523311
0.95233252
0.95233252
0.9523311
0.95233522
0.95234299
0.95235724
0.95235725
0.95233891
0.95232711
0.95227981
0.95201381
0.95221122
0.95256039
0.95263792
0.9526585
0.95268413
0.95268281
0.95266398
0.95265448
0.95264864
0.95265229
0.95265229
0.95264864
0.95265448
0.95266398
0.95268281
0.95268413
0.9526585
0.95263792
0.95256039
0.95221121
0.95233774
0.95279245
0.95291138
0.95294617
0.95298106
0.95297742
0.95295314
0.9529417
0.95293344
0.95294011
0.95294011
0.95293344
0.95294169
0.95295314
0.95297742
0.95298106
0.95294617
0.95291138
0.95279245
0.95233773
0.95236606
0.95295282
0.95312636
0.95318169
0.95322808
0.95322145
0.95319129
0.95317772
0.95316659
0.95317689
0.95317689
0.95316658
0.95317771
0.95319128
0.95322144
0.95322808
0.95318169
0.95312636
0.95295282
0.95236605
0.95226411
0.95301482
0.95325922
0.95334235
0.95340324
0.95339337
0.95335722
0.95334135
0.95332748
0.95334177
0.95334177
0.95332748
0.95334135
0.95335722
0.95339336
0.95340323
0.95334234
0.95325922
0.95301481
0.95226411
0.95199159
0.95294573
0.95328189
0.95340128
0.95348121
0.95346829
0.95342606
0.95340768
0.95339199
0.95341035
0.95341035
0.95339199
0.95340767
0.95342605
0.95346828
0.95348121
0.95340128
0.95328188
0.95294573
0.95199159
0.95149402
0.95270306
0.95315847
0.9533252
0.95343055
0.95341549
0.95336703
0.95334588
0.95333003
0.95335225
0.95335225
0.95333003
0.95334588
0.95336702
0.95341549
0.95343055
0.9533252
0.95315847
0.95270305
0.95149403
0.95069346
0.95222845
0.95284003
0.95307054
0.95320929
0.95319484
0.95314036
0.95311609
0.95310213
0.95312779
0.95312779
0.95310213
0.95311609
0.95314035
0.95319484
0.95320928
0.95307054
0.95284003
0.95222845
0.95069346
0.9494738
0.95143786
0.95225717
0.95257625
0.95275889
0.95275045
0.95269115
0.9526633
0.95265327
0.95268183
0.95268183
0.95265327
0.9526633
0.95269115
0.95275045
0.95275889
0.95257625
0.95225717
0.95143787
0.94947382
0.94765635
0.9502031
0.95130677
0.95175172
0.95199352
0.95200059
0.95193908
0.95190699
0.95190251
0.95193334
0.95193334
0.95190251
0.95190698
0.95193907
0.95200058
0.95199352
0.95175172
0.95130678
0.95020312
0.94765639
0.94495744
0.94832246
0.94983044
0.95045602
0.95078143
0.95081997
0.9507603
0.95072304
0.95072502
0.95075743
0.95075743
0.95072502
0.95072303
0.9507603
0.95081997
0.95078144
0.95045603
0.94983046
0.9483225
0.94495751
0.94091331
0.94546985
0.94757493
0.94846472
0.94891814
0.949011
0.94895878
0.94891502
0.94892346
0.94895671
0.94895671
0.94892346
0.94891502
0.94895878
0.949011
0.94891815
0.94846473
0.94757496
0.94546992
0.94091343
0.9347441
0.94111092
0.94412764
0.94541901
0.94607593
0.94626085
0.946223
0.94617137
0.94618536
0.94621853
0.94621853
0.94618536
0.94617138
0.94622301
0.94626086
0.94607595
0.94541904
0.94412769
0.94111104
0.93474431
0.92509285
0.93434647
0.93880672
0.94073765
0.94171997
0.94205629
0.94205406
0.94199775
0.94201544
0.94204721
0.94204721
0.94201544
0.94199776
0.94205407
0.9420563
0.94172
0.9407377
0.93880681
0.93434666
0.92509321
0.9095687
0.92357913
0.93042977
0.93342822
0.93496764
0.93554107
0.93561078
0.93559581
0.93561292
0.93564062
0.93564062
0.93561292
0.93559583
0.9356108
0.93554109
0.93496769
0.93342829
0.93042991
0.92357943
0.90956931
0.88253468
0.90568429
0.9168438
0.92172656
0.9242916
0.92523636
0.92552226
0.9255971
0.92560207
0.92561955
0.92561955
0.92560208
0.92559713
0.92552229
0.9252364
0.92429166
0.92172667
0.91684402
0.90568479
0.88253583
0.83735912
0.87376738
0.8931439
0.901885
0.90652402
0.90846898
0.90904428
0.90919768
0.90917301
0.90917008
0.90917009
0.90917303
0.90919772
0.90904433
0.90846906
0.90652414
0.9018852
0.89314431
0.87376833
0.83736145
0.75743763
0.82343882
0.85562987
0.87093359
0.87877735
0.88204627
0.88306146
0.88325576
0.88314382
0.88308332
0.88308334
0.88314387
0.88325585
0.88306156
0.88204641
0.87877757
0.87093397
0.8556306
0.82344049
0.75744235
0.60631257
0.748223
0.80262958
0.82877248
0.84244864
0.84838241
0.8502187
0.85031802
0.84992735
0.8496716
0.84967164
0.84992744
0.85031817
0.85021886
0.84838263
0.84244899
0.82877314
0.80263078
0.74822569
0.60632166
0.36630577
0.63988649
0.73248744
0.77538984
0.79751496
0.80763027
0.81078391
0.81064322
0.8096088
0.80887605
0.80887611
0.80960896
0.81064346
0.81078414
0.80763057
0.79751544
0.77539078
0.73248917
0.63989024
0.36631891
0.1399269
0.49898143
0.64409875
0.71070283
0.74437334
0.75997392
0.76491654
0.76437994
0.76227335
0.76072458
0.76072468
0.76227358
0.76438026
0.76491684
0.75997428
0.74437387
0.71070388
0.64410079
0.49898562
0.13993675
0.034070886
0.34317164
0.5404009
0.63558606
0.68345923
0.70573222
0.71292268
0.71203479
0.70862718
0.70601418
0.70601432
0.7086275
0.71203519
0.71292303
0.70573258
0.68345972
0.63558698
0.54040283
0.34317559
0.03407453
)
;

boundaryField
{
    Wall
    {
        type            zeroGradient;
    }
    frontAndBack
    {
        type            empty;
    }
    atmosphere
    {
        type            zeroGradient;
    }
}


// ************************************************************************* //
