/*--------------------------------*- C++ -*----------------------------------*\
| =========                 |                                                 |
| \\      /  F ield         | OpenFOAM: The Open Source CFD Toolbox           |
|  \\    /   O peration     | Version:  3.0.1                                 |
|   \\  /    A nd           | Web:      www.OpenFOAM.org                      |
|    \\/     M anipulation  |                                                 |
\*---------------------------------------------------------------------------*/
FoamFile
{
    version     2.0;
    format      ascii;
    class       volScalarField;
    location    "34";
    object      mOne;
}
// * * * * * * * * * * * * * * * * * * * * * * * * * * * * * * * * * * * * * //

dimensions      [0 0 0 0 0 0 0];

internalField   nonuniform List<scalar> 
800
(
20.020565
20.022253
20.0225
20.022506
20.022491
20.02248
20.022476
20.022476
20.022476
20.022476
20.022476
20.022476
20.022475
20.022476
20.02248
20.022491
20.022506
20.0225
20.022254
20.020566
19.940915
19.951992
19.954892
19.955636
19.955742
19.955685
19.955608
19.95555
19.955515
19.955499
19.955499
19.955515
19.95555
19.955608
19.955685
19.955742
19.955636
19.954891
19.951991
19.940914
19.815877
19.834723
19.841293
19.843131
19.843524
19.8435
19.843391
19.843297
19.843236
19.843207
19.843207
19.843236
19.843296
19.843391
19.843499
19.843523
19.84313
19.841292
19.834722
19.815874
19.673664
19.699371
19.709575
19.712514
19.713219
19.713252
19.713127
19.713006
19.712924
19.712885
19.712885
19.712924
19.713005
19.713126
19.713251
19.713217
19.712512
19.709573
19.699369
19.67366
19.529941
19.561109
19.57454
19.578485
19.579451
19.57953
19.579391
19.57925
19.579152
19.579104
19.579104
19.579151
19.579249
19.579391
19.579529
19.57945
19.578483
19.574538
19.561106
19.529937
19.396783
19.431591
19.447654
19.452442
19.453562
19.453641
19.453473
19.453306
19.453191
19.453136
19.453136
19.453191
19.453305
19.453472
19.45364
19.45356
19.45244
19.447652
19.431588
19.396779
19.283766
19.320242
19.338186
19.343615
19.344754
19.344768
19.344542
19.344336
19.344198
19.344133
19.344133
19.344198
19.344335
19.344541
19.344767
19.344752
19.343613
19.338184
19.320239
19.283761
19.197424
19.233795
19.252743
19.258585
19.259603
19.259482
19.259162
19.2589
19.258731
19.258654
19.258654
19.258731
19.258899
19.259161
19.259481
19.259601
19.258583
19.252741
19.233792
19.19742
19.140693
19.175713
19.194739
19.200769
19.201553
19.201231
19.200782
19.200444
19.200235
19.20014
19.20014
19.200235
19.200444
19.200781
19.20123
19.201551
19.200767
19.194736
19.17571
19.14069
19.114253
19.147263
19.165417
19.171419
19.171897
19.171322
19.170708
19.170273
19.170012
19.169894
19.169894
19.170011
19.170272
19.170707
19.171321
19.171896
19.171417
19.165415
19.147261
19.11425
19.116048
19.147172
19.163634
19.169437
19.169604
19.168762
19.167953
19.167404
19.167082
19.166937
19.166937
19.167082
19.167403
19.167952
19.168761
19.169603
19.169435
19.163632
19.14717
19.116046
19.147263
19.173214
19.187303
19.19275
19.192639
19.191544
19.190502
19.189816
19.189422
19.189244
19.189244
19.189422
19.189815
19.190501
19.191543
19.192638
19.192749
19.187301
19.173213
19.147261
19.209818
19.238588
19.249049
19.253932
19.25389
19.252714
19.251369
19.250502
19.250022
19.2498
19.2498
19.250022
19.250502
19.251369
19.252714
19.253889
19.253931
19.249048
19.238587
19.209816
19.294643
19.326836
19.33393
19.338172
19.338521
19.337486
19.33573
19.334645
19.334074
19.333796
19.333796
19.334073
19.334645
19.335729
19.337486
19.338521
19.338171
19.33393
19.326835
19.294642
19.394168
19.433125
19.437937
19.441488
19.442603
19.44185
19.439594
19.43824
19.437564
19.437226
19.437226
19.437563
19.43824
19.439594
19.44185
19.442602
19.441488
19.437937
19.433125
19.394168
19.503819
19.553656
19.557999
19.560931
19.563162
19.562755
19.559924
19.558224
19.557409
19.557042
19.557042
19.557409
19.558223
19.559923
19.562755
19.563162
19.560931
19.557998
19.553656
19.503819
19.619209
19.684706
19.691088
19.693756
19.697428
19.697353
19.69377
19.691621
19.690607
19.690319
19.690319
19.690607
19.69162
19.69377
19.697353
19.697427
19.693755
19.691088
19.684706
19.619208
19.733906
19.82103
19.832667
19.835894
19.841443
19.841562
19.83688
19.83416
19.832841
19.832849
19.832849
19.83284
19.834159
19.83688
19.841561
19.841442
19.835894
19.832667
19.82103
19.733906
19.839329
19.955489
19.976281
19.981477
19.989551
19.989547
19.983273
19.979854
19.978038
19.978664
19.978664
19.978038
19.979853
19.983272
19.989547
19.989551
19.981477
19.97628
19.955489
19.839328
19.925412
20.079433
20.113939
20.123115
20.134558
20.133968
20.125562
20.121322
20.118718
20.120345
20.120345
20.118718
20.121321
20.125562
20.133967
20.134557
20.123115
20.113938
20.079433
19.925411
19.98096
20.183052
20.236555
20.252255
20.268026
20.26638
20.255405
20.250235
20.246509
20.249518
20.249518
20.246508
20.250234
20.255404
20.266379
20.268025
20.252254
20.236555
20.183051
19.980958
19.993433
20.25526
20.333954
20.359166
20.380352
20.377318
20.363544
20.357352
20.352276
20.356974
20.356974
20.352276
20.357351
20.363543
20.377317
20.38035
20.359165
20.333953
20.255259
19.993431
19.948601
20.283305
20.394594
20.43271
20.460719
20.456174
20.439546
20.432253
20.425883
20.432448
20.432448
20.425882
20.432251
20.439545
20.456172
20.460717
20.432709
20.394593
20.283304
19.948599
19.829683
20.252055
20.404973
20.459818
20.496691
20.49072
20.471233
20.462763
20.455541
20.463995
20.463994
20.45554
20.462762
20.471231
20.490718
20.49669
20.459817
20.404972
20.252054
19.829682
19.616016
20.143015
20.348576
20.424837
20.473307
20.466365
20.444054
20.434335
20.427055
20.437259
20.437259
20.427054
20.434333
20.444053
20.466363
20.473305
20.424836
20.348575
20.143014
19.616017
19.281284
19.932959
20.204424
20.308577
20.371762
20.365165
20.340324
20.32928
20.32293
20.334605
20.334604
20.322929
20.329278
20.340322
20.365164
20.37176
20.308576
20.204424
19.93296
19.281287
18.791711
19.592175
19.945554
20.08648
20.168004
20.164223
20.137695
20.125259
20.120783
20.133531
20.133531
20.120782
20.125257
20.137693
20.164221
20.168003
20.08648
19.945555
19.592179
18.791718
18.104516
19.081572
19.536736
19.726127
19.830521
19.833588
19.806924
19.793042
19.791106
19.804441
19.80444
19.791106
19.79304
19.806923
19.833587
19.830521
19.726128
19.536739
19.08158
18.104529
17.16776
18.350768
18.932405
19.184088
19.317536
19.333457
19.308815
19.293458
19.294275
19.307633
19.307632
19.294274
19.293458
19.308815
19.333457
19.317537
19.184092
18.932411
18.350783
17.167782
15.924285
17.338478
18.074843
18.404182
18.576422
18.612071
18.592008
18.575227
18.578461
18.591214
18.591214
18.578461
18.575227
18.592009
18.612073
18.576425
18.404188
18.074855
17.338502
15.92432
14.324284
15.981078
16.897936
17.321399
17.544594
17.608408
17.59531
17.577476
17.582303
17.593764
17.593764
17.582303
17.577477
17.595312
17.608411
17.5446
17.321408
16.897953
15.981112
14.324335
12.34986
14.231473
15.341664
15.874119
16.158537
16.258128
16.257464
16.240711
16.245969
16.255423
16.255424
16.245971
16.240713
16.257467
16.258133
16.158545
15.874133
15.341687
14.231518
12.349925
10.058118
12.085431
13.373964
14.02138
14.376961
14.513754
14.530551
14.526941
14.531065
14.53775
14.537751
14.531067
14.526944
14.530556
14.51376
14.376971
14.021396
13.373993
12.085483
10.058193
7.5131509
9.602688
11.025562
11.775725
12.208573
12.375485
12.426831
12.440337
12.441234
12.444393
12.444393
12.441236
12.440341
12.426837
12.375493
12.208585
11.775744
11.025593
9.6027436
7.5132341
5.1485157
6.9218823
8.3583805
9.1921212
9.6979356
9.9252579
9.994361
10.012934
10.009943
10.009588
10.009589
10.009946
10.01294
9.9943674
9.9252671
9.6979488
9.1921424
8.3584156
6.9219424
5.1486038
3.122651
4.6637592
5.9266405
6.7479491
7.2492836
7.4779005
7.5515008
7.565733
7.5575277
7.5530995
7.5531007
7.5575314
7.5657397
7.5515082
7.4779109
7.2492985
6.7479722
5.9266756
4.6638129
3.1227313
1.5400862
2.9717687
4.0666154
4.8401827
5.3471367
5.5955409
5.676401
5.680831
5.6634395
5.6521032
5.6521047
5.6634434
5.6808376
5.6764078
5.5955503
5.3471505
4.8402051
4.0666462
2.9718111
1.5401448
0.57804814
1.7769022
2.7381422
3.4521584
3.9386364
4.1983229
4.2849627
4.2810362
4.2523436
4.2322066
4.2322083
4.2523479
4.2810428
4.2849693
4.1983311
3.9386481
3.4521769
2.7381664
1.7769311
0.57808085
0.16269187
0.99593402
1.8097681
2.4566533
2.9119551
3.1662139
3.2538084
3.2441209
3.206512
3.1792842
3.1792859
3.2065161
3.2441266
3.2538138
3.1662201
2.9119631
2.4566658
1.8097842
0.9959507
0.16270518
0.035272656
0.52246776
1.1758093
1.7441321
2.1591507
2.3982653
2.4833821
2.4726417
2.4320292
2.4015246
2.4015262
2.4320328
2.4726465
2.4833864
2.3982695
2.1591556
1.744139
1.1758184
0.52247691
0.035276563
)
;

boundaryField
{
    Wall
    {
        type            zeroGradient;
    }
    frontAndBack
    {
        type            empty;
    }
    atmosphere
    {
        type            zeroGradient;
    }
}


// ************************************************************************* //
