/*--------------------------------*- C++ -*----------------------------------*\
| =========                 |                                                 |
| \\      /  F ield         | OpenFOAM: The Open Source CFD Toolbox           |
|  \\    /   O peration     | Version:  3.0.1                                 |
|   \\  /    A nd           | Web:      www.OpenFOAM.org                      |
|    \\/     M anipulation  |                                                 |
\*---------------------------------------------------------------------------*/
FoamFile
{
    version     2.0;
    format      ascii;
    class       volScalarField;
    location    "34";
    object      mThree;
}
// * * * * * * * * * * * * * * * * * * * * * * * * * * * * * * * * * * * * * //

dimensions      [0 0 0 0 0 0 0];

internalField   nonuniform List<scalar> 
800
(
7.9940415e-23
7.9960728e-23
7.9963701e-23
7.9963779e-23
7.9963603e-23
7.9963482e-23
7.9963436e-23
7.9963431e-23
7.9963438e-23
7.9963444e-23
7.9963445e-23
7.9963438e-23
7.996343e-23
7.9963437e-23
7.9963484e-23
7.9963604e-23
7.9963781e-23
7.9963704e-23
7.9960729e-23
7.9940416e-23
7.8995016e-23
7.9126766e-23
7.9161268e-23
7.9170135e-23
7.9171407e-23
7.9170732e-23
7.9169827e-23
7.9169145e-23
7.916873e-23
7.9168536e-23
7.9168536e-23
7.916873e-23
7.9169143e-23
7.9169825e-23
7.917073e-23
7.9171404e-23
7.9170131e-23
7.9161264e-23
7.9126759e-23
7.8995002e-23
7.8252141e-23
7.8451124e-23
7.8517074e-23
7.85341e-23
7.8537008e-23
7.85362e-23
7.8534856e-23
7.8533822e-23
7.8533194e-23
7.8532904e-23
7.8532905e-23
7.8533193e-23
7.8533819e-23
7.8534852e-23
7.8536196e-23
7.8537002e-23
7.8534093e-23
7.8517065e-23
7.8451112e-23
7.8252118e-23
7.7939055e-23
7.8174062e-23
7.8264071e-23
7.8286523e-23
7.8290182e-23
7.8289118e-23
7.8287442e-23
7.8286201e-23
7.8285468e-23
7.8285138e-23
7.8285139e-23
7.8285466e-23
7.8286198e-23
7.8287438e-23
7.8289113e-23
7.8290175e-23
7.8286514e-23
7.8264059e-23
7.8174047e-23
7.7939028e-23
7.8146884e-23
7.8384367e-23
7.8489202e-23
7.851421e-23
7.8517263e-23
7.8515522e-23
7.8513459e-23
7.851208e-23
7.8511317e-23
7.8510994e-23
7.8510995e-23
7.8511316e-23
7.8512076e-23
7.8513455e-23
7.8515518e-23
7.8517256e-23
7.8514202e-23
7.8489191e-23
7.8384352e-23
7.8146857e-23
7.8962044e-23
7.9165512e-23
7.9274558e-23
7.9298935e-23
7.9299586e-23
7.9296465e-23
7.9293782e-23
7.929222e-23
7.9291441e-23
7.9291143e-23
7.9291143e-23
7.9291441e-23
7.9292218e-23
7.929378e-23
7.9296462e-23
7.9299581e-23
7.929893e-23
7.927455e-23
7.91655e-23
7.8962022e-23
8.0472169e-23
8.0601943e-23
8.0702747e-23
8.0722919e-23
8.0719093e-23
8.0713689e-23
8.0710028e-23
8.0708157e-23
8.0707327e-23
8.0707047e-23
8.0707048e-23
8.0707327e-23
8.0708157e-23
8.0710028e-23
8.0713689e-23
8.0719091e-23
8.0722918e-23
8.0702744e-23
8.0601937e-23
8.0472154e-23
8.2768328e-23
8.2780603e-23
8.2857761e-23
8.286964e-23
8.2859058e-23
8.2850315e-23
8.2845221e-23
8.2842851e-23
8.2841898e-23
8.2841616e-23
8.2841617e-23
8.28419e-23
8.2842853e-23
8.2845224e-23
8.2850319e-23
8.2859062e-23
8.2869645e-23
8.2857764e-23
8.2780605e-23
8.2768323e-23
8.5964945e-23
8.581012e-23
8.5843379e-23
8.5842087e-23
8.5822369e-23
8.5809046e-23
8.5801925e-23
8.5798784e-23
8.5797598e-23
8.5797272e-23
8.5797273e-23
8.5797602e-23
8.5798789e-23
8.5801933e-23
8.5809055e-23
8.5822379e-23
8.5842099e-23
8.5843391e-23
8.581013e-23
8.5964951e-23
9.0171628e-23
8.9802639e-23
8.9767466e-23
8.9747434e-23
8.9716761e-23
8.9697734e-23
8.9687826e-23
8.9683525e-23
8.9681938e-23
8.9681497e-23
8.96815e-23
8.9681944e-23
8.9683533e-23
8.9687838e-23
8.9697749e-23
8.9716778e-23
8.9747454e-23
8.9767487e-23
8.980266e-23
9.0171645e-23
9.5481637e-23
9.4855003e-23
9.4722515e-23
9.4677387e-23
9.4635071e-23
9.4609788e-23
9.459612e-23
9.4590141e-23
9.4587935e-23
9.4587281e-23
9.4587284e-23
9.4587943e-23
9.4590153e-23
9.4596138e-23
9.460981e-23
9.4635096e-23
9.4677417e-23
9.4722546e-23
9.4855035e-23
9.5481666e-23
1.0197404e-22
1.010543e-22
1.0079237e-22
1.0071504e-22
1.0066201e-22
1.0063099e-22
1.0061239e-22
1.006041e-22
1.0060106e-22
1.0060009e-22
1.0060009e-22
1.0060107e-22
1.0060412e-22
1.0061241e-22
1.0063102e-22
1.0066205e-22
1.0071508e-22
1.0079241e-22
1.0105435e-22
1.0197408e-22
1.0970672e-22
1.0845798e-22
1.0803566e-22
1.0791737e-22
1.0785481e-22
1.0781894e-22
1.0779373e-22
1.0778216e-22
1.0777811e-22
1.0777661e-22
1.0777661e-22
1.0777812e-22
1.0778218e-22
1.0779376e-22
1.0781898e-22
1.0785486e-22
1.0791742e-22
1.0803571e-22
1.0845803e-22
1.0970677e-22
1.1877797e-22
1.1717414e-22
1.1656215e-22
1.1639197e-22
1.1632318e-22
1.1628428e-22
1.1625083e-22
1.1623455e-22
1.1622944e-22
1.1622712e-22
1.1622713e-22
1.1622946e-22
1.1623458e-22
1.1625086e-22
1.1628432e-22
1.1632323e-22
1.1639203e-22
1.1656222e-22
1.171742e-22
1.1877804e-22
1.2927606e-22
1.2730013e-22
1.2647646e-22
1.2624095e-22
1.2617042e-22
1.2613138e-22
1.2608684e-22
1.2606392e-22
1.2605751e-22
1.2605423e-22
1.2605424e-22
1.2605753e-22
1.2606395e-22
1.2608688e-22
1.2613143e-22
1.2617047e-22
1.2624101e-22
1.2647653e-22
1.273002e-22
1.2927614e-22
1.4122678e-22
1.3888555e-22
1.3784183e-22
1.3752716e-22
1.3746218e-22
1.3742624e-22
1.3736559e-22
1.3733367e-22
1.3732513e-22
1.3732178e-22
1.3732179e-22
1.3732515e-22
1.373337e-22
1.3736563e-22
1.3742629e-22
1.3746224e-22
1.3752723e-22
1.3784191e-22
1.3888564e-22
1.4122687e-22
1.5457902e-22
1.5191398e-22
1.5065829e-22
1.5025415e-22
1.5020589e-22
1.5017474e-22
1.5008988e-22
1.5004642e-22
1.500341e-22
1.5003404e-22
1.5003405e-22
1.5003412e-22
1.5004645e-22
1.5008992e-22
1.501748e-22
1.5020595e-22
1.5025423e-22
1.5065838e-22
1.5191407e-22
1.5457912e-22
1.6924262e-22
1.6633503e-22
1.6489075e-22
1.6439345e-22
1.6437633e-22
1.6434661e-22
1.6422462e-22
1.641665e-22
1.6414701e-22
1.6415732e-22
1.6415733e-22
1.6414703e-22
1.6416653e-22
1.6422467e-22
1.6434667e-22
1.643764e-22
1.6439353e-22
1.6489084e-22
1.6633512e-22
1.6924271e-22
1.8509715e-22
1.8207271e-22
1.8047834e-22
1.7989502e-22
1.7992745e-22
1.798885e-22
1.7971142e-22
1.7963499e-22
1.7960166e-22
1.7963385e-22
1.7963385e-22
1.7960168e-22
1.7963502e-22
1.7971147e-22
1.7988856e-22
1.7992752e-22
1.798951e-22
1.8047843e-22
1.820728e-22
1.8509723e-22
2.0197519e-22
1.9901416e-22
1.9732448e-22
1.9667526e-22
1.9677876e-22
1.9671236e-22
1.9645884e-22
1.9635996e-22
1.9630169e-22
1.9637114e-22
1.9637114e-22
1.9630171e-22
1.9635998e-22
1.9645888e-22
1.9671241e-22
1.9677882e-22
1.9667533e-22
1.9732456e-22
1.9901424e-22
2.0197526e-22
2.1963848e-22
2.1699135e-22
2.1528234e-22
2.1459982e-22
2.1479679e-22
2.1468051e-22
2.1432953e-22
2.1420394e-22
2.1410659e-22
2.142311e-22
2.1423111e-22
2.141066e-22
2.1420396e-22
2.1432956e-22
2.1468055e-22
2.1479684e-22
2.1459988e-22
2.152824e-22
2.1699141e-22
2.1963852e-22
2.3774553e-22
2.3575158e-22
2.3413054e-22
2.33458e-22
2.3377167e-22
2.3358278e-22
2.3311804e-22
2.3296202e-22
2.3281387e-22
2.3301159e-22
2.3301159e-22
2.3281388e-22
2.3296203e-22
2.3311806e-22
2.3358281e-22
2.337717e-22
2.3345804e-22
2.3413058e-22
2.3575162e-22
2.3774555e-22
2.5581242e-22
2.5491543e-22
2.5353656e-22
2.5292521e-22
2.5338539e-22
2.5310261e-22
2.5251221e-22
2.5232302e-22
2.5212277e-22
2.5240987e-22
2.5240988e-22
2.5212277e-22
2.5232303e-22
2.5251222e-22
2.5310262e-22
2.5338541e-22
2.5292524e-22
2.5353659e-22
2.5491545e-22
2.558124e-22
2.7316946e-22
2.7393427e-22
2.7302063e-22
2.7252756e-22
2.7318172e-22
2.7278396e-22
2.7205602e-22
2.7183229e-22
2.7159605e-22
2.7198481e-22
2.7198482e-22
2.7159604e-22
2.7183229e-22
2.7205601e-22
2.7278396e-22
2.7318172e-22
2.7252756e-22
2.7302063e-22
2.7393426e-22
2.7316942e-22
2.8888405e-22
2.920244e-22
2.918884e-22
2.915902e-22
2.9250442e-22
2.9197638e-22
2.91099e-22
2.9084125e-22
2.9060513e-22
2.9110266e-22
2.9110266e-22
2.9060512e-22
2.9084124e-22
2.9109898e-22
2.9197637e-22
2.925044e-22
2.9159018e-22
2.9188838e-22
2.9202437e-22
2.8888402e-22
3.0166899e-22
3.0808988e-22
3.0914777e-22
3.0917959e-22
3.1042025e-22
3.0977393e-22
3.0874523e-22
3.0845628e-22
3.0827281e-22
3.088802e-22
3.088802e-22
3.0827279e-22
3.0845626e-22
3.087452e-22
3.097739e-22
3.1042022e-22
3.0917956e-22
3.0914774e-22
3.0808985e-22
3.0166898e-22
3.0979482e-22
3.2062958e-22
3.2342206e-22
3.2400729e-22
3.2563801e-22
3.2492682e-22
3.2377057e-22
3.2345581e-22
3.2338481e-22
3.2409668e-22
3.2409668e-22
3.233848e-22
3.2345579e-22
3.2377054e-22
3.2492678e-22
3.2563798e-22
3.2400726e-22
3.2342203e-22
3.206296e-22
3.0979491e-22
3.1105832e-22
3.2761315e-22
3.3284937e-22
3.3432187e-22
3.3641166e-22
3.3575025e-22
3.3452575e-22
3.3419307e-22
3.3428882e-22
3.3509268e-22
3.3509268e-22
3.3428882e-22
3.3419306e-22
3.3452573e-22
3.3575023e-22
3.3641164e-22
3.3432187e-22
3.3284939e-22
3.2761327e-22
3.1105858e-22
3.0291054e-22
3.2646677e-22
3.350487e-22
3.3781377e-22
3.4045604e-22
3.40042e-22
3.388394e-22
3.3849836e-22
3.3879559e-22
3.3967077e-22
3.3967077e-22
3.387956e-22
3.3849836e-22
3.388394e-22
3.40042e-22
3.4045606e-22
3.3781382e-22
3.3504881e-22
3.2646708e-22
3.0291106e-22
2.8293162e-22
3.1429224e-22
3.2720973e-22
3.3168223e-22
3.3508386e-22
3.3512321e-22
3.3404894e-22
3.3370996e-22
3.3421137e-22
3.3512703e-22
3.3512703e-22
3.3421139e-22
3.3370999e-22
3.3404898e-22
3.3512326e-22
3.3508395e-22
3.3168238e-22
3.2720999e-22
3.1429281e-22
2.8293249e-22
2.498483e-22
2.8871787e-22
3.0660972e-22
3.1315132e-22
3.1758893e-22
3.1831781e-22
3.1742236e-22
3.1710497e-22
3.1777434e-22
3.1868802e-22
3.1868803e-22
3.1777438e-22
3.1710504e-22
3.1742245e-22
3.1831791e-22
3.175891e-22
3.1315159e-22
3.0661016e-22
2.8871874e-22
2.4984957e-22
2.0494128e-22
2.4923767e-22
2.7187423e-22
2.8064244e-22
2.8619031e-22
2.8776157e-22
2.8720552e-22
2.8693792e-22
2.8770091e-22
2.8855967e-22
2.8855969e-22
2.8770097e-22
2.8693801e-22
2.8720566e-22
2.8776174e-22
2.8619056e-22
2.8064282e-22
2.7187485e-22
2.4923879e-22
2.049428e-22
1.531409e-22
1.9856245e-22
2.2428712e-22
2.3495407e-22
2.4154887e-22
2.4381319e-22
2.4372855e-22
2.4384493e-22
2.4459365e-22
2.4533854e-22
2.4533857e-22
2.4459373e-22
2.4384506e-22
2.4372871e-22
2.4381339e-22
2.4154916e-22
2.3495451e-22
2.2428783e-22
1.9856363e-22
1.531424e-22
9.9521397e-23
1.4231136e-22
1.6864074e-22
1.8024556e-22
1.8766386e-22
1.9017627e-22
1.9093135e-22
1.9154393e-22
1.9215909e-22
1.9273805e-22
1.9273808e-22
1.9215916e-22
1.9154406e-22
1.909315e-22
1.9017648e-22
1.8766415e-22
1.8024599e-22
1.6864141e-22
1.4231243e-22
9.9522733e-23
5.9187844e-23
8.8012153e-23
1.1053337e-22
1.2210574e-22
1.2992733e-22
1.3335929e-22
1.3439425e-22
1.3508723e-22
1.3551337e-22
1.3590886e-22
1.3590888e-22
1.3551343e-22
1.3508736e-22
1.3439439e-22
1.3335948e-22
1.2992759e-22
1.2210612e-22
1.1053395e-22
8.801307e-23
5.9189002e-23
3.1835772e-23
5.140863e-23
6.7006004e-23
7.5845597e-23
8.156041e-23
8.4057795e-23
8.4919103e-23
8.5427873e-23
8.5671971e-23
8.5905903e-23
8.5905923e-23
8.5672033e-23
8.5427985e-23
8.4919226e-23
8.4057965e-23
8.1560645e-23
7.5845931e-23
6.7006478e-23
5.1409304e-23
3.1836668e-23
1.4151409e-23
2.8801208e-23
3.9816378e-23
4.6585039e-23
5.0921918e-23
5.2821984e-23
5.34295e-23
5.365425e-23
5.3725572e-23
5.3826535e-23
5.3826554e-23
5.3725623e-23
5.3654338e-23
5.3429591e-23
5.2822111e-23
5.0922097e-23
4.6585308e-23
3.9816728e-23
2.8801661e-23
1.4151979e-23
4.8484202e-24
1.519588e-23
2.3358179e-23
2.8680379e-23
3.2013609e-23
3.3545571e-23
3.394893e-23
3.3945023e-23
3.3858122e-23
3.3844259e-23
3.3844276e-23
3.3858167e-23
3.3945097e-23
3.3949005e-23
3.3545667e-23
3.201374e-23
2.8680575e-23
2.3358421e-23
1.5196153e-23
4.8487037e-24
1.2580718e-24
7.4843331e-24
1.3429781e-23
1.7646321e-23
2.029945e-23
2.1546043e-23
2.1824972e-23
2.1688625e-23
2.1499763e-23
2.1412332e-23
2.1412347e-23
2.1499799e-23
2.168868e-23
2.1825027e-23
2.1546109e-23
2.0299534e-23
1.7646443e-23
1.3429929e-23
7.484477e-24
1.258177e-24
2.5315562e-25
3.4269204e-24
7.5436524e-24
1.0803957e-23
1.2928231e-23
1.3956315e-23
1.4177643e-23
1.4012407e-23
1.3798522e-23
1.3683704e-23
1.3683716e-23
1.379855e-23
1.4012448e-23
1.4177682e-23
1.3956358e-23
1.2928281e-23
1.0804023e-23
7.5437324e-24
3.426993e-24
2.5318422e-25
)
;

boundaryField
{
    Wall
    {
        type            zeroGradient;
    }
    frontAndBack
    {
        type            empty;
    }
    atmosphere
    {
        type            zeroGradient;
    }
}


// ************************************************************************* //
