/*--------------------------------*- C++ -*----------------------------------*\
| =========                 |                                                 |
| \\      /  F ield         | OpenFOAM: The Open Source CFD Toolbox           |
|  \\    /   O peration     | Version:  3.0.1                                 |
|   \\  /    A nd           | Web:      www.OpenFOAM.org                      |
|    \\/     M anipulation  |                                                 |
\*---------------------------------------------------------------------------*/
FoamFile
{
    version     2.0;
    format      ascii;
    class       volScalarField;
    location    "34";
    object      mTwo;
}
// * * * * * * * * * * * * * * * * * * * * * * * * * * * * * * * * * * * * * //

dimensions      [0 0 0 0 0 0 0];

internalField   nonuniform List<scalar> 
800
(
4.0051328e-11
4.0058082e-11
4.0059068e-11
4.0059092e-11
4.0059032e-11
4.005899e-11
4.0058974e-11
4.0058971e-11
4.0058973e-11
4.0058975e-11
4.0058975e-11
4.0058973e-11
4.0058971e-11
4.0058974e-11
4.0058991e-11
4.0059032e-11
4.0059093e-11
4.0059069e-11
4.0058083e-11
4.0051329e-11
3.9734796e-11
3.9778776e-11
3.9790304e-11
3.9793267e-11
3.9793689e-11
3.979346e-11
3.9793154e-11
3.9792924e-11
3.9792783e-11
3.9792718e-11
3.9792718e-11
3.9792783e-11
3.9792923e-11
3.9793153e-11
3.9793459e-11
3.9793688e-11
3.9793265e-11
3.9790303e-11
3.9778774e-11
3.9734791e-11
3.9422856e-11
3.9491464e-11
3.9514531e-11
3.9520634e-11
3.9521753e-11
3.9521524e-11
3.9521075e-11
3.9520719e-11
3.9520499e-11
3.9520396e-11
3.9520396e-11
3.9520498e-11
3.9520717e-11
3.9521073e-11
3.9521522e-11
3.9521751e-11
3.9520632e-11
3.9514528e-11
3.9491459e-11
3.9422848e-11
3.9201456e-11
3.9285892e-11
3.931858e-11
3.9327138e-11
3.9328756e-11
3.932852e-11
3.9327972e-11
3.9327537e-11
3.932727e-11
3.9327147e-11
3.9327147e-11
3.9327269e-11
3.9327536e-11
3.932797e-11
3.9328518e-11
3.9328754e-11
3.9327134e-11
3.9318575e-11
3.9285886e-11
3.9201446e-11
3.9108747e-11
3.9199107e-11
3.923865e-11
3.9248839e-11
3.9250567e-11
3.9250208e-11
3.9249551e-11
3.9249062e-11
3.9248771e-11
3.9248642e-11
3.9248642e-11
3.924877e-11
3.924906e-11
3.9249549e-11
3.9250206e-11
3.9250564e-11
3.9248835e-11
3.9238645e-11
3.91991e-11
3.9108736e-11
3.9176597e-11
3.9261951e-11
3.9305073e-11
3.9315933e-11
3.9317221e-11
3.9316524e-11
3.9315686e-11
3.9315127e-11
3.9314816e-11
3.9314685e-11
3.9314685e-11
3.9314815e-11
3.9315126e-11
3.9315684e-11
3.9316522e-11
3.9317218e-11
3.931593e-11
3.9305069e-11
3.9261945e-11
3.9176587e-11
3.9432892e-11
3.9501679e-11
3.9544559e-11
3.955502e-11
3.9555237e-11
3.9553922e-11
3.9552789e-11
3.9552117e-11
3.955177e-11
3.9551634e-11
3.9551635e-11
3.955177e-11
3.9552116e-11
3.9552788e-11
3.9553921e-11
3.9555235e-11
3.9555017e-11
3.9544556e-11
3.9501674e-11
3.9432884e-11
3.9900827e-11
3.9941312e-11
3.997944e-11
3.9988325e-11
3.9986813e-11
3.9984568e-11
3.9983e-11
3.9982151e-11
3.9981743e-11
3.9981593e-11
3.9981593e-11
3.9981743e-11
3.9982151e-11
3.9983e-11
3.9984568e-11
3.9986812e-11
3.9988324e-11
3.9979438e-11
3.9941309e-11
3.9900821e-11
4.0600361e-11
4.0601175e-11
4.0629184e-11
4.0635219e-11
4.0631373e-11
4.062787e-11
4.0625702e-11
4.0624595e-11
4.0624089e-11
4.0623909e-11
4.0623909e-11
4.062409e-11
4.0624596e-11
4.0625703e-11
4.0627871e-11
4.0631373e-11
4.063522e-11
4.0629185e-11
4.0601174e-11
4.0600358e-11
4.1545218e-11
4.1497017e-11
4.150888e-11
4.1510722e-11
4.1504135e-11
4.1499105e-11
4.1496143e-11
4.1494671e-11
4.1494017e-11
4.1493785e-11
4.1493785e-11
4.1494018e-11
4.1494673e-11
4.1496145e-11
4.1499107e-11
4.1504138e-11
4.1510725e-11
4.1508883e-11
4.149702e-11
4.1545219e-11
4.2739829e-11
4.2635965e-11
4.2625347e-11
4.2621649e-11
4.2612247e-11
4.2605593e-11
4.2601617e-11
4.2599658e-11
4.2598799e-11
4.2598489e-11
4.259849e-11
4.2598801e-11
4.259966e-11
4.260162e-11
4.2605596e-11
4.2612251e-11
4.2621654e-11
4.2625353e-11
4.263597e-11
4.2739833e-11
4.4182634e-11
4.4019691e-11
4.3980294e-11
4.3969705e-11
4.3957787e-11
4.3949655e-11
4.3944415e-11
4.3941826e-11
4.394071e-11
4.3940292e-11
4.3940293e-11
4.3940712e-11
4.3941829e-11
4.394442e-11
4.394966e-11
4.3957793e-11
4.3969712e-11
4.3980302e-11
4.4019699e-11
4.4182641e-11
4.5872954e-11
4.5649e-11
4.5574784e-11
4.5555781e-11
4.554203e-11
4.5532829e-11
4.5525974e-11
4.5522537e-11
4.5521118e-11
4.5520544e-11
4.5520545e-11
4.5521121e-11
4.5522541e-11
4.5525979e-11
4.5532835e-11
4.5542038e-11
4.555579e-11
4.5574794e-11
4.5649011e-11
4.5872963e-11
4.7806185e-11
4.7524307e-11
4.7411623e-11
4.7382483e-11
4.7367968e-11
4.735831e-11
4.734949e-11
4.7344916e-11
4.7343174e-11
4.7342376e-11
4.7342377e-11
4.7343176e-11
4.7344921e-11
4.7349496e-11
4.7358319e-11
4.7367978e-11
4.7382494e-11
4.7411635e-11
4.752432e-11
4.7806197e-11
4.9972108e-11
4.9639444e-11
4.9487646e-11
4.9446449e-11
4.9432571e-11
4.9423255e-11
4.9411926e-11
4.9405836e-11
4.94037e-11
4.940265e-11
4.9402651e-11
4.9403703e-11
4.9405841e-11
4.9411933e-11
4.9423265e-11
4.9432582e-11
4.9446461e-11
4.948766e-11
4.9639459e-11
4.9972123e-11
5.2348238e-11
5.1978015e-11
5.1790521e-11
5.1735684e-11
5.1724393e-11
5.1716213e-11
5.1701464e-11
5.16934e-11
5.1690673e-11
5.1689565e-11
5.1689566e-11
5.1690676e-11
5.1693406e-11
5.1701472e-11
5.1716223e-11
5.1724404e-11
5.1735698e-11
5.1790536e-11
5.1978031e-11
5.2348254e-11
5.48991e-11
5.4512016e-11
5.4296515e-11
5.4227678e-11
5.4221581e-11
5.4214933e-11
5.4195259e-11
5.4184711e-11
5.4181039e-11
5.4180578e-11
5.418058e-11
5.4181042e-11
5.4184716e-11
5.4195267e-11
5.4214943e-11
5.4221593e-11
5.4227692e-11
5.429653e-11
5.4512033e-11
5.4899117e-11
5.7583554e-11
5.7208246e-11
5.6976172e-11
5.6894917e-11
5.6897182e-11
5.689139e-11
5.6864357e-11
5.6850707e-11
5.6845407e-11
5.6847027e-11
5.6847029e-11
5.684541e-11
5.6850712e-11
5.6864364e-11
5.68914e-11
5.6897194e-11
5.6894931e-11
5.6976187e-11
5.7208262e-11
5.7583569e-11
6.0356213e-11
6.0029556e-11
5.9795796e-11
5.9706444e-11
5.9720964e-11
5.9713919e-11
5.9676218e-11
5.9658775e-11
5.9650572e-11
5.9656494e-11
5.9656495e-11
5.9650574e-11
5.9658779e-11
5.9676224e-11
5.9713928e-11
5.9720974e-11
5.9706457e-11
5.979581e-11
6.0029572e-11
6.0356226e-11
6.3164764e-11
6.2932929e-11
6.2715813e-11
6.2625695e-11
6.2656894e-11
6.2645175e-11
6.2593075e-11
6.2571108e-11
6.2557963e-11
6.2571004e-11
6.2571005e-11
6.2557965e-11
6.2571111e-11
6.2593079e-11
6.2645182e-11
6.2656903e-11
6.2625706e-11
6.2715825e-11
6.2932941e-11
6.3164774e-11
6.5946523e-11
6.5866818e-11
6.5688817e-11
6.5607984e-11
6.5660425e-11
6.5640113e-11
6.5570268e-11
6.5543087e-11
6.5522546e-11
6.5545746e-11
6.5545746e-11
6.5522547e-11
6.5543089e-11
6.5570271e-11
6.5640118e-11
6.5660431e-11
6.5607992e-11
6.5688826e-11
6.5866827e-11
6.5946528e-11
6.862392e-11
6.8766915e-11
6.8656221e-11
6.8596935e-11
6.8675394e-11
6.8642955e-11
6.8553204e-11
6.8520256e-11
6.8490504e-11
6.8526679e-11
6.852668e-11
6.8490504e-11
6.8520256e-11
6.8553205e-11
6.8642957e-11
6.8675398e-11
6.859694e-11
6.8656227e-11
6.876692e-11
6.862392e-11
7.1099638e-11
7.1550537e-11
7.1543453e-11
7.1519633e-11
7.163028e-11
7.1582947e-11
7.1472169e-11
7.1433082e-11
7.1394319e-11
7.1445646e-11
7.1445646e-11
7.1394317e-11
7.143308e-11
7.1472167e-11
7.1582946e-11
7.163028e-11
7.1519634e-11
7.1543455e-11
7.1550538e-11
7.1099633e-11
7.3250976e-11
7.4111206e-11
7.4255398e-11
7.4282359e-11
7.443477e-11
7.437039e-11
7.4237636e-11
7.4192241e-11
7.4147707e-11
7.4215434e-11
7.4215433e-11
7.4147704e-11
7.4192237e-11
7.4237632e-11
7.4370386e-11
7.4434767e-11
7.4282357e-11
7.4255396e-11
7.4111203e-11
7.325097e-11
7.4919131e-11
7.6309991e-11
7.6667242e-11
7.676422e-11
7.6971505e-11
7.6889551e-11
7.6734008e-11
7.6682368e-11
7.6638465e-11
7.6722792e-11
7.6722791e-11
7.6638461e-11
7.6682363e-11
7.6734002e-11
7.6889545e-11
7.6971499e-11
7.6764216e-11
7.6667237e-11
7.6309987e-11
7.4919127e-11
7.5896174e-11
7.7965169e-11
7.8613081e-11
7.880977e-11
7.9085607e-11
7.8990738e-11
7.8813341e-11
7.8755782e-11
7.8721147e-11
7.8821231e-11
7.882123e-11
7.8721143e-11
7.8755776e-11
7.8813334e-11
7.8990731e-11
7.90856e-11
7.8809765e-11
7.8613076e-11
7.7965168e-11
7.5896179e-11
7.5912384e-11
7.8839192e-11
7.9874167e-11
8.0215164e-11
8.0573664e-11
8.0477834e-11
8.028364e-11
8.0220765e-11
8.0204586e-11
8.031861e-11
8.0318609e-11
8.0204583e-11
8.0220759e-11
8.0283633e-11
8.0477828e-11
8.0573658e-11
8.021516e-11
7.9874166e-11
7.8839202e-11
7.5912408e-11
7.4629805e-11
7.8619265e-11
8.0163646e-11
8.0711333e-11
8.1168863e-11
8.1094225e-11
8.0893683e-11
8.082636e-11
8.0836348e-11
8.0961608e-11
8.0961608e-11
8.0836346e-11
8.0826356e-11
8.0893678e-11
8.1094221e-11
8.116886e-11
8.0711336e-11
8.0163655e-11
7.8619296e-11
7.4629864e-11
7.1655057e-11
7.6911548e-11
7.9118394e-11
7.9946341e-11
8.0525307e-11
8.0507189e-11
8.0315126e-11
8.0244415e-11
8.0284919e-11
8.0417841e-11
8.0417841e-11
8.0284919e-11
8.0244414e-11
8.0315126e-11
8.050719e-11
8.0525312e-11
7.9946354e-11
7.9118422e-11
7.6911615e-11
7.1655166e-11
6.6597458e-11
7.3264222e-11
7.6303125e-11
7.7487438e-11
7.8230447e-11
7.8306048e-11
7.8139355e-11
7.8066528e-11
7.8137137e-11
7.827317e-11
7.827317e-11
7.813714e-11
7.8066532e-11
7.8139362e-11
7.8306058e-11
7.8230464e-11
7.7487469e-11
7.6303179e-11
7.326434e-11
6.6597636e-11
5.9206729e-11
6.7277105e-11
7.1272334e-11
7.2883832e-11
7.3845522e-11
7.4057853e-11
7.3926217e-11
7.3854258e-11
7.3949369e-11
7.4082884e-11
7.4082885e-11
7.3949375e-11
7.3854268e-11
7.3926232e-11
7.4057873e-11
7.3845554e-11
7.2883884e-11
7.1272423e-11
6.7277281e-11
5.9206986e-11
4.9589482e-11
5.8791103e-11
6.3739607e-11
6.5821018e-11
6.7027368e-11
6.7406703e-11
6.7338949e-11
6.7276312e-11
6.7385597e-11
6.7509994e-11
6.7509997e-11
6.7385606e-11
6.7276328e-11
6.7338973e-11
6.7406733e-11
6.7027415e-11
6.5821092e-11
6.373973e-11
5.8791329e-11
4.9589798e-11
3.8454267e-11
4.8108801e-11
5.3779683e-11
5.62967e-11
5.7756205e-11
5.828276e-11
5.8302818e-11
5.8316405e-11
5.8424762e-11
5.8532597e-11
5.8532601e-11
5.8424775e-11
5.8316427e-11
5.8302848e-11
5.8282799e-11
5.7756263e-11
5.6296789e-11
5.3779827e-11
4.810905e-11
3.84546e-11
2.6573488e-11
3.6036371e-11
4.2029667e-11
4.4832037e-11
4.6524899e-11
4.7124928e-11
4.7312363e-11
4.7423541e-11
4.7512656e-11
4.7596698e-11
4.7596702e-11
4.751267e-11
4.7423566e-11
4.7312394e-11
4.7124969e-11
4.6524958e-11
4.4832128e-11
4.2029812e-11
3.6036612e-11
2.6573815e-11
1.6844074e-11
2.3841144e-11
2.9334585e-11
3.2255789e-11
3.4116422e-11
3.4934007e-11
3.5183482e-11
3.5314842e-11
3.5376039e-11
3.5433808e-11
3.5433813e-11
3.5376052e-11
3.5314868e-11
3.5183512e-11
3.4934049e-11
3.4116481e-11
3.2255878e-11
2.9334725e-11
2.3841373e-11
1.6844384e-11
9.5695763e-12
1.4842252e-11
1.9052897e-11
2.1546677e-11
2.3085616e-11
2.3760652e-11
2.3985262e-11
2.4082931e-11
2.4113321e-11
2.4145566e-11
2.4145571e-11
2.4113336e-11
2.4082958e-11
2.3985292e-11
2.3760694e-11
2.3085675e-11
2.1546763e-11
1.9053021e-11
1.4842435e-11
9.5698345e-12
4.4625771e-12
8.8097219e-12
1.2067999e-11
1.4168567e-11
1.5496843e-11
1.6096084e-11
1.6281818e-11
1.6318146e-11
1.6310059e-11
1.6314769e-11
1.6314774e-11
1.6310073e-11
1.631817e-11
1.6281842e-11
1.6096118e-11
1.5496891e-11
1.4168642e-11
1.2068099e-11
8.8098547e-12
4.4627521e-12
1.5952557e-12
4.9151308e-12
7.5257091e-12
9.3082498e-12
1.0443162e-11
1.0989607e-11
1.1141742e-11
1.1126121e-11
1.1077016e-11
1.1052912e-11
1.1052917e-11
1.107703e-11
1.1126143e-11
1.1141764e-11
1.0989635e-11
1.04432e-11
9.3083077e-12
7.525782e-12
4.9152155e-12
1.5953475e-12
4.300763e-13
2.5632105e-12
4.6005332e-12
6.1055765e-12
7.0840082e-12
7.5712716e-12
7.699286e-12
7.6518931e-12
7.5738702e-12
7.5292513e-12
7.5292562e-12
7.5738818e-12
7.6519102e-12
7.6993029e-12
7.5712917e-12
7.0840334e-12
6.105614e-12
4.6005799e-12
2.5632571e-12
4.3011186e-13
8.9683814e-14
1.245791e-12
2.7533844e-12
3.9881204e-12
4.8227931e-12
5.2520619e-12
5.3659154e-12
5.3120912e-12
5.2262777e-12
5.1735527e-12
5.1735567e-12
5.2262873e-12
5.3121046e-12
5.3659282e-12
5.2520754e-12
4.8228086e-12
3.9881412e-12
2.7534103e-12
1.2458155e-12
8.9693844e-14
)
;

boundaryField
{
    Wall
    {
        type            zeroGradient;
    }
    frontAndBack
    {
        type            empty;
    }
    atmosphere
    {
        type            zeroGradient;
    }
}


// ************************************************************************* //
