/*--------------------------------*- C++ -*----------------------------------*\
| =========                 |                                                 |
| \\      /  F ield         | OpenFOAM: The Open Source CFD Toolbox           |
|  \\    /   O peration     | Version:  3.0.1                                 |
|   \\  /    A nd           | Web:      www.OpenFOAM.org                      |
|    \\/     M anipulation  |                                                 |
\*---------------------------------------------------------------------------*/
FoamFile
{
    version     2.0;
    format      ascii;
    class       volScalarField;
    location    "34";
    object      muMixture;
}
// * * * * * * * * * * * * * * * * * * * * * * * * * * * * * * * * * * * * * //

dimensions      [1 -1 -1 0 0 0 0];

internalField   nonuniform List<scalar> 
800
(
0.001
0.001
0.001
0.001
0.001
0.001
0.001
0.001
0.001
0.001
0.001
0.001
0.001
0.001
0.001
0.001
0.001
0.001
0.001
0.001
0.001
0.001
0.001
0.001
0.001
0.001
0.001
0.001
0.001
0.001
0.001
0.001
0.001
0.001
0.001
0.001
0.001
0.001
0.001
0.001
0.00099999999
0.00099999999
0.00099999999
0.00099999999
0.00099999999
0.00099999999
0.00099999999
0.00099999999
0.00099999999
0.00099999999
0.00099999999
0.00099999999
0.00099999999
0.00099999999
0.00099999999
0.00099999999
0.00099999999
0.00099999999
0.00099999999
0.00099999999
0.00099999997
0.00099999998
0.00099999998
0.00099999998
0.00099999998
0.00099999998
0.00099999998
0.00099999998
0.00099999998
0.00099999998
0.00099999998
0.00099999998
0.00099999998
0.00099999998
0.00099999998
0.00099999998
0.00099999998
0.00099999998
0.00099999998
0.00099999997
0.00099999993
0.00099999994
0.00099999994
0.00099999994
0.00099999994
0.00099999994
0.00099999994
0.00099999994
0.00099999994
0.00099999994
0.00099999994
0.00099999994
0.00099999994
0.00099999994
0.00099999994
0.00099999994
0.00099999994
0.00099999994
0.00099999994
0.00099999993
0.00099999985
0.00099999987
0.00099999988
0.00099999988
0.00099999988
0.00099999988
0.00099999988
0.00099999988
0.00099999988
0.00099999988
0.00099999988
0.00099999988
0.00099999988
0.00099999988
0.00099999988
0.00099999988
0.00099999988
0.00099999988
0.00099999987
0.00099999985
0.00099999974
0.00099999977
0.00099999978
0.00099999979
0.00099999979
0.00099999979
0.00099999979
0.00099999979
0.00099999979
0.00099999979
0.00099999979
0.00099999979
0.00099999979
0.00099999979
0.00099999979
0.00099999979
0.00099999979
0.00099999978
0.00099999977
0.00099999974
0.00099999957
0.00099999962
0.00099999965
0.00099999966
0.00099999966
0.00099999966
0.00099999966
0.00099999966
0.00099999966
0.00099999966
0.00099999966
0.00099999966
0.00099999966
0.00099999966
0.00099999966
0.00099999966
0.00099999966
0.00099999965
0.00099999962
0.00099999957
0.00099999935
0.00099999943
0.00099999947
0.00099999949
0.00099999949
0.00099999949
0.00099999949
0.00099999949
0.00099999949
0.00099999949
0.00099999949
0.00099999949
0.00099999949
0.00099999949
0.00099999949
0.00099999949
0.00099999949
0.00099999947
0.00099999943
0.00099999935
0.00099999907
0.00099999917
0.00099999924
0.00099999926
0.00099999927
0.00099999927
0.00099999927
0.00099999927
0.00099999927
0.00099999927
0.00099999927
0.00099999927
0.00099999927
0.00099999927
0.00099999927
0.00099999927
0.00099999926
0.00099999924
0.00099999917
0.00099999907
0.00099999872
0.00099999886
0.00099999896
0.00099999899
0.00099999899
0.000999999
0.00099999899
0.00099999899
0.00099999899
0.00099999899
0.00099999899
0.00099999899
0.00099999899
0.00099999899
0.000999999
0.00099999899
0.00099999899
0.00099999896
0.00099999886
0.00099999872
0.0009999983
0.00099999849
0.00099999859
0.00099999865
0.00099999866
0.00099999866
0.00099999866
0.00099999867
0.00099999866
0.00099999866
0.00099999866
0.00099999866
0.00099999867
0.00099999866
0.00099999866
0.00099999866
0.00099999865
0.00099999859
0.00099999849
0.0009999983
0.00099999781
0.00099999795
0.00099999809
0.00099999826
0.00099999828
0.00099999829
0.00099999831
0.00099999829
0.00099999826
0.00099999827
0.00099999827
0.00099999826
0.00099999829
0.00099999831
0.00099999829
0.00099999828
0.00099999826
0.00099999809
0.00099999794
0.00099999781
0.00099999721
0.00099999719
0.00099999766
0.00099999782
0.00099999773
0.00099999785
0.00099999766
0.00099999746
0.00099999771
0.00099999782
0.00099999782
0.00099999771
0.00099999746
0.00099999766
0.00099999785
0.00099999773
0.00099999782
0.00099999766
0.00099999719
0.00099999721
0.00099999651
0.00099999696
0.00099999728
0.00099999721
0.00099999727
0.00099999562
0.00099999506
0.00099999597
0.00099999731
0.00099999731
0.00099999731
0.00099999731
0.00099999596
0.00099999507
0.00099999562
0.00099999727
0.00099999721
0.00099999728
0.00099999696
0.00099999651
0.00099999552
0.00099999643
0.00099999675
0.00099999671
0.00099999609
0.0009999928
0.00099999306
0.00099999619
0.00099999683
0.00099999675
0.00099999675
0.00099999683
0.00099999619
0.00099999306
0.00099999279
0.00099999609
0.00099999671
0.00099999675
0.00099999643
0.00099999552
0.00099999435
0.00099999116
0.00099999517
0.00099999532
0.00099999063
0.00099999203
0.00099999579
0.00099999631
0.00099999605
0.00099999612
0.00099999612
0.00099999605
0.00099999631
0.00099999577
0.00099999202
0.00099999063
0.00099999532
0.00099999517
0.00099999116
0.00099999435
0.00099998827
0.00099996843
0.00099997717
0.00099997699
0.00099997706
0.00099999169
0.00099999567
0.00099999631
0.00099999548
0.00099999546
0.00099999546
0.00099999548
0.00099999631
0.00099999566
0.0009999917
0.00099997706
0.00099997699
0.00099997717
0.00099996843
0.00099998827
0.0009999675
0.00099996725
0.00099996725
0.00099996725
0.00099998185
0.00099998605
0.0009999929
0.00099999535
0.00099999484
0.00099999476
0.00099999476
0.00099999484
0.00099999538
0.00099999295
0.00099998607
0.00099998187
0.00099996725
0.00099996725
0.00099996725
0.0009999675
0.00099996725
0.00099996725
0.00099996725
0.00099997385
0.00099999178
0.00099999166
0.00099999334
0.00099999342
0.00099999412
0.00099999403
0.00099999403
0.00099999412
0.00099999343
0.00099999335
0.00099999163
0.00099999179
0.00099997387
0.00099996725
0.00099996725
0.00099996725
0.00099996725
0.00099996725
0.00099996725
0.00099999076
0.00099999321
0.00099999325
0.00099999329
0.00099999334
0.00099998724
0.00099998962
0.00099998964
0.00099998724
0.00099999335
0.0009999933
0.00099999325
0.0009999932
0.00099999075
0.00099996725
0.00099996725
0.00099996725
0.00099996725
0.00099996725
0.00099997701
0.00099999311
0.00099999316
0.00099999321
0.00099999164
0.00099999061
0.00099998666
0.00099998667
0.00099998666
0.00099998667
0.00099999055
0.00099999162
0.0009999932
0.00099999315
0.0009999931
0.000999977
0.00099996725
0.00099996725
0.00099996725
0.00099996725
0.00099998941
0.00099999264
0.00099998454
0.0009999834
0.00099998145
0.00099998146
0.00099998877
0.00099998868
0.00099998869
0.00099998875
0.00099998145
0.00099998145
0.00099998342
0.00099998454
0.00099999263
0.00099998942
0.00099996725
0.00099996725
0.00099996725
0.00099996829
0.00099998361
0.00099998299
0.00099998146
0.00099998145
0.00099998146
0.00099998145
0.00099998939
0.00099998951
0.00099998951
0.00099998942
0.00099998145
0.00099998145
0.00099998145
0.00099998145
0.00099998299
0.00099998361
0.0009999683
0.00099996725
0.00099998201
0.0009999878
0.00099998119
0.00099998883
0.00099998145
0.00099998146
0.00099998145
0.00099998146
0.00099998145
0.00099998951
0.00099998951
0.00099998145
0.00099998145
0.00099998145
0.00099998145
0.00099998145
0.00099998883
0.00099998119
0.0009999878
0.000999982
0.00099998883
0.00099998883
0.00099998122
0.00099998883
0.00099998146
0.00099998145
0.00099998146
0.00099998145
0.00099998275
0.00099998673
0.00099998669
0.00099998272
0.00099998145
0.00099998145
0.00099998145
0.00099998145
0.00099998883
0.00099998122
0.00099998883
0.00099998883
0.00099998883
0.00099998883
0.00099998517
0.00099998883
0.00099998805
0.00099998558
0.00099998369
0.00099998776
0.00099998883
0.00099998494
0.00099998494
0.00099998883
0.0009999878
0.00099998371
0.00099998558
0.00099998808
0.00099998883
0.00099998517
0.00099998883
0.00099998883
0.00099998883
0.00099998883
0.00099998883
0.00099998883
0.00099998883
0.00099998883
0.00099998883
0.00099998883
0.00099998883
0.00099998599
0.000999986
0.00099998883
0.00099998883
0.00099998883
0.00099998883
0.00099998883
0.00099998883
0.00099998883
0.00099998883
0.00099998883
0.00099998883
0.00099998883
0.00099998883
0.00099998883
0.00099998883
0.00099998883
0.00099998883
0.00099998883
0.00099998883
0.00099998883
0.00099998883
0.00099998883
0.00099998883
0.00099998883
0.00099998883
0.00099998883
0.00099998883
0.00099998883
0.00099998883
0.00099998883
0.00099998883
0.00099998883
0.00099998883
0.00099998883
0.00099998883
0.00099998883
0.00099998883
0.00099998883
0.00099998883
0.00099998883
0.00099998883
0.00099998883
0.00099998883
0.00099998883
0.00099998883
0.00099998883
0.00099998883
0.00099998883
0.00099998883
0.00099998883
0.00099995429
0.00099998579
0.00099998883
0.00099998883
0.00099998883
0.00099998883
0.00099998883
0.00099998883
0.00099998883
0.00099998883
0.00099998883
0.00099998883
0.00099998883
0.00099998883
0.00099998883
0.00099998883
0.00099998883
0.00099998883
0.00099998579
0.0009999543
0.00099928104
0.00099985718
0.00099996322
0.00099997668
0.00099998075
0.00099998219
0.00099998271
0.0009999828
0.00099998265
0.00099998196
0.00099998197
0.00099998265
0.0009999828
0.00099998271
0.00099998219
0.00099998075
0.00099997668
0.00099996322
0.0009998572
0.00099928116
0.00097498572
0.00099721793
0.00099938613
0.00099966854
0.00099975354
0.00099978388
0.0009997967
0.00099980288
0.00099980641
0.00099980649
0.00099980649
0.00099980642
0.00099980289
0.0009997967
0.00099978389
0.00099975354
0.00099966856
0.00099938617
0.00099721829
0.00097499098
0.00053922513
0.00090113955
0.00097756455
0.00098914904
0.00099265492
0.00099388835
0.00099442661
0.00099468474
0.00099486248
0.00099494108
0.0009949411
0.00099486255
0.00099468487
0.00099442677
0.00099388859
0.00099265528
0.00098914976
0.00097756651
0.00090115171
0.00053926204
1e-05
1e-05
0.00054594076
0.00065774749
0.00071618133
0.00074381687
0.0007568693
0.00076339001
0.00076808676
0.00077042274
0.00077042335
0.00076808851
0.00076339341
0.00075687352
0.00074382256
0.00071618878
0.00065775778
0.00054595545
1e-05
1e-05
1e-05
1e-05
1e-05
1e-05
1e-05
1e-05
1e-05
1e-05
1e-05
1e-05
1e-05
1e-05
1e-05
1e-05
1e-05
1e-05
1e-05
1e-05
1e-05
1e-05
1e-05
1e-05
1e-05
1e-05
1e-05
1e-05
1e-05
1e-05
1e-05
1e-05
1e-05
1e-05
1e-05
1e-05
1e-05
1e-05
1e-05
1e-05
1e-05
1e-05
1e-05
1e-05
1e-05
1e-05
1e-05
1e-05
1e-05
1e-05
1e-05
1e-05
1e-05
1e-05
1e-05
1e-05
1e-05
1e-05
1e-05
1e-05
1e-05
1e-05
1e-05
1e-05
1e-05
1e-05
1e-05
1e-05
1e-05
1e-05
1e-05
1e-05
1e-05
1e-05
1e-05
1e-05
1e-05
1e-05
1e-05
1e-05
1e-05
1e-05
1e-05
1e-05
1e-05
1e-05
1e-05
1e-05
1e-05
1e-05
1e-05
1e-05
1e-05
1e-05
1e-05
1e-05
1e-05
1e-05
1e-05
1e-05
1e-05
1e-05
)
;

boundaryField
{
    Wall
    {
        type            zeroGradient;
    }
    frontAndBack
    {
        type            empty;
    }
    atmosphere
    {
        type            zeroGradient;
    }
}


// ************************************************************************* //
