/*--------------------------------*- C++ -*----------------------------------*\
| =========                 |                                                 |
| \\      /  F ield         | OpenFOAM: The Open Source CFD Toolbox           |
|  \\    /   O peration     | Version:  3.0.1                                 |
|   \\  /    A nd           | Web:      www.OpenFOAM.org                      |
|    \\/     M anipulation  |                                                 |
\*---------------------------------------------------------------------------*/
FoamFile
{
    version     2.0;
    format      ascii;
    class       volScalarField;
    location    "34";
    object      mZero;
}
// * * * * * * * * * * * * * * * * * * * * * * * * * * * * * * * * * * * * * //

dimensions      [0 0 0 0 0 0 0];

internalField   nonuniform List<scalar> 
800
(
1e+13
1e+13
1e+13
1e+13
1e+13
1e+13
1e+13
1e+13
1e+13
1e+13
1e+13
1e+13
1e+13
1e+13
1e+13
1e+13
1e+13
1e+13
1e+13
1e+13
1e+13
1e+13
1e+13
1e+13
1e+13
1e+13
1e+13
1e+13
1e+13
1e+13
1e+13
1e+13
1e+13
1e+13
1e+13
1e+13
1e+13
1e+13
1e+13
1e+13
9.9531586e+12
9.9547314e+12
9.9554991e+12
9.9558039e+12
9.9559158e+12
9.9559494e+12
9.9559531e+12
9.955948e+12
9.9559423e+12
9.9559391e+12
9.955939e+12
9.9559423e+12
9.955948e+12
9.9559531e+12
9.9559493e+12
9.9559157e+12
9.9558038e+12
9.9554989e+12
9.9547311e+12
9.9531582e+12
9.8661501e+12
9.8706544e+12
9.872656e+12
9.8734496e+12
9.8737486e+12
9.8738409e+12
9.8738533e+12
9.8738408e+12
9.8738258e+12
9.8738171e+12
9.873817e+12
9.8738257e+12
9.8738406e+12
9.8738531e+12
9.8738406e+12
9.8737483e+12
9.8734492e+12
9.8726555e+12
9.8706538e+12
9.8661492e+12
9.7456989e+12
9.7542487e+12
9.7577931e+12
9.7591894e+12
9.7597216e+12
9.7598884e+12
9.7599135e+12
9.7598935e+12
9.7598679e+12
9.7598528e+12
9.7598527e+12
9.7598678e+12
9.7598932e+12
9.7599132e+12
9.7598879e+12
9.759721e+12
9.7591887e+12
9.7577922e+12
9.7542476e+12
9.7456975e+12
9.5972365e+12
9.6106785e+12
9.6159937e+12
9.618067e+12
9.6188558e+12
9.619103e+12
9.6191415e+12
9.6191126e+12
9.6190751e+12
9.6190527e+12
9.6190527e+12
9.6190749e+12
9.6191122e+12
9.6191409e+12
9.6191023e+12
9.618855e+12
9.618066e+12
9.6159925e+12
9.610677e+12
9.5972346e+12
9.4255523e+12
9.4445484e+12
9.451795e+12
9.4545919e+12
9.4556453e+12
9.4559709e+12
9.4560192e+12
9.4559784e+12
9.4559269e+12
9.4558963e+12
9.4558962e+12
9.4559266e+12
9.4559779e+12
9.4560185e+12
9.45597e+12
9.4556442e+12
9.4545906e+12
9.4517935e+12
9.4445466e+12
9.42555e+12
9.234804e+12
9.2598996e+12
9.2691869e+12
9.272731e+12
9.2740434e+12
9.2744403e+12
9.2744934e+12
9.2744374e+12
9.2743699e+12
9.2743302e+12
9.2743301e+12
9.2743695e+12
9.2744367e+12
9.2744925e+12
9.2744392e+12
9.2740421e+12
9.2727295e+12
9.2691851e+12
9.2598975e+12
9.2348014e+12
9.0286474e+12
9.0602926e+12
9.0717026e+12
9.0760039e+12
9.0775617e+12
9.078019e+12
9.0780713e+12
9.0779969e+12
9.0779118e+12
9.0778621e+12
9.077862e+12
9.0779113e+12
9.0779962e+12
9.0780702e+12
9.0780177e+12
9.0775601e+12
9.0760021e+12
9.0717005e+12
9.0602903e+12
9.0286446e+12
8.8102455e+12
8.848818e+12
8.8624218e+12
8.867483e+12
8.8692689e+12
8.8697746e+12
8.8698206e+12
8.8697253e+12
8.869621e+12
8.8695609e+12
8.8695607e+12
8.8696205e+12
8.8697245e+12
8.8698195e+12
8.8697732e+12
8.8692672e+12
8.867481e+12
8.8624196e+12
8.8488156e+12
8.8102425e+12
8.5821609e+12
8.6280053e+12
8.643888e+12
8.6497201e+12
8.6517228e+12
8.65227e+12
8.6523087e+12
8.6521931e+12
8.6520698e+12
8.6519992e+12
8.651999e+12
8.6520692e+12
8.6521922e+12
8.6523075e+12
8.6522684e+12
8.651721e+12
8.649718e+12
8.6438857e+12
8.6280027e+12
8.582158e+12
8.3469515e+12
8.4003787e+12
8.418617e+12
8.4252126e+12
8.4274081e+12
8.4279808e+12
8.4280033e+12
8.427862e+12
8.4277151e+12
8.427632e+12
8.4276319e+12
8.4277146e+12
8.4278611e+12
8.428002e+12
8.4279792e+12
8.4274061e+12
8.4252105e+12
8.4186146e+12
8.4003761e+12
8.3469487e+12
8.1067491e+12
8.1680162e+12
8.1887358e+12
8.1961209e+12
8.1985083e+12
8.1991073e+12
8.1991148e+12
8.1989497e+12
8.1987784e+12
8.1986826e+12
8.1986824e+12
8.1987778e+12
8.1989487e+12
8.1991134e+12
8.1991056e+12
8.1985064e+12
8.1961187e+12
8.1887334e+12
8.1680137e+12
8.1067464e+12
7.8632854e+12
7.9326699e+12
7.9560313e+12
7.9642396e+12
7.9668202e+12
7.967444e+12
7.9674337e+12
7.967245e+12
7.9670471e+12
7.9669373e+12
7.9669371e+12
7.9670465e+12
7.967244e+12
7.9674323e+12
7.9674423e+12
7.9668183e+12
7.9642375e+12
7.956029e+12
7.9326675e+12
7.8632828e+12
7.618029e+12
7.6958012e+12
7.7220263e+12
7.7311218e+12
7.7339127e+12
7.7345644e+12
7.7345336e+12
7.7343211e+12
7.7340952e+12
7.7339691e+12
7.7339689e+12
7.7340946e+12
7.7343201e+12
7.7345322e+12
7.7345628e+12
7.7339108e+12
7.7311198e+12
7.7220241e+12
7.6957989e+12
7.6180265e+12
7.3720611e+12
7.4585091e+12
7.4878803e+12
7.497964e+12
7.5009972e+12
7.5016824e+12
7.5016274e+12
7.5013907e+12
7.5011379e+12
7.5009931e+12
7.5009929e+12
7.5011372e+12
7.5013897e+12
7.5016261e+12
7.5016808e+12
7.5009954e+12
7.497962e+12
7.4878782e+12
7.458507e+12
7.3720588e+12
7.1265937e+12
7.2220255e+12
7.2548853e+12
7.2660872e+12
7.2693996e+12
7.2701149e+12
7.2700218e+12
7.2697524e+12
7.2694718e+12
7.2693052e+12
7.269305e+12
7.2694712e+12
7.2697515e+12
7.2700206e+12
7.2701134e+12
7.2693979e+12
7.2660854e+12
7.2548833e+12
7.2220235e+12
7.1265916e+12
6.8824522e+12
6.9871959e+12
7.023983e+12
7.0365027e+12
7.04016e+12
7.0409086e+12
7.040762e+12
7.0404491e+12
7.0401417e+12
7.0399515e+12
7.0399513e+12
7.0401411e+12
7.0404481e+12
7.0407608e+12
7.0409072e+12
7.0401584e+12
7.036501e+12
7.0239811e+12
6.9871941e+12
6.8824503e+12
6.6400799e+12
6.7545267e+12
6.7957786e+12
6.809885e+12
6.8139797e+12
6.8147655e+12
6.8145439e+12
6.8141696e+12
6.8138339e+12
6.8136184e+12
6.8136182e+12
6.8138334e+12
6.8141688e+12
6.8145427e+12
6.8147642e+12
6.8139783e+12
6.8098835e+12
6.7957769e+12
6.7545251e+12
6.6400782e+12
6.3996542e+12
6.524274e+12
6.5706457e+12
6.5866934e+12
6.5913568e+12
6.5921911e+12
6.5918693e+12
6.5914091e+12
6.591039e+12
6.5907953e+12
6.5907952e+12
6.5910385e+12
6.5914083e+12
6.5918683e+12
6.5921899e+12
6.5913555e+12
6.5866921e+12
6.5706443e+12
6.5242726e+12
6.3996528e+12
6.1610619e+12
6.2964277e+12
6.3487141e+12
6.3671617e+12
6.3725789e+12
6.373489e+12
6.3730414e+12
6.372464e+12
6.3720478e+12
6.3717713e+12
6.3717711e+12
6.3720473e+12
6.3724632e+12
6.3730405e+12
6.373488e+12
6.3725778e+12
6.3671606e+12
6.3487128e+12
6.2964265e+12
6.1610608e+12
5.9238669e+12
6.0706884e+12
6.1298467e+12
6.151276e+12
6.1577007e+12
6.1587359e+12
6.158137e+12
6.1574025e+12
6.1569206e+12
6.1566025e+12
6.1566023e+12
6.1569201e+12
6.1574018e+12
6.1581362e+12
6.158735e+12
6.1576997e+12
6.151275e+12
6.1298456e+12
6.0706875e+12
5.9238661e+12
5.6873714e+12
5.8465236e+12
5.9137072e+12
5.9388535e+12
5.9466322e+12
5.9478767e+12
5.9471047e+12
5.9461653e+12
5.9455898e+12
5.9452165e+12
5.9452164e+12
5.9455894e+12
5.9461647e+12
5.947104e+12
5.9478759e+12
5.9466314e+12
5.9388528e+12
5.9137064e+12
5.846523e+12
5.687371e+12
5.4504783e+12
5.6230559e+12
5.6996543e+12
5.7294451e+12
5.7390461e+12
5.740634e+12
5.7396763e+12
5.7384768e+12
5.7377698e+12
5.7373215e+12
5.7373213e+12
5.7377694e+12
5.7384762e+12
5.7396757e+12
5.7406334e+12
5.7390455e+12
5.7294446e+12
5.6996537e+12
5.6230557e+12
5.4504783e+12
5.2116959e+12
5.3990755e+12
5.4867674e+12
5.5223741e+12
5.5344212e+12
5.5365585e+12
5.5354184e+12
5.5338948e+12
5.5330043e+12
5.532452e+12
5.5324518e+12
5.5330039e+12
5.5338942e+12
5.5354178e+12
5.536558e+12
5.5344207e+12
5.5223738e+12
5.4867671e+12
5.3990757e+12
5.2116966e+12
4.9690357e+12
5.1729522e+12
5.2737791e+12
5.3166859e+12
5.3320069e+12
5.3350056e+12
5.3337158e+12
5.3317964e+12
5.3306527e+12
5.3299562e+12
5.3299561e+12
5.3306524e+12
5.3317959e+12
5.3337154e+12
5.3350052e+12
5.3320066e+12
5.3166859e+12
5.2737792e+12
5.1729529e+12
4.969037e+12
4.7199205e+12
4.9425454e+12
5.0590148e+12
5.1111078e+12
5.1308044e+12
5.1351302e+12
5.1337721e+12
5.1313798e+12
5.1298905e+12
5.1289947e+12
5.1289945e+12
5.1298902e+12
5.1313794e+12
5.1337717e+12
5.13513e+12
5.1308042e+12
5.111108e+12
5.0590154e+12
4.9425467e+12
4.7199226e+12
4.4610008e+12
4.7050288e+12
4.8402499e+12
4.9039335e+12
4.9294832e+12
4.935828e+12
4.9345604e+12
4.931617e+12
4.9296622e+12
4.928492e+12
4.9284919e+12
4.9296619e+12
4.9316166e+12
4.9345602e+12
4.9358278e+12
4.9294833e+12
4.9039339e+12
4.840251e+12
4.705031e+12
4.461004e+12
4.1879113e+12
4.4566318e+12
4.6144878e+12
4.6928482e+12
4.726276e+12
4.7356573e+12
4.7347632e+12
4.7311984e+12
4.7286256e+12
4.7270796e+12
4.7270794e+12
4.7286254e+12
4.731198e+12
4.734763e+12
4.7356573e+12
4.7262762e+12
4.692849e+12
4.6144894e+12
4.4566351e+12
4.1879159e+12
3.8949675e+12
4.1923185e+12
4.3776001e+12
4.4747089e+12
4.5188277e+12
4.5327594e+12
4.5327162e+12
4.5284896e+12
4.5251069e+12
4.5230476e+12
4.5230475e+12
4.5251066e+12
4.5284893e+12
4.5327161e+12
4.5327595e+12
4.5188282e+12
4.4747101e+12
4.3776024e+12
4.1923232e+12
3.8949742e+12
3.5748767e+12
3.9051826e+12
4.1239771e+12
4.2452931e+12
4.3039561e+12
4.3246983e+12
4.326368e+12
4.3215007e+12
4.3170734e+12
4.3143133e+12
4.3143131e+12
4.3170732e+12
4.3215005e+12
4.326368e+12
4.3246985e+12
4.3039568e+12
4.2452947e+12
4.1239801e+12
3.9051889e+12
3.574886e+12
3.2186526e+12
3.5861151e+12
3.8458683e+12
3.9986801e+12
4.0773566e+12
4.108277e+12
4.1131225e+12
4.1078498e+12
4.1021059e+12
4.098387e+12
4.0983869e+12
4.1021058e+12
4.1078496e+12
4.1131227e+12
4.1082774e+12
4.0773576e+12
3.9986821e+12
3.8458723e+12
3.5861233e+12
3.2186654e+12
2.8170763e+12
3.2233345e+12
3.5327131e+12
3.7266723e+12
3.8332513e+12
3.8793938e+12
3.8897661e+12
3.8847739e+12
3.8773934e+12
3.8723482e+12
3.8723481e+12
3.8773933e+12
3.8847738e+12
3.8897664e+12
3.8793945e+12
3.8332526e+12
3.726675e+12
3.5327184e+12
3.2233449e+12
2.8170932e+12
2.3547213e+12
2.8027076e+12
3.1711165e+12
3.4184976e+12
3.5640756e+12
3.6330474e+12
3.6530834e+12
3.6493604e+12
3.6399589e+12
3.6330512e+12
3.6330511e+12
3.6399589e+12
3.6493605e+12
3.6530839e+12
3.6330483e+12
3.5640773e+12
3.4185011e+12
3.1711234e+12
2.8027208e+12
2.3547439e+12
1.798563e+12
2.2968407e+12
2.7411534e+12
3.0589867e+12
3.25919e+12
3.3626491e+12
3.398876e+12
3.3984609e+12
3.3868297e+12
3.3773347e+12
3.3773347e+12
3.3868298e+12
3.3984613e+12
3.3988768e+12
3.3626504e+12
3.2591925e+12
3.0589915e+12
2.7411628e+12
2.296858e+12
1.7985908e+12
1.1915116e+12
1.7354993e+12
2.2244562e+12
2.6179036e+12
2.89286e+12
3.0492389e+12
3.1127781e+12
3.1200875e+12
3.1062701e+12
3.0931011e+12
3.0931011e+12
3.1062704e+12
3.1200883e+12
3.1127792e+12
3.0492408e+12
2.8928634e+12
2.6179101e+12
2.2244672e+12
1.7355172e+12
1.1915404e+12
6.3289192e+11
1.2265962e+12
1.7230861e+12
2.1518947e+12
2.4893272e+12
2.7055351e+12
2.8060778e+12
2.8262487e+12
2.8110145e+12
2.7931317e+12
2.7931319e+12
2.8110151e+12
2.8262497e+12
2.8060789e+12
2.705537e+12
2.489331e+12
2.1519021e+12
1.7230971e+12
1.2266122e+12
6.3291518e+11
2.5319467e+11
8.1537868e+11
1.3075667e+12
1.7469824e+12
2.1141437e+12
2.3711324e+12
2.5036411e+12
2.5372208e+12
2.5209774e+12
2.4979068e+12
2.4979071e+12
2.5209783e+12
2.537222e+12
2.5036422e+12
2.371134e+12
2.1141471e+12
1.746989e+12
1.307576e+12
8.1539048e+11
2.5320873e+11
7.5365137e+10
5.1322924e+11
9.8136672e+11
1.4182765e+12
1.7945779e+12
2.0695727e+12
2.2200464e+12
2.2621722e+12
2.2445685e+12
2.2169096e+12
2.21691e+12
2.2445695e+12
2.2621733e+12
2.2200471e+12
2.0695735e+12
1.7945798e+12
1.4182808e+12
9.8137304e+11
5.1323636e+11
7.5371228e+10
1.7188138e+10
3.0569914e+11
7.3221233e+11
1.1556827e+12
1.527668e+12
1.8045745e+12
1.9600373e+12
2.0051432e+12
1.9861333e+12
1.955349e+12
1.9553495e+12
1.9861342e+12
2.0051442e+12
1.9600376e+12
1.8045744e+12
1.5276684e+12
1.1556844e+12
7.3221555e+11
3.057032e+11
1.7190019e+10
)
;

boundaryField
{
    Wall
    {
        type            zeroGradient;
    }
    frontAndBack
    {
        type            empty;
    }
    atmosphere
    {
        type            zeroGradient;
    }
}


// ************************************************************************* //
