/*--------------------------------*- C++ -*----------------------------------*\
| =========                 |                                                 |
| \\      /  F ield         | OpenFOAM: The Open Source CFD Toolbox           |
|  \\    /   O peration     | Version:  3.0.1                                 |
|   \\  /    A nd           | Web:      www.OpenFOAM.org                      |
|    \\/     M anipulation  |                                                 |
\*---------------------------------------------------------------------------*/
FoamFile
{
    version     2.0;
    format      ascii;
    class       volScalarField;
    location    "34";
    object      node1;
}
// * * * * * * * * * * * * * * * * * * * * * * * * * * * * * * * * * * * * * //

dimensions      [0 0 0 0 0 0 0];

internalField   nonuniform List<scalar> 
800
(
1.9989223e-12
1.9990909e-12
1.9991159e-12
1.9991166e-12
1.9991152e-12
1.9991142e-12
1.9991138e-12
1.9991138e-12
1.9991138e-12
1.9991139e-12
1.9991139e-12
1.9991138e-12
1.9991138e-12
1.9991138e-12
1.9991142e-12
1.9991152e-12
1.9991167e-12
1.9991159e-12
1.9990909e-12
1.9989223e-12
1.9907198e-12
1.9918423e-12
1.9921355e-12
1.9922105e-12
1.992221e-12
1.9922151e-12
1.9922074e-12
1.9922016e-12
1.9921981e-12
1.9921964e-12
1.9921964e-12
1.992198e-12
1.9922016e-12
1.9922074e-12
1.9922151e-12
1.992221e-12
1.9922104e-12
1.9921354e-12
1.9918423e-12
1.9907197e-12
1.9874458e-12
1.9890413e-12
1.9895525e-12
1.9896769e-12
1.9896941e-12
1.9896849e-12
1.9896732e-12
1.9896648e-12
1.9896598e-12
1.9896576e-12
1.9896576e-12
1.9896598e-12
1.9896647e-12
1.9896732e-12
1.9896849e-12
1.989694e-12
1.9896769e-12
1.9895524e-12
1.9890412e-12
1.9874457e-12
1.9905452e-12
1.992256e-12
1.9928906e-12
1.9930288e-12
1.99304e-12
1.9930248e-12
1.9930097e-12
1.993e-12
1.9929948e-12
1.9929926e-12
1.9929926e-12
1.9929948e-12
1.993e-12
1.9930097e-12
1.9930247e-12
1.99304e-12
1.9930288e-12
1.9928905e-12
1.9922559e-12
1.990545e-12
2.0003952e-12
2.001852e-12
2.0025065e-12
2.002625e-12
2.0026152e-12
2.0025892e-12
2.00257e-12
2.0025597e-12
2.002555e-12
2.0025533e-12
2.0025533e-12
2.002555e-12
2.0025597e-12
2.00257e-12
2.0025892e-12
2.0026151e-12
2.002625e-12
2.0025064e-12
2.001852e-12
2.0003951e-12
2.0174052e-12
2.0182275e-12
2.0187888e-12
2.0188528e-12
2.0188045e-12
2.0187613e-12
2.0187361e-12
2.0187249e-12
2.0187209e-12
2.01872e-12
2.01872e-12
2.0187209e-12
2.0187249e-12
2.0187361e-12
2.0187613e-12
2.0188045e-12
2.0188529e-12
2.0187888e-12
2.0182275e-12
2.0174052e-12
2.0419629e-12
2.0417628e-12
2.0421069e-12
2.0420795e-12
2.0419744e-12
2.0419066e-12
2.0418727e-12
2.04186e-12
2.0418566e-12
2.0418565e-12
2.0418565e-12
2.0418567e-12
2.04186e-12
2.0418728e-12
2.0419067e-12
2.0419744e-12
2.0420796e-12
2.042107e-12
2.0417629e-12
2.0419629e-12
2.0742788e-12
2.072696e-12
2.07269e-12
2.0725331e-12
2.0723541e-12
2.0722547e-12
2.0722093e-12
2.072194e-12
2.072191e-12
2.0721916e-12
2.0721916e-12
2.0721911e-12
2.072194e-12
2.0722094e-12
2.0722548e-12
2.0723543e-12
2.0725333e-12
2.0726902e-12
2.0726962e-12
2.074279e-12
2.1154973e-12
2.1118453e-12
2.1112599e-12
2.1109211e-12
2.1106428e-12
2.1105003e-12
2.1104388e-12
2.1104192e-12
2.1104162e-12
2.1104174e-12
2.1104175e-12
2.1104163e-12
2.1104193e-12
2.110439e-12
2.1105005e-12
2.110643e-12
2.1109213e-12
2.1112602e-12
2.1118456e-12
2.1154975e-12
2.1671741e-12
2.1609874e-12
2.1595862e-12
2.1590156e-12
2.1586248e-12
2.1584314e-12
2.1583484e-12
2.158322e-12
2.1583179e-12
2.1583194e-12
2.1583194e-12
2.158318e-12
2.1583221e-12
2.1583486e-12
2.1584316e-12
2.158625e-12
2.1590159e-12
2.1595866e-12
2.1609878e-12
2.1671745e-12
2.2298969e-12
2.2207392e-12
2.2182343e-12
2.2173764e-12
2.2168756e-12
2.2166307e-12
2.2165189e-12
2.2164815e-12
2.2164748e-12
2.2164757e-12
2.2164757e-12
2.2164749e-12
2.2164816e-12
2.2165191e-12
2.216631e-12
2.2168759e-12
2.2173769e-12
2.2182348e-12
2.2207397e-12
2.2298974e-12
2.3037761e-12
2.2914163e-12
2.287527e-12
2.2863285e-12
2.2857484e-12
2.2854692e-12
2.2853204e-12
2.2852676e-12
2.2852571e-12
2.2852569e-12
2.2852569e-12
2.2852572e-12
2.2852679e-12
2.2853208e-12
2.2854696e-12
2.2857488e-12
2.286329e-12
2.2875275e-12
2.2914169e-12
2.3037767e-12
2.3882833e-12
2.3725311e-12
2.3670419e-12
2.3654381e-12
2.3648129e-12
2.3645209e-12
2.3643236e-12
2.3642479e-12
2.3642334e-12
2.3642303e-12
2.3642304e-12
2.3642335e-12
2.3642482e-12
2.3643239e-12
2.3645214e-12
2.3648134e-12
2.3654387e-12
2.3670425e-12
2.3725318e-12
2.388284e-12
2.4833658e-12
2.4643274e-12
2.4570644e-12
2.4549763e-12
2.4543877e-12
2.4541278e-12
2.4538687e-12
2.4537591e-12
2.4537436e-12
2.4537354e-12
2.4537355e-12
2.4537438e-12
2.4537594e-12
2.4538691e-12
2.4541283e-12
2.4543882e-12
2.454977e-12
2.4570651e-12
2.4643281e-12
2.4833665e-12
2.5881761e-12
2.5659631e-12
2.5569091e-12
2.55425e-12
2.5537735e-12
2.5535879e-12
2.5532382e-12
2.5530808e-12
2.5530674e-12
2.5530545e-12
2.5530546e-12
2.5530675e-12
2.5530811e-12
2.5532386e-12
2.5535884e-12
2.553774e-12
2.5542507e-12
2.5569098e-12
2.5659639e-12
2.5881769e-12
2.7015758e-12
2.6763598e-12
2.6656311e-12
2.6623265e-12
2.6620172e-12
2.661915e-12
2.6614395e-12
2.6612205e-12
2.6612065e-12
2.6612012e-12
2.6612012e-12
2.6612067e-12
2.6612208e-12
2.66144e-12
2.6619156e-12
2.6620178e-12
2.6623272e-12
2.6656319e-12
2.6763606e-12
2.7015767e-12
2.8223934e-12
2.7944305e-12
2.782203e-12
2.7782149e-12
2.7781157e-12
2.7780749e-12
2.7774264e-12
2.7771348e-12
2.7771103e-12
2.7771466e-12
2.7771467e-12
2.7771105e-12
2.7771351e-12
2.7774268e-12
2.7780754e-12
2.7781163e-12
2.7782156e-12
2.7822037e-12
2.7944313e-12
2.8223942e-12
2.9494316e-12
2.9191005e-12
2.9055604e-12
2.900898e-12
2.9010453e-12
2.9010029e-12
2.9001061e-12
2.8997307e-12
2.8996712e-12
2.899809e-12
2.899809e-12
2.8996713e-12
2.899731e-12
2.9001065e-12
2.9010034e-12
2.9010459e-12
2.9008987e-12
2.9055612e-12
2.9191012e-12
2.9494323e-12
3.0815604e-12
3.0493572e-12
3.0346783e-12
3.0294061e-12
3.0298421e-12
3.0296899e-12
3.0284472e-12
3.0279748e-12
3.0278314e-12
3.0281516e-12
3.0281516e-12
3.0278316e-12
3.0279751e-12
3.0284476e-12
3.0296904e-12
3.0298427e-12
3.0294067e-12
3.034679e-12
3.0493579e-12
3.0815611e-12
3.2176467e-12
3.1841992e-12
3.1685296e-12
3.162755e-12
3.1635191e-12
3.1631175e-12
3.1614297e-12
3.1608455e-12
3.160542e-12
3.1611328e-12
3.1611328e-12
3.1605422e-12
3.1608457e-12
3.1614301e-12
3.1631179e-12
3.1635196e-12
3.1627556e-12
3.1685302e-12
3.1841998e-12
3.2176472e-12
3.3565169e-12
3.3226168e-12
3.3060932e-12
3.2999344e-12
3.3010426e-12
3.3002568e-12
3.2980528e-12
3.2973429e-12
3.2967953e-12
3.2977359e-12
3.2977359e-12
3.2967955e-12
3.2973431e-12
3.2980531e-12
3.3002571e-12
3.301043e-12
3.2999349e-12
3.3060937e-12
3.3226173e-12
3.3565172e-12
3.4969041e-12
3.4635307e-12
3.4463237e-12
3.4398793e-12
3.4413226e-12
3.4400473e-12
3.4373052e-12
3.4364617e-12
3.4356211e-12
3.436968e-12
3.4369681e-12
3.4356212e-12
3.4364619e-12
3.4373054e-12
3.4400476e-12
3.4413229e-12
3.4398796e-12
3.4463241e-12
3.463531e-12
3.4969043e-12
3.6373659e-12
3.6056765e-12
3.5880571e-12
3.5813817e-12
3.5831666e-12
3.5813214e-12
3.5780438e-12
3.5770668e-12
3.5759605e-12
3.5777406e-12
3.5777406e-12
3.5759606e-12
3.5770669e-12
3.578044e-12
3.5813215e-12
3.5831668e-12
3.5813819e-12
3.5880573e-12
3.6056766e-12
3.6373659e-12
3.7762118e-12
3.7475479e-12
3.7299702e-12
3.7230603e-12
3.7252689e-12
3.7227697e-12
3.7189384e-12
3.7178369e-12
3.7165846e-12
3.7187949e-12
3.7187949e-12
3.7165847e-12
3.717837e-12
3.7189385e-12
3.7227697e-12
3.725269e-12
3.7230604e-12
3.7299703e-12
3.7475478e-12
3.7762116e-12
3.9111739e-12
3.8871627e-12
3.8702986e-12
3.8631749e-12
3.8659315e-12
3.8627128e-12
3.8582885e-12
3.8570828e-12
3.8558774e-12
3.8584917e-12
3.8584917e-12
3.8558774e-12
3.8570828e-12
3.8582885e-12
3.8627128e-12
3.8659315e-12
3.8631749e-12
3.8702985e-12
3.8871625e-12
3.9111736e-12
4.0389897e-12
4.0217592e-12
4.0064667e-12
3.9993476e-12
4.0026702e-12
3.998787e-12
3.9937702e-12
3.9924954e-12
3.9915613e-12
3.9945399e-12
3.99454e-12
3.9915613e-12
3.9924954e-12
3.9937702e-12
3.9987869e-12
4.0026702e-12
3.9993475e-12
4.0064665e-12
4.021759e-12
4.0389894e-12
4.1548941e-12
4.1473359e-12
4.1346653e-12
4.1279586e-12
4.1317391e-12
4.1273622e-12
4.1218554e-12
4.120565e-12
4.1201168e-12
4.1234171e-12
4.1234171e-12
4.1201168e-12
4.120565e-12
4.1218554e-12
4.1273621e-12
4.131739e-12
4.1279584e-12
4.1346651e-12
4.1473357e-12
4.154894e-12
4.2521534e-12
4.2579166e-12
4.2492782e-12
4.2435124e-12
4.2475402e-12
4.2429617e-12
4.2371611e-12
4.2359226e-12
4.2361342e-12
4.2397214e-12
4.2397214e-12
4.2361342e-12
4.2359227e-12
4.2371611e-12
4.2429617e-12
4.2475401e-12
4.2435123e-12
4.2492781e-12
4.2579165e-12
4.2521537e-12
4.3220087e-12
4.3453963e-12
4.3427735e-12
4.3383751e-12
4.3424455e-12
4.3380838e-12
4.3321982e-12
4.3310688e-12
4.3320509e-12
4.3359062e-12
4.3359062e-12
4.332051e-12
4.3310689e-12
4.3321983e-12
4.3380838e-12
4.3424455e-12
4.3383751e-12
4.3427736e-12
4.3453967e-12
4.3220097e-12
4.3543325e-12
4.3999882e-12
4.4060509e-12
4.4034238e-12
4.4078021e-12
4.403888e-12
4.398087e-12
4.3970846e-12
4.398877e-12
4.4029959e-12
4.4029959e-12
4.3988771e-12
4.3970848e-12
4.3980872e-12
4.4038882e-12
4.4078024e-12
4.4034241e-12
4.4060514e-12
4.3999893e-12
4.3543344e-12
4.3387575e-12
4.4117023e-12
4.4292536e-12
4.4290909e-12
4.4344303e-12
4.4312936e-12
4.4255333e-12
4.4246813e-12
4.4272729e-12
4.4316538e-12
4.4316538e-12
4.4272731e-12
4.4246816e-12
4.4255336e-12
4.4312939e-12
4.4344308e-12
4.4290916e-12
4.4292546e-12
4.4117042e-12
4.3387606e-12
4.2658766e-12
4.3711859e-12
4.4028094e-12
4.4059673e-12
4.4126771e-12
4.4105075e-12
4.4050625e-12
4.4045257e-12
4.4078626e-12
4.4124876e-12
4.4124877e-12
4.4078629e-12
4.4045262e-12
4.405063e-12
4.4105081e-12
4.4126778e-12
4.4059684e-12
4.4028109e-12
4.3711887e-12
4.2658808e-12
4.1285374e-12
4.2705073e-12
4.3176058e-12
4.3244097e-12
4.3332092e-12
4.3314796e-12
4.3264754e-12
4.3276716e-12
4.3315969e-12
4.3364081e-12
4.3364082e-12
4.3315972e-12
4.3276721e-12
4.326476e-12
4.3314803e-12
4.3332102e-12
4.324411e-12
4.3176077e-12
4.2705105e-12
4.1285418e-12
3.8873553e-12
4.097631e-12
4.1644593e-12
4.1743913e-12
4.1866893e-12
4.183879e-12
4.1820393e-12
4.1851576e-12
4.1893779e-12
4.1942755e-12
4.1942756e-12
4.1893782e-12
4.1851582e-12
4.18204e-12
4.1838798e-12
4.1866904e-12
4.1743928e-12
4.1644613e-12
4.0976342e-12
3.8873595e-12
0
0
3.9046123e-12
3.9225446e-12
3.944254e-12
3.9496815e-12
3.9479526e-12
3.9516778e-12
3.9559775e-12
3.9609143e-12
3.9609144e-12
3.9559778e-12
3.9516785e-12
3.9479533e-12
3.9496823e-12
3.9442551e-12
3.9225461e-12
3.9046142e-12
0
0
0
0
0
0
0
0
0
0
0
0
0
0
0
0
0
0
0
0
0
0
0
0
0
0
0
0
0
0
0
0
0
0
0
0
0
0
0
0
0
0
0
0
0
0
0
0
0
0
0
0
0
0
0
0
0
0
0
0
0
0
0
0
0
0
0
0
0
0
0
0
0
0
0
0
0
0
0
0
0
0
0
0
0
0
0
0
0
0
0
0
0
0
0
0
0
0
0
0
0
0
)
;

boundaryField
{
    Wall
    {
        type            zeroGradient;
    }
    frontAndBack
    {
        type            empty;
    }
    atmosphere
    {
        type            zeroGradient;
    }
}


// ************************************************************************* //
