/*--------------------------------*- C++ -*----------------------------------*\
| =========                 |                                                 |
| \\      /  F ield         | OpenFOAM: The Open Source CFD Toolbox           |
|  \\    /   O peration     | Version:  3.0.1                                 |
|   \\  /    A nd           | Web:      www.OpenFOAM.org                      |
|    \\/     M anipulation  |                                                 |
\*---------------------------------------------------------------------------*/
FoamFile
{
    version     2.0;
    format      ascii;
    class       volScalarField;
    location    "34";
    object      node0;
}
// * * * * * * * * * * * * * * * * * * * * * * * * * * * * * * * * * * * * * //

dimensions      [0 0 0 0 0 0 0];

internalField   nonuniform List<scalar> 
800
(
0
0
0
0
0
0
0
0
0
0
0
0
0
0
0
0
0
0
0
0
0
0
0
0
0
0
0
0
0
0
0
0
0
0
0
0
0
0
0
0
0
0
0
0
0
0
0
0
0
0
0
0
0
0
0
0
0
0
0
0
0
0
0
0
0
0
0
0
0
0
0
0
0
0
0
0
0
0
0
0
0
0
0
0
0
0
0
0
0
0
0
0
0
0
0
0
0
0
0
0
0
0
0
0
0
0
0
0
0
0
0
0
0
0
0
0
0
0
0
0
0
0
0
0
0
0
0
0
0
0
0
0
0
0
0
0
0
0
0
0
0
0
0
0
0
0
0
0
0
0
0
0
0
0
0
0
0
0
0
0
0
0
0
0
0
0
0
0
0
0
0
0
0
0
0
0
0
0
0
0
0
0
0
0
0
0
0
0
0
0
0
0
0
0
0
0
0
0
0
0
0
0
0
0
0
0
0
0
0
0
0
0
0
0
0
0
0
0
0
0
7.903924e-14
0
0
0
0
0
0
0
0
0
0
0
0
0
0
0
0
0
0
7.9039121e-14
4.498552e-13
4.1939001e-13
3.9529914e-13
3.9382017e-13
4.0133463e-13
4.0516253e-13
4.048451e-13
4.0466658e-13
4.0473069e-13
4.0472172e-13
4.0472169e-13
4.0473062e-13
4.046665e-13
4.0484492e-13
4.0516235e-13
4.0133436e-13
3.9381979e-13
3.9529874e-13
4.1938951e-13
4.4985432e-13
6.9561815e-13
7.0012209e-13
6.7877089e-13
6.7669559e-13
6.8867061e-13
6.9540852e-13
6.941671e-13
6.9397026e-13
6.9419064e-13
6.9417184e-13
6.9417177e-13
6.9419043e-13
6.9396996e-13
6.9416661e-13
6.9540795e-13
6.8866991e-13
6.7669472e-13
6.7876999e-13
7.0012111e-13
6.9561688e-13
8.3640014e-13
8.6088784e-13
8.4402962e-13
8.4134985e-13
8.5706375e-13
8.6544076e-13
8.6302582e-13
8.627481e-13
8.6315489e-13
8.6317403e-13
8.6317393e-13
8.631546e-13
8.6274766e-13
8.6302515e-13
8.6543996e-13
8.570628e-13
8.4134868e-13
8.4402844e-13
8.6088658e-13
8.3639859e-13
9.3571544e-13
9.6973058e-13
9.5757691e-13
9.5422816e-13
9.7170562e-13
9.7983832e-13
9.7691789e-13
9.764482e-13
9.7698445e-13
9.7715784e-13
9.7715773e-13
9.7698412e-13
9.7644769e-13
9.7691713e-13
9.798374e-13
9.7170455e-13
9.5422687e-13
9.5757562e-13
9.697292e-13
9.3571375e-13
1.040518e-12
1.0746948e-12
1.0659376e-12
1.0619583e-12
1.078933e-12
1.0856953e-12
1.0827126e-12
1.0819386e-12
1.0824981e-12
1.0829957e-12
1.0829956e-12
1.0824977e-12
1.0819381e-12
1.0827118e-12
1.0856943e-12
1.0789319e-12
1.061957e-12
1.0659363e-12
1.0746934e-12
1.0405163e-12
1.1673202e-12
1.1959921e-12
1.1890897e-12
1.184723e-12
1.1996979e-12
1.2046279e-12
1.201569e-12
1.2003891e-12
1.2008187e-12
1.2018146e-12
1.2018144e-12
1.2008183e-12
1.2003886e-12
1.2015683e-12
1.204627e-12
1.1996969e-12
1.1847217e-12
1.1890885e-12
1.1959907e-12
1.1673184e-12
1.3164552e-12
1.3374281e-12
1.3311109e-12
1.3267223e-12
1.339165e-12
1.3421183e-12
1.3387675e-12
1.3370918e-12
1.337179e-12
1.3387913e-12
1.3387912e-12
1.3371787e-12
1.3370913e-12
1.3387668e-12
1.3421174e-12
1.339164e-12
1.3267211e-12
1.3311098e-12
1.3374268e-12
1.3164534e-12
1.4831837e-12
1.4964437e-12
1.4898089e-12
1.4857568e-12
1.4957693e-12
1.4967859e-12
1.4929642e-12
1.4907308e-12
1.4902415e-12
1.492492e-12
1.4924919e-12
1.4902412e-12
1.4907303e-12
1.4929635e-12
1.4967851e-12
1.4957683e-12
1.4857557e-12
1.4898078e-12
1.4964424e-12
1.4831819e-12
1.6623578e-12
1.6689855e-12
1.6615286e-12
1.6580525e-12
1.6659806e-12
1.6652783e-12
1.660954e-12
1.6581514e-12
1.656931e-12
1.65974e-12
1.6597399e-12
1.6569307e-12
1.6581509e-12
1.6609533e-12
1.6652776e-12
1.6659797e-12
1.6580514e-12
1.6615275e-12
1.6689843e-12
1.662356e-12
1.8496275e-12
1.8510992e-12
1.8427456e-12
1.8399384e-12
1.8461826e-12
1.8440844e-12
1.8393618e-12
1.8360408e-12
1.8341124e-12
1.8373266e-12
1.8373265e-12
1.8341122e-12
1.8360404e-12
1.8393613e-12
1.8440837e-12
1.8461818e-12
1.8399374e-12
1.8427445e-12
1.851098e-12
1.8496257e-12
2.0411423e-12
2.0389618e-12
2.0300641e-12
2.0278726e-12
2.032898e-12
2.0297156e-12
2.0246929e-12
2.0209655e-12
2.018547e-12
2.0219865e-12
2.0219864e-12
2.0185468e-12
2.0209652e-12
2.0246924e-12
2.0297149e-12
2.0328973e-12
2.0278717e-12
2.0300631e-12
2.0389606e-12
2.0411407e-12
2.2324881e-12
2.2282485e-12
2.2195124e-12
2.2176993e-12
2.2220341e-12
2.2179642e-12
2.2126375e-12
2.2086715e-12
2.2061054e-12
2.209614e-12
2.209614e-12
2.2061052e-12
2.2086712e-12
2.2126371e-12
2.2179636e-12
2.2220335e-12
2.2176985e-12
2.2195115e-12
2.2282474e-12
2.2324867e-12
2.4170715e-12
2.4129474e-12
2.4051703e-12
2.4033799e-12
2.4073201e-12
2.4025106e-12
2.3968553e-12
2.3928709e-12
2.3905373e-12
2.3940225e-12
2.3940224e-12
2.3905371e-12
2.3928706e-12
2.3968549e-12
2.4025101e-12
2.4073195e-12
2.4033792e-12
2.4051695e-12
2.4129465e-12
2.4170704e-12
2.5844756e-12
2.5839332e-12
2.5777208e-12
2.5754568e-12
2.5786365e-12
2.5733085e-12
2.5674019e-12
2.563667e-12
2.5619486e-12
2.5653988e-12
2.5653987e-12
2.5619485e-12
2.5636668e-12
2.5674017e-12
2.5733082e-12
2.5786361e-12
2.5754562e-12
2.5777201e-12
2.5839325e-12
2.5844749e-12
2.7192438e-12
2.7275723e-12
2.7233956e-12
2.7195592e-12
2.7208617e-12
2.7151304e-12
2.7091039e-12
2.7058988e-12
2.7051855e-12
2.7086606e-12
2.7086606e-12
2.7051855e-12
2.7058988e-12
2.7091038e-12
2.7151302e-12
2.7208615e-12
2.7195589e-12
2.7233952e-12
2.727572e-12
2.7192437e-12
2.8012882e-12
2.8251882e-12
2.8238627e-12
2.8165263e-12
2.8141229e-12
2.8078322e-12
2.8016208e-12
2.7991456e-12
2.7997769e-12
2.8033781e-12
2.8033781e-12
2.799777e-12
2.7991457e-12
2.8016209e-12
2.8078323e-12
2.8141229e-12
2.8165263e-12
2.8238628e-12
2.8251885e-12
2.8012891e-12
2.8097671e-12
2.8558704e-12
2.858843e-12
2.84549e-12
2.8374363e-12
2.829809e-12
2.8228719e-12
2.8210978e-12
2.8231924e-12
2.8270237e-12
2.8270238e-12
2.8231927e-12
2.8210981e-12
2.8228723e-12
2.8298094e-12
2.8374368e-12
2.8454906e-12
2.8588436e-12
2.8558716e-12
2.8097692e-12
2.7303325e-12
2.8030248e-12
2.8117253e-12
2.790547e-12
2.7753399e-12
2.7650379e-12
2.7563751e-12
2.7549462e-12
2.7582713e-12
2.7624163e-12
2.7624165e-12
2.7582717e-12
2.7549468e-12
2.7563758e-12
2.7650386e-12
2.7753408e-12
2.7905481e-12
2.8117267e-12
2.8030272e-12
2.7303359e-12
2.5611712e-12
2.6610496e-12
2.6763885e-12
2.6472787e-12
2.623057e-12
2.6082631e-12
2.5980268e-12
2.59642e-12
2.6005328e-12
2.6050514e-12
2.6050516e-12
2.6005333e-12
2.5964207e-12
2.5980277e-12
2.6082642e-12
2.6230583e-12
2.6472803e-12
2.6763904e-12
2.6610529e-12
2.5611758e-12
2.313487e-12
2.4379534e-12
2.457065e-12
2.4207013e-12
2.3874424e-12
2.3652169e-12
2.3531933e-12
2.3535999e-12
2.3580854e-12
2.3629985e-12
2.3629988e-12
2.358086e-12
2.3536009e-12
2.3531944e-12
2.3652181e-12
2.3874439e-12
2.4207032e-12
2.4570674e-12
2.4379572e-12
2.3134919e-12
2.0155355e-12
2.1482355e-12
2.1680311e-12
2.1238479e-12
2.0837268e-12
2.0509496e-12
2.0348204e-12
2.0412704e-12
2.0456561e-12
2.0508759e-12
2.0508762e-12
2.0456568e-12
2.0412714e-12
2.0348216e-12
2.0509509e-12
2.0837283e-12
2.1238498e-12
2.1680335e-12
2.148239e-12
2.0155397e-12
1.6700326e-12
1.8159757e-12
1.8323227e-12
1.7781562e-12
1.7321684e-12
1.6871521e-12
1.6733495e-12
1.6778261e-12
1.6814382e-12
1.6867359e-12
1.6867362e-12
1.6814389e-12
1.6778272e-12
1.6733507e-12
1.6871534e-12
1.7321699e-12
1.7781579e-12
1.8323248e-12
1.8159784e-12
1.6700361e-12
0
0
1.4607524e-12
1.398104e-12
1.3470765e-12
1.3059406e-12
1.2815648e-12
1.2781647e-12
1.28047e-12
1.2856e-12
1.2856004e-12
1.2804706e-12
1.2781657e-12
1.2815658e-12
1.3059419e-12
1.3470779e-12
1.3981057e-12
1.4607542e-12
0
0
0
0
0
0
0
0
0
0
0
0
0
0
0
0
0
0
0
0
0
0
0
0
0
0
0
0
0
0
0
0
0
0
0
0
0
0
0
0
0
0
0
0
0
0
0
0
0
0
0
0
0
0
0
0
0
0
0
0
0
0
0
0
0
0
0
0
0
0
0
0
0
0
0
0
0
0
0
0
0
0
0
0
0
0
0
0
0
0
0
0
0
0
0
0
0
0
0
0
0
0
)
;

boundaryField
{
    Wall
    {
        type            zeroGradient;
    }
    frontAndBack
    {
        type            empty;
    }
    atmosphere
    {
        type            zeroGradient;
    }
}


// ************************************************************************* //
