/*--------------------------------*- C++ -*----------------------------------*\
| =========                 |                                                 |
| \\      /  F ield         | OpenFOAM: The Open Source CFD Toolbox           |
|  \\    /   O peration     | Version:  3.0.1                                 |
|   \\  /    A nd           | Web:      www.OpenFOAM.org                      |
|    \\/     M anipulation  |                                                 |
\*---------------------------------------------------------------------------*/
FoamFile
{
    version     2.0;
    format      ascii;
    class       surfaceScalarField;
    location    "34";
    object      phi;
}
// * * * * * * * * * * * * * * * * * * * * * * * * * * * * * * * * * * * * * //

dimensions      [0 3 -1 0 0 0 0];

internalField   nonuniform List<scalar> 
1540
(
4.8971839e-10
1.7891602e-08
5.5923409e-10
1.821124e-08
6.0475233e-10
1.8428132e-08
5.9828123e-10
1.857674e-08
5.4278806e-10
1.8669123e-08
4.5512346e-10
1.8722466e-08
3.4995814e-10
1.8751473e-08
2.3624692e-10
1.8766345e-08
1.1875682e-10
1.8773398e-08
-1.1379255e-13
1.8776144e-08
-1.1898233e-10
1.8776141e-08
-2.3646633e-10
1.8773387e-08
-3.5016754e-10
1.8766327e-08
-4.5531878e-10
1.8751448e-08
-5.4296503e-10
1.8722434e-08
-5.9843504e-10
1.8669084e-08
-6.0487849e-10
1.8576693e-08
-5.5933126e-10
1.8428077e-08
-4.8979174e-10
1.8211178e-08
1.7891537e-08
4.6683353e-10
2.5233095e-08
5.4159527e-10
2.5609023e-08
5.9411693e-10
2.5908041e-08
5.9266816e-10
2.6111382e-08
5.4046724e-10
2.6238097e-08
4.5492264e-10
2.6312011e-08
3.5084203e-10
2.6352801e-08
2.3734291e-10
2.6374087e-08
1.1946039e-10
2.6384384e-08
-1.0851197e-13
2.6388477e-08
-1.1967541e-10
2.6388473e-08
-2.3755205e-10
2.6384371e-08
-3.5104139e-10
2.6374066e-08
-4.5510825e-10
2.6352771e-08
-5.4063484e-10
2.6311972e-08
-5.9281305e-10
2.6238049e-08
-5.9423476e-10
2.6111323e-08
-5.4168472e-10
2.5907972e-08
-4.6690021e-10
2.5608945e-08
2.5233013e-08
4.4980458e-10
3.5417397e-08
5.3060102e-10
3.5964313e-08
5.8600148e-10
3.6364808e-08
5.862749e-10
3.663276e-08
5.3578823e-10
3.6799162e-08
4.5205517e-10
3.6896095e-08
3.494551e-10
3.6949327e-08
2.3686167e-10
3.69768e-08
1.1936871e-10
3.6989858e-08
-9.7163996e-14
3.6994947e-08
-1.1956123e-10
3.6994941e-08
-2.3704889e-10
3.6989841e-08
-3.4963349e-10
3.6976772e-08
-4.5222097e-10
3.6949288e-08
-5.3593736e-10
3.6896044e-08
-5.8640295e-10
3.6799099e-08
-5.8610441e-10
3.6632684e-08
-5.3067746e-10
3.6364718e-08
-4.4985947e-10
3.5964212e-08
3.5417288e-08
4.4786461e-10
4.6978406e-08
5.2824009e-10
4.7696774e-08
5.8221624e-10
4.820798e-08
5.8079195e-10
4.8546578e-08
5.2983501e-10
4.8756578e-08
4.4690147e-10
4.8879292e-08
3.4566095e-10
4.8946964e-08
2.3446913e-10
4.8982021e-08
1.1823694e-10
4.8998729e-08
-8.2925515e-14
4.900525e-08
-1.1840123e-10
4.9005243e-08
-2.3462887e-10
4.8998708e-08
-3.4581301e-10
4.8981985e-08
-4.4704247e-10
4.8946915e-08
-5.2996123e-10
4.8879227e-08
-5.808995e-10
4.8756499e-08
-5.8230156e-10
4.8546482e-08
-5.2830208e-10
4.8207868e-08
-4.4790774e-10
4.7696649e-08
4.6978273e-08
4.4913044e-10
5.9041659e-08
5.2911731e-10
5.9933023e-08
5.8111959e-10
6.0558681e-08
5.7725458e-10
6.0969975e-08
5.2493664e-10
6.1224661e-08
4.4199338e-10
6.1373852e-08
3.4161149e-10
6.1456546e-08
2.3167591e-10
6.1499697e-08
1.1683394e-10
6.1520447e-08
-6.806352e-14
6.1528614e-08
-1.1696873e-10
6.1528606e-08
-2.3180688e-10
6.1520422e-08
-3.4173588e-10
6.1499654e-08
-4.4210838e-10
6.1456487e-08
-5.2503894e-10
6.1373776e-08
-5.7734093e-10
6.1224567e-08
-5.8118723e-10
6.0969863e-08
-5.2916541e-10
6.0558551e-08
-4.4916295e-10
5.9932878e-08
5.9041506e-08
4.506384e-10
7.1330601e-08
5.3179014e-10
7.2395935e-08
5.8253953e-10
7.3137508e-08
5.764428e-10
7.3621866e-08
5.2243879e-10
7.3921017e-08
4.3889645e-10
7.4096278e-08
3.3876891e-10
7.4193664e-08
2.2958771e-10
7.4244725e-08
1.1574819e-10
7.4269444e-08
-5.3804404e-14
7.4279239e-08
-1.1585477e-10
7.427923e-08
-2.2969107e-10
7.4269416e-08
-3.388668e-10
7.4244677e-08
-4.3898645e-10
7.4193597e-08
-5.2251819e-10
7.4096192e-08
-5.7650906e-10
7.3920912e-08
-5.8259059e-10
7.3621741e-08
-5.3182565e-10
7.3137364e-08
-4.5066156e-10
7.2395776e-08
7.1330433e-08
4.5400522e-10
8.3754356e-08
5.3560363e-10
8.4997158e-08
5.8555793e-10
8.585658e-08
5.7755493e-10
8.6414983e-08
5.2188748e-10
8.6758805e-08
4.3748723e-10
8.6960018e-08
3.3720442e-10
8.7071921e-08
2.2833204e-10
8.713077e-08
1.1506767e-10
8.7159398e-08
-4.0587454e-14
8.71708e-08
-1.1514798e-10
8.717079e-08
-2.2840974e-10
8.7159367e-08
-3.3727772e-10
8.7130719e-08
-4.3755414e-10
8.7071849e-08
-5.2194596e-10
8.6959925e-08
-5.7760308e-10
8.6758691e-08
-5.8559431e-10
8.6414849e-08
-5.356281e-10
8.5856427e-08
-4.5402045e-10
8.499699e-08
8.3754179e-08
4.5840228e-10
9.6250067e-08
5.406067e-10
9.7672561e-08
5.9001931e-10
9.8652249e-08
5.804248e-10
9.9286526e-08
5.2319451e-10
9.9676019e-08
4.3776955e-10
9.9903658e-08
3.3698732e-10
1.0003032e-07
2.2799608e-10
1.0009709e-07
1.1485003e-10
1.0012972e-07
-2.8365695e-14
1.0014277e-07
-1.1490606e-10
1.0014276e-07
-2.2805016e-10
1.0012968e-07
-3.3703798e-10
1.0009704e-07
-4.3781534e-10
1.0003024e-07
-5.2323395e-10
9.990356e-08
-5.8045666e-10
9.96759e-08
-5.9004267e-10
9.9286385e-08
-5.4062169e-10
9.8652089e-08
-4.5841088e-10
9.7672387e-08
9.6249886e-08
4.6406347e-10
1.0875074e-07
5.4727806e-10
1.1034214e-07
5.9659726e-10
1.1144504e-07
5.8558509e-10
1.1215802e-07
5.2673624e-10
1.1259514e-07
4.400329e-10
1.128504e-07
3.3835088e-10
1.1299257e-07
2.2875076e-10
1.1306777e-07
1.1518646e-10
1.1310471e-07
-1.6884041e-14
1.1311958e-07
-1.1521982e-10
1.1311957e-07
-2.2878271e-10
1.1310468e-07
-3.3838046e-10
1.1306771e-07
-4.4005915e-10
1.1299249e-07
-5.2675824e-10
1.128503e-07
-5.8560216e-10
1.1259502e-07
-5.9660905e-10
1.1215788e-07
-5.472848e-10
1.1144487e-07
-4.6406647e-10
1.1034196e-07
1.0875055e-07
4.71701e-10
1.2099316e-07
5.5827316e-10
1.2278413e-07
6.0875522e-10
1.2402417e-07
5.9589895e-10
1.2482654e-07
5.34617e-10
1.2531821e-07
4.4582773e-10
1.2560611e-07
3.4241368e-10
1.2576753e-07
2.3132886e-10
1.2585382e-07
1.164409e-10
1.258968e-07
-6.1636126e-15
1.2591432e-07
-1.1645298e-10
1.2591431e-07
-2.3134013e-10
1.2589676e-07
-3.4242369e-10
1.2585376e-07
-4.4583601e-10
1.2576744e-07
-5.3462317e-10
1.25606e-07
-5.9590277e-10
1.2531808e-07
-6.087568e-10
1.2482639e-07
-5.5827283e-10
1.2402399e-07
-4.7169941e-10
1.2278394e-07
1.2099296e-07
4.7794436e-10
1.3332821e-07
5.8431816e-10
1.3532338e-07
6.3584258e-10
1.3667861e-07
6.184566e-10
1.3754904e-07
5.5227057e-10
1.380797e-07
4.5925845e-10
1.3838826e-07
3.5213803e-10
1.3855968e-07
2.3766281e-10
1.3865027e-07
1.1956904e-10
1.3869481e-07
3.430532e-15
1.3871276e-07
-1.1956206e-10
1.3871275e-07
-2.3765573e-10
1.3869478e-07
-3.5213074e-10
1.3865021e-07
-4.5925104e-10
1.385596e-07
-5.5226316e-10
1.3838816e-07
-6.1844939e-10
1.3807957e-07
-6.3583583e-10
1.3754889e-07
-5.8431238e-10
1.3667845e-07
-4.779396e-10
1.3532321e-07
1.3332803e-07
4.9610493e-10
1.4595518e-07
6.0535706e-10
1.4811746e-07
6.5750787e-10
1.4959237e-07
6.3680793e-10
1.5053617e-07
5.6678983e-10
1.5110972e-07
4.7044955e-10
1.5144203e-07
3.6031148e-10
1.5162578e-07
2.4300931e-10
1.5172236e-07
1.2221583e-10
1.5176959e-07
1.397898e-14
1.5178853e-07
-1.2218804e-10
1.5178852e-07
-2.4298216e-10
1.5176956e-07
-3.6028524e-10
1.517223e-07
-4.7042493e-10
1.516257e-07
-5.6676735e-10
1.5144194e-07
-6.3678827e-10
1.511096e-07
-6.5749178e-10
1.5053604e-07
-6.0534504e-10
1.4959223e-07
-4.9609633e-10
1.481173e-07
1.4595502e-07
5.0818631e-10
1.5873224e-07
6.2190141e-10
1.6108375e-07
6.7519566e-10
1.6268171e-07
6.5287312e-10
1.6370107e-07
5.800909e-10
1.6431863e-07
4.808893e-10
1.6467533e-07
3.6798355e-10
1.6487178e-07
2.4804259e-10
1.6497465e-07
1.247069e-10
1.6502479e-07
2.521339e-14
1.6504481e-07
-1.2465689e-10
1.650448e-07
-2.479939e-10
1.6502476e-07
-3.6793721e-10
1.649746e-07
-4.8084632e-10
1.6487171e-07
-5.800523e-10
1.6467525e-07
-6.5284014e-10
1.6431853e-07
-6.7516952e-10
1.6370095e-07
-6.218828e-10
1.6268157e-07
-5.0817421e-10
1.610836e-07
1.5873209e-07
5.2366111e-10
1.7163597e-07
6.397355e-10
1.7415165e-07
6.9376574e-10
1.758864e-07
6.6977974e-10
1.7698445e-07
5.9428036e-10
1.7764787e-07
4.9198714e-10
1.7803006e-07
3.7615379e-10
1.7824015e-07
2.5340677e-10
1.7835001e-07
1.2735164e-10
1.7840354e-07
3.675281e-14
1.7842489e-07
-1.2727887e-10
1.7842488e-07
-2.5333615e-10
1.7840351e-07
-3.7608683e-10
1.7834996e-07
-4.919255e-10
1.7824008e-07
-5.9422541e-10
1.7802998e-07
-6.6973307e-10
1.7764776e-07
-6.9372873e-10
1.7698433e-07
-6.397092e-10
1.7588627e-07
-5.2364481e-10
1.7415153e-07
1.7163582e-07
5.3562973e-10
1.8362579e-07
6.7169001e-10
1.8638121e-07
7.1657449e-10
1.8825176e-07
6.8991266e-10
1.8944679e-07
6.1074451e-10
1.9016804e-07
5.0477313e-10
1.9058516e-07
3.8552699e-10
1.9081642e-07
2.5957363e-10
1.90939e-07
1.3036564e-10
1.909999e-07
4.7836528e-14
1.9102436e-07
-1.302708e-10
1.9102435e-07
-2.5948176e-10
1.9099985e-07
-3.8544027e-10
1.9093893e-07
-5.0469355e-10
1.9081632e-07
-6.1067363e-10
1.9058504e-07
-6.8985204e-10
1.901679e-07
-7.1652639e-10
1.8944665e-07
-6.7163424e-10
1.8825161e-07
-5.3563183e-10
1.8638103e-07
1.8362563e-07
5.4877715e-10
1.9686661e-07
7.1394342e-10
1.9982654e-07
7.6158925e-10
2.0180687e-07
7.258285e-10
2.0305582e-07
6.3959854e-10
2.0380472e-07
5.2712388e-10
2.042333e-07
4.0201058e-10
2.0446753e-07
2.7057223e-10
2.0458918e-07
1.3560643e-10
2.0464834e-07
5.1769943e-14
2.0467157e-07
-1.3550293e-10
2.0467156e-07
-2.7047006e-10
2.046483e-07
-4.019107e-10
2.0458913e-07
-5.2702859e-10
2.0446745e-07
-6.3951048e-10
2.0423321e-07
-7.2575082e-10
2.0380461e-07
-7.615247e-10
2.0305569e-07
-7.1389739e-10
2.0180672e-07
-5.4875254e-10
1.9982638e-07
1.9686643e-07
5.7387156e-10
2.1020884e-07
7.4322406e-10
2.1335385e-07
7.8793854e-10
2.1547271e-07
7.4830385e-10
2.1680152e-07
6.5760431e-10
2.1759497e-07
5.4091739e-10
2.1804851e-07
4.1189284e-10
2.1829641e-07
2.772101e-10
2.1842535e-07
1.3866621e-10
2.1848872e-07
5.9962256e-14
2.1851347e-07
-1.3854708e-10
2.1851347e-07
-2.7709252e-10
2.1848872e-07
-4.1177906e-10
2.1842535e-07
-5.4080996e-10
2.1829641e-07
-6.5750576e-10
2.180485e-07
-7.4821761e-10
2.1759495e-07
-7.8786919e-10
2.1680149e-07
-7.431761e-10
2.1547267e-07
-5.7384721e-10
2.133538e-07
2.1020878e-07
5.9025113e-10
2.2398365e-07
7.8835573e-10
2.2734776e-07
8.206249e-10
2.295725e-07
7.7357553e-10
2.3095894e-07
6.7765874e-10
2.3178024e-07
5.5601881e-10
2.3224468e-07
4.2263093e-10
2.3249509e-07
2.8481672e-10
2.3262305e-07
1.4200323e-10
2.3268486e-07
7.889022e-14
2.3270861e-07
-1.4184743e-10
2.327086e-07
-2.8466611e-10
2.3268484e-07
-4.224888e-10
2.3262303e-07
-5.558885e-10
2.3249505e-07
-6.7754303e-10
2.3224463e-07
-7.7347843e-10
2.3178019e-07
-8.2054859e-10
2.3095888e-07
-7.8830377e-10
2.2957243e-07
-5.9022607e-10
2.2734768e-07
2.2398357e-07
6.2496054e-10
2.3845661e-07
8.2051488e-10
2.4201778e-07
8.4235133e-10
2.443579e-07
7.8905827e-10
2.4580653e-07
6.8844645e-10
2.4665806e-07
5.6284219e-10
2.4713522e-07
4.2688365e-10
2.473898e-07
2.8811729e-10
2.475182e-07
1.4339672e-10
2.4757945e-07
8.8979848e-14
2.4760265e-07
-1.4321984e-10
2.4760265e-07
-2.8794686e-10
2.4757944e-07
-4.2672257e-10
2.4751818e-07
-5.6269468e-10
2.4738978e-07
-6.8831608e-10
2.4713519e-07
-7.8894876e-10
2.4665803e-07
-8.4226577e-10
2.4580649e-07
-8.2045699e-10
2.4435786e-07
-6.2493266e-10
2.4201774e-07
2.3845656e-07
6.6051323e-10
2.5347344e-07
8.5181283e-10
2.5723054e-07
8.6071558e-10
2.5968014e-07
7.9968398e-10
2.6118381e-07
6.9319141e-10
2.6205924e-07
5.6374333e-10
2.6254427e-07
4.2636516e-10
2.6279944e-07
2.8822953e-10
2.6292565e-07
1.4336874e-10
2.6298443e-07
9.9988723e-14
2.6300615e-07
-1.4317058e-10
2.6300615e-07
-2.8803791e-10
2.6298443e-07
-4.2618398e-10
2.6292564e-07
-5.6357725e-10
2.6279944e-07
-6.9304527e-10
2.6254426e-07
-7.9956093e-10
2.6205923e-07
-8.6062054e-10
2.6118381e-07
-8.5174822e-10
2.5968013e-07
-6.6048225e-10
2.5723054e-07
2.5347343e-07
6.9758635e-10
2.6913096e-07
8.800094e-10
2.7308442e-07
8.7313639e-10
2.7563432e-07
8.0269429e-10
2.771838e-07
6.8918523e-10
2.7807498e-07
5.5633146e-10
2.7856195e-07
4.190586e-10
2.7881355e-07
2.8354949e-10
2.7893434e-07
1.4115386e-10
2.7898835e-07
1.1148839e-13
2.7900743e-07
-1.4093271e-10
2.7900743e-07
-2.8333576e-10
2.7898835e-07
-4.1885681e-10
2.7893435e-07
-5.561459e-10
2.7881356e-07
-6.8902169e-10
2.7856197e-07
-8.0255679e-10
2.7807501e-07
-8.7303036e-10
2.7718384e-07
-8.7993729e-10
2.7563436e-07
-6.9755136e-10
2.7308447e-07
2.6913101e-07
7.3131204e-10
2.8554314e-07
9.0188663e-10
2.896877e-07
8.7643064e-10
2.9232803e-07
7.9430419e-10
2.9391217e-07
6.7337245e-10
2.9480935e-07
5.3813039e-10
2.9529087e-07
4.0273731e-10
2.9553343e-07
2.7229279e-10
2.9564475e-07
1.3587025e-10
2.9569141e-07
1.2431258e-13
2.9570647e-07
-1.3562451e-10
2.9570647e-07
-2.7205434e-10
2.9569143e-07
-4.0251223e-10
2.9564478e-07
-5.3792306e-10
2.9553347e-07
-6.7318913e-10
2.9529092e-07
-7.9415056e-10
2.9480941e-07
-8.7631149e-10
2.9391225e-07
-9.0180523e-10
2.9232812e-07
-7.312692e-10
2.8968779e-07
2.8554323e-07
7.6260188e-10
3.0283303e-07
9.1354881e-10
3.0716434e-07
8.6547261e-10
3.0988213e-07
7.6930844e-10
3.1148725e-07
6.4125165e-10
3.123791e-07
5.054111e-10
3.1284541e-07
3.7432395e-10
3.1307138e-07
2.5235873e-10
3.13168e-07
1.2635093e-10
3.1320434e-07
1.3854381e-13
3.1321379e-07
-1.260766e-10
3.132138e-07
-2.5209285e-10
3.1320437e-07
-3.7407189e-10
3.1316805e-07
-5.0517881e-10
3.1307145e-07
-6.4104537e-10
3.128455e-07
-7.6913573e-10
3.1237921e-07
-8.6533931e-10
3.1148737e-07
-9.1345978e-10
3.0988226e-07
-7.6255887e-10
3.0716448e-07
3.0283317e-07
7.8522936e-10
3.2113793e-07
9.0981189e-10
3.256491e-07
8.3352476e-10
3.2843117e-07
7.2176949e-10
3.300419e-07
5.8693424e-10
3.3091548e-07
4.532832e-10
3.3135421e-07
3.3031659e-10
3.3155378e-07
2.2181203e-10
3.3162908e-07
1.1147588e-10
3.3165137e-07
1.5500911e-13
3.3165337e-07
-1.1116889e-10
3.3165338e-07
-2.2151411e-10
3.3165141e-07
-3.3003368e-10
3.3162915e-07
-4.5302124e-10
3.3155387e-07
-5.8670148e-10
3.3135433e-07
-7.215743e-10
3.3091562e-07
-8.3337477e-10
3.3004207e-07
-9.0971194e-10
3.2843135e-07
-7.851815e-10
3.2564928e-07
3.2113811e-07
7.9431241e-10
3.4060185e-07
8.8296211e-10
3.4528862e-07
7.7111408e-10
3.481215e-07
6.4390309e-10
3.4972256e-07
5.0247804e-10
3.5056211e-07
3.7528902e-10
3.5095895e-07
2.663985e-10
3.5112076e-07
1.7841817e-10
3.5116685e-07
9.0027129e-11
3.5117086e-07
1.7249984e-13
3.5116343e-07
-8.9685141e-11
3.5116345e-07
-1.7808754e-10
3.5117091e-07
-2.6608368e-10
3.5116693e-07
-3.7499657e-10
3.5112088e-07
-5.0221971e-10
3.5095911e-07
-6.4368594e-10
3.5056229e-07
-7.7094783e-10
3.4972278e-07
-8.8285399e-10
3.4812174e-07
-7.9426367e-10
3.4528886e-07
3.4060207e-07
7.7995654e-10
3.6136737e-07
8.2119323e-10
3.6623195e-07
6.6595397e-10
3.6910621e-07
5.2333575e-10
3.7068315e-07
3.7751948e-10
3.7147125e-07
2.6321879e-10
3.71809e-07
1.7739472e-10
3.7192049e-07
1.1909109e-10
3.719293e-07
6.0745033e-11
3.7191036e-07
1.9216128e-13
3.7189172e-07
-6.0363552e-11
3.7189174e-07
-1.187266e-10
3.7191043e-07
-1.7703223e-10
3.7192939e-07
-2.6288854e-10
3.7192064e-07
-3.7723407e-10
3.718092e-07
-5.2309068e-10
3.7147147e-07
-6.6576779e-10
3.7068342e-07
-8.2107383e-10
3.691065e-07
-7.7990476e-10
3.6623225e-07
3.6136764e-07
7.3089049e-10
3.8354824e-07
7.0731891e-10
3.8860899e-07
5.0088398e-10
3.9152762e-07
3.4311999e-10
3.9307176e-07
1.9952993e-10
3.9378915e-07
1.084039e-10
3.9405022e-07
5.8540984e-11
3.9409783e-07
4.1403127e-11
3.9406303e-07
2.2613742e-11
3.9401668e-07
2.0629801e-13
3.9398587e-07
-2.2209984e-11
3.939859e-07
-4.0997148e-11
3.9401675e-07
-5.8165872e-11
3.9406315e-07
-1.0803991e-10
3.94098e-07
-1.991761e-10
3.9405043e-07
-3.4285249e-10
3.9378945e-07
-5.0067186e-10
3.9307208e-07
-7.0718063e-10
3.9152798e-07
-7.3083056e-10
3.8860937e-07
3.8354859e-07
6.3235843e-10
4.0717611e-07
5.1772998e-10
4.1249356e-07
2.5284074e-10
4.1548661e-07
8.0574718e-11
4.1699867e-07
-4.5946394e-11
4.1762333e-07
-9.7407743e-11
4.1779588e-07
-9.6283945e-11
4.177697e-07
-5.7053922e-11
4.1768512e-07
-2.5583925e-11
4.1761014e-07
2.2966432e-13
4.1756728e-07
2.6042813e-11
4.1756731e-07
5.7506674e-11
4.1761021e-07
9.6731157e-11
4.1768525e-07
9.7842219e-11
4.1776987e-07
4.6333283e-11
4.1779613e-07
-8.0208195e-11
4.1762365e-07
-2.5258933e-10
4.169991e-07
-5.1756097e-10
4.1548706e-07
-6.322816e-10
4.1249404e-07
4.0717656e-07
4.6713911e-10
4.3210488e-07
2.2261374e-10
4.3782658e-07
-1.09537e-10
4.4097694e-07
-2.862708e-10
4.4247565e-07
-3.7417468e-10
4.4300632e-07
-3.6110281e-10
4.4307776e-07
-2.8650669e-10
4.4297479e-07
-1.7361327e-10
4.4284111e-07
-8.1411923e-11
4.4274263e-07
2.3260982e-13
4.4269106e-07
8.1892625e-11
4.4269107e-07
1.740969e-10
4.427427e-07
2.8698345e-10
4.4284124e-07
3.6155558e-10
4.4297499e-07
3.7461004e-10
4.4307803e-07
2.8665075e-10
4.430067e-07
1.0992018e-10
4.4247608e-07
-2.2235814e-10
4.4097753e-07
-4.6702549e-10
4.3782723e-07
4.321055e-07
2.1887393e-10
4.5786801e-07
-2.104228e-10
4.6431514e-07
-6.2858213e-10
4.6779171e-07
-7.8851997e-10
4.6933132e-07
-7.9304845e-10
4.6978734e-07
-6.7906148e-10
4.6977926e-07
-5.0926659e-10
4.6961539e-07
-3.0824774e-10
4.694462e-07
-1.4568618e-10
4.6933535e-07
2.6814582e-13
4.6927981e-07
1.4620224e-10
4.6927985e-07
3.0874676e-10
4.6933544e-07
5.0975195e-10
4.6944634e-07
6.7954098e-10
4.6961559e-07
7.9354849e-10
4.6977951e-07
7.8900789e-10
4.6978774e-07
6.289674e-10
4.6933187e-07
2.1069146e-10
4.6779243e-07
-2.1869949e-10
4.6431593e-07
4.578689e-07
-9.6343357e-11
4.835087e-07
-7.9715244e-10
4.9130029e-07
-1.3222248e-09
4.9536275e-07
-1.4307211e-09
4.9707795e-07
-1.2969551e-09
4.9752799e-07
-1.0473163e-09
4.9750391e-07
-7.5764895e-10
4.9733625e-07
-4.4855577e-10
4.9717929e-07
-2.0909409e-10
4.970825e-07
2.7991812e-13
4.9703489e-07
2.0965925e-10
4.9703491e-07
4.4913526e-10
4.9708257e-07
7.5821904e-10
4.9717945e-07
1.047874e-09
4.9733647e-07
1.2974715e-09
4.9750419e-07
1.4312226e-09
4.9752835e-07
1.3227066e-09
4.9707844e-07
7.975447e-10
4.9536345e-07
9.6564749e-11
4.9130131e-07
4.8350995e-07
-4.1416053e-10
5.0844972e-07
-1.504714e-09
5.1755351e-07
-2.1759415e-09
5.2265303e-07
-2.1869444e-09
5.2475705e-07
-1.8169897e-09
5.2539518e-07
-1.3931907e-09
5.2547752e-07
-9.7223783e-10
5.2536829e-07
-5.6301873e-10
5.2538015e-07
-2.5935366e-10
5.2532487e-07
2.8939585e-13
5.2529452e-07
2.5993087e-10
5.2529455e-07
5.6358849e-10
5.2532495e-07
9.7282111e-10
5.2538029e-07
1.3937821e-09
5.2536849e-07
1.8175944e-09
5.2547778e-07
2.1875682e-09
5.253955e-07
2.1765297e-09
5.2475755e-07
1.5053218e-09
5.2265377e-07
4.1466531e-10
5.1755458e-07
5.0845114e-07
-9.9309443e-10
5.4064836e-07
-2.4180068e-09
5.4348098e-07
-3.1278893e-09
5.4844125e-07
-2.9100048e-09
5.5104257e-07
-2.2600985e-09
5.522445e-07
-1.6326136e-09
5.5259889e-07
-1.021065e-09
5.5298868e-07
-5.9943106e-10
5.5307679e-07
-2.7699258e-10
5.530285e-07
2.9908106e-13
5.5300142e-07
2.7759158e-10
5.5300145e-07
6.000316e-10
5.5302857e-07
1.0216679e-09
5.5307692e-07
1.6332447e-09
5.5298885e-07
2.2607299e-09
5.5259916e-07
2.9106675e-09
5.5224486e-07
3.1286134e-09
5.5104312e-07
2.4187867e-09
5.4844203e-07
9.9370265e-10
5.4348186e-07
5.406498e-07
-6.9344903e-09
5.4969384e-07
-3.8343328e-09
5.747689e-07
-4.1212442e-09
5.8085204e-07
-3.2848685e-09
5.8193757e-07
-2.4504733e-09
5.83058e-07
-1.4419662e-09
5.8407537e-07
-8.8896117e-10
5.841603e-07
-5.5951668e-10
5.8394358e-07
-2.718e-10
5.8375859e-07
3.0370188e-13
5.8365347e-07
2.724024e-10
5.8365349e-07
5.6013644e-10
5.8375862e-07
8.8957729e-10
5.8394367e-07
1.4425944e-09
5.841604e-07
2.4511172e-09
5.8407556e-07
3.2855374e-09
5.8305827e-07
4.1219395e-09
5.8193799e-07
3.83501e-09
5.8085274e-07
6.9351967e-09
5.7477078e-07
5.4969896e-07
6.4911408e-09
5.2621344e-07
-2.8193468e-09
5.7071766e-07
-6.4755914e-09
5.8669866e-07
-3.480992e-09
6.0532243e-07
-2.0143705e-09
6.1244128e-07
-1.4306911e-09
6.1523185e-07
-8.5366733e-10
6.1636982e-07
-5.7753591e-10
6.1683216e-07
-2.983193e-10
6.1695622e-07
3.1992746e-13
6.1696367e-07
2.99019e-10
6.1696369e-07
5.7812162e-10
6.1695654e-07
8.5427949e-10
6.1683256e-07
1.4312722e-09
6.1637038e-07
2.01493e-09
6.152326e-07
3.481567e-09
6.1244225e-07
6.4763451e-09
6.0532372e-07
2.8202567e-09
5.8670029e-07
-6.4895011e-09
5.7071961e-07
5.2621956e-07
5.6088331e-08
4.6759033e-07
3.2420607e-08
5.833857e-07
1.1464508e-08
5.9030223e-07
3.829725e-09
5.9456487e-07
1.4211123e-09
5.9681899e-07
7.6983121e-10
5.9860462e-07
4.8316067e-10
5.9847343e-07
2.3084473e-10
5.9787106e-07
7.7571557e-11
5.9734561e-07
3.2515648e-13
5.9703107e-07
-7.6993592e-11
5.9703115e-07
-2.3028828e-10
5.9734585e-07
-4.8260144e-10
5.9787129e-07
-7.6927228e-10
5.9847375e-07
-1.4205883e-09
5.9860547e-07
-3.8291527e-09
5.9681992e-07
-1.1463805e-08
5.9456593e-07
-3.2419558e-08
5.903032e-07
-5.6087422e-08
5.8338719e-07
4.6759693e-07
8.4842423e-08
3.8271037e-07
1.0055979e-07
5.6693195e-07
8.0150683e-08
6.0838092e-07
5.7079523e-08
6.141658e-07
3.8422503e-08
6.1135974e-07
2.2729336e-08
6.0767379e-07
1.3607801e-08
6.070923e-07
8.0677792e-09
6.0706193e-07
3.7027939e-09
6.067346e-07
2.3618663e-13
6.063002e-07
-3.7023095e-09
6.0630028e-07
-8.0672517e-09
6.0673527e-07
-1.3607257e-08
6.0706293e-07
-2.2727949e-08
6.0709337e-07
-3.842158e-08
6.0767442e-07
-5.7078461e-08
6.1136046e-07
-8.0149698e-08
6.1416682e-07
-1.005593e-07
6.0838218e-07
-8.4842312e-08
5.6693378e-07
3.8271708e-07
7.5269544e-08
3.0744079e-07
1.1168769e-07
5.3050906e-07
1.124186e-07
6.0761627e-07
9.6670402e-08
6.2984205e-07
7.5760549e-08
6.321651e-07
5.5461069e-08
6.2785016e-07
3.7974705e-08
6.2174075e-07
2.3425113e-08
6.1628483e-07
1.1038413e-08
6.1239265e-07
1.0155265e-13
6.1037006e-07
-1.1037916e-08
6.103703e-07
-2.3424788e-08
6.1239297e-07
-3.7974386e-08
6.1628528e-07
-5.5460739e-08
6.2174112e-07
-7.5760062e-08
6.2785066e-07
-9.666956e-08
6.3216541e-07
-1.1241747e-07
6.2984277e-07
-1.1168698e-07
6.0761798e-07
-7.5269092e-08
5.305111e-07
3.0744796e-07
5.5422836e-08
2.5201794e-07
9.5262118e-08
4.9066975e-07
1.0767547e-07
5.9520287e-07
1.0178211e-07
6.357353e-07
8.6534813e-08
6.4741214e-07
6.7896588e-08
6.4648811e-07
4.9082463e-08
6.4055453e-07
3.1523687e-08
6.3384323e-07
1.5350088e-08
6.2856587e-07
-2.6266529e-14
6.2563025e-07
-1.5350131e-08
6.2563035e-07
-3.152367e-08
6.2856611e-07
-4.9082364e-08
6.3384362e-07
-6.7896328e-08
6.4055476e-07
-8.6534481e-08
6.4648853e-07
-1.0178181e-07
6.4741249e-07
-1.0767491e-07
6.3573575e-07
-9.5261202e-08
5.9520425e-07
-5.5422617e-08
4.9067254e-07
2.5202532e-07
3.821469e-08
7.1810024e-08
8.8841725e-08
9.0728164e-08
8.2325657e-08
6.827643e-08
5.1610076e-08
3.4262075e-08
1.706498e-08
-1.7565108e-13
-1.7065337e-08
-3.4262355e-08
-5.1610148e-08
-6.8276436e-08
-8.2325871e-08
-9.0728234e-08
-8.8841838e-08
-7.1810103e-08
-3.8215272e-08
)
;

boundaryField
{
    Wall
    {
        type            calculated;
        value           uniform 0;
    }
    frontAndBack
    {
        type            empty;
        value           nonuniform 0();
    }
    atmosphere
    {
        type            calculated;
        value           nonuniform List<scalar> 
20
(
2.1380326e-07
4.5707443e-07
5.7817121e-07
6.3384892e-07
6.5581461e-07
6.6053732e-07
6.5722085e-07
6.5119122e-07
6.4576293e-07
6.4269543e-07
6.4269551e-07
6.4576315e-07
6.5119142e-07
6.5722103e-07
6.6053794e-07
6.5581485e-07
6.3384933e-07
5.781725e-07
4.5707772e-07
2.1381007e-07
)
;
    }
}


// ************************************************************************* //
