/*--------------------------------*- C++ -*----------------------------------*\
| =========                 |                                                 |
| \\      /  F ield         | OpenFOAM: The Open Source CFD Toolbox           |
|  \\    /   O peration     | Version:  3.0.1                                 |
|   \\  /    A nd           | Web:      www.OpenFOAM.org                      |
|    \\/     M anipulation  |                                                 |
\*---------------------------------------------------------------------------*/
FoamFile
{
    version     2.0;
    format      ascii;
    class       volScalarField;
    location    "34";
    object      Psi2;
}
// * * * * * * * * * * * * * * * * * * * * * * * * * * * * * * * * * * * * * //

dimensions      [0 -2 2 0 0 0 0];

internalField   nonuniform List<scalar> 
800
(
0.00054295955
0.00054291691
0.00054291053
0.00054291031
0.00054291066
0.00054291091
0.00054291101
0.00054291102
0.000542911
0.00054291099
0.00054291099
0.000542911
0.00054291102
0.000542911
0.00054291091
0.00054291066
0.0005429103
0.00054291052
0.00054291691
0.00054295955
0.00054507374
0.00054479014
0.00054471559
0.00054469635
0.00054469354
0.00054469496
0.00054469689
0.00054469836
0.00054469925
0.00054469967
0.00054469967
0.00054469925
0.00054469836
0.0005446969
0.00054469496
0.00054469354
0.00054469636
0.0005447156
0.00054479016
0.00054507377
0.00054832118
0.00054783475
0.0005476653
0.00054761776
0.00054760754
0.0005476081
0.00054761087
0.00054761329
0.00054761484
0.00054761558
0.00054761558
0.00054761485
0.00054761329
0.00054761088
0.00054760811
0.00054760755
0.00054761778
0.00054766533
0.00054783479
0.00054832125
0.00055201834
0.00055134766
0.00055108221
0.00055100564
0.00055098725
0.00055098635
0.00055098957
0.00055099271
0.00055099483
0.00055099585
0.00055099585
0.00055099484
0.00055099272
0.00055098959
0.00055098637
0.00055098728
0.00055100567
0.00055108226
0.00055134772
0.00055201843
0.00055577681
0.00055495448
0.00055460138
0.00055449768
0.0005544723
0.00055447025
0.00055447388
0.00055447761
0.00055448018
0.00055448142
0.00055448142
0.00055448018
0.00055447762
0.0005544739
0.00055447028
0.00055447234
0.00055449773
0.00055460143
0.00055495455
0.00055577692
0.0005592796
0.00055835172
0.00055792498
0.00055779803
0.00055776841
0.00055776638
0.00055777086
0.00055777531
0.00055777836
0.00055777982
0.00055777982
0.00055777837
0.00055777533
0.00055777088
0.00055776641
0.00055776845
0.00055779808
0.00055792504
0.0005583518
0.00055927972
0.0005622606
0.00056128023
0.00056079913
0.00056065416
0.00056062387
0.00056062362
0.00056062976
0.0005606353
0.00056063899
0.00056064072
0.00056064073
0.000560639
0.00056063532
0.00056062978
0.00056062365
0.00056062392
0.00056065421
0.00056079919
0.00056128031
0.00056226072
0.00056452743
0.00056354474
0.00056303318
0.0005628764
0.00056284928
0.00056285276
0.0005628615
0.00056286862
0.00056287318
0.00056287528
0.00056287528
0.00056287319
0.00056286864
0.00056286153
0.00056285279
0.00056284933
0.00056287645
0.00056303324
0.00056354481
0.00056452754
0.00056598457
0.00056503676
0.00056452105
0.00056435882
0.00056433806
0.00056434709
0.00056435941
0.00056436863
0.00056437432
0.00056437691
0.00056437691
0.00056437433
0.00056436864
0.00056435943
0.00056434713
0.0005643381
0.00056435887
0.0005645211
0.00056503683
0.00056598467
0.0005666028
0.00056571105
0.00056521866
0.00056505725
0.0005650449
0.0005650609
0.00056507778
0.00056508968
0.00056509681
0.00056510002
0.00056510002
0.00056509682
0.0005650897
0.0005650778
0.00056506093
0.00056504493
0.00056505729
0.00056521871
0.00056571111
0.00056660289
0.00056643475
0.00056559828
0.00056515312
0.00056499754
0.0005649938
0.00056501712
0.00056503934
0.00056505437
0.00056506314
0.00056506709
0.00056506709
0.00056506315
0.00056505438
0.00056503936
0.00056501715
0.00056499383
0.00056499757
0.00056515316
0.00056559833
0.00056643482
0.00056545762
0.00056476184
0.00056438355
0.00056423824
0.00056424222
0.00056427246
0.00056430095
0.00056431967
0.00056433038
0.00056433522
0.00056433522
0.00056433039
0.00056431968
0.00056430096
0.00056427248
0.00056424224
0.00056423827
0.00056438358
0.00056476188
0.00056545767
0.00056361849
0.00056285623
0.00056257929
0.00056245008
0.00056245227
0.0005624845
0.00056252098
0.00056254448
0.00056255744
0.00056256344
0.00056256344
0.00056255745
0.00056254449
0.00056252099
0.00056248452
0.00056245229
0.0005624501
0.00056257931
0.00056285625
0.00056361853
0.00056119129
0.00056034666
0.00056016273
0.0005600515
0.0005600435
0.00056007177
0.00056011897
0.00056014807
0.00056016338
0.00056017081
0.00056017081
0.00056016339
0.00056014808
0.00056011898
0.00056007178
0.00056004352
0.00056005151
0.00056016274
0.00056034668
0.00056119131
0.0005583952
0.00055738019
0.00055725844
0.00055716612
0.00055713846
0.00055715915
0.00055721906
0.00055725498
0.00055727299
0.00055728193
0.00055728193
0.00055727299
0.00055725499
0.00055721907
0.00055715916
0.00055713847
0.00055716613
0.00055725845
0.00055738019
0.00055839522
0.00055536036
0.00055407107
0.00055396223
0.00055388641
0.00055383068
0.00055384238
0.00055391657
0.00055396108
0.00055398269
0.00055399228
0.00055399228
0.0005539827
0.00055396109
0.00055391658
0.00055384239
0.00055383069
0.00055388642
0.00055396224
0.00055407107
0.00055536036
0.0005522113
0.00055053039
0.00055036871
0.00055029958
0.0005502084
0.00055021171
0.00055030425
0.00055035974
0.00055038662
0.000550394
0.000550394
0.00055038662
0.00055035975
0.00055030426
0.00055021172
0.00055020841
0.00055029958
0.0005503687
0.00055053039
0.0005522113
0.00054912152
0.00054690456
0.00054660869
0.00054652467
0.000546388
0.00054638664
0.00054650588
0.00054657508
0.00054661003
0.00054660975
0.00054660975
0.00054661004
0.00054657509
0.00054650589
0.00054638665
0.00054638801
0.00054652467
0.00054660869
0.00054690456
0.00054912152
0.0005463126
0.00054338125
0.00054285581
0.00054272135
0.00054252391
0.00054252595
0.00054268363
0.0005427693
0.00054281715
0.00054280139
0.00054280139
0.00054281717
0.00054276932
0.00054268365
0.00054252596
0.00054252392
0.00054272135
0.00054285581
0.00054338125
0.00054631261
0.00054403488
0.00054017639
0.00053931255
0.00053907839
0.00053880059
0.00053881739
0.00053902587
0.00053913056
0.00053919848
0.0005391582
0.0005391582
0.0005391985
0.00053913058
0.00053902589
0.00053881741
0.0005388006
0.0005390784
0.00053931256
0.00054017639
0.0005440349
0.00054256134
0.00053752509
0.00053619803
0.00053580325
0.00053542306
0.00053546557
0.00053573444
0.00053586036
0.00053595625
0.00053588281
0.00053588281
0.00053595627
0.00053586039
0.00053573447
0.0005354656
0.00053542308
0.00053580326
0.00053619804
0.00053752511
0.00054256137
0.0005421999
0.00053568793
0.00053374975
0.00053312344
0.00053261575
0.00053269123
0.00053302503
0.00053317411
0.00053330299
0.00053318963
0.00053318963
0.00053330301
0.00053317414
0.00053302507
0.00053269126
0.00053261577
0.00053312346
0.00053374977
0.00053568795
0.00054219993
0.00054331285
0.00053496616
0.00053223414
0.00053129508
0.00053062602
0.00053073675
0.00053113646
0.00053131057
0.00053147057
0.0005313134
0.00053131341
0.0005314706
0.00053131061
0.0005311365
0.00053073679
0.00053062606
0.00053129511
0.00053223417
0.00053496618
0.00054331288
0.00054635875
0.00053573104
0.00053196948
0.00053062244
0.00052974055
0.00052988425
0.0005303509
0.00053055223
0.00053073251
0.00053053081
0.00053053082
0.00053073253
0.00053055227
0.00053035095
0.00052988429
0.00052974058
0.00053062247
0.00053196951
0.00053573106
0.00054635877
0.00055196095
0.00053846847
0.00053336594
0.00053148598
0.00053031868
0.00053048465
0.00053101982
0.00053125118
0.00053143285
0.00053118876
0.00053118877
0.00053143287
0.00053125122
0.00053101986
0.00053048469
0.00053031871
0.00053148601
0.00053336596
0.00053846847
0.00055196094
0.00056101632
0.00054384915
0.00053698614
0.00053438628
0.00053284298
0.00053299953
0.00053360039
0.00053386553
0.00053402516
0.00053374306
0.00053374307
0.00053402518
0.00053386557
0.00053360043
0.00053299957
0.00053284301
0.0005343863
0.00053698615
0.00054384912
0.00056101623
0.00057486711
0.00055284477
0.00054363263
0.00054003
0.00053799046
0.00053807568
0.00053872784
0.00053903182
0.00053914613
0.00053883188
0.00053883189
0.00053914616
0.00053903186
0.00053872788
0.00053807572
0.00053799048
0.00054003
0.0005436326
0.00055284466
0.0005748669
0.00059558888
0.00056694626
0.00055450477
0.00054947184
0.00054676011
0.0005466647
0.00054733755
0.00054768744
0.00054773784
0.00054739815
0.00054739816
0.00054773785
0.00054768747
0.00054733758
0.00054666472
0.00054676011
0.00054947181
0.00055450468
0.00056694603
0.00059558845
0.00062649001
0.00058850922
0.00057145352
0.00056436022
0.00056069275
0.00056023222
0.00056087844
0.0005612844
0.00056126037
0.00056090246
0.00056090247
0.00056126038
0.00056128442
0.00056087845
0.00056023221
0.00056069272
0.00056436013
0.00057145332
0.00058850876
0.0006264892
0.00067299862
0.00062135868
0.00059745066
0.00058733026
0.00058218933
0.00058109998
0.0005816535
0.00058212992
0.00058203107
0.00058166292
0.00058166292
0.00058203107
0.00058212992
0.00058165347
0.00058109993
0.00058218923
0.00058733007
0.0005974503
0.00062135786
0.00067299719
0.0007442747
0.0006717797
0.00063735507
0.00062260874
0.00061511318
0.00061295488
0.00061333467
0.00061389503
0.00061373097
0.00061336253
0.00061336253
0.00061373095
0.00061389501
0.0006133346
0.00061295478
0.00061511299
0.00062260841
0.00063735445
0.00067177833
0.00074427221
0.00085630007
0.00075038146
0.00069922159
0.00067706442
0.00066578846
0.00066187005
0.00066182081
0.00066241903
0.00066220979
0.00066185595
0.00066185595
0.00066220975
0.00066241895
0.00066182068
0.00066186986
0.00066578814
0.00067706387
0.00069922058
0.00075037925
0.00085629586
0.0010370619
0.00087606131
0.00079707016
0.00076247533
0.0007446795
0.00073800715
0.00073709609
0.00073716273
0.00073695872
0.00073665073
0.00073665071
0.00073695864
0.00073716257
0.00073709585
0.00073800683
0.000744679
0.00076247447
0.00079706855
0.00087605784
0.0010370549
0.0013553942
0.0010857149
0.00095625642
0.0008996847
0.00086983675
0.00085884468
0.00085532877
0.00085433103
0.00085427389
0.00085408612
0.00085408607
0.00085427375
0.00085433077
0.0008553284
0.00085884417
0.00086983598
0.00089968336
0.0009562539
0.0010857092
0.0013553808
0.0018761971
0.0014559127
0.0012364913
0.0011338525
0.0010790973
0.0010560578
0.0010492315
0.0010473742
0.0010476623
0.001047709
0.0010477089
0.001047662
0.0010473736
0.0010492308
0.0010560569
0.001079096
0.0011338501
0.0012364866
0.0014559016
0.0018761699
0.002812883
0.0020351625
0.0016637802
0.0014863767
0.0013959574
0.0013580245
0.001346147
0.00134398
0.0013453922
0.0013461764
0.0013461763
0.0013453916
0.001343979
0.0013461458
0.0013580228
0.0013959549
0.0014863723
0.0016637718
0.0020351434
0.002812828
0.0045780213
0.0028965207
0.0022652436
0.001963172
0.0018053858
0.0017367381
0.001715525
0.001714719
0.0017195556
0.0017227361
0.0017227357
0.0017195546
0.0017147173
0.0017155233
0.0017367357
0.0018053819
0.0019631645
0.00226523
0.0028964902
0.0045779172
0.0072700315
0.0041271776
0.003057998
0.0025641321
0.0023101942
0.0021937796
0.0021577974
0.0021600997
0.0021726218
0.0021814721
0.0021814714
0.0021726201
0.0021600971
0.0021577948
0.0021937763
0.0023101889
0.0025641217
0.0030579788
0.0041271361
0.0072698891
0.0096285838
0.0057024149
0.0040494971
0.0032885413
0.0029046105
0.0027268077
0.0026706601
0.0026774083
0.0027021045
0.002720258
0.0027202569
0.0027021019
0.0026774048
0.0026706567
0.0027268037
0.0029046048
0.0032885301
0.0040494753
0.0057023701
0.0096284855
0.010652562
0.0074046676
0.0052008661
0.0041247632
0.0035831012
0.0033313527
0.0032503591
0.0032609686
0.0033001076
0.0033301175
0.003330116
0.0033001041
0.0032609641
0.0032503551
0.0033313487
0.0035830961
0.0041247537
0.0052008462
0.0074046263
0.010652528
)
;

boundaryField
{
    Wall
    {
        type            calculated;
        value           nonuniform List<scalar> 
100
(
1e-20
1e-20
1e-20
1e-20
1e-20
1e-20
1e-20
1e-20
1e-20
1e-20
1e-20
1e-20
1e-20
1e-20
1e-20
1e-20
1e-20
1e-20
1e-20
1e-20
1e-20
1e-20
1e-20
1e-20
1e-20
1e-20
1e-20
1e-20
1e-20
1e-20
1e-20
1e-20
1e-20
1e-20
1e-20
1e-20
1e-20
1e-20
1e-20
1e-20
1e-20
1e-20
1e-20
1e-20
1e-20
1e-20
1e-20
1e-20
1e-20
1e-20
1e-20
1e-20
1e-20
1e-20
1e-20
1e-20
1e-20
1e-20
1e-20
1e-20
1e-20
1e-20
1e-20
1e-20
1e-20
1e-20
1e-20
1e-20
1e-20
1e-20
1e-20
1e-20
1e-20
1e-20
1e-20
1e-20
1e-20
1e-20
1e-20
1e-20
1e-20
1e-20
1e-20
1e-20
1e-20
1e-20
1e-20
1e-20
1e-20
1e-20
1e-20
1e-20
1e-20
1e-20
1e-20
1e-20
1e-20
1e-20
1e-20
1e-20
)
;
    }
    frontAndBack
    {
        type            empty;
    }
    atmosphere
    {
        type            calculated;
        value           uniform 1e-20;
    }
}


// ************************************************************************* //
