/*--------------------------------*- C++ -*----------------------------------*\
| =========                 |                                                 |
| \\      /  F ield         | OpenFOAM: The Open Source CFD Toolbox           |
|  \\    /   O peration     | Version:  3.0.1                                 |
|   \\  /    A nd           | Web:      www.OpenFOAM.org                      |
|    \\/     M anipulation  |                                                 |
\*---------------------------------------------------------------------------*/
FoamFile
{
    version     2.0;
    format      ascii;
    class       volScalarField;
    location    "34";
    object      rho;
}
// * * * * * * * * * * * * * * * * * * * * * * * * * * * * * * * * * * * * * //

dimensions      [1 -3 0 0 0 0 0];

internalField   nonuniform List<scalar> 
800
(
54.295955
54.291691
54.291053
54.291031
54.291066
54.291091
54.291101
54.291102
54.2911
54.291099
54.291099
54.2911
54.291102
54.2911
54.291091
54.291066
54.29103
54.291052
54.291691
54.295955
54.507374
54.479014
54.471559
54.469635
54.469354
54.469496
54.469689
54.469836
54.469925
54.469967
54.469967
54.469925
54.469836
54.46969
54.469496
54.469354
54.469636
54.47156
54.479016
54.507377
54.832118
54.783475
54.766529
54.761775
54.760753
54.76081
54.761087
54.761328
54.761484
54.761558
54.761558
54.761484
54.761329
54.761088
54.760811
54.760755
54.761777
54.766532
54.783478
54.832124
55.201833
55.134765
55.10822
55.100563
55.098724
55.098634
55.098956
55.09927
55.099482
55.099584
55.099584
55.099482
55.099271
55.098958
55.098636
55.098726
55.100566
55.108224
55.13477
55.201842
55.577677
55.495445
55.460135
55.449765
55.447227
55.447022
55.447385
55.447758
55.448014
55.448138
55.448139
55.448015
55.447759
55.447387
55.447025
55.447231
55.44977
55.46014
55.495451
55.577688
55.927952
55.835165
55.792491
55.779796
55.776834
55.776631
55.77708
55.777525
55.77783
55.777975
55.777975
55.777831
55.777527
55.777082
55.776635
55.776838
55.779801
55.792497
55.835173
55.927964
56.226045
56.12801
56.079901
56.065404
56.062376
56.06235
56.062964
56.063519
56.063888
56.064061
56.064061
56.063889
56.063521
56.062967
56.062354
56.06238
56.065409
56.079907
56.128018
56.226057
56.452719
56.354453
56.303298
56.287621
56.28491
56.285257
56.286131
56.286843
56.287299
56.287509
56.287509
56.2873
56.286845
56.286134
56.285261
56.284914
56.287626
56.303304
56.35446
56.45273
56.598421
56.503644
56.452075
56.435853
56.433777
56.434681
56.435912
56.436834
56.437404
56.437662
56.437662
56.437405
56.436836
56.435915
56.434684
56.433781
56.435858
56.452081
56.503651
56.598431
56.660228
56.571058
56.521824
56.505684
56.504449
56.50605
56.507737
56.508927
56.50964
56.509961
56.509961
56.509641
56.508929
56.50774
56.506053
56.504452
56.505688
56.521829
56.571064
56.660237
56.643404
56.559764
56.515254
56.499697
56.499323
56.501656
56.503878
56.50538
56.506258
56.506653
56.506653
56.506259
56.505382
56.50388
56.501658
56.499327
56.499701
56.515258
56.559769
56.643411
56.545667
56.4761
56.438276
56.423749
56.424147
56.427172
56.43002
56.431893
56.432964
56.433447
56.433447
56.432964
56.431894
56.430022
56.427174
56.42415
56.423751
56.43828
56.476103
56.545672
56.361727
56.285509
56.257823
56.244912
56.245132
56.248355
56.252004
56.254353
56.255648
56.256248
56.256248
56.255648
56.254354
56.252005
56.248357
56.245134
56.244913
56.257825
56.285511
56.361731
56.118974
56.034511
56.016143
56.005029
56.004225
56.007058
56.011767
56.014666
56.016211
56.016961
56.016961
56.016212
56.014667
56.011769
56.00706
56.004226
56.00503
56.016144
56.034512
56.118977
55.839328
55.737851
55.725694
55.716459
55.713696
55.715674
55.721634
55.725276
55.72715
55.728045
55.728045
55.727151
55.725277
55.721636
55.715675
55.713697
55.716459
55.725695
55.737852
55.839329
55.53579
55.406912
55.396045
55.388461
55.382854
55.383844
55.391277
55.3959
55.398096
55.39905
55.39905
55.398096
55.3959
55.391278
55.383845
55.382855
55.388461
55.396045
55.406912
55.535791
55.220821
55.052558
55.036608
55.029703
55.020331
55.020738
55.030196
55.035773
55.038447
55.03919
55.03919
55.038447
55.035774
55.030196
55.020738
55.020331
55.029703
55.036608
55.052558
55.220822
54.911515
54.688751
54.659636
54.651225
54.637562
54.638215
54.650354
54.657309
54.660759
54.66073
54.66073
54.660759
54.65731
54.650354
54.638217
54.637563
54.651225
54.659636
54.68875
54.911516
54.629506
54.336368
54.283825
54.270379
54.251419
54.251848
54.267983
54.276681
54.281439
54.279858
54.279858
54.28144
54.276684
54.267987
54.25185
54.251421
54.27038
54.283825
54.336367
54.629507
54.401728
54.015892
53.929511
53.906448
53.879622
53.881295
53.902233
53.912706
53.919535
53.915502
53.915503
53.919537
53.912709
53.902235
53.881295
53.879623
53.906449
53.929512
54.015892
54.40173
54.254379
53.750771
53.618069
53.579836
53.541947
53.5462
53.573089
53.585684
53.59495
53.587732
53.587733
53.594952
53.585687
53.573092
53.546203
53.541949
53.579837
53.61807
53.750773
54.254382
54.218236
53.567061
53.373763
53.311981
53.261215
53.268766
53.302064
53.316917
53.329597
53.318261
53.318261
53.329599
53.316917
53.302066
53.268769
53.261217
53.311983
53.373765
53.567063
54.21824
54.329528
53.494887
53.222858
53.129122
53.061793
53.072806
53.112674
53.130085
53.146468
53.130747
53.130748
53.14647
53.130088
53.112677
53.07281
53.061796
53.129125
53.222861
53.494889
54.329531
54.634108
53.571427
53.196088
53.061353
52.973085
52.987455
53.03412
53.054252
53.072695
53.052532
53.052532
53.072699
53.054256
53.034123
52.987459
52.973088
53.061356
53.196091
53.571429
54.63411
55.195114
53.846198
53.335603
53.148012
53.030897
53.047494
53.10101
53.124146
53.142312
53.118327
53.118328
53.142314
53.124149
53.101014
53.047497
53.0309
53.148015
53.335606
53.846198
55.195112
56.101012
54.384316
53.697618
53.438039
53.283323
53.298978
53.359062
53.385576
53.401606
53.373607
53.373606
53.401607
53.38558
53.359066
53.298981
53.283326
53.438041
53.697619
54.384312
56.101004
57.486077
55.283867
54.362467
54.002404
53.798411
53.806803
53.871917
53.902531
53.914019
53.882387
53.882388
53.914021
53.902537
53.871921
53.806806
53.798415
54.002404
54.362464
55.283856
57.486055
59.55823
56.694001
55.449866
54.946578
54.675408
54.665867
54.733152
54.768139
54.773179
54.739058
54.739059
54.773181
54.768143
54.733154
54.665869
54.675408
54.946575
55.449857
56.693977
59.558187
62.648308
58.850272
57.144721
56.4354
56.068657
56.022604
56.087225
56.12782
56.125418
56.089627
56.089628
56.125419
56.127822
56.087226
56.022603
56.068653
56.43539
57.144701
58.850226
62.648228
67.299117
62.135181
59.744406
58.732378
58.21829
58.109356
58.164707
58.212349
58.202464
58.165649
58.16565
58.202464
58.212349
58.164705
58.109351
58.21828
58.732359
59.74437
62.135099
67.298974
74.42409
67.177024
63.734802
62.260186
61.510638
61.294811
61.332789
61.388825
61.372418
61.335574
61.335575
61.372417
61.388822
61.332782
61.2948
61.510619
62.260153
63.73474
67.176887
74.423842
85.568693
75.027495
69.919607
67.704876
66.577575
66.185836
66.180947
66.240773
66.21984
66.184412
66.184411
66.219836
66.240766
66.180933
66.185817
66.577543
67.704821
69.919505
75.027276
85.568282
101.11617
87.363315
79.658336
76.222407
74.449711
73.784867
73.694719
73.701834
73.681697
73.650909
73.650907
73.681689
73.70182
73.694696
73.784836
74.449661
76.222323
79.65818
87.363001
101.11603
73.013937
97.849474
93.485762
88.995518
86.347224
85.361679
85.05811
84.98086
84.990299
84.978304
84.978302
84.990291
84.980845
85.058087
85.361649
86.347178
88.995451
93.485702
97.85028
73.01823
12.487671
43.761249
67.488361
74.601732
77.317598
78.588607
79.450136
79.991976
80.505241
80.753196
80.753254
80.505405
79.992291
79.450531
78.589141
77.318304
74.602743
67.489925
43.763601
12.48939
1.4405763
4.6814239
11.158504
15.606106
18.400859
19.914161
20.736593
21.213424
21.609673
21.813284
21.813331
21.609809
21.213677
20.736903
19.914564
18.40135
15.606682
11.159122
4.6817939
1.4406399
1.2003563
1.2327023
1.393195
1.5911218
1.762172
1.8678755
1.926953
1.9620436
1.9913443
2.0071408
2.0071446
1.991355
1.9620625
1.9269754
1.8679036
1.7622033
1.5911512
1.3932157
1.2327083
1.2003564
1.2000001
1.2000178
1.2002983
1.20088
1.2015725
1.2020565
1.2023378
1.2025053
1.2026524
1.2027351
1.2027351
1.2026525
1.2025054
1.2023379
1.2020566
1.2015727
1.2008801
1.2002983
1.2000178
1.2000001
1.2000001
1.2000002
1.2000001
1.2000001
1.2000003
1.2000004
1.2000004
1.2000005
1.2000005
1.2000005
1.2000005
1.2000005
1.2000005
1.2000004
1.2000004
1.2000003
1.2000001
1.2000001
1.2000002
1.2000001
1.2
1.2000001
1.2000001
1.2000001
1.2000001
1.2000001
1.2000001
1.2000001
1.2000001
1.2000002
1.2000002
1.2000001
1.2000001
1.2000001
1.2000001
1.2000001
1.2000001
1.2000001
1.2000001
1.2
)
;

boundaryField
{
    Wall
    {
        type            calculated;
        value           nonuniform List<scalar> 
100
(
1e-15
1.4982446e-12
1.3975852e-08
3.0953182e-08
8.4484542e-08
1.7798288e-07
3.1901181e-07
5.1737982e-07
7.8284982e-07
1.1265514e-06
1.5539042e-06
2.056223e-06
2.6509857e-06
3.3828557e-06
4.2362267e-06
5.4260204e-06
6.8490909e-06
1.4215759e-05
3.9399258e-05
3.9693433e-05
3.9693432e-05
3.9693239e-05
3.9693063e-05
3.9692889e-05
2.1809813e-05
1.3541337e-05
1.3540253e-05
1.3539224e-05
1.3539143e-05
1.3539998e-05
5.5401215e-05
0.00087146779
0.030320343
0.558515
1.1273403
1.1989693
1.1999991
1.2
1.2
1.2
1e-15
7.525792e-15
1.3974878e-08
3.0952973e-08
8.4485357e-08
1.7798515e-07
3.1901601e-07
5.1738639e-07
7.8285907e-07
1.1265636e-06
1.553919e-06
2.05624e-06
2.6510058e-06
3.3828768e-06
4.2362497e-06
5.4260892e-06
6.8491737e-06
1.4215796e-05
3.939945e-05
3.9693641e-05
3.969364e-05
3.9693447e-05
3.9693271e-05
3.9693097e-05
2.1812494e-05
1.3541701e-05
1.3540617e-05
1.3539588e-05
1.3539508e-05
1.3540363e-05
5.5393467e-05
0.00087132661
0.030313964
0.55847026
1.1273281
1.198969
1.1999991
1.2
1.2
1.2
1e-15
1e-15
1.0000005e-15
1.000001e-15
1e-15
1.0000012e-15
1.0000011e-15
1.0000001e-15
1e-15
1e-15
1e-15
1e-15
1e-15
1.0000001e-15
1.0000001e-15
1e-15
1e-15
1e-15
1e-15
1e-15
)
;
    }
    frontAndBack
    {
        type            empty;
    }
    atmosphere
    {
        type            calculated;
        value           nonuniform List<scalar> 
20
(
1.2
1.2
1.2
1.2
1.2
1.2
1.2
1.2
1.2
1.2
1.2
1.2
1.2
1.2
1.2
1.2
1.2
1.2
1.2
1.2
)
;
    }
}


// ************************************************************************* //
