/*--------------------------------*- C++ -*----------------------------------*\
| =========                 |                                                 |
| \\      /  F ield         | OpenFOAM: The Open Source CFD Toolbox           |
|  \\    /   O peration     | Version:  3.0.1                                 |
|   \\  /    A nd           | Web:      www.OpenFOAM.org                      |
|    \\/     M anipulation  |                                                 |
\*---------------------------------------------------------------------------*/
FoamFile
{
    version     2.0;
    format      ascii;
    class       volScalarField;
    location    "34";
    object      rho_foam;
}
// * * * * * * * * * * * * * * * * * * * * * * * * * * * * * * * * * * * * * //

dimensions      [1 -3 0 0 0 0 0];

internalField   nonuniform List<scalar> 
800
(
54.295955
54.291691
54.291053
54.291031
54.291066
54.291091
54.291101
54.291102
54.2911
54.291099
54.291099
54.2911
54.291102
54.2911
54.291091
54.291066
54.29103
54.291052
54.291691
54.295955
54.507374
54.479014
54.471559
54.469635
54.469354
54.469496
54.469689
54.469836
54.469925
54.469967
54.469967
54.469925
54.469836
54.46969
54.469496
54.469354
54.469636
54.47156
54.479016
54.507377
54.832118
54.783475
54.76653
54.761776
54.760754
54.76081
54.761087
54.761329
54.761484
54.761558
54.761558
54.761485
54.761329
54.761088
54.760811
54.760755
54.761778
54.766533
54.783479
54.832125
55.201834
55.134766
55.108221
55.100564
55.098725
55.098635
55.098957
55.099271
55.099483
55.099585
55.099585
55.099484
55.099272
55.098959
55.098637
55.098728
55.100567
55.108226
55.134772
55.201843
55.577681
55.495448
55.460138
55.449768
55.44723
55.447025
55.447388
55.447761
55.448018
55.448142
55.448142
55.448018
55.447762
55.44739
55.447028
55.447234
55.449773
55.460143
55.495455
55.577692
55.92796
55.835172
55.792498
55.779803
55.776841
55.776638
55.777086
55.777531
55.777836
55.777982
55.777982
55.777837
55.777533
55.777088
55.776641
55.776845
55.779808
55.792504
55.83518
55.927972
56.22606
56.128023
56.079913
56.065416
56.062387
56.062362
56.062976
56.06353
56.063899
56.064072
56.064073
56.0639
56.063532
56.062978
56.062365
56.062392
56.065421
56.079919
56.128031
56.226072
56.452743
56.354474
56.303318
56.28764
56.284928
56.285276
56.28615
56.286862
56.287318
56.287528
56.287528
56.287319
56.286864
56.286153
56.285279
56.284933
56.287645
56.303324
56.354481
56.452754
56.598457
56.503676
56.452105
56.435882
56.433806
56.434709
56.435941
56.436863
56.437432
56.437691
56.437691
56.437433
56.436864
56.435943
56.434713
56.43381
56.435887
56.45211
56.503683
56.598467
56.66028
56.571105
56.521866
56.505725
56.50449
56.50609
56.507778
56.508968
56.509681
56.510002
56.510002
56.509682
56.50897
56.50778
56.506093
56.504493
56.505729
56.521871
56.571111
56.660289
56.643475
56.559828
56.515312
56.499754
56.49938
56.501712
56.503934
56.505437
56.506314
56.506709
56.506709
56.506315
56.505438
56.503936
56.501715
56.499383
56.499757
56.515316
56.559833
56.643482
56.545762
56.476184
56.438355
56.423824
56.424222
56.427246
56.430095
56.431967
56.433038
56.433522
56.433522
56.433039
56.431968
56.430096
56.427248
56.424224
56.423827
56.438358
56.476188
56.545767
56.361849
56.285623
56.257929
56.245008
56.245227
56.24845
56.252098
56.254448
56.255744
56.256344
56.256344
56.255745
56.254449
56.252099
56.248452
56.245229
56.24501
56.257931
56.285625
56.361853
56.119129
56.034666
56.016273
56.00515
56.00435
56.007177
56.011897
56.014807
56.016338
56.017081
56.017081
56.016339
56.014808
56.011898
56.007178
56.004352
56.005151
56.016274
56.034668
56.119131
55.83952
55.738019
55.725844
55.716612
55.713846
55.715915
55.721906
55.725498
55.727299
55.728193
55.728193
55.727299
55.725499
55.721907
55.715916
55.713847
55.716613
55.725845
55.738019
55.839522
55.536036
55.407107
55.396223
55.388641
55.383068
55.384238
55.391657
55.396108
55.398269
55.399228
55.399228
55.39827
55.396109
55.391658
55.384239
55.383069
55.388642
55.396224
55.407107
55.536036
55.22113
55.053039
55.036871
55.029958
55.02084
55.021171
55.030425
55.035974
55.038662
55.0394
55.0394
55.038662
55.035975
55.030426
55.021172
55.020841
55.029958
55.03687
55.053039
55.22113
54.912152
54.690457
54.660869
54.652467
54.6388
54.638664
54.650588
54.657508
54.661003
54.660975
54.660975
54.661004
54.657509
54.650589
54.638665
54.638801
54.652467
54.660869
54.690456
54.912152
54.63126
54.338125
54.285581
54.272135
54.252391
54.252595
54.268363
54.27693
54.281716
54.280139
54.280139
54.281717
54.276932
54.268365
54.252597
54.252392
54.272135
54.285581
54.338125
54.631261
54.403488
54.017639
53.931255
53.90784
53.880059
53.881739
53.902587
53.913056
53.919848
53.91582
53.91582
53.91985
53.913058
53.902589
53.881741
53.88006
53.90784
53.931256
54.017639
54.40349
54.256134
53.75251
53.619803
53.580325
53.542306
53.546557
53.573444
53.586036
53.595626
53.588281
53.588282
53.595627
53.586039
53.573447
53.54656
53.542308
53.580327
53.619804
53.752511
54.256137
54.21999
53.568793
53.374975
53.312344
53.261575
53.269124
53.302504
53.317411
53.330299
53.318963
53.318963
53.330301
53.317414
53.302507
53.269127
53.261578
53.312346
53.374978
53.568795
54.219993
54.331285
53.496616
53.223415
53.129508
53.062602
53.073676
53.113646
53.131058
53.147058
53.13134
53.131341
53.14706
53.131061
53.11365
53.073679
53.062606
53.129511
53.223417
53.496619
54.331288
54.635875
53.573104
53.196949
53.062244
52.974055
52.988425
53.035091
53.055224
53.073251
53.053081
53.053082
53.073253
53.055228
53.035095
52.988429
52.974059
53.062247
53.196952
53.573106
54.635877
55.196096
53.846847
53.336594
53.148599
53.031868
53.048465
53.101982
53.125118
53.143285
53.118877
53.118878
53.143287
53.125123
53.101987
53.048469
53.031872
53.148601
53.336597
53.846847
55.196094
56.101632
54.384916
53.698614
53.438628
53.284298
53.299954
53.360039
53.386553
53.402516
53.374306
53.374307
53.402519
53.386558
53.360043
53.299957
53.284302
53.43863
53.698615
54.384912
56.101623
57.486712
55.284477
54.363263
54.003
53.799046
53.807569
53.872784
53.903183
53.914614
53.883189
53.88319
53.914616
53.903187
53.872788
53.807572
53.799048
54.003
54.363261
55.284466
57.48669
59.558888
56.694627
55.450478
54.947185
54.676012
54.66647
54.733756
54.768744
54.773784
54.739815
54.739816
54.773786
54.768747
54.733758
54.666472
54.676012
54.947181
55.450469
56.694603
59.558845
62.649001
58.850922
57.145352
56.436023
56.069276
56.023222
56.087845
56.12844
56.126038
56.090247
56.090248
56.126039
56.128442
56.087845
56.023221
56.069272
56.436013
57.145332
58.850876
62.648921
67.299862
62.135868
59.745067
58.733027
58.218933
58.109998
58.16535
58.212992
58.203107
58.166292
58.166293
58.203107
58.212992
58.165347
58.109993
58.218923
58.733008
59.745031
62.135786
67.29972
74.427471
67.17797
63.735508
62.260875
61.511319
61.295489
61.333468
61.389504
61.373097
61.336253
61.336253
61.373096
61.389501
61.333461
61.295478
61.5113
62.260842
63.735446
67.177833
74.427222
85.630008
75.038147
69.92216
67.706443
66.578846
66.187005
66.182082
66.241903
66.22098
66.185596
66.185595
66.220976
66.241896
66.182068
66.186986
66.578814
67.706388
69.922059
75.037926
85.629587
103.70619
87.606131
79.707016
76.247534
74.467951
73.800716
73.709609
73.716273
73.695873
73.665073
73.665071
73.695865
73.716258
73.709586
73.800684
74.467901
76.247448
79.706856
87.605785
103.70549
135.53942
108.57149
95.625643
89.96847
86.983676
85.884469
85.532878
85.433104
85.427389
85.408612
85.408608
85.427376
85.433077
85.532841
85.884418
86.983599
89.968337
95.625391
108.57092
135.53808
187.61971
145.59127
123.64913
113.38525
107.90973
105.60578
104.92315
104.73742
104.76623
104.7709
104.77089
104.76621
104.73737
104.92308
105.60569
107.9096
113.38501
123.64866
145.59016
187.61699
281.2883
203.51625
166.37802
148.63767
139.59574
135.80245
134.6147
134.398
134.53922
134.61764
134.61763
134.53916
134.3979
134.61458
135.80228
139.59549
148.63723
166.37718
203.51434
281.2828
457.80213
289.65207
226.52436
196.3172
180.53858
173.67381
171.5525
171.4719
171.95556
172.27361
172.27357
171.95546
171.47173
171.55233
173.67357
180.53819
196.31645
226.523
289.64902
457.79172
727.00315
412.71776
305.7998
256.41321
231.01942
219.37796
215.77974
216.00997
217.26218
218.14721
218.14714
217.26201
216.00971
215.77948
219.37763
231.01889
256.41217
305.79788
412.71361
726.98891
962.85838
570.24149
404.94971
328.85413
290.46105
272.68077
267.06601
267.74083
270.21045
272.0258
272.02569
270.21019
267.74048
267.06567
272.68037
290.46048
328.85301
404.94753
570.23701
962.84855
1065.2562
740.46676
520.08661
412.47632
358.31012
333.13527
325.03591
326.09686
330.01076
333.01175
333.0116
330.01041
326.09641
325.03551
333.13487
358.30961
412.47537
520.08462
740.46263
1065.2528
)
;

boundaryField
{
    Wall
    {
        type            zeroGradient;
    }
    frontAndBack
    {
        type            empty;
    }
    atmosphere
    {
        type            zeroGradient;
    }
}


// ************************************************************************* //
