/*--------------------------------*- C++ -*----------------------------------*\
| =========                 |                                                 |
| \\      /  F ield         | OpenFOAM: The Open Source CFD Toolbox           |
|  \\    /   O peration     | Version:  3.0.1                                 |
|   \\  /    A nd           | Web:      www.OpenFOAM.org                      |
|    \\/     M anipulation  |                                                 |
\*---------------------------------------------------------------------------*/
FoamFile
{
    version     2.0;
    format      ascii;
    class       volScalarField;
    location    "34";
    object      thermalConductivity;
}
// * * * * * * * * * * * * * * * * * * * * * * * * * * * * * * * * * * * * * //

dimensions      [0 2 -1 0 0 0 0];

internalField   nonuniform List<scalar> 
800
(
0.016465049
0.016464647
0.016464586
0.016464583
0.016464586
0.016464589
0.016464589
0.016464589
0.016464589
0.016464589
0.016464589
0.016464589
0.016464589
0.016464589
0.016464589
0.016464586
0.016464583
0.016464586
0.016464647
0.016465049
0.016485415
0.016482719
0.016482011
0.016481829
0.016481803
0.016481816
0.016481835
0.016481849
0.016481857
0.016481861
0.016481861
0.016481857
0.016481849
0.016481835
0.016481816
0.016481803
0.016481829
0.016482011
0.01648272
0.016485415
0.016516409
0.016511787
0.016510178
0.016509728
0.016509632
0.016509638
0.016509664
0.016509687
0.016509702
0.016509709
0.016509709
0.016509702
0.016509687
0.016509664
0.016509638
0.016509632
0.016509728
0.016510179
0.016511787
0.016516409
0.016551645
0.016545271
0.016542751
0.016542026
0.016541853
0.016541845
0.016541876
0.016541906
0.016541926
0.016541935
0.016541935
0.016541926
0.016541906
0.016541876
0.016541845
0.016541853
0.016542026
0.016542752
0.016545272
0.016551645
0.016587442
0.016579625
0.016576273
0.01657529
0.016575051
0.016575032
0.016575067
0.016575103
0.016575127
0.016575139
0.016575139
0.016575127
0.016575103
0.016575068
0.016575033
0.016575051
0.016575291
0.016576273
0.016579626
0.016587443
0.016620777
0.016611956
0.016607904
0.016606701
0.016606422
0.016606404
0.016606447
0.016606489
0.016606518
0.016606532
0.016606532
0.016606519
0.01660649
0.016606447
0.016606404
0.016606422
0.016606701
0.016607904
0.016611957
0.016620778
0.016649112
0.016639793
0.016635224
0.01663385
0.016633565
0.016633564
0.016633623
0.016633676
0.016633711
0.016633728
0.016633728
0.016633711
0.016633676
0.016633623
0.016633564
0.016633565
0.01663385
0.016635224
0.016639794
0.016649113
0.016670618
0.016661278
0.016656419
0.016654933
0.016654679
0.016654713
0.016654797
0.016654865
0.016654909
0.016654929
0.016654929
0.016654909
0.016654866
0.016654798
0.016654714
0.016654679
0.016654933
0.01665642
0.016661278
0.016670619
0.016684392
0.016675383
0.016670487
0.016668948
0.016668755
0.016668843
0.016668961
0.016669049
0.016669103
0.016669127
0.016669127
0.016669103
0.016669049
0.016668961
0.016668843
0.016668755
0.016668949
0.016670487
0.016675384
0.016684393
0.016690166
0.016681687
0.016677015
0.016675484
0.01667537
0.016675524
0.016675685
0.016675799
0.016675867
0.016675897
0.016675897
0.016675867
0.016675799
0.016675686
0.016675524
0.01667537
0.016675484
0.016677015
0.016681688
0.016690167
0.016688457
0.016680495
0.016676275
0.016674799
0.016674766
0.016674989
0.016675201
0.016675345
0.016675428
0.016675466
0.016675466
0.016675428
0.016675345
0.016675202
0.016674989
0.016674766
0.016674799
0.016676275
0.016680496
0.016688458
0.016679123
0.016672429
0.016668846
0.016667467
0.016667505
0.016667794
0.016668065
0.016668244
0.016668346
0.016668392
0.016668392
0.016668346
0.016668244
0.016668065
0.016667794
0.016667506
0.016667467
0.016668846
0.01667243
0.016679123
0.016661563
0.016654241
0.016651619
0.016650391
0.016650408
0.016650713
0.01665106
0.016651284
0.016651407
0.016651464
0.016651464
0.016651407
0.016651284
0.01665106
0.016650713
0.016650408
0.016650391
0.016651619
0.016654241
0.016661564
0.016638529
0.016630397
0.016628651
0.016627591
0.016627506
0.01662777
0.016628219
0.016628496
0.016628641
0.016628712
0.016628712
0.016628641
0.016628496
0.01662822
0.01662777
0.016627506
0.016627591
0.016628651
0.016630397
0.016638529
0.016612125
0.016602324
0.016601151
0.016600267
0.01659999
0.016600178
0.016600748
0.01660109
0.01660126
0.016601345
0.016601345
0.01660126
0.01660109
0.016600748
0.016600179
0.01659999
0.016600268
0.016601151
0.016602324
0.016612125
0.016583563
0.0165711
0.016570024
0.016569293
0.016568742
0.016568843
0.016569548
0.016569971
0.016570175
0.016570266
0.016570266
0.016570175
0.016569971
0.016569548
0.016568843
0.016568742
0.016569293
0.016570024
0.0165711
0.016583563
0.016554042
0.016537796
0.016536184
0.01653551
0.016534617
0.016534636
0.016535515
0.016536042
0.016536296
0.016536365
0.016536365
0.016536296
0.016536042
0.016535515
0.016534636
0.016534617
0.01653551
0.016536184
0.016537796
0.016554042
0.016525232
0.016503823
0.016500897
0.016500069
0.016498737
0.016498712
0.016499846
0.016500503
0.016500833
0.016500826
0.016500826
0.016500833
0.016500503
0.016499846
0.016498712
0.016498737
0.016500069
0.016500897
0.016503823
0.016525232
0.016499266
0.016470989
0.016465837
0.016464513
0.016462597
0.016462605
0.016464105
0.016464918
0.01646537
0.016465214
0.016465214
0.016465371
0.016464918
0.016464105
0.016462605
0.016462597
0.016464513
0.016465837
0.016470989
0.016499266
0.016478546
0.016441365
0.016432949
0.016430658
0.016427968
0.016428119
0.016430103
0.016431096
0.016431739
0.016431345
0.016431345
0.016431739
0.016431096
0.016430103
0.016428119
0.016427968
0.016430658
0.01643295
0.016441365
0.016478546
0.01646569
0.016417203
0.016404333
0.01640049
0.016396818
0.016397214
0.016399771
0.016400965
0.016401873
0.016401161
0.016401161
0.016401873
0.016400966
0.016399771
0.016397214
0.016396818
0.01640049
0.016404333
0.016417203
0.01646569
0.016463664
0.016401004
0.016382263
0.016376193
0.016371298
0.016372006
0.016375177
0.01637659
0.016377809
0.016376715
0.016376715
0.016377809
0.01637659
0.016375178
0.016372007
0.016371298
0.016376193
0.016382264
0.016401005
0.016463664
0.016475977
0.016395674
0.016369304
0.016360229
0.016353784
0.016354823
0.016358615
0.016360265
0.016361773
0.016360262
0.016360262
0.016361773
0.016360265
0.016358616
0.016354824
0.016353784
0.016360229
0.016369304
0.016395674
0.016475977
0.016507111
0.016404816
0.016368537
0.016355541
0.016347046
0.016348392
0.016352814
0.016354722
0.016356412
0.016354478
0.016354478
0.016356413
0.016354723
0.016352815
0.016348392
0.016347046
0.016355541
0.016368537
0.016404817
0.016507112
0.016563216
0.016433188
0.016383965
0.016365835
0.016354583
0.016356127
0.016361197
0.01636339
0.016365079
0.016362742
0.016362742
0.016365079
0.016363391
0.016361197
0.016356128
0.016354584
0.016365835
0.016383965
0.016433188
0.016563216
0.016653219
0.016487409
0.016421123
0.016396025
0.016381133
0.01638256
0.016388248
0.016390764
0.016392227
0.016389529
0.016389529
0.016392227
0.016390765
0.016388248
0.01638256
0.016381133
0.016396026
0.016421123
0.016487408
0.016653218
0.016790611
0.01657716
0.01648797
0.016453113
0.016433393
0.016434091
0.016440256
0.016443147
0.016444161
0.016441156
0.016441156
0.016444161
0.016443147
0.016440257
0.016434091
0.016433393
0.016453113
0.01648797
0.016577159
0.016790609
0.016996494
0.016717447
0.016596513
0.016547642
0.016521335
0.016520221
0.016526567
0.016529904
0.016530294
0.016527043
0.016527043
0.016530294
0.016529905
0.016526567
0.016520221
0.016521335
0.016547641
0.016596512
0.016717445
0.01699649
0.017305001
0.016932253
0.016765481
0.016696256
0.016660482
0.016655722
0.016661792
0.016665682
0.016665348
0.016661917
0.016661917
0.016665348
0.016665682
0.016661792
0.016655722
0.016660482
0.016696255
0.016765479
0.016932249
0.017304993
0.017773232
0.017261108
0.017025338
0.016925855
0.016875309
0.016864249
0.016869402
0.016873997
0.016872937
0.016869397
0.016869397
0.016872937
0.016873997
0.016869401
0.016864249
0.016875308
0.016925853
0.017025335
0.0172611
0.017773218
0.018500255
0.01777036
0.017426736
0.017280254
0.017205811
0.017183935
0.017187332
0.017192785
0.017191092
0.017187533
0.017187533
0.017191092
0.017192785
0.017187332
0.017183934
0.017205809
0.017280251
0.01742673
0.017770346
0.018500229
0.019666203
0.018575474
0.018055928
0.017832431
0.017718868
0.017678947
0.017677913
0.017683661
0.017681529
0.017678092
0.017678092
0.017681529
0.01768366
0.017677912
0.017678945
0.017718865
0.017832426
0.018055918
0.018575452
0.019666159
0.021607298
0.019892452
0.019068853
0.018711936
0.018528815
0.018460035
0.01845004
0.018449761
0.018447713
0.018444715
0.018444715
0.018447712
0.018449759
0.018450038
0.018460032
0.01852881
0.018711927
0.019068837
0.019892416
0.021607222
0.025170836
0.022177525
0.020764775
0.020160193
0.019843079
0.019727075
0.019688092
0.019676478
0.019676044
0.019674275
0.019674274
0.019676043
0.019676475
0.019688088
0.01972707
0.019843071
0.020160179
0.020764748
0.022177463
0.025170681
0.024
0.024
0.023848969
0.022755233
0.022139901
0.021878384
0.021802242
0.021781431
0.02178475
0.021785427
0.021785426
0.021784747
0.021781425
0.021802235
0.021878374
0.022139886
0.022755207
0.023848916
0.024
0.024
0.024
0.024
0.024
0.024
0.024
0.024
0.024
0.024
0.024
0.024
0.024
0.024
0.024
0.024
0.024
0.024
0.024
0.024
0.024
0.024
0.024
0.024
0.024
0.024
0.024
0.024
0.024
0.024
0.024
0.024
0.024
0.024
0.024
0.024
0.024
0.024
0.024
0.024
0.024
0.024
0.024
0.024
0.024
0.024
0.024
0.024
0.024
0.024
0.024
0.024
0.024
0.024
0.024
0.024
0.024
0.024
0.024
0.024
0.024
0.024
0.024
0.024
0.024
0.024
0.024
0.024
0.024
0.024
0.024
0.024
0.024
0.024
0.024
0.024
0.024
0.024
0.024
0.024
0.024
0.024
0.024
0.024
0.024
0.024
0.024
0.024
0.024
0.024
0.024
0.024
0.024
0.024
0.024
0.024
0.024
0.024
0.024
0.024
0.024
0.024
)
;

boundaryField
{
    Wall
    {
        type            calculated;
        value           uniform 0.024;
    }
    frontAndBack
    {
        type            empty;
    }
    atmosphere
    {
        type            calculated;
        value           uniform 0.024;
    }
}


// ************************************************************************* //
