/*--------------------------------*- C++ -*----------------------------------*\
| =========                 |                                                 |
| \\      /  F ield         | OpenFOAM: The Open Source CFD Toolbox           |
|  \\    /   O peration     | Version:  3.0.1                                 |
|   \\  /    A nd           | Web:      www.OpenFOAM.org                      |
|    \\/     M anipulation  |                                                 |
\*---------------------------------------------------------------------------*/
FoamFile
{
    version     2.0;
    format      ascii;
    class       volScalarField;
    location    "34";
    object      thermalDiff_gas;
}
// * * * * * * * * * * * * * * * * * * * * * * * * * * * * * * * * * * * * * //

dimensions      [0 2 -1 0 0 0 0];

internalField   nonuniform List<scalar> 
800
(
0.00033315155
0.00033317043
0.00033317543
0.00033317634
0.00033317645
0.00033317646
0.00033317647
0.0003331765
0.00033317653
0.00033317655
0.00033317655
0.00033317653
0.0003331765
0.00033317647
0.00033317646
0.00033317645
0.00033317634
0.00033317543
0.00033317043
0.00033315155
0.00033260334
0.00033267796
0.00033270625
0.00033271556
0.00033271834
0.00033271888
0.00033271874
0.00033271848
0.00033271826
0.00033271815
0.00033271815
0.00033271826
0.00033271847
0.00033271874
0.00033271888
0.00033271834
0.00033271556
0.00033270624
0.00033267796
0.00033260333
0.0003319855
0.00033210352
0.00033215511
0.00033217293
0.00033217848
0.00033217973
0.00033217961
0.00033217919
0.00033217884
0.00033217865
0.00033217865
0.00033217884
0.00033217919
0.00033217961
0.00033217973
0.00033217848
0.00033217293
0.0003321551
0.00033210351
0.00033198548
0.00033148391
0.0003316351
0.00033170617
0.00033173112
0.00033173897
0.00033174084
0.00033174078
0.00033174027
0.00033173983
0.00033173959
0.00033173959
0.00033173983
0.00033174027
0.00033174077
0.00033174083
0.00033173897
0.00033173112
0.00033170616
0.00033163509
0.00033148389
0.00033113272
0.00033130591
0.0003313922
0.00033142262
0.00033143212
0.00033143442
0.00033143442
0.00033143389
0.00033143341
0.00033143315
0.00033143315
0.00033143341
0.00033143388
0.00033143441
0.00033143442
0.00033143212
0.00033142261
0.00033139219
0.00033130589
0.0003311327
0.00033096198
0.00033114467
0.00033124162
0.00033127555
0.00033128585
0.00033128823
0.00033128816
0.00033128758
0.00033128707
0.0003312868
0.0003312868
0.00033128707
0.00033128758
0.00033128816
0.00033128823
0.00033128584
0.00033127554
0.0003312416
0.00033114465
0.00033096195
0.00033100615
0.00033118391
0.00033128661
0.00033132196
0.0003313321
0.00033133413
0.0003313338
0.00033133308
0.00033133251
0.00033133222
0.00033133222
0.00033133251
0.00033133308
0.00033133379
0.00033133412
0.00033133209
0.00033132195
0.0003312866
0.0003311839
0.00033100612
0.00033129913
0.00033145581
0.00033155883
0.00033159339
0.0003316024
0.00033160358
0.00033160276
0.0003316018
0.00033160112
0.00033160079
0.00033160079
0.00033160112
0.0003316018
0.00033160276
0.00033160358
0.00033160239
0.00033159338
0.00033155882
0.00033145579
0.00033129911
0.00033187412
0.00033199213
0.00033208932
0.00033212081
0.00033212769
0.00033212753
0.00033212596
0.00033212461
0.00033212375
0.00033212335
0.00033212335
0.00033212375
0.00033212461
0.00033212595
0.00033212752
0.00033212769
0.00033212081
0.00033208931
0.00033199212
0.0003318741
0.00033276377
0.00033282462
0.00033290883
0.0003329349
0.00033293863
0.00033293658
0.00033293395
0.00033293204
0.00033293093
0.00033293042
0.00033293042
0.00033293093
0.00033293204
0.00033293395
0.00033293657
0.00033293862
0.0003329349
0.00033290882
0.00033282461
0.00033276375
0.00033399978
0.0003339844
0.00033404741
0.00033406571
0.00033406524
0.00033406073
0.0003340567
0.00033405405
0.00033405258
0.00033405193
0.00033405193
0.00033405258
0.00033405405
0.0003340567
0.00033406073
0.00033406524
0.00033406571
0.00033404741
0.0003339844
0.00033399977
0.00033561311
0.00033550254
0.00033553497
0.00033554314
0.00033553734
0.00033552971
0.00033552389
0.00033552025
0.00033551834
0.00033551749
0.00033551749
0.00033551834
0.00033552025
0.00033552389
0.00033552971
0.00033553734
0.00033554314
0.00033553497
0.00033550254
0.00033561311
0.00033763365
0.00033740938
0.0003374009
0.00033739663
0.00033738416
0.00033737261
0.00033736452
0.00033735961
0.00033735711
0.000337356
0.00033735601
0.00033735712
0.00033735961
0.00033736453
0.00033737261
0.00033738417
0.00033739664
0.00033740091
0.00033740939
0.00033763366
0.00034009033
0.00033973439
0.00033967428
0.00033965551
0.00033963472
0.00033961838
0.00033960749
0.00033960093
0.00033959761
0.00033959617
0.00033959618
0.00033959762
0.00033960093
0.0003396075
0.00033961839
0.00033963473
0.00033965552
0.00033967429
0.00033973441
0.00034009035
0.0003430111
0.00034250651
0.00034238437
0.00034234914
0.0003423178
0.00034229562
0.00034228127
0.00034227265
0.00034226804
0.00034226619
0.00034226619
0.00034226805
0.00034227266
0.00034228128
0.00034229564
0.00034231782
0.00034234916
0.00034238439
0.00034250653
0.00034301113
0.00034642134
0.00034575259
0.00034555954
0.00034550602
0.00034546115
0.00034543185
0.00034541341
0.00034540234
0.00034539538
0.00034539298
0.00034539298
0.00034539538
0.00034540235
0.00034541343
0.00034543186
0.00034546117
0.00034550604
0.00034555956
0.00034575262
0.00034642137
0.00035033931
0.00034949233
0.0003492226
0.00034914942
0.00034908729
0.0003490502
0.00034902696
0.00034901292
0.00034900158
0.00034899844
0.00034899844
0.00034900159
0.00034901293
0.00034902697
0.00034905022
0.00034908731
0.00034914944
0.00034922263
0.00034949236
0.00035033935
0.00035477596
0.00035373963
0.00035339027
0.00035329658
0.00035321426
0.00035316924
0.00035313992
0.00035312237
0.00035310332
0.00035309912
0.00035309913
0.00035310333
0.00035312238
0.00035313994
0.00035316926
0.00035321429
0.00035329661
0.0003533903
0.00035373966
0.000354776
0.00035973824
0.00035850742
0.00035807757
0.00035796378
0.00035786002
0.00035780609
0.00035776894
0.00035774767
0.0003577161
0.00035771043
0.00035771043
0.00035771611
0.00035774769
0.00035776896
0.00035780611
0.00035786005
0.00035796382
0.0003580776
0.00035850746
0.00035973829
0.00036522859
0.00036380544
0.00036329695
0.0003631664
0.00036303997
0.00036297521
0.00036292746
0.00036290254
0.00036285229
0.0003628446
0.0003628446
0.00036285229
0.00036290255
0.00036292748
0.00036297524
0.00036304
0.00036316644
0.00036329699
0.00036380549
0.00036522864
0.00037124309
0.00036963871
0.00036905633
0.0003689164
0.0003687655
0.00036868782
0.00036862586
0.00036859767
0.00036852094
0.00036851094
0.00036851094
0.00036852094
0.00036859768
0.00036862588
0.00036868784
0.00036876553
0.00036891644
0.00036905637
0.00036963875
0.00037124313
0.00037776683
0.00037600587
0.00037535925
0.00037521992
0.00037504273
0.00037494958
0.00037486989
0.00037483968
0.00037472784
0.00037471549
0.0003747155
0.00037472784
0.00037483969
0.00037486991
0.0003749496
0.00037504276
0.00037521996
0.00037535929
0.00037600592
0.00037776687
0.00038476521
0.0003828911
0.00038219737
0.00038207073
0.00038186554
0.00038175375
0.00038165349
0.00038162358
0.0003814695
0.00038145517
0.00038145517
0.0003814695
0.00038162358
0.0003816535
0.00038175377
0.00038186557
0.00038207076
0.00038219741
0.00038289114
0.00038476525
0.00039217283
0.00039025566
0.00038954293
0.00038944391
0.00038921126
0.00038907648
0.00038895332
0.00038892737
0.00038872711
0.0003887118
0.0003887118
0.00038872711
0.00038892738
0.00038895333
0.0003890765
0.00038921129
0.00038944394
0.00038954297
0.00039025569
0.00039217286
0.00039985804
0.00039801078
0.00039732724
0.00039727401
0.00039701991
0.00039685605
0.00039670786
0.0003966914
0.00039644561
0.00039643183
0.00039643184
0.00039644561
0.0003966914
0.00039670787
0.00039685607
0.00039701993
0.00039727404
0.00039732726
0.00039801081
0.00039985807
0.00040754901
0.0004059666
0.00040539543
0.0004054182
0.00040515424
0.00040495655
0.00040478394
0.00040478545
0.00040450225
0.00040449398
0.00040449398
0.00040450225
0.00040478545
0.00040478395
0.00040495657
0.00040515426
0.00040541823
0.00040539546
0.00040596664
0.00040754905
0.00041470339
0.00041374238
0.00041342767
0.00041358453
0.0004133344
0.00041310179
0.00041291469
0.00041294672
0.00041264401
0.00041264637
0.00041264637
0.00041264401
0.00041294673
0.00041291469
0.00041310181
0.00041333443
0.00041358456
0.0004134277
0.00041374243
0.00041470347
0.00042029554
0.00042058062
0.00042079263
0.00042120996
0.00042101612
0.00042076414
0.00042059123
0.00042067143
0.00042037744
0.00042039841
0.00042039841
0.00042037744
0.00042067143
0.00042059124
0.00042076416
0.00042101615
0.00042121001
0.00042079269
0.00042058072
0.00042029571
0.00042248668
0.00042506557
0.00042633268
0.00042723316
0.00042716057
0.00042696187
0.0004268604
0.00042701323
0.00042676658
0.00042681744
0.00042681744
0.00042676659
0.00042701324
0.00042686043
0.00042696192
0.00042716063
0.00042723324
0.00042633279
0.00042506579
0.00042248704
0.00041821514
0.00042463247
0.00042797068
0.00042970969
0.00042996163
0.00042989326
0.00042997051
0.0004302326
0.00043008201
0.000430177
0.000430177
0.00043008203
0.00043023264
0.00042997058
0.00042989334
0.00042996174
0.00042970984
0.00042797092
0.00042463291
0.00041821585
0.00040305663
0.00041536513
0.00042216772
0.00042531265
0.00042641123
0.00042667519
0.00042689049
0.00042736642
0.00042737415
0.00042752995
0.00042752996
0.0004273742
0.00042736649
0.0004268906
0.00042667534
0.00042641143
0.00042531293
0.00042216815
0.00041536594
0.00040305786
0.00037332903
0.00039208183
0.00040433789
0.00040966289
0.00041204795
0.00041301539
0.0004135206
0.00041410451
0.0004143375
0.00041456863
0.00041456865
0.00041433758
0.00041410464
0.00041352079
0.00041301563
0.00041204827
0.00040966335
0.00040433859
0.00039208308
0.00037333071
0.00033885751
0.00035480855
0.00037030051
0.00037807655
0.00038205644
0.00038401391
0.00038543948
0.00038584042
0.00038629523
0.00038658714
0.00038658718
0.00038629534
0.00038584061
0.00038543975
0.00038401425
0.00038205689
0.00037807717
0.00037030141
0.00035480975
0.00033885783
0.00032463839
0.00032792085
0.00033223913
0.00033760757
0.00034168908
0.0003446768
0.00034559625
0.0003462013
0.00034662671
0.00034685802
0.00034685805
0.00034662678
0.00034620143
0.00034559642
0.00034467703
0.00034168934
0.00033760785
0.00033223941
0.00032792106
0.00032463853
0.0003159871
0.0003160936
0.00031738454
0.00032003199
0.00032232529
0.00032385609
0.00032480989
0.00032539285
0.00032571896
0.00032587659
0.0003258766
0.00032571898
0.00032539289
0.00032480994
0.00032385616
0.00032232537
0.00032003209
0.00031738464
0.00031609368
0.00031598719
0.0003085198
0.00030885353
0.00030960526
0.00031030729
0.00031120565
0.00031203884
0.00031268401
0.00031313455
0.00031341225
0.00031354607
0.00031354608
0.00031341226
0.00031313456
0.00031268403
0.00031203888
0.00031120569
0.00031030734
0.00030960533
0.0003088536
0.00030851988
0.00030216611
0.00030256792
0.00030316863
0.00030382598
0.00030451113
0.00030514767
0.00030567334
0.00030606395
0.00030631795
0.00030644287
0.00030644287
0.00030631796
0.00030606397
0.00030567336
0.0003051477
0.00030451117
0.00030382603
0.00030316869
0.00030256798
0.00030216618
0.00029707536
0.00029749187
0.00029804463
0.0002986375
0.00029922314
0.00029975903
0.00030020891
0.00030055216
0.00030078127
0.00030089554
0.00030089555
0.00030078128
0.00030055217
0.00030020893
0.00029975906
0.00029922318
0.00029863755
0.00029804468
0.00029749193
0.00029707542
0.00029346571
0.00029385509
0.0002943746
0.00029492522
0.00029545813
0.00029593965
0.00029634445
0.00029665611
0.0002968664
0.00029697206
0.00029697207
0.00029686641
0.00029665612
0.00029634447
0.00029593969
0.00029545817
0.00029492526
0.00029437465
0.00029385515
0.00029346576
0.00029155758
0.00029190191
0.00029238781
0.00029291141
0.00029341812
0.00029387462
0.00029425837
0.00029455478
0.00029475559
0.00029485682
0.00029485682
0.0002947556
0.0002945548
0.0002942584
0.00029387465
0.00029341816
0.00029291146
0.00029238786
0.00029190196
0.00029155764
)
;

boundaryField
{
    Wall
    {
        type            calculated;
        value           uniform 0.1;
    }
    frontAndBack
    {
        type            empty;
    }
    atmosphere
    {
        type            calculated;
        value           uniform 0.1;
    }
}


// ************************************************************************* //
