/*--------------------------------*- C++ -*----------------------------------*\
| =========                 |                                                 |
| \\      /  F ield         | OpenFOAM: The Open Source CFD Toolbox           |
|  \\    /   O peration     | Version:  3.0.1                                 |
|   \\  /    A nd           | Web:      www.OpenFOAM.org                      |
|    \\/     M anipulation  |                                                 |
\*---------------------------------------------------------------------------*/
FoamFile
{
    version     2.0;
    format      ascii;
    class       volScalarField;
    location    "34";
    object      thermalDiffusivity;
}
// * * * * * * * * * * * * * * * * * * * * * * * * * * * * * * * * * * * * * //

dimensions      [0 2 -1 0 0 0 0];

internalField   nonuniform List<scalar> 
800
(
1.6810525e-07
1.6811435e-07
1.6811573e-07
1.6811578e-07
1.6811571e-07
1.6811566e-07
1.6811564e-07
1.6811564e-07
1.6811564e-07
1.6811565e-07
1.6811565e-07
1.6811564e-07
1.6811564e-07
1.6811564e-07
1.6811566e-07
1.6811571e-07
1.6811579e-07
1.6811573e-07
1.6811435e-07
1.6810525e-07
1.6764681e-07
1.6770727e-07
1.6772316e-07
1.6772725e-07
1.6772784e-07
1.6772753e-07
1.6772712e-07
1.6772681e-07
1.6772662e-07
1.6772654e-07
1.6772653e-07
1.6772662e-07
1.6772681e-07
1.6772712e-07
1.6772753e-07
1.6772784e-07
1.6772725e-07
1.6772315e-07
1.6770726e-07
1.6764681e-07
1.6696043e-07
1.6706259e-07
1.6709814e-07
1.6710812e-07
1.6711023e-07
1.6711011e-07
1.6710952e-07
1.6710901e-07
1.6710869e-07
1.6710854e-07
1.6710854e-07
1.6710869e-07
1.6710901e-07
1.6710952e-07
1.671101e-07
1.6711023e-07
1.6710811e-07
1.6709813e-07
1.6706258e-07
1.6696042e-07
1.6619109e-07
1.6632926e-07
1.6638399e-07
1.6639973e-07
1.6640347e-07
1.6640363e-07
1.6640296e-07
1.6640231e-07
1.6640187e-07
1.6640167e-07
1.6640166e-07
1.6640187e-07
1.664023e-07
1.6640295e-07
1.6640363e-07
1.6640347e-07
1.6639972e-07
1.6638398e-07
1.6632925e-07
1.6619107e-07
1.6543092e-07
1.6559621e-07
1.6566733e-07
1.6568813e-07
1.6569316e-07
1.6569352e-07
1.6569276e-07
1.6569201e-07
1.6569149e-07
1.6569124e-07
1.6569124e-07
1.6569149e-07
1.65692e-07
1.6569276e-07
1.6569351e-07
1.6569315e-07
1.6568812e-07
1.6566732e-07
1.655962e-07
1.654309e-07
1.6474517e-07
1.6492647e-07
1.6501005e-07
1.6503485e-07
1.6504051e-07
1.6504082e-07
1.650399e-07
1.6503901e-07
1.6503841e-07
1.6503814e-07
1.6503813e-07
1.6503841e-07
1.6503901e-07
1.6503989e-07
1.6504082e-07
1.6504051e-07
1.6503484e-07
1.6501003e-07
1.6492645e-07
1.6474515e-07
1.6418681e-07
1.6437195e-07
1.6446293e-07
1.6449036e-07
1.6449588e-07
1.6449577e-07
1.6449452e-07
1.6449344e-07
1.6449274e-07
1.6449241e-07
1.6449241e-07
1.6449274e-07
1.6449344e-07
1.6449452e-07
1.6449576e-07
1.6449587e-07
1.6449035e-07
1.6446291e-07
1.6437194e-07
1.6418679e-07
1.6379287e-07
1.6397068e-07
1.6406289e-07
1.6409132e-07
1.6409586e-07
1.6409494e-07
1.6409319e-07
1.6409183e-07
1.6409098e-07
1.640906e-07
1.640906e-07
1.6409098e-07
1.6409183e-07
1.6409319e-07
1.6409493e-07
1.6409586e-07
1.6409131e-07
1.6406287e-07
1.6397067e-07
1.6379285e-07
1.6358112e-07
1.6374352e-07
1.6382987e-07
1.6385737e-07
1.6386026e-07
1.6385817e-07
1.6385573e-07
1.63854e-07
1.6385296e-07
1.638525e-07
1.638525e-07
1.6385296e-07
1.6385399e-07
1.6385573e-07
1.6385816e-07
1.6386025e-07
1.6385736e-07
1.6382986e-07
1.6374351e-07
1.635811e-07
1.635578e-07
1.6369996e-07
1.6377202e-07
1.6379678e-07
1.6379756e-07
1.63794e-07
1.6379069e-07
1.6378849e-07
1.6378721e-07
1.6378665e-07
1.6378665e-07
1.6378721e-07
1.6378849e-07
1.6379069e-07
1.63794e-07
1.6379756e-07
1.6379677e-07
1.6377201e-07
1.6369995e-07
1.6355779e-07
1.637131e-07
1.6383072e-07
1.638839e-07
1.6390499e-07
1.6390324e-07
1.6389818e-07
1.6389396e-07
1.6389119e-07
1.6388958e-07
1.6388892e-07
1.6388891e-07
1.6388958e-07
1.6389118e-07
1.6389396e-07
1.6389818e-07
1.6390323e-07
1.6390498e-07
1.6388389e-07
1.6383072e-07
1.6371309e-07
1.6404851e-07
1.6412524e-07
1.6416483e-07
1.6417349e-07
1.6416751e-07
1.6416165e-07
1.6415573e-07
1.6415148e-07
1.6414981e-07
1.6414926e-07
1.6414926e-07
1.6414981e-07
1.6415148e-07
1.6415573e-07
1.6416164e-07
1.641675e-07
1.6417349e-07
1.6416483e-07
1.6412524e-07
1.6404851e-07
1.6458409e-07
1.6469153e-07
1.6469751e-07
1.6466397e-07
1.6465809e-07
1.6464886e-07
1.6463438e-07
1.6463468e-07
1.6464215e-07
1.6463781e-07
1.6463781e-07
1.6464212e-07
1.6463466e-07
1.6463443e-07
1.6464886e-07
1.6465809e-07
1.6466397e-07
1.6469751e-07
1.6469154e-07
1.6458409e-07
1.652794e-07
1.6545601e-07
1.6533063e-07
1.6529934e-07
1.6533209e-07
1.6528406e-07
1.653411e-07
1.6540422e-07
1.6531609e-07
1.6527426e-07
1.6527426e-07
1.6531621e-07
1.6540348e-07
1.6534025e-07
1.6528393e-07
1.6533207e-07
1.6529934e-07
1.6533063e-07
1.6545602e-07
1.652794e-07
1.6609017e-07
1.6614043e-07
1.6605395e-07
1.6609727e-07
1.6608294e-07
1.6664803e-07
1.6683017e-07
1.6650869e-07
1.6604156e-07
1.6603812e-07
1.6603811e-07
1.6604175e-07
1.6650959e-07
1.6682653e-07
1.6664783e-07
1.6608297e-07
1.6609724e-07
1.6605395e-07
1.6614043e-07
1.6609017e-07
1.6705668e-07
1.6700454e-07
1.6691802e-07
1.6694816e-07
1.67176e-07
1.68321e-07
1.6821214e-07
1.6711199e-07
1.6688464e-07
1.6691293e-07
1.6691292e-07
1.668844e-07
1.6711333e-07
1.6821452e-07
1.6832183e-07
1.6717584e-07
1.6694815e-07
1.6691803e-07
1.6700455e-07
1.670567e-07
1.6812894e-07
1.6960603e-07
1.6822305e-07
1.6818598e-07
1.698586e-07
1.6936321e-07
1.6802033e-07
1.678247e-07
1.6790898e-07
1.6788227e-07
1.6788226e-07
1.6790938e-07
1.678251e-07
1.6802675e-07
1.6936588e-07
1.6985828e-07
1.6818588e-07
1.6822305e-07
1.6960616e-07
1.6812896e-07
1.7096256e-07
1.7851013e-07
1.7544538e-07
1.7552705e-07
1.7552855e-07
1.7031129e-07
1.688684e-07
1.686255e-07
1.6891379e-07
1.6892262e-07
1.6892262e-07
1.6891515e-07
1.6862586e-07
1.6887342e-07
1.7030767e-07
1.755285e-07
1.7552608e-07
1.7544526e-07
1.7851027e-07
1.7096257e-07
1.7914293e-07
1.798242e-07
1.7992635e-07
1.7995244e-07
1.7471679e-07
1.7320042e-07
1.7069029e-07
1.69789e-07
1.6996146e-07
1.6999457e-07
1.699946e-07
1.6996e-07
1.6977668e-07
1.7067408e-07
1.7319151e-07
1.7471253e-07
1.7995251e-07
1.7992641e-07
1.7982427e-07
1.7914299e-07
1.7987643e-07
1.8067166e-07
1.8084726e-07
1.7847521e-07
1.7196151e-07
1.7200317e-07
1.7133999e-07
1.7129022e-07
1.7101761e-07
1.7105834e-07
1.7105814e-07
1.7101684e-07
1.7128597e-07
1.713374e-07
1.7201467e-07
1.7196073e-07
1.7847076e-07
1.8084732e-07
1.8067173e-07
1.7987649e-07
1.8036513e-07
1.8141905e-07
1.8169739e-07
1.730269e-07
1.7219944e-07
1.7217321e-07
1.7209724e-07
1.720507e-07
1.7429904e-07
1.7343167e-07
1.7342243e-07
1.7430151e-07
1.7204807e-07
1.7209625e-07
1.7217351e-07
1.7220077e-07
1.7302834e-07
1.8169745e-07
1.8141911e-07
1.8036519e-07
1.8062668e-07
1.820045e-07
1.7872394e-07
1.7276175e-07
1.7285698e-07
1.728222e-07
1.7334099e-07
1.7369827e-07
1.7516161e-07
1.7518231e-07
1.7518711e-07
1.751568e-07
1.7371918e-07
1.7334789e-07
1.7282356e-07
1.7285937e-07
1.7276493e-07
1.7872696e-07
1.8200456e-07
1.8062674e-07
1.8058032e-07
1.8235612e-07
1.7440078e-07
1.7336723e-07
1.7663952e-07
1.7705569e-07
1.7771255e-07
1.7767251e-07
1.7481778e-07
1.7488598e-07
1.7488177e-07
1.7482367e-07
1.7767545e-07
1.7771551e-07
1.7704605e-07
1.7663987e-07
1.7336955e-07
1.7439751e-07
1.8235619e-07
1.8058038e-07
1.8012922e-07
1.8197703e-07
1.7677925e-07
1.7732911e-07
1.7812777e-07
1.7809379e-07
1.779861e-07
1.7794089e-07
1.7478287e-07
1.7478025e-07
1.747805e-07
1.7477057e-07
1.779439e-07
1.779891e-07
1.7809681e-07
1.7813077e-07
1.7732902e-07
1.7677979e-07
1.8197639e-07
1.8012928e-07
1.7319513e-07
1.7373432e-07
1.7751751e-07
1.7487646e-07
1.7809564e-07
1.7805555e-07
1.7793344e-07
1.7788084e-07
1.7783686e-07
1.7466686e-07
1.7466659e-07
1.7783994e-07
1.778839e-07
1.7793651e-07
1.780586e-07
1.7809872e-07
1.7487657e-07
1.7751629e-07
1.7373407e-07
1.7319603e-07
1.6860998e-07
1.72181e-07
1.7679628e-07
1.7426044e-07
1.776221e-07
1.7758552e-07
1.7744885e-07
1.7739065e-07
1.7682406e-07
1.7525798e-07
1.752746e-07
1.7683578e-07
1.7739379e-07
1.7745197e-07
1.7758866e-07
1.7762522e-07
1.7426056e-07
1.7679535e-07
1.7218113e-07
1.6861012e-07
1.6589343e-07
1.7029529e-07
1.7378082e-07
1.730395e-07
1.7381184e-07
1.7482231e-07
1.7546766e-07
1.7370582e-07
1.7323444e-07
1.7492397e-07
1.7492456e-07
1.7323457e-07
1.7369119e-07
1.7546217e-07
1.7482472e-07
1.7380146e-07
1.7303962e-07
1.7378199e-07
1.7029544e-07
1.658936e-07
1.6203716e-07
1.6742935e-07
1.6995812e-07
1.710193e-07
1.7159525e-07
1.7161736e-07
1.7147577e-07
1.7140355e-07
1.7139202e-07
1.726675e-07
1.7266348e-07
1.7139215e-07
1.7140367e-07
1.7147589e-07
1.7161748e-07
1.7159538e-07
1.7101944e-07
1.6995827e-07
1.6742952e-07
1.6203737e-07
1.5673072e-07
1.6328017e-07
1.6652367e-07
1.6793743e-07
1.6867783e-07
1.6877536e-07
1.6864789e-07
1.6856898e-07
1.6857355e-07
1.6864603e-07
1.6864616e-07
1.6857368e-07
1.6856911e-07
1.6864802e-07
1.6877549e-07
1.6867796e-07
1.6793758e-07
1.6652384e-07
1.6328039e-07
1.5673098e-07
1.4963447e-07
1.5747696e-07
1.615984e-07
1.6345205e-07
1.6441433e-07
1.646263e-07
1.6452852e-07
1.6444372e-07
1.6446277e-07
1.6453223e-07
1.6453236e-07
1.644629e-07
1.6444385e-07
1.6452866e-07
1.6462644e-07
1.6441448e-07
1.6345222e-07
1.6159859e-07
1.5747723e-07
1.496348e-07
1.5452328e-07
1.5091614e-07
1.5478247e-07
1.5716778e-07
1.5842312e-07
1.587981e-07
1.5874302e-07
1.58656e-07
1.5868532e-07
1.5874811e-07
1.5874824e-07
1.5868545e-07
1.5865614e-07
1.5874316e-07
1.5879824e-07
1.5842328e-07
1.5716796e-07
1.547827e-07
1.5091602e-07
1.5452101e-07
3.9602164e-07
1.9164354e-07
1.5618752e-07
1.5375145e-07
1.5368713e-07
1.5367505e-07
1.5348281e-07
1.5336958e-07
1.5346904e-07
1.5380929e-07
1.5380859e-07
1.5346867e-07
1.5336951e-07
1.5348274e-07
1.5367498e-07
1.5368706e-07
1.5375124e-07
1.5618673e-07
1.916368e-07
3.959793e-07
8.671736e-06
1.1199701e-06
3.5968045e-07
2.6019702e-07
2.3068839e-07
2.2016729e-07
2.1560363e-07
2.1327945e-07
2.1201603e-07
2.1207644e-07
2.1207441e-07
2.12014e-07
2.1327791e-07
2.1560176e-07
2.2016491e-07
2.306852e-07
2.6019089e-07
3.5966337e-07
1.1198423e-06
8.6699437e-06
0.00015114953
3.2844862e-05
7.6439165e-06
3.8203388e-06
2.657782e-06
2.251564e-06
2.0697161e-06
1.9829775e-06
1.9230536e-06
1.8967429e-06
1.8967339e-06
1.9230317e-06
1.9829317e-06
2.069658e-06
2.2514813e-06
2.6576607e-06
3.8200948e-06
7.6432655e-06
3.2840856e-05
0.0001511375
0.0003159871
0.0003160936
0.00014562315
0.0001107085
9.2484566e-05
8.3887057e-05
7.9853231e-05
7.7853989e-05
7.6387172e-05
7.5655431e-05
7.565523e-05
7.6386602e-05
7.7852882e-05
7.985186e-05
8.3885213e-05
9.2482168e-05
0.00011070521
0.00014561849
0.00031609368
0.00031598719
0.0003085198
0.00030885353
0.00030960526
0.00031030729
0.00031120565
0.00031203884
0.00031268401
0.00031313455
0.00031341225
0.00031354607
0.00031354608
0.00031341226
0.00031313456
0.00031268403
0.00031203888
0.00031120569
0.00031030734
0.00030960533
0.0003088536
0.00030851988
0.00030216611
0.00030256792
0.00030316863
0.00030382598
0.00030451113
0.00030514767
0.00030567334
0.00030606395
0.00030631795
0.00030644287
0.00030644287
0.00030631796
0.00030606397
0.00030567336
0.0003051477
0.00030451117
0.00030382603
0.00030316869
0.00030256798
0.00030216618
0.00029707536
0.00029749187
0.00029804463
0.0002986375
0.00029922314
0.00029975903
0.00030020891
0.00030055216
0.00030078127
0.00030089554
0.00030089555
0.00030078128
0.00030055217
0.00030020893
0.00029975906
0.00029922318
0.00029863755
0.00029804468
0.00029749193
0.00029707542
0.00029346571
0.00029385509
0.0002943746
0.00029492522
0.00029545813
0.00029593965
0.00029634445
0.00029665611
0.0002968664
0.00029697206
0.00029697207
0.00029686641
0.00029665612
0.00029634447
0.00029593969
0.00029545817
0.00029492526
0.00029437465
0.00029385515
0.00029346576
0.00029155758
0.00029190191
0.00029238781
0.00029291141
0.00029341812
0.00029387462
0.00029425837
0.00029455478
0.00029475559
0.00029485682
0.00029485682
0.0002947556
0.0002945548
0.0002942584
0.00029387465
0.00029341816
0.00029291146
0.00029238786
0.00029190196
0.00029155764
)
;

boundaryField
{
    Wall
    {
        type            calculated;
        value           uniform 4e-05;
    }
    frontAndBack
    {
        type            empty;
    }
    atmosphere
    {
        type            calculated;
        value           uniform 4e-05;
    }
}


// ************************************************************************* //
