/*--------------------------------*- C++ -*----------------------------------*\
| =========                 |                                                 |
| \\      /  F ield         | OpenFOAM: The Open Source CFD Toolbox           |
|  \\    /   O peration     | Version:  3.0.1                                 |
|   \\  /    A nd           | Web:      www.OpenFOAM.org                      |
|    \\/     M anipulation  |                                                 |
\*---------------------------------------------------------------------------*/
FoamFile
{
    version     2.0;
    format      ascii;
    class       volScalarField;
    location    "34";
    object      thermalDiff_foam;
}
// * * * * * * * * * * * * * * * * * * * * * * * * * * * * * * * * * * * * * //

dimensions      [0 2 -1 0 0 0 0];

internalField   nonuniform List<scalar> 
800
(
1.6810525e-07
1.6811435e-07
1.6811573e-07
1.6811578e-07
1.6811571e-07
1.6811566e-07
1.6811564e-07
1.6811564e-07
1.6811564e-07
1.6811565e-07
1.6811565e-07
1.6811564e-07
1.6811564e-07
1.6811564e-07
1.6811566e-07
1.6811571e-07
1.6811579e-07
1.6811573e-07
1.6811435e-07
1.6810525e-07
1.6764681e-07
1.6770727e-07
1.6772316e-07
1.6772725e-07
1.6772784e-07
1.6772753e-07
1.6772712e-07
1.677268e-07
1.6772661e-07
1.6772652e-07
1.6772652e-07
1.6772661e-07
1.677268e-07
1.6772712e-07
1.6772753e-07
1.6772784e-07
1.6772725e-07
1.6772315e-07
1.6770726e-07
1.6764681e-07
1.6695657e-07
1.6705893e-07
1.6709461e-07
1.671046e-07
1.6710673e-07
1.671066e-07
1.6710602e-07
1.6710551e-07
1.6710518e-07
1.6710502e-07
1.6710502e-07
1.6710518e-07
1.671055e-07
1.6710601e-07
1.671066e-07
1.6710673e-07
1.6710459e-07
1.670946e-07
1.6705892e-07
1.6695655e-07
1.6618254e-07
1.6632171e-07
1.6637684e-07
1.6639272e-07
1.6639651e-07
1.6639669e-07
1.6639601e-07
1.6639536e-07
1.6639491e-07
1.663947e-07
1.663947e-07
1.6639491e-07
1.6639535e-07
1.6639601e-07
1.6639668e-07
1.6639651e-07
1.6639271e-07
1.6637683e-07
1.663217e-07
1.6618252e-07
1.6540762e-07
1.6557585e-07
1.6564818e-07
1.6566939e-07
1.6567456e-07
1.6567496e-07
1.656742e-07
1.6567344e-07
1.6567291e-07
1.6567265e-07
1.6567265e-07
1.6567291e-07
1.6567343e-07
1.656742e-07
1.6567495e-07
1.6567455e-07
1.6566938e-07
1.6564817e-07
1.6557584e-07
1.6540759e-07
1.6469611e-07
1.6488343e-07
1.6496973e-07
1.6499537e-07
1.6500132e-07
1.650017e-07
1.6500078e-07
1.6499987e-07
1.6499926e-07
1.6499896e-07
1.6499896e-07
1.6499925e-07
1.6499987e-07
1.6500078e-07
1.650017e-07
1.6500131e-07
1.6499536e-07
1.6496972e-07
1.6488342e-07
1.6469609e-07
1.6409886e-07
1.6429453e-07
1.6439074e-07
1.644197e-07
1.6442571e-07
1.6442573e-07
1.6442448e-07
1.6442337e-07
1.6442263e-07
1.6442228e-07
1.6442228e-07
1.6442262e-07
1.6442336e-07
1.6442448e-07
1.6442572e-07
1.644257e-07
1.6441969e-07
1.6439073e-07
1.6429451e-07
1.6409883e-07
1.636501e-07
1.6384453e-07
1.6394595e-07
1.6397702e-07
1.6398233e-07
1.639816e-07
1.6397985e-07
1.6397843e-07
1.6397752e-07
1.639771e-07
1.639771e-07
1.6397752e-07
1.6397842e-07
1.6397984e-07
1.639816e-07
1.6398232e-07
1.6397701e-07
1.6394594e-07
1.6384452e-07
1.6365008e-07
1.6336472e-07
1.635512e-07
1.6365284e-07
1.6368481e-07
1.6368883e-07
1.6368701e-07
1.6368455e-07
1.6368272e-07
1.636816e-07
1.6368108e-07
1.6368108e-07
1.6368159e-07
1.6368272e-07
1.6368455e-07
1.63687e-07
1.6368883e-07
1.636848e-07
1.6365283e-07
1.6355119e-07
1.633647e-07
1.6324556e-07
1.6342064e-07
1.6351738e-07
1.6354911e-07
1.6355148e-07
1.6354828e-07
1.6354493e-07
1.6354258e-07
1.6354117e-07
1.6354054e-07
1.6354054e-07
1.6354117e-07
1.6354258e-07
1.6354493e-07
1.6354827e-07
1.6355147e-07
1.6354911e-07
1.6351737e-07
1.6342063e-07
1.6324554e-07
1.632808e-07
1.634453e-07
1.6353272e-07
1.6356332e-07
1.63564e-07
1.6355937e-07
1.6355497e-07
1.63552e-07
1.6355027e-07
1.6354949e-07
1.6354949e-07
1.6355026e-07
1.63552e-07
1.6355496e-07
1.6355936e-07
1.63564e-07
1.6356332e-07
1.6353271e-07
1.6344529e-07
1.6328079e-07
1.6347372e-07
1.6361249e-07
1.6368694e-07
1.6371562e-07
1.6371481e-07
1.6370882e-07
1.6370317e-07
1.6369946e-07
1.6369734e-07
1.6369638e-07
1.6369638e-07
1.6369734e-07
1.6369946e-07
1.6370316e-07
1.6370881e-07
1.6371481e-07
1.6371562e-07
1.6368693e-07
1.6361248e-07
1.6347371e-07
1.6383857e-07
1.6399149e-07
1.6404634e-07
1.6407207e-07
1.6407171e-07
1.6406532e-07
1.6405805e-07
1.6405337e-07
1.6405079e-07
1.6404959e-07
1.6404959e-07
1.6405079e-07
1.6405337e-07
1.6405805e-07
1.6406532e-07
1.640717e-07
1.6407206e-07
1.6404634e-07
1.6399149e-07
1.6383856e-07
1.6432113e-07
1.6449256e-07
1.6452945e-07
1.6455185e-07
1.6455364e-07
1.6454807e-07
1.6453857e-07
1.6453272e-07
1.6452965e-07
1.6452816e-07
1.6452816e-07
1.6452965e-07
1.6453272e-07
1.6453857e-07
1.6454807e-07
1.6455364e-07
1.6455185e-07
1.6452945e-07
1.6449256e-07
1.6432113e-07
1.6487986e-07
1.6508877e-07
1.6511383e-07
1.6513271e-07
1.6513865e-07
1.6513462e-07
1.6512244e-07
1.6511514e-07
1.651115e-07
1.6510968e-07
1.6510968e-07
1.651115e-07
1.6511514e-07
1.6512243e-07
1.6513462e-07
1.6513865e-07
1.6513271e-07
1.6511383e-07
1.6508877e-07
1.6487985e-07
1.6549102e-07
1.6575996e-07
1.6578325e-07
1.6579907e-07
1.65811e-07
1.6580881e-07
1.6579354e-07
1.6578439e-07
1.6577997e-07
1.6577801e-07
1.6577801e-07
1.6577997e-07
1.6578439e-07
1.6579354e-07
1.658088e-07
1.6581099e-07
1.6579907e-07
1.6578325e-07
1.6575996e-07
1.6549102e-07
1.661303e-07
1.6648541e-07
1.6652077e-07
1.6653558e-07
1.6655519e-07
1.6655475e-07
1.6653545e-07
1.6652389e-07
1.6651831e-07
1.6651681e-07
1.6651681e-07
1.6651831e-07
1.6652389e-07
1.6653545e-07
1.6655475e-07
1.6655519e-07
1.6653558e-07
1.6652077e-07
1.6648541e-07
1.661303e-07
1.667617e-07
1.6723578e-07
1.6730091e-07
1.6731935e-07
1.6734902e-07
1.6734958e-07
1.6732432e-07
1.6730969e-07
1.6730234e-07
1.6730248e-07
1.6730248e-07
1.6730233e-07
1.6730968e-07
1.6732432e-07
1.6734958e-07
1.6734902e-07
1.6731935e-07
1.6730091e-07
1.6723578e-07
1.667617e-07
1.6733724e-07
1.6797115e-07
1.6808744e-07
1.6811736e-07
1.6816072e-07
1.6816053e-07
1.6812659e-07
1.6810821e-07
1.6809799e-07
1.6810153e-07
1.6810153e-07
1.6809798e-07
1.681082e-07
1.6812659e-07
1.6816053e-07
1.6816072e-07
1.6811736e-07
1.6808744e-07
1.6797115e-07
1.6733724e-07
1.67801e-07
1.6864334e-07
1.6883581e-07
1.6888835e-07
1.6895007e-07
1.6894661e-07
1.6890108e-07
1.688783e-07
1.6886356e-07
1.6887258e-07
1.6887258e-07
1.6886356e-07
1.6887829e-07
1.6890107e-07
1.6894661e-07
1.6895006e-07
1.6888835e-07
1.6883581e-07
1.6864334e-07
1.6780099e-07
1.6809077e-07
1.6919782e-07
1.6949549e-07
1.6958469e-07
1.6967005e-07
1.6966083e-07
1.6960138e-07
1.6957364e-07
1.6955257e-07
1.695691e-07
1.6956909e-07
1.6955256e-07
1.6957364e-07
1.6960138e-07
1.6966083e-07
1.6967005e-07
1.6958468e-07
1.6949549e-07
1.6919782e-07
1.6809076e-07
1.6813658e-07
1.6957274e-07
1.7000973e-07
1.7015204e-07
1.7026705e-07
1.7025038e-07
1.7017588e-07
1.7014271e-07
1.7011412e-07
1.7013977e-07
1.7013977e-07
1.7011411e-07
1.701427e-07
1.7017587e-07
1.7025037e-07
1.7026704e-07
1.7015203e-07
1.7000973e-07
1.6957273e-07
1.6813657e-07
1.6785878e-07
1.6969668e-07
1.7031396e-07
1.7052801e-07
1.7068053e-07
1.7065589e-07
1.7056615e-07
1.7052715e-07
1.7049152e-07
1.7052722e-07
1.7052722e-07
1.7049152e-07
1.7052714e-07
1.7056614e-07
1.7065589e-07
1.7068052e-07
1.7052801e-07
1.7031395e-07
1.6969667e-07
1.6785878e-07
1.6716269e-07
1.6948428e-07
1.7033202e-07
1.706389e-07
1.7084043e-07
1.7080845e-07
1.707035e-07
1.7065829e-07
1.7061827e-07
1.7066408e-07
1.7066408e-07
1.7061827e-07
1.7065828e-07
1.7070349e-07
1.7080844e-07
1.7084042e-07
1.706389e-07
1.7033201e-07
1.6948427e-07
1.6716268e-07
1.6593079e-07
1.6883035e-07
1.6996991e-07
1.7039568e-07
1.7066159e-07
1.7062502e-07
1.7050514e-07
1.7045335e-07
1.7041351e-07
1.7046865e-07
1.7046864e-07
1.704135e-07
1.7045334e-07
1.7050513e-07
1.7062501e-07
1.7066158e-07
1.7039567e-07
1.6996991e-07
1.6883035e-07
1.6593079e-07
1.6401286e-07
1.6760214e-07
1.6910748e-07
1.696885e-07
1.7003621e-07
1.7000279e-07
1.6986981e-07
1.6981108e-07
1.6977698e-07
1.6983991e-07
1.6983991e-07
1.6977697e-07
1.6981107e-07
1.698698e-07
1.7000278e-07
1.700362e-07
1.6968849e-07
1.6910747e-07
1.6760215e-07
1.6401288e-07
1.6121593e-07
1.6562903e-07
1.6758957e-07
1.6837576e-07
1.6882566e-07
1.6880966e-07
1.6866864e-07
1.6860265e-07
1.6857953e-07
1.686481e-07
1.6864809e-07
1.6857952e-07
1.6860264e-07
1.6866863e-07
1.6880965e-07
1.6882565e-07
1.6837576e-07
1.6758957e-07
1.6562906e-07
1.6121597e-07
1.5729687e-07
1.6268626e-07
1.6521303e-07
1.6626991e-07
1.6684768e-07
1.6687228e-07
1.6673226e-07
1.6665878e-07
1.6665021e-07
1.6672177e-07
1.6672177e-07
1.6665021e-07
1.6665877e-07
1.6673225e-07
1.6687228e-07
1.6684768e-07
1.6626991e-07
1.6521305e-07
1.6268631e-07
1.5729695e-07
1.5196567e-07
1.5848651e-07
1.6171616e-07
1.6312018e-07
1.6386112e-07
1.6396052e-07
1.638338e-07
1.6375276e-07
1.6375971e-07
1.638312e-07
1.6383119e-07
1.6375971e-07
1.6375276e-07
1.638338e-07
1.6396052e-07
1.6386112e-07
1.631202e-07
1.6171619e-07
1.584866e-07
1.519658e-07
1.4491724e-07
1.5268785e-07
1.5677211e-07
1.586066e-07
1.5956581e-07
1.597782e-07
1.5967913e-07
1.5959096e-07
1.5961128e-07
1.5967922e-07
1.5967922e-07
1.5961128e-07
1.5959096e-07
1.5967914e-07
1.5977821e-07
1.5956582e-07
1.5860664e-07
1.5677217e-07
1.5268799e-07
1.4491744e-07
1.3592136e-07
1.4495713e-07
1.5002113e-07
1.5237143e-07
1.5361417e-07
1.5398582e-07
1.5392791e-07
1.538351e-07
1.538639e-07
1.5392449e-07
1.5392449e-07
1.5386391e-07
1.5383511e-07
1.5392792e-07
1.5398584e-07
1.536142e-07
1.5237148e-07
1.5002123e-07
1.4495732e-07
1.3592164e-07
1.2499222e-07
1.3510124e-07
1.4117047e-07
1.4410361e-07
1.456787e-07
1.462468e-07
1.4626162e-07
1.4617933e-07
1.4620983e-07
1.4625905e-07
1.4625905e-07
1.4620983e-07
1.4617934e-07
1.4626164e-07
1.4624683e-07
1.4567875e-07
1.4410368e-07
1.4117059e-07
1.3510149e-07
1.2499257e-07
1.1268672e-07
1.2324283e-07
1.3014681e-07
1.3365935e-07
1.3560779e-07
1.3636754e-07
1.3647926e-07
1.3648238e-07
1.3650532e-07
1.3653892e-07
1.3653892e-07
1.3650533e-07
1.364824e-07
1.3647929e-07
1.3636757e-07
1.3560785e-07
1.3365944e-07
1.3014697e-07
1.232431e-07
1.126871e-07
9.9811316e-08
1.0998274e-07
1.1734796e-07
1.2129825e-07
1.2361597e-07
1.2451148e-07
1.2481847e-07
1.2491054e-07
1.2491398e-07
1.2492804e-07
1.2492804e-07
1.2491399e-07
1.2491056e-07
1.248185e-07
1.2451152e-07
1.2361603e-07
1.2129835e-07
1.1734812e-07
1.0998301e-07
9.9811714e-08
0.0003159871
0.0003160936
1.0362326e-07
1.0754786e-07
1.101514e-07
1.1136081e-07
1.1172555e-07
1.1182627e-07
1.1181017e-07
1.118069e-07
1.118069e-07
1.1181019e-07
1.118263e-07
1.1172558e-07
1.1136085e-07
1.1015147e-07
1.0754797e-07
1.0362344e-07
0.00031609368
0.00031598719
0.0003085198
0.00030885353
0.00030960526
0.00031030729
0.00031120565
0.00031203884
0.00031268401
0.00031313455
0.00031341225
0.00031354607
0.00031354608
0.00031341226
0.00031313456
0.00031268403
0.00031203888
0.00031120569
0.00031030734
0.00030960533
0.0003088536
0.00030851988
0.00030216611
0.00030256792
0.00030316863
0.00030382598
0.00030451113
0.00030514767
0.00030567334
0.00030606395
0.00030631795
0.00030644287
0.00030644287
0.00030631796
0.00030606397
0.00030567336
0.0003051477
0.00030451117
0.00030382603
0.00030316869
0.00030256798
0.00030216618
0.00029707536
0.00029749187
0.00029804463
0.0002986375
0.00029922314
0.00029975903
0.00030020891
0.00030055216
0.00030078127
0.00030089554
0.00030089555
0.00030078128
0.00030055217
0.00030020893
0.00029975906
0.00029922318
0.00029863755
0.00029804468
0.00029749193
0.00029707542
0.00029346571
0.00029385509
0.0002943746
0.00029492522
0.00029545813
0.00029593965
0.00029634445
0.00029665611
0.0002968664
0.00029697206
0.00029697207
0.00029686641
0.00029665612
0.00029634447
0.00029593969
0.00029545817
0.00029492526
0.00029437465
0.00029385515
0.00029346576
0.00029155758
0.00029190191
0.00029238781
0.00029291141
0.00029341812
0.00029387462
0.00029425837
0.00029455478
0.00029475559
0.00029485682
0.00029485682
0.0002947556
0.0002945548
0.0002942584
0.00029387465
0.00029341816
0.00029291146
0.00029238786
0.00029190196
0.00029155764
)
;

boundaryField
{
    Wall
    {
        type            calculated;
        value           uniform 4e-05;
    }
    frontAndBack
    {
        type            empty;
    }
    atmosphere
    {
        type            calculated;
        value           uniform 4e-05;
    }
}


// ************************************************************************* //
