/*--------------------------------*- C++ -*----------------------------------*\
| =========                 |                                                 |
| \\      /  F ield         | OpenFOAM: The Open Source CFD Toolbox           |
|  \\    /   O peration     | Version:  3.0.1                                 |
|   \\  /    A nd           | Web:      www.OpenFOAM.org                      |
|    \\/     M anipulation  |                                                 |
\*---------------------------------------------------------------------------*/
FoamFile
{
    version     2.0;
    format      ascii;
    class       volScalarField;
    location    "34";
    object      TS;
}
// * * * * * * * * * * * * * * * * * * * * * * * * * * * * * * * * * * * * * //

dimensions      [0 0 0 1 0 0 0];

internalField   nonuniform List<scalar> 
800
(
365.99364
366.00538
366.00848
366.00904
366.00911
366.00911
366.00912
366.00914
366.00916
366.00917
366.00917
366.00916
366.00914
366.00912
366.00911
366.00911
366.00904
366.00848
366.00538
365.99364
365.66067
365.70674
365.72426
365.73005
365.73178
365.73213
365.73205
365.73189
365.73176
365.73169
365.73169
365.73176
365.73189
365.73205
365.73213
365.73178
365.73004
365.72425
365.70673
365.66066
365.28091
365.35391
365.38588
365.39696
365.40042
365.40121
365.40115
365.40089
365.40067
365.40056
365.40056
365.40067
365.40089
365.40114
365.40121
365.40042
365.39696
365.38588
365.3539
365.2809
364.97271
365.06628
365.11035
365.12586
365.13076
365.13193
365.1319
365.13159
365.13132
365.13117
365.13117
365.13132
365.13159
365.1319
365.13193
365.13075
365.12586
365.11034
365.06627
364.97269
364.75731
364.86452
364.91806
364.93697
364.9429
364.94434
364.94435
364.94402
364.94373
364.94357
364.94357
364.94373
364.94402
364.94435
364.94434
364.94289
364.93696
364.91805
364.86451
364.75729
364.65308
364.76622
364.82637
364.84748
364.8539
364.8554
364.85537
364.85501
364.8547
364.85453
364.85453
364.8547
364.85501
364.85537
364.8554
364.8539
364.84747
364.82636
364.76621
364.65307
364.68128
364.7914
364.85512
364.8771
364.88343
364.88472
364.88452
364.88408
364.88373
364.88355
364.88355
364.88373
364.88408
364.88452
364.88471
364.88343
364.8771
364.85511
364.79139
364.68126
364.86284
364.95994
365.02384
365.04533
365.05096
365.05172
365.05122
365.05063
365.05021
365.05
365.05
365.05021
365.05063
365.05122
365.05171
365.05096
365.04533
365.02383
364.95993
364.86283
365.21823
365.2914
365.35167
365.37125
365.37555
365.37546
365.3745
365.37367
365.37314
365.37289
365.37289
365.37314
365.37367
365.3745
365.37546
365.37554
365.37124
365.35166
365.2914
365.21822
365.76751
365.8053
365.85749
365.87368
365.87601
365.87476
365.87314
365.87196
365.87127
365.87096
365.87096
365.87127
365.87196
365.87314
365.87476
365.87601
365.87368
365.85749
365.80529
365.7675
366.53002
366.52062
366.55966
366.57099
366.5707
366.56792
366.56543
366.56378
366.56288
366.56247
366.56247
366.56288
366.56378
366.56543
366.56792
366.5707
366.57099
366.55966
366.52062
366.53002
367.52445
367.45617
367.47626
367.48126
367.47765
367.47293
367.46933
367.46708
367.46589
367.46537
367.46537
367.4659
367.46708
367.46933
367.47293
367.47766
367.48126
367.47626
367.45617
367.52445
368.76862
368.63009
368.62488
368.62212
368.61436
368.60721
368.6022
368.59916
368.59762
368.59694
368.59694
368.59762
368.59917
368.60221
368.60721
368.61437
368.62212
368.62488
368.63009
368.76862
370.27956
370.05982
370.02273
370.01091
369.99801
369.9879
369.98116
369.9771
369.97505
369.97417
369.97417
369.97506
369.9771
369.98116
369.9879
369.99802
370.01092
370.02274
370.05983
370.27957
372.07352
371.7623
371.68695
371.66487
371.64547
371.63175
371.62288
371.61756
371.61472
371.61358
371.61358
371.61473
371.61756
371.62288
371.63176
371.64548
371.66488
371.68696
371.76231
372.07354
374.1652
373.75317
373.63412
373.60066
373.57296
373.55485
373.54346
373.53663
373.53238
373.5309
373.5309
373.53239
373.53663
373.54347
373.55486
373.57298
373.60068
373.63414
373.75318
374.16522
376.56361
376.0425
375.87628
375.83061
375.79238
375.76945
375.75513
375.74648
375.73963
375.7377
375.7377
375.73963
375.74649
375.75514
375.76947
375.7924
375.83063
375.8763
376.04253
376.56363
379.27416
378.63752
378.42238
378.36399
378.31342
378.28562
378.26761
378.25682
378.24538
378.24281
378.24281
378.24538
378.25683
378.26762
378.28564
378.31344
378.36401
378.42241
378.63755
379.27419
382.29924
381.54425
381.27977
381.20887
381.14522
381.112
381.08929
381.07622
381.05735
381.05388
381.05389
381.05735
381.07623
381.0893
381.11202
381.14524
381.2089
381.2798
381.54428
382.29927
385.63841
384.76669
384.45409
384.3726
384.29519
384.25543
384.22639
384.21109
384.18115
384.17647
384.17647
384.18116
384.2111
384.22641
384.25545
384.29521
384.37263
384.45412
384.76672
385.63844
389.28748
388.30587
387.94809
387.86037
387.76817
387.72065
387.68316
387.66585
387.62025
387.61417
387.61417
387.62026
387.66586
387.68318
387.72066
387.76819
387.86039
387.94812
388.3059
389.2875
393.23596
392.15913
391.76193
391.67384
391.56584
391.50907
391.46106
391.44245
391.37611
391.3686
391.3686
391.37611
391.44246
391.46107
391.50908
391.56586
391.67386
391.76196
392.15916
393.23599
397.46257
396.31585
395.88925
395.80779
395.68302
395.61517
395.55494
395.53638
395.44512
395.43638
395.43638
395.44512
395.53639
395.55495
395.61518
395.68304
395.80781
395.88927
396.31587
397.46259
401.92877
400.75242
400.31255
400.24629
400.10503
400.02357
399.94977
399.93339
399.8149
399.80548
399.80549
399.8149
399.93339
399.94978
400.02358
400.10504
400.24631
400.31257
400.75244
401.92879
406.56007
405.41806
404.99195
404.95125
404.79677
404.69822
404.60965
404.5986
404.45321
404.44458
404.44458
404.45321
404.5986
404.60966
404.69823
404.79678
404.95127
404.99197
405.41808
406.56009
411.2057
410.20716
409.84112
409.84276
409.68144
409.5629
409.45986
409.45896
409.29127
409.2857
409.2857
409.29127
409.45896
409.45986
409.56291
409.68145
409.84277
409.84114
410.20718
411.20572
415.56661
414.90989
414.68381
414.75977
414.60463
414.46515
414.35303
414.36942
414.18961
414.19
414.19
414.18961
414.36942
414.35303
414.46515
414.60465
414.75979
414.68383
414.90992
415.56666
419.07756
419.11108
419.17433
419.39425
419.26846
419.11606
419.0107
419.05433
418.87845
418.88928
418.88928
418.87845
419.05434
419.01071
419.11607
419.26848
419.39428
419.17436
419.11114
419.07765
420.71833
422.03248
422.67859
423.16652
423.10566
422.97942
422.91263
422.99738
422.84727
422.87496
422.87496
422.84727
422.99739
422.91265
422.97944
423.10569
423.16656
422.67865
422.0326
420.71853
418.75797
422.24806
424.05026
425.00748
425.12311
425.0663
425.09773
425.24454
425.14787
425.20066
425.20066
425.14789
425.24456
425.09777
425.06635
425.12317
425.00757
424.05039
422.24831
418.75837
410.58594
417.51015
421.29398
423.05182
423.63736
423.76289
423.87414
424.14126
424.13393
424.22188
424.22189
424.13395
424.14131
423.8742
423.76298
423.63748
423.05197
421.29422
417.5106
410.58665
393.58455
404.64017
411.67515
414.71684
416.04667
416.5734
416.84895
417.1799
417.30308
417.43621
417.43623
417.30312
417.17997
416.84906
416.57354
416.04686
414.71711
411.67556
404.64091
393.58559
372.07217
382.51123
392.21591
396.88976
399.21441
400.35262
401.16137
401.38843
401.6509
401.82528
401.8253
401.65097
401.38855
401.16153
400.35283
399.21468
396.89014
392.21647
382.51205
372.07251
362.63988
364.25328
368.22517
371.87174
374.45322
376.27954
376.88376
377.26848
377.54754
377.70145
377.70147
377.54759
377.26857
376.88389
376.27971
374.45341
371.87196
368.22542
364.25344
362.63997
356.13234
356.41919
358.02735
359.67566
360.97222
361.84513
362.42754
362.79652
363.00493
363.10623
363.10623
363.00494
362.79655
362.42758
361.84518
360.97228
359.67573
358.02742
356.41925
356.13237
351.48195
351.72292
352.11887
352.72116
353.35287
353.89514
354.31214
354.60412
354.78384
354.87022
354.87023
354.78384
354.60413
354.31215
353.89516
353.3529
352.72119
352.11891
351.72297
351.482
347.4406
347.69743
348.0682
348.51849
348.98826
349.41475
349.76212
350.01806
350.18352
350.26456
350.26456
350.18352
350.01807
349.76213
349.41477
348.98829
348.51852
348.06824
347.69747
347.44064
344.1703
344.43462
344.7851
345.17132
345.55847
345.91248
346.20867
346.43378
346.58341
346.65781
346.65781
346.58342
346.43379
346.20869
345.9125
345.5585
345.17136
344.78514
344.43466
344.17034
341.8376
342.08609
342.41766
342.77212
343.11817
343.4321
343.6962
343.89944
344.03639
344.10514
344.10514
344.0364
343.89945
343.69622
343.43212
343.1182
342.77215
342.41769
342.08613
341.83763
340.60014
340.82077
341.13185
341.46818
341.79533
342.09121
342.34044
342.53311
342.66365
342.72945
342.72945
342.66366
342.53312
342.34046
342.09123
341.79536
341.46821
341.13188
340.82081
340.60018
)
;

boundaryField
{
    Wall
    {
        type            zeroGradient;
    }
    frontAndBack
    {
        type            empty;
    }
    atmosphere
    {
        type            zeroGradient;
    }
}


// ************************************************************************* //
