/*--------------------------------*- C++ -*----------------------------------*\
| =========                 |                                                 |
| \\      /  F ield         | OpenFOAM: The Open Source CFD Toolbox           |
|  \\    /   O peration     | Version:  3.0.1                                 |
|   \\  /    A nd           | Web:      www.OpenFOAM.org                      |
|    \\/     M anipulation  |                                                 |
\*---------------------------------------------------------------------------*/
FoamFile
{
    version     2.0;
    format      ascii;
    class       volVectorField;
    location    "34";
    object      U;
}
// * * * * * * * * * * * * * * * * * * * * * * * * * * * * * * * * * * * * * //

dimensions      [0 1 -1 0 0 0 0];

internalField   nonuniform List<vector> 
800
(
(9.1724642e-06 0.0003063733 0)
(1.0457362e-05 0.00031129807 0)
(1.1870222e-05 0.00031503532 0)
(1.2320642e-05 0.00031760247 0)
(1.1618263e-05 0.00031919474 0)
(1.0096382e-05 0.00032010974 0)
(8.1099412e-06 0.000320604 0)
(5.8893128e-06 0.00032085537 0)
(3.5611263e-06 0.0003209736 0)
(1.1894254e-06 0.00032101943 0)
(-1.193977e-06 0.00032101936 0)
(-3.5655955e-06 0.00032097339 0)
(-5.8936207e-06 0.00032085503 0)
(-8.114009e-06 0.00032060353 0)
(-1.0100128e-05 0.00032010914 0)
(-1.1621596e-05 0.00031919401 0)
(-1.2323461e-05 0.00031760161 0)
(-1.1872447e-05 0.00031503432 0)
(-1.0459016e-05 0.00031129695 0)
(-9.1737622e-06 0.00030637212 0)
(8.6781717e-06 0.00041167922 0)
(1.0037856e-05 0.00041824186 0)
(1.1596808e-05 0.00042321742 0)
(1.2165293e-05 0.0004266252 0)
(1.1543102e-05 0.00042874919 0)
(1.0075577e-05 0.00042998341 0)
(8.1211149e-06 0.00043066126 0)
(5.9125046e-06 0.00043101347 0)
(3.5811941e-06 0.00043118324 0)
(1.1972022e-06 0.00043125051 0)
(-1.2015425e-06 0.00043125043 0)
(-3.5854549e-06 0.00043118301 0)
(-5.916609e-06 0.00043101308 0)
(-8.1249851e-06 0.00043066073 0)
(-1.0079131e-05 0.00042998272 0)
(-1.1546251e-05 0.00042874834 0)
(-1.216794e-05 0.00042662418 0)
(-1.1598874e-05 0.00042321621 0)
(-1.0039364e-05 0.00041824051 0)
(-8.6793363e-06 0.0004116778 0)
(8.3327624e-06 0.00059611098 0)
(9.7530353e-06 0.00060549976 0)
(1.1410389e-05 0.00061243704 0)
(1.2024205e-05 0.00061711933 0)
(1.1431665e-05 0.00062003286 0)
(1.0000758e-05 0.00062173095 0)
(8.0812858e-06 0.00062266549 0)
(5.8968407e-06 0.00062315033 0)
(3.577587e-06 0.00062338272 0)
(1.197148e-06 0.0006234741 0)
(-1.2010344e-06 0.000623474 0)
(-3.5814019e-06 0.00062338243 0)
(-5.900515e-06 0.00062314985 0)
(-8.0847474e-06 0.00062266481 0)
(-1.0003929e-05 0.00062173006 0)
(-1.143446e-05 0.00062003176 0)
(-1.2026533e-05 0.00061711799 0)
(-1.1412176e-05 0.00061243546 0)
(-9.7542985e-06 0.00060549798 0)
(-8.3337079e-06 0.00059610909 0)
(8.2881396e-06 0.00082031382 0)
(9.7134853e-06 0.00083296403 0)
(1.1357852e-05 0.00084206686 0)
(1.192769e-05 0.0008481239 0)
(1.1309313e-05 0.00085188234 0)
(9.8852066e-06 0.00085407477 0)
(7.9908488e-06 0.00085528036 0)
(5.835598e-06 0.00085590271 0)
(3.5431651e-06 0.00085619821 0)
(1.186311e-06 0.00085631316 0)
(-1.1896278e-06 0.00085631303 0)
(-3.5464208e-06 0.00085619783 0)
(-5.8387323e-06 0.00085590208 0)
(-7.9937973e-06 0.00085527947 0)
(-9.8878977e-06 0.00085407361 0)
(-1.131167e-05 0.00085188091 0)
(-1.1929635e-05 0.00084812217 0)
(-1.135932e-05 0.00084206483 0)
(-9.7144916e-06 0.00083296175 0)
(-8.288869e-06 0.0008203114 0)
(8.3112141e-06 0.0010588938 0)
(9.7407865e-06 0.00107494 0)
(1.1364396e-05 0.0010862929 0)
(1.1878636e-05 0.0010937839 0)
(1.1217201e-05 0.0010984279 0)
(9.7813593e-06 0.0011011457 0)
(7.8983873e-06 0.0011026482 0)
(5.766105e-06 0.0011034289 0)
(3.5009574e-06 0.0011038023 0)
(1.17241e-06 0.0011039485 0)
(-1.1751322e-06 0.0011039483 0)
(-3.5036281e-06 0.0011038018 0)
(-5.7686728e-06 0.0011034281 0)
(-7.9007968e-06 0.0011026471 0)
(-9.7835483e-06 0.0011011443 0)
(-1.1219103e-05 0.0010984261 0)
(-1.1880188e-05 0.0010937818 0)
(-1.1365548e-05 0.0010862905 0)
(-9.7415547e-06 0.0010749373 0)
(-8.311753e-06 0.0010588909 0)
(8.334438e-06 0.0013029462 0)
(9.7872195e-06 0.0013224779 0)
(1.1415895e-05 0.0013361408 0)
(1.1885928e-05 0.0013450947 0)
(1.1178543e-05 0.0013506342 0)
(9.7201373e-06 0.001353881 0)
(7.8357534e-06 0.0013556839 0)
(5.7151013e-06 0.0013566274 0)
(3.4684571e-06 0.0013570829 0)
(1.1614856e-06 0.0013572629 0)
(-1.1636383e-06 0.0013572627 0)
(-3.4705672e-06 0.0013570824 0)
(-5.7171257e-06 0.0013566265 0)
(-7.8376455e-06 0.0013556826 0)
(-9.7218443e-06 0.0013538794 0)
(-1.1180012e-05 0.0013506322 0)
(-1.188711e-05 0.0013450923 0)
(-1.1416756e-05 0.0013361381 0)
(-9.7877755e-06 0.0013224748 0)
(-8.3348128e-06 0.001302943 0)
(8.3881315e-06 0.0015502844 0)
(9.8626081e-06 0.0015733573 0)
(1.1495437e-05 0.0015893609 0)
(1.1928946e-05 0.0015997848 0)
(1.1180107e-05 0.0016062137 0)
(9.6963982e-06 0.0016099792 0)
(7.8031608e-06 0.0016120733 0)
(5.6851529e-06 0.0016131733 0)
(3.4481882e-06 0.0016137074 0)
(1.1545379e-06 0.0016139196 0)
(-1.1561614e-06 0.0016139194 0)
(-3.4497772e-06 0.0016137068 0)
(-5.6866725e-06 0.0016131723 0)
(-7.8045732e-06 0.0016120719 0)
(-9.6976622e-06 0.0016099774 0)
(-1.1181182e-05 0.0016062114 0)
(-1.1929797e-05 0.0015997822 0)
(-1.1496041e-05 0.0015893579 0)
(-9.8629818e-06 0.001573354 0)
(-8.3883692e-06 0.0015502809 0)
(8.4657627e-06 0.0017998666 0)
(9.9598061e-06 0.0018265131 0)
(1.1599049e-05 0.0018448874 0)
(1.2004366e-05 0.0018567996 0)
(1.121935e-05 0.0018641234 0)
(9.7092999e-06 0.0018684062 0)
(7.8015309e-06 0.0018707881 0)
(5.6780981e-06 0.0018720418 0)
(3.4418025e-06 0.0018726528 0)
(1.1522152e-06 0.0018728966 0)
(-1.1533494e-06 0.0018728964 0)
(-3.4429105e-06 0.0018726522 0)
(-5.6791527e-06 0.0018720408 0)
(-7.8025029e-06 0.0018707866 0)
(-9.7101593e-06 0.0018684043 0)
(-1.1220068e-05 0.0018641211 0)
(-1.2004921e-05 0.0018567969 0)
(-1.1599428e-05 0.0018448843 0)
(-9.9600255e-06 0.0018265096 0)
(-8.4658878e-06 0.001799863 0)
(8.5655364e-06 0.0020501309 0)
(1.0085146e-05 0.0020803881 0)
(1.1741619e-05 0.0021012015 0)
(1.2125048e-05 0.0021146601 0)
(1.1304975e-05 0.0021229158 0)
(9.7652133e-06 0.0021277383 0)
(7.836077e-06 0.0021304225 0)
(5.6980691e-06 0.0021318396 0)
(3.4520047e-06 0.0021325335 0)
(1.1554646e-06 0.0021328119 0)
(-1.1561405e-06 0.0021328117 0)
(-3.4526625e-06 0.0021325329 0)
(-5.6986895e-06 0.0021318384 0)
(-7.8366403e-06 0.0021304209 0)
(-9.7657001e-06 0.0021277363 0)
(-1.1305368e-05 0.0021229133 0)
(-1.2125337e-05 0.0021146572 0)
(-1.1741801e-05 0.0021011983 0)
(-1.0085233e-05 0.0020803845 0)
(-8.565569e-06 0.0020501272 0)
(8.6827357e-06 0.0022974953 0)
(1.0271588e-05 0.0023314297 0)
(1.1996295e-05 0.0023548512 0)
(1.2357006e-05 0.0023700102 0)
(1.1485471e-05 0.0023793059 0)
(9.8998242e-06 0.0023847444 0)
(7.9331656e-06 0.002387786 0)
(5.7634578e-06 0.0023894054 0)
(3.48972e-06 0.0023902076 0)
(1.1679169e-06 0.0023905329 0)
(-1.1681635e-06 0.0023905327 0)
(-3.489956e-06 0.0023902069 0)
(-5.763673e-06 0.0023894042 0)
(-7.9333507e-06 0.0023877843 0)
(-9.8999704e-06 0.0023847422 0)
(-1.1485571e-05 0.0023793033 0)
(-1.2357059e-05 0.0023700072 0)
(-1.1996305e-05 0.0023548478 0)
(-1.0271565e-05 0.002331426 0)
(-8.6826947e-06 0.0022974915 0)
(8.794215e-06 0.0025428901 0)
(1.0598497e-05 0.0025806374 0)
(1.2555015e-05 0.0026066024 0)
(1.2871243e-05 0.002623349 0)
(1.1887639e-05 0.0026335883 0)
(1.0207889e-05 0.0026395651 0)
(8.1630814e-06 0.0026429028 0)
(5.9230771e-06 0.0026446787 0)
(3.5837709e-06 0.0026455585 0)
(1.1991082e-06 0.0026459156 0)
(-1.1989703e-06 0.0026459154 0)
(-3.5836306e-06 0.0026455578 0)
(-5.9229333e-06 0.0026446775 0)
(-8.1629341e-06 0.0026429012 0)
(-1.020774e-05 0.002639563 0)
(-1.188749e-05 0.0026335857 0)
(-1.2871101e-05 0.002623346 0)
(-1.2554888e-05 0.0026065991 0)
(-1.0598394e-05 0.0025806338 0)
(-8.7941241e-06 0.0025428863 0)
(9.0703504e-06 0.002792001 0)
(1.0992144e-05 0.0028334854 0)
(1.3021766e-05 0.0028617987 0)
(1.3281621e-05 0.002879948 0)
(1.2213939e-05 0.0028909946 0)
(1.0462622e-05 0.0028974072 0)
(8.3553868e-06 0.0029009619 0)
(6.0574027e-06 0.0029028359 0)
(3.6631757e-06 0.0029037551 0)
(1.2255022e-06 0.0029041248 0)
(-1.2249429e-06 0.0029041246 0)
(-3.6626242e-06 0.0029037545 0)
(-6.0568662e-06 0.0029028348 0)
(-8.3548752e-06 0.0029009603 0)
(-1.0462148e-05 0.0028974053 0)
(-1.2213514e-05 0.0028909923 0)
(-1.3281259e-05 0.0028799453 0)
(-1.3021484e-05 0.0028617956 0)
(-1.0991946e-05 0.0028334821 0)
(-9.0702032e-06 0.0027919975 0)
(9.3014374e-06 0.0030460946 0)
(1.1281285e-05 0.0030912318 0)
(1.338457e-05 0.0031219399 0)
(1.3628323e-05 0.0031415532 0)
(1.2508088e-05 0.0031534542 0)
(1.0699174e-05 0.0031603375 0)
(8.5356371e-06 0.0031641343 0)
(6.1837732e-06 0.0031661249 0)
(3.7379106e-06 0.0031670959 0)
(1.2503203e-06 0.0031674842 0)
(-1.2493113e-06 0.003167484 0)
(-3.7369191e-06 0.0031670952 0)
(-6.1828177e-06 0.0031661239 0)
(-8.5347382e-06 0.0031641329 0)
(-1.0698352e-05 0.0031603357 0)
(-1.2507366e-05 0.003153452 0)
(-1.3627726e-05 0.0031415507 0)
(-1.3384122e-05 0.0031219371 0)
(-1.1280991e-05 0.0030912287 0)
(-9.3012375e-06 0.0030460914 0)
(9.5955812e-06 0.0033030267 0)
(1.1612951e-05 0.0033518546 0)
(1.3769281e-05 0.0033851718 0)
(1.3989237e-05 0.0034063402 0)
(1.2820425e-05 0.0034191461 0)
(1.095202e-05 0.0034265331 0)
(8.7273657e-06 0.0034305965 0)
(6.3183226e-06 0.0034327219 0)
(3.8175445e-06 0.0034337573 0)
(1.2766274e-06 0.0034341703 0)
(-1.2751576e-06 0.0034341701 0)
(-3.8161031e-06 0.0034337567 0)
(-6.3169389e-06 0.0034327209 0)
(-8.726072e-06 0.0034305951 0)
(-1.0950846e-05 0.0034265314 0)
(-1.2819401e-05 0.003419144 0)
(-1.3988395e-05 0.0034063378 0)
(-1.376864e-05 0.0033851691 0)
(-1.1612545e-05 0.0033518519 0)
(-9.5953284e-06 0.0033030236 0)
(9.8960939e-06 0.0035517364 0)
(1.2055528e-05 0.0036045524 0)
(1.4343435e-05 0.0036406051 0)
(1.4425918e-05 0.0036635479 0)
(1.3185602e-05 0.0036774074 0)
(1.1244138e-05 0.0036854101 0)
(8.9475506e-06 0.0036898303 0)
(6.4730074e-06 0.0036921591 0)
(3.9088416e-06 0.0036933058 0)
(1.3064322e-06 0.0036937651 0)
(-1.3045176e-06 0.0036937648 0)
(-3.9069643e-06 0.0036933051 0)
(-6.4712095e-06 0.0036921578 0)
(-8.9458795e-06 0.0036898286 0)
(-1.1242626e-05 0.0036854081 0)
(-1.3184278e-05 0.003677405 0)
(-1.4424815e-05 0.0036635453 0)
(-1.434238e-05 0.0036406022 0)
(-1.2055014e-05 0.0036045494 0)
(-9.8960276e-06 0.0035517333 0)
(1.0213734e-05 0.0038034308 0)
(1.2611643e-05 0.0038604349 0)
(1.5249434e-05 0.0038989642 0)
(1.5243667e-05 0.0039234308 0)
(1.3833412e-05 0.0039381577 0)
(1.1754583e-05 0.0039466347 0)
(9.3340683e-06 0.0039513042 0)
(6.7469106e-06 0.0039537568 0)
(4.0705993e-06 0.0039549636 0)
(1.3583078e-06 0.0039554437 0)
(-1.3562264e-06 0.0039554434 0)
(-4.0685288e-06 0.0039549628 0)
(-6.7448782e-06 0.0039537555 0)
(-9.3321065e-06 0.0039513025 0)
(-1.175274e-05 0.0039466325 0)
(-1.3831743e-05 0.0039381553 0)
(-1.5242234e-05 0.0039234281 0)
(-1.5248308e-05 0.0038989612 0)
(-1.2610973e-05 0.0038604314 0)
(-1.0213369e-05 0.0038034273 0)
(1.0697784e-05 0.0040685235 0)
(1.3165037e-05 0.0041294917 0)
(1.5842487e-05 0.0041705059 0)
(1.5733028e-05 0.0041963062 0)
(1.4234159e-05 0.0042117484 0)
(1.2070706e-05 0.0042205859 0)
(9.5682783e-06 0.0042254195 0)
(6.9114766e-06 0.0042279344 0)
(4.1671671e-06 0.0042291653 0)
(1.3882207e-06 0.0042296478 0)
(-1.3858175e-06 0.0042296477 0)
(-4.164786e-06 0.004229165 0)
(-6.9091448e-06 0.0042279339 0)
(-9.5660559e-06 0.0042254188 0)
(-1.2068637e-05 0.0042205849 0)
(-1.4232293e-05 0.0042117471 0)
(-1.5731453e-05 0.0041963045 0)
(-1.5841303e-05 0.004170504 0)
(-1.3164361e-05 0.0041294895 0)
(-1.0697391e-05 0.0040685211 0)
(1.1149475e-05 0.0043395181 0)
(1.3806549e-05 0.004404625 0)
(1.6638721e-05 0.0044480716 0)
(1.6304142e-05 0.0044752358 0)
(1.4681393e-05 0.0044913965 0)
(1.2419327e-05 0.0045005864 0)
(9.8235105e-06 0.0045055777 0)
(7.0940674e-06 0.0045081524 0)
(4.276612e-06 0.0045094075 0)
(1.4211086e-06 0.0045098943 0)
(-1.417957e-06 0.0045098942 0)
(-4.2735318e-06 0.0045094073 0)
(-7.0911225e-06 0.0045081521 0)
(-9.8207705e-06 0.0045055772 0)
(-1.2416851e-05 0.0045005858 0)
(-1.4679247e-05 0.0044913957 0)
(-1.6302387e-05 0.0044752348 0)
(-1.6637428e-05 0.0044480705 0)
(-1.3805839e-05 0.0044046237 0)
(-1.1149064e-05 0.0043395166 0)
(1.1812012e-05 0.0046218387 0)
(1.4509413e-05 0.004691118 0)
(1.7189465e-05 0.0047367909 0)
(1.6661822e-05 0.0047651685 0)
(1.4934857e-05 0.0047819212 0)
(1.2589619e-05 0.0047913552 0)
(9.9282737e-06 0.0047964185 0)
(7.1678309e-06 0.0047989915 0)
(4.3242774e-06 0.0048002281 0)
(1.4348428e-06 0.0048007009 0)
(-1.4312742e-06 0.0048007008 0)
(-4.3207856e-06 0.0048002278 0)
(-7.1644965e-06 0.004798991 0)
(-9.9251684e-06 0.0047964178 0)
(-1.2586821e-05 0.0047913544 0)
(-1.493244e-05 0.0047819203 0)
(-1.6659849e-05 0.0047651674 0)
(-1.7188022e-05 0.0047367898 0)
(-1.4508627e-05 0.0046911167 0)
(-1.1811566e-05 0.0046218373 0)
(1.2490072e-05 0.0049163778 0)
(1.5221196e-05 0.0049896086 0)
(1.7696405e-05 0.0050375417 0)
(1.693141e-05 0.0050671063 0)
(1.5075036e-05 0.0050844106 0)
(1.263589e-05 0.0050940589 0)
(9.9221328e-06 0.0050991753 0)
(7.1606516e-06 0.005101735 0)
(4.326533e-06 0.0051029445 0)
(1.4348779e-06 0.0051033987 0)
(-1.4308723e-06 0.0051033987 0)
(-4.3226124e-06 0.0051029444 0)
(-7.1569016e-06 0.0051017348 0)
(-9.9186382e-06 0.005099175 0)
(-1.2632747e-05 0.0050940585 0)
(-1.5072324e-05 0.0050844101 0)
(-1.6929206e-05 0.0050671058 0)
(-1.7694803e-05 0.0050375413 0)
(-1.5220322e-05 0.0049896081 0)
(-1.2489589e-05 0.0049163773 0)
(1.3176243e-05 0.0052226202 0)
(1.5926556e-05 0.0052997542 0)
(1.8111532e-05 0.0053497991 0)
(1.7060167e-05 0.005380386 0)
(1.5046084e-05 0.0053980986 0)
(1.2506122e-05 0.0054078547 0)
(9.7609303e-06 0.0054129491 0)
(7.035526e-06 0.0054154381 0)
(4.2590561e-06 0.0054165786 0)
(1.41367e-06 0.0054169933 0)
(-1.4092004e-06 0.0054169933 0)
(-4.2546806e-06 0.0054165786 0)
(-7.0313464e-06 0.0054154382 0)
(-9.7570316e-06 0.0054129492 0)
(-1.2502608e-05 0.0054078548 0)
(-1.5043053e-05 0.0053980987 0)
(-1.7057709e-05 0.0053803862 0)
(-1.8109749e-05 0.0053497994 0)
(-1.5925575e-05 0.0052997546 0)
(-1.317571e-05 0.0052226205 0)
(1.3798192e-05 0.0055426761 0)
(1.6545906e-05 0.005623659 0)
(1.8367729e-05 0.0056756231 0)
(1.6974151e-05 0.0057070228 0)
(1.4778666e-05 0.005724962 0)
(1.2144664e-05 0.0057346907 0)
(9.3974886e-06 0.0057396654 0)
(6.7515356e-06 0.00574201 0)
(4.0943734e-06 0.0057430318 0)
(1.3620936e-06 0.0057433803 0)
(-1.3571177e-06 0.0057433804 0)
(-4.0895019e-06 0.0057430321 0)
(-6.7468732e-06 0.0057420104 0)
(-9.3931365e-06 0.0057396659 0)
(-1.2140732e-05 0.0057346914 0)
(-1.4775273e-05 0.0057249629 0)
(-1.69714e-05 0.0057070238 0)
(-1.8365724e-05 0.0056756244 0)
(-1.6544759e-05 0.0056236603 0)
(-1.3797561e-05 0.0055426774 0)
(1.4342909e-05 0.0058790068 0)
(1.7049261e-05 0.0059637661 0)
(1.8368789e-05 0.0060174123 0)
(1.6567994e-05 0.0060493714 0)
(1.4173621e-05 0.0060673215 0)
(1.1468576e-05 0.0060768487 0)
(8.7637372e-06 0.0060815721 0)
(6.2561343e-06 0.0060836775 0)
(3.7992022e-06 0.0060845235 0)
(1.2684842e-06 0.0060847754 0)
(-1.2629338e-06 0.0060847756 0)
(-3.7937687e-06 0.0060845239 0)
(-6.2509268e-06 0.0060836783 0)
(-8.7588615e-06 0.0060815732 0)
(-1.1464162e-05 0.0060768501 0)
(-1.4169804e-05 0.0060673233 0)
(-1.6564906e-05 0.0060493734 0)
(-1.8366565e-05 0.0060174145 0)
(-1.7048041e-05 0.0059637685 0)
(-1.4342243e-05 0.0058790091 0)
(1.470924e-05 0.0062343372 0)
(1.7321521e-05 0.0063227473 0)
(1.7990063e-05 0.0063778105 0)
(1.5708934e-05 0.0064100385 0)
(1.3111538e-05 0.0064277589 0)
(1.0368945e-05 0.0064368676 0)
(7.7747132e-06 0.0064411686 0)
(5.4954588e-06 0.0064429182 0)
(3.343872e-06 0.0064435229 0)
(1.1215333e-06 0.0064436447 0)
(-1.1153191e-06 0.006443645 0)
(-3.3377864e-06 0.0064435236 0)
(-5.4896204e-06 0.0064429194 0)
(-7.7692242e-06 0.0064411702 0)
(-1.0363966e-05 0.0064368697 0)
(-1.3107226e-05 0.0064277614 0)
(-1.5705443e-05 0.0064100414 0)
(-1.7987557e-05 0.0063778136 0)
(-1.7320148e-05 0.0063227505 0)
(-1.4708503e-05 0.0062343403 0)
(1.4799823e-05 0.006611437 0)
(1.7236473e-05 0.0067033727 0)
(1.705146e-05 0.0067595684 0)
(1.4222076e-05 0.0067917521 0)
(1.1434312e-05 0.0068089548 0)
(8.6996882e-06 0.0068173778 0)
(6.32148e-06 0.0068210443 0)
(4.4056906e-06 0.0068222929 0)
(2.6959879e-06 0.0068225759 0)
(9.093019e-07 0.0068225304 0)
(-9.0237709e-07 0.0068225307 0)
(-2.6892263e-06 0.0068225769 0)
(-4.3992169e-06 0.0068222944 0)
(-6.3153588e-06 0.0068210464 0)
(-8.6941477e-06 0.0068173806 0)
(-1.1429518e-05 0.006808958 0)
(-1.4218182e-05 0.0067917558 0)
(-1.7048705e-05 0.0067595724 0)
(-1.7235023e-05 0.0067033768 0)
(-1.4799063e-05 0.0066114408 0)
(1.4470044e-05 0.0070132863 0)
(1.6585095e-05 0.0071086653 0)
(1.5299649e-05 0.0071657348 0)
(1.1855013e-05 0.0071975602 0)
(8.913995e-06 0.0072139047 0)
(6.2707566e-06 0.0072213203 0)
(4.2651937e-06 0.0072241069 0)
(2.9041302e-06 0.0072246912 0)
(1.8151803e-06 0.0072245658 0)
(6.1822927e-07 0.0072243152 0)
(-6.1049837e-07 0.0072243155 0)
(-1.8076869e-06 0.007224567 0)
(-2.8969779e-06 0.007224693 0)
(-4.2583413e-06 0.0072241096 0)
(-6.2646009e-06 0.0072213239 0)
(-8.9086469e-06 0.0072139088 0)
(-1.18506e-05 0.007197565 0)
(-1.529657e-05 0.00716574 0)
(-1.6583528e-05 0.0071086706 0)
(-1.4469231e-05 0.0070132911 0)
(1.357816e-05 0.0074426334 0)
(1.5092155e-05 0.0075415668 0)
(1.236649e-05 0.007599377 0)
(8.2582558e-06 0.0076305783 0)
(5.2495119e-06 0.007645684 0)
(2.8645826e-06 0.0076517459 0)
(1.4711707e-06 0.0076533992 0)
(9.2014752e-07 0.0076531869 0)
(6.7223845e-07 0.0076525503 0)
(2.3988407e-07 0.0076520621 0)
(-2.3141462e-07 0.0076520625 0)
(-6.6405756e-07 0.0076525518 0)
(-9.1215889e-07 0.0076531888 0)
(-1.4633271e-06 0.0076534022 0)
(-2.8578203e-06 0.0076517498 0)
(-5.2435666e-06 0.007645689 0)
(-8.2531849e-06 0.0076305842 0)
(-1.2362943e-05 0.0075993836 0)
(-1.5090361e-05 0.0075415735 0)
(-1.3577198e-05 0.0074426394 0)
(1.1967912e-05 0.0079013352 0)
(1.2376422e-05 0.0080044591 0)
(7.745674e-06 0.0080632257 0)
(2.9674446e-06 0.0080936724 0)
(8.349845e-08 0.0081071167 0)
(-1.7271662e-06 0.0081114845 0)
(-2.1446086e-06 0.008111739 0)
(-1.5897728e-06 0.0081105672 0)
(-7.7435775e-07 0.0081093777 0)
(-2.3347328e-07 0.0081086428 0)
(2.4289548e-07 0.0081086434 0)
(7.8303229e-07 0.0081093788 0)
(1.5981477e-06 0.0081105697 0)
(2.1531765e-06 0.0081117422 0)
(1.7350121e-06 0.0081114889 0)
(-7.641075e-08 0.008107123 0)
(-2.9615391e-06 0.0080936794 0)
(-7.7413793e-06 0.0080632336 0)
(-1.2374203e-05 0.0080044677 0)
(-1.1966636e-05 0.007901343 0)
(9.532548e-06 0.0083887188 0)
(7.9748091e-06 0.0084979609 0)
(7.6933718e-07 0.0085586803 0)
(-4.6310983e-06 0.0085884667 0)
(-7.0129493e-06 0.0085998865 0)
(-7.7088149e-06 0.0086023006 0)
(-6.7214729e-06 0.0086009938 0)
(-4.6429014e-06 0.0085987854 0)
(-2.4618758e-06 0.0085970059 0)
(-7.843129e-07 0.008596033 0)
(7.9391911e-07 0.0085960337 0)
(2.4715043e-06 0.0085970078 0)
(4.6524794e-06 0.0085987879 0)
(6.730726e-06 0.0086009974 0)
(7.7181281e-06 0.0086023057 0)
(7.0208927e-06 0.0085998927 0)
(4.6374323e-06 0.0085884757 0)
(-7.6390351e-07 0.0085586902 0)
(-7.9716503e-06 0.0084979716 0)
(-9.5306041e-06 0.0083887288 0)
(6.3161527e-06 0.0088986806 0)
(1.4868548e-06 0.0090190395 0)
(-9.3590902e-06 0.0090841333 0)
(-1.5219265e-05 0.0091139105 0)
(-1.6377563e-05 0.00912342 0)
(-1.5102358e-05 0.0091237791 0)
(-1.2139436e-05 0.0091208945 0)
(-8.1869939e-06 0.0091176602 0)
(-4.4073128e-06 0.0091154347 0)
(-1.4029345e-06 0.0091143092 0)
(1.4140971e-06 0.0091143098 0)
(4.4170915e-06 0.0091154369 0)
(8.1962831e-06 0.0091176636 0)
(1.2149765e-05 0.0091208996 0)
(1.5111966e-05 0.0091237856 0)
(1.6387653e-05 0.0091234293 0)
(1.5228063e-05 0.0091139198 0)
(9.3651868e-06 0.0090841463 0)
(-1.4827018e-06 0.0090190537 0)
(-6.312949e-06 0.0088986951 0)
(2.8522969e-06 0.0094157774 0)
(-6.9333643e-06 0.0095573736 0)
(-2.3233424e-05 0.0096318929 0)
(-2.9036429e-05 0.009663548 0)
(-2.7989308e-05 0.0096718852 0)
(-2.3840517e-05 0.0096710853 0)
(-1.8320611e-05 0.0096672744 0)
(-1.2006308e-05 0.0096637094 0)
(-6.3189027e-06 0.0096614568 0)
(-2.0029653e-06 0.0096603736 0)
(2.0143141e-06 0.0096603741 0)
(6.3303057e-06 0.0096614579 0)
(1.2017816e-05 0.0096637127 0)
(1.8331918e-05 0.009667279 0)
(2.3852591e-05 0.0096710913 0)
(2.7998532e-05 0.0096718939 0)
(2.9045072e-05 0.0096635593 0)
(2.3243092e-05 0.0096319075 0)
(6.9398918e-06 0.0095573919 0)
(-2.8463235e-06 0.009415798 0)
(-8.2020902e-07 0.0099179863 0)
(-1.6565672e-05 0.010092681 0)
(-4.0256643e-05 0.010184077 0)
(-4.5641942e-05 0.010221403 0)
(-4.0878229e-05 0.010231313 0)
(-3.2395707e-05 0.010231155 0)
(-2.3847108e-05 0.010228081 0)
(-1.5147685e-05 0.010226292 0)
(-7.871787e-06 0.010224739 0)
(-2.4816912e-06 0.010223948 0)
(2.4932535e-06 0.010223949 0)
(7.8832074e-06 0.010224741 0)
(1.5159271e-05 0.010226294 0)
(2.3858779e-05 0.010228084 0)
(3.2407742e-05 0.010231159 0)
(4.0891295e-05 0.010231319 0)
(4.5653873e-05 0.010221414 0)
(4.0267491e-05 0.010184093 0)
(1.6577002e-05 0.010092704 0)
(8.3043165e-07 0.0099180135 0)
(-1.2242243e-05 0.010416828 0)
(-3.2708297e-05 0.010603145 0)
(-5.8760941e-05 0.01071229 0)
(-6.1922634e-05 0.01075946 0)
(-5.2718354e-05 0.010777558 0)
(-3.92304e-05 0.010781646 0)
(-2.6338307e-05 0.010784283 0)
(-1.5612206e-05 0.010785553 0)
(-8.4126208e-06 0.010784816 0)
(-2.6990069e-06 0.010784343 0)
(2.7109497e-06 0.010784344 0)
(8.4244786e-06 0.010784817 0)
(1.5624384e-05 0.010785555 0)
(2.6350342e-05 0.010784286 0)
(3.9243075e-05 0.010781651 0)
(5.2731592e-05 0.010777565 0)
(6.193689e-05 0.010759469 0)
(5.8775538e-05 0.010712306 0)
(3.2722738e-05 0.010603167 0)
(1.2255282e-05 0.010416863 0)
(-9.5899295e-05 0.01082283 0)
(-0.00010673642 0.011092309 0)
(-8.3108871e-05 0.011228413 0)
(-7.3719654e-05 0.01127902 0)
(-5.8801903e-05 0.011310373 0)
(-3.9290913e-05 0.011328033 0)
(-2.2157873e-05 0.011333939 0)
(-1.345954e-05 0.011334272 0)
(-8.2690031e-06 0.011332925 0)
(-2.7280348e-06 0.011332159 0)
(2.7401912e-06 0.011332159 0)
(8.2808994e-06 0.011332927 0)
(1.3471874e-05 0.011334274 0)
(2.2170532e-05 0.011333942 0)
(3.9303719e-05 0.011328038 0)
(5.8815001e-05 0.011310379 0)
(7.3733603e-05 0.011279028 0)
(8.3121767e-05 0.011228426 0)
(0.00010675289 0.011092332 0)
(9.591256e-05 0.010822868 0)
(0.00014606295 0.011112724 0)
(-1.3440454e-05 0.011538231 0)
(-9.966347e-05 0.011656267 0)
(-9.9584183e-05 0.011750693 0)
(-5.9305603e-05 0.011805718 0)
(-3.4377993e-05 0.011834481 0)
(-2.1010862e-05 0.011842716 0)
(-1.3514475e-05 0.011842993 0)
(-9.0064191e-06 0.011842796 0)
(-3.0304214e-06 0.011842581 0)
(3.0427659e-06 0.011842582 0)
(9.0181027e-06 0.011842798 0)
(1.3526732e-05 0.011842996 0)
(2.1023074e-05 0.01184272 0)
(3.4389908e-05 0.011834486 0)
(5.9316972e-05 0.011805724 0)
(9.9595916e-05 0.011750703 0)
(9.9678615e-05 0.01165628 0)
(1.3460896e-05 0.011538253 0)
(-0.00014603289 0.011112799 0)
(0.0010684795 0.010211537 0)
(0.0007989562 0.011778895 0)
(0.00032328561 0.012024477 0)
(0.00012994987 0.012301172 0)
(4.9431792e-05 0.012392007 0)
(2.3620724e-05 0.012416409 0)
(1.5698251e-05 0.012427249 0)
(8.573997e-06 0.01242858 0)
(3.0959942e-06 0.012428836 0)
(8.5350276e-07 0.012428309 0)
(-8.4085486e-07 0.012428309 0)
(-3.0839564e-06 0.012428838 0)
(-8.5615216e-06 0.012428583 0)
(-1.5686427e-05 0.012427254 0)
(-2.3609623e-05 0.012416418 0)
(-4.9420737e-05 0.012392018 0)
(-0.00012993846 0.012301189 0)
(-0.00032326707 0.0120245 0)
(-0.00079892047 0.011778934 0)
(-0.001068458 0.010211708 0)
(0.0012231068 0.0085108299 0)
(0.0020354037 0.011618741 0)
(0.0018393669 0.012078831 0)
(0.0013651292 0.01219735 0)
(0.00092953794 0.012208824 0)
(0.00059422643 0.012225771 0)
(0.00035580551 0.012230896 0)
(0.00021193863 0.012230374 0)
(0.00011366238 0.012223876 0)
(3.6417118e-05 0.012217699 0)
(-3.6407647e-05 0.0122177 0)
(-0.00011365314 0.012223887 0)
(-0.00021192749 0.012230387 0)
(-0.00035578825 0.012230913 0)
(-0.00059420262 0.012225796 0)
(-0.00092951932 0.012208853 0)
(-0.0013651197 0.012197383 0)
(-0.0018393424 0.012078861 0)
(-0.0020353752 0.011618786 0)
(-0.0012231174 0.008510965 0)
(0.00091206969 0.0068479911 0)
(0.0020544177 0.011010242 0)
(0.0023493647 0.012176171 0)
(0.0021423091 0.012414111 0)
(0.0017286313 0.012380155 0)
(0.0012986743 0.012282324 0)
(0.00092134197 0.012210268 0)
(0.00060279656 0.01215733 0)
(0.00033743186 0.01211728 0)
(0.00010971753 0.012093639 0)
(-0.00010971211 0.012093643 0)
(-0.00033742427 0.012117292 0)
(-0.00060279151 0.012157349 0)
(-0.00092133442 0.012210286 0)
(-0.0012986703 0.012282336 0)
(-0.0017286159 0.012380167 0)
(-0.0021422916 0.012414139 0)
(-0.0023493447 0.012176214 0)
(-0.002054386 0.011010281 0)
(-0.00091206942 0.0068481422 0)
(0.00057225271 0.0055055755 0)
(0.0016328351 0.010206092 0)
(0.0021445126 0.012054894 0)
(0.0021665526 0.012677799 0)
(0.0019126378 0.012799547 0)
(0.0015483254 0.012732843 0)
(0.0011635141 0.012601844 0)
(0.00079872149 0.012473614 0)
(0.00046258903 0.012378196 0)
(0.00015391494 0.01232693 0)
(-0.00015391606 0.012326934 0)
(-0.00046259037 0.012378202 0)
(-0.00079872121 0.012473622 0)
(-0.0011635135 0.012601851 0)
(-0.0015483145 0.012732857 0)
(-0.0019126263 0.012799564 0)
(-0.0021665583 0.012677807 0)
(-0.0021444925 0.01205492 0)
(-0.0016328036 0.01020614 0)
(-0.00057226323 0.005505718 0)
(0.00034392502 0.0043329235 0)
(0.0011636005 0.0091913001 0)
(0.0017042732 0.011594665 0)
(0.0018680409 0.012686586 0)
(0.0017695032 0.013108093 0)
(0.0015233268 0.013189915 0)
(0.0012032339 0.013116116 0)
(0.0008571625 0.012992288 0)
(0.00051046779 0.012882956 0)
(0.00017273709 0.012821314 0)
(-0.00017274435 0.012821315 0)
(-0.00051047435 0.012882961 0)
(-0.00085716988 0.012992293 0)
(-0.0012032309 0.01311612 0)
(-0.0015233259 0.013189923 0)
(-0.0017695085 0.013108091 0)
(-0.0018680443 0.012686591 0)
(-0.0017042739 0.01159469 0)
(-0.0011636029 0.0091913485 0)
(-0.00034394056 0.0043330558 0)
)
;

boundaryField
{
    Wall
    {
        type            fixedValue;
        value           uniform (0 0 0);
    }
    frontAndBack
    {
        type            empty;
    }
    atmosphere
    {
        type            pressureInletOutletVelocity;
        value           nonuniform List<vector> 
20
(
(0.00034392502 0.0043329235 0)
(0.0011636005 0.0091913001 0)
(0.0017042732 0.011594665 0)
(0.0018680409 0.012686586 0)
(0.0017695032 0.013108093 0)
(0.0015233268 0.013189915 0)
(0.0012032339 0.013116116 0)
(0.0008571625 0.012992288 0)
(0.00051046779 0.012882956 0)
(0.00017273709 0.012821314 0)
(-0.00017274435 0.012821315 0)
(-0.00051047435 0.012882961 0)
(-0.00085716988 0.012992293 0)
(-0.0012032309 0.01311612 0)
(-0.0015233259 0.013189923 0)
(-0.0017695085 0.013108091 0)
(-0.0018680443 0.012686591 0)
(-0.0017042739 0.01159469 0)
(-0.0011636029 0.0091913485 0)
(-0.00034394056 0.0043330558 0)
)
;
    }
}


// ************************************************************************* //
