/*--------------------------------*- C++ -*----------------------------------*\
| =========                 |                                                 |
| \\      /  F ield         | OpenFOAM: The Open Source CFD Toolbox           |
|  \\    /   O peration     | Version:  3.0.1                                 |
|   \\  /    A nd           | Web:      www.OpenFOAM.org                      |
|    \\/     M anipulation  |                                                 |
\*---------------------------------------------------------------------------*/
FoamFile
{
    version     2.0;
    format      ascii;
    class       volScalarField;
    location    "34";
    object      wBA_l;
}
// * * * * * * * * * * * * * * * * * * * * * * * * * * * * * * * * * * * * * //

dimensions      [0 0 0 0 0 0 0];

internalField   nonuniform List<scalar> 
800
(
0.04007235
0.040071058
0.040069225
0.040068442
0.040068107
0.040067943
0.040067849
0.040067794
0.040067764
0.040067751
0.040067751
0.040067764
0.040067794
0.040067849
0.040067943
0.040068107
0.040068442
0.040069225
0.040071058
0.04007235
0.04059441
0.040574486
0.040568073
0.040566191
0.040565727
0.040565643
0.04056564
0.040565644
0.040565643
0.040565642
0.040565642
0.040565643
0.040565644
0.040565641
0.040565644
0.040565727
0.040566192
0.040568074
0.040574488
0.040594412
0.04088177
0.040852396
0.040842534
0.040839698
0.040838942
0.040838758
0.04083871
0.040838686
0.040838668
0.040838658
0.040838658
0.040838669
0.040838687
0.04083871
0.040838759
0.040838943
0.040839698
0.040842535
0.040852397
0.040881773
0.041014901
0.040983101
0.040972238
0.040969341
0.040968604
0.040968405
0.040968316
0.040968248
0.040968196
0.040968168
0.040968168
0.040968196
0.040968249
0.040968316
0.040968405
0.040968605
0.040969341
0.040972239
0.040983103
0.041014903
0.04100774
0.040980111
0.040970315
0.040968126
0.040967719
0.040967617
0.040967515
0.040967402
0.040967306
0.040967253
0.040967253
0.040967306
0.040967402
0.040967515
0.040967617
0.040967719
0.040968126
0.040970315
0.040980111
0.04100774
0.040866284
0.040848758
0.040841828
0.040841026
0.04084124
0.040841348
0.040841275
0.04084113
0.040840993
0.040840915
0.040840914
0.040840992
0.04084113
0.040841275
0.040841347
0.040841239
0.040841025
0.040841827
0.040848757
0.040866283
0.040598596
0.040596506
0.04059398
0.040595086
0.040596115
0.040596513
0.0405965
0.040596333
0.040596157
0.040596055
0.040596055
0.040596156
0.040596332
0.040596498
0.040596511
0.040596113
0.040595084
0.040593978
0.040596504
0.040598594
0.040216368
0.040234251
0.040237503
0.040240929
0.040242907
0.040243633
0.040243688
0.0402435
0.040243282
0.040243155
0.040243155
0.040243282
0.040243499
0.040243686
0.040243631
0.040242905
0.040240926
0.040237499
0.040234247
0.040216363
0.039733633
0.039775199
0.039785391
0.039791432
0.039794423
0.039795482
0.039795598
0.039795382
0.039795119
0.039794964
0.039794964
0.039795118
0.03979538
0.039795596
0.039795479
0.039794419
0.039791428
0.039785386
0.039775194
0.039733626
0.039166043
0.039233837
0.039251945
0.03926079
0.039264799
0.039266171
0.039266322
0.039266061
0.039265742
0.039265555
0.039265554
0.039265741
0.039266059
0.039266319
0.039266168
0.039264795
0.039260785
0.039251939
0.03923383
0.039166035
0.038525858
0.038622186
0.038649276
0.038661211
0.03866634
0.038668077
0.038668291
0.038668011
0.038667653
0.038667442
0.038667441
0.038667651
0.038668009
0.038668287
0.038668073
0.038666335
0.038661205
0.038649269
0.038622179
0.03852585
0.037823703
0.037954019
0.037990829
0.038005869
0.038012086
0.03801414
0.038014357
0.03801402
0.038013599
0.038013352
0.038013351
0.038013597
0.038014017
0.038014353
0.038014135
0.03801208
0.038005862
0.037990821
0.03795401
0.037823694
0.037070752
0.037230572
0.037278355
0.037296495
0.037303528
0.037305727
0.037305898
0.037305476
0.037304978
0.037304683
0.037304683
0.037304976
0.037305473
0.037305893
0.037305721
0.037303521
0.037296488
0.037278347
0.037230563
0.037070742
0.036282218
0.036474452
0.036533877
0.036555227
0.036563015
0.03656525
0.036565402
0.036564873
0.036564295
0.036563947
0.036563946
0.036564293
0.03656487
0.036565398
0.036565245
0.036563008
0.03655522
0.036533869
0.036474443
0.036282209
0.035476498
0.03570162
0.035773474
0.035798046
0.035806468
0.035808629
0.035808682
0.035807992
0.035807307
0.035806899
0.035806899
0.035807305
0.035807988
0.035808678
0.035808624
0.035806462
0.035798038
0.035773466
0.035701612
0.035476489
0.034640791
0.034901123
0.034986218
0.035014799
0.035024146
0.035026408
0.035026396
0.035025621
0.035024897
0.035024465
0.035024465
0.035024894
0.035025618
0.035026391
0.035026403
0.035024139
0.035014791
0.03498621
0.034901115
0.034640783
0.033800015
0.034097683
0.034196818
0.034229508
0.034239766
0.034241941
0.034241587
0.034240582
0.034239724
0.034239234
0.034239233
0.034239722
0.034240578
0.034241582
0.034241935
0.034239759
0.0342295
0.034196809
0.034097674
0.033800006
0.032947448
0.033284509
0.033399744
0.033437457
0.03344907
0.033451264
0.033450593
0.033449408
0.033448471
0.033447937
0.033447936
0.033448469
0.033449405
0.033450589
0.033451259
0.033449065
0.03343745
0.033399737
0.033284501
0.032947441
0.032086049
0.032465946
0.032598861
0.032642416
0.03265562
0.032657726
0.032656586
0.032655104
0.032654023
0.032653406
0.032653406
0.032654021
0.032655101
0.032656582
0.032657721
0.032655614
0.03264241
0.032598854
0.032465939
0.032086043
0.03121913
0.031644995
0.031798426
0.031849229
0.031864522
0.031866619
0.031864978
0.03186314
0.031861918
0.031861194
0.031861193
0.031861916
0.031863137
0.031864974
0.031866614
0.031864516
0.031849223
0.03179842
0.031644989
0.031219124
0.030344002
0.030819778
0.030997203
0.031057042
0.031075037
0.031077205
0.031074972
0.03107265
0.031071253
0.03107038
0.031070379
0.031071251
0.031072647
0.031074969
0.0310772
0.031075032
0.031057037
0.030997197
0.030819773
0.030343998
0.0294583
0.029988721
0.030194634
0.030265943
0.030287567
0.030289999
0.030287091
0.030284141
0.030282527
0.030281463
0.030281463
0.030282526
0.030284138
0.030287088
0.030289995
0.030287563
0.030265938
0.030194629
0.029988717
0.029458297
0.0285569
0.029147765
0.029387719
0.029473686
0.029500251
0.029503263
0.029499595
0.029495839
0.02949392
0.029492616
0.029492616
0.029493919
0.029495836
0.029499592
0.02950326
0.029500247
0.029473683
0.029387715
0.029147762
0.028556898
0.02763365
0.028292013
0.028572952
0.02867774
0.028711057
0.028715166
0.028710661
0.028705866
0.028703491
0.028701875
0.028701874
0.028703489
0.028705864
0.028710658
0.028715163
0.028711054
0.028677737
0.028572949
0.028292011
0.027633651
0.026679685
0.027414215
0.027744736
0.027873732
0.027916357
0.027922391
0.02791703
0.027910936
0.027907894
0.027905873
0.027905872
0.027907893
0.027910934
0.027917028
0.027922388
0.027916354
0.027873731
0.027744735
0.027414216
0.026679688
0.02568375
0.026505114
0.026895972
0.027056107
0.027111618
0.027120818
0.027114656
0.027106947
0.027102955
0.027100385
0.027100384
0.027102954
0.027106945
0.027114654
0.027120816
0.027111616
0.027056107
0.026895972
0.026505117
0.025683756
0.024630922
0.025552368
0.026017005
0.026217259
0.026290621
0.026304856
0.026298106
0.026288417
0.026283103
0.026279775
0.026279775
0.026283102
0.026288415
0.026298104
0.026304855
0.026290621
0.02621726
0.026017007
0.025552374
0.024630932
0.02350185
0.024539881
0.02509516
0.025347368
0.025445504
0.025467558
0.025460738
0.02544866
0.025441534
0.025437147
0.025437147
0.025441533
0.025448659
0.025460737
0.025467558
0.025445504
0.025347371
0.025095165
0.024539891
0.023501865
0.022271444
0.023446534
0.024113729
0.024433702
0.024566072
0.024600437
0.024594631
0.024579739
0.024570146
0.024564261
0.024564261
0.024570145
0.024579737
0.02459463
0.024600438
0.024566074
0.024433706
0.024113736
0.023446549
0.022271467
0.020907349
0.022244053
0.023050442
0.023459545
0.023639405
0.023692765
0.023690429
0.023672364
0.023659429
0.023651418
0.023651418
0.023659428
0.023672363
0.023690429
0.023692766
0.023639407
0.02345955
0.023050453
0.022244076
0.020907382
0.019368166
0.020894612
0.021874449
0.022401777
0.022649263
0.022731901
0.022736327
0.022715728
0.022698286
0.022687248
0.022687248
0.022698286
0.022715727
0.022736327
0.022731903
0.022649267
0.022401785
0.021874464
0.020894643
0.019368214
0.017599716
0.01934616
0.020544916
0.021230362
0.02157416
0.021703135
0.021720345
0.021697628
0.021674169
0.021658781
0.02165878
0.021674168
0.021697628
0.021720346
0.021703138
0.021574165
0.021230373
0.020544937
0.019346202
0.017599786
0.015490234
0.01752283
0.019002584
0.019902843
0.020385312
0.020588572
0.020631173
0.020605264
0.020573892
0.020552183
0.020552183
0.020573892
0.020605264
0.020631176
0.020588576
0.020385319
0.019902856
0.019002612
0.017522888
0.015490333
0.013041569
0.01525637
0.017110522
0.01831648
0.019009795
0.01933244
0.019421813
0.019401383
0.019360192
0.019329375
0.019329375
0.019360193
0.019401384
0.019421817
0.019332446
0.019009806
0.0183165
0.017110563
0.015256444
0.01304169
0.010101058
0.01261753
0.014847835
0.016373727
0.01736236
0.017869371
0.018039347
0.018032489
0.017976305
0.017930688
0.017930688
0.017976306
0.018032492
0.018039351
0.017869377
0.017362372
0.016373751
0.014847885
0.012617624
0.010101216
0.0066656995
0.0095267262
0.012134503
0.014211932
0.015662585
0.016471882
0.016802498
0.016838166
0.016770146
0.016703002
0.016703003
0.016770148
0.01683817
0.016802504
0.016471891
0.015662603
0.014211968
0.012134565
0.0095268302
0.0066658693
0.0034206143
0.0066018864
0.0092744005
0.011598641
0.013427081
0.014630689
0.015171381
0.015276391
0.015190991
0.015091988
0.015091989
0.015190994
0.015276395
0.015171385
0.014630703
0.013427105
0.011598684
0.0092744643
0.0066019785
0.0034207493
0.0012562779
0.0042526727
0.0068838763
0.0092703374
0.011298204
0.012738483
0.013506189
0.013709754
0.013623226
0.013492931
0.013492931
0.013623232
0.013709762
0.013506197
0.012738494
0.011298225
0.0092703766
0.0068839309
0.0042527398
0.0012563533
0.00032341191
0.002564782
0.0050321118
0.0073917571
0.0094779483
0.011036853
0.011908291
0.012158918
0.012058563
0.011896078
0.01189608
0.012058569
0.012158925
0.011908295
0.011036858
0.0094779604
0.0073917832
0.0050321491
0.0025648213
0.00032344039
6.0310214e-05
0.0014444116
0.003650744
0.0059169635
0.0079700878
0.0095399282
0.010438691
0.010701822
0.010587399
0.010402293
0.010402296
0.010587405
0.010701827
0.010438692
0.0095399275
0.0079700899
0.005916974
0.0036507627
0.0014444324
6.0317467e-05
)
;

boundaryField
{
    Wall
    {
        type            zeroGradient;
    }
    frontAndBack
    {
        type            empty;
    }
    atmosphere
    {
        type            zeroGradient;
    }
}


// ************************************************************************* //
