/*--------------------------------*- C++ -*----------------------------------*\
| =========                 |                                                 |
| \\      /  F ield         | OpenFOAM: The Open Source CFD Toolbox           |
|  \\    /   O peration     | Version:  3.0.1                                 |
|   \\  /    A nd           | Web:      www.OpenFOAM.org                      |
|    \\/     M anipulation  |                                                 |
\*---------------------------------------------------------------------------*/
FoamFile
{
    version     2.0;
    format      ascii;
    class       volScalarField;
    location    "34";
    object      wBA_g;
}
// * * * * * * * * * * * * * * * * * * * * * * * * * * * * * * * * * * * * * //

dimensions      [0 0 0 0 0 0 0];

internalField   nonuniform List<scalar> 
800
(
0.049590255
0.049591836
0.049590271
0.049589465
0.049589127
0.049588982
0.049588914
0.049588884
0.049588872
0.049588868
0.049588868
0.049588872
0.049588884
0.049588914
0.049588982
0.049589127
0.049589465
0.049590271
0.049591836
0.049590255
0.052284657
0.05221938
0.052197457
0.052189259
0.052186122
0.052184973
0.052184592
0.052184491
0.052184476
0.052184482
0.052184482
0.052184477
0.052184492
0.052184594
0.052184975
0.052186125
0.052189262
0.052197461
0.052219385
0.052284666
0.054315731
0.054221327
0.054192221
0.054178805
0.054173408
0.054171278
0.054170466
0.054170177
0.054170082
0.054170055
0.054170056
0.054170082
0.054170178
0.054170467
0.05417128
0.054173411
0.054178809
0.054192226
0.054221334
0.054315743
0.055722823
0.05561456
0.055588757
0.055573626
0.055567484
0.055564997
0.055563977
0.055563582
0.055563426
0.055563375
0.055563376
0.055563427
0.055563583
0.055563978
0.055564999
0.055567486
0.055573629
0.055588761
0.055614565
0.055722831
0.056578191
0.056472096
0.056453978
0.056441632
0.05643601
0.056433745
0.056432753
0.05643235
0.056432162
0.056432095
0.056432095
0.056432161
0.05643235
0.056432752
0.056433745
0.05643601
0.056441631
0.056453979
0.056472098
0.056578195
0.056939324
0.056851097
0.056841217
0.056836192
0.056832006
0.056830424
0.056829687
0.0568294
0.056829234
0.056829177
0.056829177
0.056829233
0.056829398
0.056829684
0.056830421
0.056832003
0.056836188
0.056841214
0.056851094
0.05693932
0.056867337
0.056810959
0.056807746
0.056813259
0.056810893
0.056810227
0.056809876
0.05680979
0.05680969
0.056809666
0.056809665
0.056809688
0.056809787
0.056809871
0.056810221
0.056810886
0.056813251
0.056807738
0.05681095
0.056867326
0.056432767
0.056418438
0.056420025
0.056437353
0.056436691
0.056436913
0.056436946
0.056437075
0.056437048
0.056437065
0.056437064
0.056437045
0.05643707
0.056436939
0.056436903
0.05643668
0.05643734
0.056420012
0.056418424
0.056432749
0.055711725
0.055744494
0.055749603
0.055777919
0.05577875
0.055779591
0.055779878
0.055780165
0.055780182
0.055780233
0.055780232
0.055780178
0.055780158
0.055779868
0.055779579
0.055778735
0.055777902
0.055749585
0.055744474
0.055711701
0.054784009
0.054863142
0.054870901
0.054907463
0.054909985
0.05491126
0.054911534
0.054911841
0.05491183
0.054911888
0.054911886
0.054911825
0.054911832
0.054911522
0.054911245
0.054909967
0.054907442
0.054870878
0.054863118
0.05478398
0.05372206
0.053843666
0.053853419
0.053894186
0.053899592
0.053901823
0.053901789
0.053901964
0.053901852
0.053901888
0.053901887
0.053901847
0.053901955
0.053901776
0.053901806
0.053899571
0.053894163
0.053853393
0.053843638
0.053722028
0.052597657
0.052756085
0.052766153
0.052805544
0.052816096
0.052820493
0.052819598
0.052819305
0.052818905
0.052818837
0.052818835
0.052818899
0.052819295
0.052819583
0.052820474
0.052816073
0.052805518
0.052766125
0.052756055
0.052597622
0.051478443
0.051667757
0.051675505
0.05170709
0.051726727
0.051735146
0.05173267
0.051731463
0.051730669
0.051730375
0.051730373
0.051730663
0.051731453
0.051732655
0.051735126
0.051726703
0.051707063
0.051675476
0.051667725
0.051478407
0.050417796
0.050634135
0.050636745
0.050654228
0.050688622
0.050703105
0.050698217
0.050695522
0.050694754
0.050694065
0.050694063
0.050694748
0.050695511
0.050698202
0.050703085
0.050688598
0.0506542
0.050636715
0.050634103
0.05041776
0.049467265
0.049708034
0.049703154
0.049700832
0.04975616
0.049778044
0.049769533
0.049764553
0.049765261
0.049764121
0.049764119
0.049765255
0.049764543
0.049769518
0.049778025
0.049756137
0.049700805
0.049703125
0.049708003
0.04946723
0.048631955
0.048899233
0.048885479
0.048860323
0.048942338
0.048971987
0.048958494
0.048950408
0.048955475
0.04895448
0.048954478
0.048955469
0.048950398
0.048958479
0.048971968
0.048942315
0.048860296
0.04888545
0.048899201
0.048631921
0.047959154
0.048256123
0.048233579
0.048183969
0.048295665
0.048331242
0.048310647
0.048298131
0.048311112
0.048311913
0.048311911
0.048311107
0.048298122
0.048310633
0.048331223
0.048295642
0.048183942
0.04823355
0.048256092
0.047959121
0.047446027
0.047776871
0.04774923
0.047677005
0.047819204
0.04785752
0.047827848
0.047809666
0.047834166
0.04783985
0.047839848
0.047834162
0.047809658
0.047827836
0.047857503
0.047819183
0.04767698
0.047749203
0.047776842
0.047445996
0.047093816
0.047465617
0.047437542
0.047346029
0.04751728
0.04755346
0.047512441
0.047487019
0.047525263
0.047539878
0.047539877
0.047525259
0.047487012
0.047512429
0.047553444
0.04751726
0.047346005
0.047437517
0.04746559
0.047093786
0.046899454
0.047320055
0.04729874
0.047192273
0.047390945
0.047419605
0.047365206
0.047331019
0.047383391
0.047411245
0.047411244
0.047383388
0.047331012
0.047365195
0.04741959
0.047390926
0.04719225
0.047298715
0.047320028
0.046899424
0.046847842
0.047327682
0.047321478
0.047204084
0.047429461
0.04744528
0.047375551
0.047331064
0.047396023
0.047440693
0.047440692
0.047396019
0.047331057
0.047375541
0.047445266
0.047429444
0.047204062
0.047321454
0.047327656
0.046847813
0.046920632
0.047473328
0.047491974
0.047367513
0.047620517
0.047619112
0.047532139
0.047475963
0.047550854
0.047614457
0.047614457
0.047550851
0.047475957
0.047532129
0.047619098
0.0476205
0.047367492
0.047491951
0.047473303
0.046920603
0.047091315
0.047735034
0.047790039
0.047663037
0.047945984
0.047924217
0.047817928
0.047748825
0.047830869
0.047913652
0.047913651
0.047830867
0.047748819
0.047817917
0.047924203
0.047945967
0.047663016
0.047790017
0.047735008
0.047091285
0.047325989
0.04808588
0.048191745
0.048068932
0.048384597
0.048340829
0.048212942
0.048129733
0.048216719
0.048317046
0.048317045
0.048216716
0.048129727
0.048212933
0.048340816
0.048384581
0.048068912
0.048191723
0.048085855
0.047325959
0.047579129
0.048490762
0.048666717
0.048559447
0.048909215
0.048844444
0.048692641
0.048594155
0.048684525
0.048799202
0.048799201
0.048684523
0.048594149
0.048692632
0.048844432
0.0489092
0.048559428
0.048666695
0.048490737
0.0475791
0.047793242
0.048906005
0.04917866
0.049104443
0.049486838
0.04940587
0.049227908
0.049112891
0.049205286
0.049330024
0.049330024
0.049205283
0.049112886
0.049227898
0.049405858
0.049486824
0.049104425
0.049178639
0.048905981
0.047793216
0.047892892
0.04927387
0.04968065
0.049663129
0.050073258
0.049985803
0.049779652
0.049646759
0.049739401
0.04986934
0.04986934
0.049739399
0.049646754
0.049779644
0.049985791
0.050073245
0.049663113
0.04968063
0.049273849
0.047892869
0.047771068
0.049512589
0.050105915
0.050172005
0.050603755
0.050523876
0.050287937
0.050135766
0.050225999
0.050356164
0.050356163
0.050225997
0.050135763
0.05028793
0.050523865
0.050603743
0.050171991
0.050105898
0.049512572
0.047771055
0.047268554
0.04949746
0.050349558
0.050528064
0.050980041
0.050922809
0.050656236
0.050483403
0.050567595
0.050693254
0.050693254
0.050567594
0.0504834
0.05065623
0.0509228
0.050980031
0.050528053
0.050349545
0.049497452
0.047268556
0.046156992
0.049041525
0.050247928
0.050573959
0.051052621
0.051034026
0.050737194
0.050542436
0.050616197
0.050733128
0.050733128
0.050616197
0.050542436
0.05073719
0.05103402
0.051052615
0.050573953
0.050247922
0.049041531
0.046157018
0.044142407
0.04787591
0.049565946
0.050089705
0.050607718
0.050642869
0.050325136
0.050107955
0.050166433
0.05027109
0.05027109
0.050166435
0.050107957
0.050325136
0.050642867
0.050607718
0.050089707
0.049565952
0.047875937
0.044142472
0.04090417
0.045659994
0.047985161
0.048782515
0.049369916
0.0494702
0.049149379
0.04892204
0.048960238
0.049049775
0.049049776
0.048960241
0.048922045
0.049149383
0.049470203
0.049369923
0.048782526
0.047985182
0.045660052
0.040904293
0.036134122
0.041991046
0.045127044
0.046306306
0.047028288
0.047204288
0.04689951
0.046695701
0.046709902
0.046782419
0.04678242
0.046709907
0.04669571
0.046899519
0.047204297
0.047028302
0.046306328
0.045127086
0.041991148
0.036134319
0.029944892
0.036395474
0.040524041
0.042257996
0.043231526
0.043505533
0.043280035
0.04311605
0.043106814
0.043162135
0.043162138
0.043106822
0.043116065
0.043280051
0.043505551
0.043231552
0.042258037
0.040524116
0.036395621
0.029945146
0.022614663
0.029215471
0.034095603
0.03639698
0.037733779
0.038220449
0.038088174
0.037949196
0.037916795
0.037954344
0.037954349
0.037916806
0.037949216
0.038088193
0.038220473
0.037733813
0.036397036
0.034095707
0.029215671
0.022614994
0.014752314
0.021335309
0.02654254
0.029635524
0.031411547
0.032134454
0.032144753
0.032028569
0.03198186
0.03200311
0.032003116
0.031981877
0.032028597
0.032144782
0.032134491
0.031411599
0.029635608
0.026542674
0.021335527
0.014752662
0.0077267794
0.014309112
0.019270674
0.022624471
0.024686491
0.025685474
0.025806593
0.02567017
0.025571688
0.025557102
0.02555711
0.025571706
0.025670199
0.025806622
0.025685521
0.024686555
0.022624569
0.019270809
0.014309304
0.0077270588
0.0030372253
0.0088338775
0.01338834
0.016675473
0.01881466
0.019910091
0.020159269
0.020028861
0.019884808
0.019830603
0.01983061
0.019884832
0.020028896
0.020159304
0.019910134
0.018814719
0.016675562
0.013388456
0.0088340189
0.0030373916
0.00087830423
0.0050233775
0.0089519591
0.011995433
0.014058987
0.015160212
0.015438342
0.01529085
0.015098262
0.015004485
0.015004495
0.015098285
0.015290882
0.015438374
0.015160247
0.014059031
0.011995499
0.0089520427
0.0050234638
0.00087837484
0.00019150008
0.002626853
0.0057765999
0.0084481945
0.010333193
0.011370477
0.011653387
0.011511116
0.011301604
0.011186736
0.011186744
0.011301624
0.011511144
0.011653413
0.011370503
0.010333223
0.0084482349
0.0057766504
0.002626901
0.00019152123
)
;

boundaryField
{
    Wall
    {
        type            zeroGradient;
    }
    frontAndBack
    {
        type            empty;
    }
    atmosphere
    {
        type            zeroGradient;
    }
}


// ************************************************************************* //
