/*--------------------------------*- C++ -*----------------------------------*\
| =========                 |                                                 |
| \\      /  F ield         | OpenFOAM: The Open Source CFD Toolbox           |
|  \\    /   O peration     | Version:  3.0.1                                 |
|   \\  /    A nd           | Web:      www.OpenFOAM.org                      |
|    \\/     M anipulation  |                                                 |
\*---------------------------------------------------------------------------*/
FoamFile
{
    version     2.0;
    format      ascii;
    class       volScalarField;
    location    "34";
    object      wBA_l_0;
}
// * * * * * * * * * * * * * * * * * * * * * * * * * * * * * * * * * * * * * //

dimensions      [0 0 0 0 0 0 0];

internalField   nonuniform List<scalar> 
800
(
0.040127041
0.040125728
0.040123911
0.040123147
0.040122824
0.040122665
0.040122574
0.04012252
0.040122491
0.040122478
0.040122478
0.040122491
0.04012252
0.040122574
0.040122665
0.040122824
0.040123147
0.040123911
0.040125728
0.040127041
0.040649949
0.040629949
0.040623526
0.040621654
0.040621197
0.040621116
0.040621113
0.040621116
0.040621115
0.040621114
0.040621114
0.040621115
0.040621117
0.040621113
0.040621116
0.040621197
0.040621655
0.040623527
0.04062995
0.040649951
0.040937148
0.040907642
0.040897775
0.040894952
0.040894205
0.040894025
0.040893978
0.040893955
0.040893938
0.040893928
0.040893928
0.040893938
0.040893956
0.040893978
0.040894025
0.040894206
0.040894953
0.040897776
0.040907644
0.04093715
0.0410697
0.041037824
0.041026967
0.041024085
0.041023356
0.041023158
0.041023069
0.041023001
0.041022948
0.04102292
0.04102292
0.041022949
0.041023001
0.041023069
0.041023158
0.041023356
0.041024086
0.041026968
0.041037825
0.041069702
0.041061053
0.041033423
0.041023652
0.041021483
0.041021084
0.041020982
0.041020879
0.041020764
0.041020667
0.041020613
0.041020613
0.041020667
0.041020764
0.041020879
0.041020982
0.041021084
0.041021483
0.041023652
0.041033424
0.041061054
0.040917074
0.040899645
0.040892764
0.040891988
0.040892209
0.040892317
0.040892242
0.040892095
0.040891956
0.040891877
0.040891877
0.040891955
0.040892095
0.040892242
0.040892316
0.040892209
0.040891987
0.040892763
0.040899644
0.040917073
0.040645987
0.040644115
0.040641662
0.040642798
0.040643834
0.040644229
0.040644212
0.040644042
0.040643863
0.04064376
0.04064376
0.040643863
0.040644041
0.040644211
0.040644228
0.040643833
0.040642796
0.040641659
0.040644113
0.040645984
0.040259671
0.04027791
0.040281261
0.040284721
0.040286704
0.040287424
0.040287472
0.040287279
0.040287058
0.040286929
0.040286929
0.040287058
0.040287278
0.04028747
0.040287422
0.040286702
0.040284718
0.040281257
0.040277906
0.040259666
0.039772325
0.039814398
0.039824719
0.039830796
0.039833787
0.039834837
0.039834943
0.03983472
0.039834452
0.039834295
0.039834295
0.039834451
0.039834718
0.039834941
0.039834834
0.039833784
0.039830792
0.039824714
0.039814393
0.039772319
0.039200007
0.039268456
0.03928671
0.039295579
0.039299574
0.039300924
0.039301057
0.039300783
0.039300456
0.039300264
0.039300264
0.039300454
0.039300781
0.039301054
0.039300921
0.03929957
0.039295574
0.039286704
0.039268449
0.039199999
0.038554549
0.038651642
0.038678963
0.038690947
0.03869607
0.038697792
0.038697994
0.038697706
0.038697342
0.038697129
0.038697129
0.038697341
0.038697703
0.03869799
0.038697788
0.038696065
0.038690941
0.038678956
0.038651634
0.03855454
0.037847059
0.037978155
0.038015224
0.038030298
0.038036493
0.038038519
0.038038715
0.038038363
0.038037934
0.038037683
0.038037682
0.038037932
0.038038361
0.038038711
0.038038514
0.038036487
0.038030291
0.038015216
0.037978146
0.03784705
0.037088709
0.037249524
0.037297603
0.037315771
0.037322768
0.037324929
0.037325074
0.037324636
0.037324128
0.037323828
0.037323827
0.037324126
0.037324633
0.03732507
0.037324924
0.037322761
0.037315763
0.037297595
0.037249515
0.037088699
0.036294883
0.036488277
0.03654803
0.03656941
0.036577156
0.036579347
0.036579471
0.036578924
0.036578334
0.036577982
0.036577981
0.036578332
0.036578921
0.036579467
0.036579342
0.036577149
0.036569402
0.036548022
0.036488268
0.036294873
0.035485342
0.035711834
0.035784117
0.03580868
0.035817036
0.035819134
0.035819144
0.035818423
0.035817721
0.035817305
0.035817304
0.035817719
0.03581842
0.035819139
0.035819128
0.03581703
0.035808673
0.035784109
0.035711826
0.035485333
0.034643442
0.03490512
0.034990751
0.035019397
0.035028705
0.035030926
0.035030886
0.035030096
0.035029365
0.03502893
0.035028929
0.035029363
0.035030093
0.035030881
0.035030921
0.035028698
0.03501939
0.034990743
0.034905112
0.034643433
0.033796377
0.034095612
0.03419543
0.034228226
0.034238473
0.034240624
0.034240252
0.034239241
0.034238386
0.034237895
0.034237894
0.034238384
0.034239237
0.034240247
0.034240619
0.034238466
0.034228219
0.034195422
0.034095603
0.033796368
0.032939206
0.033278555
0.033394161
0.033431912
0.033443449
0.033445543
0.033444791
0.033443556
0.033442587
0.03344204
0.03344204
0.033442585
0.033443553
0.033444787
0.033445537
0.033443443
0.033431906
0.033394154
0.033278547
0.032939198
0.032074632
0.032456932
0.032590449
0.032634163
0.032647351
0.03264939
0.032648193
0.032646679
0.032645581
0.032644958
0.032644957
0.032645579
0.032646676
0.032648189
0.032649385
0.032647345
0.032634157
0.032590442
0.032456925
0.032074625
0.031202974
0.031631533
0.03178575
0.031836794
0.031852093
0.031854123
0.03185242
0.031850545
0.031849304
0.031848573
0.031848572
0.031849302
0.031850542
0.031852416
0.031854118
0.031852088
0.031836788
0.031785744
0.031631527
0.031202968
0.030322989
0.0308018
0.030980256
0.031040454
0.031058491
0.031060595
0.031058294
0.031055928
0.031054511
0.031053628
0.031053628
0.031054509
0.031055925
0.031058291
0.031060591
0.031058486
0.031040449
0.03098025
0.030801795
0.030322984
0.029433443
0.02996733
0.030174558
0.030246397
0.030268136
0.030270535
0.030267577
0.030264597
0.030262974
0.030261906
0.030261905
0.030262972
0.030264593
0.030267573
0.03027053
0.03026813
0.03024639
0.030174551
0.029967322
0.029433437
0.028526595
0.029121236
0.029363164
0.029449865
0.029476623
0.029479594
0.029475828
0.029471989
0.029470041
0.029468714
0.029468713
0.029470039
0.029471987
0.029475826
0.029479592
0.029476621
0.029449863
0.029363162
0.029121236
0.028526597
0.02759619
0.028258985
0.028542361
0.028648179
0.028681822
0.028685938
0.028681346
0.028676469
0.028674064
0.028672427
0.028672426
0.028674062
0.028676466
0.028681344
0.028685935
0.028681819
0.028648176
0.028542358
0.028258984
0.027596191
0.026635462
0.02737519
0.027708857
0.027839309
0.027882461
0.027888563
0.027883115
0.027876917
0.027873833
0.027871783
0.027871782
0.027873831
0.027876915
0.027883113
0.027888561
0.027882458
0.027839308
0.027708856
0.02737519
0.026635466
0.025631588
0.026459106
0.026854032
0.027016202
0.027072535
0.027081904
0.02707566
0.027067823
0.027063768
0.027061158
0.027061158
0.027063767
0.02706782
0.027075658
0.027081903
0.027072534
0.027016202
0.026854033
0.026459109
0.025631594
0.024569292
0.025498102
0.025968016
0.026171098
0.026245715
0.026260279
0.026253464
0.026243616
0.02623821
0.026234826
0.026234826
0.026238209
0.026243614
0.026253463
0.026260278
0.026245714
0.026171099
0.025968018
0.025498108
0.024569302
0.023428669
0.024475606
0.025037747
0.025293887
0.025393913
0.025416549
0.025409711
0.025397436
0.025390174
0.025385704
0.025385703
0.025390173
0.025397434
0.02540971
0.025416549
0.025393913
0.025293889
0.025037751
0.024475616
0.023428685
0.022183898
0.023369849
0.024046
0.024371452
0.024506638
0.024542015
0.024536286
0.024521151
0.024511358
0.024505347
0.024505347
0.024511357
0.024521149
0.024536285
0.024542015
0.02450664
0.024371455
0.024046008
0.023369865
0.022183921
0.020801659
0.02215162
0.022969743
0.023386585
0.023570627
0.023625662
0.02362362
0.023605263
0.023592034
0.023583832
0.023583831
0.023592033
0.023605262
0.02362362
0.023625663
0.02357063
0.023386591
0.022969753
0.022151643
0.020801693
0.019239289
0.020781734
0.021777138
0.022315398
0.022569206
0.022654594
0.022659624
0.022638736
0.022620861
0.02260953
0.02260953
0.022620861
0.022638735
0.022659625
0.022654595
0.02256921
0.022315405
0.021777154
0.020781765
0.019239338
0.017439971
0.019206514
0.020425991
0.021127043
0.0214804
0.021613883
0.021632248
0.021609137
0.021585054
0.02156922
0.021569219
0.021585054
0.021609137
0.021632249
0.021613886
0.021480405
0.021127053
0.020426012
0.019206556
0.017440041
0.015281096
0.017342914
0.018853252
0.019776687
0.020273677
0.020484518
0.020529443
0.020503272
0.020471042
0.020448656
0.020448656
0.020471042
0.020503273
0.020529446
0.020484523
0.020273685
0.019776702
0.018853282
0.017342974
0.015281198
0.012798115
0.015023506
0.01690532
0.018148905
0.018864527
0.019198851
0.019293797
0.019274168
0.019231904
0.019200086
0.019200086
0.019231905
0.01927417
0.019293801
0.019198858
0.018864539
0.018148927
0.016905362
0.015023581
0.012798237
0.0097832569
0.012330749
0.014610833
0.016232215
0.017199275
0.017725613
0.017904514
0.017898956
0.017840943
0.01779352
0.01779352
0.017840944
0.017898958
0.017904517
0.017725618
0.017199286
0.01623224
0.014610883
0.012330844
0.0097834158
0.0063183361
0.0092164024
0.011837151
0.013950119
0.015459897
0.016307549
0.016657036
0.0166971
0.016625391
0.016554828
0.016554829
0.016625394
0.016697104
0.016657042
0.016307558
0.015459915
0.013950155
0.011837213
0.0092165046
0.0063185024
0.0031379884
0.0063334821
0.0090067297
0.011336684
0.013186536
0.014419027
0.014986597
0.015102437
0.015017832
0.014916587
0.014916588
0.015017835
0.015102442
0.014986599
0.014419042
0.013186561
0.011336727
0.0090067921
0.0063335713
0.0031381159
0.001108682
0.0040485385
0.0066692199
0.0090549263
0.011092204
0.01254253
0.013318407
0.013522923
0.013432674
0.013298636
0.013298637
0.01343268
0.013522931
0.013318415
0.012542539
0.011092224
0.0090549635
0.0066692722
0.0040486017
0.0011087505
0.00027468339
0.0024235986
0.0048684277
0.0072202792
0.0093033251
0.01086196
0.011732079
0.011980595
0.011876873
0.011711418
0.011711421
0.011876879
0.011980602
0.011732083
0.010861964
0.0093033357
0.007220303
0.0048684619
0.0024236344
0.00027470817
4.9526596e-05
0.0013541311
0.0035289193
0.0057811116
0.0078231855
0.0093825643
0.010272567
0.010529551
0.010411595
0.01022495
0.010224953
0.010411601
0.010529557
0.010272568
0.0093825628
0.0078231862
0.00578112
0.0035289349
0.001354151
4.9532628e-05
)
;

boundaryField
{
    Wall
    {
        type            zeroGradient;
    }
    frontAndBack
    {
        type            empty;
    }
    atmosphere
    {
        type            zeroGradient;
    }
}


// ************************************************************************* //
