/*--------------------------------*- C++ -*----------------------------------*\
| =========                 |                                                 |
| \\      /  F ield         | OpenFOAM: The Open Source CFD Toolbox           |
|  \\    /   O peration     | Version:  3.0.1                                 |
|   \\  /    A nd           | Web:      www.OpenFOAM.org                      |
|    \\/     M anipulation  |                                                 |
\*---------------------------------------------------------------------------*/
FoamFile
{
    version     2.0;
    format      ascii;
    class       volScalarField;
    location    "34";
    object      wCO2_l;
}
// * * * * * * * * * * * * * * * * * * * * * * * * * * * * * * * * * * * * * //

dimensions      [0 0 0 0 0 0 0];

internalField   nonuniform List<scalar> 
800
(
0.0038160669
0.0038164108
0.0038163642
0.0038163127
0.0038162836
0.0038162683
0.0038162601
0.003816256
0.0038162541
0.0038162534
0.0038162534
0.0038162541
0.003816256
0.0038162601
0.0038162683
0.0038162836
0.0038163127
0.0038163642
0.0038164108
0.0038160669
0.0038386957
0.0038393676
0.0038399386
0.0038402646
0.0038404278
0.0038404934
0.0038405102
0.0038405073
0.0038405001
0.0038404951
0.0038404951
0.0038405001
0.0038405073
0.0038405101
0.0038404933
0.0038404277
0.0038402645
0.0038399384
0.0038393674
0.0038386953
0.0038878128
0.0038874209
0.0038875924
0.0038879556
0.0038881587
0.0038882457
0.0038882708
0.0038882695
0.0038882615
0.0038882556
0.0038882556
0.0038882615
0.0038882695
0.0038882707
0.0038882456
0.0038881586
0.0038879554
0.0038875923
0.0038874207
0.0038878124
0.0039775326
0.0039745076
0.0039736886
0.0039738749
0.00397402
0.0039740918
0.0039741152
0.0039741154
0.0039741091
0.003974104
0.003974104
0.0039741091
0.0039741154
0.0039741152
0.0039740919
0.00397402
0.0039738749
0.0039736886
0.0039745075
0.0039775324
0.0041069141
0.0040995352
0.0040972801
0.0040970114
0.004097016
0.0040970433
0.0040970567
0.0040970583
0.0040970558
0.0040970531
0.0040970531
0.0040970559
0.0040970584
0.0040970569
0.0040970435
0.0040970162
0.0040970116
0.0040972804
0.0040995355
0.0041069143
0.004276707
0.0042630027
0.0042588833
0.0042578138
0.0042575945
0.0042575463
0.0042575396
0.0042575407
0.0042575429
0.0042575434
0.0042575434
0.0042575431
0.004257541
0.00425754
0.0042575468
0.004257595
0.0042578144
0.004258884
0.0042630033
0.0042767077
0.0044896631
0.0044672199
0.0044607566
0.0044585106
0.0044579788
0.0044578227
0.0044577852
0.0044577831
0.0044577903
0.0044577944
0.0044577945
0.0044577906
0.0044577836
0.0044577859
0.0044578235
0.0044579797
0.0044585116
0.0044607577
0.004467221
0.0044896644
0.0047502085
0.0047160559
0.004706612
0.0047028205
0.0047018916
0.004701595
0.0047015153
0.0047015066
0.0047015184
0.0047015263
0.0047015265
0.0047015189
0.0047015073
0.0047015162
0.0047015962
0.004701893
0.004702822
0.0047066137
0.0047160576
0.0047502105
0.0050645957
0.0050151478
0.0050017837
0.0049960894
0.0049946522
0.0049941828
0.0049940482
0.0049940285
0.0049940446
0.0049940563
0.0049940565
0.0049940452
0.0049940294
0.0049940495
0.0049941844
0.004994654
0.0049960915
0.005001786
0.0050151501
0.0050645983
0.0054403841
0.0053714461
0.005352866
0.0053449333
0.0053428188
0.005342125
0.0053419195
0.0053418823
0.005341902
0.0053419171
0.0053419173
0.0053419027
0.0053418835
0.0053419212
0.0053421271
0.0053428212
0.0053449361
0.005352869
0.0053714491
0.0054403874
0.0058864378
0.0057931922
0.0057676984
0.0057572222
0.0057541756
0.0057531523
0.0057528569
0.005752795
0.0057528195
0.0057528384
0.0057528387
0.0057528205
0.0057527966
0.005752859
0.0057531549
0.0057541787
0.0057572256
0.0057677021
0.005793196
0.0058864419
0.0064085213
0.0062889333
0.006254484
0.0062412114
0.0062368497
0.006235316
0.0062349125
0.0062348214
0.0062348589
0.0062348842
0.0062348846
0.0062348601
0.0062348233
0.0062349151
0.0062353191
0.0062368535
0.0062412155
0.0062544884
0.0062889379
0.0064085262
0.0070115189
0.0068546733
0.006809648
0.00679339
0.0067868574
0.0067844139
0.0067838846
0.0067837585
0.0067838047
0.0067838382
0.0067838387
0.0067838061
0.0067837608
0.0067838877
0.0067844177
0.0067868618
0.0067933948
0.0068096531
0.0068546787
0.0070115247
0.0077080814
0.0075089117
0.0074507406
0.0074312584
0.0074214784
0.0074176579
0.0074170297
0.0074168535
0.0074168306
0.0074168791
0.0074168796
0.0074168322
0.0074168561
0.0074170332
0.0074176623
0.0074214834
0.0074312641
0.0074507466
0.007508918
0.0077080883
0.0085105995
0.0082616612
0.0081875519
0.0081644806
0.0081500313
0.0081443894
0.008143643
0.008143398
0.0081430429
0.0081431039
0.0081431046
0.0081430447
0.008143401
0.0081436471
0.0081443944
0.008150037
0.008164487
0.0081875587
0.0082616685
0.0085106075
0.0094219318
0.0091160474
0.009023178
0.0089961448
0.0089755959
0.0089678329
0.0089669286
0.0089666385
0.0089654215
0.0089654431
0.0089654438
0.0089654234
0.0089666417
0.008966933
0.0089678383
0.0089756022
0.008996152
0.0090231857
0.0091160555
0.0094219409
0.010450272
0.010080416
0.0099658001
0.0099340498
0.0099060696
0.0098959407
0.0098947506
0.0098944381
0.0098914969
0.009891286
0.0098912867
0.0098914989
0.0098944415
0.0098947552
0.0098959464
0.0099060763
0.0099340575
0.0099658082
0.010080425
0.010450281
0.011597836
0.011157298
0.011017906
0.010980507
0.01094407
0.010931452
0.010929826
0.01092959
0.010923838
0.010923026
0.010923027
0.01092384
0.010929594
0.010929831
0.010931458
0.010944078
0.010980515
0.011017915
0.011157307
0.011597847
0.012870319
0.012353011
0.012185115
0.012140858
0.01209505
0.012079783
0.012077421
0.012077368
0.012067541
0.012065572
0.012065573
0.012067543
0.012077372
0.012077426
0.012079789
0.012095057
0.012140867
0.012185124
0.012353021
0.012870329
0.014275125
0.013675267
0.013474819
0.013422532
0.013366343
0.013348273
0.013344837
0.013345147
0.013329982
0.01332621
0.01332621
0.013329984
0.01334515
0.013344842
0.013348279
0.01336635
0.01342254
0.013474828
0.013675277
0.014275135
0.015819006
0.01513181
0.014894277
0.014832789
0.014764666
0.014743553
0.014738723
0.014739615
0.014717987
0.014711788
0.014711789
0.014717989
0.014739618
0.014738727
0.014743558
0.014764673
0.014832797
0.014894285
0.015131819
0.015819015
0.017510563
0.016732382
0.016452949
0.016380932
0.016298681
0.016274109
0.016267722
0.016269482
0.016240601
0.016231515
0.016231515
0.016240602
0.016269485
0.016267726
0.016274114
0.016298687
0.016380939
0.016452957
0.016732389
0.01751057
0.019359311
0.018487635
0.018161357
0.018076737
0.017977796
0.017948917
0.017940795
0.01794376
0.017907353
0.017895178
0.017895178
0.017907354
0.017943763
0.017940799
0.017948921
0.017977801
0.018076743
0.018161363
0.018487641
0.019359315
0.021377424
0.020410572
0.020032732
0.019931849
0.019813921
0.019778989
0.01976857
0.019773128
0.019729609
0.019714447
0.019714448
0.01972961
0.01977313
0.019768572
0.019778993
0.019813925
0.019931853
0.020032736
0.020410575
0.021377426
0.023576245
0.022514637
0.022080647
0.021958178
0.021819412
0.021775566
0.021761935
0.021768607
0.021719245
0.021701534
0.021701534
0.021719245
0.021768608
0.021761936
0.021775568
0.021819414
0.021958181
0.022080649
0.022514637
0.023576242
0.025959827
0.024810944
0.024315936
0.024166859
0.02400476
0.023948686
0.023931277
0.023940786
0.023887782
0.023868289
0.023868289
0.023887782
0.023940786
0.023931278
0.023948687
0.024004761
0.024166859
0.024315935
0.02481094
0.02595982
0.028510971
0.02730039
0.026740601
0.026562162
0.026374302
0.026301837
0.026281649
0.026295019
0.026241512
0.026221331
0.026221331
0.026241511
0.026295019
0.026281648
0.026301837
0.026374301
0.02656216
0.026740597
0.027300382
0.028510961
0.031168093
0.029952513
0.029334203
0.029131567
0.028915748
0.028824033
0.028804723
0.028823411
0.028773387
0.028753952
0.028753952
0.028773386
0.02882341
0.028804721
0.028824032
0.028915745
0.029131563
0.029334196
0.029952502
0.031168084
0.033783572
0.032673314
0.032032434
0.031820156
0.031574695
0.031468384
0.031456582
0.031482593
0.031440673
0.031423758
0.031423757
0.031440672
0.031482592
0.031456581
0.031468382
0.031574692
0.031820151
0.032032428
0.032673306
0.033783572
0.036054934
0.035234746
0.034673239
0.034479056
0.034226866
0.034107162
0.034111617
0.034147358
0.034118517
0.034106187
0.034106187
0.034118517
0.034147358
0.034111617
0.034107162
0.034226865
0.034479054
0.034673238
0.03523475
0.03605496
0.037443008
0.037228297
0.036908891
0.036793298
0.036605716
0.036498618
0.036495788
0.036543872
0.036532895
0.036527271
0.036527271
0.036532897
0.036543875
0.036495791
0.036498622
0.036605721
0.036793305
0.036908905
0.037228331
0.037443083
0.037152557
0.03796255
0.03821423
0.038290987
0.038210466
0.038180719
0.038189425
0.038192304
0.03820296
0.038205475
0.038205477
0.038202963
0.038192311
0.038189435
0.038180731
0.038210483
0.038291011
0.038214269
0.037962632
0.037152703
0.033968048
0.036687596
0.037789235
0.038235124
0.038323411
0.03843385
0.038513461
0.038438127
0.03846979
0.038479366
0.038479368
0.038469797
0.038438139
0.038513478
0.038433872
0.038323441
0.038235168
0.037789305
0.036687728
0.033968259
0.025932443
0.032016839
0.03459341
0.035660112
0.036117982
0.036382706
0.036476977
0.036552667
0.036594202
0.036604826
0.03660483
0.036594212
0.036552684
0.036477
0.036382736
0.036118023
0.035660173
0.034593507
0.032016999
0.025932679
0.017463696
0.02287139
0.026827333
0.028854949
0.030135643
0.030762222
0.031063723
0.031241196
0.031267457
0.031266306
0.03126631
0.031267467
0.031241214
0.031063745
0.030762253
0.030135684
0.028855012
0.026827434
0.022871564
0.017463963
0.010574335
0.015288361
0.018840579
0.020983072
0.022332528
0.022992909
0.023314322
0.02346283
0.023463561
0.023442204
0.023442208
0.023463574
0.023462851
0.023314345
0.02299294
0.022332571
0.020983139
0.018840682
0.015288524
0.01057459
0.0052766647
0.0096972909
0.012888382
0.015037272
0.016435326
0.017179047
0.017489792
0.017581803
0.017542174
0.017493639
0.017493644
0.017542186
0.017581821
0.01748981
0.017179078
0.016435369
0.015037339
0.012888474
0.0096974223
0.0052768571
0.0020098117
0.0058076361
0.008708715
0.010805231
0.012232433
0.013024394
0.013369473
0.013435605
0.013366895
0.013293524
0.013293528
0.013366908
0.013435625
0.013369493
0.013024418
0.012232468
0.010805287
0.0087087888
0.0058077279
0.002009922
0.00057021395
0.0032797227
0.0058125672
0.0077974447
0.0092076549
0.010028859
0.010372869
0.010406022
0.010305284
0.010208649
0.010208655
0.010305296
0.010406039
0.010372884
0.010028877
0.0092076787
0.0077974828
0.0058126178
0.0032797768
0.00057025976
0.0001231074
0.0017441354
0.0038414587
0.005651175
0.0069925927
0.0078030918
0.0081427035
0.0081610725
0.0080451531
0.0079364844
0.0079364892
0.0080451637
0.0081610862
0.008142715
0.0078031031
0.0069926064
0.0056511962
0.0038414874
0.0017441647
0.00012312097
)
;

boundaryField
{
    Wall
    {
        type            zeroGradient;
    }
    frontAndBack
    {
        type            empty;
    }
    atmosphere
    {
        type            zeroGradient;
    }
}


// ************************************************************************* //
