/*--------------------------------*- C++ -*----------------------------------*\
| =========                 |                                                 |
| \\      /  F ield         | OpenFOAM: The Open Source CFD Toolbox           |
|  \\    /   O peration     | Version:  3.0.1                                 |
|   \\  /    A nd           | Web:      www.OpenFOAM.org                      |
|    \\/     M anipulation  |                                                 |
\*---------------------------------------------------------------------------*/
FoamFile
{
    version     2.0;
    format      ascii;
    class       volScalarField;
    location    "34";
    object      wCO2_g;
}
// * * * * * * * * * * * * * * * * * * * * * * * * * * * * * * * * * * * * * //

dimensions      [0 0 0 0 0 0 0];

internalField   nonuniform List<scalar> 
800
(
0.018387328
0.018388702
0.018388235
0.01838794
0.018387808
0.018387749
0.018387721
0.018387709
0.018387705
0.018387704
0.018387704
0.018387705
0.018387709
0.018387721
0.018387749
0.018387808
0.01838794
0.018388235
0.018388702
0.018387328
0.018637798
0.018638362
0.018637955
0.018637698
0.018637546
0.018637446
0.01863738
0.018637337
0.018637313
0.018637302
0.018637302
0.018637313
0.018637337
0.01863738
0.018637446
0.018637546
0.018637698
0.018637955
0.018638362
0.018637798
0.018849493
0.018848655
0.018848114
0.018847586
0.018847236
0.018847013
0.018846876
0.018846797
0.018846755
0.018846736
0.018846736
0.018846755
0.018846797
0.018846876
0.018847013
0.018847237
0.018847586
0.018848114
0.018848656
0.018849493
0.019067145
0.019063353
0.019062711
0.019061894
0.019061339
0.019060999
0.019060802
0.019060698
0.019060646
0.019060625
0.019060625
0.019060646
0.019060698
0.019060803
0.019061
0.019061339
0.019061895
0.019062711
0.019063354
0.019067145
0.019299498
0.019291192
0.019290168
0.019289052
0.019288261
0.019287802
0.019287548
0.019287422
0.019287363
0.019287341
0.019287341
0.019287363
0.019287422
0.019287548
0.019287802
0.019288262
0.019289052
0.019290169
0.019291192
0.019299498
0.019550495
0.019536106
0.019534224
0.019532787
0.019531713
0.019531121
0.019530808
0.019530665
0.019530602
0.01953058
0.01953058
0.019530602
0.019530665
0.019530808
0.019531121
0.019531714
0.019532788
0.019534224
0.019536106
0.019550495
0.019823097
0.019801174
0.0197978
0.019795967
0.019794524
0.019793766
0.019793384
0.01979322
0.019793153
0.019793133
0.019793133
0.019793153
0.01979322
0.019793384
0.019793766
0.019794524
0.019795967
0.019797801
0.019801175
0.019823098
0.020119778
0.020089124
0.020083534
0.020081197
0.020079295
0.020078324
0.020077849
0.020077653
0.020077576
0.020077555
0.020077555
0.020077576
0.020077654
0.02007785
0.020078325
0.020079296
0.020081198
0.020083535
0.020089125
0.020119778
0.020440928
0.020400946
0.020392349
0.02038937
0.020386943
0.020385709
0.020385109
0.020384862
0.020384764
0.020384737
0.020384737
0.020384764
0.020384862
0.020385109
0.02038571
0.020386944
0.020389371
0.02039235
0.020400947
0.020440929
0.020786113
0.020736658
0.020724212
0.020720423
0.020717447
0.020715911
0.020715141
0.020714813
0.020714679
0.020714639
0.020714639
0.020714679
0.020714814
0.020715142
0.020715912
0.020717448
0.020720424
0.020724213
0.02073666
0.020786114
0.021151365
0.021093364
0.021076441
0.021071746
0.021068328
0.021066528
0.021065564
0.021065142
0.021064966
0.021064911
0.021064911
0.021064966
0.021065143
0.021065565
0.021066529
0.02106833
0.021071747
0.021076443
0.021093365
0.021151366
0.021535351
0.021467366
0.021445465
0.021439716
0.021436017
0.021434022
0.021432811
0.021432261
0.02143203
0.02143195
0.02143195
0.02143203
0.021432262
0.021432812
0.021434023
0.021436019
0.021439717
0.021445467
0.021467367
0.021535352
0.021939072
0.021868894
0.021840998
0.021833865
0.021830273
0.021828252
0.021826672
0.021825915
0.021825602
0.021825476
0.021825477
0.021825602
0.021825916
0.021826673
0.021828253
0.021830274
0.021833866
0.021841
0.021868895
0.021939073
0.022353032
0.022283119
0.022249797
0.022241167
0.022238194
0.022236427
0.022234355
0.022233326
0.022232928
0.022232742
0.022232742
0.022232929
0.022233327
0.022234356
0.022236429
0.022238196
0.022241169
0.022249799
0.022283121
0.022353033
0.022772313
0.022707358
0.022670223
0.022659893
0.022658059
0.022656709
0.022653979
0.02265257
0.022652075
0.02265182
0.02265182
0.022652076
0.022652571
0.02265398
0.02265671
0.022658061
0.022659895
0.022670225
0.022707361
0.022772314
0.02317848
0.023125333
0.023086871
0.023075197
0.023075216
0.023074485
0.023071019
0.023069169
0.023068612
0.023068359
0.023068359
0.023068612
0.023069169
0.023071019
0.023074486
0.023075217
0.023075198
0.023086872
0.023125335
0.023178482
0.023576059
0.023542075
0.023505422
0.023492652
0.023494983
0.023494751
0.023490183
0.023487675
0.023486995
0.023486884
0.023486884
0.023486995
0.023487675
0.023490183
0.023494752
0.023494983
0.023492652
0.023505423
0.023542076
0.023576059
0.023950019
0.023943808
0.02391354
0.023900858
0.023906258
0.023906385
0.023900321
0.023897034
0.023896219
0.023896569
0.02389657
0.023896219
0.023897035
0.023900322
0.023906385
0.023906259
0.023900859
0.023913541
0.023943809
0.023950019
0.024289355
0.02432192
0.024302825
0.024291917
0.024301162
0.024301132
0.024292907
0.024288617
0.024287497
0.02428874
0.02428874
0.024287497
0.024288617
0.024292906
0.024301132
0.024301162
0.024291917
0.024302825
0.02432192
0.024289354
0.024583164
0.024666627
0.024664703
0.024658119
0.024672257
0.024671464
0.024660458
0.024655001
0.024653335
0.024655998
0.024655998
0.024653335
0.024655
0.024660458
0.024671463
0.024672256
0.024658119
0.024664703
0.024666627
0.024583163
0.024816459
0.024964601
0.024986674
0.024987529
0.025007675
0.025005472
0.024991172
0.024984369
0.024981859
0.024986447
0.024986446
0.024981859
0.024984368
0.024991171
0.025005471
0.025007674
0.024987528
0.024986673
0.0249646
0.024816457
0.024974296
0.025202437
0.025256492
0.025268443
0.025295898
0.025291832
0.025273989
0.02526569
0.025262176
0.025269089
0.025269089
0.025262176
0.025265689
0.025273988
0.025291831
0.025295897
0.025268441
0.02525649
0.025202436
0.024974293
0.025039254
0.025364316
0.025459734
0.025486903
0.025523363
0.025517252
0.025495814
0.025485877
0.025481512
0.025490966
0.025490965
0.025481511
0.025485875
0.025495812
0.02551725
0.025523361
0.025486901
0.025459731
0.025364314
0.025039251
0.02499206
0.025432684
0.025580749
0.025627822
0.025675683
0.02566764
0.025642598
0.025630863
0.025626202
0.025638183
0.025638183
0.025626201
0.025630862
0.025642595
0.025667638
0.02567568
0.02562782
0.025580746
0.025432682
0.024992057
0.024809015
0.025386201
0.025600436
0.025673215
0.025735628
0.025726302
0.025697715
0.02568402
0.02567997
0.025694243
0.025694243
0.025679969
0.025684018
0.025697712
0.025726299
0.025735625
0.025673213
0.025600434
0.0253862
0.024809014
0.024460729
0.025198851
0.025495375
0.025601802
0.025682342
0.025673436
0.025641643
0.025625805
0.025623412
0.025639537
0.025639537
0.02562341
0.025625803
0.025641641
0.025673433
0.02568234
0.0256018
0.025495374
0.025198851
0.024460731
0.023909744
0.02483765
0.02523579
0.025386608
0.025489419
0.02548402
0.02544994
0.025431765
0.025431924
0.025449303
0.025449303
0.025431923
0.025431763
0.025449938
0.025484017
0.025489417
0.025386607
0.02523579
0.024837653
0.02390975
0.023108808
0.02425968
0.024783251
0.024992417
0.025122752
0.025125703
0.02509097
0.025070272
0.025073464
0.025091378
0.025091378
0.025073463
0.02507027
0.025090969
0.025125702
0.025122751
0.024992417
0.024783253
0.024259687
0.023108821
0.021999872
0.023409672
0.024088132
0.024372228
0.024537266
0.024555637
0.024522488
0.024499115
0.024505224
0.024522869
0.024522869
0.024505224
0.024499113
0.024522487
0.024555636
0.024537266
0.024372231
0.024088138
0.023409687
0.021999896
0.020516127
0.022218942
0.023086797
0.02346468
0.023675564
0.023717363
0.023688689
0.02366259
0.023670859
0.023687378
0.023687378
0.023670859
0.02366259
0.02368869
0.023717364
0.023675567
0.023464686
0.023086808
0.022218967
0.020516165
0.01859078
0.020611129
0.021702586
0.022195556
0.022466862
0.022541846
0.022520421
0.022492341
0.022501469
0.022515986
0.022515986
0.022501469
0.022492342
0.022520423
0.022541849
0.022466868
0.022195566
0.021702605
0.020611167
0.018590838
0.016174004
0.018514693
0.019855893
0.020485937
0.020831339
0.020949045
0.020941453
0.02091442
0.020922852
0.020934533
0.020934533
0.020922853
0.020914422
0.020941457
0.02094905
0.020831348
0.020485951
0.019855918
0.018514744
0.016174084
0.01325319
0.015877152
0.017476595
0.018260524
0.018696332
0.018860776
0.018873789
0.018862408
0.018868587
0.01887671
0.018876711
0.018868589
0.018862412
0.018873794
0.018860784
0.018696343
0.018260543
0.017476629
0.015877217
0.013253289
0.0099741921
0.012669271
0.014504122
0.015447721
0.015994345
0.01620045
0.016260504
0.01627313
0.016275687
0.016279837
0.016279838
0.01627569
0.016273136
0.016260512
0.01620046
0.01599436
0.015447746
0.014504164
0.012669342
0.0099742952
0.0069645256
0.0092597716
0.011076545
0.012083079
0.01272568
0.013013903
0.013095591
0.013115127
0.013111655
0.013111173
0.013111174
0.013111658
0.013115133
0.013095599
0.013013914
0.012725695
0.012083104
0.011076589
0.0092598473
0.0069646388
0.0043121042
0.0063303756
0.0079797877
0.0090300586
0.009679075
0.0099662768
0.010058118
0.010074409
0.010066359
0.010061471
0.010061473
0.010066364
0.010074417
0.010058127
0.0099662892
0.009679093
0.0090300874
0.0079798329
0.0063304463
0.0043122115
0.002183094
0.0040711132
0.0055149613
0.0065250266
0.0071768527
0.0075022832
0.007596959
0.0075974299
0.0075743159
0.0075595602
0.0075595622
0.0075743207
0.0075974377
0.0075969666
0.0075022967
0.0071768715
0.0065250561
0.0055150021
0.0040711704
0.0021831751
0.00084001233
0.002451845
0.0037277856
0.0046692978
0.0053048022
0.0056398657
0.0057530699
0.0057484873
0.0057130094
0.0056878595
0.0056878613
0.0057130155
0.0057484963
0.0057530789
0.0056398768
0.0053048179
0.0046693227
0.0037278184
0.0024518851
0.00084005891
0.00024001203
0.0013809648
0.0024684347
0.0033267382
0.0039281035
0.0042604143
0.0043729684
0.0043585714
0.0043095243
0.0042742117
0.004274214
0.0043095298
0.004358579
0.0043729757
0.0042604227
0.0039281146
0.0033267556
0.0024684574
0.0013809885
0.00024003143
5.2068821e-05
0.00072614768
0.0016037965
0.0023606837
0.0029116504
0.0032271669
0.0033370001
0.0033200815
0.0032656212
0.0032251544
0.0032251565
0.0032656261
0.003320088
0.0033370058
0.0032271727
0.0029116572
0.0023606938
0.0016038096
0.00072616055
5.2074582e-05
)
;

boundaryField
{
    Wall
    {
        type            zeroGradient;
    }
    frontAndBack
    {
        type            empty;
    }
    atmosphere
    {
        type            zeroGradient;
    }
}


// ************************************************************************* //
