/*--------------------------------*- C++ -*----------------------------------*\
| =========                 |                                                 |
| \\      /  F ield         | OpenFOAM: The Open Source CFD Toolbox           |
|  \\    /   O peration     | Version:  3.0.1                                 |
|   \\  /    A nd           | Web:      www.OpenFOAM.org                      |
|    \\/     M anipulation  |                                                 |
\*---------------------------------------------------------------------------*/
FoamFile
{
    version     2.0;
    format      ascii;
    class       volScalarField;
    location    "34";
    object      weight1;
}
// * * * * * * * * * * * * * * * * * * * * * * * * * * * * * * * * * * * * * //

dimensions      [0 0 0 0 0 0 0];

internalField   nonuniform List<scalar> 
800
(
9.9922843e+12
9.9922843e+12
9.9922843e+12
9.9922843e+12
9.9922843e+12
9.9922843e+12
9.9922843e+12
9.9922843e+12
9.9922843e+12
9.9922843e+12
9.9922843e+12
9.9922843e+12
9.9922843e+12
9.9922843e+12
9.9922843e+12
9.9922843e+12
9.9922843e+12
9.9922843e+12
9.9922843e+12
9.9922843e+12
9.9926681e+12
9.992624e+12
9.9926152e+12
9.9926134e+12
9.9926132e+12
9.9926133e+12
9.9926133e+12
9.9926133e+12
9.9926132e+12
9.9926132e+12
9.9926132e+12
9.9926132e+12
9.9926133e+12
9.9926133e+12
9.9926133e+12
9.9926132e+12
9.9926134e+12
9.9926152e+12
9.992624e+12
9.9926681e+12
9.9456744e+12
9.9472059e+12
9.9479616e+12
9.9482638e+12
9.9483746e+12
9.9484075e+12
9.9484108e+12
9.9484053e+12
9.9483993e+12
9.948396e+12
9.9483959e+12
9.9483993e+12
9.9484052e+12
9.9484107e+12
9.9484074e+12
9.9483745e+12
9.9482636e+12
9.9479614e+12
9.9472057e+12
9.945674e+12
9.8583001e+12
9.8627763e+12
9.8647663e+12
9.8655564e+12
9.8658532e+12
9.8659439e+12
9.8659551e+12
9.8659419e+12
9.8659265e+12
9.8659175e+12
9.8659175e+12
9.8659264e+12
9.8659417e+12
9.8659549e+12
9.8659436e+12
9.8658528e+12
9.8655559e+12
9.8647658e+12
9.8627757e+12
9.8582993e+12
9.7375728e+12
9.7460928e+12
9.7496249e+12
9.7510157e+12
9.7515436e+12
9.7517075e+12
9.7517308e+12
9.7517097e+12
9.7516836e+12
9.7516682e+12
9.7516681e+12
9.7516834e+12
9.7517094e+12
9.7517305e+12
9.751707e+12
9.751543e+12
9.751015e+12
9.749624e+12
9.7460918e+12
9.7375714e+12
9.5892576e+12
9.6026275e+12
9.6079221e+12
9.6099859e+12
9.6107667e+12
9.6110091e+12
9.6110449e+12
9.6110147e+12
9.6109765e+12
9.6109538e+12
9.6109538e+12
9.6109762e+12
9.6110143e+12
9.6110444e+12
9.6110084e+12
9.6107659e+12
9.6099849e+12
9.6079209e+12
9.6026261e+12
9.5892558e+12
9.4185124e+12
9.4373209e+12
9.4445213e+12
9.447302e+12
9.4483411e+12
9.4486589e+12
9.4487033e+12
9.4486608e+12
9.4486085e+12
9.4485776e+12
9.4485775e+12
9.4486082e+12
9.4486603e+12
9.4487026e+12
9.448658e+12
9.44834e+12
9.4473007e+12
9.4445197e+12
9.4373191e+12
9.4185101e+12
9.2301959e+12
9.2548033e+12
9.2639713e+12
9.2674862e+12
9.2687717e+12
9.2691549e+12
9.2692017e+12
9.2691431e+12
9.2690746e+12
9.2690346e+12
9.2690344e+12
9.2690742e+12
9.2691425e+12
9.2692009e+12
9.2691538e+12
9.2687704e+12
9.2674846e+12
9.2639695e+12
9.2548013e+12
9.2301933e+12
9.0245838e+12
9.056446e+12
9.0678851e+12
9.0721801e+12
9.0737311e+12
9.0741826e+12
9.0742306e+12
9.0741536e+12
9.074067e+12
9.0740167e+12
9.0740165e+12
9.0740665e+12
9.0741529e+12
9.0742296e+12
9.0741813e+12
9.0737295e+12
9.0721783e+12
9.067883e+12
9.0564436e+12
9.024581e+12
8.800487e+12
8.840497e+12
8.8544744e+12
8.8595671e+12
8.8613705e+12
8.861885e+12
8.8619341e+12
8.8618387e+12
8.8617333e+12
8.8616725e+12
8.8616723e+12
8.8617328e+12
8.8618378e+12
8.8619329e+12
8.8618835e+12
8.8613688e+12
8.859565e+12
8.8544721e+12
8.8404945e+12
8.800484e+12
8.5547271e+12
8.6041878e+12
8.6213585e+12
8.6272974e+12
8.6293043e+12
8.629867e+12
8.6299325e+12
8.6298278e+12
8.6297072e+12
8.6296375e+12
8.6296374e+12
8.6297066e+12
8.6298268e+12
8.6299312e+12
8.6298654e+12
8.6293023e+12
8.6272952e+12
8.621356e+12
8.6041852e+12
8.554724e+12
8.2876739e+12
8.3464871e+12
8.367354e+12
8.3741352e+12
8.3761354e+12
8.3766411e+12
8.3767337e+12
8.3766282e+12
8.3764936e+12
8.3764163e+12
8.3764161e+12
8.376493e+12
8.3766272e+12
8.3767324e+12
8.3766393e+12
8.3761334e+12
8.3741329e+12
8.3673515e+12
8.3464844e+12
8.287671e+12
8.0045318e+12
8.0722912e+12
8.0969873e+12
8.1046452e+12
8.1064021e+12
8.1067248e+12
8.106867e+12
8.1067793e+12
8.1066273e+12
8.1065469e+12
8.1065467e+12
8.1066267e+12
8.1067782e+12
8.1068656e+12
8.1067231e+12
8.1064001e+12
8.104643e+12
8.0969848e+12
8.0722886e+12
8.004529e+12
7.7081103e+12
7.7818184e+12
7.8103954e+12
7.819006e+12
7.8198959e+12
7.8196968e+12
7.8199537e+12
7.8199152e+12
7.8197211e+12
7.8196449e+12
7.8196447e+12
7.8197205e+12
7.8199142e+12
7.8199523e+12
7.8196951e+12
7.8198939e+12
7.8190039e+12
7.810393e+12
7.7818159e+12
7.7081077e+12
7.409005e+12
7.4865245e+12
7.5179999e+12
7.5276095e+12
7.527206e+12
7.5262922e+12
7.5268183e+12
7.5268606e+12
7.5265896e+12
7.5265096e+12
7.5265094e+12
7.526589e+12
7.5268596e+12
7.526817e+12
7.5262907e+12
7.5272042e+12
7.5276076e+12
7.5179977e+12
7.4865223e+12
7.4090027e+12
7.1141615e+12
7.1948303e+12
7.2280036e+12
7.2386022e+12
7.2369743e+12
7.2355706e+12
7.236413e+12
7.2365553e+12
7.2361997e+12
7.2360639e+12
7.2360637e+12
7.2361991e+12
7.2365544e+12
7.2364118e+12
7.2355692e+12
7.2369727e+12
7.2386004e+12
7.2280017e+12
7.1948284e+12
7.1141593e+12
6.8248545e+12
6.9090612e+12
6.943306e+12
6.9548186e+12
6.952347e+12
6.9508196e+12
6.9519725e+12
6.9522145e+12
6.9517984e+12
6.9514999e+12
6.9514998e+12
6.9517979e+12
6.9522137e+12
6.9519715e+12
6.9508183e+12
6.9523456e+12
6.954817e+12
6.9433044e+12
6.9090596e+12
6.8248527e+12
6.5411489e+12
6.6294245e+12
6.6646663e+12
6.67698e+12
6.6741088e+12
6.6728203e+12
6.6743345e+12
6.6746775e+12
6.6742671e+12
6.6736666e+12
6.6736665e+12
6.6742667e+12
6.6746767e+12
6.6743336e+12
6.6728193e+12
6.6741075e+12
6.6769787e+12
6.6646649e+12
6.6294231e+12
6.5411474e+12
6.2629588e+12
6.3557501e+12
6.3922892e+12
6.4052743e+12
6.4023835e+12
6.4016726e+12
6.4036333e+12
6.4040934e+12
6.4038127e+12
6.4027792e+12
6.4027791e+12
6.4038123e+12
6.4040928e+12
6.4036325e+12
6.4016717e+12
6.4023825e+12
6.4052732e+12
6.392288e+12
6.3557491e+12
6.2629577e+12
5.9900444e+12
6.0877035e+12
6.1261017e+12
6.1396683e+12
6.1370789e+12
6.1372207e+12
6.1396802e+12
6.1402906e+12
6.1403102e+12
6.1387694e+12
6.1387693e+12
6.1403099e+12
6.1402901e+12
6.1396796e+12
6.13722e+12
6.1370781e+12
6.1396675e+12
6.1261008e+12
6.0877027e+12
5.9900437e+12
5.7217216e+12
5.8245562e+12
5.8655106e+12
5.8796749e+12
5.8777068e+12
5.8788374e+12
5.8817575e+12
5.8825575e+12
5.8830287e+12
5.8809965e+12
5.8809964e+12
5.8830284e+12
5.8825571e+12
5.881757e+12
5.8788368e+12
5.8777062e+12
5.8796743e+12
5.86551e+12
5.8245558e+12
5.7217213e+12
5.4566155e+12
5.5650334e+12
5.6092171e+12
5.624114e+12
5.6230912e+12
5.6252028e+12
5.628448e+12
5.6294682e+12
5.6304339e+12
5.628023e+12
5.6280229e+12
5.6304337e+12
5.6294679e+12
5.6284476e+12
5.6252024e+12
5.6230908e+12
5.6241137e+12
5.6092167e+12
5.5650333e+12
5.4566154e+12
5.1925824e+12
5.3073218e+12
5.355237e+12
5.3710879e+12
5.3712492e+12
5.374264e+12
5.3777109e+12
5.3789658e+12
5.3803271e+12
5.3777274e+12
5.3777274e+12
5.380327e+12
5.3789655e+12
5.3777106e+12
5.3742638e+12
5.371249e+12
5.3710878e+12
5.3552368e+12
5.3073219e+12
5.1925826e+12
4.9267373e+12
5.0490569e+12
5.100957e+12
5.1180312e+12
5.1194528e+12
5.1233231e+12
5.1269673e+12
5.1284487e+12
5.1300233e+12
5.1274665e+12
5.1274665e+12
5.1300231e+12
5.1284484e+12
5.126967e+12
5.1233229e+12
5.1194527e+12
5.1180312e+12
5.1009571e+12
5.0490573e+12
4.9267378e+12
4.656053e+12
4.7877999e+12
4.8438907e+12
4.8623682e+12
4.8651626e+12
4.8698275e+12
4.8737292e+12
4.8753893e+12
4.8770235e+12
4.8747429e+12
4.8747429e+12
4.8770233e+12
4.8753891e+12
4.873729e+12
4.8698273e+12
4.8651625e+12
4.8623683e+12
4.843891e+12
4.7878005e+12
4.6560537e+12
4.37816e+12
4.5218412e+12
4.5828234e+12
4.6028434e+12
4.6075834e+12
4.6128425e+12
4.6169662e+12
4.6186827e+12
4.6203299e+12
4.6185197e+12
4.6185196e+12
4.6203298e+12
4.6186824e+12
4.616966e+12
4.6128423e+12
4.6075833e+12
4.6028435e+12
4.5828238e+12
4.521842e+12
4.378161e+12
4.0921666e+12
4.2512693e+12
4.3190481e+12
4.3415971e+12
4.3494716e+12
4.3552377e+12
4.3594229e+12
4.3609681e+12
4.3626698e+12
4.3614432e+12
4.3614431e+12
4.3626697e+12
4.3609679e+12
4.3594227e+12
4.3552375e+12
4.3494715e+12
4.3415972e+12
4.3190486e+12
4.2512704e+12
4.092168e+12
3.798259e+12
3.9781451e+12
4.0565232e+12
4.0844369e+12
4.0973308e+12
4.1039853e+12
4.1081913e+12
4.1092818e+12
4.1110993e+12
4.1104453e+12
4.1104453e+12
4.1110991e+12
4.1092816e+12
4.108191e+12
4.1039851e+12
4.0973307e+12
4.0844371e+12
4.0565238e+12
3.9781466e+12
3.7982611e+12
3.4941871e+12
3.7024788e+12
3.7976482e+12
3.8356814e+12
3.8557219e+12
3.8645489e+12
3.8691485e+12
3.8696251e+12
3.871628e+12
3.8713948e+12
3.8713947e+12
3.8716278e+12
3.8696248e+12
3.8691483e+12
3.8645488e+12
3.8557218e+12
3.8356816e+12
3.7976491e+12
3.7024811e+12
3.4941905e+12
3.1706908e+12
3.4156907e+12
3.5357115e+12
3.5886545e+12
3.6177961e+12
3.6307031e+12
3.6363325e+12
3.63629e+12
3.6385284e+12
3.638467e+12
3.6384669e+12
3.6385283e+12
3.6362898e+12
3.6363324e+12
3.630703e+12
3.6177963e+12
3.5886552e+12
3.535713e+12
3.4156943e+12
3.1706963e+12
2.8134879e+12
3.1003058e+12
3.2526044e+12
3.3239207e+12
3.3643821e+12
3.3834039e+12
3.3899849e+12
3.3896306e+12
3.3919881e+12
3.3918371e+12
3.391837e+12
3.391988e+12
3.3896305e+12
3.389985e+12
3.3834041e+12
3.3643826e+12
3.3239219e+12
3.2526069e+12
3.1003111e+12
2.813496e+12
2.4128578e+12
2.7396529e+12
2.9289492e+12
3.0214301e+12
3.0742492e+12
3.1012754e+12
3.1097279e+12
3.1084809e+12
3.1106602e+12
3.1102187e+12
3.1102187e+12
3.1106602e+12
3.1084809e+12
3.1097281e+12
3.1012759e+12
3.0742503e+12
3.021432e+12
2.9289528e+12
2.73966e+12
2.4128687e+12
1.9733862e+12
2.3281204e+12
2.5532411e+12
2.6691008e+12
2.7352968e+12
2.7707907e+12
2.7827578e+12
2.7819045e+12
2.7835896e+12
2.7827369e+12
2.7827369e+12
2.7835897e+12
2.7819047e+12
2.7827583e+12
2.7707915e+12
2.7352982e+12
2.6691032e+12
2.5532456e+12
2.3281289e+12
1.9733992e+12
1.5121053e+12
1.8722595e+12
2.1274728e+12
2.2669649e+12
2.3483804e+12
2.3912426e+12
2.4072924e+12
2.410613e+12
2.4115199e+12
2.4101866e+12
2.4101866e+12
2.4115201e+12
2.4106135e+12
2.4072931e+12
2.3912437e+12
2.3483822e+12
2.2669679e+12
2.127478e+12
1.8722692e+12
1.5121211e+12
0
0
1.6675965e+12
1.829966e+12
1.9267041e+12
1.9769014e+12
1.9984663e+12
2.0045451e+12
2.0046611e+12
2.0028681e+12
2.0028682e+12
2.0046614e+12
2.0045459e+12
1.9984673e+12
1.9769029e+12
1.9267064e+12
1.8299697e+12
1.6676029e+12
0
0
0
0
0
0
0
0
0
0
0
0
0
0
0
0
0
0
0
0
0
0
0
0
0
0
0
0
0
0
0
0
0
0
0
0
0
0
0
0
0
0
0
0
0
0
0
0
0
0
0
0
0
0
0
0
0
0
0
0
0
0
0
0
0
0
0
0
0
0
0
0
0
0
0
0
0
0
0
0
0
0
0
0
0
0
0
0
0
0
0
0
0
0
0
0
0
0
0
0
0
0
)
;

boundaryField
{
    Wall
    {
        type            zeroGradient;
    }
    frontAndBack
    {
        type            empty;
    }
    atmosphere
    {
        type            zeroGradient;
    }
}


// ************************************************************************* //
