/*--------------------------------*- C++ -*----------------------------------*\
| =========                 |                                                 |
| \\      /  F ield         | OpenFOAM: The Open Source CFD Toolbox           |
|  \\    /   O peration     | Version:  3.0.1                                 |
|   \\  /    A nd           | Web:      www.OpenFOAM.org                      |
|    \\/     M anipulation  |                                                 |
\*---------------------------------------------------------------------------*/
FoamFile
{
    version     2.0;
    format      ascii;
    class       volScalarField;
    location    "34";
    object      weight0;
}
// * * * * * * * * * * * * * * * * * * * * * * * * * * * * * * * * * * * * * //

dimensions      [0 0 0 0 0 0 0];

internalField   nonuniform List<scalar> 
800
(
7.715704e+09
7.7157137e+09
7.7157023e+09
7.7156982e+09
7.7156972e+09
7.7156974e+09
7.715698e+09
7.715699e+09
7.7156999e+09
7.7157005e+09
7.7157005e+09
7.7156999e+09
7.715699e+09
7.715698e+09
7.7156973e+09
7.7156972e+09
7.7156981e+09
7.7157023e+09
7.7157137e+09
7.715704e+09
7.3318797e+09
7.3760397e+09
7.3848208e+09
7.3866157e+09
7.3867951e+09
7.3867302e+09
7.3867038e+09
7.3867318e+09
7.3867755e+09
7.3868045e+09
7.3868044e+09
7.3867754e+09
7.3867315e+09
7.3867034e+09
7.3867297e+09
7.3867945e+09
7.3866149e+09
7.3848197e+09
7.3760384e+09
7.3318774e+09
7.2600526e+09
7.3057924e+09
7.3189537e+09
7.3213772e+09
7.3218888e+09
7.3220787e+09
7.3222578e+09
7.3224392e+09
7.3225837e+09
7.3226631e+09
7.322663e+09
7.3225836e+09
7.3224391e+09
7.3222575e+09
7.3220783e+09
7.3218883e+09
7.3213766e+09
7.3189529e+09
7.3057914e+09
7.2600509e+09
7.2640281e+09
7.3035972e+09
7.3170735e+09
7.3196641e+09
7.3205381e+09
7.321005e+09
7.3213493e+09
7.3216175e+09
7.3218034e+09
7.3218992e+09
7.3218991e+09
7.3218033e+09
7.3216173e+09
7.321349e+09
7.3210045e+09
7.3205376e+09
7.3196635e+09
7.3170728e+09
7.3035963e+09
7.2640266e+09
7.0490117e+09
7.0996465e+09
7.1144861e+09
7.1180424e+09
7.1198619e+09
7.1207437e+09
7.121196e+09
7.1214389e+09
7.1215695e+09
7.121628e+09
7.1216278e+09
7.1215691e+09
7.1214382e+09
7.1211949e+09
7.1207423e+09
7.1198603e+09
7.1180404e+09
7.1144838e+09
7.0996438e+09
7.0490077e+09
6.309815e+09
6.4136455e+09
6.4370325e+09
6.4430321e+09
6.4470685e+09
6.4487663e+09
6.4493605e+09
6.4494972e+09
6.4494856e+09
6.4494554e+09
6.449455e+09
6.4494844e+09
6.4494952e+09
6.4493577e+09
6.4487628e+09
6.4470642e+09
6.443027e+09
6.4370266e+09
6.4136386e+09
6.3098053e+09
4.7078408e+09
4.9387915e+09
4.9875818e+09
4.9983759e+09
5.0069046e+09
5.0102965e+09
5.0112848e+09
5.0113469e+09
5.0111635e+09
5.0110194e+09
5.0110186e+09
5.0111609e+09
5.0113426e+09
5.0112788e+09
5.010289e+09
5.0068955e+09
4.9983652e+09
4.9875695e+09
4.9387774e+09
4.7078218e+09
1.5655418e+09
2.1093634e+09
2.2307171e+09
2.2523508e+09
2.2713846e+09
2.2792098e+09
2.2816812e+09
2.2820833e+09
2.2818552e+09
2.2816356e+09
2.2816338e+09
2.2818498e+09
2.2820744e+09
2.2816687e+09
2.2791942e+09
2.2713659e+09
2.2523292e+09
2.2306929e+09
2.109336e+09
1.5655048e+09
2.8438838e+08
1.3602207e+08
1.0807127e+08
1.0417588e+08
1.008425e+08
99271708
98696096
98530714
98518533
98530740
98531042
98519454
98532225
98698191
99274365
1.0084567e+08
1.0417956e+08
1.0807539e+08
1.3602725e+08
2.8439839e+08
5.2341034e+09
3.8794055e+09
3.5061141e+09
3.4617143e+09
3.4313679e+09
3.4134725e+09
3.4045891e+09
3.4013197e+09
3.4005436e+09
3.4003707e+09
3.4003741e+09
3.4005541e+09
3.4013372e+09
3.4046131e+09
3.4135029e+09
3.4314033e+09
3.4617545e+09
3.5061574e+09
3.8794539e+09
5.2341669e+09
2.2177831e+10
1.8657707e+10
1.7369168e+10
1.7246355e+10
1.7226506e+10
1.7199839e+10
1.7166244e+10
1.7151259e+10
1.7146317e+10
1.7144393e+10
1.7144402e+10
1.7146344e+10
1.7151305e+10
1.7166305e+10
1.7199917e+10
1.7226594e+10
1.7246454e+10
1.7369272e+10
1.8657817e+10
2.2177952e+10
5.3305488e+10
4.8030206e+10
4.5401397e+10
4.5197396e+10
4.5374592e+10
4.5429049e+10
4.5351085e+10
4.531091e+10
4.5296115e+10
4.5289208e+10
4.5289219e+10
4.5296152e+10
4.5310973e+10
4.5351167e+10
4.5429154e+10
4.5374707e+10
4.5197523e+10
4.5401527e+10
4.8030338e+10
5.3305616e+10
9.554036e+10
8.9175864e+10
8.5201563e+10
8.4908722e+10
8.5519245e+10
8.5781643e+10
8.5638528e+10
8.5556366e+10
8.5534272e+10
8.5517744e+10
8.5517753e+10
8.5534304e+10
8.5556423e+10
8.56386e+10
8.5781736e+10
8.5519343e+10
8.4908828e+10
8.5201666e+10
8.9175963e+10
9.5540445e+10
1.4781436e+11
1.4363738e+11
1.3842822e+11
1.3800476e+11
1.3967371e+11
1.4048146e+11
1.4020503e+11
1.4004963e+11
1.4004279e+11
1.4000793e+11
1.4000793e+11
1.400428e+11
1.4004965e+11
1.4020505e+11
1.4048149e+11
1.3967374e+11
1.3800479e+11
1.3842824e+11
1.4363739e+11
1.4781436e+11
2.0100324e+11
2.0142414e+11
1.9618724e+11
1.9565219e+11
1.9882358e+11
2.003729e+11
1.9980601e+11
1.9954563e+11
1.9958746e+11
1.995398e+11
1.9953979e+11
1.9958743e+11
1.9954559e+11
1.9980596e+11
2.0037284e+11
1.9882351e+11
1.9565211e+11
1.9618714e+11
2.0142403e+11
2.0100313e+11
2.4930067e+11
2.5526751e+11
2.5148876e+11
2.5095368e+11
2.555905e+11
2.5766188e+11
2.5675336e+11
2.5636802e+11
2.5646709e+11
2.5645639e+11
2.5645636e+11
2.5646702e+11
2.5636792e+11
2.5675323e+11
2.5766171e+11
2.5559032e+11
2.5095349e+11
2.5148854e+11
2.5526728e+11
2.4930046e+11
2.9253724e+11
3.0397546e+11
3.0262994e+11
3.0230437e+11
3.080651e+11
3.1028987e+11
3.090321e+11
3.0851411e+11
3.0864597e+11
3.08776e+11
3.0877596e+11
3.0864587e+11
3.0851394e+11
3.0903189e+11
3.1028962e+11
3.0806483e+11
3.0230409e+11
3.0262962e+11
3.0397513e+11
2.9253692e+11
3.3151659e+11
3.4822817e+11
3.4983448e+11
3.5003375e+11
3.56541e+11
3.5855959e+11
3.5688603e+11
3.5622287e+11
3.5632212e+11
3.5673046e+11
3.5673041e+11
3.5632198e+11
3.5622264e+11
3.5688575e+11
3.5855925e+11
3.5654065e+11
3.5003338e+11
3.4983406e+11
3.4822774e+11
3.3151615e+11
3.6675669e+11
3.8869176e+11
3.9349456e+11
3.9462176e+11
4.015897e+11
4.0306774e+11
4.0087134e+11
4.0002887e+11
3.9997e+11
4.0078579e+11
4.0078573e+11
3.9996983e+11
4.0002859e+11
4.0087099e+11
4.0306733e+11
4.0158927e+11
3.946213e+11
3.9349405e+11
3.8869123e+11
3.6675612e+11
3.9866424e+11
4.2594768e+11
4.3404919e+11
4.3655476e+11
4.4379646e+11
4.4447073e+11
4.4167387e+11
4.4059392e+11
4.4019999e+11
4.4149489e+11
4.4149481e+11
4.4019979e+11
4.4059359e+11
4.4167347e+11
4.4447025e+11
4.4379596e+11
4.3655423e+11
4.3404859e+11
4.2594706e+11
3.9866356e+11
4.2779415e+11
4.6070028e+11
4.7221003e+11
4.765442e+11
4.8392867e+11
4.8369129e+11
4.8030665e+11
4.789182e+11
4.7802614e+11
4.797793e+11
4.7977922e+11
4.7802592e+11
4.7891784e+11
4.803062e+11
4.8369077e+11
4.8392811e+11
4.7654361e+11
4.7220936e+11
4.6069957e+11
4.2779341e+11
4.5506353e+11
4.9390597e+11
5.091223e+11
5.1574178e+11
5.2320389e+11
5.2211374e+11
5.1825125e+11
5.1648331e+11
5.1503006e+11
5.1711996e+11
5.1711988e+11
5.1502984e+11
5.1648293e+11
5.1825079e+11
5.221132e+11
5.2320332e+11
5.1574116e+11
5.091216e+11
4.9390522e+11
4.5506281e+11
4.8190548e+11
5.2683568e+11
5.4642748e+11
5.5585902e+11
5.6351368e+11
5.617353e+11
5.5749715e+11
5.5528712e+11
5.5334326e+11
5.5556614e+11
5.5556605e+11
5.5334303e+11
5.5528674e+11
5.5749669e+11
5.6173478e+11
5.6351313e+11
5.5585842e+11
5.4642679e+11
5.2683496e+11
4.8190487e+11
5.1006468e+11
5.6093817e+11
5.8606481e+11
5.9898396e+11
6.0723345e+11
6.0495247e+11
6.0033067e+11
5.9763068e+11
5.9533998e+11
5.974436e+11
5.9744352e+11
5.9533977e+11
5.9763032e+11
6.0033026e+11
6.04952e+11
6.0723296e+11
5.9898345e+11
5.860642e+11
5.6093758e+11
5.1006428e+11
5.4102502e+11
5.9739828e+11
6.2956208e+11
6.4698331e+11
6.5635276e+11
6.5384212e+11
6.4878113e+11
6.4557431e+11
6.4303744e+11
6.4475914e+11
6.4475905e+11
6.4303724e+11
6.4557398e+11
6.4878078e+11
6.5384174e+11
6.5635238e+11
6.4698295e+11
6.2956162e+11
5.973979e+11
5.4102493e+11
5.7512089e+11
6.3625657e+11
6.7683688e+11
7.0013615e+11
7.108999e+11
7.0868131e+11
7.0325182e+11
6.9958812e+11
6.9678034e+11
6.9788486e+11
6.9788477e+11
6.9678018e+11
6.9958784e+11
7.0325156e+11
7.0868106e+11
7.1089967e+11
7.0013599e+11
6.7683665e+11
6.3625649e+11
5.7512119e+11
6.1059523e+11
6.7522144e+11
7.2487185e+11
7.549909e+11
7.670892e+11
7.6572989e+11
7.6017791e+11
7.5620723e+11
7.5299267e+11
7.5331026e+11
7.5331018e+11
7.5299255e+11
7.56207e+11
7.6017777e+11
7.657298e+11
7.6708916e+11
7.5499098e+11
7.2487191e+11
6.7522175e+11
6.1059596e+11
6.4381501e+11
7.093195e+11
7.6741435e+11
8.0397934e+11
8.1704463e+11
8.168776e+11
8.1140997e+11
8.0733659e+11
8.0353147e+11
8.0299602e+11
8.0299595e+11
8.0353139e+11
8.0733643e+11
8.1140995e+11
8.1687767e+11
8.1704478e+11
8.0397966e+11
7.6741474e+11
7.0932023e+11
6.4381613e+11
6.7253423e+11
7.3464881e+11
7.9896667e+11
8.4039157e+11
8.5438324e+11
8.5517464e+11
8.4971304e+11
8.4562627e+11
8.4100472e+11
8.3966381e+11
8.3966375e+11
8.4100467e+11
8.4562615e+11
8.4971311e+11
8.5517483e+11
8.5438353e+11
8.4039206e+11
7.9896732e+11
7.3464987e+11
6.7253554e+11
7.0015783e+11
7.5457932e+11
8.2197147e+11
8.6765701e+11
8.8352099e+11
8.8493112e+11
8.7933632e+11
8.7510264e+11
8.6941735e+11
8.6737852e+11
8.6737846e+11
8.694173e+11
8.7510252e+11
8.7933638e+11
8.8493131e+11
8.8352127e+11
8.6765751e+11
8.2197217e+11
7.5458046e+11
7.0015914e+11
7.3346296e+11
7.7944276e+11
8.4873793e+11
9.0084336e+11
9.2034026e+11
9.2267821e+11
9.1793018e+11
9.1336799e+11
9.0649458e+11
9.0382514e+11
9.0382506e+11
9.0649449e+11
9.1336779e+11
9.1793015e+11
9.2267829e+11
9.2034039e+11
9.008437e+11
8.4873853e+11
7.7944378e+11
7.3346433e+11
7.7297357e+11
8.1652952e+11
8.9061432e+11
9.5386402e+11
9.8162343e+11
9.8649794e+11
9.8320453e+11
9.7914875e+11
9.7110493e+11
9.677386e+11
9.6773851e+11
9.7110477e+11
9.7914847e+11
9.8320438e+11
9.8649786e+11
9.8162337e+11
9.5386421e+11
8.9061487e+11
8.1653064e+11
7.7297569e+11
8.0483837e+11
8.5934564e+11
9.482004e+11
1.0303207e+12
1.073511e+12
1.0857054e+12
1.0846785e+12
1.0805665e+12
1.0713387e+12
1.0670143e+12
1.0670142e+12
1.0713385e+12
1.0805661e+12
1.0846783e+12
1.0857052e+12
1.0735109e+12
1.0303209e+12
9.4820124e+11
8.5934757e+11
8.0484243e+11
7.9412513e+11
8.8670175e+11
1.0058284e+12
1.1191265e+12
1.1873977e+12
1.2159369e+12
1.220923e+12
1.2140055e+12
1.2034847e+12
1.1977145e+12
1.1977144e+12
1.2034844e+12
1.2140051e+12
1.2209228e+12
1.2159367e+12
1.1873977e+12
1.1191271e+12
1.0058302e+12
8.8670542e+11
7.9413225e+11
0
0
1.0255677e+12
1.1886514e+12
1.2985412e+12
1.3556374e+12
1.3721106e+12
1.3659971e+12
1.3540102e+12
1.3460252e+12
1.3460251e+12
1.35401e+12
1.3659967e+12
1.3721103e+12
1.3556373e+12
1.2985414e+12
1.1886528e+12
1.0255709e+12
0
0
0
0
0
0
0
0
0
0
0
0
0
0
0
0
0
0
0
0
0
0
0
0
0
0
0
0
0
0
0
0
0
0
0
0
0
0
0
0
0
0
0
0
0
0
0
0
0
0
0
0
0
0
0
0
0
0
0
0
0
0
0
0
0
0
0
0
0
0
0
0
0
0
0
0
0
0
0
0
0
0
0
0
0
0
0
0
0
0
0
0
0
0
0
0
0
0
0
0
0
0
)
;

boundaryField
{
    Wall
    {
        type            zeroGradient;
    }
    frontAndBack
    {
        type            empty;
    }
    atmosphere
    {
        type            zeroGradient;
    }
}


// ************************************************************************* //
