/*--------------------------------*- C++ -*----------------------------------*\
| =========                 |                                                 |
| \\      /  F ield         | OpenFOAM: The Open Source CFD Toolbox           |
|  \\    /   O peration     | Version:  3.0.1                                 |
|   \\  /    A nd           | Web:      www.OpenFOAM.org                      |
|    \\/     M anipulation  |                                                 |
\*---------------------------------------------------------------------------*/
FoamFile
{
    version     2.0;
    format      ascii;
    class       volScalarField;
    location    "34";
    object      XOH;
}
// * * * * * * * * * * * * * * * * * * * * * * * * * * * * * * * * * * * * * //

dimensions      [0 0 0 0 0 0 0];

internalField   nonuniform List<scalar> 
800
(
0.24584066
0.24587222
0.24587884
0.24587983
0.24587994
0.24587998
0.24588006
0.24588015
0.24588022
0.24588026
0.24588026
0.24588022
0.24588015
0.24588006
0.24587998
0.24587994
0.24587983
0.24587884
0.24587222
0.24584066
0.24167947
0.24191848
0.24198707
0.24200812
0.24201408
0.2420153
0.24201519
0.24201486
0.24201461
0.24201448
0.24201448
0.24201461
0.24201486
0.24201519
0.2420153
0.24201408
0.24200811
0.24198706
0.24191846
0.24167944
0.23767581
0.2380539
0.23818409
0.23822555
0.2382381
0.23824116
0.23824138
0.23824097
0.23824061
0.23824041
0.23824041
0.2382406
0.23824097
0.23824137
0.23824115
0.23823809
0.23822554
0.23818407
0.23805387
0.23767576
0.23411552
0.23461022
0.23479137
0.2348496
0.23486753
0.23487216
0.23487272
0.23487232
0.23487189
0.23487166
0.23487166
0.23487189
0.23487231
0.23487271
0.23487215
0.23486751
0.23484958
0.23479135
0.23461018
0.23411546
0.23100384
0.23159343
0.23181681
0.23188828
0.23191015
0.23191584
0.23191664
0.23191626
0.23191583
0.23191559
0.23191559
0.23191582
0.23191625
0.23191663
0.23191582
0.23191013
0.23188826
0.23181678
0.23159339
0.23100378
0.22835025
0.22901194
0.22927048
0.22935193
0.22937616
0.22938216
0.22938291
0.22938244
0.22938197
0.22938171
0.22938171
0.22938196
0.22938243
0.22938289
0.22938215
0.22937614
0.22935191
0.22927045
0.2290119
0.22835019
0.22617123
0.22688209
0.22716936
0.22725793
0.22728301
0.22728854
0.22728884
0.22728809
0.22728749
0.22728718
0.22728718
0.22728748
0.22728808
0.22728883
0.22728853
0.22728299
0.22725791
0.22716933
0.22688206
0.22617117
0.22447967
0.22521774
0.22552722
0.22562034
0.22564491
0.22564921
0.22564866
0.22564741
0.22564657
0.22564617
0.22564617
0.22564657
0.22564741
0.22564865
0.22564919
0.22564489
0.22562032
0.22552719
0.22521771
0.22447962
0.22328604
0.22403086
0.22435541
0.22445089
0.22447376
0.22447611
0.22447433
0.22447237
0.22447118
0.22447063
0.22447063
0.22447118
0.22447236
0.22447432
0.2244761
0.22447375
0.22445087
0.22435539
0.22403083
0.223286
0.22259866
0.22333198
0.22366349
0.22375949
0.22377966
0.2237794
0.22377599
0.22377306
0.22377141
0.22377065
0.22377065
0.2237714
0.22377306
0.22377598
0.22377939
0.22377964
0.22375948
0.22366347
0.22333196
0.22259863
0.22242223
0.22312864
0.22345807
0.22355338
0.2235701
0.22356669
0.22356131
0.22355721
0.22355498
0.22355397
0.22355397
0.22355498
0.22355721
0.22356131
0.22356669
0.2235701
0.22355337
0.22345806
0.22312863
0.22242221
0.2227624
0.22343
0.22374729
0.22384114
0.22385368
0.22384652
0.22383876
0.22383323
0.22383032
0.22382898
0.22382898
0.22383032
0.22383323
0.22383876
0.22384652
0.22385367
0.22384114
0.22374729
0.22343
0.22276239
0.22362183
0.2242418
0.22453731
0.22462976
0.22463722
0.22462587
0.22461545
0.22460828
0.2246046
0.22460289
0.22460289
0.2246046
0.22460828
0.22461545
0.22462588
0.22463722
0.22462977
0.22453732
0.22424181
0.22362184
0.22499979
0.2255665
0.2258324
0.22592411
0.22592493
0.22590908
0.22589575
0.22588677
0.22588212
0.22588
0.22588
0.22588212
0.22588677
0.22589575
0.22590909
0.22592494
0.22592412
0.22583242
0.22556652
0.2249998
0.22689118
0.22740222
0.22763438
0.22772638
0.22771817
0.22769772
0.22768144
0.22767056
0.22766411
0.22766158
0.22766158
0.22766411
0.22767056
0.22768145
0.22769773
0.22771819
0.2277264
0.2276344
0.22740225
0.22689121
0.22928173
0.22973896
0.22993849
0.23003233
0.23001213
0.22998745
0.22996838
0.22995567
0.22994533
0.22994238
0.22994238
0.22994534
0.22995568
0.22996839
0.22998747
0.23001215
0.23003236
0.22993852
0.229739
0.22928177
0.23214293
0.23255478
0.23272896
0.23282731
0.23279256
0.2327648
0.23274282
0.23272858
0.23271056
0.23270718
0.23270718
0.23271057
0.23272859
0.23274283
0.23276482
0.23279259
0.23282735
0.232729
0.23255482
0.23214298
0.23542984
0.23581483
0.23597682
0.23608464
0.23603484
0.23600537
0.23597934
0.23596423
0.23593289
0.23592907
0.23592907
0.23593289
0.23596424
0.23597936
0.23600539
0.23603487
0.23608468
0.23597687
0.23581489
0.23542989
0.23907827
0.23946907
0.2396377
0.239764
0.23970174
0.23967132
0.23963877
0.23962402
0.23957179
0.23956763
0.23956763
0.2395718
0.23962403
0.23963879
0.23967134
0.23970178
0.23976405
0.23963775
0.23946913
0.23907833
0.24299911
0.24344652
0.24364705
0.2438071
0.2437374
0.24370592
0.24366326
0.2436508
0.24356842
0.24356418
0.24356419
0.24356842
0.2436508
0.24366327
0.24370595
0.24373744
0.24380715
0.24364711
0.24344659
0.24299917
0.24706865
0.24764788
0.24791409
0.24813054
0.24805944
0.24802686
0.24797059
0.24796328
0.24784044
0.24783682
0.24783682
0.24784045
0.24796329
0.24797061
0.24802689
0.24805947
0.24813059
0.24791415
0.24764795
0.24706872
0.25111333
0.25193329
0.25231184
0.25261487
0.25254854
0.25251586
0.25244489
0.25244687
0.25227409
0.25227234
0.25227234
0.25227409
0.25244688
0.25244491
0.25251589
0.25254858
0.25261492
0.25231189
0.25193335
0.2511134
0.25488956
0.25610352
0.25666098
0.25708783
0.25703445
0.25700433
0.25692089
0.25693797
0.25670953
0.25671174
0.25671174
0.25670953
0.25693798
0.2569209
0.25700435
0.25703449
0.25708788
0.25666104
0.25610359
0.25488963
0.25805435
0.25987364
0.26070821
0.26130155
0.26127771
0.26125347
0.26116194
0.26120195
0.26091901
0.26092829
0.26092829
0.26091901
0.26120195
0.26116196
0.2612535
0.26127775
0.2613016
0.26070827
0.25987372
0.25805444
0.26011037
0.26282865
0.26408629
0.26489597
0.26493349
0.26491891
0.26482502
0.26489816
0.26457115
0.26459198
0.26459198
0.26457115
0.26489816
0.26482503
0.26491894
0.26493353
0.26489603
0.26408636
0.26282875
0.26011049
0.26031376
0.2643535
0.26624765
0.26734682
0.26749217
0.26749892
0.26741324
0.26753262
0.26718246
0.26722086
0.26722086
0.26718246
0.26753262
0.26741326
0.26749895
0.26749223
0.26734689
0.26624774
0.26435363
0.26031393
0.25754093
0.26353115
0.26637278
0.26787714
0.26819871
0.26825107
0.26819633
0.26837816
0.26803611
0.26809955
0.26809956
0.26803612
0.26837818
0.26819636
0.26825111
0.26819878
0.26787723
0.2663729
0.26353135
0.2575412
0.25012485
0.2589741
0.26323018
0.26533384
0.26593402
0.26608034
0.26609829
0.26636148
0.2660671
0.26616445
0.26616445
0.26606712
0.2663615
0.26609833
0.26608041
0.26593411
0.26533397
0.26323037
0.25897441
0.25012529
0.23572959
0.24865693
0.25502749
0.25801899
0.25903664
0.2593849
0.25953996
0.25990477
0.25970232
0.25984309
0.2598431
0.25970234
0.25990481
0.25954004
0.25938501
0.25903679
0.25801919
0.25502778
0.24865742
0.23573029
0.21151232
0.2298561
0.23929366
0.24354588
0.24519627
0.24588297
0.2462806
0.24676889
0.24670189
0.24689396
0.24689397
0.24670193
0.24676896
0.24628071
0.24588313
0.24519648
0.24354618
0.2392941
0.22985685
0.21151336
0.17521
0.19977943
0.21310783
0.21898762
0.22157466
0.2227564
0.22347834
0.22415883
0.22426386
0.22450845
0.22450847
0.22426393
0.22415894
0.22347851
0.22275662
0.22157496
0.21898804
0.21310845
0.19978046
0.17521133
0.12775253
0.15764981
0.1744975
0.18206299
0.18582407
0.18753978
0.18863103
0.18972055
0.18999929
0.19027964
0.19027966
0.18999937
0.18972069
0.18863124
0.18754005
0.18582444
0.1820635
0.17449825
0.15765097
0.12775378
0.074951627
0.10678292
0.12534606
0.13373934
0.13868314
0.1405735
0.1419759
0.14395783
0.14431423
0.14457732
0.14457735
0.14431432
0.14395798
0.14197611
0.14057377
0.1386835
0.13373983
0.12534674
0.1067838
0.07495235
0.0084959316
0.051439535
0.071279791
0.079307249
0.085281599
0.086744251
0.089731629
0.091625082
0.091897194
0.092073952
0.09207397
0.091897248
0.091625179
0.089731764
0.086744427
0.085281827
0.079307548
0.071280176
0.051439949
0.0084960248
1e-150
1e-150
0.0083460528
0.016846276
0.024789925
0.030859232
0.032011506
0.032691271
0.032795032
0.032857756
0.032857763
0.03279505
0.032691305
0.032011553
0.030859296
0.024789996
0.016846347
0.0083461007
1e-150
1e-150
1e-150
1e-150
1e-150
1e-150
1e-150
1e-150
1e-150
1e-150
1e-150
1e-150
1e-150
1e-150
1e-150
1e-150
1e-150
1e-150
1e-150
1e-150
1e-150
1e-150
1e-150
1e-150
1e-150
1e-150
1e-150
1e-150
1e-150
1e-150
1e-150
1e-150
1e-150
1e-150
1e-150
1e-150
1e-150
1e-150
1e-150
1e-150
1e-150
1e-150
1e-150
1e-150
1e-150
1e-150
1e-150
1e-150
1e-150
1e-150
1e-150
1e-150
1e-150
1e-150
1e-150
1e-150
1e-150
1e-150
1e-150
1e-150
1e-150
1e-150
1e-150
1e-150
1e-150
1e-150
1e-150
1e-150
1e-150
1e-150
1e-150
1e-150
1e-150
1e-150
1e-150
1e-150
1e-150
1e-150
1e-150
1e-150
1e-150
1e-150
1e-150
1e-150
1e-150
1e-150
1e-150
1e-150
1e-150
1e-150
1e-150
1e-150
1e-150
1e-150
1e-150
1e-150
1e-150
1e-150
1e-150
1e-150
1e-150
1e-150
)
;

boundaryField
{
    Wall
    {
        type            zeroGradient;
    }
    frontAndBack
    {
        type            empty;
    }
    atmosphere
    {
        type            zeroGradient;
    }
}


// ************************************************************************* //
