/*--------------------------------*- C++ -*----------------------------------*\
| =========                 |                                                 |
| \\      /  F ield         | OpenFOAM: The Open Source CFD Toolbox           |
|  \\    /   O peration     | Version:  3.0.1                                 |
|   \\  /    A nd           | Web:      www.OpenFOAM.org                      |
|    \\/     M anipulation  |                                                 |
\*---------------------------------------------------------------------------*/
FoamFile
{
    version     2.0;
    format      ascii;
    class       volScalarField;
    location    "34";
    object      XW;
}
// * * * * * * * * * * * * * * * * * * * * * * * * * * * * * * * * * * * * * //

dimensions      [0 0 0 0 0 0 0];

internalField   nonuniform List<scalar> 
800
(
0.83257782
0.83262107
0.83262986
0.83263113
0.83263126
0.8326313
0.8326314
0.83263153
0.83263162
0.83263168
0.83263168
0.83263162
0.83263152
0.8326314
0.83263131
0.83263126
0.83263113
0.83262986
0.83262108
0.83257782
0.82589976
0.82626887
0.82637256
0.82640459
0.82641391
0.82641602
0.82641606
0.82641571
0.82641542
0.82641527
0.82641527
0.82641542
0.8264157
0.82641605
0.82641601
0.8264139
0.82640458
0.82637254
0.82626885
0.82589971
0.81922704
0.81983027
0.8200341
0.82009943
0.82011967
0.82012502
0.82012577
0.82012543
0.82012503
0.82012482
0.82012482
0.82012503
0.82012542
0.82012575
0.820125
0.82011965
0.82009941
0.82003407
0.81983022
0.81922697
0.81301128
0.81382877
0.81412086
0.81421537
0.81424526
0.81425356
0.81425506
0.81425481
0.81425435
0.81425409
0.81425409
0.81425434
0.81425479
0.81425504
0.81425353
0.81424523
0.81421534
0.81412082
0.81382871
0.81301119
0.80727417
0.80828541
0.80865605
0.80877563
0.8088134
0.80882399
0.80882612
0.80882598
0.80882554
0.80882527
0.80882527
0.80882553
0.80882597
0.8088261
0.80882397
0.80881336
0.80877559
0.808656
0.80828534
0.80727407
0.80204156
0.80322277
0.80366444
0.80380522
0.8038488
0.80386068
0.80386299
0.80386279
0.8038623
0.803862
0.803862
0.80386229
0.80386278
0.80386296
0.80386065
0.80384876
0.80380518
0.80366439
0.8032227
0.80204145
0.79734804
0.7986744
0.7991803
0.79933889
0.79938628
0.7993983
0.79940021
0.79939965
0.79939896
0.79939858
0.79939858
0.79939895
0.79939964
0.79940019
0.79939827
0.79938625
0.79933884
0.79918024
0.79867433
0.79734794
0.79321841
0.79466626
0.79522947
0.79540287
0.79545224
0.79546329
0.7954642
0.79546294
0.79546189
0.79546135
0.79546135
0.79546188
0.79546292
0.79546418
0.79546326
0.7954522
0.79540283
0.79522942
0.7946662
0.79321831
0.78966905
0.79121713
0.7918302
0.79201594
0.79206567
0.79207472
0.79207406
0.79207176
0.79207018
0.7920694
0.7920694
0.79207017
0.79207175
0.79207404
0.79207469
0.79206564
0.7920159
0.79183015
0.79121706
0.78966897
0.78670769
0.78833845
0.78899309
0.78918928
0.78923804
0.78924415
0.78924135
0.78923767
0.78923537
0.78923426
0.78923426
0.78923536
0.78923765
0.78924133
0.78924412
0.78923801
0.78918924
0.78899305
0.7883384
0.78670762
0.78432853
0.78602977
0.78671727
0.78692313
0.78697017
0.78697267
0.78696732
0.786962
0.78695886
0.78695736
0.78695736
0.78695885
0.78696198
0.7869673
0.78697264
0.78697015
0.78692311
0.78671723
0.78602973
0.78432848
0.78252513
0.78429116
0.78500191
0.78521716
0.78526168
0.78525979
0.78525136
0.78524404
0.78523986
0.78523786
0.78523786
0.78523985
0.78524402
0.78525135
0.78525977
0.78526166
0.78521715
0.78500188
0.78429114
0.78252509
0.78128045
0.78311136
0.7838373
0.78406333
0.78410486
0.78409831
0.78408658
0.78407708
0.78407179
0.78406925
0.78406925
0.78407179
0.78407707
0.78408657
0.7840983
0.78410484
0.78406332
0.78383729
0.78311135
0.78128043
0.78056644
0.78246937
0.7832055
0.78344472
0.78348225
0.78347104
0.78345594
0.78344418
0.7834376
0.7834345
0.7834345
0.7834376
0.78344417
0.78345594
0.78347103
0.78348225
0.78344472
0.7832055
0.78246937
0.78056644
0.78034482
0.78233356
0.78308059
0.78333644
0.7833684
0.78335302
0.78333485
0.78332094
0.78331234
0.78330867
0.78330867
0.78331234
0.78332094
0.78333485
0.78335302
0.7833684
0.78333645
0.7830806
0.78233357
0.78034483
0.78055859
0.78265503
0.78342149
0.78369857
0.78372307
0.78370488
0.78368445
0.78366886
0.78365624
0.78365204
0.78365204
0.78365624
0.78366886
0.78368445
0.78370489
0.78372308
0.78369859
0.78342151
0.78265506
0.78055862
0.78113366
0.7833703
0.78417366
0.78447818
0.78449395
0.78447545
0.7844535
0.784437
0.78441659
0.78441193
0.78441193
0.78441659
0.784437
0.78445351
0.78447546
0.78449397
0.78447821
0.7841737
0.78337034
0.7811337
0.78196903
0.78439344
0.78526047
0.78560199
0.78561069
0.78559522
0.78557173
0.78555566
0.78552183
0.78551689
0.78551689
0.78552183
0.78555566
0.78557173
0.78559523
0.78561071
0.78560203
0.78526051
0.78439349
0.78196907
0.78293148
0.78561254
0.78657923
0.78697273
0.78698022
0.78697087
0.78694461
0.78693113
0.78687642
0.78687159
0.78687159
0.78687642
0.78693113
0.78694461
0.78697089
0.78698025
0.78697277
0.78657927
0.7856126
0.78293154
0.78384813
0.78688225
0.78799542
0.78846404
0.7884801
0.78847947
0.78844812
0.78844031
0.78835575
0.78835176
0.78835176
0.78835574
0.78844031
0.78844813
0.78847949
0.78848013
0.78846408
0.78799547
0.78688231
0.78384819
0.78449058
0.78801158
0.78933242
0.78990943
0.78994688
0.78995818
0.78991965
0.7899218
0.78979754
0.78979573
0.78979573
0.78979753
0.7899218
0.78991966
0.7899582
0.78994691
0.78990947
0.78933247
0.78801165
0.78449065
0.78454829
0.78874361
0.79035464
0.79108466
0.7911587
0.79118716
0.79114219
0.79116022
0.79098741
0.79098995
0.79098994
0.7909874
0.79116022
0.79114219
0.79118718
0.79115873
0.79108472
0.7903547
0.78874369
0.78454837
0.78359228
0.78872533
0.79074218
0.79168317
0.79181339
0.79186779
0.79182184
0.79186391
0.79163773
0.79164787
0.79164787
0.79163773
0.79186391
0.79182185
0.79186782
0.79181343
0.79168323
0.79074225
0.78872542
0.78359238
0.78101255
0.78745709
0.79004888
0.79127451
0.79149247
0.79158569
0.79154881
0.79162589
0.79134886
0.79137126
0.79137126
0.79134886
0.79162589
0.79154882
0.79158572
0.79149252
0.79127458
0.79004896
0.7874572
0.78101268
0.77591131
0.78421007
0.78763297
0.7892394
0.78959965
0.78974976
0.78973608
0.78986273
0.78954722
0.78958844
0.78958844
0.78954722
0.78986273
0.78973609
0.78974979
0.7895997
0.78923948
0.78763307
0.78421021
0.7759115
0.76691426
0.77788403
0.78253375
0.78466365
0.78525175
0.78549136
0.78552252
0.78571801
0.78538797
0.7854569
0.7854569
0.78538798
0.78571802
0.78552254
0.7854914
0.78525182
0.78466376
0.78253389
0.77788424
0.76691456
0.751864
0.76677635
0.77327497
0.77615557
0.7771057
0.77749407
0.77760701
0.77789661
0.77758825
0.77769639
0.7776964
0.77758826
0.77789663
0.77760705
0.77749414
0.7771058
0.77615572
0.77327518
0.76677669
0.75186448
0.72734744
0.74819015
0.75753704
0.76154701
0.76307793
0.76371962
0.76397582
0.76439189
0.76415306
0.76431517
0.76431518
0.76415309
0.76439193
0.76397589
0.76371973
0.76307809
0.76154724
0.75753737
0.7481907
0.72734824
0.68806454
0.71787204
0.73167175
0.7374288
0.73988693
0.74098028
0.74147614
0.74205895
0.74194814
0.74218231
0.74218232
0.74194819
0.74205902
0.74147627
0.74098045
0.73988718
0.73742916
0.73167227
0.71787295
0.68806584
0.62635637
0.66942152
0.69008838
0.69855169
0.70244068
0.70431898
0.70523309
0.70603594
0.70612033
0.70644622
0.70644624
0.7061204
0.70603607
0.7052333
0.70431926
0.70244107
0.69855224
0.6900892
0.66942296
0.62635841
0.53319155
0.59436576
0.62498234
0.63742214
0.64338457
0.64643676
0.6481495
0.64933066
0.64968486
0.65011718
0.65011722
0.64968498
0.64933086
0.64814981
0.64643716
0.64338514
0.63742295
0.62498355
0.59436785
0.53319434
0.40302964
0.48569321
0.52750191
0.54503665
0.5541456
0.55847742
0.56123553
0.56375065
0.564415
0.56494242
0.56494247
0.56441515
0.56375093
0.56123595
0.55847796
0.55414636
0.54503771
0.52750348
0.48569572
0.40303253
0.2437476
0.34201135
0.39429888
0.4162571
0.42971497
0.43456152
0.43819293
0.444128
0.4449638
0.44549918
0.44549924
0.44496398
0.44412831
0.43819338
0.4345621
0.42971575
0.41625819
0.39430043
0.34201347
0.2437494
0.027892816
0.1689641
0.23178342
0.25571753
0.27412591
0.27800094
0.28750119
0.29346355
0.29412647
0.29451088
0.29451092
0.2941266
0.29346378
0.28750151
0.27800136
0.27412646
0.25571826
0.23178437
0.16896515
0.027893065
1e-150
1e-150
0.027508424
0.055179048
0.081096035
0.10095154
0.10459774
0.1067294
0.10698481
0.1071245
0.10712451
0.10698486
0.10672949
0.10459786
0.1009517
0.081096214
0.055179233
0.027508548
1e-150
1e-150
1e-150
1e-150
1e-150
1e-150
1e-150
1e-150
1e-150
1e-150
1e-150
1e-150
1e-150
1e-150
1e-150
1e-150
1e-150
1e-150
1e-150
1e-150
1e-150
1e-150
1e-150
1e-150
1e-150
1e-150
1e-150
1e-150
1e-150
1e-150
1e-150
1e-150
1e-150
1e-150
1e-150
1e-150
1e-150
1e-150
1e-150
1e-150
1e-150
1e-150
1e-150
1e-150
1e-150
1e-150
1e-150
1e-150
1e-150
1e-150
1e-150
1e-150
1e-150
1e-150
1e-150
1e-150
1e-150
1e-150
1e-150
1e-150
1e-150
1e-150
1e-150
1e-150
1e-150
1e-150
1e-150
1e-150
1e-150
1e-150
1e-150
1e-150
1e-150
1e-150
1e-150
1e-150
1e-150
1e-150
1e-150
1e-150
1e-150
1e-150
1e-150
1e-150
1e-150
1e-150
1e-150
1e-150
1e-150
1e-150
1e-150
1e-150
1e-150
1e-150
1e-150
1e-150
1e-150
1e-150
1e-150
1e-150
1e-150
1e-150
)
;

boundaryField
{
    Wall
    {
        type            zeroGradient;
    }
    frontAndBack
    {
        type            empty;
    }
    atmosphere
    {
        type            zeroGradient;
    }
}


// ************************************************************************* //
