/*--------------------------------*- C++ -*----------------------------------*\
| =========                 |                                                 |
| \\      /  F ield         | OpenFOAM: The Open Source CFD Toolbox           |
|  \\    /   O peration     | Version:  3.0.1                                 |
|   \\  /    A nd           | Web:      www.OpenFOAM.org                      |
|    \\/     M anipulation  |                                                 |
\*---------------------------------------------------------------------------*/
FoamFile
{
    version     2.0;
    format      ascii;
    class       volScalarField;
    location    "38";
    object      wBA_l_0;
}
// * * * * * * * * * * * * * * * * * * * * * * * * * * * * * * * * * * * * * //

dimensions      [0 0 0 0 0 0 0];

internalField   nonuniform List<scalar> 
800
(
0.037756728
0.037754859
0.037754556
0.037754523
0.037754523
0.037754523
0.037754519
0.037754514
0.03775451
0.037754508
0.037754508
0.03775451
0.037754514
0.037754519
0.037754523
0.037754524
0.037754523
0.037754556
0.037754859
0.037756728
0.038084937
0.038065791
0.038060117
0.038057939
0.038057004
0.038056569
0.038056356
0.038056247
0.038056193
0.03805617
0.03805617
0.038056193
0.038056248
0.038056356
0.03805657
0.038057005
0.038057939
0.038060118
0.038065793
0.038084939
0.038393394
0.038365777
0.038357093
0.038354173
0.038353093
0.038352651
0.038352445
0.038352336
0.038352276
0.038352249
0.038352249
0.038352276
0.038352337
0.038352446
0.038352652
0.038353094
0.038354174
0.038357094
0.038365779
0.038393397
0.03856401
0.03853291
0.038522996
0.03851997
0.038518953
0.038518561
0.038518369
0.038518254
0.038518182
0.038518147
0.038518147
0.038518182
0.038518255
0.03851837
0.038518561
0.038518954
0.038519971
0.038522997
0.038532912
0.038564013
0.038619798
0.038590265
0.038580792
0.03857829
0.038577589
0.03857734
0.03857719
0.038577072
0.038576985
0.038576939
0.038576939
0.038576985
0.038577073
0.03857719
0.03857734
0.03857759
0.03857829
0.038580792
0.038590266
0.0386198
0.038573275
0.03855002
0.038542508
0.038541131
0.038541013
0.038541017
0.038540953
0.038540848
0.038540749
0.038540693
0.038540693
0.038540749
0.038540848
0.038540952
0.038541017
0.038541012
0.03854113
0.038542508
0.03855002
0.038573275
0.03843213
0.038419473
0.038415295
0.038415569
0.038416263
0.038416625
0.038416692
0.03841662
0.038416518
0.038416454
0.038416454
0.038416517
0.038416619
0.038416691
0.038416625
0.038416262
0.038415568
0.038415293
0.038419472
0.038432128
0.038203202
0.038204962
0.03820536
0.03820774
0.038209441
0.038210248
0.038210485
0.038210466
0.03821037
0.038210302
0.038210302
0.038210369
0.038210465
0.038210484
0.038210246
0.038209439
0.038207738
0.038205357
0.03820496
0.038203198
0.037895293
0.037914661
0.037920677
0.037925475
0.037928272
0.037929543
0.037929949
0.037929975
0.037929876
0.037929801
0.0379298
0.037929875
0.037929974
0.037929948
0.037929541
0.03792827
0.037925472
0.037920673
0.037914657
0.037895289
0.037517622
0.037557091
0.037569694
0.037577247
0.037581282
0.037583092
0.03758371
0.037583809
0.037583725
0.03758365
0.03758365
0.037583724
0.037583807
0.037583708
0.037583089
0.037581279
0.037577243
0.037569689
0.037557086
0.037517616
0.037080311
0.037141961
0.03716176
0.03717216
0.037177407
0.037179706
0.037180487
0.037180623
0.037180532
0.037180447
0.037180446
0.037180531
0.037180621
0.037180484
0.037179703
0.037177402
0.037172155
0.037161755
0.037141955
0.037080304
0.036587505
0.036679445
0.036707122
0.036720524
0.03672705
0.036729863
0.0367308
0.036730973
0.036730874
0.036730778
0.036730777
0.036730872
0.036730971
0.036730796
0.036729859
0.036727045
0.036720519
0.036707116
0.036679438
0.036587496
0.036049039
0.036164826
0.036201724
0.036218346
0.036226143
0.036229456
0.036230557
0.036230772
0.036230667
0.036230559
0.036230559
0.036230665
0.036230769
0.036230553
0.036229451
0.036226138
0.03621834
0.036201717
0.036164819
0.03604903
0.035472469
0.035613333
0.035660095
0.035679977
0.035688948
0.035692673
0.035693917
0.035694153
0.035694035
0.035693909
0.035693909
0.035694033
0.035694151
0.035693913
0.035692669
0.035688942
0.035679971
0.035660088
0.035613325
0.03547246
0.034864363
0.035031962
0.035089084
0.03511229
0.035122354
0.035126415
0.035127787
0.035128027
0.03512789
0.035127744
0.035127743
0.035127888
0.035128023
0.035127783
0.035126409
0.035122347
0.035112283
0.035089075
0.035031953
0.034864352
0.034235868
0.034431747
0.034499668
0.034526225
0.034537271
0.034541555
0.03454298
0.034543173
0.034542994
0.034542818
0.034542817
0.034542992
0.03454317
0.034542976
0.03454155
0.034537265
0.034526219
0.03449966
0.03443174
0.034235858
0.033589849
0.033815291
0.033894651
0.033924824
0.033936916
0.033941417
0.033942854
0.033942989
0.033942767
0.033942566
0.033942565
0.033942765
0.033942985
0.033942849
0.033941412
0.033936909
0.033924816
0.033894642
0.033815282
0.033589839
0.032929818
0.033186486
0.03327809
0.033312185
0.033325393
0.033330073
0.033331432
0.033331477
0.033331197
0.033330967
0.033330966
0.033331195
0.033331473
0.033331427
0.033330067
0.033325386
0.033312178
0.033278081
0.033186477
0.032929808
0.032257971
0.032547781
0.032652607
0.032691053
0.032705513
0.032710333
0.032711527
0.032711442
0.032711082
0.032710815
0.032710814
0.03271108
0.032711438
0.032711522
0.032710327
0.032705505
0.032691045
0.032652598
0.032547771
0.032257961
0.031579918
0.031905115
0.032024526
0.032067913
0.032083811
0.032088743
0.032089694
0.032089438
0.032088979
0.032088662
0.032088662
0.032088977
0.032089435
0.03208969
0.032088738
0.032083805
0.032067906
0.032024519
0.031905108
0.031579911
0.030893419
0.031256166
0.031391937
0.031441118
0.031458741
0.031463783
0.031464413
0.031463916
0.031463323
0.03146293
0.031462929
0.031463321
0.031463913
0.031464409
0.031463777
0.031458735
0.031441111
0.031391929
0.031256158
0.030893412
0.030198126
0.030601467
0.030755767
0.030811753
0.030831416
0.030836563
0.030836788
0.030835969
0.030835214
0.030834715
0.030834715
0.030835212
0.030835966
0.030836784
0.030836558
0.030831411
0.030811748
0.030755761
0.030601461
0.030198121
0.029497795
0.029944708
0.030120337
0.030184603
0.030206829
0.030212156
0.0302119
0.03021066
0.030209701
0.030209063
0.030209062
0.030209699
0.030210657
0.030211896
0.030212152
0.030206824
0.030184598
0.030120332
0.029944703
0.029497791
0.028786423
0.029281009
0.029481171
0.029555402
0.029580852
0.029586468
0.029585638
0.029583854
0.029582634
0.029581818
0.029581818
0.029582633
0.029583851
0.029585635
0.029586465
0.029580849
0.029555398
0.029481167
0.029281006
0.028786421
0.02806396
0.028610513
0.028839446
0.02892604
0.028955575
0.028961637
0.028960098
0.028957585
0.028955994
0.028954937
0.028954936
0.028955992
0.028957582
0.028960095
0.028961634
0.028955572
0.028926038
0.028839444
0.028610511
0.028063959
0.027328308
0.027932084
0.028194778
0.028296654
0.028331531
0.028338377
0.028336063
0.028332648
0.028330574
0.028329223
0.028329222
0.028330573
0.028332646
0.02833606
0.028338375
0.028331528
0.028296652
0.028194776
0.027932084
0.027328308
0.026571498
0.027238912
0.027541237
0.027661896
0.027703756
0.02771187
0.02770871
0.027704177
0.027701458
0.027699728
0.027699728
0.027701456
0.027704174
0.027708707
0.027711868
0.027703755
0.027661895
0.027541236
0.027238913
0.0265715
0.025791279
0.026529749
0.02687869
0.027022497
0.027073467
0.027083489
0.027079399
0.027073455
0.027069852
0.027067624
0.027067623
0.02706985
0.027073453
0.027079397
0.027083487
0.027073466
0.027022497
0.02687869
0.026529752
0.025791283
0.024978605
0.025797075
0.026201183
0.026373653
0.026436645
0.026449606
0.026444654
0.026437029
0.026432293
0.026429431
0.02642943
0.026432292
0.026437027
0.026444652
0.026449605
0.026436644
0.026373654
0.026201185
0.02579708
0.024978612
0.02412477
0.025033919
0.025503287
0.025711123
0.025789783
0.02580704
0.025801339
0.025791672
0.025785448
0.025781742
0.025781741
0.025785447
0.025791671
0.025801338
0.025807039
0.025789783
0.025711125
0.02550329
0.025033926
0.024124781
0.023218952
0.024231584
0.024778474
0.025030056
0.025129136
0.02515267
0.025146583
0.02513452
0.025126382
0.025121565
0.025121564
0.025126381
0.025134519
0.025146582
0.02515267
0.025129137
0.025030059
0.024778481
0.024231595
0.023218968
0.02224714
0.023378452
0.024017612
0.024323328
0.024449023
0.024481651
0.02447589
0.024461149
0.024450577
0.024444295
0.024444295
0.024450576
0.024461147
0.02447589
0.024481652
0.024449025
0.024323333
0.024017621
0.023378469
0.022247163
0.021192555
0.022460215
0.023209185
0.023581761
0.023742184
0.023787973
0.023783799
0.023766158
0.023752517
0.023744311
0.023744311
0.023752516
0.023766157
0.023783799
0.023787974
0.023742187
0.023581768
0.023209198
0.022460238
0.021192587
0.020035512
0.021459776
0.022338743
0.022793701
0.022999589
0.023064611
0.023064095
0.023043329
0.023025879
0.023015155
0.023015154
0.023025878
0.023043328
0.023064096
0.023064613
0.022999594
0.02279371
0.02233876
0.021459809
0.020035557
0.018754473
0.020356677
0.021387774
0.021944451
0.022209685
0.022302857
0.022309309
0.022285482
0.022263402
0.022249392
0.022249392
0.022263402
0.022285482
0.02230931
0.02230286
0.022209691
0.021944462
0.021387796
0.020356721
0.018754536
0.017327055
0.019125461
0.020332861
0.021014317
0.021357991
0.021491412
0.021510526
0.021485206
0.021457655
0.021439369
0.021439368
0.021457655
0.021485206
0.021510527
0.021491415
0.021357997
0.021014331
0.020332889
0.019125516
0.01732714
0.015731589
0.017737982
0.019143451
0.01997604
0.020424242
0.02061683
0.020658708
0.020634042
0.020600345
0.020576502
0.020576501
0.020600345
0.020634042
0.020658711
0.020616834
0.020424251
0.019976056
0.019143484
0.01773805
0.015731703
0.013931721
0.01615556
0.017776776
0.018793031
0.019382541
0.019661561
0.019743232
0.019725736
0.019685572
0.019654455
0.019654455
0.019685572
0.019725737
0.019743235
0.019661567
0.019382551
0.018793052
0.017776817
0.016155643
0.013931872
0.011995615
0.014296716
0.016164387
0.017411061
0.018196061
0.018604868
0.018754024
0.018754338
0.018708434
0.018667723
0.018667723
0.018708435
0.018754341
0.018754029
0.018604876
0.018196076
0.017411089
0.01616444
0.014296824
0.011995781
0.010089276
0.01176862
0.013033541
0.014029916
0.014722747
0.015105312
0.015242998
0.015221423
0.015148431
0.015087372
0.01508737
0.015148427
0.015221417
0.01524299
0.015105303
0.014722739
0.014029911
0.013033544
0.011768656
0.010089428
)
;

boundaryField
{
    Wall
    {
        type            zeroGradient;
    }
    frontAndBack
    {
        type            empty;
    }
    atmosphere
    {
        type            zeroGradient;
    }
}


// ************************************************************************* //
